<event>
 6    1  0.1198667E-001  0.3000000E+03  0.7818608E-02  0.1093470E+00
         21   -1    0    0  501  502  0.00000000000E+00  0.00000000000E+00  0.69822182025E+01  0.69822182025E+01  0.00000000000E+00 0. -1.
         13   -1    0    0    0    0 -0.00000000000E+00 -0.00000000000E+00 -0.10000000000E+04  0.10000000000E+04  0.00000000000E+00 0.  1.
    9000005    2    1    2  501    0 -0.31092666940E+02 -0.46521041703E+02 -0.87034549042E+03  0.87215101881E+03  0.38943102641E+01 0.  0.
         13    1    3    3    0    0 -0.23282981116E+02 -0.34666426417E+02 -0.67483639894E+03  0.67612722447E+03  0.00000000000E+00 0.  1.
          1    1    3    3  501    0 -0.78096858241E+01 -0.11854615287E+02 -0.19550909148E+03  0.19602379434E+03  0.00000000000E+00 0.  1.
         -3    1    1    2    0  502  0.31092666940E+02  0.46521041703E+02 -0.12267229137E+03  0.13483119939E+03  0.00000000000E+00 0. -1.
<mgrwt>
<rscale>  1 0.30000000E+03</rscale>
<asrwt>0</asrwt>
<pdfrwt beam="1">  1       21 0.25389938E-01 0.30000000E+03</pdfrwt>
<pdfrwt beam="2">0</pdfrwt>
<totfact> 0.15130047E+03</totfact>
</mgrwt>
</event>
<event>
 6    1  0.1198667E-001  0.3000000E+03  0.7818608E-02  0.1093470E+00
         21   -1    0    0  501  502  0.00000000000E+00  0.00000000000E+00  0.18600047997E+01  0.18600047997E+01  0.00000000000E+00 0. -1.
         13   -1    0    0    0    0 -0.00000000000E+00 -0.00000000000E+00 -0.10000000000E+04  0.10000000000E+04  0.00000000000E+00 0.  1.
    9000005    2    1    2  501    0 -0.11056399269E+02 -0.36470066115E+02 -0.72720200847E+03  0.72825499326E+03  0.89590398567E+01 0.  0.
         13    1    3    3    0    0 -0.10067437207E+02 -0.21096727906E+02 -0.48565320069E+03  0.48621544254E+03  0.00000000000E+00 0.  1.
          1    1    3    3  501    0 -0.98896206192E+00 -0.15373338209E+02 -0.24154880778E+03  0.24203955072E+03  0.00000000000E+00 0.  1.
         -1    1    1    2    0  502  0.11056399269E+02  0.36470066115E+02 -0.27093798673E+03  0.27360501154E+03  0.00000000000E+00 0. -1.
<mgrwt>
<rscale>  1 0.30000000E+03</rscale>
<asrwt>0</asrwt>
<pdfrwt beam="1">  1       21 0.67636681E-02 0.30000000E+03</pdfrwt>
<pdfrwt beam="2">0</pdfrwt>
<totfact> 0.17127763E+04</totfact>
</mgrwt>
</event>
<event>
 6    1  0.1198667E-001  0.3000000E+03  0.7818608E-02  0.1093470E+00
         21   -1    0    0  501  502  0.00000000000E+00  0.00000000000E+00  0.13330436171E+01  0.13330436171E+01  0.00000000000E+00 0. -1.
         13   -1    0    0    0    0 -0.00000000000E+00 -0.00000000000E+00 -0.10000000000E+04  0.10000000000E+04  0.00000000000E+00 0.  1.
    9000005    2    1    2  501    0  0.30341204428E+02 -0.31012471861E+01 -0.77403613457E+03  0.77464115464E+03  0.26027715342E+01 0.  0.
         13    1    3    3    0    0  0.19206893733E+02 -0.14985004068E+01 -0.45850124172E+03  0.45890580617E+03  0.00000000000E+00 0.  1.
          3    1    3    3  501    0  0.11134310695E+02 -0.16027467793E+01 -0.31553489284E+03  0.31573534847E+03  0.00000000000E+00 0.  1.
         -1    1    1    2    0  502 -0.30341204428E+02  0.31012471861E+01 -0.22463082181E+03  0.22669188898E+03  0.00000000000E+00 0. -1.
<mgrwt>
<rscale>  1 0.30000000E+03</rscale>
<asrwt>0</asrwt>
<pdfrwt beam="1">  1       21 0.48474416E-02 0.30000000E+03</pdfrwt>
<pdfrwt beam="2">0</pdfrwt>
<totfact> 0.30365971E+04</totfact>
</mgrwt>
</event>
<event>
 6    1  0.1198667E-001  0.3000000E+03  0.7818608E-02  0.1093470E+00
         21   -1    0    0  501  502  0.00000000000E+00  0.00000000000E+00  0.10319572297E+01  0.10319572297E+01  0.00000000000E+00 0. -1.
         13   -1    0    0    0    0 -0.00000000000E+00 -0.00000000000E+00 -0.10000000000E+04  0.10000000000E+04  0.00000000000E+00 0.  1.
    9000005    2    1    2  501    0 -0.25342582725E+02 -0.17599432577E+02 -0.36630192157E+03  0.36761392193E+03  0.33032296021E+01 0.  0.
         13    1    3    3    0    0 -0.75762170221E+01 -0.47247684959E+01 -0.12372475925E+03  0.12404651770E+03  0.00000000000E+00 0.  1.
          1    1    3    3  501    0 -0.17766365703E+02 -0.12874664081E+02 -0.24257716232E+03  0.24356740423E+03  0.00000000000E+00 0.  1.
         -1    1    1    2    0  502  0.25342582725E+02  0.17599432577E+02 -0.63266612120E+03  0.63341803530E+03  0.00000000000E+00 0. -1.
<mgrwt>
<rscale>  1 0.30000000E+03</rscale>
<asrwt>0</asrwt>
<pdfrwt beam="1">  1       21 0.37525797E-02 0.30000000E+03</pdfrwt>
<pdfrwt beam="2">0</pdfrwt>
<totfact> 0.46813182E+04</totfact>
</mgrwt>
</event>
<event>
 6    1  0.1198667E-001  0.3000000E+03  0.7818608E-02  0.1093470E+00
         21   -1    0    0  501  502  0.00000000000E+00  0.00000000000E+00  0.23365900995E+01  0.23365900995E+01  0.00000000000E+00 0. -1.
         13   -1    0    0    0    0 -0.00000000000E+00 -0.00000000000E+00 -0.10000000000E+04  0.10000000000E+04  0.00000000000E+00 0.  1.
    9000005    2    1    2  501    0 -0.42231268125E+02  0.92385185178E+01 -0.72241935603E+03  0.72371835770E+03  0.31152977222E+01 0.  0.
         13    1    3    3    0    0 -0.15494682638E+02  0.20991182083E+01 -0.27442098711E+03  0.27486609404E+03  0.00000000000E+00 0.  1.
          3    1    3    3  501    0 -0.26736585487E+02  0.71394003095E+01 -0.44799836892E+03  0.44885226366E+03  0.00000000000E+00 0.  1.
         -3    1    1    2    0  502  0.42231268125E+02 -0.92385185178E+01 -0.27524405387E+03  0.27861823240E+03  0.00000000000E+00 0. -1.
<mgrwt>
<rscale>  1 0.30000000E+03</rscale>
<asrwt>0</asrwt>
<pdfrwt beam="1">  1       21 0.84967092E-02 0.30000000E+03</pdfrwt>
<pdfrwt beam="2">0</pdfrwt>
<totfact> 0.11489104E+04</totfact>
</mgrwt>
</event>
<event>
 6    1  0.1198667E-001  0.3000000E+03  0.7818608E-02  0.1093470E+00
         21   -1    0    0  501  502  0.00000000000E+00  0.00000000000E+00  0.22779760778E+01  0.22779760778E+01  0.00000000000E+00 0. -1.
         13   -1    0    0    0    0 -0.00000000000E+00 -0.00000000000E+00 -0.10000000000E+04  0.10000000000E+04  0.00000000000E+00 0.  1.
    9000005    2    1    2  501    0 -0.10548418855E+02  0.31705471096E+02 -0.85662008679E+03  0.85727362201E+03  0.18931071442E+01 0.  0.
         13    1    3    3    0    0 -0.63378997636E+01  0.21845790396E+02 -0.58145080930E+03  0.58189556723E+03  0.00000000000E+00 0.  1.
          1    1    3    3  501    0 -0.42105190918E+01  0.98596807000E+01 -0.27516927750E+03  0.27537805478E+03  0.00000000000E+00 0.  1.
         -3    1    1    2    0  502  0.10548418855E+02 -0.31705471096E+02 -0.14110193713E+03  0.14500435407E+03  0.00000000000E+00 0. -1.
<mgrwt>
<rscale>  1 0.30000000E+03</rscale>
<asrwt>0</asrwt>
<pdfrwt beam="1">  1       21 0.82835668E-02 0.30000000E+03</pdfrwt>
<pdfrwt beam="2">0</pdfrwt>
<totfact> 0.12015009E+04</totfact>
</mgrwt>
</event>
<event>
 6    1  0.1198667E-001  0.3000000E+03  0.7818608E-02  0.1093470E+00
         21   -1    0    0  501  502  0.00000000000E+00  0.00000000000E+00  0.55662119315E+01  0.55662119315E+01  0.00000000000E+00 0. -1.
         13   -1    0    0    0    0 -0.00000000000E+00 -0.00000000000E+00 -0.10000000000E+04  0.10000000000E+04  0.00000000000E+00 0.  1.
    9000005    2    1    2  501    0  0.55561436181E+02  0.41436882658E+02 -0.67863552415E+03  0.68225114589E+03  0.10787168126E+02 0.  0.
         13    1    3    3    0    0  0.21742090058E+02  0.21565789068E+02 -0.26674988676E+03  0.26850196242E+03  0.00000000000E+00 0.  1.
          3    1    3    3  501    0  0.33819346122E+02  0.19871093590E+02 -0.41188563740E+03  0.41374918348E+03  0.00000000000E+00 0.  1.
         -3    1    1    2    0  502 -0.55561436181E+02 -0.41436882658E+02 -0.31579826391E+03  0.32331506604E+03  0.00000000000E+00 0. -1.
<mgrwt>
<rscale>  1 0.30000000E+03</rscale>
<asrwt>0</asrwt>
<pdfrwt beam="1">  1       21 0.20240813E-01 0.30000000E+03</pdfrwt>
<pdfrwt beam="2">0</pdfrwt>
<totfact> 0.23449927E+03</totfact>
</mgrwt>
</event>
<event>
 6    1  0.1198667E-001  0.3000000E+03  0.7818608E-02  0.1093470E+00
         21   -1    0    0  501  502  0.00000000000E+00  0.00000000000E+00  0.12093410855E+01  0.12093410855E+01  0.00000000000E+00 0. -1.
         13   -1    0    0    0    0 -0.00000000000E+00 -0.00000000000E+00 -0.10000000000E+04  0.10000000000E+04  0.00000000000E+00 0.  1.
    9000005    2    1    2  501    0 -0.20915063871E+02  0.24212064027E+02 -0.69381447719E+03  0.69455948317E+03  0.32684797677E+01 0.  0.
         13    1    3    3    0    0 -0.19605081737E+02  0.21316760168E+02 -0.63250491146E+03  0.63316761329E+03  0.00000000000E+00 0.  1.
          3    1    3    3  501    0 -0.13099821342E+01  0.28953038588E+01 -0.61309565725E+02  0.61391869877E+02  0.00000000000E+00 0.  1.
         -1    1    1    2    0  502  0.20915063871E+02 -0.24212064027E+02 -0.30497618173E+03  0.30664985792E+03  0.00000000000E+00 0. -1.
<mgrwt>
<rscale>  1 0.30000000E+03</rscale>
<asrwt>0</asrwt>
<pdfrwt beam="1">  1       21 0.43976132E-02 0.30000000E+03</pdfrwt>
<pdfrwt beam="2">0</pdfrwt>
<totfact> 0.35829321E+04</totfact>
</mgrwt>
</event>
<event>
 6    1  0.1198667E-001  0.3000000E+03  0.7818608E-02  0.1093470E+00
         21   -1    0    0  501  502  0.00000000000E+00  0.00000000000E+00  0.28657913391E+01  0.28657913391E+01  0.00000000000E+00 0. -1.
         13   -1    0    0    0    0 -0.00000000000E+00 -0.00000000000E+00 -0.10000000000E+04  0.10000000000E+04  0.00000000000E+00 0.  1.
    9000005    2    1    2  501    0  0.15890234809E+02  0.31997764301E+02 -0.87192062495E+03  0.87265520026E+03  0.22728508797E+01 0.  0.
         13    1    3    3    0    0  0.76270585832E+01  0.17802019373E+02 -0.46401316213E+03  0.46441716004E+03  0.00000000000E+00 0.  1.
          3    1    3    3  501    0  0.82631762262E+01  0.14195744929E+02 -0.40790746282E+03  0.40823804022E+03  0.00000000000E+00 0.  1.
         -1    1    1    2    0  502 -0.15890234809E+02 -0.31997764301E+02 -0.12521358371E+03  0.13021059108E+03  0.00000000000E+00 0. -1.
<mgrwt>
<rscale>  1 0.30000000E+03</rscale>
<asrwt>0</asrwt>
<pdfrwt beam="1">  1       21 0.10421081E-01 0.30000000E+03</pdfrwt>
<pdfrwt beam="2">0</pdfrwt>
<totfact> 0.79911845E+03</totfact>
</mgrwt>
</event>
<event>
 6    1  0.1198667E-001  0.3000000E+03  0.7818608E-02  0.1093470E+00
         21   -1    0    0  501  502  0.00000000000E+00  0.00000000000E+00  0.34056815930E+01  0.34056815930E+01  0.00000000000E+00 0. -1.
         13   -1    0    0    0    0 -0.00000000000E+00 -0.00000000000E+00 -0.10000000000E+04  0.10000000000E+04  0.00000000000E+00 0.  1.
    9000005    2    1    2  501    0  0.54243231512E+02  0.19720307776E+02 -0.42679513354E+03  0.43069080508E+03  0.30438238991E+01 0.  0.
         13    1    3    3    0    0  0.79723199521E+01  0.23147730740E+01 -0.68510034543E+02  0.69011164987E+02  0.00000000000E+00 0.  1.
          1    1    3    3  501    0  0.46270911559E+02  0.17405534702E+02 -0.35828509900E+03  0.36167964009E+03  0.00000000000E+00 0.  1.
         -1    1    1    2    0  502 -0.54243231512E+02 -0.19720307776E+02 -0.56979918487E+03  0.57271487651E+03  0.00000000000E+00 0. -1.
<mgrwt>
<rscale>  1 0.30000000E+03</rscale>
<asrwt>0</asrwt>
<pdfrwt beam="1">  1       21 0.12384323E-01 0.30000000E+03</pdfrwt>
<pdfrwt beam="2">0</pdfrwt>
<totfact> 0.58519276E+03</totfact>
</mgrwt>
</event>
<event>
 6    1  0.1198667E-001  0.3000000E+03  0.7818608E-02  0.1093470E+00
         21   -1    0    0  501  502  0.00000000000E+00  0.00000000000E+00  0.13232749944E+01  0.13232749944E+01  0.00000000000E+00 0. -1.
         13   -1    0    0    0    0 -0.00000000000E+00 -0.00000000000E+00 -0.10000000000E+04  0.10000000000E+04  0.00000000000E+00 0.  1.
    9000005    2    1    2  501    0  0.32139425488E+02 -0.77351266745E+01 -0.70666658866E+03  0.70744797051E+03  0.34912174600E+01 0.  0.
         13    1    3    3    0    0  0.75745729689E+01 -0.10243111679E+01 -0.19128473106E+03  0.19143738325E+03  0.00000000000E+00 0.  1.
          3    1    3    3  501    0  0.24564852519E+02 -0.67108155066E+01 -0.51538185760E+03  0.51601058727E+03  0.00000000000E+00 0.  1.
         -3    1    1    2    0  502 -0.32139425488E+02  0.77351266745E+01 -0.29201013634E+03  0.29387530448E+03  0.00000000000E+00 0. -1.
<mgrwt>
<rscale>  1 0.30000000E+03</rscale>
<asrwt>0</asrwt>
<pdfrwt beam="1">  1       21 0.48119192E-02 0.30000000E+03</pdfrwt>
<pdfrwt beam="2">0</pdfrwt>
<totfact> 0.30748498E+04</totfact>
</mgrwt>
</event>
<event>
 6    1  0.1198667E-001  0.3000000E+03  0.7818608E-02  0.1093470E+00
         21   -1    0    0  501  502  0.00000000000E+00  0.00000000000E+00  0.19205721471E+02  0.19205721471E+02  0.00000000000E+00 0. -1.
         13   -1    0    0    0    0 -0.00000000000E+00 -0.00000000000E+00 -0.10000000000E+04  0.10000000000E+04  0.00000000000E+00 0.  1.
    9000005    2    1    2  501    0 -0.10218023033E+02 -0.32330875332E+02 -0.98451143415E+03  0.98509544823E+03  0.76463106320E+00 0.  0.
         13    1    3    3    0    0 -0.28535500267E+01 -0.94118147432E+01 -0.29515150780E+03  0.29531531887E+03  0.00000000000E+00 0.  1.
          3    1    3    3  501    0 -0.73644730060E+01 -0.22919060589E+02 -0.68935992636E+03  0.68978012936E+03  0.00000000000E+00 0.  1.
         -1    1    1    2    0  502  0.10218023033E+02  0.32330875332E+02  0.37171556230E+01  0.34110273238E+02  0.00000000000E+00 0. -1.
<mgrwt>
<rscale>  1 0.30000000E+03</rscale>
<asrwt>0</asrwt>
<pdfrwt beam="1">  1       21 0.69839134E-01 0.30000000E+03</pdfrwt>
<pdfrwt beam="2">0</pdfrwt>
<totfact> 0.17736587E+02</totfact>
</mgrwt>
</event>
<event>
 6    1  0.1198667E-001  0.3000000E+03  0.7818608E-02  0.1093470E+00
         21   -1    0    0  501  502  0.00000000000E+00  0.00000000000E+00  0.21060181864E+01  0.21060181864E+01  0.00000000000E+00 0. -1.
         13   -1    0    0    0    0 -0.00000000000E+00 -0.00000000000E+00 -0.10000000000E+04  0.10000000000E+04  0.00000000000E+00 0.  1.
    9000005    2    1    2  501    0 -0.29610230910E+02 -0.34614432751E+02 -0.44360857134E+03  0.44595204581E+03  0.31205551040E+01 0.  0.
         13    1    3    3    0    0 -0.20703678347E+02 -0.24001444119E+02 -0.32224877864E+03  0.32380393288E+03  0.00000000000E+00 0.  1.
          3    1    3    3  501    0 -0.89065525627E+01 -0.10612988632E+02 -0.12135979270E+03  0.12214811293E+03  0.00000000000E+00 0.  1.
         -1    1    1    2    0  502  0.29610230910E+02  0.34614432751E+02 -0.55428541047E+03  0.55615397238E+03  0.00000000000E+00 0. -1.
<mgrwt>
<rscale>  1 0.30000000E+03</rscale>
<asrwt>0</asrwt>
<pdfrwt beam="1">  1       21 0.76582641E-02 0.30000000E+03</pdfrwt>
<pdfrwt beam="2">0</pdfrwt>
<totfact> 0.13790675E+04</totfact>
</mgrwt>
</event>
<event>
 6    1  0.1198667E-001  0.3000000E+03  0.7818608E-02  0.1093470E+00
         21   -1    0    0  501  502  0.00000000000E+00  0.00000000000E+00  0.29014260182E+01  0.29014260182E+01  0.00000000000E+00 0. -1.
         13   -1    0    0    0    0 -0.00000000000E+00 -0.00000000000E+00 -0.10000000000E+04  0.10000000000E+04  0.00000000000E+00 0.  1.
    9000005    2    1    2  501    0  0.16634593139E+02 -0.40142049313E+02 -0.79462926660E+03  0.79582193828E+03  0.29651799219E+01 0.  0.
         13    1    3    3    0    0  0.13672943988E+02 -0.29837054743E+02 -0.59136691643E+03  0.59227698679E+03  0.00000000000E+00 0.  1.
          3    1    3    3  501    0  0.29616491506E+01 -0.10304994570E+02 -0.20326235017E+03  0.20354495149E+03  0.00000000000E+00 0.  1.
         -1    1    1    2    0  502 -0.16634593139E+02  0.40142049313E+02 -0.20246930738E+03  0.20707948774E+03  0.00000000000E+00 0. -1.
<mgrwt>
<rscale>  1 0.30000000E+03</rscale>
<asrwt>0</asrwt>
<pdfrwt beam="1">  1       21 0.10550662E-01 0.30000000E+03</pdfrwt>
<pdfrwt beam="2">0</pdfrwt>
<totfact> 0.78161254E+03</totfact>
</mgrwt>
</event>
<event>
 6    1  0.1198667E-001  0.3000000E+03  0.7818608E-02  0.1093470E+00
         21   -1    0    0  501  502  0.00000000000E+00  0.00000000000E+00  0.41130474432E+01  0.41130474432E+01  0.00000000000E+00 0. -1.
         13   -1    0    0    0    0 -0.00000000000E+00 -0.00000000000E+00 -0.10000000000E+04  0.10000000000E+04  0.00000000000E+00 0.  1.
    9000005    2    1    2  501    0  0.12673695802E+02 -0.27912963262E+02 -0.93887542887E+03  0.93938229805E+03  0.35035522913E+01 0.  0.
         13    1    3    3    0    0  0.17299701555E+01 -0.74542681029E+01 -0.23583444329E+03  0.23595856321E+03  0.00000000000E+00 0.  1.
          1    1    3    3  501    0  0.10943725647E+02 -0.20458695159E+02 -0.70304098558E+03  0.70342373484E+03  0.00000000000E+00 0.  1.
         -3    1    1    2    0  502 -0.12673695802E+02  0.27912963262E+02 -0.57011523688E+02  0.64730749390E+02  0.00000000000E+00 0. -1.
<mgrwt>
<rscale>  1 0.30000000E+03</rscale>
<asrwt>0</asrwt>
<pdfrwt beam="1">  1       21 0.14956568E-01 0.30000000E+03</pdfrwt>
<pdfrwt beam="2">0</pdfrwt>
<totfact> 0.41401931E+03</totfact>
</mgrwt>
</event>
<event>
 6    1  0.1198667E-001  0.3000000E+03  0.7818608E-02  0.1093470E+00
         21   -1    0    0  501  502  0.00000000000E+00  0.00000000000E+00  0.28296619934E+01  0.28296619934E+01  0.00000000000E+00 0. -1.
         13   -1    0    0    0    0 -0.00000000000E+00 -0.00000000000E+00 -0.10000000000E+04  0.10000000000E+04  0.00000000000E+00 0.  1.
    9000005    2    1    2  501    0 -0.41422205940E+02  0.31228865452E+02 -0.60785853543E+03  0.61007691432E+03  0.32865033555E+01 0.  0.
         13    1    3    3    0    0 -0.15363210489E+02  0.13520525697E+02 -0.23435388061E+03  0.23524577405E+03  0.00000000000E+00 0.  1.
          1    1    3    3  501    0 -0.26058995451E+02  0.17708339755E+02 -0.37350465482E+03  0.37483114027E+03  0.00000000000E+00 0.  1.
         -3    1    1    2    0  502  0.41422205940E+02 -0.31228865452E+02 -0.38931180257E+03  0.39275274767E+03  0.00000000000E+00 0. -1.
<mgrwt>
<rscale>  1 0.30000000E+03</rscale>
<asrwt>0</asrwt>
<pdfrwt beam="1">  1       21 0.10289702E-01 0.30000000E+03</pdfrwt>
<pdfrwt beam="2">0</pdfrwt>
<totfact> 0.81748274E+03</totfact>
</mgrwt>
</event>
<event>
 6    1  0.1198667E-001  0.3000000E+03  0.7818608E-02  0.1093470E+00
         21   -1    0    0  501  502  0.00000000000E+00  0.00000000000E+00  0.12881223290E+02  0.12881223290E+02  0.00000000000E+00 0. -1.
         13   -1    0    0    0    0 -0.00000000000E+00 -0.00000000000E+00 -0.10000000000E+04  0.10000000000E+04  0.00000000000E+00 0.  1.
    9000005    2    1    2  501    0 -0.10734987148E+03 -0.17049063426E+02 -0.63900019507E+03  0.64818791055E+03  0.34135940072E+01 0.  0.
         13    1    3    3    0    0 -0.31739690389E+02 -0.48682811272E+01 -0.17967240253E+03  0.18251926018E+03  0.00000000000E+00 0.  1.
          3    1    3    3  501    0 -0.75610181086E+02 -0.12180782299E+02 -0.45932779254E+03  0.46566865037E+03  0.00000000000E+00 0.  1.
         -3    1    1    2    0  502  0.10734987148E+03  0.17049063426E+02 -0.34811858164E+03  0.36469331274E+03  0.00000000000E+00 0. -1.
<mgrwt>
<rscale>  1 0.30000000E+03</rscale>
<asrwt>0</asrwt>
<pdfrwt beam="1">  1       21 0.46840911E-01 0.30000000E+03</pdfrwt>
<pdfrwt beam="2">0</pdfrwt>
<totfact> 0.43244619E+02</totfact>
</mgrwt>
</event>
<event>
 6    1  0.1198667E-001  0.3000000E+03  0.7818608E-02  0.1093470E+00
         21   -1    0    0  501  502  0.00000000000E+00  0.00000000000E+00  0.36137573395E+01  0.36137573395E+01  0.00000000000E+00 0. -1.
         13   -1    0    0    0    0 -0.00000000000E+00 -0.00000000000E+00 -0.10000000000E+04  0.10000000000E+04  0.00000000000E+00 0.  1.
    9000005    2    1    2  501    0 -0.15392089997E+02 -0.57997363793E+02 -0.47478063547E+03  0.47856802590E+03  0.31769424509E+01 0.  0.
         13    1    3    3    0    0 -0.56541353935E+01 -0.17211884864E+02 -0.15142848803E+03  0.15250837752E+03  0.00000000000E+00 0.  1.
          3    1    3    3  501    0 -0.97379546033E+01 -0.40785478929E+02 -0.32335214743E+03  0.32605964838E+03  0.00000000000E+00 0.  1.
         -1    1    1    2    0  502  0.15392089997E+02  0.57997363793E+02 -0.52160560719E+03  0.52504573143E+03  0.00000000000E+00 0. -1.
<mgrwt>
<rscale>  1 0.30000000E+03</rscale>
<asrwt>0</asrwt>
<pdfrwt beam="1">  1       21 0.13140963E-01 0.30000000E+03</pdfrwt>
<pdfrwt beam="2">0</pdfrwt>
<totfact> 0.52520195E+03</totfact>
</mgrwt>
</event>
<event>
 6    1  0.1198667E-001  0.3000000E+03  0.7818608E-02  0.1093470E+00
         21   -1    0    0  501  502  0.00000000000E+00  0.00000000000E+00  0.21564972716E+01  0.21564972716E+01  0.00000000000E+00 0. -1.
         13   -1    0    0    0    0 -0.00000000000E+00 -0.00000000000E+00 -0.10000000000E+04  0.10000000000E+04  0.00000000000E+00 0.  1.
    9000005    2    1    2  501    0 -0.30759498131E+02 -0.34654059550E+02 -0.51822906221E+03  0.52030894656E+03  0.36039405547E+01 0.  0.
         13    1    3    3    0    0 -0.48970012429E+01 -0.61395711492E+01 -0.74300140359E+02  0.74714026879E+02  0.00000000000E+00 0.  1.
          1    1    3    3  501    0 -0.25862496888E+02 -0.28514488401E+02 -0.44392892185E+03  0.44559491968E+03  0.00000000000E+00 0.  1.
         -3    1    1    2    0  502  0.30759498131E+02  0.34654059550E+02 -0.47961444052E+03  0.48184755071E+03  0.00000000000E+00 0. -1.
<mgrwt>
<rscale>  1 0.30000000E+03</rscale>
<asrwt>0</asrwt>
<pdfrwt beam="1">  1       21 0.78418248E-02 0.30000000E+03</pdfrwt>
<pdfrwt beam="2">0</pdfrwt>
<totfact> 0.13229626E+04</totfact>
</mgrwt>
</event>
<event>
 6    1  0.1198667E-001  0.3000000E+03  0.7818608E-02  0.1093470E+00
         21   -1    0    0  501  502  0.00000000000E+00  0.00000000000E+00  0.13922348312E+01  0.13922348312E+01  0.00000000000E+00 0. -1.
         13   -1    0    0    0    0 -0.00000000000E+00 -0.00000000000E+00 -0.10000000000E+04  0.10000000000E+04  0.00000000000E+00 0.  1.
    9000005    2    1    2  501    0 -0.43615428382E+01 -0.34686724886E+02 -0.32896003288E+03  0.33083256016E+03  0.36452281791E+01 0.  0.
         13    1    3    3    0    0 -0.36718878037E+01 -0.21428599726E+02 -0.21786456801E+03  0.21894665478E+03  0.00000000000E+00 0.  1.
          3    1    3    3  501    0 -0.68965503448E+00 -0.13258125160E+02 -0.11109546487E+03  0.11188590537E+03  0.00000000000E+00 0.  1.
         -3    1    1    2    0  502  0.43615428382E+01  0.34686724886E+02 -0.66964773229E+03  0.67055967468E+03  0.00000000000E+00 0. -1.
<mgrwt>
<rscale>  1 0.30000000E+03</rscale>
<asrwt>0</asrwt>
<pdfrwt beam="1">  1       21 0.50626828E-02 0.30000000E+03</pdfrwt>
<pdfrwt beam="2">0</pdfrwt>
<totfact> 0.28199150E+04</totfact>
</mgrwt>
</event>
<event>
 6    1  0.1198667E-001  0.3000000E+03  0.7818608E-02  0.1093470E+00
         21   -1    0    0  501  502  0.00000000000E+00  0.00000000000E+00  0.33171073951E+01  0.33171073951E+01  0.00000000000E+00 0. -1.
         13   -1    0    0    0    0 -0.00000000000E+00 -0.00000000000E+00 -0.10000000000E+04  0.10000000000E+04  0.00000000000E+00 0.  1.
    9000005    2    1    2  501    0 -0.22404049141E+02 -0.51557652829E+02 -0.60606319917E+03  0.60867311861E+03  0.31985856423E+01 0.  0.
         13    1    3    3    0    0 -0.83653702626E+01 -0.15783487173E+02 -0.19834630870E+03  0.19914907999E+03  0.00000000000E+00 0.  1.
          1    1    3    3  501    0 -0.14038678878E+02 -0.35774165656E+02 -0.40771689047E+03  0.40952403862E+03  0.00000000000E+00 0.  1.
         -1    1    1    2    0  502  0.22404049141E+02  0.51557652829E+02 -0.39061969344E+03  0.39464398879E+03  0.00000000000E+00 0. -1.
<mgrwt>
<rscale>  1 0.30000000E+03</rscale>
<asrwt>0</asrwt>
<pdfrwt beam="1">  1       21 0.12062234E-01 0.30000000E+03</pdfrwt>
<pdfrwt beam="2">0</pdfrwt>
<totfact> 0.61391950E+03</totfact>
</mgrwt>
</event>
<event>
 6    1  0.1198667E-001  0.3000000E+03  0.7818608E-02  0.1093470E+00
         21   -1    0    0  501  502  0.00000000000E+00  0.00000000000E+00  0.14062241949E+01  0.14062241949E+01  0.00000000000E+00 0. -1.
         13   -1    0    0    0    0 -0.00000000000E+00 -0.00000000000E+00 -0.10000000000E+04  0.10000000000E+04  0.00000000000E+00 0.  1.
    9000005    2    1    2  501    0 -0.17920994557E+01 -0.30592726068E+02 -0.78700257350E+03  0.78760733879E+03  0.36253147474E+01 0.  0.
         13    1    3    3    0    0 -0.15308344695E+01 -0.19341453883E+02 -0.45326006933E+03  0.45367513238E+03  0.00000000000E+00 0.  1.
          1    1    3    3  501    0 -0.26126498616E+00 -0.11251272185E+02 -0.33374250417E+03  0.33393220641E+03  0.00000000000E+00 0.  1.
         -1    1    1    2    0  502  0.17920994557E+01  0.30592726068E+02 -0.21159120231E+03  0.21379888541E+03  0.00000000000E+00 0. -1.
<mgrwt>
<rscale>  1 0.30000000E+03</rscale>
<asrwt>0</asrwt>
<pdfrwt beam="1">  1       21 0.51135533E-02 0.30000000E+03</pdfrwt>
<pdfrwt beam="2">0</pdfrwt>
<totfact> 0.27722178E+04</totfact>
</mgrwt>
</event>
<event>
 6    1  0.1198667E-001  0.3000000E+03  0.7818608E-02  0.1093470E+00
         21   -1    0    0  501  502  0.00000000000E+00  0.00000000000E+00  0.33994425402E+01  0.33994425402E+01  0.00000000000E+00 0. -1.
         13   -1    0    0    0    0 -0.00000000000E+00 -0.00000000000E+00 -0.10000000000E+04  0.10000000000E+04  0.00000000000E+00 0.  1.
    9000005    2    1    2  501    0 -0.39119211017E+02  0.11393351491E+02 -0.85641371122E+03  0.85741152185E+03  0.70676662844E+01 0.  0.
         13    1    3    3    0    0 -0.98828804773E+01  0.52381381396E+01 -0.19076042372E+03  0.19108806524E+03  0.00000000000E+00 0.  1.
          3    1    3    3  501    0 -0.29236330540E+02  0.61552133515E+01 -0.66565328749E+03  0.66632345661E+03  0.00000000000E+00 0.  1.
         -3    1    1    2    0  502  0.39119211017E+02 -0.11393351491E+02 -0.14018684624E+03  0.14598792069E+03  0.00000000000E+00 0. -1.
<mgrwt>
<rscale>  1 0.30000000E+03</rscale>
<asrwt>0</asrwt>
<pdfrwt beam="1">  1       21 0.12361635E-01 0.30000000E+03</pdfrwt>
<pdfrwt beam="2">0</pdfrwt>
<totfact> 0.58714921E+03</totfact>
</mgrwt>
</event>
<event>
 6    1  0.1198667E-001  0.3000000E+03  0.7818608E-02  0.1093470E+00
         21   -1    0    0  501  502  0.00000000000E+00  0.00000000000E+00  0.21016916705E+01  0.21016916705E+01  0.00000000000E+00 0. -1.
         13   -1    0    0    0    0 -0.00000000000E+00 -0.00000000000E+00 -0.10000000000E+04  0.10000000000E+04  0.00000000000E+00 0.  1.
    9000005    2    1    2  501    0  0.36530813659E+02 -0.49867736014E+01 -0.79578351742E+03  0.79665155912E+03  0.47887164520E+01 0.  0.
         13    1    3    3    0    0  0.23767743869E+02 -0.46795010073E+01 -0.55799576359E+03  0.55852132955E+03  0.00000000000E+00 0.  1.
          3    1    3    3  501    0  0.12763069790E+02 -0.30727259415E+00 -0.23778775383E+03  0.23813022958E+03  0.00000000000E+00 0.  1.
         -1    1    1    2    0  502 -0.36530813659E+02  0.49867736014E+01 -0.20211479091E+03  0.20545013255E+03  0.00000000000E+00 0. -1.
<mgrwt>
<rscale>  1 0.30000000E+03</rscale>
<asrwt>0</asrwt>
<pdfrwt beam="1">  1       21 0.76425313E-02 0.30000000E+03</pdfrwt>
<pdfrwt beam="2">0</pdfrwt>
<totfact> 0.13840463E+04</totfact>
</mgrwt>
</event>
<event>
 6    1  0.1198667E-001  0.3000000E+03  0.7818608E-02  0.1093470E+00
         21   -1    0    0  501  502  0.00000000000E+00  0.00000000000E+00  0.35532548111E+01  0.35532548111E+01  0.00000000000E+00 0. -1.
         13   -1    0    0    0    0 -0.00000000000E+00 -0.00000000000E+00 -0.10000000000E+04  0.10000000000E+04  0.00000000000E+00 0.  1.
    9000005    2    1    2  501    0 -0.56691752712E+02 -0.22285406700E+01 -0.34568603947E+03  0.35032403215E+03  0.30279373374E+01 0.  0.
         13    1    3    3    0    0 -0.56502947073E+02 -0.21308813265E+01 -0.34508091081E+03  0.34968265426E+03  0.00000000000E+00 0.  1.
          1    1    3    3  501    0 -0.18880563895E+00 -0.97659343488E-01 -0.60512865206E+00  0.64137789346E+00  0.00000000000E+00 0.  1.
         -3    1    1    2    0  502  0.56691752712E+02  0.22285406700E+01 -0.65076070572E+03  0.65322922266E+03  0.00000000000E+00 0. -1.
<mgrwt>
<rscale>  1 0.30000000E+03</rscale>
<asrwt>0</asrwt>
<pdfrwt beam="1">  1       21 0.12920954E-01 0.30000000E+03</pdfrwt>
<pdfrwt beam="2">0</pdfrwt>
<totfact> 0.54165041E+03</totfact>
</mgrwt>
</event>
<event>
 6    1  0.1198667E-001  0.3000000E+03  0.7818608E-02  0.1093470E+00
         21   -1    0    0  501  502  0.00000000000E+00  0.00000000000E+00  0.20574297101E+01  0.20574297101E+01  0.00000000000E+00 0. -1.
         13   -1    0    0    0    0 -0.00000000000E+00 -0.00000000000E+00 -0.10000000000E+04  0.10000000000E+04  0.00000000000E+00 0.  1.
    9000005    2    1    2  501    0 -0.89087606193E+01  0.41536823483E+02 -0.32589083765E+03  0.32866437579E+03  0.32802636782E+01 0.  0.
         13    1    3    3    0    0 -0.16091348649E+01  0.52413757900E+01 -0.34947130754E+02  0.35374613540E+02  0.00000000000E+00 0.  1.
          1    1    3    3  501    0 -0.72996257544E+01  0.36295447693E+02 -0.29094370689E+03  0.29328976225E+03  0.00000000000E+00 0.  1.
         -3    1    1    2    0  502  0.89087606193E+01 -0.41536823483E+02 -0.67205173264E+03  0.67339305392E+03  0.00000000000E+00 0. -1.
<mgrwt>
<rscale>  1 0.30000000E+03</rscale>
<asrwt>0</asrwt>
<pdfrwt beam="1">  1       21 0.74815784E-02 0.30000000E+03</pdfrwt>
<pdfrwt beam="2">0</pdfrwt>
<totfact> 0.14366185E+04</totfact>
</mgrwt>
</event>
<event>
 6    1  0.1198667E-001  0.3000000E+03  0.7818608E-02  0.1093470E+00
         21   -1    0    0  501  502  0.00000000000E+00  0.00000000000E+00  0.18932615487E+01  0.18932615487E+01  0.00000000000E+00 0. -1.
         13   -1    0    0    0    0 -0.00000000000E+00 -0.00000000000E+00 -0.10000000000E+04  0.10000000000E+04  0.00000000000E+00 0.  1.
    9000005    2    1    2  501    0 -0.13293900621E+02 -0.40243383154E+02 -0.61031186195E+03  0.61178927038E+03  0.30471034764E+01 0.  0.
         13    1    3    3    0    0 -0.11461557418E+02 -0.30921816782E+02 -0.48026575034E+03  0.48139663169E+03  0.00000000000E+00 0.  1.
          3    1    3    3  501    0 -0.18323432032E+01 -0.93215663721E+01 -0.13004611161E+03  0.13039263869E+03  0.00000000000E+00 0.  1.
         -3    1    1    2    0  502  0.13293900621E+02  0.40243383154E+02 -0.38779487650E+03  0.39010399116E+03  0.00000000000E+00 0. -1.
<mgrwt>
<rscale>  1 0.30000000E+03</rscale>
<asrwt>0</asrwt>
<pdfrwt beam="1">  1       21 0.68846020E-02 0.30000000E+03</pdfrwt>
<pdfrwt beam="2">0</pdfrwt>
<totfact> 0.16608570E+04</totfact>
</mgrwt>
</event>
<event>
 6    1  0.1198667E-001  0.3000000E+03  0.7818608E-02  0.1093470E+00
         21   -1    0    0  501  502  0.00000000000E+00  0.00000000000E+00  0.19134668634E+01  0.19134668634E+01  0.00000000000E+00 0. -1.
         13   -1    0    0    0    0 -0.00000000000E+00 -0.00000000000E+00 -0.10000000000E+04  0.10000000000E+04  0.00000000000E+00 0.  1.
    9000005    2    1    2  501    0 -0.25568356357E+02 -0.34875116805E+02 -0.43457405012E+03  0.43674417087E+03  0.45663039340E+01 0.  0.
         13    1    3    3    0    0 -0.41554110385E+01 -0.83737185439E+01 -0.10374564860E+03  0.10416595512E+03  0.00000000000E+00 0.  1.
          1    1    3    3  501    0 -0.21412945319E+02 -0.26501398261E+02 -0.33082840152E+03  0.33257821574E+03  0.00000000000E+00 0.  1.
         -3    1    1    2    0  502  0.25568356357E+02  0.34875116805E+02 -0.56351248302E+03  0.56516929600E+03  0.00000000000E+00 0. -1.
<mgrwt>
<rscale>  1 0.30000000E+03</rscale>
<asrwt>0</asrwt>
<pdfrwt beam="1">  1       21 0.69580760E-02 0.30000000E+03</pdfrwt>
<pdfrwt beam="2">0</pdfrwt>
<totfact> 0.16304816E+04</totfact>
</mgrwt>
</event>
<event>
 6    1  0.1198667E-001  0.3000000E+03  0.7818608E-02  0.1093470E+00
         21   -1    0    0  501  502  0.00000000000E+00  0.00000000000E+00  0.11430991988E+01  0.11430991988E+01  0.00000000000E+00 0. -1.
         13   -1    0    0    0    0 -0.00000000000E+00 -0.00000000000E+00 -0.10000000000E+04  0.10000000000E+04  0.00000000000E+00 0.  1.
    9000005    2    1    2  501    0  0.28386666798E+02  0.14423840097E+02 -0.66565632992E+03  0.66642460486E+03  0.30910174492E+01 0.  0.
         13    1    3    3    0    0  0.19550357969E+02  0.96121188166E+01 -0.42490379797E+03  0.42546192175E+03  0.00000000000E+00 0.  1.
          1    1    3    3  501    0  0.88363088291E+01  0.48117212803E+01 -0.24075253195E+03  0.24096268312E+03  0.00000000000E+00 0.  1.
         -1    1    1    2    0  502 -0.28386666798E+02 -0.14423840097E+02 -0.33320057088E+03  0.33471849434E+03  0.00000000000E+00 0. -1.
<mgrwt>
<rscale>  1 0.30000000E+03</rscale>
<asrwt>0</asrwt>
<pdfrwt beam="1">  1       21 0.41567331E-02 0.30000000E+03</pdfrwt>
<pdfrwt beam="2">0</pdfrwt>
<totfact> 0.39409365E+04</totfact>
</mgrwt>
</event>
<event>
 6    1  0.1198667E-001  0.3000000E+03  0.7818608E-02  0.1093470E+00
         21   -1    0    0  501  502  0.00000000000E+00  0.00000000000E+00  0.39385619346E+01  0.39385619346E+01  0.00000000000E+00 0. -1.
         13   -1    0    0    0    0 -0.00000000000E+00 -0.00000000000E+00 -0.10000000000E+04  0.10000000000E+04  0.00000000000E+00 0.  1.
    9000005    2    1    2  501    0 -0.50150953213E+02 -0.35578439849E+02 -0.59709152264E+03  0.60025807330E+03  0.32441735718E+01 0.  0.
         13    1    3    3    0    0 -0.44872538147E+02 -0.30682938576E+02 -0.53153866392E+03  0.53431108789E+03  0.00000000000E+00 0.  1.
          3    1    3    3  501    0 -0.52784150656E+01 -0.48955012730E+01 -0.65552858719E+02  0.65946985409E+02  0.00000000000E+00 0.  1.
         -1    1    1    2    0  502  0.50150953213E+02  0.35578439849E+02 -0.39896991543E+03  0.40368048864E+03  0.00000000000E+00 0. -1.
<mgrwt>
<rscale>  1 0.30000000E+03</rscale>
<asrwt>0</asrwt>
<pdfrwt beam="1">  1       21 0.14322074E-01 0.30000000E+03</pdfrwt>
<pdfrwt beam="2">0</pdfrwt>
<totfact> 0.44850615E+03</totfact>
</mgrwt>
</event>
<event>
 6    1  0.1198667E-001  0.3000000E+03  0.7818608E-02  0.1093470E+00
         21   -1    0    0  501  502  0.00000000000E+00  0.00000000000E+00  0.28753408633E+01  0.28753408633E+01  0.00000000000E+00 0. -1.
         13   -1    0    0    0    0 -0.00000000000E+00 -0.00000000000E+00 -0.10000000000E+04  0.10000000000E+04  0.00000000000E+00 0.  1.
    9000005    2    1    2  501    0 -0.40142548205E+02  0.13500441544E+02 -0.80559877761E+03  0.80672272326E+03  0.42983296791E+01 0.  0.
         13    1    3    3    0    0 -0.32856581950E+02  0.92967255038E+01 -0.63884100582E+03  0.63975293263E+03  0.00000000000E+00 0.  1.
          3    1    3    3  501    0 -0.72859662555E+01  0.42037160402E+01 -0.16675777178E+03  0.16696979063E+03  0.00000000000E+00 0.  1.
         -1    1    1    2    0  502  0.40142548205E+02 -0.13500441544E+02 -0.19152588153E+03  0.19615261760E+03  0.00000000000E+00 0. -1.
<mgrwt>
<rscale>  1 0.30000000E+03</rscale>
<asrwt>0</asrwt>
<pdfrwt beam="1">  1       21 0.10455807E-01 0.30000000E+03</pdfrwt>
<pdfrwt beam="2">0</pdfrwt>
<totfact> 0.79436921E+03</totfact>
</mgrwt>
</event>
<event>
 6    1  0.1198667E-001  0.3000000E+03  0.7818608E-02  0.1093470E+00
         21   -1    0    0  501  502  0.00000000000E+00  0.00000000000E+00  0.16093052392E+01  0.16093052392E+01  0.00000000000E+00 0. -1.
         13   -1    0    0    0    0 -0.00000000000E+00 -0.00000000000E+00 -0.10000000000E+04  0.10000000000E+04  0.00000000000E+00 0.  1.
    9000005    2    1    2  501    0  0.18925272488E+02  0.26210098367E+02 -0.79524226399E+03  0.79590461371E+03  0.29598113581E+01 0.  0.
         13    1    3    3    0    0  0.38959918091E+01  0.75403162878E+01 -0.21627426647E+03  0.21644073891E+03  0.00000000000E+00 0.  1.
          1    1    3    3  501    0  0.15029280678E+02  0.18669782079E+02 -0.57896799752E+03  0.57946387479E+03  0.00000000000E+00 0.  1.
         -1    1    1    2    0  502 -0.18925272488E+02 -0.26210098367E+02 -0.20314843077E+03  0.20570469153E+03  0.00000000000E+00 0. -1.
<mgrwt>
<rscale>  1 0.30000000E+03</rscale>
<asrwt>0</asrwt>
<pdfrwt beam="1">  1       21 0.58520314E-02 0.30000000E+03</pdfrwt>
<pdfrwt beam="2">0</pdfrwt>
<totfact> 0.21998500E+04</totfact>
</mgrwt>
</event>
<event>
 6    1  0.1198667E-001  0.3000000E+03  0.7818608E-02  0.1093470E+00
         21   -1    0    0  501  502  0.00000000000E+00  0.00000000000E+00  0.11371427176E+01  0.11371427176E+01  0.00000000000E+00 0. -1.
         13   -1    0    0    0    0 -0.00000000000E+00 -0.00000000000E+00 -0.10000000000E+04  0.10000000000E+04  0.00000000000E+00 0.  1.
    9000005    2    1    2  501    0  0.30376598325E+02  0.11153515243E+02 -0.59982777881E+03  0.60079212591E+03  0.10520251898E+02 0.  0.
         13    1    3    3    0    0  0.79367161063E+01  0.12139484468E+01 -0.23656734953E+03  0.23670356144E+03  0.00000000000E+00 0.  1.
          1    1    3    3  501    0  0.22439882218E+02  0.99395667964E+01 -0.36326042928E+03  0.36408856447E+03  0.00000000000E+00 0.  1.
         -3    1    1    2    0  502 -0.30376598325E+02 -0.11153515243E+02 -0.39903507847E+03  0.40034501680E+03  0.00000000000E+00 0. -1.
<mgrwt>
<rscale>  1 0.30000000E+03</rscale>
<asrwt>0</asrwt>
<pdfrwt beam="1">  1       21 0.41350731E-02 0.30000000E+03</pdfrwt>
<pdfrwt beam="2">0</pdfrwt>
<totfact> 0.39758306E+04</totfact>
</mgrwt>
</event>
<event>
 6    1  0.1198667E-001  0.3000000E+03  0.7818608E-02  0.1093470E+00
         21   -1    0    0  501  502  0.00000000000E+00  0.00000000000E+00  0.10845881964E+01  0.10845881964E+01  0.00000000000E+00 0. -1.
         13   -1    0    0    0    0 -0.00000000000E+00 -0.00000000000E+00 -0.10000000000E+04  0.10000000000E+04  0.00000000000E+00 0.  1.
    9000005    2    1    2  501    0  0.81124970707E+01  0.30325459586E+02 -0.64499366024E+03  0.64577338328E+03  0.45819971552E+01 0.  0.
         13    1    3    3    0    0  0.43321037524E+01  0.13173492582E+02 -0.24176516715E+03  0.24216255713E+03  0.00000000000E+00 0.  1.
          3    1    3    3  501    0  0.37803933183E+01  0.17151967004E+02 -0.40322849309E+03  0.40361082615E+03  0.00000000000E+00 0.  1.
         -1    1    1    2    0  502 -0.81124970707E+01 -0.30325459586E+02 -0.35392175157E+03  0.35531120492E+03  0.00000000000E+00 0. -1.
<mgrwt>
<rscale>  1 0.30000000E+03</rscale>
<asrwt>0</asrwt>
<pdfrwt beam="1">  1       21 0.39439654E-02 0.30000000E+03</pdfrwt>
<pdfrwt beam="2">0</pdfrwt>
<totfact> 0.43057880E+04</totfact>
</mgrwt>
</event>
<event>
 6    1  0.1198667E-001  0.3000000E+03  0.7818608E-02  0.1093470E+00
         21   -1    0    0  501  502  0.00000000000E+00  0.00000000000E+00  0.11149706990E+01  0.11149706990E+01  0.00000000000E+00 0. -1.
         13   -1    0    0    0    0 -0.00000000000E+00 -0.00000000000E+00 -0.10000000000E+04  0.10000000000E+04  0.00000000000E+00 0.  1.
    9000005    2    1    2  501    0 -0.16604178561E+02 -0.27454667384E+02 -0.59031337132E+03  0.59128542416E+03  0.10914163456E+02 0.  0.
         13    1    3    3    0    0 -0.16992719659E+02 -0.21182783739E+02 -0.43666905287E+03  0.43751265648E+03  0.00000000000E+00 0.  1.
          3    1    3    3  501    0  0.38854109866E+00 -0.62718836452E+01 -0.15364431845E+03  0.15377276768E+03  0.00000000000E+00 0.  1.
         -3    1    1    2    0  502  0.16604178561E+02  0.27454667384E+02 -0.40857165798E+03  0.40982954654E+03  0.00000000000E+00 0. -1.
<mgrwt>
<rscale>  1 0.30000000E+03</rscale>
<asrwt>0</asrwt>
<pdfrwt beam="1">  1       21 0.40544475E-02 0.30000000E+03</pdfrwt>
<pdfrwt beam="2">0</pdfrwt>
<totfact> 0.41100473E+04</totfact>
</mgrwt>
</event>
<event>
 6    1  0.1198667E-001  0.3000000E+03  0.7818608E-02  0.1093470E+00
         21   -1    0    0  501  502  0.00000000000E+00  0.00000000000E+00  0.10673014192E+01  0.10673014192E+01  0.00000000000E+00 0. -1.
         13   -1    0    0    0    0 -0.00000000000E+00 -0.00000000000E+00 -0.10000000000E+04  0.10000000000E+04  0.00000000000E+00 0.  1.
    9000005    2    1    2  501    0  0.12937286221E+02 -0.29615124801E+02 -0.43715242167E+03  0.43835822159E+03  0.33558419845E+01 0.  0.
         13    1    3    3    0    0  0.11564378986E+02 -0.24311094108E+02 -0.37474424865E+03  0.37571001591E+03  0.00000000000E+00 0.  1.
          1    1    3    3  501    0  0.13729072355E+01 -0.53040306930E+01 -0.62408173011E+02  0.62648205676E+02  0.00000000000E+00 0.  1.
         -1    1    1    2    0  502 -0.12937286221E+02  0.29615124801E+02 -0.56178027691E+03  0.56270907983E+03  0.00000000000E+00 0. -1.
<mgrwt>
<rscale>  1 0.30000000E+03</rscale>
<asrwt>0</asrwt>
<pdfrwt beam="1">  1       21 0.38811043E-02 0.30000000E+03</pdfrwt>
<pdfrwt beam="2">0</pdfrwt>
<totfact> 0.44237542E+04</totfact>
</mgrwt>
</event>
<event>
 6    1  0.1198667E-001  0.3000000E+03  0.7818608E-02  0.1093470E+00
         21   -1    0    0  501  502  0.00000000000E+00  0.00000000000E+00  0.10980906206E+01  0.10980906206E+01  0.00000000000E+00 0. -1.
         13   -1    0    0    0    0 -0.00000000000E+00 -0.00000000000E+00 -0.10000000000E+04  0.10000000000E+04  0.00000000000E+00 0.  1.
    9000005    2    1    2  501    0 -0.26727429693E+02  0.19471713428E+02 -0.51242375706E+03  0.51349733610E+03  0.28114522575E+01 0.  0.
         13    1    3    3    0    0 -0.47710842050E+01  0.23947211735E+01 -0.74366888154E+02  0.74558245605E+02  0.00000000000E+00 0.  1.
          1    1    3    3  501    0 -0.21956345488E+02  0.17076992255E+02 -0.43805686890E+03  0.43893909049E+03  0.00000000000E+00 0.  1.
         -3    1    1    2    0  502  0.26727429693E+02 -0.19471713428E+02 -0.48647815232E+03  0.48760075452E+03  0.00000000000E+00 0. -1.
<mgrwt>
<rscale>  1 0.30000000E+03</rscale>
<asrwt>0</asrwt>
<pdfrwt beam="1">  1       21 0.39930652E-02 0.30000000E+03</pdfrwt>
<pdfrwt beam="2">0</pdfrwt>
<totfact> 0.42170366E+04</totfact>
</mgrwt>
</event>
<event>
 6    1  0.1198667E-001  0.3000000E+03  0.7818608E-02  0.1093470E+00
         21   -1    0    0  501  502  0.00000000000E+00  0.00000000000E+00  0.47234488599E+01  0.47234488599E+01  0.00000000000E+00 0. -1.
         13   -1    0    0    0    0 -0.00000000000E+00 -0.00000000000E+00 -0.10000000000E+04  0.10000000000E+04  0.00000000000E+00 0.  1.
    9000005    2    1    2  501    0  0.24851108632E+02  0.32517050447E+02 -0.90112370667E+03  0.90206043560E+03  0.37627889177E+01 0.  0.
         13    1    3    3    0    0  0.44325240930E+01  0.68946567874E+01 -0.15245044813E+03  0.15267063469E+03  0.00000000000E+00 0.  1.
          1    1    3    3  501    0  0.20418584539E+02  0.25622393659E+02 -0.74867325854E+03  0.74938980090E+03  0.00000000000E+00 0.  1.
         -3    1    1    2    0  502 -0.24851108632E+02 -0.32517050447E+02 -0.94152844471E+02  0.10266301326E+03  0.00000000000E+00 0. -1.
<mgrwt>
<rscale>  1 0.30000000E+03</rscale>
<asrwt>0</asrwt>
<pdfrwt beam="1">  1       21 0.17176214E-01 0.30000000E+03</pdfrwt>
<pdfrwt beam="2">0</pdfrwt>
<totfact> 0.31991032E+03</totfact>
</mgrwt>
</event>
<event>
 6    1  0.1198667E-001  0.3000000E+03  0.7818608E-02  0.1093470E+00
         21   -1    0    0  501  502  0.00000000000E+00  0.00000000000E+00  0.22151707311E+01  0.22151707311E+01  0.00000000000E+00 0. -1.
         13   -1    0    0    0    0 -0.00000000000E+00 -0.00000000000E+00 -0.10000000000E+04  0.10000000000E+04  0.00000000000E+00 0.  1.
    9000005    2    1    2  501    0 -0.43062651404E+02 -0.56754872879E+01 -0.69086682347E+03  0.69223893715E+03  0.33429376830E+01 0.  0.
         13    1    3    3    0    0 -0.73119007318E+01  0.75128448719E-01 -0.10528172745E+03  0.10553535744E+03  0.00000000000E+00 0.  1.
          1    1    3    3  501    0 -0.35750750672E+02 -0.57506157366E+01 -0.58558509602E+03  0.58670357970E+03  0.00000000000E+00 0.  1.
         -3    1    1    2    0  502  0.43062651404E+02  0.56754872879E+01 -0.30691800580E+03  0.30997623358E+03  0.00000000000E+00 0. -1.
<mgrwt>
<rscale>  1 0.30000000E+03</rscale>
<asrwt>0</asrwt>
<pdfrwt beam="1">  1       21 0.80551833E-02 0.30000000E+03</pdfrwt>
<pdfrwt beam="2">0</pdfrwt>
<totfact> 0.12620530E+04</totfact>
</mgrwt>
</event>
<event>
 6    1  0.1198667E-001  0.3000000E+03  0.7818608E-02  0.1093470E+00
         21   -1    0    0  501  502  0.00000000000E+00  0.00000000000E+00  0.31046731164E+01  0.31046731164E+01  0.00000000000E+00 0. -1.
         13   -1    0    0    0    0 -0.00000000000E+00 -0.00000000000E+00 -0.10000000000E+04  0.10000000000E+04  0.00000000000E+00 0.  1.
    9000005    2    1    2  501    0  0.19529202176E+02 -0.24282705009E+02 -0.91411708153E+03  0.91465538028E+03  0.36587460314E+01 0.  0.
         13    1    3    3    0    0  0.12173117304E+02 -0.13120768994E+02 -0.56061746497E+03  0.56090309447E+03  0.00000000000E+00 0.  1.
          3    1    3    3  501    0  0.73560848721E+01 -0.11161936015E+02 -0.35349961656E+03  0.35375228580E+03  0.00000000000E+00 0.  1.
         -3    1    1    2    0  502 -0.19529202176E+02  0.24282705009E+02 -0.82778245354E+02  0.88449292841E+02  0.00000000000E+00 0. -1.
<mgrwt>
<rscale>  1 0.30000000E+03</rscale>
<asrwt>0</asrwt>
<pdfrwt beam="1">  1       21 0.11289744E-01 0.30000000E+03</pdfrwt>
<pdfrwt beam="2">0</pdfrwt>
<totfact> 0.69202383E+03</totfact>
</mgrwt>
</event>
<event>
 6    1  0.1198667E-001  0.3000000E+03  0.7818608E-02  0.1093470E+00
         21   -1    0    0  501  502  0.00000000000E+00  0.00000000000E+00  0.29270078041E+01  0.29270078041E+01  0.00000000000E+00 0. -1.
         13   -1    0    0    0    0 -0.00000000000E+00 -0.00000000000E+00 -0.10000000000E+04  0.10000000000E+04  0.00000000000E+00 0.  1.
    9000005    2    1    2  501    0 -0.35623493743E+02  0.18000235281E+02 -0.83684170678E+03  0.83779946133E+03  0.32944546988E+01 0.  0.
         13    1    3    3    0    0 -0.64085131389E+01  0.21366927565E+01 -0.15759301528E+03  0.15773773474E+03  0.00000000000E+00 0.  1.
          3    1    3    3  501    0 -0.29214980604E+02  0.15863542525E+02 -0.67924869150E+03  0.68006172659E+03  0.00000000000E+00 0.  1.
         -1    1    1    2    0  502  0.35623493743E+02 -0.18000235281E+02 -0.16023128542E+03  0.16512754647E+03  0.00000000000E+00 0. -1.
<mgrwt>
<rscale>  1 0.30000000E+03</rscale>
<asrwt>0</asrwt>
<pdfrwt beam="1">  1       21 0.10643687E-01 0.30000000E+03</pdfrwt>
<pdfrwt beam="2">0</pdfrwt>
<totfact> 0.76940141E+03</totfact>
</mgrwt>
</event>
<event>
 6    1  0.1198667E-001  0.3000000E+03  0.7818608E-02  0.1093470E+00
         21   -1    0    0  501  502  0.00000000000E+00  0.00000000000E+00  0.59863456874E+01  0.59863456874E+01  0.00000000000E+00 0. -1.
         13   -1    0    0    0    0 -0.00000000000E+00 -0.00000000000E+00 -0.10000000000E+04  0.10000000000E+04  0.00000000000E+00 0.  1.
    9000005    2    1    2  501    0  0.67735434920E+02 -0.76592320727E+01 -0.73469093258E+03  0.73785386540E+03  0.32874437805E+01 0.  0.
         13    1    3    3    0    0  0.56750322948E+02 -0.63367842445E+01 -0.62795835969E+03  0.63054932836E+03  0.00000000000E+00 0.  1.
          3    1    3    3  501    0  0.10985111972E+02 -0.13224478282E+01 -0.10673257289E+03  0.10730453704E+03  0.00000000000E+00 0.  1.
         -3    1    1    2    0  502 -0.67735434920E+02  0.76592320727E+01 -0.25932272173E+03  0.26813248029E+03  0.00000000000E+00 0. -1.
<mgrwt>
<rscale>  1 0.30000000E+03</rscale>
<asrwt>0</asrwt>
<pdfrwt beam="1">  1       21 0.21768576E-01 0.30000000E+03</pdfrwt>
<pdfrwt beam="2">0</pdfrwt>
<totfact> 0.20396812E+03</totfact>
</mgrwt>
</event>
<event>
 6    1  0.1198667E-001  0.3000000E+03  0.7818608E-02  0.1093470E+00
         21   -1    0    0  501  502  0.00000000000E+00  0.00000000000E+00  0.42542931936E+01  0.42542931936E+01  0.00000000000E+00 0. -1.
         13   -1    0    0    0    0 -0.00000000000E+00 -0.00000000000E+00 -0.10000000000E+04  0.10000000000E+04  0.00000000000E+00 0.  1.
    9000005    2    1    2  501    0  0.81275490218E+01  0.37048602676E+02 -0.90609255838E+03  0.90690778305E+03  0.62726869871E+01 0.  0.
         13    1    3    3    0    0  0.17054072663E+01  0.29648183903E+01 -0.52828812164E+02  0.52939417797E+02  0.00000000000E+00 0.  1.
          1    1    3    3  501    0  0.64221417555E+01  0.34083784285E+02 -0.85326374621E+03  0.85396836526E+03  0.00000000000E+00 0.  1.
         -1    1    1    2    0  502 -0.81275490218E+01 -0.37048602676E+02 -0.89653148429E+02  0.97346510141E+02  0.00000000000E+00 0. -1.
<mgrwt>
<rscale>  1 0.30000000E+03</rscale>
<asrwt>0</asrwt>
<pdfrwt beam="1">  1       21 0.15470190E-01 0.30000000E+03</pdfrwt>
<pdfrwt beam="2">0</pdfrwt>
<totfact> 0.38889518E+03</totfact>
</mgrwt>
</event>
<event>
 6    1  0.1198667E-001  0.3000000E+03  0.7818608E-02  0.1093470E+00
         21   -1    0    0  501  502  0.00000000000E+00  0.00000000000E+00  0.38122302992E+01  0.38122302992E+01  0.00000000000E+00 0. -1.
         13   -1    0    0    0    0 -0.00000000000E+00 -0.00000000000E+00 -0.10000000000E+04  0.10000000000E+04  0.00000000000E+00 0.  1.
    9000005    2    1    2  501    0  0.50056363862E+02  0.26355197588E+02 -0.69851952380E+03  0.70081615669E+03  0.36775466657E+01 0.  0.
         13    1    3    3    0    0  0.90873922905E+01  0.34130067434E+01 -0.12812533582E+03  0.12849253283E+03  0.00000000000E+00 0.  1.
          3    1    3    3  501    0  0.40968971571E+02  0.22942190845E+02 -0.57039418798E+03  0.57232362387E+03  0.00000000000E+00 0.  1.
         -3    1    1    2    0  502 -0.50056363862E+02 -0.26355197588E+02 -0.29766824590E+03  0.30299607360E+03  0.00000000000E+00 0. -1.
<mgrwt>
<rscale>  1 0.30000000E+03</rscale>
<asrwt>0</asrwt>
<pdfrwt beam="1">  1       21 0.13862685E-01 0.30000000E+03</pdfrwt>
<pdfrwt beam="2">0</pdfrwt>
<totfact> 0.47621036E+03</totfact>
</mgrwt>
</event>
<event>
 6    1  0.1198667E-001  0.3000000E+03  0.7818608E-02  0.1093470E+00
         21   -1    0    0  501  502  0.00000000000E+00  0.00000000000E+00  0.15289569932E+01  0.15289569932E+01  0.00000000000E+00 0. -1.
         13   -1    0    0    0    0 -0.00000000000E+00 -0.00000000000E+00 -0.10000000000E+04  0.10000000000E+04  0.00000000000E+00 0.  1.
    9000005    2    1    2  501    0 -0.31567010409E+02  0.19271325492E+02 -0.66024317958E+03  0.66128500373E+03  0.29899576596E+01 0.  0.
         13    1    3    3    0    0 -0.25043920468E+02  0.15425774461E+02 -0.50237715699E+03  0.50323747907E+03  0.00000000000E+00 0.  1.
          3    1    3    3  501    0 -0.65230899411E+01  0.38455510313E+01 -0.15786602259E+03  0.15804752466E+03  0.00000000000E+00 0.  1.
         -3    1    1    2    0  502  0.31567010409E+02 -0.19271325492E+02 -0.33822786343E+03  0.34024395326E+03  0.00000000000E+00 0. -1.
<mgrwt>
<rscale>  1 0.30000000E+03</rscale>
<asrwt>0</asrwt>
<pdfrwt beam="1">  1       21 0.55598553E-02 0.30000000E+03</pdfrwt>
<pdfrwt beam="2">0</pdfrwt>
<totfact> 0.24023926E+04</totfact>
</mgrwt>
</event>
<event>
 6    1  0.1198667E-001  0.3000000E+03  0.7818608E-02  0.1093470E+00
         21   -1    0    0  501  502  0.00000000000E+00  0.00000000000E+00  0.13008916036E+01  0.13008916036E+01  0.00000000000E+00 0. -1.
         13   -1    0    0    0    0 -0.00000000000E+00 -0.00000000000E+00 -0.10000000000E+04  0.10000000000E+04  0.00000000000E+00 0.  1.
    9000005    2    1    2  501    0 -0.34107587269E+02  0.38721025537E+00 -0.66000164017E+03  0.66089018022E+03  0.31918402715E+01 0.  0.
         13    1    3    3    0    0 -0.39119555792E+00 -0.35343431405E+00 -0.11948111335E+02  0.11959737215E+02  0.00000000000E+00 0.  1.
          3    1    3    3  501    0 -0.33716391711E+02  0.74064456942E+00 -0.64805352883E+03  0.64893044300E+03  0.00000000000E+00 0.  1.
         -1    1    1    2    0  502  0.34107587269E+02 -0.38721025537E+00 -0.33869746823E+03  0.34041071138E+03  0.00000000000E+00 0. -1.
<mgrwt>
<rscale>  1 0.30000000E+03</rscale>
<asrwt>0</asrwt>
<pdfrwt beam="1">  1       21 0.47305249E-02 0.30000000E+03</pdfrwt>
<pdfrwt beam="2">0</pdfrwt>
<totfact> 0.31653961E+04</totfact>
</mgrwt>
</event>
<event>
 6    1  0.1198667E-001  0.3000000E+03  0.7818608E-02  0.1093470E+00
         21   -1    0    0  501  502  0.00000000000E+00  0.00000000000E+00  0.13010104345E+01  0.13010104345E+01  0.00000000000E+00 0. -1.
         13   -1    0    0    0    0 -0.00000000000E+00 -0.00000000000E+00 -0.10000000000E+04  0.10000000000E+04  0.00000000000E+00 0.  1.
    9000005    2    1    2  501    0  0.23292313354E+02  0.21956670953E+02 -0.72906523916E+03  0.72977387253E+03  0.30256926241E+01 0.  0.
         13    1    3    3    0    0  0.84297982051E+01  0.94104965650E+01 -0.26415886517E+03  0.26446081939E+03  0.00000000000E+00 0.  1.
          1    1    3    3  501    0  0.14862515149E+02  0.12546174388E+02 -0.46490637398E+03  0.46531305314E+03  0.00000000000E+00 0.  1.
         -1    1    1    2    0  502 -0.23292313354E+02 -0.21956670953E+02 -0.26963375041E+03  0.27152713791E+03  0.00000000000E+00 0. -1.
<mgrwt>
<rscale>  1 0.30000000E+03</rscale>
<asrwt>0</asrwt>
<pdfrwt beam="1">  1       21 0.47309570E-02 0.30000000E+03</pdfrwt>
<pdfrwt beam="2">0</pdfrwt>
<totfact> 0.31649045E+04</totfact>
</mgrwt>
</event>
<event>
 6    1  0.1198667E-001  0.3000000E+03  0.7818608E-02  0.1093470E+00
         21   -1    0    0  501  502  0.00000000000E+00  0.00000000000E+00  0.68143777810E+01  0.68143777810E+01  0.00000000000E+00 0. -1.
         13   -1    0    0    0    0 -0.00000000000E+00 -0.00000000000E+00 -0.10000000000E+04  0.10000000000E+04  0.00000000000E+00 0.  1.
    9000005    2    1    2  501    0  0.28307168257E+02  0.21940744366E+02 -0.95011258879E+03  0.95079671764E+03  0.42160260654E+01 0.  0.
         13    1    3    3    0    0  0.21174984221E+02  0.14643169093E+02 -0.71307229135E+03  0.71353689116E+03  0.00000000000E+00 0.  1.
          1    1    3    3  501    0  0.71321840363E+01  0.72975752731E+01 -0.23704029744E+03  0.23725982648E+03  0.00000000000E+00 0.  1.
         -3    1    1    2    0  502 -0.28307168257E+02 -0.21940744366E+02 -0.43073033434E+02  0.56017660137E+02  0.00000000000E+00 0. -1.
<mgrwt>
<rscale>  1 0.30000000E+03</rscale>
<asrwt>0</asrwt>
<pdfrwt beam="1">  1       21 0.24779608E-01 0.30000000E+03</pdfrwt>
<pdfrwt beam="2">0</pdfrwt>
<totfact> 0.15868441E+03</totfact>
</mgrwt>
</event>
<event>
 6    1  0.1198667E-001  0.3000000E+03  0.7818608E-02  0.1093470E+00
         21   -1    0    0  501  502  0.00000000000E+00  0.00000000000E+00  0.32856056512E+01  0.32856056512E+01  0.00000000000E+00 0. -1.
         13   -1    0    0    0    0 -0.00000000000E+00 -0.00000000000E+00 -0.10000000000E+04  0.10000000000E+04  0.00000000000E+00 0.  1.
    9000005    2    1    2  501    0 -0.10544543023E+02  0.43786811455E+02 -0.80742997231E+03  0.80871668555E+03  0.71445817345E+01 0.  0.
         13    1    3    3    0    0 -0.50661267296E+01  0.21668700383E+02 -0.33575702626E+03  0.33649365358E+03  0.00000000000E+00 0.  1.
          1    1    3    3  501    0 -0.54784162930E+01  0.22118111073E+02 -0.47167294605E+03  0.47222303197E+03  0.00000000000E+00 0.  1.
         -3    1    1    2    0  502  0.10544543023E+02 -0.43786811455E+02 -0.18928442204E+03  0.19456892010E+03  0.00000000000E+00 0. -1.
<mgrwt>
<rscale>  1 0.30000000E+03</rscale>
<asrwt>0</asrwt>
<pdfrwt beam="1">  1       21 0.11947682E-01 0.30000000E+03</pdfrwt>
<pdfrwt beam="2">0</pdfrwt>
<totfact> 0.62464461E+03</totfact>
</mgrwt>
</event>
<event>
 6    1  0.1198667E-001  0.3000000E+03  0.7818608E-02  0.1093470E+00
         21   -1    0    0  501  502  0.00000000000E+00  0.00000000000E+00  0.17953224435E+01  0.17953224435E+01  0.00000000000E+00 0. -1.
         13   -1    0    0    0    0 -0.00000000000E+00 -0.00000000000E+00 -0.10000000000E+04  0.10000000000E+04  0.00000000000E+00 0.  1.
    9000005    2    1    2  501    0 -0.21876473323E+02 -0.23158064744E+02 -0.82904231829E+03  0.82965938826E+03  0.29426092731E+01 0.  0.
         13    1    3    3    0    0 -0.10966248551E+02 -0.13616158217E+02 -0.44038464285E+03  0.44073154190E+03  0.00000000000E+00 0.  1.
          3    1    3    3  501    0 -0.10910224772E+02 -0.95419065271E+01 -0.38865767545E+03  0.38892784635E+03  0.00000000000E+00 0.  1.
         -1    1    1    2    0  502  0.21876473323E+02  0.23158064744E+02 -0.16916235926E+03  0.17213593419E+03  0.00000000000E+00 0. -1.
<mgrwt>
<rscale>  1 0.30000000E+03</rscale>
<asrwt>0</asrwt>
<pdfrwt beam="1">  1       21 0.65284590E-02 0.30000000E+03</pdfrwt>
<pdfrwt beam="2">0</pdfrwt>
<totfact> 0.18211751E+04</totfact>
</mgrwt>
</event>
<event>
 6    1  0.1198667E-001  0.3000000E+03  0.7818608E-02  0.1093470E+00
         21   -1    0    0  501  502  0.00000000000E+00  0.00000000000E+00  0.10778428534E+01  0.10778428534E+01  0.00000000000E+00 0. -1.
         13   -1    0    0    0    0 -0.00000000000E+00 -0.00000000000E+00 -0.10000000000E+04  0.10000000000E+04  0.00000000000E+00 0.  1.
    9000005    2    1    2  501    0  0.21231709202E+01  0.30251770524E+02 -0.68831066903E+03  0.68898943546E+03  0.38971285284E+01 0.  0.
         13    1    3    3    0    0 -0.11533209968E+01  0.80924064225E+01 -0.18144793975E+03  0.18163196863E+03  0.00000000000E+00 0.  1.
          3    1    3    3  501    0  0.32764919170E+01  0.22159364101E+02 -0.50686272928E+03  0.50735746683E+03  0.00000000000E+00 0.  1.
         -3    1    1    2    0  502 -0.21231709202E+01 -0.30251770524E+02 -0.31061148812E+03  0.31208840739E+03  0.00000000000E+00 0. -1.
<mgrwt>
<rscale>  1 0.30000000E+03</rscale>
<asrwt>0</asrwt>
<pdfrwt beam="1">  1       21 0.39194368E-02 0.30000000E+03</pdfrwt>
<pdfrwt beam="2">0</pdfrwt>
<totfact> 0.43512255E+04</totfact>
</mgrwt>
</event>
<event>
 6    1  0.1198667E-001  0.3000000E+03  0.7818608E-02  0.1093470E+00
         21   -1    0    0  501  502  0.00000000000E+00  0.00000000000E+00  0.13660932254E+01  0.13660932254E+01  0.00000000000E+00 0. -1.
         13   -1    0    0    0    0 -0.00000000000E+00 -0.00000000000E+00 -0.10000000000E+04  0.10000000000E+04  0.00000000000E+00 0.  1.
    9000005    2    1    2  501    0  0.32415033016E+02 -0.19957385177E+00 -0.73888730763E+03  0.73960461790E+03  0.31246204959E+01 0.  0.
         13    1    3    3    0    0  0.15616093152E+02 -0.16470024880E+01 -0.35219965438E+03  0.35254953060E+03  0.00000000000E+00 0.  1.
          1    1    3    3  501    0  0.16798939864E+02  0.14474286363E+01 -0.38668765325E+03  0.38705508730E+03  0.00000000000E+00 0.  1.
         -3    1    1    2    0  502 -0.32415033016E+02  0.19957385177E+00 -0.25974659914E+03  0.26176147532E+03  0.00000000000E+00 0. -1.
<mgrwt>
<rscale>  1 0.30000000E+03</rscale>
<asrwt>0</asrwt>
<pdfrwt beam="1">  1       21 0.49676222E-02 0.30000000E+03</pdfrwt>
<pdfrwt beam="2">0</pdfrwt>
<totfact> 0.29125387E+04</totfact>
</mgrwt>
</event>
<event>
 6    1  0.1198667E-001  0.3000000E+03  0.7818608E-02  0.1093470E+00
         21   -1    0    0  501  502  0.00000000000E+00  0.00000000000E+00  0.36942223361E+01  0.36942223361E+01  0.00000000000E+00 0. -1.
         13   -1    0    0    0    0 -0.00000000000E+00 -0.00000000000E+00 -0.10000000000E+04  0.10000000000E+04  0.00000000000E+00 0.  1.
    9000005    2    1    2  501    0  0.38637434772E+02 -0.20240255570E+02 -0.84716291100E+03  0.84830402320E+03  0.56743889171E+01 0.  0.
         13    1    3    3    0    0  0.37165390232E+01 -0.60061784254E+00 -0.55099477527E+02  0.55227944266E+02  0.00000000000E+00 0.  1.
          1    1    3    3  501    0  0.34920895748E+02 -0.19639637727E+02 -0.79206343347E+03  0.79307607893E+03  0.00000000000E+00 0.  1.
         -1    1    1    2    0  502 -0.38637434772E+02  0.20240255570E+02 -0.14914286666E+03  0.15539019914E+03  0.00000000000E+00 0. -1.
<mgrwt>
<rscale>  1 0.30000000E+03</rscale>
<asrwt>0</asrwt>
<pdfrwt beam="1">  1       21 0.13433564E-01 0.30000000E+03</pdfrwt>
<pdfrwt beam="2">0</pdfrwt>
<totfact> 0.50446663E+03</totfact>
</mgrwt>
</event>
<event>
 6    1  0.1198667E-001  0.3000000E+03  0.7818608E-02  0.1093470E+00
         21   -1    0    0  501  502  0.00000000000E+00  0.00000000000E+00  0.12274224579E+01  0.12274224579E+01  0.00000000000E+00 0. -1.
         13   -1    0    0    0    0 -0.00000000000E+00 -0.00000000000E+00 -0.10000000000E+04  0.10000000000E+04  0.00000000000E+00 0.  1.
    9000005    2    1    2  501    0  0.17191607271E+02 -0.30401789267E+02 -0.47064451624E+03  0.47194576844E+03  0.25937472982E+01 0.  0.
         13    1    3    3    0    0  0.15817372905E+02 -0.28027011244E+02 -0.44204479177E+03  0.44321473416E+03  0.00000000000E+00 0.  1.
          1    1    3    3  501    0  0.13742343658E+01 -0.23747780238E+01 -0.28599724468E+02  0.28731034273E+02  0.00000000000E+00 0.  1.
         -1    1    1    2    0  502 -0.17191607271E+02  0.30401789267E+02 -0.52812806130E+03  0.52928165402E+03  0.00000000000E+00 0. -1.
<mgrwt>
<rscale>  1 0.30000000E+03</rscale>
<asrwt>0</asrwt>
<pdfrwt beam="1">  1       21 0.44633638E-02 0.30000000E+03</pdfrwt>
<pdfrwt beam="2">0</pdfrwt>
<totfact> 0.34939355E+04</totfact>
</mgrwt>
</event>
<event>
 6    1  0.1198667E-001  0.3000000E+03  0.7818608E-02  0.1093470E+00
         21   -1    0    0  501  502  0.00000000000E+00  0.00000000000E+00  0.11448249656E+01  0.11448249656E+01  0.00000000000E+00 0. -1.
         13   -1    0    0    0    0 -0.00000000000E+00 -0.00000000000E+00 -0.10000000000E+04  0.10000000000E+04  0.00000000000E+00 0.  1.
    9000005    2    1    2  501    0 -0.89967749666E+01  0.30103760424E+02 -0.68224500085E+03  0.68297948941E+03  0.39450500424E+01 0.  0.
         13    1    3    3    0    0 -0.53071793629E+01  0.19227368616E+02 -0.39161670189E+03  0.39212434132E+03  0.00000000000E+00 0.  1.
          1    1    3    3  501    0 -0.36895956037E+01  0.10876391808E+02 -0.29062829896E+03  0.29085514809E+03  0.00000000000E+00 0.  1.
         -1    1    1    2    0  502  0.89967749666E+01 -0.30103760424E+02 -0.31661017418E+03  0.31816533555E+03  0.00000000000E+00 0. -1.
<mgrwt>
<rscale>  1 0.30000000E+03</rscale>
<asrwt>0</asrwt>
<pdfrwt beam="1">  1       21 0.41630087E-02 0.30000000E+03</pdfrwt>
<pdfrwt beam="2">0</pdfrwt>
<totfact> 0.39309157E+04</totfact>
</mgrwt>
</event>
<event>
 6    1  0.1198667E-001  0.3000000E+03  0.7818608E-02  0.1093470E+00
         21   -1    0    0  501  502  0.00000000000E+00  0.00000000000E+00  0.14480691614E+01  0.14480691614E+01  0.00000000000E+00 0. -1.
         13   -1    0    0    0    0 -0.00000000000E+00 -0.00000000000E+00 -0.10000000000E+04  0.10000000000E+04  0.00000000000E+00 0.  1.
    9000005    2    1    2  501    0  0.16655307205E+02 -0.27140360112E+02 -0.77274256750E+03  0.77340450539E+03  0.30748869172E+01 0.  0.
         13    1    3    3    0    0  0.16130122251E+01 -0.14597570648E+01 -0.42373476052E+02  0.42429284367E+02  0.00000000000E+00 0.  1.
          3    1    3    3  501    0  0.15042294980E+02 -0.25680603048E+02 -0.73036909145E+03  0.73097522103E+03  0.00000000000E+00 0.  1.
         -1    1    1    2    0  502 -0.16655307205E+02  0.27140360112E+02 -0.22580936334E+03  0.22804356377E+03  0.00000000000E+00 0. -1.
<mgrwt>
<rscale>  1 0.30000000E+03</rscale>
<asrwt>0</asrwt>
<pdfrwt beam="1">  1       21 0.52657171E-02 0.30000000E+03</pdfrwt>
<pdfrwt beam="2">0</pdfrwt>
<totfact> 0.26367846E+04</totfact>
</mgrwt>
</event>
<event>
 6    1  0.1198667E-001  0.3000000E+03  0.7818608E-02  0.1093470E+00
         21   -1    0    0  501  502  0.00000000000E+00  0.00000000000E+00  0.12979973585E+01  0.12979973585E+01  0.00000000000E+00 0. -1.
         13   -1    0    0    0    0 -0.00000000000E+00 -0.00000000000E+00 -0.10000000000E+04  0.10000000000E+04  0.00000000000E+00 0.  1.
    9000005    2    1    2  501    0  0.11400906529E+02 -0.29192402286E+02 -0.74546100730E+03  0.74612515644E+03  0.29083752991E+01 0.  0.
         13    1    3    3    0    0  0.54815954385E+01 -0.10362388144E+02 -0.26749560744E+03  0.26775236129E+03  0.00000000000E+00 0.  1.
          1    1    3    3  501    0  0.59193110908E+01 -0.18830014141E+02 -0.47796539987E+03  0.47837279516E+03  0.00000000000E+00 0.  1.
         -3    1    1    2    0  502 -0.11400906529E+02  0.29192402286E+02 -0.25324099534E+03  0.25517284092E+03  0.00000000000E+00 0. -1.
<mgrwt>
<rscale>  1 0.30000000E+03</rscale>
<asrwt>0</asrwt>
<pdfrwt beam="1">  1       21 0.47200003E-02 0.30000000E+03</pdfrwt>
<pdfrwt beam="2">0</pdfrwt>
<totfact> 0.31774083E+04</totfact>
</mgrwt>
</event>
<event>
 6    1  0.1198667E-001  0.3000000E+03  0.7818608E-02  0.1093470E+00
         21   -1    0    0  501  502  0.00000000000E+00  0.00000000000E+00  0.21080019433E+01  0.21080019433E+01  0.00000000000E+00 0. -1.
         13   -1    0    0    0    0 -0.00000000000E+00 -0.00000000000E+00 -0.10000000000E+04  0.10000000000E+04  0.00000000000E+00 0.  1.
    9000005    2    1    2  501    0  0.26234971620E+02  0.35260212555E+02 -0.64027946171E+03  0.64180495938E+03  0.49254925420E+01 0.  0.
         13    1    3    3    0    0  0.34398709912E+01  0.23910915537E+01 -0.68647740930E+02  0.68775448861E+02  0.00000000000E+00 0.  1.
          1    1    3    3  501    0  0.22795100629E+02  0.32869121001E+02 -0.57163172078E+03  0.57302951052E+03  0.00000000000E+00 0.  1.
         -1    1    1    2    0  502 -0.26234971620E+02 -0.35260212555E+02 -0.35761253635E+03  0.36030304256E+03  0.00000000000E+00 0. -1.
<mgrwt>
<rscale>  1 0.30000000E+03</rscale>
<asrwt>0</asrwt>
<pdfrwt beam="1">  1       21 0.76654778E-02 0.30000000E+03</pdfrwt>
<pdfrwt beam="2">0</pdfrwt>
<totfact> 0.13767939E+04</totfact>
</mgrwt>
</event>
<event>
 6    1  0.1198667E-001  0.3000000E+03  0.7818608E-02  0.1093470E+00
         21   -1    0    0  501  502  0.00000000000E+00  0.00000000000E+00  0.11181798745E+02  0.11181798745E+02  0.00000000000E+00 0. -1.
         13   -1    0    0    0    0 -0.00000000000E+00 -0.00000000000E+00 -0.10000000000E+04  0.10000000000E+04  0.00000000000E+00 0.  1.
    9000005    2    1    2  501    0  0.18129995331E+02  0.26881302828E+02 -0.97562684181E+03  0.97617732565E+03  0.48099359627E+01 0.  0.
         13    1    3    3    0    0  0.11976716404E+02  0.15764101904E+02 -0.65399378592E+03  0.65429337508E+03  0.00000000000E+00 0.  1.
          1    1    3    3  501    0  0.61532789266E+01  0.11117200923E+02 -0.32163305589E+03  0.32188395058E+03  0.00000000000E+00 0.  1.
         -1    1    1    2    0  502 -0.18129995331E+02 -0.26881302828E+02 -0.13191359444E+02  0.35004473091E+02  0.00000000000E+00 0. -1.
<mgrwt>
<rscale>  1 0.30000000E+03</rscale>
<asrwt>0</asrwt>
<pdfrwt beam="1">  1       21 0.40661172E-01 0.30000000E+03</pdfrwt>
<pdfrwt beam="2">0</pdfrwt>
<totfact> 0.58366169E+02</totfact>
</mgrwt>
</event>
<event>
 6    1  0.1198667E-001  0.3000000E+03  0.7818608E-02  0.1093470E+00
         21   -1    0    0  501  502  0.00000000000E+00  0.00000000000E+00  0.24905149182E+01  0.24905149182E+01  0.00000000000E+00 0. -1.
         13   -1    0    0    0    0 -0.00000000000E+00 -0.00000000000E+00 -0.10000000000E+04  0.10000000000E+04  0.00000000000E+00 0.  1.
    9000005    2    1    2  501    0  0.36189023796E+02  0.16602864503E+02 -0.80065479034E+03  0.80164960425E+03  0.29485859710E+01 0.  0.
         13    1    3    3    0    0  0.36103208405E+02  0.16306210394E+02 -0.79388695421E+03  0.79487472611E+03  0.00000000000E+00 0.  1.
          1    1    3    3  501    0  0.85815391739E-01  0.29665410886E+00 -0.67678361299E+01  0.67748781409E+01  0.00000000000E+00 0.  1.
         -1    1    1    2    0  502 -0.36189023796E+02 -0.16602864503E+02 -0.19685469475E+03  0.20084091066E+03  0.00000000000E+00 0. -1.
<mgrwt>
<rscale>  1 0.30000000E+03</rscale>
<asrwt>0</asrwt>
<pdfrwt beam="1">  1       21 0.90564370E-02 0.30000000E+03</pdfrwt>
<pdfrwt beam="2">0</pdfrwt>
<totfact> 0.10263754E+04</totfact>
</mgrwt>
</event>
<event>
 6    1  0.1198667E-001  0.3000000E+03  0.7818608E-02  0.1093470E+00
         21   -1    0    0  501  502  0.00000000000E+00  0.00000000000E+00  0.15560186222E+01  0.15560186222E+01  0.00000000000E+00 0. -1.
         13   -1    0    0    0    0 -0.00000000000E+00 -0.00000000000E+00 -0.10000000000E+04  0.10000000000E+04  0.00000000000E+00 0.  1.
    9000005    2    1    2  501    0  0.31427386688E+02  0.18089402558E+02 -0.30947224047E+03  0.31163068434E+03  0.50703727618E+01 0.  0.
         13    1    3    3    0    0  0.23747653440E+02  0.11348989861E+02 -0.21362719850E+03  0.21524249245E+03  0.00000000000E+00 0.  1.
          3    1    3    3  501    0  0.76797332474E+01  0.67404126971E+01 -0.95845041971E+02  0.96388191894E+02  0.00000000000E+00 0.  1.
         -3    1    1    2    0  502 -0.31427386688E+02 -0.18089402558E+02 -0.68897174090E+03  0.68992533428E+03  0.00000000000E+00 0. -1.
<mgrwt>
<rscale>  1 0.30000000E+03</rscale>
<asrwt>0</asrwt>
<pdfrwt beam="1">  1       21 0.56582615E-02 0.30000000E+03</pdfrwt>
<pdfrwt beam="2">0</pdfrwt>
<totfact> 0.23310913E+04</totfact>
</mgrwt>
</event>
<event>
 6    1  0.1198667E-001  0.3000000E+03  0.7818608E-02  0.1093470E+00
         21   -1    0    0  501  502  0.00000000000E+00  0.00000000000E+00  0.33280783456E+01  0.33280783456E+01  0.00000000000E+00 0. -1.
         13   -1    0    0    0    0 -0.00000000000E+00 -0.00000000000E+00 -0.10000000000E+04  0.10000000000E+04  0.00000000000E+00 0.  1.
    9000005    2    1    2  501    0 -0.17204881496E+02 -0.24659508518E+02 -0.92641991540E+03  0.92691182556E+03  0.27519807141E+01 0.  0.
         13    1    3    3    0    0 -0.14669814830E+02 -0.22474754577E+02 -0.83044459592E+03  0.83087817697E+03  0.00000000000E+00 0.  1.
          3    1    3    3  501    0 -0.25350666658E+01 -0.21847539408E+01 -0.95975319480E+02  0.96033648593E+02  0.00000000000E+00 0.  1.
         -3    1    1    2    0  502  0.17204881496E+02  0.24659508518E+02 -0.70252006251E+02  0.76416252786E+02  0.00000000000E+00 0. -1.
<mgrwt>
<rscale>  1 0.30000000E+03</rscale>
<asrwt>0</asrwt>
<pdfrwt beam="1">  1       21 0.12102129E-01 0.30000000E+03</pdfrwt>
<pdfrwt beam="2">0</pdfrwt>
<totfact> 0.61024849E+03</totfact>
</mgrwt>
</event>
<event>
 6    1  0.1198667E-001  0.3000000E+03  0.7818608E-02  0.1093470E+00
         21   -1    0    0  501  502  0.00000000000E+00  0.00000000000E+00  0.12519518785E+01  0.12519518785E+01  0.00000000000E+00 0. -1.
         13   -1    0    0    0    0 -0.00000000000E+00 -0.00000000000E+00 -0.10000000000E+04  0.10000000000E+04  0.00000000000E+00 0.  1.
    9000005    2    1    2  501    0  0.13526752007E+02 -0.30468975394E+02 -0.33991076355E+03  0.34157180285E+03  0.45428893158E+01 0.  0.
         13    1    3    3    0    0 -0.35852304110E+00 -0.57736925023E+00 -0.78283595456E+01  0.78578054950E+01  0.00000000000E+00 0.  1.
          3    1    3    3  501    0  0.13885275048E+02 -0.29891606144E+02 -0.33208240400E+03  0.33371399735E+03  0.00000000000E+00 0.  1.
         -3    1    1    2    0  502 -0.13526752007E+02  0.30468975394E+02 -0.65883728458E+03  0.65968014903E+03  0.00000000000E+00 0. -1.
<mgrwt>
<rscale>  1 0.30000000E+03</rscale>
<asrwt>0</asrwt>
<pdfrwt beam="1">  1       21 0.45525619E-02 0.30000000E+03</pdfrwt>
<pdfrwt beam="2">0</pdfrwt>
<totfact> 0.33785501E+04</totfact>
</mgrwt>
</event>
<event>
 6    1  0.1198667E-001  0.3000000E+03  0.7818608E-02  0.1093470E+00
         21   -1    0    0  501  502  0.00000000000E+00  0.00000000000E+00  0.23079954964E+01  0.23079954964E+01  0.00000000000E+00 0. -1.
         13   -1    0    0    0    0 -0.00000000000E+00 -0.00000000000E+00 -0.10000000000E+04  0.10000000000E+04  0.00000000000E+00 0.  1.
    9000005    2    1    2  501    0  0.36780540485E+02  0.68753957684E+01 -0.81278999752E+03  0.81365797188E+03  0.34111440311E+01 0.  0.
         13    1    3    3    0    0  0.30820231243E+01  0.10380236095E+01 -0.54278769377E+02  0.54376108399E+02  0.00000000000E+00 0.  1.
          1    1    3    3  501    0  0.33698517361E+02  0.58373721589E+01 -0.75851122814E+03  0.75928186348E+03  0.00000000000E+00 0.  1.
         -1    1    1    2    0  502 -0.36780540485E+02 -0.68753957684E+01 -0.18490200698E+03  0.18865002362E+03  0.00000000000E+00 0. -1.
<mgrwt>
<rscale>  1 0.30000000E+03</rscale>
<asrwt>0</asrwt>
<pdfrwt beam="1">  1       21 0.83927286E-02 0.30000000E+03</pdfrwt>
<pdfrwt beam="2">0</pdfrwt>
<totfact> 0.11741173E+04</totfact>
</mgrwt>
</event>
<event>
 6    1  0.1198667E-001  0.3000000E+03  0.7818608E-02  0.1093470E+00
         21   -1    0    0  501  502  0.00000000000E+00  0.00000000000E+00  0.17195136634E+02  0.17195136634E+02  0.00000000000E+00 0. -1.
         13   -1    0    0    0    0 -0.00000000000E+00 -0.00000000000E+00 -0.10000000000E+04  0.10000000000E+04  0.00000000000E+00 0.  1.
    9000005    2    1    2  501    0 -0.96126139495E+02 -0.34619214324E+02 -0.81017044012E+03  0.81659262223E+03  0.29400591083E+01 0.  0.
         13    1    3    3    0    0 -0.15610050694E+02 -0.66264264899E+01 -0.13009301085E+03  0.13119365336E+03  0.00000000000E+00 0.  1.
          3    1    3    3  501    0 -0.80516088801E+02 -0.27992787834E+02 -0.68007742927E+03  0.68539896887E+03  0.00000000000E+00 0.  1.
         -1    1    1    2    0  502  0.96126139495E+02  0.34619214324E+02 -0.17263442325E+03  0.20060251440E+03  0.00000000000E+00 0. -1.
<mgrwt>
<rscale>  1 0.30000000E+03</rscale>
<asrwt>0</asrwt>
<pdfrwt beam="1">  1       21 0.62527901E-01 0.30000000E+03</pdfrwt>
<pdfrwt beam="2">0</pdfrwt>
<totfact> 0.22876946E+02</totfact>
</mgrwt>
</event>
<event>
 6    1  0.1198667E-001  0.3000000E+03  0.7818608E-02  0.1093470E+00
         21   -1    0    0  501  502  0.00000000000E+00  0.00000000000E+00  0.11161319711E+01  0.11161319711E+01  0.00000000000E+00 0. -1.
         13   -1    0    0    0    0 -0.00000000000E+00 -0.00000000000E+00 -0.10000000000E+04  0.10000000000E+04  0.00000000000E+00 0.  1.
    9000005    2    1    2  501    0  0.29984534704E+02 -0.11522926144E+02 -0.63401104379E+03  0.63483205094E+03  0.31431044156E+01 0.  0.
         13    1    3    3    0    0  0.81686838361E+01 -0.16676349228E+01 -0.16414205091E+03  0.16435364699E+03  0.00000000000E+00 0.  1.
          3    1    3    3  501    0  0.21815850868E+02 -0.98552912209E+01 -0.46986899288E+03  0.47047840396E+03  0.00000000000E+00 0.  1.
         -3    1    1    2    0  502 -0.29984534704E+02  0.11522926144E+02 -0.36487282423E+03  0.36628408103E+03  0.00000000000E+00 0. -1.
<mgrwt>
<rscale>  1 0.30000000E+03</rscale>
<asrwt>0</asrwt>
<pdfrwt beam="1">  1       21 0.40586703E-02 0.30000000E+03</pdfrwt>
<pdfrwt beam="2">0</pdfrwt>
<totfact> 0.41028432E+04</totfact>
</mgrwt>
</event>
<event>
 6    1  0.1198667E-001  0.3000000E+03  0.7818608E-02  0.1093470E+00
         21   -1    0    0  501  502  0.00000000000E+00  0.00000000000E+00  0.10498128888E+01  0.10498128888E+01  0.00000000000E+00 0. -1.
         13   -1    0    0    0    0 -0.00000000000E+00 -0.00000000000E+00 -0.10000000000E+04  0.10000000000E+04  0.00000000000E+00 0.  1.
    9000005    2    1    2  501    0  0.27823105531E+02 -0.14988976228E+02 -0.60598183776E+03  0.60681267841E+03  0.29739494203E+01 0.  0.
         13    1    3    3    0    0  0.85268392382E+01 -0.42740867914E+01 -0.20941725687E+03  0.20963435377E+03  0.00000000000E+00 0.  1.
          1    1    3    3  501    0  0.19296266293E+02 -0.10714889437E+02 -0.39656458089E+03  0.39717832464E+03  0.00000000000E+00 0.  1.
         -1    1    1    2    0  502 -0.27823105531E+02  0.14988976228E+02 -0.39296834935E+03  0.39423713448E+03  0.00000000000E+00 0. -1.
<mgrwt>
<rscale>  1 0.30000000E+03</rscale>
<asrwt>0</asrwt>
<pdfrwt beam="1">  1       21 0.38175095E-02 0.30000000E+03</pdfrwt>
<pdfrwt beam="2">0</pdfrwt>
<totfact> 0.45483379E+04</totfact>
</mgrwt>
</event>
<event>
 6    1  0.1198667E-001  0.3000000E+03  0.7818608E-02  0.1093470E+00
         21   -1    0    0  501  502  0.00000000000E+00  0.00000000000E+00  0.14880137122E+01  0.14880137122E+01  0.00000000000E+00 0. -1.
         13   -1    0    0    0    0 -0.00000000000E+00 -0.00000000000E+00 -0.10000000000E+04  0.10000000000E+04  0.00000000000E+00 0.  1.
    9000005    2    1    2  501    0 -0.28928523135E+02 -0.24013080924E+02 -0.60697402519E+03  0.60814914901E+03  0.37990363675E+01 0.  0.
         13    1    3    3    0    0 -0.90080371700E+01 -0.83333226500E+01 -0.22554645775E+03  0.22588004251E+03  0.00000000000E+00 0.  1.
          3    1    3    3  501    0 -0.19920485965E+02 -0.15679758274E+02 -0.38142756744E+03  0.38226910650E+03  0.00000000000E+00 0.  1.
         -1    1    1    2    0  502  0.28928523135E+02  0.24013080924E+02 -0.39153796110E+03  0.39333886471E+03  0.00000000000E+00 0. -1.
<mgrwt>
<rscale>  1 0.30000000E+03</rscale>
<asrwt>0</asrwt>
<pdfrwt beam="1">  1       21 0.54109704E-02 0.30000000E+03</pdfrwt>
<pdfrwt beam="2">0</pdfrwt>
<totfact> 0.25168264E+04</totfact>
</mgrwt>
</event>
<event>
 6    1  0.1198667E-001  0.3000000E+03  0.7818608E-02  0.1093470E+00
         21   -1    0    0  501  502  0.00000000000E+00  0.00000000000E+00  0.15201379079E+01  0.15201379079E+01  0.00000000000E+00 0. -1.
         13   -1    0    0    0    0 -0.00000000000E+00 -0.00000000000E+00 -0.10000000000E+04  0.10000000000E+04  0.00000000000E+00 0.  1.
    9000005    2    1    2  501    0  0.25424048891E+02  0.25834719184E+02 -0.68195325477E+03  0.68292492746E+03  0.35213460165E+01 0.  0.
         13    1    3    3    0    0  0.14329644858E+02  0.16523809564E+02 -0.42948986267E+03  0.43004641277E+03  0.00000000000E+00 0.  1.
          1    1    3    3  501    0  0.11094404033E+02  0.93109096209E+01 -0.25246339211E+03  0.25287851469E+03  0.00000000000E+00 0.  1.
         -3    1    1    2    0  502 -0.25424048891E+02 -0.25834719184E+02 -0.31652660732E+03  0.31859521045E+03  0.00000000000E+00 0. -1.
<mgrwt>
<rscale>  1 0.30000000E+03</rscale>
<asrwt>0</asrwt>
<pdfrwt beam="1">  1       21 0.55277859E-02 0.30000000E+03</pdfrwt>
<pdfrwt beam="2">0</pdfrwt>
<totfact> 0.24263548E+04</totfact>
</mgrwt>
</event>
<event>
 6    1  0.1198667E-001  0.3000000E+03  0.7818608E-02  0.1093470E+00
         21   -1    0    0  501  502  0.00000000000E+00  0.00000000000E+00  0.12612877266E+01  0.12612877266E+01  0.00000000000E+00 0. -1.
         13   -1    0    0    0    0 -0.00000000000E+00 -0.00000000000E+00 -0.10000000000E+04  0.10000000000E+04  0.00000000000E+00 0.  1.
    9000005    2    1    2  501    0 -0.10504624131E+02  0.28568894408E+02 -0.75620297715E+03  0.75682292807E+03  0.33871755250E+01 0.  0.
         13    1    3    3    0    0 -0.47138782377E+01  0.16309121742E+02 -0.44922865207E+03  0.44954931869E+03  0.00000000000E+00 0.  1.
          3    1    3    3  501    0 -0.57907458936E+01  0.12259772666E+02 -0.30697432508E+03  0.30727360938E+03  0.00000000000E+00 0.  1.
         -1    1    1    2    0  502  0.10504624131E+02 -0.28568894408E+02 -0.24253573513E+03  0.24443835965E+03  0.00000000000E+00 0. -1.
<mgrwt>
<rscale>  1 0.30000000E+03</rscale>
<asrwt>0</asrwt>
<pdfrwt beam="1">  1       21 0.45865105E-02 0.30000000E+03</pdfrwt>
<pdfrwt beam="2">0</pdfrwt>
<totfact> 0.33361822E+04</totfact>
</mgrwt>
</event>
<event>
 6    1  0.1198667E-001  0.3000000E+03  0.7818608E-02  0.1093470E+00
         21   -1    0    0  501  502  0.00000000000E+00  0.00000000000E+00  0.35918499765E+01  0.35918499765E+01  0.00000000000E+00 0. -1.
         13   -1    0    0    0    0 -0.00000000000E+00 -0.00000000000E+00 -0.10000000000E+04  0.10000000000E+04  0.00000000000E+00 0.  1.
    9000005    2    1    2  501    0  0.49654419192E+02 -0.32190515561E+01 -0.77749139257E+03  0.77909135926E+03  0.38153524356E+01 0.  0.
         13    1    3    3    0    0  0.18315801743E+01 -0.70066621778E+00 -0.38493627887E+02  0.38543546892E+02  0.00000000000E+00 0.  1.
          3    1    3    3  501    0  0.47822839018E+02 -0.25183853384E+01 -0.73899776468E+03  0.74054781236E+03  0.00000000000E+00 0.  1.
         -1    1    1    2    0  502 -0.49654419192E+02  0.32190515561E+01 -0.21891675746E+03  0.22450049072E+03  0.00000000000E+00 0. -1.
<mgrwt>
<rscale>  1 0.30000000E+03</rscale>
<asrwt>0</asrwt>
<pdfrwt beam="1">  1       21 0.13061300E-01 0.30000000E+03</pdfrwt>
<pdfrwt beam="2">0</pdfrwt>
<totfact> 0.53106970E+03</totfact>
</mgrwt>
</event>
<event>
 6    1  0.1198667E-001  0.3000000E+03  0.7818608E-02  0.1093470E+00
         21   -1    0    0  501  502  0.00000000000E+00  0.00000000000E+00  0.24710391435E+01  0.24710391435E+01  0.00000000000E+00 0. -1.
         13   -1    0    0    0    0 -0.00000000000E+00 -0.00000000000E+00 -0.10000000000E+04  0.10000000000E+04  0.00000000000E+00 0.  1.
    9000005    2    1    2  501    0  0.44280456828E+02 -0.20982502616E+02 -0.43574029953E+03  0.43854948053E+03  0.74171400593E+01 0.  0.
         13    1    3    3    0    0  0.35280835416E+02 -0.15399315311E+02 -0.36433751946E+03  0.36636553378E+03  0.00000000000E+00 0.  1.
          1    1    3    3  501    0  0.89996214119E+01 -0.55831873049E+01 -0.71402780075E+02  0.72183946751E+02  0.00000000000E+00 0.  1.
         -3    1    1    2    0  502 -0.44280456828E+02  0.20982502616E+02 -0.56178866132E+03  0.56392155861E+03  0.00000000000E+00 0. -1.
<mgrwt>
<rscale>  1 0.30000000E+03</rscale>
<asrwt>0</asrwt>
<pdfrwt beam="1">  1       21 0.89856158E-02 0.30000000E+03</pdfrwt>
<pdfrwt beam="2">0</pdfrwt>
<totfact> 0.10407539E+04</totfact>
</mgrwt>
</event>
<event>
 6    1  0.1198667E-001  0.3000000E+03  0.7818608E-02  0.1093470E+00
         21   -1    0    0  501  502  0.00000000000E+00  0.00000000000E+00  0.13956832693E+01  0.13956832693E+01  0.00000000000E+00 0. -1.
         13   -1    0    0    0    0 -0.00000000000E+00 -0.00000000000E+00 -0.10000000000E+04  0.10000000000E+04  0.00000000000E+00 0.  1.
    9000005    2    1    2  501    0 -0.25395745874E+02 -0.20739931060E+02 -0.73814065203E+03  0.73887633298E+03  0.33947907867E+01 0.  0.
         13    1    3    3    0    0 -0.24872918453E+02 -0.20467350846E+02 -0.73172350246E+03  0.73243215288E+03  0.00000000000E+00 0.  1.
          1    1    3    3  501    0 -0.52282742122E+00 -0.27258021396E+00 -0.64171495736E+01  0.64441800980E+01  0.00000000000E+00 0.  1.
         -3    1    1    2    0  502  0.25395745874E+02  0.20739931060E+02 -0.26046366470E+03  0.26251935029E+03  0.00000000000E+00 0. -1.
<mgrwt>
<rscale>  1 0.30000000E+03</rscale>
<asrwt>0</asrwt>
<pdfrwt beam="1">  1       21 0.50752226E-02 0.30000000E+03</pdfrwt>
<pdfrwt beam="2">0</pdfrwt>
<totfact> 0.28080396E+04</totfact>
</mgrwt>
</event>
<event>
 6    1  0.1198667E-001  0.3000000E+03  0.7818608E-02  0.1093470E+00
         21   -1    0    0  501  502  0.00000000000E+00  0.00000000000E+00  0.11868336080E+01  0.11868336080E+01  0.00000000000E+00 0. -1.
         13   -1    0    0    0    0 -0.00000000000E+00 -0.00000000000E+00 -0.10000000000E+04  0.10000000000E+04  0.00000000000E+00 0.  1.
    9000005    2    1    2  501    0  0.32795471886E+02  0.94806133732E+01 -0.55872262794E+03  0.55977420687E+03  0.32806557043E+01 0.  0.
         13    1    3    3    0    0  0.27715204943E+02  0.69663235202E+01 -0.47692924408E+03  0.47778464407E+03  0.00000000000E+00 0.  1.
          1    1    3    3  501    0  0.50802669436E+01  0.25142898530E+01 -0.81793383860E+02  0.81989562805E+02  0.00000000000E+00 0.  1.
         -1    1    1    2    0  502 -0.32795471886E+02 -0.94806133732E+01 -0.44009053845E+03  0.44141262674E+03  0.00000000000E+00 0. -1.
<mgrwt>
<rscale>  1 0.30000000E+03</rscale>
<asrwt>0</asrwt>
<pdfrwt beam="1">  1       21 0.43157677E-02 0.30000000E+03</pdfrwt>
<pdfrwt beam="2">0</pdfrwt>
<totfact> 0.36987049E+04</totfact>
</mgrwt>
</event>
<event>
 6    1  0.1198667E-001  0.3000000E+03  0.7818608E-02  0.1093470E+00
         21   -1    0    0  501  502  0.00000000000E+00  0.00000000000E+00  0.18363976569E+01  0.18363976569E+01  0.00000000000E+00 0. -1.
         13   -1    0    0    0    0 -0.00000000000E+00 -0.00000000000E+00 -0.10000000000E+04  0.10000000000E+04  0.00000000000E+00 0.  1.
    9000005    2    1    2  501    0 -0.94846808983E+00  0.39207864939E+02 -0.69977011983E+03  0.70087655536E+03  0.34013220327E+01 0.  0.
         13    1    3    3    0    0 -0.10599177023E+01  0.18068511742E+02 -0.29487389223E+03  0.29542885245E+03  0.00000000000E+00 0.  1.
          1    1    3    3  501    0  0.11144961249E+00  0.21139353198E+02 -0.40489622760E+03  0.40544770291E+03  0.00000000000E+00 0.  1.
         -3    1    1    2    0  502  0.94846808983E+00 -0.39207864939E+02 -0.29839348252E+03  0.30095984229E+03  0.00000000000E+00 0. -1.
<mgrwt>
<rscale>  1 0.30000000E+03</rscale>
<asrwt>0</asrwt>
<pdfrwt beam="1">  1       21 0.66778237E-02 0.30000000E+03</pdfrwt>
<pdfrwt beam="2">0</pdfrwt>
<totfact> 0.17511593E+04</totfact>
</mgrwt>
</event>
<event>
 6    1  0.1198667E-001  0.3000000E+03  0.7818608E-02  0.1093470E+00
         21   -1    0    0  501  502  0.00000000000E+00  0.00000000000E+00  0.18845979369E+01  0.18845979369E+01  0.00000000000E+00 0. -1.
         13   -1    0    0    0    0 -0.00000000000E+00 -0.00000000000E+00 -0.10000000000E+04  0.10000000000E+04  0.00000000000E+00 0.  1.
    9000005    2    1    2  501    0  0.36536333005E+02 -0.11903623872E+02 -0.73145382060E+03  0.73246856478E+03  0.29844325565E+01 0.  0.
         13    1    3    3    0    0  0.30160955017E+02 -0.98113275047E+01 -0.62388043060E+03  0.62468611081E+03  0.00000000000E+00 0.  1.
          3    1    3    3  501    0  0.63753779874E+01 -0.20922963677E+01 -0.10757339000E+03  0.10778245398E+03  0.00000000000E+00 0.  1.
         -1    1    1    2    0  502 -0.36536333005E+02  0.11903623872E+02 -0.26666158146E+03  0.26941603315E+03  0.00000000000E+00 0. -1.
<mgrwt>
<rscale>  1 0.30000000E+03</rscale>
<asrwt>0</asrwt>
<pdfrwt beam="1">  1       21 0.68530979E-02 0.30000000E+03</pdfrwt>
<pdfrwt beam="2">0</pdfrwt>
<totfact> 0.16741475E+04</totfact>
</mgrwt>
</event>
<event>
 6    1  0.1198667E-001  0.3000000E+03  0.7818608E-02  0.1093470E+00
         21   -1    0    0  501  502  0.00000000000E+00  0.00000000000E+00  0.14963831156E+01  0.14963831156E+01  0.00000000000E+00 0. -1.
         13   -1    0    0    0    0 -0.00000000000E+00 -0.00000000000E+00 -0.10000000000E+04  0.10000000000E+04  0.00000000000E+00 0.  1.
    9000005    2    1    2  501    0  0.30797904596E+02 -0.62709815760E+01 -0.79045483214E+03  0.79108694186E+03  0.34455456147E+01 0.  0.
         13    1    3    3    0    0  0.12573164027E+02 -0.39861426302E+01 -0.30643858866E+03  0.30672232134E+03  0.00000000000E+00 0.  1.
          1    1    3    3  501    0  0.18224740570E+02 -0.22848389458E+01 -0.48401624348E+03  0.48436462052E+03  0.00000000000E+00 0.  1.
         -1    1    1    2    0  502 -0.30797904596E+02  0.62709815760E+01 -0.20804878474E+03  0.21040944126E+03  0.00000000000E+00 0. -1.
<mgrwt>
<rscale>  1 0.30000000E+03</rscale>
<asrwt>0</asrwt>
<pdfrwt beam="1">  1       21 0.54414046E-02 0.30000000E+03</pdfrwt>
<pdfrwt beam="2">0</pdfrwt>
<totfact> 0.24927607E+04</totfact>
</mgrwt>
</event>
<event>
 6    1  0.1198667E-001  0.3000000E+03  0.7818608E-02  0.1093470E+00
         21   -1    0    0  501  502  0.00000000000E+00  0.00000000000E+00  0.18941483392E+01  0.18941483392E+01  0.00000000000E+00 0. -1.
         13   -1    0    0    0    0 -0.00000000000E+00 -0.00000000000E+00 -0.10000000000E+04  0.10000000000E+04  0.00000000000E+00 0.  1.
    9000005    2    1    2  501    0  0.34766797205E+02  0.43949742429E+01 -0.79564699789E+03  0.79642484782E+03  0.32166728218E+01 0.  0.
         13    1    3    3    0    0  0.14158039485E+02  0.27097474450E+01 -0.35648472028E+03  0.35677604825E+03  0.00000000000E+00 0.  1.
          1    1    3    3  501    0  0.20608757720E+02  0.16852267979E+01 -0.43916227761E+03  0.43964879956E+03  0.00000000000E+00 0.  1.
         -3    1    1    2    0  502 -0.34766797205E+02 -0.43949742429E+01 -0.20245885377E+03  0.20546930052E+03  0.00000000000E+00 0. -1.
<mgrwt>
<rscale>  1 0.30000000E+03</rscale>
<asrwt>0</asrwt>
<pdfrwt beam="1">  1       21 0.68878267E-02 0.30000000E+03</pdfrwt>
<pdfrwt beam="2">0</pdfrwt>
<totfact> 0.16595057E+04</totfact>
</mgrwt>
</event>
<event>
 6    1  0.1198667E-001  0.3000000E+03  0.7818608E-02  0.1093470E+00
         21   -1    0    0  501  502  0.00000000000E+00  0.00000000000E+00  0.99929578560E+00  0.99929578560E+00  0.00000000000E+00 0. -1.
         13   -1    0    0    0    0 -0.00000000000E+00 -0.00000000000E+00 -0.10000000000E+04  0.10000000000E+04  0.00000000000E+00 0.  1.
    9000005    2    1    2  501    0  0.26710272718E+02  0.14994906303E+02 -0.61903674847E+03  0.61980263584E+03  0.32443123194E+01 0.  0.
         13    1    3    3    0    0  0.33280199254E+01  0.11852910925E+01 -0.90137917403E+02  0.90207121588E+02  0.00000000000E+00 0.  1.
          1    1    3    3  501    0  0.23382252793E+02  0.13809615210E+02 -0.52889883106E+03  0.52959551425E+03  0.00000000000E+00 0.  1.
         -1    1    1    2    0  502 -0.26710272718E+02 -0.14994906303E+02 -0.37996395575E+03  0.38119665994E+03  0.00000000000E+00 0. -1.
<mgrwt>
<rscale>  1 0.30000000E+03</rscale>
<asrwt>0</asrwt>
<pdfrwt beam="1">  1       21 0.36338105E-02 0.30000000E+03</pdfrwt>
<pdfrwt beam="2">0</pdfrwt>
<totfact> 0.49409544E+04</totfact>
</mgrwt>
</event>
<event>
 6    1  0.1198667E-001  0.3000000E+03  0.7818608E-02  0.1093470E+00
         21   -1    0    0  501  502  0.00000000000E+00  0.00000000000E+00  0.11217671542E+01  0.11217671542E+01  0.00000000000E+00 0. -1.
         13   -1    0    0    0    0 -0.00000000000E+00 -0.00000000000E+00 -0.10000000000E+04  0.10000000000E+04  0.00000000000E+00 0.  1.
    9000005    2    1    2  501    0  0.12911092920E+02  0.29636918307E+02 -0.62460389222E+03  0.62545392810E+03  0.41893621081E+01 0.  0.
         13    1    3    3    0    0  0.22943445601E+01  0.23372096696E+01 -0.71483002247E+02  0.71557991701E+02  0.00000000000E+00 0.  1.
          1    1    3    3  501    0  0.10616748360E+02  0.27299708637E+02 -0.55312088997E+03  0.55389593640E+03  0.00000000000E+00 0.  1.
         -3    1    1    2    0  502 -0.12911092920E+02 -0.29636918307E+02 -0.37427434063E+03  0.37566783905E+03  0.00000000000E+00 0. -1.
<mgrwt>
<rscale>  1 0.30000000E+03</rscale>
<asrwt>0</asrwt>
<pdfrwt beam="1">  1       21 0.40791619E-02 0.30000000E+03</pdfrwt>
<pdfrwt beam="2">0</pdfrwt>
<totfact> 0.40681631E+04</totfact>
</mgrwt>
</event>
<event>
 6    1  0.1198667E-001  0.3000000E+03  0.7818608E-02  0.1093470E+00
         21   -1    0    0  501  502  0.00000000000E+00  0.00000000000E+00  0.12369200363E+01  0.12369200363E+01  0.00000000000E+00 0. -1.
         13   -1    0    0    0    0 -0.00000000000E+00 -0.00000000000E+00 -0.10000000000E+04  0.10000000000E+04  0.00000000000E+00 0.  1.
    9000005    2    1    2  501    0  0.24296835301E+02  0.25158558439E+02 -0.54079072824E+03  0.54193096078E+03  0.33563714588E+01 0.  0.
         13    1    3    3    0    0  0.15106900322E+02  0.14989716968E+02 -0.30416023580E+03  0.30490385221E+03  0.00000000000E+00 0.  1.
          1    1    3    3  501    0  0.91899349784E+01  0.10168841471E+02 -0.23663049244E+03  0.23702710857E+03  0.00000000000E+00 0.  1.
         -1    1    1    2    0  502 -0.24296835301E+02 -0.25158558439E+02 -0.45797235172E+03  0.45930595926E+03  0.00000000000E+00 0. -1.
<mgrwt>
<rscale>  1 0.30000000E+03</rscale>
<asrwt>0</asrwt>
<pdfrwt beam="1">  1       21 0.44979005E-02 0.30000000E+03</pdfrwt>
<pdfrwt beam="2">0</pdfrwt>
<totfact> 0.34485486E+04</totfact>
</mgrwt>
</event>
<event>
 6    1  0.1198667E-001  0.3000000E+03  0.7818608E-02  0.1093470E+00
         21   -1    0    0  501  502  0.00000000000E+00  0.00000000000E+00  0.22965575350E+01  0.22965575350E+01  0.00000000000E+00 0. -1.
         13   -1    0    0    0    0 -0.00000000000E+00 -0.00000000000E+00 -0.10000000000E+04  0.10000000000E+04  0.00000000000E+00 0.  1.
    9000005    2    1    2  501    0  0.44357812930E+02 -0.44679846974E+01 -0.68125807569E+03  0.68272614493E+03  0.38528991245E+01 0.  0.
         13    1    3    3    0    0  0.35909984207E+01 -0.10354400406E+01 -0.70993896685E+02  0.71092199096E+02  0.00000000000E+00 0.  1.
          3    1    3    3  501    0  0.40766814509E+02 -0.34325446568E+01 -0.61026417900E+03  0.61163394584E+03  0.00000000000E+00 0.  1.
         -1    1    1    2    0  502 -0.44357812930E+02  0.44679846974E+01 -0.31644536678E+03  0.31957041260E+03  0.00000000000E+00 0. -1.
<mgrwt>
<rscale>  1 0.30000000E+03</rscale>
<asrwt>0</asrwt>
<pdfrwt beam="1">  1       21 0.83511359E-02 0.30000000E+03</pdfrwt>
<pdfrwt beam="2">0</pdfrwt>
<totfact> 0.11844373E+04</totfact>
</mgrwt>
</event>
<event>
 6    1  0.1198667E-001  0.3000000E+03  0.7818608E-02  0.1093470E+00
         21   -1    0    0  501  502  0.00000000000E+00  0.00000000000E+00  0.97463745214E+00  0.97463745214E+00  0.00000000000E+00 0. -1.
         13   -1    0    0    0    0 -0.00000000000E+00 -0.00000000000E+00 -0.10000000000E+04  0.10000000000E+04  0.00000000000E+00 0.  1.
    9000005    2    1    2  501    0 -0.25319333803E+02 -0.16234387036E+02 -0.62991945075E+03  0.63064532709E+03  0.32233778609E+01 0.  0.
         13    1    3    3    0    0 -0.14097906186E+02 -0.89119217286E+01 -0.38223895417E+03  0.38260265471E+03  0.00000000000E+00 0.  1.
          3    1    3    3  501    0 -0.11221427618E+02 -0.73224653074E+01 -0.24768049657E+03  0.24804267237E+03  0.00000000000E+00 0.  1.
         -1    1    1    2    0  502  0.25319333803E+02  0.16234387036E+02 -0.36910591180E+03  0.37032931036E+03  0.00000000000E+00 0. -1.
<mgrwt>
<rscale>  1 0.30000000E+03</rscale>
<asrwt>0</asrwt>
<pdfrwt beam="1">  1       21 0.35441437E-02 0.30000000E+03</pdfrwt>
<pdfrwt beam="2">0</pdfrwt>
<totfact> 0.51523538E+04</totfact>
</mgrwt>
</event>
<event>
 6    1  0.1198667E-001  0.3000000E+03  0.7818608E-02  0.1093470E+00
         21   -1    0    0  501  502  0.00000000000E+00  0.00000000000E+00  0.18492747197E+01  0.18492747197E+01  0.00000000000E+00 0. -1.
         13   -1    0    0    0    0 -0.00000000000E+00 -0.00000000000E+00 -0.10000000000E+04  0.10000000000E+04  0.00000000000E+00 0.  1.
    9000005    2    1    2  501    0  0.30504670288E+02  0.30551682579E+01 -0.14903891993E+03  0.15218420721E+03  0.27503286148E+01 0.  0.
         13    1    3    3    0    0  0.13165000608E+02  0.58259834501E+00 -0.58374474219E+02  0.59843428229E+02  0.00000000000E+00 0.  1.
          1    1    3    3  501    0  0.17339669680E+02  0.24725699129E+01 -0.90664445710E+02  0.92340778979E+02  0.00000000000E+00 0.  1.
         -3    1    1    2    0  502 -0.30504670288E+02 -0.30551682579E+01 -0.84911180535E+03  0.84966506751E+03  0.00000000000E+00 0. -1.
<mgrwt>
<rscale>  1 0.30000000E+03</rscale>
<asrwt>0</asrwt>
<pdfrwt beam="1">  1       21 0.67246495E-02 0.30000000E+03</pdfrwt>
<pdfrwt beam="2">0</pdfrwt>
<totfact> 0.17300605E+04</totfact>
</mgrwt>
</event>
<event>
 6    1  0.1198667E-001  0.3000000E+03  0.7818608E-02  0.1093470E+00
         21   -1    0    0  501  502  0.00000000000E+00  0.00000000000E+00  0.38757263315E+01  0.38757263315E+01  0.00000000000E+00 0. -1.
         13   -1    0    0    0    0 -0.00000000000E+00 -0.00000000000E+00 -0.10000000000E+04  0.10000000000E+04  0.00000000000E+00 0.  1.
    9000005    2    1    2  501    0  0.83490682878E+01  0.39106695992E+02 -0.88265746468E+03  0.88356879655E+03  0.32523313612E+01 0.  0.
         13    1    3    3    0    0  0.42730459676E+01  0.20577485964E+02 -0.42806909409E+03  0.42858469544E+03  0.00000000000E+00 0.  1.
          1    1    3    3  501    0  0.40760223202E+01  0.18529210028E+02 -0.45458837060E+03  0.45498410111E+03  0.00000000000E+00 0.  1.
         -1    1    1    2    0  502 -0.83490682878E+01 -0.39106695992E+02 -0.11346680898E+03  0.12030692978E+03  0.00000000000E+00 0. -1.
<mgrwt>
<rscale>  1 0.30000000E+03</rscale>
<asrwt>0</asrwt>
<pdfrwt beam="1">  1       21 0.14093580E-01 0.30000000E+03</pdfrwt>
<pdfrwt beam="2">0</pdfrwt>
<totfact> 0.46197634E+03</totfact>
</mgrwt>
</event>
<event>
 6    1  0.1198667E-001  0.3000000E+03  0.7818608E-02  0.1093470E+00
         21   -1    0    0  501  502  0.00000000000E+00  0.00000000000E+00  0.11954297365E+01  0.11954297365E+01  0.00000000000E+00 0. -1.
         13   -1    0    0    0    0 -0.00000000000E+00 -0.00000000000E+00 -0.10000000000E+04  0.10000000000E+04  0.00000000000E+00 0.  1.
    9000005    2    1    2  501    0 -0.30250155785E+02  0.16042133957E+02 -0.56302773962E+03  0.56407545980E+03  0.29097742151E+01 0.  0.
         13    1    3    3    0    0 -0.73907235438E+01  0.25947215557E+01 -0.13407057450E+03  0.13429919702E+03  0.00000000000E+00 0.  1.
          1    1    3    3  501    0 -0.22859432241E+02  0.13447412401E+02 -0.42895716512E+03  0.42977626278E+03  0.00000000000E+00 0.  1.
         -1    1    1    2    0  502  0.30250155785E+02 -0.16042133957E+02 -0.43577683065E+03  0.43711996993E+03  0.00000000000E+00 0. -1.
<mgrwt>
<rscale>  1 0.30000000E+03</rscale>
<asrwt>0</asrwt>
<pdfrwt beam="1">  1       21 0.43470264E-02 0.30000000E+03</pdfrwt>
<pdfrwt beam="2">0</pdfrwt>
<totfact> 0.36538138E+04</totfact>
</mgrwt>
</event>
<event>
 6    1  0.1198667E-001  0.3000000E+03  0.7818608E-02  0.1093470E+00
         21   -1    0    0  501  502  0.00000000000E+00  0.00000000000E+00  0.18978762026E+01  0.18978762026E+01  0.00000000000E+00 0. -1.
         13   -1    0    0    0    0 -0.00000000000E+00 -0.00000000000E+00 -0.10000000000E+04  0.10000000000E+04  0.00000000000E+00 0.  1.
    9000005    2    1    2  501    0  0.21511488190E+02 -0.30437102355E+02 -0.75781249120E+03  0.75873482626E+03  0.30989410988E+01 0.  0.
         13    1    3    3    0    0  0.52912167333E+01 -0.76116567771E+01 -0.21695107062E+03  0.21714903024E+03  0.00000000000E+00 0.  1.
          3    1    3    3  501    0  0.16220271456E+02 -0.22825445578E+02 -0.54086142058E+03  0.54158579602E+03  0.00000000000E+00 0.  1.
         -1    1    1    2    0  502 -0.21511488190E+02  0.30437102355E+02 -0.24028963260E+03  0.24316304994E+03  0.00000000000E+00 0. -1.
<mgrwt>
<rscale>  1 0.30000000E+03</rscale>
<asrwt>0</asrwt>
<pdfrwt beam="1">  1       21 0.69013826E-02 0.30000000E+03</pdfrwt>
<pdfrwt beam="2">0</pdfrwt>
<totfact> 0.16538437E+04</totfact>
</mgrwt>
</event>
<event>
 6    1  0.1198667E-001  0.3000000E+03  0.7818608E-02  0.1093470E+00
         21   -1    0    0  501  502  0.00000000000E+00  0.00000000000E+00  0.10528944986E+01  0.10528944986E+01  0.00000000000E+00 0. -1.
         13   -1    0    0    0    0 -0.00000000000E+00 -0.00000000000E+00 -0.10000000000E+04  0.10000000000E+04  0.00000000000E+00 0.  1.
    9000005    2    1    2  501    0 -0.30507036282E+02  0.34524950061E+01 -0.65999481141E+03  0.66071298110E+03  0.24276155500E+01 0.  0.
         13    1    3    3    0    0 -0.25324540328E+02  0.35772061424E+01 -0.53599049163E+03  0.53660035023E+03  0.00000000000E+00 0.  1.
          1    1    3    3  501    0 -0.51824959533E+01 -0.12471113632E+00 -0.12400431978E+03  0.12411263087E+03  0.00000000000E+00 0.  1.
         -3    1    1    2    0  502  0.30507036282E+02 -0.34524950061E+01 -0.33895229409E+03  0.34033991340E+03  0.00000000000E+00 0. -1.
<mgrwt>
<rscale>  1 0.30000000E+03</rscale>
<asrwt>0</asrwt>
<pdfrwt beam="1">  1       21 0.38287153E-02 0.30000000E+03</pdfrwt>
<pdfrwt beam="2">0</pdfrwt>
<totfact> 0.45259886E+04</totfact>
</mgrwt>
</event>
<event>
 6    1  0.1198667E-001  0.3000000E+03  0.7818608E-02  0.1093470E+00
         21   -1    0    0  501  502  0.00000000000E+00  0.00000000000E+00  0.13452490711E+01  0.13452490711E+01  0.00000000000E+00 0. -1.
         13   -1    0    0    0    0 -0.00000000000E+00 -0.00000000000E+00 -0.10000000000E+04  0.10000000000E+04  0.00000000000E+00 0.  1.
    9000005    2    1    2  501    0  0.51547560889E+00 -0.35302106038E+02 -0.63170360159E+03  0.63269955141E+03  0.35745883134E+01 0.  0.
         13    1    3    3    0    0  0.40851749922E+00 -0.51292382155E+01 -0.11592943513E+03  0.11604356898E+03  0.00000000000E+00 0.  1.
          1    1    3    3  501    0  0.10695810967E+00 -0.30172867823E+02 -0.51577416646E+03  0.51665598243E+03  0.00000000000E+00 0.  1.
         -1    1    1    2    0  502 -0.51547560889E+00  0.35302106038E+02 -0.36695114934E+03  0.36864569766E+03  0.00000000000E+00 0. -1.
<mgrwt>
<rscale>  1 0.30000000E+03</rscale>
<asrwt>0</asrwt>
<pdfrwt beam="1">  1       21 0.48918251E-02 0.30000000E+03</pdfrwt>
<pdfrwt beam="2">0</pdfrwt>
<totfact> 0.29898373E+04</totfact>
</mgrwt>
</event>
<event>
 6    1  0.1198667E-001  0.3000000E+03  0.7818608E-02  0.1093470E+00
         21   -1    0    0  501  502  0.00000000000E+00  0.00000000000E+00  0.86301182847E+01  0.86301182847E+01  0.00000000000E+00 0. -1.
         13   -1    0    0    0    0 -0.00000000000E+00 -0.00000000000E+00 -0.10000000000E+04  0.10000000000E+04  0.00000000000E+00 0.  1.
    9000005    2    1    2  501    0  0.11112166418E+01  0.77734617594E+02 -0.77164206141E+03  0.77555454987E+03  0.30794990784E+01 0.  0.
         13    1    3    3    0    0 -0.85922630519E+00  0.38202719023E+02 -0.37276608057E+03  0.37471954424E+03  0.00000000000E+00 0.  1.
          3    1    3    3  501    0  0.19704429470E+01  0.39531898571E+02 -0.39887598084E+03  0.40083500563E+03  0.00000000000E+00 0.  1.
         -3    1    1    2    0  502 -0.11112166418E+01 -0.77734617594E+02 -0.21972782030E+03  0.23307556841E+03  0.00000000000E+00 0. -1.
<mgrwt>
<rscale>  1 0.30000000E+03</rscale>
<asrwt>0</asrwt>
<pdfrwt beam="1">  1       21 0.31382314E-01 0.30000000E+03</pdfrwt>
<pdfrwt beam="2">0</pdfrwt>
<totfact> 0.99327725E+02</totfact>
</mgrwt>
</event>
<event>
 6    1  0.1198667E-001  0.3000000E+03  0.7818608E-02  0.1093470E+00
         21   -1    0    0  501  502  0.00000000000E+00  0.00000000000E+00  0.20061206739E+01  0.20061206739E+01  0.00000000000E+00 0. -1.
         13   -1    0    0    0    0 -0.00000000000E+00 -0.00000000000E+00 -0.10000000000E+04  0.10000000000E+04  0.00000000000E+00 0.  1.
    9000005    2    1    2  501    0  0.15247477773E+02 -0.41242360008E+02 -0.59196324759E+03  0.59360155196E+03  0.29829776900E+01 0.  0.
         13    1    3    3    0    0 -0.12955209804E-01 -0.73196531774E+00 -0.14177735091E+02  0.14196623309E+02  0.00000000000E+00 0.  1.
          3    1    3    3  501    0  0.15260432983E+02 -0.40510394690E+02 -0.57778551249E+03  0.57940492865E+03  0.00000000000E+00 0.  1.
         -3    1    1    2    0  502 -0.15247477773E+02  0.41242360008E+02 -0.40603063174E+03  0.40840456872E+03  0.00000000000E+00 0. -1.
<mgrwt>
<rscale>  1 0.30000000E+03</rscale>
<asrwt>0</asrwt>
<pdfrwt beam="1">  1       21 0.72949997E-02 0.30000000E+03</pdfrwt>
<pdfrwt beam="2">0</pdfrwt>
<totfact> 0.15014892E+04</totfact>
</mgrwt>
</event>
<event>
 6    1  0.1198667E-001  0.3000000E+03  0.7818608E-02  0.1093470E+00
         21   -1    0    0  501  502  0.00000000000E+00  0.00000000000E+00  0.52039735060E+01  0.52039735060E+01  0.00000000000E+00 0. -1.
         13   -1    0    0    0    0 -0.00000000000E+00 -0.00000000000E+00 -0.10000000000E+04  0.10000000000E+04  0.00000000000E+00 0.  1.
    9000005    2    1    2  501    0  0.66231563977E+02 -0.18518643244E+02 -0.64856739415E+03  0.65221130210E+03  0.32183244907E+01 0.  0.
         13    1    3    3    0    0  0.27354815124E+01 -0.10575487073E+01 -0.33753341938E+02  0.33880515940E+02  0.00000000000E+00 0.  1.
          3    1    3    3  501    0  0.63496082465E+02 -0.17461094537E+02 -0.61481405221E+03  0.61833078616E+03  0.00000000000E+00 0.  1.
         -3    1    1    2    0  502 -0.66231563977E+02  0.18518643244E+02 -0.34622863234E+03  0.35299267141E+03  0.00000000000E+00 0. -1.
<mgrwt>
<rscale>  1 0.30000000E+03</rscale>
<asrwt>0</asrwt>
<pdfrwt beam="1">  1       21 0.18923580E-01 0.30000000E+03</pdfrwt>
<pdfrwt beam="2">0</pdfrwt>
<totfact> 0.26653664E+03</totfact>
</mgrwt>
</event>
<event>
 6    1  0.1198667E-001  0.3000000E+03  0.7818608E-02  0.1093470E+00
         21   -1    0    0  501  502  0.00000000000E+00  0.00000000000E+00  0.11478409836E+01  0.11478409836E+01  0.00000000000E+00 0. -1.
         13   -1    0    0    0    0 -0.00000000000E+00 -0.00000000000E+00 -0.10000000000E+04  0.10000000000E+04  0.00000000000E+00 0.  1.
    9000005    2    1    2  501    0  0.32999644388E+02  0.69276123482E+01 -0.46327722227E+03  0.46451250743E+03  0.30193618753E+01 0.  0.
         13    1    3    3    0    0  0.14463428835E+02  0.45313842953E+01 -0.20284745604E+03  0.20341291659E+03  0.00000000000E+00 0.  1.
          1    1    3    3  501    0  0.18536215553E+02  0.23962280529E+01 -0.26042976623E+03  0.26109959084E+03  0.00000000000E+00 0.  1.
         -3    1    1    2    0  502 -0.32999644388E+02 -0.69276123482E+01 -0.53557493675E+03  0.53663533355E+03  0.00000000000E+00 0. -1.
<mgrwt>
<rscale>  1 0.30000000E+03</rscale>
<asrwt>0</asrwt>
<pdfrwt beam="1">  1       21 0.41739760E-02 0.30000000E+03</pdfrwt>
<pdfrwt beam="2">0</pdfrwt>
<totfact> 0.39134980E+04</totfact>
</mgrwt>
</event>
<event>
 6    1  0.1198667E-001  0.3000000E+03  0.7818608E-02  0.1093470E+00
         21   -1    0    0  501  502  0.00000000000E+00  0.00000000000E+00  0.73184497249E+01  0.73184497249E+01  0.00000000000E+00 0. -1.
         13   -1    0    0    0    0 -0.00000000000E+00 -0.00000000000E+00 -0.10000000000E+04  0.10000000000E+04  0.00000000000E+00 0.  1.
    9000005    2    1    2  501    0 -0.18747502339E+01 -0.37728542698E+02 -0.94821094681E+03  0.94896956631E+03  0.35043574771E+01 0.  0.
         13    1    3    3    0    0 -0.13611130264E+01 -0.13727432994E+02 -0.30829378216E+03  0.30860225398E+03  0.00000000000E+00 0.  1.
          1    1    3    3  501    0 -0.51363720750E+00 -0.24001109704E+02 -0.63991716465E+03  0.64036731233E+03  0.00000000000E+00 0.  1.
         -1    1    1    2    0  502  0.18747502339E+01  0.37728542698E+02 -0.44470603467E+02  0.58348883410E+02  0.00000000000E+00 0. -1.
<mgrwt>
<rscale>  1 0.30000000E+03</rscale>
<asrwt>0</asrwt>
<pdfrwt beam="1">  1       21 0.26612601E-01 0.30000000E+03</pdfrwt>
<pdfrwt beam="2">0</pdfrwt>
<totfact> 0.13792622E+03</totfact>
</mgrwt>
</event>
<event>
 6    1  0.1198667E-001  0.3000000E+03  0.7818608E-02  0.1093470E+00
         21   -1    0    0  501  502  0.00000000000E+00  0.00000000000E+00  0.11081202740E+01  0.11081202740E+01  0.00000000000E+00 0. -1.
         13   -1    0    0    0    0 -0.00000000000E+00 -0.00000000000E+00 -0.10000000000E+04  0.10000000000E+04  0.00000000000E+00 0.  1.
    9000005    2    1    2  501    0 -0.26396859156E+02 -0.19733058562E+02 -0.55796888006E+03  0.55895511575E+03  0.39195071494E+01 0.  0.
         13    1    3    3    0    0 -0.13757832226E+02 -0.99730531158E+01 -0.25480878377E+03  0.25537473647E+03  0.00000000000E+00 0.  1.
          3    1    3    3  501    0 -0.12639026930E+02 -0.97600054464E+01 -0.30316009629E+03  0.30358037929E+03  0.00000000000E+00 0.  1.
         -3    1    1    2    0  502  0.26396859156E+02  0.19733058562E+02 -0.44092299966E+03  0.44215300452E+03  0.00000000000E+00 0. -1.
<mgrwt>
<rscale>  1 0.30000000E+03</rscale>
<asrwt>0</asrwt>
<pdfrwt beam="1">  1       21 0.40295368E-02 0.30000000E+03</pdfrwt>
<pdfrwt beam="2">0</pdfrwt>
<totfact> 0.41529495E+04</totfact>
</mgrwt>
</event>
<event>
 6    1  0.1198667E-001  0.3000000E+03  0.7818608E-02  0.1093470E+00
         21   -1    0    0  501  502  0.00000000000E+00  0.00000000000E+00  0.13430725850E+01  0.13430725850E+01  0.00000000000E+00 0. -1.
         13   -1    0    0    0    0 -0.00000000000E+00 -0.00000000000E+00 -0.10000000000E+04  0.10000000000E+04  0.00000000000E+00 0.  1.
    9000005    2    1    2  501    0  0.13673240272E+01  0.36386853691E+02 -0.45261668866E+03  0.45409010089E+03  0.31749284090E+01 0.  0.
         13    1    3    3    0    0  0.22041547316E+01  0.19757274588E+02 -0.25381370478E+03  0.25459105430E+03  0.00000000000E+00 0.  1.
          3    1    3    3  501    0 -0.83683070438E+00  0.16629579102E+02 -0.19880298389E+03  0.19949904659E+03  0.00000000000E+00 0.  1.
         -1    1    1    2    0  502 -0.13673240272E+01 -0.36386853691E+02 -0.54604023875E+03  0.54725297170E+03  0.00000000000E+00 0. -1.
<mgrwt>
<rscale>  1 0.30000000E+03</rscale>
<asrwt>0</asrwt>
<pdfrwt beam="1">  1       21 0.48839106E-02 0.30000000E+03</pdfrwt>
<pdfrwt beam="2">0</pdfrwt>
<totfact> 0.29980928E+04</totfact>
</mgrwt>
</event>
<event>
 6    1  0.1198667E-001  0.3000000E+03  0.7818608E-02  0.1093470E+00
         21   -1    0    0  501  502  0.00000000000E+00  0.00000000000E+00  0.16705338026E+01  0.16705338026E+01  0.00000000000E+00 0. -1.
         13   -1    0    0    0    0 -0.00000000000E+00 -0.00000000000E+00 -0.10000000000E+04  0.10000000000E+04  0.00000000000E+00 0.  1.
    9000005    2    1    2  501    0  0.31501271266E+02 -0.24530248163E+02 -0.60284498624E+03  0.60417583314E+03  0.35066724172E+01 0.  0.
         13    1    3    3    0    0  0.18595715536E+02 -0.12273767456E+02 -0.33422069825E+03  0.33496256678E+03  0.00000000000E+00 0.  1.
          3    1    3    3  501    0  0.12905555730E+02 -0.12256480706E+02 -0.26862428799E+03  0.26921326636E+03  0.00000000000E+00 0.  1.
         -3    1    1    2    0  502 -0.31501271266E+02  0.24530248163E+02 -0.39548447996E+03  0.39749470066E+03  0.00000000000E+00 0. -1.
<mgrwt>
<rscale>  1 0.30000000E+03</rscale>
<asrwt>0</asrwt>
<pdfrwt beam="1">  1       21 0.60746812E-02 0.30000000E+03</pdfrwt>
<pdfrwt beam="2">0</pdfrwt>
<totfact> 0.20626776E+04</totfact>
</mgrwt>
</event>
<event>
 6    1  0.1198667E-001  0.3000000E+03  0.7818608E-02  0.1093470E+00
         21   -1    0    0  501  502  0.00000000000E+00  0.00000000000E+00  0.14891989391E+01  0.14891989391E+01  0.00000000000E+00 0. -1.
         13   -1    0    0    0    0 -0.00000000000E+00 -0.00000000000E+00 -0.10000000000E+04  0.10000000000E+04  0.00000000000E+00 0.  1.
    9000005    2    1    2  501    0  0.30634509877E+02 -0.36302592710E+01 -0.79955537548E+03  0.80015635674E+03  0.31216667169E+01 0.  0.
         13    1    3    3    0    0  0.27072499893E+02 -0.25758574656E+01 -0.72220405766E+03  0.72271588898E+03  0.00000000000E+00 0.  1.
          3    1    3    3  501    0  0.35620099840E+01 -0.10544018055E+01 -0.77351317820E+02  0.77440467760E+02  0.00000000000E+00 0.  1.
         -3    1    1    2    0  502 -0.30634509877E+02  0.36302592710E+01 -0.19895542558E+03  0.20133284220E+03  0.00000000000E+00 0. -1.
<mgrwt>
<rscale>  1 0.30000000E+03</rscale>
<asrwt>0</asrwt>
<pdfrwt beam="1">  1       21 0.54152803E-02 0.30000000E+03</pdfrwt>
<pdfrwt beam="2">0</pdfrwt>
<totfact> 0.25133966E+04</totfact>
</mgrwt>
</event>
<event>
 6    1  0.1198667E-001  0.3000000E+03  0.7818608E-02  0.1093470E+00
         21   -1    0    0  501  502  0.00000000000E+00  0.00000000000E+00  0.16088466317E+01  0.16088466317E+01  0.00000000000E+00 0. -1.
         13   -1    0    0    0    0 -0.00000000000E+00 -0.00000000000E+00 -0.10000000000E+04  0.10000000000E+04  0.00000000000E+00 0.  1.
    9000005    2    1    2  501    0 -0.28111069129E+02  0.25362466571E+02 -0.66247669306E+03  0.66356741195E+03  0.35853081810E+01 0.  0.
         13    1    3    3    0    0 -0.10990634804E+01  0.20765703506E+00 -0.18542543865E+02  0.18576248140E+02  0.00000000000E+00 0.  1.
          1    1    3    3  501    0 -0.27012005648E+02  0.25154809536E+02 -0.64393414920E+03  0.64499116381E+03  0.00000000000E+00 0.  1.
         -3    1    1    2    0  502  0.28111069129E+02 -0.25362466571E+02 -0.33591446031E+03  0.33804143468E+03  0.00000000000E+00 0. -1.
<mgrwt>
<rscale>  1 0.30000000E+03</rscale>
<asrwt>0</asrwt>
<pdfrwt beam="1">  1       21 0.58503637E-02 0.30000000E+03</pdfrwt>
<pdfrwt beam="2">0</pdfrwt>
<totfact> 0.22009306E+04</totfact>
</mgrwt>
</event>
<event>
 6    1  0.1198667E-001  0.3000000E+03  0.7818608E-02  0.1093470E+00
         21   -1    0    0  501  502  0.00000000000E+00  0.00000000000E+00  0.14648450816E+02  0.14648450816E+02  0.00000000000E+00 0. -1.
         13   -1    0    0    0    0 -0.00000000000E+00 -0.00000000000E+00 -0.10000000000E+04  0.10000000000E+04  0.00000000000E+00 0.  1.
    9000005    2    1    2  501    0 -0.58710365126E+02 -0.12821908298E+02 -0.93295036289E+03  0.93491644576E+03  0.78148976581E+01 0.  0.
         13    1    3    3    0    0 -0.57235122570E+02 -0.12502787628E+02 -0.92240917395E+03  0.92426774429E+03  0.00000000000E+00 0.  1.
          3    1    3    3  501    0 -0.14752425560E+01 -0.31912067001E+00 -0.10541188943E+02  0.10648701467E+02  0.00000000000E+00 0.  1.
         -3    1    1    2    0  502  0.58710365126E+02  0.12821908298E+02 -0.52401186291E+02  0.79732005057E+02  0.00000000000E+00 0. -1.
<mgrwt>
<rscale>  1 0.30000000E+03</rscale>
<asrwt>0</asrwt>
<pdfrwt beam="1">  1       21 0.53267206E-01 0.30000000E+03</pdfrwt>
<pdfrwt beam="2">0</pdfrwt>
<totfact> 0.32722333E+02</totfact>
</mgrwt>
</event>
<event>
 6    1  0.1198667E-001  0.3000000E+03  0.7818608E-02  0.1093470E+00
         21   -1    0    0  501  502  0.00000000000E+00  0.00000000000E+00  0.10142190456E+01  0.10142190456E+01  0.00000000000E+00 0. -1.
         13   -1    0    0    0    0 -0.00000000000E+00 -0.00000000000E+00 -0.10000000000E+04  0.10000000000E+04  0.00000000000E+00 0.  1.
    9000005    2    1    2  501    0 -0.13838561022E+02 -0.27735785040E+02 -0.39391689759E+03  0.39515191360E+03  0.37058160553E+01 0.  0.
         13    1    3    3    0    0 -0.29035839795E+01 -0.45875413459E+01 -0.53974730036E+02  0.54247099628E+02  0.00000000000E+00 0.  1.
          3    1    3    3  501    0 -0.10934977042E+02 -0.23148243694E+02 -0.33994216755E+03  0.34090481397E+03  0.00000000000E+00 0.  1.
         -3    1    1    2    0  502  0.13838561022E+02  0.27735785040E+02 -0.60506888336E+03  0.60586230544E+03  0.00000000000E+00 0. -1.
<mgrwt>
<rscale>  1 0.30000000E+03</rscale>
<asrwt>0</asrwt>
<pdfrwt beam="1">  1       21 0.36880770E-02 0.30000000E+03</pdfrwt>
<pdfrwt beam="2">0</pdfrwt>
<totfact> 0.48195816E+04</totfact>
</mgrwt>
</event>
<event>
 6    1  0.1198667E-001  0.3000000E+03  0.7818608E-02  0.1093470E+00
         21   -1    0    0  501  502  0.00000000000E+00  0.00000000000E+00  0.19566434603E+01  0.19566434603E+01  0.00000000000E+00 0. -1.
         13   -1    0    0    0    0 -0.00000000000E+00 -0.00000000000E+00 -0.10000000000E+04  0.10000000000E+04  0.00000000000E+00 0.  1.
    9000005    2    1    2  501    0 -0.13805271042E+02 -0.32176541460E+02 -0.80483707244E+03  0.80560343227E+03  0.28742970536E+01 0.  0.
         13    1    3    3    0    0 -0.18358189262E+01 -0.27252892996E+01 -0.63323149039E+02  0.63408348324E+02  0.00000000000E+00 0.  1.
          3    1    3    3  501    0 -0.11969452116E+02 -0.29451252160E+02 -0.74151392340E+03  0.74219508395E+03  0.00000000000E+00 0.  1.
         -1    1    1    2    0  502  0.13805271042E+02  0.32176541460E+02 -0.19320628410E+03  0.19635321119E+03  0.00000000000E+00 0. -1.
<mgrwt>
<rscale>  1 0.30000000E+03</rscale>
<asrwt>0</asrwt>
<pdfrwt beam="1">  1       21 0.71150821E-02 0.30000000E+03</pdfrwt>
<pdfrwt beam="2">0</pdfrwt>
<totfact> 0.15683521E+04</totfact>
</mgrwt>
</event>
<event>
 6    1  0.1198667E-001  0.3000000E+03  0.7818608E-02  0.1093470E+00
         21   -1    0    0  501  502  0.00000000000E+00  0.00000000000E+00  0.16018019305E+01  0.16018019305E+01  0.00000000000E+00 0. -1.
         13   -1    0    0    0    0 -0.00000000000E+00 -0.00000000000E+00 -0.10000000000E+04  0.10000000000E+04  0.00000000000E+00 0.  1.
    9000005    2    1    2  501    0 -0.31464241823E+02  0.44742802241E+01 -0.80305864416E+03  0.80369384601E+03  0.32549115578E+01 0.  0.
         13    1    3    3    0    0 -0.10577211112E+02  0.28900829590E+01 -0.25832842513E+03  0.25856102801E+03  0.00000000000E+00 0.  1.
          3    1    3    3  501    0 -0.20887030711E+02  0.15841972652E+01 -0.54473021903E+03  0.54513281800E+03  0.00000000000E+00 0.  1.
         -1    1    1    2    0  502  0.31464241823E+02 -0.44742802241E+01 -0.19533955391E+03  0.19790795592E+03  0.00000000000E+00 0. -1.
<mgrwt>
<rscale>  1 0.30000000E+03</rscale>
<asrwt>0</asrwt>
<pdfrwt beam="1">  1       21 0.58247466E-02 0.30000000E+03</pdfrwt>
<pdfrwt beam="2">0</pdfrwt>
<totfact> 0.22176343E+04</totfact>
</mgrwt>
</event>
<event>
 6    1  0.1198667E-001  0.3000000E+03  0.7818608E-02  0.1093470E+00
         21   -1    0    0  501  502  0.00000000000E+00  0.00000000000E+00  0.32568724078E+01  0.32568724078E+01  0.00000000000E+00 0. -1.
         13   -1    0    0    0    0 -0.00000000000E+00 -0.00000000000E+00 -0.10000000000E+04  0.10000000000E+04  0.00000000000E+00 0.  1.
    9000005    2    1    2  501    0  0.34678192619E+02 -0.19244089667E+02 -0.85889313751E+03  0.85981513582E+03  0.34255055451E+01 0.  0.
         13    1    3    3    0    0  0.20413516402E+02 -0.10562548715E+02 -0.53058913371E+03  0.53108672352E+03  0.00000000000E+00 0.  1.
          1    1    3    3  501    0  0.14264676217E+02 -0.86815409519E+01 -0.32830400381E+03  0.32872841230E+03  0.00000000000E+00 0.  1.
         -3    1    1    2    0  502 -0.34678192619E+02  0.19244089667E+02 -0.13784999008E+03  0.14344173659E+03  0.00000000000E+00 0. -1.
<mgrwt>
<rscale>  1 0.30000000E+03</rscale>
<asrwt>0</asrwt>
<pdfrwt beam="1">  1       21 0.11843197E-01 0.30000000E+03</pdfrwt>
<pdfrwt beam="2">0</pdfrwt>
<totfact> 0.63467212E+03</totfact>
</mgrwt>
</event>
<event>
 6    1  0.1198667E-001  0.3000000E+03  0.7818608E-02  0.1093470E+00
         21   -1    0    0  501  502  0.00000000000E+00  0.00000000000E+00  0.26374496042E+01  0.26374496042E+01  0.00000000000E+00 0. -1.
         13   -1    0    0    0    0 -0.00000000000E+00 -0.00000000000E+00 -0.10000000000E+04  0.10000000000E+04  0.00000000000E+00 0.  1.
    9000005    2    1    2  501    0 -0.22096472008E+02  0.29029182691E+02 -0.85132368323E+03  0.85211071362E+03  0.31156243880E+01 0.  0.
         13    1    3    3    0    0 -0.36243692065E+01  0.36727080339E+01 -0.14172397595E+03  0.14181787685E+03  0.00000000000E+00 0.  1.
          1    1    3    3  501    0 -0.18472102802E+02  0.25356474657E+02 -0.70959970728E+03  0.71029283676E+03  0.00000000000E+00 0.  1.
         -3    1    1    2    0  502  0.22096472008E+02 -0.29029182691E+02 -0.14603886717E+03  0.15052673599E+03  0.00000000000E+00 0. -1.
<mgrwt>
<rscale>  1 0.30000000E+03</rscale>
<asrwt>0</asrwt>
<pdfrwt beam="1">  1       21 0.95907461E-02 0.30000000E+03</pdfrwt>
<pdfrwt beam="2">0</pdfrwt>
<totfact> 0.92693351E+03</totfact>
</mgrwt>
</event>
<event>
 6    1  0.1198667E-001  0.3000000E+03  0.7818608E-02  0.1093470E+00
         21   -1    0    0  501  502  0.00000000000E+00  0.00000000000E+00  0.16617097342E+01  0.16617097342E+01  0.00000000000E+00 0. -1.
         13   -1    0    0    0    0 -0.00000000000E+00 -0.00000000000E+00 -0.10000000000E+04  0.10000000000E+04  0.00000000000E+00 0.  1.
    9000005    2    1    2  501    0  0.20713005527E+02  0.26410927963E+02 -0.77902808134E+03  0.77979793745E+03  0.85735651177E+01 0.  0.
         13    1    3    3    0    0  0.10713516939E+01  0.59154675818E+01 -0.17485439998E+03  0.17495771416E+03  0.00000000000E+00 0.  1.
          1    1    3    3  501    0  0.19641653833E+02  0.20495460381E+02 -0.60417368136E+03  0.60484022329E+03  0.00000000000E+00 0.  1.
         -1    1    1    2    0  502 -0.20713005527E+02 -0.26410927963E+02 -0.21931020892E+03  0.22186377228E+03  0.00000000000E+00 0. -1.
<mgrwt>
<rscale>  1 0.30000000E+03</rscale>
<asrwt>0</asrwt>
<pdfrwt beam="1">  1       21 0.60425936E-02 0.30000000E+03</pdfrwt>
<pdfrwt beam="2">0</pdfrwt>
<totfact> 0.20816120E+04</totfact>
</mgrwt>
</event>
<event>
 6    1  0.1198667E-001  0.3000000E+03  0.7818608E-02  0.1093470E+00
         21   -1    0    0  501  502  0.00000000000E+00  0.00000000000E+00  0.22918376122E+01  0.22918376122E+01  0.00000000000E+00 0. -1.
         13   -1    0    0    0    0 -0.00000000000E+00 -0.00000000000E+00 -0.10000000000E+04  0.10000000000E+04  0.00000000000E+00 0.  1.
    9000005    2    1    2  501    0 -0.42239781702E+02  0.12007949039E+02 -0.69601743313E+03  0.69742188809E+03  0.53509602121E+01 0.  0.
         13    1    3    3    0    0 -0.18391116958E+02  0.77593934745E+01 -0.33151502281E+03  0.33211541927E+03  0.00000000000E+00 0.  1.
          3    1    3    3  501    0 -0.23848664744E+02  0.42485555647E+01 -0.36450241032E+03  0.36530646882E+03  0.00000000000E+00 0.  1.
         -1    1    1    2    0  502  0.42239781702E+02 -0.12007949039E+02 -0.30169072926E+03  0.30486994952E+03  0.00000000000E+00 0. -1.
<mgrwt>
<rscale>  1 0.30000000E+03</rscale>
<asrwt>0</asrwt>
<pdfrwt beam="1">  1       21 0.83339725E-02 0.30000000E+03</pdfrwt>
<pdfrwt beam="2">0</pdfrwt>
<totfact> 0.11887364E+04</totfact>
</mgrwt>
</event>
<event>
 6    1  0.1198667E-001  0.3000000E+03  0.7818608E-02  0.1093470E+00
         21   -1    0    0  501  502  0.00000000000E+00  0.00000000000E+00  0.14809278751E+01  0.14809278751E+01  0.00000000000E+00 0. -1.
         13   -1    0    0    0    0 -0.00000000000E+00 -0.00000000000E+00 -0.10000000000E+04  0.10000000000E+04  0.00000000000E+00 0.  1.
    9000005    2    1    2  501    0 -0.31936231322E+02 -0.20461430344E+02 -0.45570075207E+03  0.45733910667E+03  0.75690187648E+01 0.  0.
         13    1    3    3    0    0 -0.30788062677E+02 -0.18342853594E+02 -0.40551710592E+03  0.40709763973E+03  0.00000000000E+00 0.  1.
          1    1    3    3  501    0 -0.11481686442E+01 -0.21185767497E+01 -0.50183646152E+02  0.50241466935E+02  0.00000000000E+00 0.  1.
         -1    1    1    2    0  502  0.31936231322E+02  0.20461430344E+02 -0.54281832005E+03  0.54414182121E+03  0.00000000000E+00 0. -1.
<mgrwt>
<rscale>  1 0.30000000E+03</rscale>
<asrwt>0</asrwt>
<pdfrwt beam="1">  1       21 0.53852036E-02 0.30000000E+03</pdfrwt>
<pdfrwt beam="2">0</pdfrwt>
<totfact> 0.25374827E+04</totfact>
</mgrwt>
</event>
<event>
 6    1  0.1198667E-001  0.3000000E+03  0.7818608E-02  0.1093470E+00
         21   -1    0    0  501  502  0.00000000000E+00  0.00000000000E+00  0.93634621958E+00  0.93634621958E+00  0.00000000000E+00 0. -1.
         13   -1    0    0    0    0 -0.00000000000E+00 -0.00000000000E+00 -0.10000000000E+04  0.10000000000E+04  0.00000000000E+00 0.  1.
    9000005    2    1    2  501    0  0.20646945242E+02 -0.22523180601E+02 -0.50940975308E+03  0.51033005551E+03  0.22088485802E+01 0.  0.
         13    1    3    3    0    0  0.86458341952E+01 -0.89751853547E+01 -0.22528899728E+03  0.22563341219E+03  0.00000000000E+00 0.  1.
          3    1    3    3  501    0  0.12001111047E+02 -0.13547995247E+02 -0.28412075580E+03  0.28469664332E+03  0.00000000000E+00 0.  1.
         -1    1    1    2    0  502 -0.20646945242E+02  0.22523180601E+02 -0.48965390070E+03  0.49060629071E+03  0.00000000000E+00 0. -1.
<mgrwt>
<rscale>  1 0.30000000E+03</rscale>
<asrwt>0</asrwt>
<pdfrwt beam="1">  1       21 0.34049025E-02 0.30000000E+03</pdfrwt>
<pdfrwt beam="2">0</pdfrwt>
<totfact> 0.55098185E+04</totfact>
</mgrwt>
</event>
<event>
 6    1  0.1198667E-001  0.3000000E+03  0.7818608E-02  0.1093470E+00
         21   -1    0    0  501  502  0.00000000000E+00  0.00000000000E+00  0.93575378963E+00  0.93575378963E+00  0.00000000000E+00 0. -1.
         13   -1    0    0    0    0 -0.00000000000E+00 -0.00000000000E+00 -0.10000000000E+04  0.10000000000E+04  0.00000000000E+00 0.  1.
    9000005    2    1    2  501    0 -0.86599965193E+01 -0.29061656387E+02 -0.55008265965E+03  0.55093126439E+03  0.38406015814E+01 0.  0.
         13    1    3    3    0    0 -0.66701078664E+00 -0.77265021284E+01 -0.12963314380E+03  0.12986491331E+03  0.00000000000E+00 0.  1.
          3    1    3    3  501    0 -0.79929857327E+01 -0.21335154259E+02 -0.42044951585E+03  0.42106635108E+03  0.00000000000E+00 0.  1.
         -3    1    1    2    0  502  0.86599965193E+01  0.29061656387E+02 -0.44898158656E+03  0.45000448940E+03  0.00000000000E+00 0. -1.
<mgrwt>
<rscale>  1 0.30000000E+03</rscale>
<asrwt>0</asrwt>
<pdfrwt beam="1">  1       21 0.34027482E-02 0.30000000E+03</pdfrwt>
<pdfrwt beam="2">0</pdfrwt>
<totfact> 0.55156495E+04</totfact>
</mgrwt>
</event>
<event>
 6    1  0.1198667E-001  0.3000000E+03  0.7818608E-02  0.1093470E+00
         21   -1    0    0  501  502  0.00000000000E+00  0.00000000000E+00  0.19378404224E+01  0.19378404224E+01  0.00000000000E+00 0. -1.
         13   -1    0    0    0    0 -0.00000000000E+00 -0.00000000000E+00 -0.10000000000E+04  0.10000000000E+04  0.00000000000E+00 0.  1.
    9000005    2    1    2  501    0 -0.16892687607E+02  0.40568616223E+02 -0.48972819358E+03  0.49170789569E+03  0.34315561979E+01 0.  0.
         13    1    3    3    0    0 -0.15107431026E+02  0.33386089658E+02 -0.41428465406E+03  0.41590220010E+03  0.00000000000E+00 0.  1.
          1    1    3    3  501    0 -0.17852565807E+01  0.71825265656E+01 -0.75443539516E+02  0.75805695588E+02  0.00000000000E+00 0.  1.
         -1    1    1    2    0  502  0.16892687607E+02 -0.40568616223E+02 -0.50833396600E+03  0.51022994474E+03  0.00000000000E+00 0. -1.
<mgrwt>
<rscale>  1 0.30000000E+03</rscale>
<asrwt>0</asrwt>
<pdfrwt beam="1">  1       21 0.70467073E-02 0.30000000E+03</pdfrwt>
<pdfrwt beam="2">0</pdfrwt>
<totfact> 0.15949567E+04</totfact>
</mgrwt>
</event>
<event>
 6    1  0.1198667E-001  0.3000000E+03  0.7818608E-02  0.1093470E+00
         21   -1    0    0  501  502  0.00000000000E+00  0.00000000000E+00  0.19302417699E+01  0.19302417699E+01  0.00000000000E+00 0. -1.
         13   -1    0    0    0    0 -0.00000000000E+00 -0.00000000000E+00 -0.10000000000E+04  0.10000000000E+04  0.00000000000E+00 0.  1.
    9000005    2    1    2  501    0 -0.23050650237E+01  0.33412634163E+02 -0.17686049464E+03  0.18003829507E+03  0.35264260068E+01 0.  0.
         13    1    3    3    0    0  0.36626440204E+00  0.14449276551E+02 -0.70270847539E+02  0.71741952554E+02  0.00000000000E+00 0.  1.
          3    1    3    3  501    0 -0.26713294257E+01  0.18963357612E+02 -0.10658964710E+03  0.10829634251E+03  0.00000000000E+00 0.  1.
         -3    1    1    2    0  502  0.23050650237E+01 -0.33412634163E+02 -0.82120926359E+03  0.82189194670E+03  0.00000000000E+00 0. -1.
<mgrwt>
<rscale>  1 0.30000000E+03</rscale>
<asrwt>0</asrwt>
<pdfrwt beam="1">  1       21 0.70190758E-02 0.30000000E+03</pdfrwt>
<pdfrwt beam="2">0</pdfrwt>
<totfact> 0.16059040E+04</totfact>
</mgrwt>
</event>
<event>
 6    1  0.1198667E-001  0.3000000E+03  0.7818608E-02  0.1093470E+00
         21   -1    0    0  501  502  0.00000000000E+00  0.00000000000E+00  0.31632772325E+01  0.31632772325E+01  0.00000000000E+00 0. -1.
         13   -1    0    0    0    0 -0.00000000000E+00 -0.00000000000E+00 -0.10000000000E+04  0.10000000000E+04  0.00000000000E+00 0.  1.
    9000005    2    1    2  501    0  0.29873649396E+02  0.25848006113E+02 -0.85476100229E+03  0.85569780772E+03  0.64662785795E+01 0.  0.
         13    1    3    3    0    0  0.27118297691E+02  0.20893440518E+02 -0.70754563586E+03  0.70837332301E+03  0.00000000000E+00 0.  1.
          1    1    3    3  501    0  0.27553517059E+01  0.49545655953E+01 -0.14721536643E+03  0.14732448471E+03  0.00000000000E+00 0.  1.
         -1    1    1    2    0  502 -0.29873649396E+02 -0.25848006113E+02 -0.14207572048E+03  0.14746546951E+03  0.00000000000E+00 0. -1.
<mgrwt>
<rscale>  1 0.30000000E+03</rscale>
<asrwt>0</asrwt>
<pdfrwt beam="1">  1       21 0.11502851E-01 0.30000000E+03</pdfrwt>
<pdfrwt beam="2">0</pdfrwt>
<totfact> 0.66905572E+03</totfact>
</mgrwt>
</event>
<event>
 6    1  0.1198667E-001  0.3000000E+03  0.7818608E-02  0.1093470E+00
         21   -1    0    0  501  502  0.00000000000E+00  0.00000000000E+00  0.12886740366E+01  0.12886740366E+01  0.00000000000E+00 0. -1.
         13   -1    0    0    0    0 -0.00000000000E+00 -0.00000000000E+00 -0.10000000000E+04  0.10000000000E+04  0.00000000000E+00 0.  1.
    9000005    2    1    2  501    0 -0.12647129945E+02 -0.32706459171E+02 -0.42142819186E+03  0.42294147790E+03  0.69361704400E+01 0.  0.
         13    1    3    3    0    0 -0.10405799322E+02 -0.18168627488E+02 -0.23185021476E+03  0.23279368928E+03  0.00000000000E+00 0.  1.
          1    1    3    3  501    0 -0.22413306235E+01 -0.14537831683E+02 -0.18957797711E+03  0.19014778862E+03  0.00000000000E+00 0.  1.
         -1    1    1    2    0  502  0.12647129945E+02  0.32706459171E+02 -0.57728313410E+03  0.57834719614E+03  0.00000000000E+00 0. -1.
<mgrwt>
<rscale>  1 0.30000000E+03</rscale>
<asrwt>0</asrwt>
<pdfrwt beam="1">  1       21 0.46860973E-02 0.30000000E+03</pdfrwt>
<pdfrwt beam="2">0</pdfrwt>
<totfact> 0.32165929E+04</totfact>
</mgrwt>
</event>
<event>
 6    1  0.1198667E-001  0.3000000E+03  0.7818608E-02  0.1093470E+00
         21   -1    0    0  501  502  0.00000000000E+00  0.00000000000E+00  0.24997788187E+01  0.24997788187E+01  0.00000000000E+00 0. -1.
         13   -1    0    0    0    0 -0.00000000000E+00 -0.00000000000E+00 -0.10000000000E+04  0.10000000000E+04  0.00000000000E+00 0.  1.
    9000005    2    1    2  501    0  0.29990176427E+02  0.22573928283E+02 -0.82969385978E+03  0.83054639023E+03  0.25322811471E+01 0.  0.
         13    1    3    3    0    0  0.23788425196E+02  0.18929330709E+02 -0.68309782642E+03  0.68377397523E+03  0.00000000000E+00 0.  1.
          3    1    3    3  501    0  0.62017512317E+01  0.36445975745E+01 -0.14659603336E+03  0.14677241500E+03  0.00000000000E+00 0.  1.
         -1    1    1    2    0  502 -0.29990176427E+02 -0.22573928283E+02 -0.16780636140E+03  0.17195338859E+03  0.00000000000E+00 0. -1.
<mgrwt>
<rscale>  1 0.30000000E+03</rscale>
<asrwt>0</asrwt>
<pdfrwt beam="1">  1       21 0.90901240E-02 0.30000000E+03</pdfrwt>
<pdfrwt beam="2">0</pdfrwt>
<totfact> 0.10196412E+04</totfact>
</mgrwt>
</event>
<event>
 6    1  0.1198667E-001  0.3000000E+03  0.7818608E-02  0.1093470E+00
         21   -1    0    0  501  502  0.00000000000E+00  0.00000000000E+00  0.41919045850E+01  0.41919045850E+01  0.00000000000E+00 0. -1.
         13   -1    0    0    0    0 -0.00000000000E+00 -0.00000000000E+00 -0.10000000000E+04  0.10000000000E+04  0.00000000000E+00 0.  1.
    9000005    2    1    2  501    0 -0.56082021506E+02  0.30995831936E+02 -0.56811151450E+03  0.57172190556E+03  0.30511721580E+01 0.  0.
         13    1    3    3    0    0 -0.34928669969E+02  0.19040504362E+02 -0.36557230548E+03  0.36773042208E+03  0.00000000000E+00 0.  1.
          1    1    3    3  501    0 -0.21153351537E+02  0.11955327575E+02 -0.20253920902E+03  0.20399148348E+03  0.00000000000E+00 0.  1.
         -3    1    1    2    0  502  0.56082021506E+02 -0.30995831936E+02 -0.42769658091E+03  0.43246999903E+03  0.00000000000E+00 0. -1.
<mgrwt>
<rscale>  1 0.30000000E+03</rscale>
<asrwt>0</asrwt>
<pdfrwt beam="1">  1       21 0.15243322E-01 0.30000000E+03</pdfrwt>
<pdfrwt beam="2">0</pdfrwt>
<totfact> 0.39970794E+03</totfact>
</mgrwt>
</event>
<event>
 6    1  0.1198667E-001  0.3000000E+03  0.7818608E-02  0.1093470E+00
         21   -1    0    0  501  502  0.00000000000E+00  0.00000000000E+00  0.12445626615E+01  0.12445626615E+01  0.00000000000E+00 0. -1.
         13   -1    0    0    0    0 -0.00000000000E+00 -0.00000000000E+00 -0.10000000000E+04  0.10000000000E+04  0.00000000000E+00 0.  1.
    9000005    2    1    2  501    0 -0.29790764192E+02  0.16338519405E+02 -0.63132318306E+03  0.63224470043E+03  0.31564057258E+01 0.  0.
         13    1    3    3    0    0 -0.62439803216E+01  0.44290333261E+01 -0.16095721428E+03  0.16113915866E+03  0.00000000000E+00 0.  1.
          1    1    3    3  501    0 -0.23546783870E+02  0.11909486079E+02 -0.47036596879E+03  0.47110554176E+03  0.00000000000E+00 0.  1.
         -1    1    1    2    0  502  0.29790764192E+02 -0.16338519405E+02 -0.36743225427E+03  0.36899986223E+03  0.00000000000E+00 0. -1.
<mgrwt>
<rscale>  1 0.30000000E+03</rscale>
<asrwt>0</asrwt>
<pdfrwt beam="1">  1       21 0.45256919E-02 0.30000000E+03</pdfrwt>
<pdfrwt beam="2">0</pdfrwt>
<totfact> 0.34126828E+04</totfact>
</mgrwt>
</event>
<event>
 6    1  0.1198667E-001  0.3000000E+03  0.7818608E-02  0.1093470E+00
         21   -1    0    0  501  502  0.00000000000E+00  0.00000000000E+00  0.31028377706E+01  0.31028377706E+01  0.00000000000E+00 0. -1.
         13   -1    0    0    0    0 -0.00000000000E+00 -0.00000000000E+00 -0.10000000000E+04  0.10000000000E+04  0.00000000000E+00 0.  1.
    9000005    2    1    2  501    0  0.12610951466E+02  0.46529190067E+02 -0.74719406641E+03  0.74878878451E+03  0.78529804112E+01 0.  0.
         13    1    3    3    0    0  0.85807926763E+01  0.39878153717E+02 -0.59542075641E+03  0.59681636565E+03  0.00000000000E+00 0.  1.
          1    1    3    3  501    0  0.40301587896E+01  0.66510363501E+01 -0.15177331000E+03  0.15197241886E+03  0.00000000000E+00 0.  1.
         -1    1    1    2    0  502 -0.12610951466E+02 -0.46529190067E+02 -0.24970309582E+03  0.25431405327E+03  0.00000000000E+00 0. -1.
<mgrwt>
<rscale>  1 0.30000000E+03</rscale>
<asrwt>0</asrwt>
<pdfrwt beam="1">  1       21 0.11283070E-01 0.30000000E+03</pdfrwt>
<pdfrwt beam="2">0</pdfrwt>
<totfact> 0.69276215E+03</totfact>
</mgrwt>
</event>
<event>
 6    1  0.1198667E-001  0.3000000E+03  0.7818608E-02  0.1093470E+00
         21   -1    0    0  501  502  0.00000000000E+00  0.00000000000E+00  0.13225038600E+01  0.13225038600E+01  0.00000000000E+00 0. -1.
         13   -1    0    0    0    0 -0.00000000000E+00 -0.00000000000E+00 -0.10000000000E+04  0.10000000000E+04  0.00000000000E+00 0.  1.
    9000005    2    1    2  501    0  0.21159541027E+02  0.25427031429E+02 -0.70586028913E+03  0.70664271693E+03  0.33047717171E+01 0.  0.
         13    1    3    3    0    0  0.15284181956E+01  0.33152880720E+01 -0.69421789508E+02  0.69517710374E+02  0.00000000000E+00 0.  1.
          3    1    3    3  501    0  0.19631122832E+02  0.22111743357E+02 -0.63643849962E+03  0.63712500656E+03  0.00000000000E+00 0.  1.
         -1    1    1    2    0  502 -0.21159541027E+02 -0.25427031429E+02 -0.29281720701E+03  0.29467978693E+03  0.00000000000E+00 0. -1.
<mgrwt>
<rscale>  1 0.30000000E+03</rscale>
<asrwt>0</asrwt>
<pdfrwt beam="1">  1       21 0.48091151E-02 0.30000000E+03</pdfrwt>
<pdfrwt beam="2">0</pdfrwt>
<totfact> 0.30779015E+04</totfact>
</mgrwt>
</event>
<event>
 6    1  0.1198667E-001  0.3000000E+03  0.7818608E-02  0.1093470E+00
         21   -1    0    0  501  502  0.00000000000E+00  0.00000000000E+00  0.15108952922E+01  0.15108952922E+01  0.00000000000E+00 0. -1.
         13   -1    0    0    0    0 -0.00000000000E+00 -0.00000000000E+00 -0.10000000000E+04  0.10000000000E+04  0.00000000000E+00 0.  1.
    9000005    2    1    2  501    0 -0.26036127513E+02 -0.26055223175E+02 -0.34720435281E+03  0.34918537637E+03  0.47759674988E+01 0.  0.
         13    1    3    3    0    0 -0.22387988168E+02 -0.22157789942E+02 -0.31072218325E+03  0.31231468878E+03  0.00000000000E+00 0.  1.
          3    1    3    3  501    0 -0.36481393451E+01 -0.38974332324E+01 -0.36482169569E+02  0.36870687584E+02  0.00000000000E+00 0.  1.
         -1    1    1    2    0  502  0.26036127513E+02  0.26055223175E+02 -0.65128475189E+03  0.65232551892E+03  0.00000000000E+00 0. -1.
<mgrwt>
<rscale>  1 0.30000000E+03</rscale>
<asrwt>0</asrwt>
<pdfrwt beam="1">  1       21 0.54941763E-02 0.30000000E+03</pdfrwt>
<pdfrwt beam="2">0</pdfrwt>
<totfact> 0.24518647E+04</totfact>
</mgrwt>
</event>
<event>
 6    1  0.1198667E-001  0.3000000E+03  0.7818608E-02  0.1093470E+00
         21   -1    0    0  501  502  0.00000000000E+00  0.00000000000E+00  0.71006550340E+01  0.71006550340E+01  0.00000000000E+00 0. -1.
         13   -1    0    0    0    0 -0.00000000000E+00 -0.00000000000E+00 -0.10000000000E+04  0.10000000000E+04  0.00000000000E+00 0.  1.
    9000005    2    1    2  501    0 -0.45231197699E+02  0.27170594609E+02 -0.88900971091E+03  0.89057959032E+03  0.31045376331E+01 0.  0.
         13    1    3    3    0    0 -0.27681495770E+02  0.15448890597E+02 -0.55267083338E+03  0.55357924772E+03  0.00000000000E+00 0.  1.
          1    1    3    3  501    0 -0.17549701929E+02  0.11721704012E+02 -0.33633887752E+03  0.33700034261E+03  0.00000000000E+00 0.  1.
         -3    1    1    2    0  502  0.45231197699E+02 -0.27170594609E+02 -0.10388963406E+03  0.11652106471E+03  0.00000000000E+00 0. -1.
<mgrwt>
<rscale>  1 0.30000000E+03</rscale>
<asrwt>0</asrwt>
<pdfrwt beam="1">  1       21 0.25820618E-01 0.30000000E+03</pdfrwt>
<pdfrwt beam="2">0</pdfrwt>
<totfact> 0.14638194E+03</totfact>
</mgrwt>
</event>
<event>
 6    1  0.1198667E-001  0.3000000E+03  0.7818608E-02  0.1093470E+00
         21   -1    0    0  501  502  0.00000000000E+00  0.00000000000E+00  0.10202108440E+01  0.10202108440E+01  0.00000000000E+00 0. -1.
         13   -1    0    0    0    0 -0.00000000000E+00 -0.00000000000E+00 -0.10000000000E+04  0.10000000000E+04  0.00000000000E+00 0.  1.
    9000005    2    1    2  501    0 -0.71136139347E+01 -0.29694246103E+02 -0.63265552297E+03  0.63342557031E+03  0.65261489011E+01 0.  0.
         13    1    3    3    0    0 -0.42800958717E+01 -0.67099387596E+01 -0.13999113159E+03  0.14021718661E+03  0.00000000000E+00 0.  1.
          1    1    3    3  501    0 -0.28335180630E+01 -0.22984307343E+02 -0.49266439138E+03  0.49320838369E+03  0.00000000000E+00 0.  1.
         -3    1    1    2    0  502  0.71136139347E+01  0.29694246103E+02 -0.36632426619E+03  0.36759464054E+03  0.00000000000E+00 0. -1.
<mgrwt>
<rscale>  1 0.30000000E+03</rscale>
<asrwt>0</asrwt>
<pdfrwt beam="1">  1       21 0.37098654E-02 0.30000000E+03</pdfrwt>
<pdfrwt beam="2">0</pdfrwt>
<totfact> 0.47721665E+04</totfact>
</mgrwt>
</event>
<event>
 6    1  0.1198667E-001  0.3000000E+03  0.7818608E-02  0.1093470E+00
         21   -1    0    0  501  502  0.00000000000E+00  0.00000000000E+00  0.17874761217E+01  0.17874761217E+01  0.00000000000E+00 0. -1.
         13   -1    0    0    0    0 -0.00000000000E+00 -0.00000000000E+00 -0.10000000000E+04  0.10000000000E+04  0.00000000000E+00 0.  1.
    9000005    2    1    2  501    0  0.16937666262E+02  0.28489771493E+02 -0.80963509318E+03  0.81031946577E+03  0.31781887570E+01 0.  0.
         13    1    3    3    0    0  0.10968710619E+02  0.15682989954E+02 -0.44900178627E+03  0.44940947126E+03  0.00000000000E+00 0.  1.
          1    1    3    3  501    0  0.59689556424E+01  0.12806781539E+02 -0.36063330691E+03  0.36090999451E+03  0.00000000000E+00 0.  1.
         -3    1    1    2    0  502 -0.16937666262E+02 -0.28489771493E+02 -0.18857743070E+03  0.19146801035E+03  0.00000000000E+00 0. -1.
<mgrwt>
<rscale>  1 0.30000000E+03</rscale>
<asrwt>0</asrwt>
<pdfrwt beam="1">  1       21 0.64999269E-02 0.30000000E+03</pdfrwt>
<pdfrwt beam="2">0</pdfrwt>
<totfact> 0.18350403E+04</totfact>
</mgrwt>
</event>
<event>
 6    1  0.1198667E-001  0.3000000E+03  0.7818608E-02  0.1093470E+00
         21   -1    0    0  501  502  0.00000000000E+00  0.00000000000E+00  0.99920957109E+00  0.99920957109E+00  0.00000000000E+00 0. -1.
         13   -1    0    0    0    0 -0.00000000000E+00 -0.00000000000E+00 -0.10000000000E+04  0.10000000000E+04  0.00000000000E+00 0.  1.
    9000005    2    1    2  501    0  0.14626570522E+02  0.26463862660E+02 -0.64280356933E+03  0.64352091245E+03  0.29091971974E+01 0.  0.
         13    1    3    3    0    0  0.13109411933E+01  0.18787695833E+01 -0.35276259447E+02  0.35350570328E+02  0.00000000000E+00 0.  1.
          3    1    3    3  501    0  0.13315629328E+02  0.24585093077E+02 -0.60752730988E+03  0.60817034213E+03  0.00000000000E+00 0.  1.
         -1    1    1    2    0  502 -0.14626570522E+02 -0.26463862660E+02 -0.35619722110E+03  0.35747829712E+03  0.00000000000E+00 0. -1.
<mgrwt>
<rscale>  1 0.30000000E+03</rscale>
<asrwt>0</asrwt>
<pdfrwt beam="1">  1       21 0.36334970E-02 0.30000000E+03</pdfrwt>
<pdfrwt beam="2">0</pdfrwt>
<totfact> 0.49416696E+04</totfact>
</mgrwt>
</event>
<event>
 6    1  0.1198667E-001  0.3000000E+03  0.7818608E-02  0.1093470E+00
         21   -1    0    0  501  502  0.00000000000E+00  0.00000000000E+00  0.19084433713E+01  0.19084433713E+01  0.00000000000E+00 0. -1.
         13   -1    0    0    0    0 -0.00000000000E+00 -0.00000000000E+00 -0.10000000000E+04  0.10000000000E+04  0.00000000000E+00 0.  1.
    9000005    2    1    2  501    0 -0.91134482035E+00  0.37570815988E+02 -0.75343084816E+03  0.75437812395E+03  0.39892574584E+01 0.  0.
         13    1    3    3    0    0  0.13465635769E+01  0.64932382173E+01 -0.12920044429E+03  0.12937051511E+03  0.00000000000E+00 0.  1.
          1    1    3    3  501    0 -0.22579083972E+01  0.31077577771E+02 -0.62423040387E+03  0.62500760884E+03  0.00000000000E+00 0.  1.
         -3    1    1    2    0  502  0.91134482035E+00 -0.37570815988E+02 -0.24466070847E+03  0.24753031942E+03  0.00000000000E+00 0. -1.
<mgrwt>
<rscale>  1 0.30000000E+03</rscale>
<asrwt>0</asrwt>
<pdfrwt beam="1">  1       21 0.69398087E-02 0.30000000E+03</pdfrwt>
<pdfrwt beam="2">0</pdfrwt>
<totfact> 0.16379537E+04</totfact>
</mgrwt>
</event>
<event>
 6    1  0.1198667E-001  0.3000000E+03  0.7818608E-02  0.1093470E+00
         21   -1    0    0  501  502  0.00000000000E+00  0.00000000000E+00  0.18712109821E+01  0.18712109821E+01  0.00000000000E+00 0. -1.
         13   -1    0    0    0    0 -0.00000000000E+00 -0.00000000000E+00 -0.10000000000E+04  0.10000000000E+04  0.00000000000E+00 0.  1.
    9000005    2    1    2  501    0  0.50017132469E+01  0.34836072487E+02 -0.78996583566E+03  0.79075421916E+03  0.27648763515E+01 0.  0.
         13    1    3    3    0    0  0.15425708307E+01  0.15268446698E+02 -0.37159967481E+03  0.37191641979E+03  0.00000000000E+00 0.  1.
          3    1    3    3  501    0  0.34591424162E+01  0.19567625790E+02 -0.41836616085E+03  0.41883779938E+03  0.00000000000E+00 0.  1.
         -1    1    1    2    0  502 -0.50017132469E+01 -0.34836072487E+02 -0.20816295336E+03  0.21111699182E+03  0.00000000000E+00 0. -1.
<mgrwt>
<rscale>  1 0.30000000E+03</rscale>
<asrwt>0</asrwt>
<pdfrwt beam="1">  1       21 0.68044179E-02 0.30000000E+03</pdfrwt>
<pdfrwt beam="2">0</pdfrwt>
<totfact> 0.16950068E+04</totfact>
</mgrwt>
</event>
<event>
 6    1  0.1198667E-001  0.3000000E+03  0.7818608E-02  0.1093470E+00
         21   -1    0    0  501  502  0.00000000000E+00  0.00000000000E+00  0.14995128326E+01  0.14995128326E+01  0.00000000000E+00 0. -1.
         13   -1    0    0    0    0 -0.00000000000E+00 -0.00000000000E+00 -0.10000000000E+04  0.10000000000E+04  0.00000000000E+00 0.  1.
    9000005    2    1    2  501    0  0.25628273778E+02 -0.22011508730E+02 -0.74279117258E+03  0.74356818767E+03  0.36889996543E+01 0.  0.
         13    1    3    3    0    0  0.19947807372E+01 -0.78954807900E+00 -0.60571801264E+02  0.60609781757E+02  0.00000000000E+00 0.  1.
          1    1    3    3  501    0  0.23633493041E+02 -0.21221960651E+02 -0.68221937131E+03  0.68295840591E+03  0.00000000000E+00 0.  1.
         -1    1    1    2    0  502 -0.25628273778E+02  0.22011508730E+02 -0.25570931459E+03  0.25793132517E+03  0.00000000000E+00 0. -1.
<mgrwt>
<rscale>  1 0.30000000E+03</rscale>
<asrwt>0</asrwt>
<pdfrwt beam="1">  1       21 0.54527854E-02 0.30000000E+03</pdfrwt>
<pdfrwt beam="2">0</pdfrwt>
<totfact> 0.24838525E+04</totfact>
</mgrwt>
</event>
<event>
 6    1  0.1198667E-001  0.3000000E+03  0.7818608E-02  0.1093470E+00
         21   -1    0    0  501  502  0.00000000000E+00  0.00000000000E+00  0.19555413553E+02  0.19555413553E+02  0.00000000000E+00 0. -1.
         13   -1    0    0    0    0 -0.00000000000E+00 -0.00000000000E+00 -0.10000000000E+04  0.10000000000E+04  0.00000000000E+00 0.  1.
    9000005    2    1    2  501    0 -0.15688423622E+02  0.89609270612E+02 -0.87735083151E+03  0.88206261257E+03  0.37447194373E+01 0.  0.
         13    1    3    3    0    0 -0.12479745461E+02  0.78497626130E+02 -0.76645639080E+03  0.77056668780E+03  0.00000000000E+00 0.  1.
          3    1    3    3  501    0 -0.32086781609E+01  0.11111644482E+02 -0.11089444071E+03  0.11149592477E+03  0.00000000000E+00 0.  1.
         -1    1    1    2    0  502  0.15688423622E+02 -0.89609270612E+02 -0.10309375494E+03  0.13749280098E+03  0.00000000000E+00 0. -1.
<mgrwt>
<rscale>  1 0.30000000E+03</rscale>
<asrwt>0</asrwt>
<pdfrwt beam="1">  1       21 0.71110745E-01 0.30000000E+03</pdfrwt>
<pdfrwt beam="2">0</pdfrwt>
<totfact> 0.17004602E+02</totfact>
</mgrwt>
</event>
<event>
 6    1  0.1198667E-001  0.3000000E+03  0.7818608E-02  0.1093470E+00
         21   -1    0    0  501  502  0.00000000000E+00  0.00000000000E+00  0.49263988963E+01  0.49263988963E+01  0.00000000000E+00 0. -1.
         13   -1    0    0    0    0 -0.00000000000E+00 -0.00000000000E+00 -0.10000000000E+04  0.10000000000E+04  0.00000000000E+00 0.  1.
    9000005    2    1    2  501    0 -0.30164309988E+02  0.12115936787E+02 -0.94282981522E+03  0.94339514924E+03  0.31089568339E+01 0.  0.
         13    1    3    3    0    0 -0.20296997736E+02  0.74606757717E+01 -0.66367029042E+03  0.66402250278E+03  0.00000000000E+00 0.  1.
          1    1    3    3  501    0 -0.98673122526E+01  0.46552610156E+01 -0.27915952480E+03  0.27937264646E+03  0.00000000000E+00 0.  1.
         -3    1    1    2    0  502  0.30164309988E+02 -0.12115936787E+02 -0.52243785883E+02  0.61531249660E+02  0.00000000000E+00 0. -1.
<mgrwt>
<rscale>  1 0.30000000E+03</rscale>
<asrwt>0</asrwt>
<pdfrwt beam="1">  1       21 0.17914216E-01 0.30000000E+03</pdfrwt>
<pdfrwt beam="2">0</pdfrwt>
<totfact> 0.29560228E+03</totfact>
</mgrwt>
</event>
<event>
 6    1  0.1198667E-001  0.3000000E+03  0.7818608E-02  0.1093470E+00
         21   -1    0    0  501  502  0.00000000000E+00  0.00000000000E+00  0.16379701956E+01  0.16379701956E+01  0.00000000000E+00 0. -1.
         13   -1    0    0    0    0 -0.00000000000E+00 -0.00000000000E+00 -0.10000000000E+04  0.10000000000E+04  0.00000000000E+00 0.  1.
    9000005    2    1    2  501    0  0.37176554387E+02  0.11201712951E+02 -0.63577096647E+03  0.63697394156E+03  0.48482836174E+01 0.  0.
         13    1    3    3    0    0  0.27887635217E+02  0.99585132299E+01 -0.45827555879E+03  0.45923129246E+03  0.00000000000E+00 0.  1.
          1    1    3    3  501    0  0.92889191692E+01  0.12431997210E+01 -0.17749540768E+03  0.17774264911E+03  0.00000000000E+00 0.  1.
         -1    1    1    2    0  502 -0.37176554387E+02 -0.11201712951E+02 -0.36259106333E+03  0.36466402863E+03  0.00000000000E+00 0. -1.
<mgrwt>
<rscale>  1 0.30000000E+03</rscale>
<asrwt>0</asrwt>
<pdfrwt beam="1">  1       21 0.59562678E-02 0.30000000E+03</pdfrwt>
<pdfrwt beam="2">0</pdfrwt>
<totfact> 0.21339160E+04</totfact>
</mgrwt>
</event>
<event>
 6    1  0.1198667E-001  0.3000000E+03  0.7818608E-02  0.1093470E+00
         21   -1    0    0  501  502  0.00000000000E+00  0.00000000000E+00  0.22728505858E+01  0.22728505858E+01  0.00000000000E+00 0. -1.
         13   -1    0    0    0    0 -0.00000000000E+00 -0.00000000000E+00 -0.10000000000E+04  0.10000000000E+04  0.00000000000E+00 0.  1.
    9000005    2    1    2  501    0  0.11588547805E+02  0.31710456430E+02 -0.14593133378E+03  0.14980821260E+03  0.25882225436E+01 0.  0.
         13    1    3    3    0    0  0.62230081876E+01  0.20652790567E+02 -0.93063603458E+02  0.95530612255E+02  0.00000000000E+00 0.  1.
          1    1    3    3  501    0  0.53655396169E+01  0.11057665863E+02 -0.52867730327E+02  0.54277600349E+02  0.00000000000E+00 0.  1.
         -3    1    1    2    0  502 -0.11588547805E+02 -0.31710456430E+02 -0.85179581563E+03  0.85246463798E+03  0.00000000000E+00 0. -1.
<mgrwt>
<rscale>  1 0.30000000E+03</rscale>
<asrwt>0</asrwt>
<pdfrwt beam="1">  1       21 0.82649286E-02 0.30000000E+03</pdfrwt>
<pdfrwt beam="2">0</pdfrwt>
<totfact> 0.12062739E+04</totfact>
</mgrwt>
</event>
<event>
 6    1  0.1198667E-001  0.3000000E+03  0.7818608E-02  0.1093470E+00
         21   -1    0    0  501  502  0.00000000000E+00  0.00000000000E+00  0.91884427833E+00  0.91884427833E+00  0.00000000000E+00 0. -1.
         13   -1    0    0    0    0 -0.00000000000E+00 -0.00000000000E+00 -0.10000000000E+04  0.10000000000E+04  0.00000000000E+00 0.  1.
    9000005    2    1    2  501    0  0.26336503353E+02 -0.14405999440E+02 -0.56178776401E+03  0.56259629790E+03  0.28210620080E+01 0.  0.
         13    1    3    3    0    0  0.12418004589E+02 -0.53019432592E+01 -0.26123109087E+03  0.26157981626E+03  0.00000000000E+00 0.  1.
          1    1    3    3  501    0  0.13918498765E+02 -0.91040561807E+01 -0.30055667314E+03  0.30101648164E+03  0.00000000000E+00 0.  1.
         -3    1    1    2    0  502 -0.26336503353E+02  0.14405999440E+02 -0.43729339171E+03  0.43832254638E+03  0.00000000000E+00 0. -1.
<mgrwt>
<rscale>  1 0.30000000E+03</rscale>
<asrwt>0</asrwt>
<pdfrwt beam="1">  1       21 0.33412590E-02 0.30000000E+03</pdfrwt>
<pdfrwt beam="2">0</pdfrwt>
<totfact> 0.56862278E+04</totfact>
</mgrwt>
</event>
<event>
 6    1  0.1198667E-001  0.3000000E+03  0.7818608E-02  0.1093470E+00
         21   -1    0    0  501  502  0.00000000000E+00  0.00000000000E+00  0.20932351323E+01  0.20932351323E+01  0.00000000000E+00 0. -1.
         13   -1    0    0    0    0 -0.00000000000E+00 -0.00000000000E+00 -0.10000000000E+04  0.10000000000E+04  0.00000000000E+00 0.  1.
    9000005    2    1    2  501    0  0.68972861528E+01  0.29425611817E+02 -0.87492830341E+03  0.87545540046E+03  0.30303309696E+01 0.  0.
         13    1    3    3    0    0  0.13017588248E+01  0.56857009384E+01 -0.13696424960E+03  0.13708839279E+03  0.00000000000E+00 0.  1.
          3    1    3    3  501    0  0.55955273279E+01  0.23739910879E+02 -0.73796405381E+03  0.73836700767E+03  0.00000000000E+00 0.  1.
         -3    1    1    2    0  502 -0.68972861528E+01 -0.29425611817E+02 -0.12297846146E+03  0.12663783467E+03  0.00000000000E+00 0. -1.
<mgrwt>
<rscale>  1 0.30000000E+03</rscale>
<asrwt>0</asrwt>
<pdfrwt beam="1">  1       21 0.76117802E-02 0.30000000E+03</pdfrwt>
<pdfrwt beam="2">0</pdfrwt>
<totfact> 0.13938584E+04</totfact>
</mgrwt>
</event>
<event>
 6    1  0.1198667E-001  0.3000000E+03  0.7818608E-02  0.1093470E+00
         21   -1    0    0  501  502  0.00000000000E+00  0.00000000000E+00  0.60212162428E+01  0.60212162428E+01  0.00000000000E+00 0. -1.
         13   -1    0    0    0    0 -0.00000000000E+00 -0.00000000000E+00 -0.10000000000E+04  0.10000000000E+04  0.00000000000E+00 0.  1.
    9000005    2    1    2  501    0 -0.33527694044E+02  0.10202906963E+02 -0.94574260445E+03  0.94639794417E+03  0.34335523457E+01 0.  0.
         13    1    3    3    0    0 -0.31855962249E+02  0.10429361583E+02 -0.89628247787E+03  0.89690905562E+03  0.00000000000E+00 0.  1.
          1    1    3    3  501    0 -0.16717317943E+01 -0.22645462033E+00 -0.49460126578E+02  0.49488888551E+02  0.00000000000E+00 0.  1.
         -1    1    1    2    0  502  0.33527694044E+02 -0.10202906963E+02 -0.48236179310E+02  0.59623272074E+02  0.00000000000E+00 0. -1.
<mgrwt>
<rscale>  1 0.30000000E+03</rscale>
<asrwt>0</asrwt>
<pdfrwt beam="1">  1       21 0.21895378E-01 0.30000000E+03</pdfrwt>
<pdfrwt beam="2">0</pdfrwt>
<totfact> 0.20170164E+03</totfact>
</mgrwt>
</event>
<event>
 6    1  0.1198667E-001  0.3000000E+03  0.7818608E-02  0.1093470E+00
         21   -1    0    0  501  502  0.00000000000E+00  0.00000000000E+00  0.99467965158E+00  0.99467965158E+00  0.00000000000E+00 0. -1.
         13   -1    0    0    0    0 -0.00000000000E+00 -0.00000000000E+00 -0.10000000000E+04  0.10000000000E+04  0.00000000000E+00 0.  1.
    9000005    2    1    2  501    0  0.21449520173E+02 -0.21609546495E+02 -0.61506455179E+03  0.61584851496E+03  0.61592284006E+01 0.  0.
         13    1    3    3    0    0  0.18468492722E+02 -0.17615260508E+02 -0.55079679309E+03  0.55138778541E+03  0.00000000000E+00 0.  1.
          3    1    3    3  501    0  0.29810274502E+01 -0.39942859876E+01 -0.64267758701E+02  0.64460729546E+02  0.00000000000E+00 0.  1.
         -1    1    1    2    0  502 -0.21449520173E+02  0.21609546495E+02 -0.38394076856E+03  0.38514616469E+03  0.00000000000E+00 0. -1.
<mgrwt>
<rscale>  1 0.30000000E+03</rscale>
<asrwt>0</asrwt>
<pdfrwt beam="1">  1       21 0.36170245E-02 0.30000000E+03</pdfrwt>
<pdfrwt beam="2">0</pdfrwt>
<totfact> 0.49794760E+04</totfact>
</mgrwt>
</event>
<event>
 6    1  0.1198667E-001  0.3000000E+03  0.7818608E-02  0.1093470E+00
         21   -1    0    0  501  502  0.00000000000E+00  0.00000000000E+00  0.14983063934E+01  0.14983063934E+01  0.00000000000E+00 0. -1.
         13   -1    0    0    0    0 -0.00000000000E+00 -0.00000000000E+00 -0.10000000000E+04  0.10000000000E+04  0.00000000000E+00 0.  1.
    9000005    2    1    2  501    0  0.15186878010E+02  0.31083766383E+02 -0.72300097953E+03  0.72383396721E+03  0.28903100889E+01 0.  0.
         13    1    3    3    0    0  0.14461051955E+02  0.30525086415E+02 -0.69924162023E+03  0.70005695939E+03  0.00000000000E+00 0.  1.
          3    1    3    3  501    0  0.72582605513E+00  0.55867996856E+00 -0.23759359294E+02  0.23777007819E+02  0.00000000000E+00 0.  1.
         -1    1    1    2    0  502 -0.15186878010E+02 -0.31083766383E+02 -0.27550071408E+03  0.27766433918E+03  0.00000000000E+00 0. -1.
<mgrwt>
<rscale>  1 0.30000000E+03</rscale>
<asrwt>0</asrwt>
<pdfrwt beam="1">  1       21 0.54483984E-02 0.30000000E+03</pdfrwt>
<pdfrwt beam="2">0</pdfrwt>
<totfact> 0.24872806E+04</totfact>
</mgrwt>
</event>
<event>
 6    1  0.1198667E-001  0.3000000E+03  0.7818608E-02  0.1093470E+00
         21   -1    0    0  501  502  0.00000000000E+00  0.00000000000E+00  0.13682411580E+01  0.13682411580E+01  0.00000000000E+00 0. -1.
         13   -1    0    0    0    0 -0.00000000000E+00 -0.00000000000E+00 -0.10000000000E+04  0.10000000000E+04  0.00000000000E+00 0.  1.
    9000005    2    1    2  501    0  0.89616830091E+01 -0.31334703228E+02 -0.73456598760E+03  0.73529887627E+03  0.38822571311E+01 0.  0.
         13    1    3    3    0    0  0.20304086706E+01 -0.38369644093E+01 -0.77898757461E+02  0.78019621053E+02  0.00000000000E+00 0.  1.
          3    1    3    3  501    0  0.69312743385E+01 -0.27497738819E+02 -0.65666723014E+03  0.65727925522E+03  0.00000000000E+00 0.  1.
         -1    1    1    2    0  502 -0.89616830091E+01  0.31334703228E+02 -0.26406577124E+03  0.26606936488E+03  0.00000000000E+00 0. -1.
<mgrwt>
<rscale>  1 0.30000000E+03</rscale>
<asrwt>0</asrwt>
<pdfrwt beam="1">  1       21 0.49754329E-02 0.30000000E+03</pdfrwt>
<pdfrwt beam="2">0</pdfrwt>
<totfact> 0.29047508E+04</totfact>
</mgrwt>
</event>
<event>
 6    1  0.1198667E-001  0.3000000E+03  0.7818608E-02  0.1093470E+00
         21   -1    0    0  501  502  0.00000000000E+00  0.00000000000E+00  0.96342462541E+01  0.96342462541E+01  0.00000000000E+00 0. -1.
         13   -1    0    0    0    0 -0.00000000000E+00 -0.00000000000E+00 -0.10000000000E+04  0.10000000000E+04  0.00000000000E+00 0.  1.
    9000005    2    1    2  501    0 -0.57481941523E+01  0.40952140000E+02 -0.95299482606E+03  0.95389641581E+03  0.30189547735E+01 0.  0.
         13    1    3    3    0    0 -0.42685333170E+00  0.10601817727E+02 -0.26282910833E+03  0.26304319213E+03  0.00000000000E+00 0.  1.
          3    1    3    3  501    0 -0.53213408206E+01  0.30350322273E+02 -0.69016571773E+03  0.69085322368E+03  0.00000000000E+00 0.  1.
         -3    1    1    2    0  502  0.57481941523E+01 -0.40952140000E+02 -0.37370927682E+02  0.55737830442E+02  0.00000000000E+00 0. -1.
<mgrwt>
<rscale>  1 0.30000000E+03</rscale>
<asrwt>0</asrwt>
<pdfrwt beam="1">  1       21 0.35033697E-01 0.30000000E+03</pdfrwt>
<pdfrwt beam="2">0</pdfrwt>
<totfact> 0.79422943E+02</totfact>
</mgrwt>
</event>
<event>
 6    1  0.1198667E-001  0.3000000E+03  0.7818608E-02  0.1093470E+00
         21   -1    0    0  501  502  0.00000000000E+00  0.00000000000E+00  0.15515403815E+01  0.15515403815E+01  0.00000000000E+00 0. -1.
         13   -1    0    0    0    0 -0.00000000000E+00 -0.00000000000E+00 -0.10000000000E+04  0.10000000000E+04  0.00000000000E+00 0.  1.
    9000005    2    1    2  501    0  0.22350308396E+02 -0.31784668747E+02 -0.42467885532E+03  0.42646775495E+03  0.35797207974E+01 0.  0.
         13    1    3    3    0    0  0.25293172449E+01 -0.56772360164E+01 -0.73631568327E+02  0.73893411809E+02  0.00000000000E+00 0.  1.
          3    1    3    3  501    0  0.19820991151E+02 -0.26107432730E+02 -0.35104728700E+03  0.35257434314E+03  0.00000000000E+00 0.  1.
         -1    1    1    2    0  502 -0.22350308396E+02  0.31784668747E+02 -0.57376960429E+03  0.57508378543E+03  0.00000000000E+00 0. -1.
<mgrwt>
<rscale>  1 0.30000000E+03</rscale>
<asrwt>0</asrwt>
<pdfrwt beam="1">  1       21 0.56419769E-02 0.30000000E+03</pdfrwt>
<pdfrwt beam="2">0</pdfrwt>
<totfact> 0.23426643E+04</totfact>
</mgrwt>
</event>
<event>
 6    1  0.1198667E-001  0.3000000E+03  0.7818608E-02  0.1093470E+00
         21   -1    0    0  501  502  0.00000000000E+00  0.00000000000E+00  0.14359782588E+01  0.14359782588E+01  0.00000000000E+00 0. -1.
         13   -1    0    0    0    0 -0.00000000000E+00 -0.00000000000E+00 -0.10000000000E+04  0.10000000000E+04  0.00000000000E+00 0.  1.
    9000005    2    1    2  501    0 -0.80522189198E+01  0.33862640673E+02 -0.69548180132E+03  0.69636164470E+03  0.36176753024E+01 0.  0.
         13    1    3    3    0    0 -0.51579918672E+01  0.15910071202E+02 -0.30908942643E+03  0.30954161073E+03  0.00000000000E+00 0.  1.
          1    1    3    3  501    0 -0.28942270527E+01  0.17952569471E+02 -0.38639237489E+03  0.38682003397E+03  0.00000000000E+00 0.  1.
         -3    1    1    2    0  502  0.80522189198E+01 -0.33862640673E+02 -0.30308222042E+03  0.30507433356E+03  0.00000000000E+00 0. -1.
<mgrwt>
<rscale>  1 0.30000000E+03</rscale>
<asrwt>0</asrwt>
<pdfrwt beam="1">  1       21 0.52217501E-02 0.30000000E+03</pdfrwt>
<pdfrwt beam="2">0</pdfrwt>
<totfact> 0.26748446E+04</totfact>
</mgrwt>
</event>
<event>
 6    1  0.1198667E-001  0.3000000E+03  0.7818608E-02  0.1093470E+00
         21   -1    0    0  501  502  0.00000000000E+00  0.00000000000E+00  0.17945222420E+01  0.17945222420E+01  0.00000000000E+00 0. -1.
         13   -1    0    0    0    0 -0.00000000000E+00 -0.00000000000E+00 -0.10000000000E+04  0.10000000000E+04  0.00000000000E+00 0.  1.
    9000005    2    1    2  501    0 -0.23896535662E+02  0.28845976366E+02 -0.73206896650E+03  0.73303482029E+03  0.34556149715E+01 0.  0.
         13    1    3    3    0    0 -0.15425542775E+01  0.87488182292E+00 -0.28204109341E+02  0.28259806716E+02  0.00000000000E+00 0.  1.
          1    1    3    3  501    0 -0.22353981384E+02  0.27971094543E+02 -0.70386485716E+03  0.70477501358E+03  0.00000000000E+00 0.  1.
         -1    1    1    2    0  502  0.23896535662E+02 -0.28845976366E+02 -0.26613651126E+03  0.26875970195E+03  0.00000000000E+00 0. -1.
<mgrwt>
<rscale>  1 0.30000000E+03</rscale>
<asrwt>0</asrwt>
<pdfrwt beam="1">  1       21 0.65255492E-02 0.30000000E+03</pdfrwt>
<pdfrwt beam="2">0</pdfrwt>
<totfact> 0.18225817E+04</totfact>
</mgrwt>
</event>
<event>
 6    1  0.1198667E-001  0.3000000E+03  0.7818608E-02  0.1093470E+00
         21   -1    0    0  501  502  0.00000000000E+00  0.00000000000E+00  0.10838404256E+01  0.10838404256E+01  0.00000000000E+00 0. -1.
         13   -1    0    0    0    0 -0.00000000000E+00 -0.00000000000E+00 -0.10000000000E+04  0.10000000000E+04  0.00000000000E+00 0.  1.
    9000005    2    1    2  501    0  0.17880580605E+02  0.24391551537E+02 -0.69340732474E+03  0.69408170507E+03  0.45861056385E+01 0.  0.
         13    1    3    3    0    0  0.69418068374E+01  0.59576842518E+01 -0.20106856220E+03  0.20127654953E+03  0.00000000000E+00 0.  1.
          3    1    3    3  501    0  0.10938773767E+02  0.18433867285E+02 -0.49233876254E+03  0.49280515554E+03  0.00000000000E+00 0.  1.
         -3    1    1    2    0  502 -0.17880580605E+02 -0.24391551537E+02 -0.30550883483E+03  0.30700213535E+03  0.00000000000E+00 0. -1.
<mgrwt>
<rscale>  1 0.30000000E+03</rscale>
<asrwt>0</asrwt>
<pdfrwt beam="1">  1       21 0.39412462E-02 0.30000000E+03</pdfrwt>
<pdfrwt beam="2">0</pdfrwt>
<totfact> 0.43107884E+04</totfact>
</mgrwt>
</event>
<event>
 6    1  0.1198667E-001  0.3000000E+03  0.7818608E-02  0.1093470E+00
         21   -1    0    0  501  502  0.00000000000E+00  0.00000000000E+00  0.35712769490E+01  0.35712769490E+01  0.00000000000E+00 0. -1.
         13   -1    0    0    0    0 -0.00000000000E+00 -0.00000000000E+00 -0.10000000000E+04  0.10000000000E+04  0.00000000000E+00 0.  1.
    9000005    2    1    2  501    0 -0.32766015885E+02 -0.37987944069E+02 -0.77052676678E+03  0.77216602736E+03  0.34899554232E+01 0.  0.
         13    1    3    3    0    0 -0.25720284387E+02 -0.27730914701E+02 -0.56982797375E+03  0.57108182980E+03  0.00000000000E+00 0.  1.
          3    1    3    3  501    0 -0.70457314980E+01 -0.10257029368E+02 -0.20069879303E+03  0.20108419755E+03  0.00000000000E+00 0.  1.
         -1    1    1    2    0  502  0.32766015885E+02  0.37987944069E+02 -0.22590195627E+03  0.23140524959E+03  0.00000000000E+00 0. -1.
<mgrwt>
<rscale>  1 0.30000000E+03</rscale>
<asrwt>0</asrwt>
<pdfrwt beam="1">  1       21 0.12986489E-01 0.30000000E+03</pdfrwt>
<pdfrwt beam="2">0</pdfrwt>
<totfact> 0.53667051E+03</totfact>
</mgrwt>
</event>
<event>
 6    1  0.1198667E-001  0.3000000E+03  0.7818608E-02  0.1093470E+00
         21   -1    0    0  501  502  0.00000000000E+00  0.00000000000E+00  0.30775150614E+01  0.30775150614E+01  0.00000000000E+00 0. -1.
         13   -1    0    0    0    0 -0.00000000000E+00 -0.00000000000E+00 -0.10000000000E+04  0.10000000000E+04  0.00000000000E+00 0.  1.
    9000005    2    1    2  501    0  0.89548688195E+01 -0.47978559676E+02 -0.73633505928E+03  0.73795879020E+03  0.34241254188E+01 0.  0.
         13    1    3    3    0    0  0.60847549484E+01 -0.36203458468E+02 -0.53288010643E+03  0.53414316665E+03  0.00000000000E+00 0.  1.
          1    1    3    3  501    0  0.28701138711E+01 -0.11775101208E+02 -0.20345495286E+03  0.20381562355E+03  0.00000000000E+00 0.  1.
         -1    1    1    2    0  502 -0.89548688195E+01  0.47978559676E+02 -0.26058742565E+03  0.26511872486E+03  0.00000000000E+00 0. -1.
<mgrwt>
<rscale>  1 0.30000000E+03</rscale>
<asrwt>0</asrwt>
<pdfrwt beam="1">  1       21 0.11190987E-01 0.30000000E+03</pdfrwt>
<pdfrwt beam="2">0</pdfrwt>
<totfact> 0.70307105E+03</totfact>
</mgrwt>
</event>
<event>
 6    1  0.1198667E-001  0.3000000E+03  0.7818608E-02  0.1093470E+00
         21   -1    0    0  501  502  0.00000000000E+00  0.00000000000E+00  0.11947304153E+01  0.11947304153E+01  0.00000000000E+00 0. -1.
         13   -1    0    0    0    0 -0.00000000000E+00 -0.00000000000E+00 -0.10000000000E+04  0.10000000000E+04  0.00000000000E+00 0.  1.
    9000005    2    1    2  501    0 -0.17887094526E+02 -0.24485735529E+02 -0.73848993274E+03  0.73911921842E+03  0.32154118487E+01 0.  0.
         13    1    3    3    0    0 -0.81434582815E+01 -0.12250488414E+02 -0.39364295070E+03  0.39391771097E+03  0.00000000000E+00 0.  1.
          3    1    3    3  501    0 -0.97436362447E+01 -0.12235247115E+02 -0.34484698205E+03  0.34520150745E+03  0.00000000000E+00 0.  1.
         -3    1    1    2    0  502  0.17887094526E+02  0.24485735529E+02 -0.26031533684E+03  0.26207551200E+03  0.00000000000E+00 0. -1.
<mgrwt>
<rscale>  1 0.30000000E+03</rscale>
<asrwt>0</asrwt>
<pdfrwt beam="1">  1       21 0.43444834E-02 0.30000000E+03</pdfrwt>
<pdfrwt beam="2">0</pdfrwt>
<totfact> 0.36574342E+04</totfact>
</mgrwt>
</event>
<event>
 6    1  0.1198667E-001  0.3000000E+03  0.7818608E-02  0.1093470E+00
         21   -1    0    0  501  502  0.00000000000E+00  0.00000000000E+00  0.12789917070E+01  0.12789917070E+01  0.00000000000E+00 0. -1.
         13   -1    0    0    0    0 -0.00000000000E+00 -0.00000000000E+00 -0.10000000000E+04  0.10000000000E+04  0.00000000000E+00 0.  1.
    9000005    2    1    2  501    0 -0.30682771941E+02 -0.15268046101E+02 -0.63922645310E+03  0.64015452433E+03  0.35792387559E+01 0.  0.
         13    1    3    3    0    0 -0.18738214195E+02 -0.78416898851E+01 -0.39889459964E+03  0.39941146002E+03  0.00000000000E+00 0.  1.
          3    1    3    3  501    0 -0.11944557747E+02 -0.74263562163E+01 -0.24033185346E+03  0.24074306431E+03  0.00000000000E+00 0.  1.
         -1    1    1    2    0  502  0.30682771941E+02  0.15268046101E+02 -0.35949455519E+03  0.36112446738E+03  0.00000000000E+00 0. -1.
<mgrwt>
<rscale>  1 0.30000000E+03</rscale>
<asrwt>0</asrwt>
<pdfrwt beam="1">  1       21 0.46508887E-02 0.30000000E+03</pdfrwt>
<pdfrwt beam="2">0</pdfrwt>
<totfact> 0.32580939E+04</totfact>
</mgrwt>
</event>
<event>
 6    1  0.1198667E-001  0.3000000E+03  0.7818608E-02  0.1093470E+00
         21   -1    0    0  501  502  0.00000000000E+00  0.00000000000E+00  0.10896977729E+01  0.10896977729E+01  0.00000000000E+00 0. -1.
         13   -1    0    0    0    0 -0.00000000000E+00 -0.00000000000E+00 -0.10000000000E+04  0.10000000000E+04  0.00000000000E+00 0.  1.
    9000005    2    1    2  501    0  0.63574485533E+01  0.32303323600E+02 -0.51101743114E+03  0.51208726881E+03  0.32609948209E+01 0.  0.
         13    1    3    3    0    0  0.19149959552E+01  0.69424542300E+01 -0.93710665739E+02  0.93986987149E+02  0.00000000000E+00 0.  1.
          3    1    3    3  501    0  0.44424525981E+01  0.25360869370E+02 -0.41730676540E+03  0.41810028166E+03  0.00000000000E+00 0.  1.
         -3    1    1    2    0  502 -0.63574485533E+01 -0.32303323600E+02 -0.48789287109E+03  0.48900242896E+03  0.00000000000E+00 0. -1.
<mgrwt>
<rscale>  1 0.30000000E+03</rscale>
<asrwt>0</asrwt>
<pdfrwt beam="1">  1       21 0.39625457E-02 0.30000000E+03</pdfrwt>
<pdfrwt beam="2">0</pdfrwt>
<totfact> 0.42718619E+04</totfact>
</mgrwt>
</event>
<event>
 6    1  0.1198667E-001  0.3000000E+03  0.7818608E-02  0.1093470E+00
         21   -1    0    0  501  502  0.00000000000E+00  0.00000000000E+00  0.53939197796E+01  0.53939197796E+01  0.00000000000E+00 0. -1.
         13   -1    0    0    0    0 -0.00000000000E+00 -0.00000000000E+00 -0.10000000000E+04  0.10000000000E+04  0.00000000000E+00 0.  1.
    9000005    2    1    2  501    0  0.15535514260E+02  0.34445548034E+02 -0.92830209736E+03  0.92907835042E+03  0.37348741492E+01 0.  0.
         13    1    3    3    0    0  0.12936479721E+02  0.30537794512E+02 -0.78745609124E+03  0.78815417593E+03  0.00000000000E+00 0.  1.
          1    1    3    3  501    0  0.25990345393E+01  0.39077535213E+01 -0.14084600611E+03  0.14092417449E+03  0.00000000000E+00 0.  1.
         -3    1    1    2    0  502 -0.15535514260E+02 -0.34445548034E+02 -0.66303982864E+02  0.76315569357E+02  0.00000000000E+00 0. -1.
<mgrwt>
<rscale>  1 0.30000000E+03</rscale>
<asrwt>0</asrwt>
<pdfrwt beam="1">  1       21 0.19614295E-01 0.30000000E+03</pdfrwt>
<pdfrwt beam="2">0</pdfrwt>
<totfact> 0.24899589E+03</totfact>
</mgrwt>
</event>
<event>
 6    1  0.1198667E-001  0.3000000E+03  0.7818608E-02  0.1093470E+00
         21   -1    0    0  501  502  0.00000000000E+00  0.00000000000E+00  0.22893028505E+01  0.22893028505E+01  0.00000000000E+00 0. -1.
         13   -1    0    0    0    0 -0.00000000000E+00 -0.00000000000E+00 -0.10000000000E+04  0.10000000000E+04  0.00000000000E+00 0.  1.
    9000005    2    1    2  501    0 -0.30201847182E+02 -0.85274084746E+01 -0.87690580345E+03  0.87747467787E+03  0.36268307961E+01 0.  0.
         13    1    3    3    0    0 -0.13674186742E+02 -0.39934811094E+01 -0.34853564358E+03  0.34882664193E+03  0.00000000000E+00 0.  1.
          3    1    3    3  501    0 -0.16527660440E+02 -0.45339273653E+01 -0.52837015987E+03  0.52864803594E+03  0.00000000000E+00 0.  1.
         -1    1    1    2    0  502  0.30201847182E+02  0.85274084746E+01 -0.12080489370E+03  0.12481462498E+03  0.00000000000E+00 0. -1.
<mgrwt>
<rscale>  1 0.30000000E+03</rscale>
<asrwt>0</asrwt>
<pdfrwt beam="1">  1       21 0.83247552E-02 0.30000000E+03</pdfrwt>
<pdfrwt beam="2">0</pdfrwt>
<totfact> 0.11910550E+04</totfact>
</mgrwt>
</event>
<event>
 6    1  0.1198667E-001  0.3000000E+03  0.7818608E-02  0.1093470E+00
         21   -1    0    0  501  502  0.00000000000E+00  0.00000000000E+00  0.14840487657E+01  0.14840487657E+01  0.00000000000E+00 0. -1.
         13   -1    0    0    0    0 -0.00000000000E+00 -0.00000000000E+00 -0.10000000000E+04  0.10000000000E+04  0.00000000000E+00 0.  1.
    9000005    2    1    2  501    0 -0.11557685980E+02 -0.29688533014E+02 -0.77842891188E+03  0.77910308287E+03  0.59206250044E+01 0.  0.
         13    1    3    3    0    0 -0.53535107210E+01 -0.18207777496E+02 -0.51776878985E+03  0.51811649557E+03  0.00000000000E+00 0.  1.
          1    1    3    3  501    0 -0.62041752593E+01 -0.11480755518E+02 -0.26066012202E+03  0.26098658730E+03  0.00000000000E+00 0.  1.
         -1    1    1    2    0  502  0.11557685980E+02  0.29688533014E+02 -0.22008703936E+03  0.22238096589E+03  0.00000000000E+00 0. -1.
<mgrwt>
<rscale>  1 0.30000000E+03</rscale>
<asrwt>0</asrwt>
<pdfrwt beam="1">  1       21 0.53965523E-02 0.30000000E+03</pdfrwt>
<pdfrwt beam="2">0</pdfrwt>
<totfact> 0.25283527E+04</totfact>
</mgrwt>
</event>
<event>
 6    1  0.1198667E-001  0.3000000E+03  0.7818608E-02  0.1093470E+00
         21   -1    0    0  501  502  0.00000000000E+00  0.00000000000E+00  0.31459709450E+01  0.31459709450E+01  0.00000000000E+00 0. -1.
         13   -1    0    0    0    0 -0.00000000000E+00 -0.00000000000E+00 -0.10000000000E+04  0.10000000000E+04  0.00000000000E+00 0.  1.
    9000005    2    1    2  501    0 -0.40526069403E+02  0.37889043073E+02 -0.55049070007E+03  0.55334805705E+03  0.87246481723E+01 0.  0.
         13    1    3    3    0    0 -0.14689262588E+02  0.19401022893E+02 -0.25110247556E+03  0.25227886823E+03  0.00000000000E+00 0.  1.
          1    1    3    3  501    0 -0.25836806815E+02  0.18488020180E+02 -0.29938822451E+03  0.30106918881E+03  0.00000000000E+00 0.  1.
         -1    1    1    2    0  502  0.40526069403E+02 -0.37889043073E+02 -0.44636332898E+03  0.44979791390E+03  0.00000000000E+00 0. -1.
<mgrwt>
<rscale>  1 0.30000000E+03</rscale>
<asrwt>0</asrwt>
<pdfrwt beam="1">  1       21 0.11439918E-01 0.30000000E+03</pdfrwt>
<pdfrwt beam="2">0</pdfrwt>
<totfact> 0.67571797E+03</totfact>
</mgrwt>
</event>
<event>
 6    1  0.1198667E-001  0.3000000E+03  0.7818608E-02  0.1093470E+00
         21   -1    0    0  501  502  0.00000000000E+00  0.00000000000E+00  0.19161716407E+01  0.19161716407E+01  0.00000000000E+00 0. -1.
         13   -1    0    0    0    0 -0.00000000000E+00 -0.00000000000E+00 -0.10000000000E+04  0.10000000000E+04  0.00000000000E+00 0.  1.
    9000005    2    1    2  501    0  0.26566187466E+02  0.15273730196E+02 -0.85648894259E+03  0.85704325897E+03  0.32847847516E+01 0.  0.
         13    1    3    3    0    0  0.11140654686E+01  0.82985834578E+00 -0.24074655588E+02  0.24114701915E+02  0.00000000000E+00 0.  1.
          3    1    3    3  501    0  0.25452121997E+02  0.14443871850E+02 -0.83241428701E+03  0.83292855706E+03  0.00000000000E+00 0.  1.
         -3    1    1    2    0  502 -0.26566187466E+02 -0.15273730196E+02 -0.14159488577E+03  0.14487291267E+03  0.00000000000E+00 0. -1.
<mgrwt>
<rscale>  1 0.30000000E+03</rscale>
<asrwt>0</asrwt>
<pdfrwt beam="1">  1       21 0.69679116E-02 0.30000000E+03</pdfrwt>
<pdfrwt beam="2">0</pdfrwt>
<totfact> 0.16264800E+04</totfact>
</mgrwt>
</event>
<event>
 6    1  0.1198667E-001  0.3000000E+03  0.7818608E-02  0.1093470E+00
         21   -1    0    0  501  502  0.00000000000E+00  0.00000000000E+00  0.19959284938E+01  0.19959284938E+01  0.00000000000E+00 0. -1.
         13   -1    0    0    0    0 -0.00000000000E+00 -0.00000000000E+00 -0.10000000000E+04  0.10000000000E+04  0.00000000000E+00 0.  1.
    9000005    2    1    2  501    0 -0.33740060067E+02 -0.29045432527E+02 -0.47267962295E+03  0.47478837443E+03  0.39932122591E+01 0.  0.
         13    1    3    3    0    0 -0.27060221495E+02 -0.25254711308E+02 -0.39380917527E+03  0.39554484267E+03  0.00000000000E+00 0.  1.
          1    1    3    3  501    0 -0.66798385719E+01 -0.37907212200E+01 -0.78870447673E+02  0.79243531766E+02  0.00000000000E+00 0.  1.
         -3    1    1    2    0  502  0.33740060067E+02  0.29045432527E+02 -0.52532444856E+03  0.52720755406E+03  0.00000000000E+00 0. -1.
<mgrwt>
<rscale>  1 0.30000000E+03</rscale>
<asrwt>0</asrwt>
<pdfrwt beam="1">  1       21 0.72579371E-02 0.30000000E+03</pdfrwt>
<pdfrwt beam="2">0</pdfrwt>
<totfact> 0.15149037E+04</totfact>
</mgrwt>
</event>
<event>
 6    1  0.1198667E-001  0.3000000E+03  0.7818608E-02  0.1093470E+00
         21   -1    0    0  501  502  0.00000000000E+00  0.00000000000E+00  0.21802945641E+01  0.21802945641E+01  0.00000000000E+00 0. -1.
         13   -1    0    0    0    0 -0.00000000000E+00 -0.00000000000E+00 -0.10000000000E+04  0.10000000000E+04  0.00000000000E+00 0.  1.
    9000005    2    1    2  501    0 -0.39171818714E+02  0.24606244168E+02 -0.56272688486E+03  0.56463525557E+03  0.33950335446E+01 0.  0.
         13    1    3    3    0    0 -0.30838305495E+02  0.17704157944E+02 -0.42832759415E+03  0.42980107748E+03  0.00000000000E+00 0.  1.
          3    1    3    3  501    0 -0.83335132193E+01  0.69020862235E+01 -0.13439929072E+03  0.13483417809E+03  0.00000000000E+00 0.  1.
         -1    1    1    2    0  502  0.39171818714E+02 -0.24606244168E+02 -0.43509282058E+03  0.43754503900E+03  0.00000000000E+00 0. -1.
<mgrwt>
<rscale>  1 0.30000000E+03</rscale>
<asrwt>0</asrwt>
<pdfrwt beam="1">  1       21 0.79283606E-02 0.30000000E+03</pdfrwt>
<pdfrwt beam="2">0</pdfrwt>
<totfact> 0.12977245E+04</totfact>
</mgrwt>
</event>
<event>
 6    1  0.1198667E-001  0.3000000E+03  0.7818608E-02  0.1093470E+00
         21   -1    0    0  501  502  0.00000000000E+00  0.00000000000E+00  0.21199340800E+01  0.21199340800E+01  0.00000000000E+00 0. -1.
         13   -1    0    0    0    0 -0.00000000000E+00 -0.00000000000E+00 -0.10000000000E+04  0.10000000000E+04  0.00000000000E+00 0.  1.
    9000005    2    1    2  501    0 -0.89640961358E+01 -0.42426765663E+02 -0.66366590178E+03  0.66510436622E+03  0.55680627776E+01 0.  0.
         13    1    3    3    0    0 -0.94606663363E+01 -0.34576566237E+02 -0.54843452369E+03  0.54960483068E+03  0.00000000000E+00 0.  1.
          3    1    3    3  501    0  0.49657020053E+00 -0.78501994266E+01 -0.11523137809E+03  0.11549953554E+03  0.00000000000E+00 0.  1.
         -1    1    1    2    0  502  0.89640961358E+01  0.42426765663E+02 -0.33421416414E+03  0.33701556786E+03  0.00000000000E+00 0. -1.
<mgrwt>
<rscale>  1 0.30000000E+03</rscale>
<asrwt>0</asrwt>
<pdfrwt beam="1">  1       21 0.77088675E-02 0.30000000E+03</pdfrwt>
<pdfrwt beam="2">0</pdfrwt>
<totfact> 0.13632395E+04</totfact>
</mgrwt>
</event>
<event>
 6    1  0.1198667E-001  0.3000000E+03  0.7818608E-02  0.1093470E+00
         21   -1    0    0  501  502  0.00000000000E+00  0.00000000000E+00  0.19017600491E+01  0.19017600491E+01  0.00000000000E+00 0. -1.
         13   -1    0    0    0    0 -0.00000000000E+00 -0.00000000000E+00 -0.10000000000E+04  0.10000000000E+04  0.00000000000E+00 0.  1.
    9000005    2    1    2  501    0 -0.33630690626E+02  0.73936114363E+01 -0.80544673904E+03  0.80619716214E+03  0.48709300659E+01 0.  0.
         13    1    3    3    0    0 -0.61775342631E+01 -0.15672156855E+00 -0.17165741515E+03  0.17176860792E+03  0.00000000000E+00 0.  1.
          3    1    3    3  501    0 -0.27453156363E+02  0.75503330048E+01 -0.63378932389E+03  0.63442855421E+03  0.00000000000E+00 0.  1.
         -1    1    1    2    0  502  0.33630690626E+02 -0.73936114363E+01 -0.19265150091E+03  0.19570459791E+03  0.00000000000E+00 0. -1.
<mgrwt>
<rscale>  1 0.30000000E+03</rscale>
<asrwt>0</asrwt>
<pdfrwt beam="1">  1       21 0.69155057E-02 0.30000000E+03</pdfrwt>
<pdfrwt beam="2">0</pdfrwt>
<totfact> 0.16479762E+04</totfact>
</mgrwt>
</event>
<event>
 6    1  0.1198667E-001  0.3000000E+03  0.7818608E-02  0.1093470E+00
         21   -1    0    0  501  502  0.00000000000E+00  0.00000000000E+00  0.20190085668E+01  0.20190085668E+01  0.00000000000E+00 0. -1.
         13   -1    0    0    0    0 -0.00000000000E+00 -0.00000000000E+00 -0.10000000000E+04  0.10000000000E+04  0.00000000000E+00 0.  1.
    9000005    2    1    2  501    0 -0.37399255719E+02 -0.50243977438E+01 -0.76802946309E+03  0.76899185503E+03  0.74342462510E+01 0.  0.
         13    1    3    3    0    0 -0.18607380620E+02 -0.53863042344E+01 -0.34228093406E+03  0.34282865211E+03  0.00000000000E+00 0.  1.
          3    1    3    3  501    0 -0.18791875099E+02  0.36190649064E+00 -0.42574852903E+03  0.42616320292E+03  0.00000000000E+00 0.  1.
         -3    1    1    2    0  502  0.37399255719E+02  0.50243977438E+01 -0.22995152834E+03  0.23302715354E+03  0.00000000000E+00 0. -1.
<mgrwt>
<rscale>  1 0.30000000E+03</rscale>
<asrwt>0</asrwt>
<pdfrwt beam="1">  1       21 0.73418648E-02 0.30000000E+03</pdfrwt>
<pdfrwt beam="2">0</pdfrwt>
<totfact> 0.14847833E+04</totfact>
</mgrwt>
</event>
<event>
 6    1  0.1198667E-001  0.3000000E+03  0.7818608E-02  0.1093470E+00
         21   -1    0    0  501  502  0.00000000000E+00  0.00000000000E+00  0.11391499534E+01  0.11391499534E+01  0.00000000000E+00 0. -1.
         13   -1    0    0    0    0 -0.00000000000E+00 -0.00000000000E+00 -0.10000000000E+04  0.10000000000E+04  0.00000000000E+00 0.  1.
    9000005    2    1    2  501    0 -0.30628387683E+02 -0.24894115767E+01 -0.69513539054E+03  0.69586312722E+03  0.82453225664E+01 0.  0.
         13    1    3    3    0    0 -0.26985217367E+02 -0.42972917581E+01 -0.55962537783E+03  0.56029209542E+03  0.00000000000E+00 0.  1.
          3    1    3    3  501    0 -0.36431703169E+01  0.18078801814E+01 -0.13551001271E+03  0.13557103180E+03  0.00000000000E+00 0.  1.
         -3    1    1    2    0  502  0.30628387683E+02  0.24894115767E+01 -0.30372545951E+03  0.30527602273E+03  0.00000000000E+00 0. -1.
<mgrwt>
<rscale>  1 0.30000000E+03</rscale>
<asrwt>0</asrwt>
<pdfrwt beam="1">  1       21 0.41423722E-02 0.30000000E+03</pdfrwt>
<pdfrwt beam="2">0</pdfrwt>
<totfact> 0.39640183E+04</totfact>
</mgrwt>
</event>
<event>
 6    1  0.1198667E-001  0.3000000E+03  0.7818608E-02  0.1093470E+00
         21   -1    0    0  501  502  0.00000000000E+00  0.00000000000E+00  0.14158726270E+01  0.14158726270E+01  0.00000000000E+00 0. -1.
         13   -1    0    0    0    0 -0.00000000000E+00 -0.00000000000E+00 -0.10000000000E+04  0.10000000000E+04  0.00000000000E+00 0.  1.
    9000005    2    1    2  501    0 -0.89736374413E+01 -0.34545844395E+02 -0.65578641952E+03  0.65676502025E+03  0.32438041062E+01 0.  0.
         13    1    3    3    0    0 -0.20913693730E+01 -0.43489919060E+01 -0.99907015650E+02  0.10002349390E+03  0.00000000000E+00 0.  1.
          3    1    3    3  501    0 -0.68822680683E+01 -0.30196852489E+02 -0.55587940387E+03  0.55674152635E+03  0.00000000000E+00 0.  1.
         -3    1    1    2    0  502  0.89736374413E+01  0.34545844395E+02 -0.34279770785E+03  0.34465085237E+03  0.00000000000E+00 0. -1.
<mgrwt>
<rscale>  1 0.30000000E+03</rscale>
<asrwt>0</asrwt>
<pdfrwt beam="1">  1       21 0.51486386E-02 0.30000000E+03</pdfrwt>
<pdfrwt beam="2">0</pdfrwt>
<totfact> 0.27400476E+04</totfact>
</mgrwt>
</event>
<event>
 6    1  0.1198667E-001  0.3000000E+03  0.7818608E-02  0.1093470E+00
         21   -1    0    0  501  502  0.00000000000E+00  0.00000000000E+00  0.19379087839E+01  0.19379087839E+01  0.00000000000E+00 0. -1.
         13   -1    0    0    0    0 -0.00000000000E+00 -0.00000000000E+00 -0.10000000000E+04  0.10000000000E+04  0.00000000000E+00 0.  1.
    9000005    2    1    2  501    0 -0.42763609649E+02  0.10177593072E+02 -0.49671125515E+03  0.49866365896E+03  0.33262688341E+01 0.  0.
         13    1    3    3    0    0 -0.38381625343E+02  0.10152244328E+02 -0.44756808220E+03  0.44932550054E+03  0.00000000000E+00 0.  1.
          1    1    3    3  501    0 -0.43819843066E+01  0.25348744451E-01 -0.49143172952E+02  0.49338158425E+02  0.00000000000E+00 0.  1.
         -3    1    1    2    0  502  0.42763609649E+02 -0.10177593072E+02 -0.50135083606E+03  0.50327424982E+03  0.00000000000E+00 0. -1.
<mgrwt>
<rscale>  1 0.30000000E+03</rscale>
<asrwt>0</asrwt>
<pdfrwt beam="1">  1       21 0.70469559E-02 0.30000000E+03</pdfrwt>
<pdfrwt beam="2">0</pdfrwt>
<totfact> 0.15948588E+04</totfact>
</mgrwt>
</event>
<event>
 6    1  0.1198667E-001  0.3000000E+03  0.7818608E-02  0.1093470E+00
         21   -1    0    0  501  502  0.00000000000E+00  0.00000000000E+00  0.96406767134E+00  0.96406767134E+00  0.00000000000E+00 0. -1.
         13   -1    0    0    0    0 -0.00000000000E+00 -0.00000000000E+00 -0.10000000000E+04  0.10000000000E+04  0.00000000000E+00 0.  1.
    9000005    2    1    2  501    0  0.11323148840E+02  0.28428925267E+02 -0.43956105481E+03  0.44065294333E+03  0.49677020900E+01 0.  0.
         13    1    3    3    0    0  0.52099029516E+01  0.18990084627E+02 -0.26590309252E+03  0.26663124538E+03  0.00000000000E+00 0.  1.
          1    1    3    3  501    0  0.61132458882E+01  0.94388406396E+01 -0.17365796229E+03  0.17402169794E+03  0.00000000000E+00 0.  1.
         -1    1    1    2    0  502 -0.11323148840E+02 -0.28428925267E+02 -0.55947487752E+03  0.56031112434E+03  0.00000000000E+00 0. -1.
<mgrwt>
<rscale>  1 0.30000000E+03</rscale>
<asrwt>0</asrwt>
<pdfrwt beam="1">  1       21 0.35057080E-02 0.30000000E+03</pdfrwt>
<pdfrwt beam="2">0</pdfrwt>
<totfact> 0.52473424E+04</totfact>
</mgrwt>
</event>
<event>
 6    1  0.1198667E-001  0.3000000E+03  0.7818608E-02  0.1093470E+00
         21   -1    0    0  501  502  0.00000000000E+00  0.00000000000E+00  0.36875589453E+01  0.36875589453E+01  0.00000000000E+00 0. -1.
         13   -1    0    0    0    0 -0.00000000000E+00 -0.00000000000E+00 -0.10000000000E+04  0.10000000000E+04  0.00000000000E+00 0.  1.
    9000005    2    1    2  501    0  0.29885245312E+02 -0.52335261960E+01 -0.93283286878E+03  0.93333008756E+03  0.27154339902E+01 0.  0.
         13    1    3    3    0    0  0.16634045641E+02 -0.42296464909E+01 -0.53682241049E+03  0.53709671548E+03  0.00000000000E+00 0.  1.
          1    1    3    3  501    0  0.13251199671E+02 -0.10038797051E+01 -0.39601045829E+03  0.39623337207E+03  0.00000000000E+00 0.  1.
         -3    1    1    2    0  502 -0.29885245312E+02  0.52335261960E+01 -0.63479572275E+02  0.70357471388E+02  0.00000000000E+00 0. -1.
<mgrwt>
<rscale>  1 0.30000000E+03</rscale>
<asrwt>0</asrwt>
<pdfrwt beam="1">  1       21 0.13409334E-01 0.30000000E+03</pdfrwt>
<pdfrwt beam="2">0</pdfrwt>
<totfact> 0.50613659E+03</totfact>
</mgrwt>
</event>
<event>
 6    1  0.1198667E-001  0.3000000E+03  0.7818608E-02  0.1093470E+00
         21   -1    0    0  501  502  0.00000000000E+00  0.00000000000E+00  0.13845153923E+01  0.13845153923E+01  0.00000000000E+00 0. -1.
         13   -1    0    0    0    0 -0.00000000000E+00 -0.00000000000E+00 -0.10000000000E+04  0.10000000000E+04  0.00000000000E+00 0.  1.
    9000005    2    1    2  501    0 -0.18252122969E+01  0.34528286681E+02 -0.68267314051E+03  0.68355578986E+03  0.32197970578E+01 0.  0.
         13    1    3    3    0    0 -0.81400003839E+00  0.31883105111E+02 -0.62578971059E+03  0.62660191259E+03  0.00000000000E+00 0.  1.
          3    1    3    3  501    0 -0.10112122585E+01  0.26451815697E+01 -0.56883429919E+02  0.56953877262E+02  0.00000000000E+00 0.  1.
         -1    1    1    2    0  502  0.18252122969E+01 -0.34528286681E+02 -0.31594234410E+03  0.31782872554E+03  0.00000000000E+00 0. -1.
<mgrwt>
<rscale>  1 0.30000000E+03</rscale>
<asrwt>0</asrwt>
<pdfrwt beam="1">  1       21 0.50346120E-02 0.30000000E+03</pdfrwt>
<pdfrwt beam="2">0</pdfrwt>
<totfact> 0.28467835E+04</totfact>
</mgrwt>
</event>
<event>
 6    1  0.1198667E-001  0.3000000E+03  0.7818608E-02  0.1093470E+00
         21   -1    0    0  501  502  0.00000000000E+00  0.00000000000E+00  0.29034344149E+01  0.29034344149E+01  0.00000000000E+00 0. -1.
         13   -1    0    0    0    0 -0.00000000000E+00 -0.00000000000E+00 -0.10000000000E+04  0.10000000000E+04  0.00000000000E+00 0.  1.
    9000005    2    1    2  501    0 -0.28555719109E+02 -0.17537618582E+02 -0.89106544264E+03  0.89170273211E+03  0.36252216849E+01 0.  0.
         13    1    3    3    0    0 -0.17616870970E+02 -0.10109302353E+02 -0.58281124060E+03  0.58316506609E+03  0.00000000000E+00 0.  1.
          3    1    3    3  501    0 -0.10938848139E+02 -0.74283162290E+01 -0.30825420204E+03  0.30853766602E+03  0.00000000000E+00 0.  1.
         -3    1    1    2    0  502  0.28555719109E+02  0.17537618582E+02 -0.10603112295E+03  0.11120070230E+03  0.00000000000E+00 0. -1.
<mgrwt>
<rscale>  1 0.30000000E+03</rscale>
<asrwt>0</asrwt>
<pdfrwt beam="1">  1       21 0.10557966E-01 0.30000000E+03</pdfrwt>
<pdfrwt beam="2">0</pdfrwt>
<totfact> 0.78064326E+03</totfact>
</mgrwt>
</event>
<event>
 6    1  0.1198667E-001  0.3000000E+03  0.7818608E-02  0.1093470E+00
         21   -1    0    0  501  502  0.00000000000E+00  0.00000000000E+00  0.11881189502E+01  0.11881189502E+01  0.00000000000E+00 0. -1.
         13   -1    0    0    0    0 -0.00000000000E+00 -0.00000000000E+00 -0.10000000000E+04  0.10000000000E+04  0.00000000000E+00 0.  1.
    9000005    2    1    2  501    0  0.76294256237E+01 -0.33078262709E+02 -0.58216363764E+03  0.58315924634E+03  0.27974993584E+01 0.  0.
         13    1    3    3    0    0  0.48235643847E+01 -0.25858895324E+02 -0.44330598669E+03  0.44408574293E+03  0.00000000000E+00 0.  1.
          1    1    3    3  501    0  0.28058612390E+01 -0.72193673842E+01 -0.13885765095E+03  0.13907350341E+03  0.00000000000E+00 0.  1.
         -1    1    1    2    0  502 -0.76294256237E+01  0.33078262709E+02 -0.41664824341E+03  0.41802887261E+03  0.00000000000E+00 0. -1.
<mgrwt>
<rscale>  1 0.30000000E+03</rscale>
<asrwt>0</asrwt>
<pdfrwt beam="1">  1       21 0.43204417E-02 0.30000000E+03</pdfrwt>
<pdfrwt beam="2">0</pdfrwt>
<totfact> 0.36919384E+04</totfact>
</mgrwt>
</event>
<event>
 6    1  0.1198667E-001  0.3000000E+03  0.7818608E-02  0.1093470E+00
         21   -1    0    0  501  502  0.00000000000E+00  0.00000000000E+00  0.13276899452E+02  0.13276899452E+02  0.00000000000E+00 0. -1.
         13   -1    0    0    0    0 -0.00000000000E+00 -0.00000000000E+00 -0.10000000000E+04  0.10000000000E+04  0.00000000000E+00 0.  1.
    9000005    2    1    2  501    0 -0.10340012689E+03  0.40549112298E+02 -0.35899092370E+03  0.37579474080E+03  0.33744871414E+01 0.  0.
         13    1    3    3    0    0 -0.56266482055E+02  0.20321549198E+02 -0.19178719359E+03  0.20090099549E+03  0.00000000000E+00 0.  1.
          3    1    3    3  501    0 -0.47133644840E+02  0.20227563100E+02 -0.16720373012E+03  0.17489374531E+03  0.00000000000E+00 0.  1.
         -3    1    1    2    0  502  0.10340012689E+03 -0.40549112298E+02 -0.62773217684E+03  0.63748215865E+03  0.00000000000E+00 0. -1.
<mgrwt>
<rscale>  1 0.30000000E+03</rscale>
<asrwt>0</asrwt>
<pdfrwt beam="1">  1       21 0.48279736E-01 0.30000000E+03</pdfrwt>
<pdfrwt beam="2">0</pdfrwt>
<totfact> 0.40524551E+02</totfact>
</mgrwt>
</event>
<event>
 6    1  0.1198667E-001  0.3000000E+03  0.7818608E-02  0.1093470E+00
         21   -1    0    0  501  502  0.00000000000E+00  0.00000000000E+00  0.17603367701E+01  0.17603367701E+01  0.00000000000E+00 0. -1.
         13   -1    0    0    0    0 -0.00000000000E+00 -0.00000000000E+00 -0.10000000000E+04  0.10000000000E+04  0.00000000000E+00 0.  1.
    9000005    2    1    2  501    0 -0.40468011071E+02  0.75113547047E+01 -0.59442364465E+03  0.59585214859E+03  0.24966560153E+01 0.  0.
         13    1    3    3    0    0 -0.17114728226E+02  0.44300962663E+01 -0.25613535388E+03  0.25674473545E+03  0.00000000000E+00 0.  1.
          3    1    3    3  501    0 -0.23353282845E+02  0.30812584384E+01 -0.33828829078E+03  0.33910741314E+03  0.00000000000E+00 0.  1.
         -3    1    1    2    0  502  0.40468011071E+02 -0.75113547047E+01 -0.40381601858E+03  0.40590818818E+03  0.00000000000E+00 0. -1.
<mgrwt>
<rscale>  1 0.30000000E+03</rscale>
<asrwt>0</asrwt>
<pdfrwt beam="1">  1       21 0.64012381E-02 0.30000000E+03</pdfrwt>
<pdfrwt beam="2">0</pdfrwt>
<totfact> 0.18842770E+04</totfact>
</mgrwt>
</event>
<event>
 6    1  0.1198667E-001  0.3000000E+03  0.7818608E-02  0.1093470E+00
         21   -1    0    0  501  502  0.00000000000E+00  0.00000000000E+00  0.18073406345E+01  0.18073406345E+01  0.00000000000E+00 0. -1.
         13   -1    0    0    0    0 -0.00000000000E+00 -0.00000000000E+00 -0.10000000000E+04  0.10000000000E+04  0.00000000000E+00 0.  1.
    9000005    2    1    2  501    0 -0.28582663179E+02  0.10323907439E+02 -0.84901612481E+03  0.84956677390E+03  0.34309502233E+01 0.  0.
         13    1    3    3    0    0 -0.14425028672E+02  0.45747822874E+01 -0.37780643396E+03  0.37810939108E+03  0.00000000000E+00 0.  1.
          1    1    3    3  501    0 -0.14157634508E+02  0.57491251513E+01 -0.47120969085E+03  0.47145738281E+03  0.00000000000E+00 0.  1.
         -1    1    1    2    0  502  0.28582663179E+02 -0.10323907439E+02 -0.14917653455E+03  0.15224056674E+03  0.00000000000E+00 0. -1.
<mgrwt>
<rscale>  1 0.30000000E+03</rscale>
<asrwt>0</asrwt>
<pdfrwt beam="1">  1       21 0.65721616E-02 0.30000000E+03</pdfrwt>
<pdfrwt beam="2">0</pdfrwt>
<totfact> 0.18002490E+04</totfact>
</mgrwt>
</event>
<event>
 6    1  0.1198667E-001  0.3000000E+03  0.7818608E-02  0.1093470E+00
         21   -1    0    0  501  502  0.00000000000E+00  0.00000000000E+00  0.10289082184E+01  0.10289082184E+01  0.00000000000E+00 0. -1.
         13   -1    0    0    0    0 -0.00000000000E+00 -0.00000000000E+00 -0.10000000000E+04  0.10000000000E+04  0.00000000000E+00 0.  1.
    9000005    2    1    2  501    0  0.29690109501E+02  0.88858141655E+01 -0.61080941491E+03  0.61163200571E+03  0.67163058194E+01 0.  0.
         13    1    3    3    0    0  0.27544206341E+02  0.73110489434E+01 -0.51699785005E+03  0.51778268771E+03  0.00000000000E+00 0.  1.
          1    1    3    3  501    0  0.21459031606E+01  0.15747652221E+01 -0.93811564866E+02  0.93849317997E+02  0.00000000000E+00 0.  1.
         -1    1    1    2    0  502 -0.29690109501E+02 -0.88858141655E+01 -0.38816167687E+03  0.38939690251E+03  0.00000000000E+00 0. -1.
<mgrwt>
<rscale>  1 0.30000000E+03</rscale>
<asrwt>0</asrwt>
<pdfrwt beam="1">  1       21 0.37414923E-02 0.30000000E+03</pdfrwt>
<pdfrwt beam="2">0</pdfrwt>
<totfact> 0.47046365E+04</totfact>
</mgrwt>
</event>
<event>
 6    1  0.1198667E-001  0.3000000E+03  0.7818608E-02  0.1093470E+00
         21   -1    0    0  501  502  0.00000000000E+00  0.00000000000E+00  0.19877307492E+01  0.19877307492E+01  0.00000000000E+00 0. -1.
         13   -1    0    0    0    0 -0.00000000000E+00 -0.00000000000E+00 -0.10000000000E+04  0.10000000000E+04  0.00000000000E+00 0.  1.
    9000005    2    1    2  501    0  0.22821061369E+02 -0.34269943413E+02 -0.69018840073E+03  0.69142249784E+03  0.31324347701E+01 0.  0.
         13    1    3    3    0    0  0.95871589458E+00 -0.56768069929E+00 -0.20595238969E+02  0.20625354924E+02  0.00000000000E+00 0.  1.
          3    1    3    3  501    0  0.21862345474E+02 -0.33702262714E+02 -0.66959316176E+03  0.67079714292E+03  0.00000000000E+00 0.  1.
         -3    1    1    2    0  502 -0.22821061369E+02  0.34269943413E+02 -0.30782386852E+03  0.31056523291E+03  0.00000000000E+00 0. -1.
<mgrwt>
<rscale>  1 0.30000000E+03</rscale>
<asrwt>0</asrwt>
<pdfrwt beam="1">  1       21 0.72281271E-02 0.30000000E+03</pdfrwt>
<pdfrwt beam="2">0</pdfrwt>
<totfact> 0.15258258E+04</totfact>
</mgrwt>
</event>
<event>
 6    1  0.1198667E-001  0.3000000E+03  0.7818608E-02  0.1093470E+00
         21   -1    0    0  501  502  0.00000000000E+00  0.00000000000E+00  0.15188224126E+01  0.15188224126E+01  0.00000000000E+00 0. -1.
         13   -1    0    0    0    0 -0.00000000000E+00 -0.00000000000E+00 -0.10000000000E+04  0.10000000000E+04  0.00000000000E+00 0.  1.
    9000005    2    1    2  501    0 -0.11594797857E+01  0.38757291094E+02 -0.46042260366E+03  0.46206493097E+03  0.33991871203E+01 0.  0.
         13    1    3    3    0    0  0.12064985392E+01  0.12898252892E+02 -0.15530718292E+03  0.15584653231E+03  0.00000000000E+00 0.  1.
          3    1    3    3  501    0 -0.23659783250E+01  0.25859038202E+02 -0.30511542074E+03  0.30621839867E+03  0.00000000000E+00 0.  1.
         -3    1    1    2    0  502  0.11594797857E+01 -0.38757291094E+02 -0.53805857393E+03  0.53945389144E+03  0.00000000000E+00 0. -1.
<mgrwt>
<rscale>  1 0.30000000E+03</rscale>
<asrwt>0</asrwt>
<pdfrwt beam="1">  1       21 0.55230022E-02 0.30000000E+03</pdfrwt>
<pdfrwt beam="2">0</pdfrwt>
<totfact> 0.24299606E+04</totfact>
</mgrwt>
</event>
<event>
 6    1  0.1198667E-001  0.3000000E+03  0.7818608E-02  0.1093470E+00
         21   -1    0    0  501  502  0.00000000000E+00  0.00000000000E+00  0.12907434551E+01  0.12907434551E+01  0.00000000000E+00 0. -1.
         13   -1    0    0    0    0 -0.00000000000E+00 -0.00000000000E+00 -0.10000000000E+04  0.10000000000E+04  0.00000000000E+00 0.  1.
    9000005    2    1    2  501    0 -0.19332220526E+02 -0.30190821364E+02 -0.49722439298E+03  0.49852609789E+03  0.33095102965E+01 0.  0.
         13    1    3    3    0    0 -0.38111495740E+01 -0.83547290834E+01 -0.13587922658E+03  0.13618917202E+03  0.00000000000E+00 0.  1.
          3    1    3    3  501    0 -0.15521070952E+02 -0.21836092280E+02 -0.36134516639E+03  0.36233692587E+03  0.00000000000E+00 0.  1.
         -1    1    1    2    0  502  0.19332220526E+02  0.30190821364E+02 -0.50148486357E+03  0.50276464557E+03  0.00000000000E+00 0. -1.
<mgrwt>
<rscale>  1 0.30000000E+03</rscale>
<asrwt>0</asrwt>
<pdfrwt beam="1">  1       21 0.46936225E-02 0.30000000E+03</pdfrwt>
<pdfrwt beam="2">0</pdfrwt>
<totfact> 0.32078303E+04</totfact>
</mgrwt>
</event>
<event>
 6    1  0.1198667E-001  0.3000000E+03  0.7818608E-02  0.1093470E+00
         21   -1    0    0  501  502  0.00000000000E+00  0.00000000000E+00  0.17644386301E+01  0.17644386301E+01  0.00000000000E+00 0. -1.
         13   -1    0    0    0    0 -0.00000000000E+00 -0.00000000000E+00 -0.10000000000E+04  0.10000000000E+04  0.00000000000E+00 0.  1.
    9000005    2    1    2  501    0  0.23534803858E+02  0.25796914826E+02 -0.77562721114E+03  0.77643391385E+03  0.57170012324E+01 0.  0.
         13    1    3    3    0    0  0.18537482981E+02  0.18101595000E+02 -0.52527949281E+03  0.52591810349E+03  0.00000000000E+00 0.  1.
          3    1    3    3  501    0  0.49973208776E+01  0.76953198255E+01 -0.25034771833E+03  0.25051581035E+03  0.00000000000E+00 0.  1.
         -1    1    1    2    0  502 -0.23534803858E+02 -0.25796914826E+02 -0.22260835023E+03  0.22533052478E+03  0.00000000000E+00 0. -1.
<mgrwt>
<rscale>  1 0.30000000E+03</rscale>
<asrwt>0</asrwt>
<pdfrwt beam="1">  1       21 0.64161540E-02 0.30000000E+03</pdfrwt>
<pdfrwt beam="2">0</pdfrwt>
<totfact> 0.18767053E+04</totfact>
</mgrwt>
</event>
<event>
 6    1  0.1198667E-001  0.3000000E+03  0.7818608E-02  0.1093470E+00
         21   -1    0    0  501  502  0.00000000000E+00  0.00000000000E+00  0.14173008434E+01  0.14173008434E+01  0.00000000000E+00 0. -1.
         13   -1    0    0    0    0 -0.00000000000E+00 -0.00000000000E+00 -0.10000000000E+04  0.10000000000E+04  0.00000000000E+00 0.  1.
    9000005    2    1    2  501    0 -0.13940355339E+02 -0.34801752003E+02 -0.53744665854E+03  0.53875982127E+03  0.27818680524E+01 0.  0.
         13    1    3    3    0    0 -0.12295032917E+02 -0.31454615420E+02 -0.47168348429E+03  0.47289097054E+03  0.00000000000E+00 0.  1.
          1    1    3    3  501    0 -0.16453224217E+01 -0.33471365835E+01 -0.65763174251E+02  0.65868850732E+02  0.00000000000E+00 0.  1.
         -1    1    1    2    0  502  0.13940355339E+02  0.34801752003E+02 -0.46113604062E+03  0.46265747957E+03  0.00000000000E+00 0. -1.
<mgrwt>
<rscale>  1 0.30000000E+03</rscale>
<asrwt>0</asrwt>
<pdfrwt beam="1">  1       21 0.51538321E-02 0.30000000E+03</pdfrwt>
<pdfrwt beam="2">0</pdfrwt>
<totfact> 0.27353349E+04</totfact>
</mgrwt>
</event>
<event>
 6    1  0.1198667E-001  0.3000000E+03  0.7818608E-02  0.1093470E+00
         21   -1    0    0  501  502  0.00000000000E+00  0.00000000000E+00  0.41211708998E+01  0.41211708998E+01  0.00000000000E+00 0. -1.
         13   -1    0    0    0    0 -0.00000000000E+00 -0.00000000000E+00 -0.10000000000E+04  0.10000000000E+04  0.00000000000E+00 0.  1.
    9000005    2    1    2  501    0 -0.51133119317E+02 -0.35431241284E+02 -0.37590664515E+03  0.38103572121E+03  0.35279194984E+01 0.  0.
         13    1    3    3    0    0 -0.14002652301E+02 -0.11489757798E+02 -0.11325001258E+03  0.11468938118E+03  0.00000000000E+00 0.  1.
          3    1    3    3  501    0 -0.37130467016E+02 -0.23941483485E+02 -0.26265663257E+03  0.26634634003E+03  0.00000000000E+00 0.  1.
         -3    1    1    2    0  502  0.51133119317E+02  0.35431241284E+02 -0.61997218395E+03  0.62308544969E+03  0.00000000000E+00 0. -1.
<mgrwt>
<rscale>  1 0.30000000E+03</rscale>
<asrwt>0</asrwt>
<pdfrwt beam="1">  1       21 0.14986108E-01 0.30000000E+03</pdfrwt>
<pdfrwt beam="2">0</pdfrwt>
<totfact> 0.41251042E+03</totfact>
</mgrwt>
</event>
<event>
 6    1  0.1198667E-001  0.3000000E+03  0.7818608E-02  0.1093470E+00
         21   -1    0    0  501  502  0.00000000000E+00  0.00000000000E+00  0.50369785115E+01  0.50369785115E+01  0.00000000000E+00 0. -1.
         13   -1    0    0    0    0 -0.00000000000E+00 -0.00000000000E+00 -0.10000000000E+04  0.10000000000E+04  0.00000000000E+00 0.  1.
    9000005    2    1    2  501    0  0.39630915048E+02 -0.30146039757E+02 -0.85545201688E+03  0.85690624724E+03  0.32818031121E+01 0.  0.
         13    1    3    3    0    0  0.29882555443E+02 -0.22903087658E+02 -0.62176996754E+03  0.62290883048E+03  0.00000000000E+00 0.  1.
          1    1    3    3  501    0  0.97483596055E+01 -0.72429520989E+01 -0.23368204934E+03  0.23399741676E+03  0.00000000000E+00 0.  1.
         -3    1    1    2    0  502 -0.39630915048E+02  0.30146039757E+02 -0.13951100461E+03  0.14813073127E+03  0.00000000000E+00 0. -1.
<mgrwt>
<rscale>  1 0.30000000E+03</rscale>
<asrwt>0</asrwt>
<pdfrwt beam="1">  1       21 0.18316324E-01 0.30000000E+03</pdfrwt>
<pdfrwt beam="2">0</pdfrwt>
<totfact> 0.28349024E+03</totfact>
</mgrwt>
</event>
<event>
 6    1  0.1198667E-001  0.3000000E+03  0.7818608E-02  0.1093470E+00
         21   -1    0    0  501  502  0.00000000000E+00  0.00000000000E+00  0.15364375125E+01  0.15364375125E+01  0.00000000000E+00 0. -1.
         13   -1    0    0    0    0 -0.00000000000E+00 -0.00000000000E+00 -0.10000000000E+04  0.10000000000E+04  0.00000000000E+00 0.  1.
    9000005    2    1    2  501    0  0.17217638806E+02  0.27774032459E+02 -0.77496841288E+03  0.77566495666E+03  0.34985798866E+01 0.  0.
         13    1    3    3    0    0 -0.15355375428E+00  0.10089624348E+00 -0.32699097009E+01  0.32750676725E+01  0.00000000000E+00 0.  1.
          1    1    3    3  501    0  0.17371192560E+02  0.27673136215E+02 -0.77169850318E+03  0.77238988899E+03  0.00000000000E+00 0.  1.
         -1    1    1    2    0  502 -0.17217638806E+02 -0.27774032459E+02 -0.22349514961E+03  0.22587148085E+03  0.00000000000E+00 0. -1.
<mgrwt>
<rscale>  1 0.30000000E+03</rscale>
<asrwt>0</asrwt>
<pdfrwt beam="1">  1       21 0.55870573E-02 0.30000000E+03</pdfrwt>
<pdfrwt beam="2">0</pdfrwt>
<totfact> 0.23823516E+04</totfact>
</mgrwt>
</event>
<event>
 6    1  0.1198667E-001  0.3000000E+03  0.7818608E-02  0.1093470E+00
         21   -1    0    0  501  502  0.00000000000E+00  0.00000000000E+00  0.40134306157E+01  0.40134306157E+01  0.00000000000E+00 0. -1.
         13   -1    0    0    0    0 -0.00000000000E+00 -0.00000000000E+00 -0.10000000000E+04  0.10000000000E+04  0.00000000000E+00 0.  1.
    9000005    2    1    2  501    0 -0.20317984048E+02 -0.27060748866E+02 -0.92235826020E+03  0.92298113755E+03  0.20773835578E+01 0.  0.
         13    1    3    3    0    0 -0.10835639754E+02 -0.13145830744E+02 -0.48277874811E+03  0.48307923116E+03  0.00000000000E+00 0.  1.
          1    1    3    3  501    0 -0.94823442947E+01 -0.13914918122E+02 -0.43957951209E+03  0.43990190639E+03  0.00000000000E+00 0.  1.
         -1    1    1    2    0  502  0.20317984048E+02  0.27060748866E+02 -0.73628309187E+02  0.81032293061E+02  0.00000000000E+00 0. -1.
<mgrwt>
<rscale>  1 0.30000000E+03</rscale>
<asrwt>0</asrwt>
<pdfrwt beam="1">  1       21 0.14594324E-01 0.30000000E+03</pdfrwt>
<pdfrwt beam="2">0</pdfrwt>
<totfact> 0.43320570E+03</totfact>
</mgrwt>
</event>
<event>
 6    1  0.1198667E-001  0.3000000E+03  0.7818608E-02  0.1093470E+00
         21   -1    0    0  501  502  0.00000000000E+00  0.00000000000E+00  0.30997779152E+01  0.30997779152E+01  0.00000000000E+00 0. -1.
         13   -1    0    0    0    0 -0.00000000000E+00 -0.00000000000E+00 -0.10000000000E+04  0.10000000000E+04  0.00000000000E+00 0.  1.
    9000005    2    1    2  501    0 -0.13239317904E+02  0.30002378039E+02 -0.90363327038E+03  0.90423549464E+03  0.36496861278E+01 0.  0.
         13    1    3    3    0    0 -0.78562722904E+01  0.20679992092E+02 -0.64131327755E+03  0.64169471172E+03  0.00000000000E+00 0.  1.
          3    1    3    3  501    0 -0.53830456140E+01  0.93223859462E+01 -0.26231999283E+03  0.26254078292E+03  0.00000000000E+00 0.  1.
         -3    1    1    2    0  502  0.13239317904E+02 -0.30002378039E+02 -0.93266951704E+02  0.98864283271E+02  0.00000000000E+00 0. -1.
<mgrwt>
<rscale>  1 0.30000000E+03</rscale>
<asrwt>0</asrwt>
<pdfrwt beam="1">  1       21 0.11271943E-01 0.30000000E+03</pdfrwt>
<pdfrwt beam="2">0</pdfrwt>
<totfact> 0.69399571E+03</totfact>
</mgrwt>
</event>
<event>
 6    1  0.1198667E-001  0.3000000E+03  0.7818608E-02  0.1093470E+00
         21   -1    0    0  501  502  0.00000000000E+00  0.00000000000E+00  0.14687661000E+01  0.14687661000E+01  0.00000000000E+00 0. -1.
         13   -1    0    0    0    0 -0.00000000000E+00 -0.00000000000E+00 -0.10000000000E+04  0.10000000000E+04  0.00000000000E+00 0.  1.
    9000005    2    1    2  501    0  0.89202630434E+01  0.32504097633E+02 -0.73609806993E+03  0.73687992846E+03  0.39462574136E+01 0.  0.
         13    1    3    3    0    0  0.53173035408E+01  0.21094558223E+02 -0.51335514156E+03  0.51381587701E+03  0.00000000000E+00 0.  1.
          3    1    3    3  501    0  0.36029595027E+01  0.11409539411E+02 -0.22274292838E+03  0.22306405145E+03  0.00000000000E+00 0.  1.
         -3    1    1    2    0  502 -0.89202630434E+01 -0.32504097633E+02 -0.26243316397E+03  0.26458883764E+03  0.00000000000E+00 0. -1.
<mgrwt>
<rscale>  1 0.30000000E+03</rscale>
<asrwt>0</asrwt>
<pdfrwt beam="1">  1       21 0.53409789E-02 0.30000000E+03</pdfrwt>
<pdfrwt beam="2">0</pdfrwt>
<totfact> 0.25735519E+04</totfact>
</mgrwt>
</event>
<event>
 6    1  0.1198667E-001  0.3000000E+03  0.7818608E-02  0.1093470E+00
         21   -1    0    0  501  502  0.00000000000E+00  0.00000000000E+00  0.31638056879E+01  0.31638056879E+01  0.00000000000E+00 0. -1.
         13   -1    0    0    0    0 -0.00000000000E+00 -0.00000000000E+00 -0.10000000000E+04  0.10000000000E+04  0.00000000000E+00 0.  1.
    9000005    2    1    2  501    0  0.26716633712E+01 -0.41330429504E+02 -0.83751900063E+03  0.83855119866E+03  0.38332985980E+01 0.  0.
         13    1    3    3    0    0  0.82219525672E+00 -0.16215430491E+02 -0.36652389091E+03  0.36688333131E+03  0.00000000000E+00 0.  1.
          3    1    3    3  501    0  0.18494681145E+01 -0.25114999012E+02 -0.47099510972E+03  0.47166786735E+03  0.00000000000E+00 0.  1.
         -3    1    1    2    0  502 -0.26716633712E+01  0.41330429504E+02 -0.15931719368E+03  0.16461260702E+03  0.00000000000E+00 0. -1.
<mgrwt>
<rscale>  1 0.30000000E+03</rscale>
<asrwt>0</asrwt>
<pdfrwt beam="1">  1       21 0.11504772E-01 0.30000000E+03</pdfrwt>
<pdfrwt beam="2">0</pdfrwt>
<totfact> 0.66885384E+03</totfact>
</mgrwt>
</event>
<event>
 6    1  0.1198667E-001  0.3000000E+03  0.7818608E-02  0.1093470E+00
         21   -1    0    0  501  502  0.00000000000E+00  0.00000000000E+00  0.57780644793E+01  0.57780644793E+01  0.00000000000E+00 0. -1.
         13   -1    0    0    0    0 -0.00000000000E+00 -0.00000000000E+00 -0.10000000000E+04  0.10000000000E+04  0.00000000000E+00 0.  1.
    9000005    2    1    2  501    0  0.48123133845E+02 -0.13672360069E+02 -0.87558949737E+03  0.87702859915E+03  0.44075370286E+01 0.  0.
         13    1    3    3    0    0  0.26173745721E+02 -0.51698472168E+01 -0.47024600942E+03  0.47100223106E+03  0.00000000000E+00 0.  1.
          1    1    3    3  501    0  0.21949388124E+02 -0.85025128518E+01 -0.40534348795E+03  0.40602636809E+03  0.00000000000E+00 0.  1.
         -1    1    1    2    0  502 -0.48123133845E+02  0.13672360069E+02 -0.11863243816E+03  0.12874946533E+03  0.00000000000E+00 0. -1.
<mgrwt>
<rscale>  1 0.30000000E+03</rscale>
<asrwt>0</asrwt>
<pdfrwt beam="1">  1       21 0.21011188E-01 0.30000000E+03</pdfrwt>
<pdfrwt beam="2">0</pdfrwt>
<totfact> 0.21831926E+03</totfact>
</mgrwt>
</event>
<event>
 6    1  0.1198667E-001  0.3000000E+03  0.7818608E-02  0.1093470E+00
         21   -1    0    0  501  502  0.00000000000E+00  0.00000000000E+00  0.22999783364E+01  0.22999783364E+01  0.00000000000E+00 0. -1.
         13   -1    0    0    0    0 -0.00000000000E+00 -0.00000000000E+00 -0.10000000000E+04  0.10000000000E+04  0.00000000000E+00 0.  1.
    9000005    2    1    2  501    0  0.32763421083E+02 -0.22167866179E+02 -0.78182699704E+03  0.78283239801E+03  0.28729827255E+01 0.  0.
         13    1    3    3    0    0  0.18572453870E+02 -0.13843166294E+02 -0.47556012709E+03  0.47612393740E+03  0.00000000000E+00 0.  1.
          1    1    3    3  501    0  0.14190967213E+02 -0.83246998847E+01 -0.30626686995E+03  0.30670846061E+03  0.00000000000E+00 0.  1.
         -3    1    1    2    0  502 -0.32763421083E+02  0.22167866179E+02 -0.21587302463E+03  0.21946758032E+03  0.00000000000E+00 0. -1.
<mgrwt>
<rscale>  1 0.30000000E+03</rscale>
<asrwt>0</asrwt>
<pdfrwt beam="1">  1       21 0.83635752E-02 0.30000000E+03</pdfrwt>
<pdfrwt beam="2">0</pdfrwt>
<totfact> 0.11813364E+04</totfact>
</mgrwt>
</event>
<event>
 6    1  0.1198667E-001  0.3000000E+03  0.7818608E-02  0.1093470E+00
         21   -1    0    0  501  502  0.00000000000E+00  0.00000000000E+00  0.14035808811E+01  0.14035808811E+01  0.00000000000E+00 0. -1.
         13   -1    0    0    0    0 -0.00000000000E+00 -0.00000000000E+00 -0.10000000000E+04  0.10000000000E+04  0.00000000000E+00 0.  1.
    9000005    2    1    2  501    0  0.13704858718E+02 -0.33685328259E+02 -0.61475118357E+03  0.61583946255E+03  0.40867393307E+01 0.  0.
         13    1    3    3    0    0  0.35618022931E+01 -0.65890146431E+01 -0.10390466681E+03  0.10417428346E+03  0.00000000000E+00 0.  1.
          3    1    3    3  501    0  0.10143056425E+02 -0.27096313616E+02 -0.51084651676E+03  0.51166517909E+03  0.00000000000E+00 0.  1.
         -3    1    1    2    0  502 -0.13704858718E+02  0.33685328259E+02 -0.38384523555E+03  0.38556411833E+03  0.00000000000E+00 0. -1.
<mgrwt>
<rscale>  1 0.30000000E+03</rscale>
<asrwt>0</asrwt>
<pdfrwt beam="1">  1       21 0.51039412E-02 0.30000000E+03</pdfrwt>
<pdfrwt beam="2">0</pdfrwt>
<totfact> 0.27811337E+04</totfact>
</mgrwt>
</event>
<event>
 6    1  0.1198667E-001  0.3000000E+03  0.7818608E-02  0.1093470E+00
         21   -1    0    0  501  502  0.00000000000E+00  0.00000000000E+00  0.17647838275E+01  0.17647838275E+01  0.00000000000E+00 0. -1.
         13   -1    0    0    0    0 -0.00000000000E+00 -0.00000000000E+00 -0.10000000000E+04  0.10000000000E+04  0.00000000000E+00 0.  1.
    9000005    2    1    2  501    0  0.64939493805E+01  0.31212999850E+02 -0.82488323486E+03  0.82550550843E+03  0.32512396747E+01 0.  0.
         13    1    3    3    0    0  0.40576862776E+01  0.25173080251E+02 -0.64075864263E+03  0.64126576931E+03  0.00000000000E+00 0.  1.
          3    1    3    3  501    0  0.24362631030E+01  0.60399195994E+01 -0.18412459223E+03  0.18423973911E+03  0.00000000000E+00 0.  1.
         -1    1    1    2    0  502 -0.64939493805E+01 -0.31212999850E+02 -0.17335198132E+03  0.17625927540E+03  0.00000000000E+00 0. -1.
<mgrwt>
<rscale>  1 0.30000000E+03</rscale>
<asrwt>0</asrwt>
<pdfrwt beam="1">  1       21 0.64174093E-02 0.30000000E+03</pdfrwt>
<pdfrwt beam="2">0</pdfrwt>
<totfact> 0.18760702E+04</totfact>
</mgrwt>
</event>
<event>
 6    1  0.1198667E-001  0.3000000E+03  0.7818608E-02  0.1093470E+00
         21   -1    0    0  501  502  0.00000000000E+00  0.00000000000E+00  0.30935967939E+01  0.30935967939E+01  0.00000000000E+00 0. -1.
         13   -1    0    0    0    0 -0.00000000000E+00 -0.00000000000E+00 -0.10000000000E+04  0.10000000000E+04  0.00000000000E+00 0.  1.
    9000005    2    1    2  501    0 -0.36462368725E+02  0.21264066213E+02 -0.82485051307E+03  0.82593577400E+03  0.31415002735E+01 0.  0.
         13    1    3    3    0    0 -0.27880429909E+02  0.15321870380E+02 -0.59912344740E+03  0.59996748521E+03  0.00000000000E+00 0.  1.
          1    1    3    3  501    0 -0.85819388159E+01  0.59421958323E+01 -0.22572706567E+03  0.22596828879E+03  0.00000000000E+00 0.  1.
         -1    1    1    2    0  502  0.36462368725E+02 -0.21264066213E+02 -0.17205589014E+03  0.17715782279E+03  0.00000000000E+00 0. -1.
<mgrwt>
<rscale>  1 0.30000000E+03</rscale>
<asrwt>0</asrwt>
<pdfrwt beam="1">  1       21 0.11249467E-01 0.30000000E+03</pdfrwt>
<pdfrwt beam="2">0</pdfrwt>
<totfact> 0.69649767E+03</totfact>
</mgrwt>
</event>
<event>
 6    1  0.1198667E-001  0.3000000E+03  0.7818608E-02  0.1093470E+00
         21   -1    0    0  501  502  0.00000000000E+00  0.00000000000E+00  0.18935585200E+01  0.18935585200E+01  0.00000000000E+00 0. -1.
         13   -1    0    0    0    0 -0.00000000000E+00 -0.00000000000E+00 -0.10000000000E+04  0.10000000000E+04  0.00000000000E+00 0.  1.
    9000005    2    1    2  501    0  0.28641439942E+02 -0.27109810370E+02 -0.70980968850E+03  0.71091195828E+03  0.32779009760E+01 0.  0.
         13    1    3    3    0    0  0.10731046355E+01 -0.10750126586E+01 -0.41100766193E+02  0.41128824290E+02  0.00000000000E+00 0.  1.
          3    1    3    3  501    0  0.27568335306E+02 -0.26034797711E+02 -0.66870892231E+03  0.66978313399E+03  0.00000000000E+00 0.  1.
         -1    1    1    2    0  502 -0.28641439942E+02  0.27109810370E+02 -0.28829675298E+03  0.29098160024E+03  0.00000000000E+00 0. -1.
<mgrwt>
<rscale>  1 0.30000000E+03</rscale>
<asrwt>0</asrwt>
<pdfrwt beam="1">  1       21 0.68856819E-02 0.30000000E+03</pdfrwt>
<pdfrwt beam="2">0</pdfrwt>
<totfact> 0.16604043E+04</totfact>
</mgrwt>
</event>
<event>
 6    1  0.1198667E-001  0.3000000E+03  0.7818608E-02  0.1093470E+00
         21   -1    0    0  501  502  0.00000000000E+00  0.00000000000E+00  0.28082706755E+01  0.28082706755E+01  0.00000000000E+00 0. -1.
         13   -1    0    0    0    0 -0.00000000000E+00 -0.00000000000E+00 -0.10000000000E+04  0.10000000000E+04  0.00000000000E+00 0.  1.
    9000005    2    1    2  501    0  0.36477746008E+02  0.24866024760E+02 -0.77553618156E+03  0.77679914034E+03  0.34044646850E+01 0.  0.
         13    1    3    3    0    0  0.17100989743E+02  0.11047592633E+02 -0.38615222255E+03  0.38668854668E+03  0.00000000000E+00 0.  1.
          3    1    3    3  501    0  0.19376756265E+02  0.13818432127E+02 -0.38938395901E+03  0.39011059366E+03  0.00000000000E+00 0.  1.
         -1    1    1    2    0  502 -0.36477746008E+02 -0.24866024760E+02 -0.22165554777E+03  0.22600913034E+03  0.00000000000E+00 0. -1.
<mgrwt>
<rscale>  1 0.30000000E+03</rscale>
<asrwt>0</asrwt>
<pdfrwt beam="1">  1       21 0.10211915E-01 0.30000000E+03</pdfrwt>
<pdfrwt beam="2">0</pdfrwt>
<totfact> 0.82866006E+03</totfact>
</mgrwt>
</event>
<event>
 6    1  0.1198667E-001  0.3000000E+03  0.7818608E-02  0.1093470E+00
         21   -1    0    0  501  502  0.00000000000E+00  0.00000000000E+00  0.14777822637E+01  0.14777822637E+01  0.00000000000E+00 0. -1.
         13   -1    0    0    0    0 -0.00000000000E+00 -0.00000000000E+00 -0.10000000000E+04  0.10000000000E+04  0.00000000000E+00 0.  1.
    9000005    2    1    2  501    0 -0.35271257170E+02 -0.10263666088E+02 -0.64527722262E+03  0.64632791109E+03  0.27695109094E+01 0.  0.
         13    1    3    3    0    0 -0.27065771648E+01 -0.14319386462E+01 -0.62048096421E+02  0.62123604835E+02  0.00000000000E+00 0.  1.
          3    1    3    3  501    0 -0.32564680005E+02 -0.88317274417E+01 -0.58322912620E+03  0.58420430625E+03  0.00000000000E+00 0.  1.
         -3    1    1    2    0  502  0.35271257170E+02  0.10263666088E+02 -0.35324499511E+03  0.35514987118E+03  0.00000000000E+00 0. -1.
<mgrwt>
<rscale>  1 0.30000000E+03</rscale>
<asrwt>0</asrwt>
<pdfrwt beam="1">  1       21 0.53737650E-02 0.30000000E+03</pdfrwt>
<pdfrwt beam="2">0</pdfrwt>
<totfact> 0.25467367E+04</totfact>
</mgrwt>
</event>
<event>
 6    1  0.1198667E-001  0.3000000E+03  0.7818608E-02  0.1093470E+00
         21   -1    0    0  501  502  0.00000000000E+00  0.00000000000E+00  0.14421877216E+01  0.14421877216E+01  0.00000000000E+00 0. -1.
         13   -1    0    0    0    0 -0.00000000000E+00 -0.00000000000E+00 -0.10000000000E+04  0.10000000000E+04  0.00000000000E+00 0.  1.
    9000005    2    1    2  501    0 -0.35149725366E+02 -0.10683895275E+02 -0.62397233172E+03  0.62505949543E+03  0.28728493895E+01 0.  0.
         13    1    3    3    0    0 -0.18361934240E+02 -0.57161372815E+01 -0.35077554283E+03  0.35130231469E+03  0.00000000000E+00 0.  1.
          1    1    3    3  501    0 -0.16787791125E+02 -0.49677579938E+01 -0.27319678889E+03  0.27375718074E+03  0.00000000000E+00 0.  1.
         -1    1    1    2    0  502  0.35149725366E+02  0.10683895275E+02 -0.37458548056E+03  0.37638269229E+03  0.00000000000E+00 0. -1.
<mgrwt>
<rscale>  1 0.30000000E+03</rscale>
<asrwt>0</asrwt>
<pdfrwt beam="1">  1       21 0.52443300E-02 0.30000000E+03</pdfrwt>
<pdfrwt beam="2">0</pdfrwt>
<totfact> 0.26551928E+04</totfact>
</mgrwt>
</event>
<event>
 6    1  0.1198667E-001  0.3000000E+03  0.7818608E-02  0.1093470E+00
         21   -1    0    0  501  502  0.00000000000E+00  0.00000000000E+00  0.13821573128E+01  0.13821573128E+01  0.00000000000E+00 0. -1.
         13   -1    0    0    0    0 -0.00000000000E+00 -0.00000000000E+00 -0.10000000000E+04  0.10000000000E+04  0.00000000000E+00 0.  1.
    9000005    2    1    2  501    0 -0.26642044304E+02 -0.23380698266E+02 -0.35197366379E+03  0.35376718707E+03  0.30507494441E+01 0.  0.
         13    1    3    3    0    0 -0.17689734423E+02 -0.17305861604E+02 -0.24901706088E+03  0.25024371353E+03  0.00000000000E+00 0.  1.
          3    1    3    3  501    0 -0.89523098812E+01 -0.60748366624E+01 -0.10295660291E+03  0.10352347354E+03  0.00000000000E+00 0.  1.
         -3    1    1    2    0  502  0.26642044304E+02  0.23380698266E+02 -0.64664417890E+03  0.64761497024E+03  0.00000000000E+00 0. -1.
<mgrwt>
<rscale>  1 0.30000000E+03</rscale>
<asrwt>0</asrwt>
<pdfrwt beam="1">  1       21 0.50260372E-02 0.30000000E+03</pdfrwt>
<pdfrwt beam="2">0</pdfrwt>
<totfact> 0.28550706E+04</totfact>
</mgrwt>
</event>
<event>
 6    1  0.1198667E-001  0.3000000E+03  0.7818608E-02  0.1093470E+00
         21   -1    0    0  501  502  0.00000000000E+00  0.00000000000E+00  0.37840881805E+01  0.37840881805E+01  0.00000000000E+00 0. -1.
         13   -1    0    0    0    0 -0.00000000000E+00 -0.00000000000E+00 -0.10000000000E+04  0.10000000000E+04  0.00000000000E+00 0.  1.
    9000005    2    1    2  501    0  0.30064105121E+02 -0.28207913846E+02 -0.87049095044E+03  0.87147270268E+03  0.32618845937E+01 0.  0.
         13    1    3    3    0    0  0.78066092891E+01 -0.56231631248E+01 -0.21551146338E+03  0.21572610867E+03  0.00000000000E+00 0.  1.
          1    1    3    3  501    0  0.22257495832E+02 -0.22584750721E+02 -0.65497948706E+03  0.65574659401E+03  0.00000000000E+00 0.  1.
         -1    1    1    2    0  502 -0.30064105121E+02  0.28207913846E+02 -0.12572496138E+03  0.13231138550E+03  0.00000000000E+00 0. -1.
<mgrwt>
<rscale>  1 0.30000000E+03</rscale>
<asrwt>0</asrwt>
<pdfrwt beam="1">  1       21 0.13760350E-01 0.30000000E+03</pdfrwt>
<pdfrwt beam="2">0</pdfrwt>
<totfact> 0.48272949E+03</totfact>
</mgrwt>
</event>
<event>
 6    1  0.1198667E-001  0.3000000E+03  0.7818608E-02  0.1093470E+00
         21   -1    0    0  501  502  0.00000000000E+00  0.00000000000E+00  0.26479140161E+01  0.26479140161E+01  0.00000000000E+00 0. -1.
         13   -1    0    0    0    0 -0.00000000000E+00 -0.00000000000E+00 -0.10000000000E+04  0.10000000000E+04  0.00000000000E+00 0.  1.
    9000005    2    1    2  501    0 -0.58874817085E+01  0.45234965228E+02 -0.73004788690E+03  0.73147933293E+03  0.33515395454E+01 0.  0.
         13    1    3    3    0    0 -0.25557322862E+01  0.28837688434E+02 -0.47990860705E+03  0.48078104701E+03  0.00000000000E+00 0.  1.
          1    1    3    3  501    0 -0.33317494223E+01  0.16397276795E+02 -0.25013927985E+03  0.25069828592E+03  0.00000000000E+00 0.  1.
         -1    1    1    2    0  502  0.58874817085E+01 -0.45234965228E+02 -0.26730419908E+03  0.27116858108E+03  0.00000000000E+00 0. -1.
<mgrwt>
<rscale>  1 0.30000000E+03</rscale>
<asrwt>0</asrwt>
<pdfrwt beam="1">  1       21 0.96287985E-02 0.30000000E+03</pdfrwt>
<pdfrwt beam="2">0</pdfrwt>
<totfact> 0.92041240E+03</totfact>
</mgrwt>
</event>
<event>
 6    1  0.1198667E-001  0.3000000E+03  0.7818608E-02  0.1093470E+00
         21   -1    0    0  501  502  0.00000000000E+00  0.00000000000E+00  0.49235268420E+01  0.49235268420E+01  0.00000000000E+00 0. -1.
         13   -1    0    0    0    0 -0.00000000000E+00 -0.00000000000E+00 -0.10000000000E+04  0.10000000000E+04  0.00000000000E+00 0.  1.
    9000005    2    1    2  501    0  0.28788746593E+02 -0.16725284504E+02 -0.93979698908E+03  0.94039176387E+03  0.31243881716E+01 0.  0.
         13    1    3    3    0    0  0.21733787830E+02 -0.13297805448E+02 -0.68327955324E+03  0.68375444206E+03  0.00000000000E+00 0.  1.
          1    1    3    3  501    0  0.70549587630E+01 -0.34274790561E+01 -0.25651743584E+03  0.25663732181E+03  0.00000000000E+00 0.  1.
         -1    1    1    2    0  502 -0.28788746593E+02  0.16725284504E+02 -0.55279484077E+02  0.64531762969E+02  0.00000000000E+00 0. -1.
<mgrwt>
<rscale>  1 0.30000000E+03</rscale>
<asrwt>0</asrwt>
<pdfrwt beam="1">  1       21 0.17903772E-01 0.30000000E+03</pdfrwt>
<pdfrwt beam="2">0</pdfrwt>
<totfact> 0.29592696E+03</totfact>
</mgrwt>
</event>
<event>
 6    1  0.1198667E-001  0.3000000E+03  0.7818608E-02  0.1093470E+00
         21   -1    0    0  501  502  0.00000000000E+00  0.00000000000E+00  0.18085815044E+01  0.18085815044E+01  0.00000000000E+00 0. -1.
         13   -1    0    0    0    0 -0.00000000000E+00 -0.00000000000E+00 -0.10000000000E+04  0.10000000000E+04  0.00000000000E+00 0.  1.
    9000005    2    1    2  501    0  0.27893594916E+02 -0.19319948236E+02 -0.79954756145E+03  0.80028762731E+03  0.57157999079E+01 0.  0.
         13    1    3    3    0    0  0.14923041886E+02 -0.12802866812E+02 -0.41341260825E+03  0.41387992853E+03  0.00000000000E+00 0.  1.
          1    1    3    3  501    0  0.12970553031E+02 -0.65170814242E+01 -0.38613495320E+03  0.38640769878E+03  0.00000000000E+00 0.  1.
         -1    1    1    2    0  502 -0.27893594916E+02  0.19319948236E+02 -0.19864385705E+03  0.20152095420E+03  0.00000000000E+00 0. -1.
<mgrwt>
<rscale>  1 0.30000000E+03</rscale>
<asrwt>0</asrwt>
<pdfrwt beam="1">  1       21 0.65766739E-02 0.30000000E+03</pdfrwt>
<pdfrwt beam="2">0</pdfrwt>
<totfact> 0.17981095E+04</totfact>
</mgrwt>
</event>
<event>
 6    1  0.1198667E-001  0.3000000E+03  0.7818608E-02  0.1093470E+00
         21   -1    0    0  501  502  0.00000000000E+00  0.00000000000E+00  0.10934028539E+01  0.10934028539E+01  0.00000000000E+00 0. -1.
         13   -1    0    0    0    0 -0.00000000000E+00 -0.00000000000E+00 -0.10000000000E+04  0.10000000000E+04  0.00000000000E+00 0.  1.
    9000005    2    1    2  501    0  0.17757615485E+02 -0.25316246899E+02 -0.67559205964E+03  0.67630341621E+03  0.23311921628E+01 0.  0.
         13    1    3    3    0    0  0.54006880742E+01 -0.63882447760E+01 -0.19838411964E+03  0.19856040901E+03  0.00000000000E+00 0.  1.
          3    1    3    3  501    0  0.12356927411E+02 -0.18928002123E+02 -0.47720794001E+03  0.47774300720E+03  0.00000000000E+00 0.  1.
         -1    1    1    2    0  502 -0.17757615485E+02  0.25316246899E+02 -0.32331453750E+03  0.32478998664E+03  0.00000000000E+00 0. -1.
<mgrwt>
<rscale>  1 0.30000000E+03</rscale>
<asrwt>0</asrwt>
<pdfrwt beam="1">  1       21 0.39760188E-02 0.30000000E+03</pdfrwt>
<pdfrwt beam="2">0</pdfrwt>
<totfact> 0.42475222E+04</totfact>
</mgrwt>
</event>
<event>
 6    1  0.1198667E-001  0.3000000E+03  0.7818608E-02  0.1093470E+00
         21   -1    0    0  501  502  0.00000000000E+00  0.00000000000E+00  0.22455436721E+01  0.22455436721E+01  0.00000000000E+00 0. -1.
         13   -1    0    0    0    0 -0.00000000000E+00 -0.00000000000E+00 -0.10000000000E+04  0.10000000000E+04  0.00000000000E+00 0.  1.
    9000005    2    1    2  501    0 -0.93731655932E+01 -0.29755354076E+02 -0.87584168540E+03  0.87640452871E+03  0.36059317342E+01 0.  0.
         13    1    3    3    0    0 -0.39277982896E+01 -0.14564687103E+02 -0.47045092776E+03  0.47069271626E+03  0.00000000000E+00 0.  1.
          3    1    3    3  501    0 -0.54453673036E+01 -0.15190666973E+02 -0.40539075764E+03  0.40571181246E+03  0.00000000000E+00 0.  1.
         -1    1    1    2    0  502  0.93731655932E+01  0.29755354076E+02 -0.12191277093E+03  0.12584101496E+03  0.00000000000E+00 0. -1.
<mgrwt>
<rscale>  1 0.30000000E+03</rscale>
<asrwt>0</asrwt>
<pdfrwt beam="1">  1       21 0.81656306E-02 0.30000000E+03</pdfrwt>
<pdfrwt beam="2">0</pdfrwt>
<totfact> 0.12321995E+04</totfact>
</mgrwt>
</event>
<event>
 6    1  0.1198667E-001  0.3000000E+03  0.7818608E-02  0.1093470E+00
         21   -1    0    0  501  502  0.00000000000E+00  0.00000000000E+00  0.30482543203E+01  0.30482543203E+01  0.00000000000E+00 0. -1.
         13   -1    0    0    0    0 -0.00000000000E+00 -0.00000000000E+00 -0.10000000000E+04  0.10000000000E+04  0.00000000000E+00 0.  1.
    9000005    2    1    2  501    0  0.43693335302E+01 -0.33184144046E+02 -0.89721790542E+03  0.89784788653E+03  0.32525431774E+01 0.  0.
         13    1    3    3    0    0  0.37101637227E+01 -0.32122694814E+02 -0.85418477251E+03  0.85479661817E+03  0.00000000000E+00 0.  1.
          1    1    3    3  501    0  0.65916980749E+00 -0.10614492324E+01 -0.43033132912E+02  0.43051268361E+02  0.00000000000E+00 0.  1.
         -3    1    1    2    0  502 -0.43693335302E+01  0.33184144046E+02 -0.99733840256E+02  0.10520036779E+03  0.00000000000E+00 0. -1.
<mgrwt>
<rscale>  1 0.30000000E+03</rscale>
<asrwt>0</asrwt>
<pdfrwt beam="1">  1       21 0.11084585E-01 0.30000000E+03</pdfrwt>
<pdfrwt beam="2">0</pdfrwt>
<totfact> 0.71527318E+03</totfact>
</mgrwt>
</event>
<event>
 6    1  0.1198667E-001  0.3000000E+03  0.7818608E-02  0.1093470E+00
         21   -1    0    0  501  502  0.00000000000E+00  0.00000000000E+00  0.18141935259E+01  0.18141935259E+01  0.00000000000E+00 0. -1.
         13   -1    0    0    0    0 -0.00000000000E+00 -0.00000000000E+00 -0.10000000000E+04  0.10000000000E+04  0.00000000000E+00 0.  1.
    9000005    2    1    2  501    0 -0.27795075407E+02 -0.31810232270E+02 -0.44232994255E+03  0.44435549680E+03  0.34018183637E+01 0.  0.
         13    1    3    3    0    0 -0.16135999393E+01 -0.17680613529E+01 -0.34647503090E+02  0.34730090931E+02  0.00000000000E+00 0.  1.
          3    1    3    3  501    0 -0.26181475468E+02 -0.30042170917E+02 -0.40768243946E+03  0.40962540587E+03  0.00000000000E+00 0.  1.
         -3    1    1    2    0  502  0.27795075407E+02  0.31810232270E+02 -0.55585586392E+03  0.55745869672E+03  0.00000000000E+00 0. -1.
<mgrwt>
<rscale>  1 0.30000000E+03</rscale>
<asrwt>0</asrwt>
<pdfrwt beam="1">  1       21 0.65970813E-02 0.30000000E+03</pdfrwt>
<pdfrwt beam="2">0</pdfrwt>
<totfact> 0.17884822E+04</totfact>
</mgrwt>
</event>
<event>
 6    1  0.1198667E-001  0.3000000E+03  0.7818608E-02  0.1093470E+00
         21   -1    0    0  501  502  0.00000000000E+00  0.00000000000E+00  0.14692994593E+01  0.14692994593E+01  0.00000000000E+00 0. -1.
         13   -1    0    0    0    0 -0.00000000000E+00 -0.00000000000E+00 -0.10000000000E+04  0.10000000000E+04  0.00000000000E+00 0.  1.
    9000005    2    1    2  501    0 -0.27313246535E+02  0.26491997061E+02 -0.44892381089E+03  0.45054682534E+03  0.34661924697E+01 0.  0.
         13    1    3    3    0    0 -0.19366748607E+02  0.17084290616E+02 -0.31626483051E+03  0.31731748605E+03  0.00000000000E+00 0.  1.
          3    1    3    3  501    0 -0.79464979284E+01  0.94077064447E+01 -0.13265898038E+03  0.13322933928E+03  0.00000000000E+00 0.  1.
         -1    1    1    2    0  502  0.27313246535E+02 -0.26491997061E+02 -0.54960688965E+03  0.55092247412E+03  0.00000000000E+00 0. -1.
<mgrwt>
<rscale>  1 0.30000000E+03</rscale>
<asrwt>0</asrwt>
<pdfrwt beam="1">  1       21 0.53429184E-02 0.30000000E+03</pdfrwt>
<pdfrwt beam="2">0</pdfrwt>
<totfact> 0.25719535E+04</totfact>
</mgrwt>
</event>
<event>
 6    1  0.1198667E-001  0.3000000E+03  0.7818608E-02  0.1093470E+00
         21   -1    0    0  501  502  0.00000000000E+00  0.00000000000E+00  0.23431384701E+01  0.23431384701E+01  0.00000000000E+00 0. -1.
         13   -1    0    0    0    0 -0.00000000000E+00 -0.00000000000E+00 -0.10000000000E+04  0.10000000000E+04  0.00000000000E+00 0.  1.
    9000005    2    1    2  501    0  0.42505617807E+02  0.20613617544E+02 -0.60547052086E+03  0.60732190540E+03  0.37008602714E+01 0.  0.
         13    1    3    3    0    0  0.19360455935E+02  0.97549468164E+01 -0.25472081082E+03  0.25564169790E+03  0.00000000000E+00 0.  1.
          1    1    3    3  501    0  0.23145161872E+02  0.10858670728E+02 -0.35074971004E+03  0.35168020749E+03  0.00000000000E+00 0.  1.
         -3    1    1    2    0  502 -0.42505617807E+02 -0.20613617544E+02 -0.39218634067E+03  0.39502123307E+03  0.00000000000E+00 0. -1.
<mgrwt>
<rscale>  1 0.30000000E+03</rscale>
<asrwt>0</asrwt>
<pdfrwt beam="1">  1       21 0.85205215E-02 0.30000000E+03</pdfrwt>
<pdfrwt beam="2">0</pdfrwt>
<totfact> 0.11432541E+04</totfact>
</mgrwt>
</event>
<event>
 6    1  0.1198667E-001  0.3000000E+03  0.7818608E-02  0.1093470E+00
         21   -1    0    0  501  502  0.00000000000E+00  0.00000000000E+00  0.10086574830E+01  0.10086574830E+01  0.00000000000E+00 0. -1.
         13   -1    0    0    0    0 -0.00000000000E+00 -0.00000000000E+00 -0.10000000000E+04  0.10000000000E+04  0.00000000000E+00 0.  1.
    9000005    2    1    2  501    0 -0.25041751354E+02 -0.17138717555E+02 -0.60548882874E+03  0.60633784111E+03  0.10393790389E+02 0.  0.
         13    1    3    3    0    0 -0.12378465234E+02 -0.10878797517E+02 -0.23345071831E+03  0.23403164853E+03  0.00000000000E+00 0.  1.
          3    1    3    3  501    0 -0.12663286120E+02 -0.62599200382E+01 -0.37203811044E+03  0.37230619258E+03  0.00000000000E+00 0.  1.
         -3    1    1    2    0  502  0.25041751354E+02  0.17138717555E+02 -0.39350251377E+03  0.39467081637E+03  0.00000000000E+00 0. -1.
<mgrwt>
<rscale>  1 0.30000000E+03</rscale>
<asrwt>0</asrwt>
<pdfrwt beam="1">  1       21 0.36678531E-02 0.30000000E+03</pdfrwt>
<pdfrwt beam="2">0</pdfrwt>
<totfact> 0.48642596E+04</totfact>
</mgrwt>
</event>
<event>
 6    1  0.1198667E-001  0.3000000E+03  0.7818608E-02  0.1093470E+00
         21   -1    0    0  501  502  0.00000000000E+00  0.00000000000E+00  0.49996270883E+01  0.49996270883E+01  0.00000000000E+00 0. -1.
         13   -1    0    0    0    0 -0.00000000000E+00 -0.00000000000E+00 -0.10000000000E+04  0.10000000000E+04  0.00000000000E+00 0.  1.
    9000005    2    1    2  501    0 -0.32468466777E+02  0.41722260197E+02 -0.16490806929E+03  0.17322551059E+03  0.41782621051E+01 0.  0.
         13    1    3    3    0    0 -0.30584188470E+02  0.40622980242E+02 -0.15784852829E+03  0.16583659726E+03  0.00000000000E+00 0.  1.
          1    1    3    3  501    0 -0.18842783077E+01  0.10992799553E+01 -0.70595409997E+01  0.73889133360E+01  0.00000000000E+00 0.  1.
         -3    1    1    2    0  502  0.32468466777E+02 -0.41722260197E+02 -0.83009230363E+03  0.83177411649E+03  0.00000000000E+00 0. -1.
<mgrwt>
<rscale>  1 0.30000000E+03</rscale>
<asrwt>0</asrwt>
<pdfrwt beam="1">  1       21 0.18180500E-01 0.30000000E+03</pdfrwt>
<pdfrwt beam="2">0</pdfrwt>
<totfact> 0.28749836E+03</totfact>
</mgrwt>
</event>
<event>
 6    1  0.1198667E-001  0.3000000E+03  0.7818608E-02  0.1093470E+00
         21   -1    0    0  501  502  0.00000000000E+00  0.00000000000E+00  0.12202385165E+01  0.12202385165E+01  0.00000000000E+00 0. -1.
         13   -1    0    0    0    0 -0.00000000000E+00 -0.00000000000E+00 -0.10000000000E+04  0.10000000000E+04  0.00000000000E+00 0.  1.
    9000005    2    1    2  501    0  0.18775172426E+02  0.28783229406E+02 -0.45635878992E+03  0.45771173648E+03  0.74637242102E+01 0.  0.
         13    1    3    3    0    0  0.50051309943E+01  0.45246213524E+01 -0.12449583288E+03  0.12467853038E+03  0.00000000000E+00 0.  1.
          1    1    3    3  501    0  0.13770041432E+02  0.24258608053E+02 -0.33186295704E+03  0.33303320610E+03  0.00000000000E+00 0.  1.
         -1    1    1    2    0  502 -0.18775172426E+02 -0.28783229406E+02 -0.54242097156E+03  0.54350850204E+03  0.00000000000E+00 0. -1.
<mgrwt>
<rscale>  1 0.30000000E+03</rscale>
<asrwt>0</asrwt>
<pdfrwt beam="1">  1       21 0.44372403E-02 0.30000000E+03</pdfrwt>
<pdfrwt beam="2">0</pdfrwt>
<totfact> 0.35288815E+04</totfact>
</mgrwt>
</event>
<event>
 6    1  0.1198667E-001  0.3000000E+03  0.7818608E-02  0.1093470E+00
         21   -1    0    0  501  502  0.00000000000E+00  0.00000000000E+00  0.34516519331E+01  0.34516519331E+01  0.00000000000E+00 0. -1.
         13   -1    0    0    0    0 -0.00000000000E+00 -0.00000000000E+00 -0.10000000000E+04  0.10000000000E+04  0.00000000000E+00 0.  1.
    9000005    2    1    2  501    0 -0.33057431793E+02  0.27542972669E+02 -0.83973465493E+03  0.84084186288E+03  0.30559030946E+01 0.  0.
         13    1    3    3    0    0 -0.10954952223E+02  0.90112794621E+01 -0.30550408349E+03  0.30583322116E+03  0.00000000000E+00 0.  1.
          1    1    3    3  501    0 -0.22102479570E+02  0.18531693206E+02 -0.53423057143E+03  0.53500864172E+03  0.00000000000E+00 0.  1.
         -3    1    1    2    0  502  0.33057431793E+02 -0.27542972669E+02 -0.15681369314E+03  0.16260978906E+03  0.00000000000E+00 0. -1.
<mgrwt>
<rscale>  1 0.30000000E+03</rscale>
<asrwt>0</asrwt>
<pdfrwt beam="1">  1       21 0.12551488E-01 0.30000000E+03</pdfrwt>
<pdfrwt beam="2">0</pdfrwt>
<totfact> 0.57107721E+03</totfact>
</mgrwt>
</event>
<event>
 6    1  0.1198667E-001  0.3000000E+03  0.7818608E-02  0.1093470E+00
         21   -1    0    0  501  502  0.00000000000E+00  0.00000000000E+00  0.30407594942E+01  0.30407594942E+01  0.00000000000E+00 0. -1.
         13   -1    0    0    0    0 -0.00000000000E+00 -0.00000000000E+00 -0.10000000000E+04  0.10000000000E+04  0.00000000000E+00 0.  1.
    9000005    2    1    2  501    0 -0.53472775172E+01  0.41509607299E+02 -0.82474836915E+03  0.82581710112E+03  0.35172729321E+01 0.  0.
         13    1    3    3    0    0 -0.24267005430E+01  0.12451259345E+02 -0.27804659245E+03  0.27833582290E+03  0.00000000000E+00 0.  1.
          3    1    3    3  501    0 -0.29205769742E+01  0.29058347954E+02 -0.54670177670E+03  0.54748127822E+03  0.00000000000E+00 0.  1.
         -1    1    1    2    0  502  0.53472775172E+01 -0.41509607299E+02 -0.17221087135E+03  0.17722365837E+03  0.00000000000E+00 0. -1.
<mgrwt>
<rscale>  1 0.30000000E+03</rscale>
<asrwt>0</asrwt>
<pdfrwt beam="1">  1       21 0.11057331E-01 0.30000000E+03</pdfrwt>
<pdfrwt beam="2">0</pdfrwt>
<totfact> 0.71844994E+03</totfact>
</mgrwt>
</event>
<event>
 6    1  0.1198667E-001  0.3000000E+03  0.7818608E-02  0.1093470E+00
         21   -1    0    0  501  502  0.00000000000E+00  0.00000000000E+00  0.20281756176E+01  0.20281756176E+01  0.00000000000E+00 0. -1.
         13   -1    0    0    0    0 -0.00000000000E+00 -0.00000000000E+00 -0.10000000000E+04  0.10000000000E+04  0.00000000000E+00 0.  1.
    9000005    2    1    2  501    0 -0.44444591491E+02  0.69103433800E+01 -0.50516493285E+03  0.50717293729E+03  0.31151853313E+01 0.  0.
         13    1    3    3    0    0 -0.14424801260E+02  0.91720381246E+00 -0.15500887213E+03  0.15568129815E+03  0.00000000000E+00 0.  1.
          3    1    3    3  501    0 -0.30019790231E+02  0.59931395676E+01 -0.35015606071E+03  0.35149163913E+03  0.00000000000E+00 0.  1.
         -3    1    1    2    0  502  0.44444591491E+02 -0.69103433800E+01 -0.49280689153E+03  0.49485523833E+03  0.00000000000E+00 0. -1.
<mgrwt>
<rscale>  1 0.30000000E+03</rscale>
<asrwt>0</asrwt>
<pdfrwt beam="1">  1       21 0.73751996E-02 0.30000000E+03</pdfrwt>
<pdfrwt beam="2">0</pdfrwt>
<totfact> 0.14730715E+04</totfact>
</mgrwt>
</event>
<event>
 6    1  0.1198667E-001  0.3000000E+03  0.7818608E-02  0.1093470E+00
         21   -1    0    0  501  502  0.00000000000E+00  0.00000000000E+00  0.12629505932E+02  0.12629505932E+02  0.00000000000E+00 0. -1.
         13   -1    0    0    0    0 -0.00000000000E+00 -0.00000000000E+00 -0.10000000000E+04  0.10000000000E+04  0.00000000000E+00 0.  1.
    9000005    2    1    2  501    0  0.32786257215E+01 -0.42749519238E+02 -0.96168842530E+03  0.96265111623E+03  0.37780187605E+01 0.  0.
         13    1    3    3    0    0  0.14605028857E+01 -0.15894248238E+02 -0.39941715596E+03  0.39973594368E+03  0.00000000000E+00 0.  1.
          3    1    3    3  501    0  0.18181228358E+01 -0.26855271000E+02 -0.56227126935E+03  0.56291517255E+03  0.00000000000E+00 0.  1.
         -3    1    1    2    0  502 -0.32786257215E+01  0.42749519238E+02 -0.25682068765E+02  0.49978389707E+02  0.00000000000E+00 0. -1.
<mgrwt>
<rscale>  1 0.30000000E+03</rscale>
<asrwt>0</asrwt>
<pdfrwt beam="1">  1       21 0.45925573E-01 0.30000000E+03</pdfrwt>
<pdfrwt beam="2">0</pdfrwt>
<totfact> 0.45108504E+02</totfact>
</mgrwt>
</event>
<event>
 6    1  0.1198667E-001  0.3000000E+03  0.7818608E-02  0.1093470E+00
         21   -1    0    0  501  502  0.00000000000E+00  0.00000000000E+00  0.24262408873E+01  0.24262408873E+01  0.00000000000E+00 0. -1.
         13   -1    0    0    0    0 -0.00000000000E+00 -0.00000000000E+00 -0.10000000000E+04  0.10000000000E+04  0.00000000000E+00 0.  1.
    9000005    2    1    2  501    0 -0.22805195465E+02 -0.41029452580E+02 -0.34946152846E+03  0.35261630218E+03  0.33769470499E+01 0.  0.
         13    1    3    3    0    0 -0.14487273234E+02 -0.27887146253E+02 -0.24344453637E+03  0.24546449092E+03  0.00000000000E+00 0.  1.
          1    1    3    3  501    0 -0.83179222302E+01 -0.13142306327E+02 -0.10601699209E+03  0.10715181127E+03  0.00000000000E+00 0.  1.
         -3    1    1    2    0  502  0.22805195465E+02  0.41029452580E+02 -0.64811223065E+03  0.64980993870E+03  0.00000000000E+00 0. -1.
<mgrwt>
<rscale>  1 0.30000000E+03</rscale>
<asrwt>0</asrwt>
<pdfrwt beam="1">  1       21 0.88227127E-02 0.30000000E+03</pdfrwt>
<pdfrwt beam="2">0</pdfrwt>
<totfact> 0.10750079E+04</totfact>
</mgrwt>
</event>
<event>
 6    1  0.1198667E-001  0.3000000E+03  0.7818608E-02  0.1093470E+00
         21   -1    0    0  501  502  0.00000000000E+00  0.00000000000E+00  0.27293958166E+01  0.27293958166E+01  0.00000000000E+00 0. -1.
         13   -1    0    0    0    0 -0.00000000000E+00 -0.00000000000E+00 -0.10000000000E+04  0.10000000000E+04  0.00000000000E+00 0.  1.
    9000005    2    1    2  501    0  0.40188285603E+02 -0.33217541871E+02 -0.52359260534E+03  0.52619046774E+03  0.29476400810E+01 0.  0.
         13    1    3    3    0    0  0.70519037740E+01 -0.49364580979E+01 -0.95303914486E+02  0.95691870511E+02  0.00000000000E+00 0.  1.
          1    1    3    3  501    0  0.33136381829E+02 -0.28281083774E+02 -0.42828869086E+03  0.43049859723E+03  0.00000000000E+00 0.  1.
         -1    1    1    2    0  502 -0.40188285603E+02  0.33217541871E+02 -0.47367799884E+03  0.47653892808E+03  0.00000000000E+00 0. -1.
<mgrwt>
<rscale>  1 0.30000000E+03</rscale>
<asrwt>0</asrwt>
<pdfrwt beam="1">  1       21 0.99250966E-02 0.30000000E+03</pdfrwt>
<pdfrwt beam="2">0</pdfrwt>
<totfact> 0.87195302E+03</totfact>
</mgrwt>
</event>
<event>
 6    1  0.1198667E-001  0.3000000E+03  0.7818608E-02  0.1093470E+00
         21   -1    0    0  501  502  0.00000000000E+00  0.00000000000E+00  0.65800371858E+01  0.65800371858E+01  0.00000000000E+00 0. -1.
         13   -1    0    0    0    0 -0.00000000000E+00 -0.00000000000E+00 -0.10000000000E+04  0.10000000000E+04  0.00000000000E+00 0.  1.
    9000005    2    1    2  501    0 -0.23730659389E+02 -0.18719134921E+02 -0.96374366640E+03  0.96422165223E+03  0.28266401093E+01 0.  0.
         13    1    3    3    0    0 -0.12114238665E+02 -0.11335831853E+02 -0.53196299675E+03  0.53222165098E+03  0.00000000000E+00 0.  1.
          1    1    3    3  501    0 -0.11616420724E+02 -0.73833030683E+01 -0.43178066965E+03  0.43200000125E+03  0.00000000000E+00 0.  1.
         -3    1    1    2    0  502  0.23730659389E+02  0.18719134921E+02 -0.29676296412E+02  0.42358384954E+02  0.00000000000E+00 0. -1.
<mgrwt>
<rscale>  1 0.30000000E+03</rscale>
<asrwt>0</asrwt>
<pdfrwt beam="1">  1       21 0.23927458E-01 0.30000000E+03</pdfrwt>
<pdfrwt beam="2">0</pdfrwt>
<totfact> 0.16988814E+03</totfact>
</mgrwt>
</event>
<event>
 6    1  0.1198667E-001  0.3000000E+03  0.7818608E-02  0.1093470E+00
         21   -1    0    0  501  502  0.00000000000E+00  0.00000000000E+00  0.26342644648E+01  0.26342644648E+01  0.00000000000E+00 0. -1.
         13   -1    0    0    0    0 -0.00000000000E+00 -0.00000000000E+00 -0.10000000000E+04  0.10000000000E+04  0.00000000000E+00 0.  1.
    9000005    2    1    2  501    0 -0.21820773564E+02 -0.37812714777E+02 -0.76031776653E+03  0.76159964627E+03  0.67057843160E+01 0.  0.
         13    1    3    3    0    0 -0.12531759478E+02 -0.22405448216E+02 -0.38889038002E+03  0.38973680450E+03  0.00000000000E+00 0.  1.
          3    1    3    3  501    0 -0.92890140858E+01 -0.15407266561E+02 -0.37142738651E+03  0.37186284177E+03  0.00000000000E+00 0.  1.
         -3    1    1    2    0  502  0.21820773564E+02  0.37812714777E+02 -0.23704796901E+03  0.24103461819E+03  0.00000000000E+00 0. -1.
<mgrwt>
<rscale>  1 0.30000000E+03</rscale>
<asrwt>0</asrwt>
<pdfrwt beam="1">  1       21 0.95791637E-02 0.30000000E+03</pdfrwt>
<pdfrwt beam="2">0</pdfrwt>
<totfact> 0.92893246E+03</totfact>
</mgrwt>
</event>
<event>
 6    1  0.1198667E-001  0.3000000E+03  0.7818608E-02  0.1093470E+00
         21   -1    0    0  501  502  0.00000000000E+00  0.00000000000E+00  0.53612688245E+01  0.53612688245E+01  0.00000000000E+00 0. -1.
         13   -1    0    0    0    0 -0.00000000000E+00 -0.00000000000E+00 -0.10000000000E+04  0.10000000000E+04  0.00000000000E+00 0.  1.
    9000005    2    1    2  501    0  0.49608762405E+02 -0.10802415804E+02 -0.85942321914E+03  0.86092804484E+03  0.33327625711E+01 0.  0.
         13    1    3    3    0    0  0.41646712952E+02 -0.10260789220E+02 -0.71896549954E+03  0.72024379347E+03  0.00000000000E+00 0.  1.
          1    1    3    3  501    0  0.79620494531E+01 -0.54162658370E+00 -0.14045771960E+03  0.14068425138E+03  0.00000000000E+00 0.  1.
         -3    1    1    2    0  502 -0.49608762405E+02  0.10802415804E+02 -0.13521551203E+03  0.14443322398E+03  0.00000000000E+00 0. -1.
<mgrwt>
<rscale>  1 0.30000000E+03</rscale>
<asrwt>0</asrwt>
<pdfrwt beam="1">  1       21 0.19495564E-01 0.30000000E+03</pdfrwt>
<pdfrwt beam="2">0</pdfrwt>
<totfact> 0.25188918E+03</totfact>
</mgrwt>
</event>
<event>
 6    1  0.1198667E-001  0.3000000E+03  0.7818608E-02  0.1093470E+00
         21   -1    0    0  501  502  0.00000000000E+00  0.00000000000E+00  0.19720723041E+02  0.19720723041E+02  0.00000000000E+00 0. -1.
         13   -1    0    0    0    0 -0.00000000000E+00 -0.00000000000E+00 -0.10000000000E+04  0.10000000000E+04  0.00000000000E+00 0.  1.
    9000005    2    1    2  501    0 -0.14165122433E+02  0.36391043652E+02 -0.97988476481E+03  0.98066801006E+03  0.32611189874E+01 0.  0.
         13    1    3    3    0    0 -0.62018647648E+01  0.14922072187E+02 -0.44510299215E+03  0.44539623369E+03  0.00000000000E+00 0.  1.
          3    1    3    3  501    0 -0.79632576678E+01  0.21468971465E+02 -0.53478177266E+03  0.53527177637E+03  0.00000000000E+00 0.  1.
         -3    1    1    2    0  502  0.14165122433E+02 -0.36391043652E+02 -0.39451215176E+00  0.39052712984E+02  0.00000000000E+00 0. -1.
<mgrwt>
<rscale>  1 0.30000000E+03</rscale>
<asrwt>0</asrwt>
<pdfrwt beam="1">  1       21 0.71711871E-01 0.30000000E+03</pdfrwt>
<pdfrwt beam="2">0</pdfrwt>
<totfact> 0.16673012E+02</totfact>
</mgrwt>
</event>
<event>
 6    1  0.1198667E-001  0.3000000E+03  0.7818608E-02  0.1093470E+00
         21   -1    0    0  501  502  0.00000000000E+00  0.00000000000E+00  0.24766640815E+01  0.24766640815E+01  0.00000000000E+00 0. -1.
         13   -1    0    0    0    0 -0.00000000000E+00 -0.00000000000E+00 -0.10000000000E+04  0.10000000000E+04  0.00000000000E+00 0.  1.
    9000005    2    1    2  501    0 -0.28424754105E+02  0.35156343971E+02 -0.70751585972E+03  0.70896640631E+03  0.32769422091E+01 0.  0.
         13    1    3    3    0    0 -0.13215012425E+02  0.18805274816E+02 -0.35042041398E+03  0.35117337805E+03  0.00000000000E+00 0.  1.
          1    1    3    3  501    0 -0.15209741680E+02  0.16351069156E+02 -0.35709544574E+03  0.35779302826E+03  0.00000000000E+00 0.  1.
         -3    1    1    2    0  502  0.28424754105E+02 -0.35156343971E+02 -0.29000747619E+03  0.29351025777E+03  0.00000000000E+00 0. -1.
<mgrwt>
<rscale>  1 0.30000000E+03</rscale>
<asrwt>0</asrwt>
<pdfrwt beam="1">  1       21 0.90060702E-02 0.30000000E+03</pdfrwt>
<pdfrwt beam="2">0</pdfrwt>
<totfact> 0.10365700E+04</totfact>
</mgrwt>
</event>
<event>
 6    1  0.1198667E-001  0.3000000E+03  0.7818608E-02  0.1093470E+00
         21   -1    0    0  501  502  0.00000000000E+00  0.00000000000E+00  0.14818026700E+01  0.14818026700E+01  0.00000000000E+00 0. -1.
         13   -1    0    0    0    0 -0.00000000000E+00 -0.00000000000E+00 -0.10000000000E+04  0.10000000000E+04  0.00000000000E+00 0.  1.
    9000005    2    1    2  501    0  0.88386518112E+01 -0.32830320699E+02 -0.73319916111E+03  0.73399321842E+03  0.30138201624E+01 0.  0.
         13    1    3    3    0    0 -0.85750360510E-01 -0.41216204795E-02 -0.41058112419E+01  0.41067086658E+01  0.00000000000E+00 0.  1.
          1    1    3    3  501    0  0.89244021717E+01 -0.32826199079E+02 -0.72909334986E+03  0.72988650975E+03  0.00000000000E+00 0.  1.
         -3    1    1    2    0  502 -0.88386518112E+01  0.32830320699E+02 -0.26531903622E+03  0.26748858425E+03  0.00000000000E+00 0. -1.
<mgrwt>
<rscale>  1 0.30000000E+03</rscale>
<asrwt>0</asrwt>
<pdfrwt beam="1">  1       21 0.53883847E-02 0.30000000E+03</pdfrwt>
<pdfrwt beam="2">0</pdfrwt>
<totfact> 0.25349184E+04</totfact>
</mgrwt>
</event>
<event>
 6    1  0.1198667E-001  0.3000000E+03  0.7818608E-02  0.1093470E+00
         21   -1    0    0  501  502  0.00000000000E+00  0.00000000000E+00  0.23931149594E+01  0.23931149594E+01  0.00000000000E+00 0. -1.
         13   -1    0    0    0    0 -0.00000000000E+00 -0.00000000000E+00 -0.10000000000E+04  0.10000000000E+04  0.00000000000E+00 0.  1.
    9000005    2    1    2  501    0  0.56438568791E+01 -0.35372330579E+02 -0.83989584705E+03  0.84066548469E+03  0.32199926464E+01 0.  0.
         13    1    3    3    0    0  0.16806939958E+01 -0.69191181462E+01 -0.19541699607E+03  0.19554667289E+03  0.00000000000E+00 0.  1.
          3    1    3    3  501    0  0.39631628833E+01 -0.28453212433E+02 -0.64447885099E+03  0.64511881179E+03  0.00000000000E+00 0.  1.
         -3    1    1    2    0  502 -0.56438568791E+01  0.35372330579E+02 -0.15771103799E+03  0.16172763027E+03  0.00000000000E+00 0. -1.
<mgrwt>
<rscale>  1 0.30000000E+03</rscale>
<asrwt>0</asrwt>
<pdfrwt beam="1">  1       21 0.87022546E-02 0.30000000E+03</pdfrwt>
<pdfrwt beam="2">0</pdfrwt>
<totfact> 0.11014494E+04</totfact>
</mgrwt>
</event>
<event>
 6    1  0.1198667E-001  0.3000000E+03  0.7818608E-02  0.1093470E+00
         21   -1    0    0  501  502  0.00000000000E+00  0.00000000000E+00  0.26986534107E+01  0.26986534107E+01  0.00000000000E+00 0. -1.
         13   -1    0    0    0    0 -0.00000000000E+00 -0.00000000000E+00 -0.10000000000E+04  0.10000000000E+04  0.00000000000E+00 0.  1.
    9000005    2    1    2  501    0  0.37347976354E+02 -0.84986827929E+01 -0.83673101023E+03  0.83762311959E+03  0.51582989561E+01 0.  0.
         13    1    3    3    0    0  0.17728429086E+01  0.50056537700E+00 -0.28476202438E+02  0.28535725731E+02  0.00000000000E+00 0.  1.
          1    1    3    3  501    0  0.35575133445E+02 -0.89992481699E+01 -0.80825480779E+03  0.80908739386E+03  0.00000000000E+00 0.  1.
         -1    1    1    2    0  502 -0.37347976354E+02  0.84986827929E+01 -0.16057033636E+03  0.16507553382E+03  0.00000000000E+00 0. -1.
<mgrwt>
<rscale>  1 0.30000000E+03</rscale>
<asrwt>0</asrwt>
<pdfrwt beam="1">  1       21 0.98133058E-02 0.30000000E+03</pdfrwt>
<pdfrwt beam="2">0</pdfrwt>
<totfact> 0.88976755E+03</totfact>
</mgrwt>
</event>
<event>
 6    1  0.1198667E-001  0.3000000E+03  0.7818608E-02  0.1093470E+00
         21   -1    0    0  501  502  0.00000000000E+00  0.00000000000E+00  0.26069496595E+01  0.26069496595E+01  0.00000000000E+00 0. -1.
         13   -1    0    0    0    0 -0.00000000000E+00 -0.00000000000E+00 -0.10000000000E+04  0.10000000000E+04  0.00000000000E+00 0.  1.
    9000005    2    1    2  501    0  0.24249848507E+02 -0.25577297267E+02 -0.86120015929E+03  0.86192732476E+03  0.32780368828E+01 0.  0.
         13    1    3    3    0    0  0.18483152680E+02 -0.19869471256E+02 -0.69411608079E+03  0.69464635350E+03  0.00000000000E+00 0.  1.
          3    1    3    3  501    0  0.57666958264E+01 -0.57078260112E+01 -0.16708407850E+03  0.16728097126E+03  0.00000000000E+00 0.  1.
         -1    1    1    2    0  502 -0.24249848507E+02  0.25577297267E+02 -0.13619289105E+03  0.14067962490E+03  0.00000000000E+00 0. -1.
<mgrwt>
<rscale>  1 0.30000000E+03</rscale>
<asrwt>0</asrwt>
<pdfrwt beam="1">  1       21 0.94798369E-02 0.30000000E+03</pdfrwt>
<pdfrwt beam="2">0</pdfrwt>
<totfact> 0.94634696E+03</totfact>
</mgrwt>
</event>
<event>
 6    1  0.1198667E-001  0.3000000E+03  0.7818608E-02  0.1093470E+00
         21   -1    0    0  501  502  0.00000000000E+00  0.00000000000E+00  0.26224975187E+01  0.26224975187E+01  0.00000000000E+00 0. -1.
         13   -1    0    0    0    0 -0.00000000000E+00 -0.00000000000E+00 -0.10000000000E+04  0.10000000000E+04  0.00000000000E+00 0.  1.
    9000005    2    1    2  501    0 -0.25910151918E+02  0.41029498919E+02 -0.34023278267E+03  0.34368855658E+03  0.29532629529E+01 0.  0.
         13    1    3    3    0    0 -0.40919527484E+01  0.81143654248E+01 -0.69126536465E+02  0.69721338535E+02  0.00000000000E+00 0.  1.
          3    1    3    3  501    0 -0.21818199169E+02  0.32915133495E+02 -0.27110624621E+03  0.27396721804E+03  0.00000000000E+00 0.  1.
         -1    1    1    2    0  502  0.25910151918E+02 -0.41029498919E+02 -0.65714471981E+03  0.65893394094E+03  0.00000000000E+00 0. -1.
<mgrwt>
<rscale>  1 0.30000000E+03</rscale>
<asrwt>0</asrwt>
<pdfrwt beam="1">  1       21 0.95363747E-02 0.30000000E+03</pdfrwt>
<pdfrwt beam="2">0</pdfrwt>
<totfact> 0.93637475E+03</totfact>
</mgrwt>
</event>
<event>
 6    1  0.1198667E-001  0.3000000E+03  0.7818608E-02  0.1093470E+00
         21   -1    0    0  501  502  0.00000000000E+00  0.00000000000E+00  0.14088030559E+01  0.14088030559E+01  0.00000000000E+00 0. -1.
         13   -1    0    0    0    0 -0.00000000000E+00 -0.00000000000E+00 -0.10000000000E+04  0.10000000000E+04  0.00000000000E+00 0.  1.
    9000005    2    1    2  501    0 -0.27192840729E+02  0.16548306183E+02 -0.76334429091E+03  0.76401797799E+03  0.39581826970E+01 0.  0.
         13    1    3    3    0    0 -0.23268074212E+02  0.15353229444E+02 -0.68370042217E+03  0.68426850886E+03  0.00000000000E+00 0.  1.
          3    1    3    3  501    0 -0.39247665176E+01  0.11950767394E+01 -0.79643868735E+02  0.79749469137E+02  0.00000000000E+00 0.  1.
         -1    1    1    2    0  502  0.27192840729E+02 -0.16548306183E+02 -0.23524690604E+03  0.23739082506E+03  0.00000000000E+00 0. -1.
<mgrwt>
<rscale>  1 0.30000000E+03</rscale>
<asrwt>0</asrwt>
<pdfrwt beam="1">  1       21 0.51229310E-02 0.30000000E+03</pdfrwt>
<pdfrwt beam="2">0</pdfrwt>
<totfact> 0.27635620E+04</totfact>
</mgrwt>
</event>
<event>
 6    1  0.1198667E-001  0.3000000E+03  0.7818608E-02  0.1093470E+00
         21   -1    0    0  501  502  0.00000000000E+00  0.00000000000E+00  0.12114736003E+01  0.12114736003E+01  0.00000000000E+00 0. -1.
         13   -1    0    0    0    0 -0.00000000000E+00 -0.00000000000E+00 -0.10000000000E+04  0.10000000000E+04  0.00000000000E+00 0.  1.
    9000005    2    1    2  501    0  0.13345755844E+02  0.29703618416E+02 -0.67553580203E+03  0.67632266500E+03  0.18202232015E+01 0.  0.
         13    1    3    3    0    0  0.40414549871E+01  0.70814822716E+01 -0.16734292596E+03  0.16754144448E+03  0.00000000000E+00 0.  1.
          1    1    3    3  501    0  0.93043008565E+01  0.22622136144E+02 -0.50819287607E+03  0.50878122051E+03  0.00000000000E+00 0.  1.
         -3    1    1    2    0  502 -0.13345755844E+02 -0.29703618416E+02 -0.32325272437E+03  0.32488880860E+03  0.00000000000E+00 0. -1.
<mgrwt>
<rscale>  1 0.30000000E+03</rscale>
<asrwt>0</asrwt>
<pdfrwt beam="1">  1       21 0.44053678E-02 0.30000000E+03</pdfrwt>
<pdfrwt beam="2">0</pdfrwt>
<totfact> 0.35722546E+04</totfact>
</mgrwt>
</event>
<event>
 6    1  0.1198667E-001  0.3000000E+03  0.7818608E-02  0.1093470E+00
         21   -1    0    0  501  502  0.00000000000E+00  0.00000000000E+00  0.10294212760E+01  0.10294212760E+01  0.00000000000E+00 0. -1.
         13   -1    0    0    0    0 -0.00000000000E+00 -0.00000000000E+00 -0.10000000000E+04  0.10000000000E+04  0.00000000000E+00 0.  1.
    9000005    2    1    2  501    0  0.14292546694E+02 -0.27987703072E+02 -0.59477149722E+03  0.59561051951E+03  0.33419516124E+01 0.  0.
         13    1    3    3    0    0  0.74484462145E+01 -0.11796005720E+02 -0.24315475706E+03  0.24355463654E+03  0.00000000000E+00 0.  1.
          1    1    3    3  501    0  0.68441004790E+01 -0.16191697352E+02 -0.35161674016E+03  0.35205588297E+03  0.00000000000E+00 0.  1.
         -3    1    1    2    0  502 -0.14292546694E+02  0.27987703072E+02 -0.40419908151E+03  0.40541890176E+03  0.00000000000E+00 0. -1.
<mgrwt>
<rscale>  1 0.30000000E+03</rscale>
<asrwt>0</asrwt>
<pdfrwt beam="1">  1       21 0.37433580E-02 0.30000000E+03</pdfrwt>
<pdfrwt beam="2">0</pdfrwt>
<totfact> 0.47007000E+04</totfact>
</mgrwt>
</event>
<event>
 6    1  0.1198667E-001  0.3000000E+03  0.7818608E-02  0.1093470E+00
         21   -1    0    0  501  502  0.00000000000E+00  0.00000000000E+00  0.13102634161E+01  0.13102634161E+01  0.00000000000E+00 0. -1.
         13   -1    0    0    0    0 -0.00000000000E+00 -0.00000000000E+00 -0.10000000000E+04  0.10000000000E+04  0.00000000000E+00 0.  1.
    9000005    2    1    2  501    0  0.36004024663E+02 -0.13798200377E+01 -0.46493290883E+03  0.46633872692E+03  0.33173498057E+01 0.  0.
         13    1    3    3    0    0  0.17466129349E+02  0.98792371911E+00 -0.22575482639E+03  0.22643163053E+03  0.00000000000E+00 0.  1.
          1    1    3    3  501    0  0.18537895314E+02 -0.23677437568E+01 -0.23917808245E+03  0.23990709639E+03  0.00000000000E+00 0.  1.
         -3    1    1    2    0  502 -0.36004024663E+02  0.13798200377E+01 -0.53375682775E+03  0.53497153650E+03  0.00000000000E+00 0. -1.
<mgrwt>
<rscale>  1 0.30000000E+03</rscale>
<asrwt>0</asrwt>
<pdfrwt beam="1">  1       21 0.47646043E-02 0.30000000E+03</pdfrwt>
<pdfrwt beam="2">0</pdfrwt>
<totfact> 0.31269836E+04</totfact>
</mgrwt>
</event>
<event>
 6    1  0.1198667E-001  0.3000000E+03  0.7818608E-02  0.1093470E+00
         21   -1    0    0  501  502  0.00000000000E+00  0.00000000000E+00  0.96545845886E+00  0.96545845886E+00  0.00000000000E+00 0. -1.
         13   -1    0    0    0    0 -0.00000000000E+00 -0.00000000000E+00 -0.10000000000E+04  0.10000000000E+04  0.00000000000E+00 0.  1.
    9000005    2    1    2  501    0  0.22451569352E+02  0.21392210919E+02 -0.50122327559E+03  0.50218919984E+03  0.27424054986E+01 0.  0.
         13    1    3    3    0    0  0.15302240778E+02  0.13275100887E+02 -0.31192119210E+03  0.31257833731E+03  0.00000000000E+00 0.  1.
          1    1    3    3  501    0  0.71493285747E+01  0.81171100325E+01 -0.18930208349E+03  0.18961086252E+03  0.00000000000E+00 0.  1.
         -3    1    1    2    0  502 -0.22451569352E+02 -0.21392210919E+02 -0.49781126595E+03  0.49877625862E+03  0.00000000000E+00 0. -1.
<mgrwt>
<rscale>  1 0.30000000E+03</rscale>
<asrwt>0</asrwt>
<pdfrwt beam="1">  1       21 0.35107654E-02 0.30000000E+03</pdfrwt>
<pdfrwt beam="2">0</pdfrwt>
<totfact> 0.52346890E+04</totfact>
</mgrwt>
</event>
<event>
 6    1  0.1198667E-001  0.3000000E+03  0.7818608E-02  0.1093470E+00
         21   -1    0    0  501  502  0.00000000000E+00  0.00000000000E+00  0.18659222616E+01  0.18659222616E+01  0.00000000000E+00 0. -1.
         13   -1    0    0    0    0 -0.00000000000E+00 -0.00000000000E+00 -0.10000000000E+04  0.10000000000E+04  0.00000000000E+00 0.  1.
    9000005    2    1    2  501    0  0.25824788979E+02 -0.33125259282E+02 -0.60198058076E+03  0.60349198273E+03  0.75994132078E+01 0.  0.
         13    1    3    3    0    0  0.22010487269E+02 -0.26700763723E+02 -0.45035451479E+03  0.45168194708E+03  0.00000000000E+00 0.  1.
          1    1    3    3  501    0  0.38143017103E+01 -0.64244955591E+01 -0.15162606597E+03  0.15181003564E+03  0.00000000000E+00 0.  1.
         -3    1    1    2    0  502 -0.25824788979E+02  0.33125259282E+02 -0.39615349698E+03  0.39837393953E+03  0.00000000000E+00 0. -1.
<mgrwt>
<rscale>  1 0.30000000E+03</rscale>
<asrwt>0</asrwt>
<pdfrwt beam="1">  1       21 0.67851862E-02 0.30000000E+03</pdfrwt>
<pdfrwt beam="2">0</pdfrwt>
<totfact> 0.17033576E+04</totfact>
</mgrwt>
</event>
<event>
 6    1  0.1198667E-001  0.3000000E+03  0.7818608E-02  0.1093470E+00
         21   -1    0    0  501  502  0.00000000000E+00  0.00000000000E+00  0.17200003133E+01  0.17200003133E+01  0.00000000000E+00 0. -1.
         13   -1    0    0    0    0 -0.00000000000E+00 -0.00000000000E+00 -0.10000000000E+04  0.10000000000E+04  0.00000000000E+00 0.  1.
    9000005    2    1    2  501    0  0.34428025725E+02  0.22608737144E+02 -0.54925839200E+03  0.55081330473E+03  0.37512046910E+01 0.  0.
         13    1    3    3    0    0  0.30952491695E+01  0.86350824003E+00 -0.40287720285E+02  0.40415672946E+02  0.00000000000E+00 0.  1.
          1    1    3    3  501    0  0.31332776555E+02  0.21745228904E+02 -0.50897067172E+03  0.51039763179E+03  0.00000000000E+00 0.  1.
         -3    1    1    2    0  502 -0.34428025725E+02 -0.22608737144E+02 -0.44902160768E+03  0.45090669558E+03  0.00000000000E+00 0. -1.
<mgrwt>
<rscale>  1 0.30000000E+03</rscale>
<asrwt>0</asrwt>
<pdfrwt beam="1">  1       21 0.62545598E-02 0.30000000E+03</pdfrwt>
<pdfrwt beam="2">0</pdfrwt>
<totfact> 0.19613238E+04</totfact>
</mgrwt>
</event>
<event>
 6    1  0.1198667E-001  0.3000000E+03  0.7818608E-02  0.1093470E+00
         21   -1    0    0  501  502  0.00000000000E+00  0.00000000000E+00  0.10733579039E+01  0.10733579039E+01  0.00000000000E+00 0. -1.
         13   -1    0    0    0    0 -0.00000000000E+00 -0.00000000000E+00 -0.10000000000E+04  0.10000000000E+04  0.00000000000E+00 0.  1.
    9000005    2    1    2  501    0  0.21865696404E+02  0.23199329863E+02 -0.60493250507E+03  0.60579156273E+03  0.48748537066E+01 0.  0.
         13    1    3    3    0    0  0.92137375028E+00  0.32909147210E+00 -0.37066796147E+02  0.37079706140E+02  0.00000000000E+00 0.  1.
          1    1    3    3  501    0  0.20944322654E+02  0.22870238391E+02 -0.56786570893E+03  0.56871185659E+03  0.00000000000E+00 0.  1.
         -1    1    1    2    0  502 -0.21865696404E+02 -0.23199329863E+02 -0.39399413702E+03  0.39528179517E+03  0.00000000000E+00 0. -1.
<mgrwt>
<rscale>  1 0.30000000E+03</rscale>
<asrwt>0</asrwt>
<pdfrwt beam="1">  1       21 0.39031279E-02 0.30000000E+03</pdfrwt>
<pdfrwt beam="2">0</pdfrwt>
<totfact> 0.43818539E+04</totfact>
</mgrwt>
</event>
<event>
 6    1  0.1198667E-001  0.3000000E+03  0.7818608E-02  0.1093470E+00
         21   -1    0    0  501  502  0.00000000000E+00  0.00000000000E+00  0.11765311899E+01  0.11765311899E+01  0.00000000000E+00 0. -1.
         13   -1    0    0    0    0 -0.00000000000E+00 -0.00000000000E+00 -0.10000000000E+04  0.10000000000E+04  0.00000000000E+00 0.  1.
    9000005    2    1    2  501    0 -0.12810282929E+02  0.31233899337E+02 -0.57991568978E+03  0.58091067825E+03  0.39177842832E+01 0.  0.
         13    1    3    3    0    0 -0.90887047964E+01  0.19301576119E+02 -0.39148287726E+03  0.39206376852E+03  0.00000000000E+00 0.  1.
          1    1    3    3  501    0 -0.37215781324E+01  0.11932323218E+02 -0.18843281252E+03  0.18884690973E+03  0.00000000000E+00 0.  1.
         -3    1    1    2    0  502  0.12810282929E+02 -0.31233899337E+02 -0.41890777903E+03  0.42026585294E+03  0.00000000000E+00 0. -1.
<mgrwt>
<rscale>  1 0.30000000E+03</rscale>
<asrwt>0</asrwt>
<pdfrwt beam="1">  1       21 0.42783043E-02 0.30000000E+03</pdfrwt>
<pdfrwt beam="2">0</pdfrwt>
<totfact> 0.37536431E+04</totfact>
</mgrwt>
</event>
<event>
 6    1  0.1198667E-001  0.3000000E+03  0.7818608E-02  0.1093470E+00
         21   -1    0    0  501  502  0.00000000000E+00  0.00000000000E+00  0.35209788549E+01  0.35209788549E+01  0.00000000000E+00 0. -1.
         13   -1    0    0    0    0 -0.00000000000E+00 -0.00000000000E+00 -0.10000000000E+04  0.10000000000E+04  0.00000000000E+00 0.  1.
    9000005    2    1    2  501    0 -0.26441503544E+02 -0.16325691861E+02 -0.92563793478E+03  0.92616375009E+03  0.28327298207E+01 0.  0.
         13    1    3    3    0    0 -0.13827496404E+02 -0.69030434230E+01 -0.46647516617E+03  0.46673111351E+03  0.00000000000E+00 0.  1.
          3    1    3    3  501    0 -0.12614007139E+02 -0.94226484377E+01 -0.45916276861E+03  0.45943263658E+03  0.00000000000E+00 0.  1.
         -1    1    1    2    0  502  0.26441503544E+02  0.16325691861E+02 -0.70841086369E+02  0.77357228766E+02  0.00000000000E+00 0. -1.
<mgrwt>
<rscale>  1 0.30000000E+03</rscale>
<asrwt>0</asrwt>
<pdfrwt beam="1">  1       21 0.12803586E-01 0.30000000E+03</pdfrwt>
<pdfrwt beam="2">0</pdfrwt>
<totfact> 0.55074499E+03</totfact>
</mgrwt>
</event>
<event>
 6    1  0.1198667E-001  0.3000000E+03  0.7818608E-02  0.1093470E+00
         21   -1    0    0  501  502  0.00000000000E+00  0.00000000000E+00  0.12021613706E+01  0.12021613706E+01  0.00000000000E+00 0. -1.
         13   -1    0    0    0    0 -0.00000000000E+00 -0.00000000000E+00 -0.10000000000E+04  0.10000000000E+04  0.00000000000E+00 0.  1.
    9000005    2    1    2  501    0  0.17145105956E+02 -0.27054469640E+02 -0.68804211841E+03  0.68880015012E+03  0.42179509648E+01 0.  0.
         13    1    3    3    0    0  0.78921111664E+01 -0.16239741264E+02 -0.39592781927E+03  0.39633931509E+03  0.00000000000E+00 0.  1.
          1    1    3    3  501    0  0.92529947892E+01 -0.10814728377E+02 -0.29211429914E+03  0.29246083503E+03  0.00000000000E+00 0.  1.
         -3    1    1    2    0  502 -0.17145105956E+02  0.27054469640E+02 -0.31075572022E+03  0.31240201125E+03  0.00000000000E+00 0. -1.
<mgrwt>
<rscale>  1 0.30000000E+03</rscale>
<asrwt>0</asrwt>
<pdfrwt beam="1">  1       21 0.43715051E-02 0.30000000E+03</pdfrwt>
<pdfrwt beam="2">0</pdfrwt>
<totfact> 0.36192460E+04</totfact>
</mgrwt>
</event>
<event>
 6    1  0.1198667E-001  0.3000000E+03  0.7818608E-02  0.1093470E+00
         21   -1    0    0  501  502  0.00000000000E+00  0.00000000000E+00  0.14718567142E+01  0.14718567142E+01  0.00000000000E+00 0. -1.
         13   -1    0    0    0    0 -0.00000000000E+00 -0.00000000000E+00 -0.10000000000E+04  0.10000000000E+04  0.00000000000E+00 0.  1.
    9000005    2    1    2  501    0  0.40375481531E+01  0.33072676228E+02 -0.74356022979E+03  0.74433621037E+03  0.66689606436E+01 0.  0.
         13    1    3    3    0    0 -0.16477531712E+01  0.79613780179E+01 -0.20426433044E+03  0.20442606322E+03  0.00000000000E+00 0.  1.
          3    1    3    3  501    0  0.56853013243E+01  0.25111298210E+02 -0.53929589935E+03  0.53991014716E+03  0.00000000000E+00 0.  1.
         -3    1    1    2    0  502 -0.40375481531E+01 -0.33072676228E+02 -0.25496791349E+03  0.25713564634E+03  0.00000000000E+00 0. -1.
<mgrwt>
<rscale>  1 0.30000000E+03</rscale>
<asrwt>0</asrwt>
<pdfrwt beam="1">  1       21 0.53522175E-02 0.30000000E+03</pdfrwt>
<pdfrwt beam="2">0</pdfrwt>
<totfact> 0.25643111E+04</totfact>
</mgrwt>
</event>
<event>
 6    1  0.1198667E-001  0.3000000E+03  0.7818608E-02  0.1093470E+00
         21   -1    0    0  501  502  0.00000000000E+00  0.00000000000E+00  0.15649565897E+01  0.15649565897E+01  0.00000000000E+00 0. -1.
         13   -1    0    0    0    0 -0.00000000000E+00 -0.00000000000E+00 -0.10000000000E+04  0.10000000000E+04  0.00000000000E+00 0.  1.
    9000005    2    1    2  501    0  0.37868447823E+02  0.89262578628E+00 -0.36019638417E+03  0.36220324185E+03  0.38648568972E+01 0.  0.
         13    1    3    3    0    0  0.31138401656E+02  0.22140294424E+01 -0.29505331686E+03  0.29670012095E+03  0.00000000000E+00 0.  1.
          1    1    3    3  501    0  0.67300461667E+01 -0.13214036561E+01 -0.65143067313E+02  0.65503120903E+02  0.00000000000E+00 0.  1.
         -3    1    1    2    0  502 -0.37868447823E+02 -0.89262578628E+00 -0.63823865924E+03  0.63936171474E+03  0.00000000000E+00 0. -1.
<mgrwt>
<rscale>  1 0.30000000E+03</rscale>
<asrwt>0</asrwt>
<pdfrwt beam="1">  1       21 0.56907632E-02 0.30000000E+03</pdfrwt>
<pdfrwt beam="2">0</pdfrwt>
<totfact> 0.23082537E+04</totfact>
</mgrwt>
</event>
<event>
 6    1  0.1198667E-001  0.3000000E+03  0.7818608E-02  0.1093470E+00
         21   -1    0    0  501  502  0.00000000000E+00  0.00000000000E+00  0.59244407318E+01  0.59244407318E+01  0.00000000000E+00 0. -1.
         13   -1    0    0    0    0 -0.00000000000E+00 -0.00000000000E+00 -0.10000000000E+04  0.10000000000E+04  0.00000000000E+00 0.  1.
    9000005    2    1    2  501    0 -0.10748066548E+02 -0.34048607600E+02 -0.94258235747E+03  0.94326362007E+03  0.31508297250E+01 0.  0.
         13    1    3    3    0    0 -0.35165211804E+00 -0.45818436627E+01 -0.12341871158E+03  0.12350423198E+03  0.00000000000E+00 0.  1.
          1    1    3    3  501    0 -0.10396414430E+02 -0.29466763938E+02 -0.81916364589E+03  0.81975938809E+03  0.00000000000E+00 0.  1.
         -3    1    1    2    0  502  0.10748066548E+02  0.34048607600E+02 -0.51493201798E+02  0.62660820657E+02  0.00000000000E+00 0. -1.
<mgrwt>
<rscale>  1 0.30000000E+03</rscale>
<asrwt>0</asrwt>
<pdfrwt beam="1">  1       21 0.21543466E-01 0.30000000E+03</pdfrwt>
<pdfrwt beam="2">0</pdfrwt>
<totfact> 0.20808492E+03</totfact>
</mgrwt>
</event>
<event>
 6    1  0.1198667E-001  0.3000000E+03  0.7818608E-02  0.1093470E+00
         21   -1    0    0  501  502  0.00000000000E+00  0.00000000000E+00  0.42556601537E+01  0.42556601537E+01  0.00000000000E+00 0. -1.
         13   -1    0    0    0    0 -0.00000000000E+00 -0.00000000000E+00 -0.10000000000E+04  0.10000000000E+04  0.00000000000E+00 0.  1.
    9000005    2    1    2  501    0  0.32681147230E+02 -0.63610892633E+01 -0.92962984707E+03  0.93023102239E+03  0.30954180858E+01 0.  0.
         13    1    3    3    0    0  0.12829857197E+02 -0.22398957682E+01 -0.32300550213E+03  0.32326796435E+03  0.00000000000E+00 0.  1.
          3    1    3    3  501    0  0.19851290033E+02 -0.41211934952E+01 -0.60662434494E+03  0.60696305804E+03  0.00000000000E+00 0.  1.
         -1    1    1    2    0  502 -0.32681147230E+02  0.63610892633E+01 -0.66114492773E+02  0.74024637760E+02  0.00000000000E+00 0. -1.
<mgrwt>
<rscale>  1 0.30000000E+03</rscale>
<asrwt>0</asrwt>
<pdfrwt beam="1">  1       21 0.15475160E-01 0.30000000E+03</pdfrwt>
<pdfrwt beam="2">0</pdfrwt>
<totfact> 0.38866310E+03</totfact>
</mgrwt>
</event>
<event>
 6    1  0.1198667E-001  0.3000000E+03  0.7818608E-02  0.1093470E+00
         21   -1    0    0  501  502  0.00000000000E+00  0.00000000000E+00  0.45578240121E+01  0.45578240121E+01  0.00000000000E+00 0. -1.
         13   -1    0    0    0    0 -0.00000000000E+00 -0.00000000000E+00 -0.10000000000E+04  0.10000000000E+04  0.00000000000E+00 0.  1.
    9000005    2    1    2  501    0  0.35023288494E+02 -0.17006233536E+02 -0.90798323842E+03  0.90882429553E+03  0.34923014644E+01 0.  0.
         13    1    3    3    0    0  0.42846011552E+00 -0.38446560657E+00 -0.25973855395E+02  0.25980233948E+02  0.00000000000E+00 0.  1.
          1    1    3    3  501    0  0.34594828378E+02 -0.16621767929E+02 -0.88200938302E+03  0.88284406158E+03  0.00000000000E+00 0.  1.
         -3    1    1    2    0  502 -0.35023288494E+02  0.17006233536E+02 -0.87458937568E+02  0.95733528487E+02  0.00000000000E+00 0. -1.
<mgrwt>
<rscale>  1 0.30000000E+03</rscale>
<asrwt>0</asrwt>
<pdfrwt beam="1">  1       21 0.16573940E-01 0.30000000E+03</pdfrwt>
<pdfrwt beam="2">0</pdfrwt>
<totfact> 0.34201370E+03</totfact>
</mgrwt>
</event>
<event>
 6    1  0.1198667E-001  0.3000000E+03  0.7818608E-02  0.1093470E+00
         21   -1    0    0  501  502  0.00000000000E+00  0.00000000000E+00  0.15816994872E+01  0.15816994872E+01  0.00000000000E+00 0. -1.
         13   -1    0    0    0    0 -0.00000000000E+00 -0.00000000000E+00 -0.10000000000E+04  0.10000000000E+04  0.00000000000E+00 0.  1.
    9000005    2    1    2  501    0  0.67809922978E+01  0.34629457550E+02 -0.72888777518E+03  0.72975108077E+03  0.37509851303E+01 0.  0.
         13    1    3    3    0    0 -0.45089632822E-01  0.54407871777E+00 -0.51294187480E+01  0.51583903903E+01  0.00000000000E+00 0.  1.
          1    1    3    3  501    0  0.68260819306E+01  0.34085378832E+02 -0.72375835644E+03  0.72459269038E+03  0.00000000000E+00 0.  1.
         -1    1    1    2    0  502 -0.67809922978E+01 -0.34629457550E+02 -0.26953052533E+03  0.27183061871E+03  0.00000000000E+00 0. -1.
<mgrwt>
<rscale>  1 0.30000000E+03</rscale>
<asrwt>0</asrwt>
<pdfrwt beam="1">  1       21 0.57516466E-02 0.30000000E+03</pdfrwt>
<pdfrwt beam="2">0</pdfrwt>
<totfact> 0.22663861E+04</totfact>
</mgrwt>
</event>
<event>
 6    1  0.1198667E-001  0.3000000E+03  0.7818608E-02  0.1093470E+00
         21   -1    0    0  501  502  0.00000000000E+00  0.00000000000E+00  0.13317650839E+01  0.13317650839E+01  0.00000000000E+00 0. -1.
         13   -1    0    0    0    0 -0.00000000000E+00 -0.00000000000E+00 -0.10000000000E+04  0.10000000000E+04  0.00000000000E+00 0.  1.
    9000005    2    1    2  501    0  0.35747848636E+02  0.32788228283E+00 -0.56629758992E+03  0.56748571999E+03  0.83105869192E+01 0.  0.
         13    1    3    3    0    0  0.31220969256E+02 -0.24038058449E+01 -0.49828065978E+03  0.49926360083E+03  0.00000000000E+00 0.  1.
          1    1    3    3  501    0  0.45268793795E+01  0.27316881277E+01 -0.68016930141E+02  0.68222119160E+02  0.00000000000E+00 0.  1.
         -1    1    1    2    0  502 -0.35747848636E+02 -0.32788228283E+00 -0.43237064500E+03  0.43384604510E+03  0.00000000000E+00 0. -1.
<mgrwt>
<rscale>  1 0.30000000E+03</rscale>
<asrwt>0</asrwt>
<pdfrwt beam="1">  1       21 0.48427923E-02 0.30000000E+03</pdfrwt>
<pdfrwt beam="2">0</pdfrwt>
<totfact> 0.30415612E+04</totfact>
</mgrwt>
</event>
<event>
 6    1  0.1198667E-001  0.3000000E+03  0.7818608E-02  0.1093470E+00
         21   -1    0    0  501  502  0.00000000000E+00  0.00000000000E+00  0.93484777732E+00  0.93484777732E+00  0.00000000000E+00 0. -1.
         13   -1    0    0    0    0 -0.00000000000E+00 -0.00000000000E+00 -0.10000000000E+04  0.10000000000E+04  0.00000000000E+00 0.  1.
    9000005    2    1    2  501    0 -0.33505193522E+01  0.30014423596E+02 -0.56869482784E+03  0.56950616570E+03  0.33725305838E+01 0.  0.
         13    1    3    3    0    0 -0.26645448080E+01  0.29097273944E+02 -0.55117895985E+03  0.55195289376E+03  0.00000000000E+00 0.  1.
          1    1    3    3  501    0 -0.68597454418E+00  0.91714965231E+00 -0.17515867992E+02  0.17553271948E+02  0.00000000000E+00 0.  1.
         -3    1    1    2    0  502  0.33505193522E+01 -0.30014423596E+02 -0.43037032439E+03  0.43142868207E+03  0.00000000000E+00 0. -1.
<mgrwt>
<rscale>  1 0.30000000E+03</rscale>
<asrwt>0</asrwt>
<pdfrwt beam="1">  1       21 0.33994536E-02 0.30000000E+03</pdfrwt>
<pdfrwt beam="2">0</pdfrwt>
<totfact> 0.55245855E+04</totfact>
</mgrwt>
</event>
<event>
 6    1  0.1198667E-001  0.3000000E+03  0.7818608E-02  0.1093470E+00
         21   -1    0    0  501  502  0.00000000000E+00  0.00000000000E+00  0.12115828454E+01  0.12115828454E+01  0.00000000000E+00 0. -1.
         13   -1    0    0    0    0 -0.00000000000E+00 -0.00000000000E+00 -0.10000000000E+04  0.10000000000E+04  0.00000000000E+00 0.  1.
    9000005    2    1    2  501    0  0.20976309419E+02 -0.27579005406E+02 -0.46540334765E+03  0.46670223825E+03  0.31774332187E+01 0.  0.
         13    1    3    3    0    0  0.21858779842E+01 -0.16013213500E+01 -0.31860312491E+02  0.31975331189E+02  0.00000000000E+00 0.  1.
          1    1    3    3  501    0  0.18790431435E+02 -0.25977684056E+02 -0.43354303516E+03  0.43472690706E+03  0.00000000000E+00 0.  1.
         -3    1    1    2    0  502 -0.20976309419E+02  0.27579005406E+02 -0.53338506950E+03  0.53450934460E+03  0.00000000000E+00 0. -1.
<mgrwt>
<rscale>  1 0.30000000E+03</rscale>
<asrwt>0</asrwt>
<pdfrwt beam="1">  1       21 0.44057651E-02 0.30000000E+03</pdfrwt>
<pdfrwt beam="2">0</pdfrwt>
<totfact> 0.35717090E+04</totfact>
</mgrwt>
</event>
<event>
 6    1  0.1198667E-001  0.3000000E+03  0.7818608E-02  0.1093470E+00
         21   -1    0    0  501  502  0.00000000000E+00  0.00000000000E+00  0.22900988753E+01  0.22900988753E+01  0.00000000000E+00 0. -1.
         13   -1    0    0    0    0 -0.00000000000E+00 -0.00000000000E+00 -0.10000000000E+04  0.10000000000E+04  0.00000000000E+00 0.  1.
    9000005    2    1    2  501    0 -0.24598826652E+02  0.34349799699E+02 -0.73359845729E+03  0.73482072535E+03  0.31290329072E+01 0.  0.
         13    1    3    3    0    0 -0.92934669106E+01  0.15618412493E+02 -0.31154124406E+03  0.31207090554E+03  0.00000000000E+00 0.  1.
          3    1    3    3  501    0 -0.15305359741E+02  0.18731387206E+02 -0.42205721323E+03  0.42274981980E+03  0.00000000000E+00 0.  1.
         -3    1    1    2    0  502  0.24598826652E+02 -0.34349799699E+02 -0.26411144383E+03  0.26746937353E+03  0.00000000000E+00 0. -1.
<mgrwt>
<rscale>  1 0.30000000E+03</rscale>
<asrwt>0</asrwt>
<pdfrwt beam="1">  1       21 0.83276498E-02 0.30000000E+03</pdfrwt>
<pdfrwt beam="2">0</pdfrwt>
<totfact> 0.11903261E+04</totfact>
</mgrwt>
</event>
<event>
 6    1  0.1198667E-001  0.3000000E+03  0.7818608E-02  0.1093470E+00
         21   -1    0    0  501  502  0.00000000000E+00  0.00000000000E+00  0.11399469561E+01  0.11399469561E+01  0.00000000000E+00 0. -1.
         13   -1    0    0    0    0 -0.00000000000E+00 -0.00000000000E+00 -0.10000000000E+04  0.10000000000E+04  0.00000000000E+00 0.  1.
    9000005    2    1    2  501    0 -0.22536022022E+02  0.21478549635E+02 -0.69141959765E+03  0.69212727085E+03  0.31462125127E+01 0.  0.
         13    1    3    3    0    0 -0.20396154868E+02  0.20564009015E+02 -0.63995736614E+03  0.64061245077E+03  0.00000000000E+00 0.  1.
          1    1    3    3  501    0 -0.21398671542E+01  0.91454062051E+00 -0.51462231512E+02  0.51514820083E+02  0.00000000000E+00 0.  1.
         -3    1    1    2    0  502  0.22536022022E+02 -0.21478549635E+02 -0.30744045539E+03  0.30901267611E+03  0.00000000000E+00 0. -1.
<mgrwt>
<rscale>  1 0.30000000E+03</rscale>
<asrwt>0</asrwt>
<pdfrwt beam="1">  1       21 0.41452704E-02 0.30000000E+03</pdfrwt>
<pdfrwt beam="2">0</pdfrwt>
<totfact> 0.39593432E+04</totfact>
</mgrwt>
</event>
<event>
 6    1  0.1198667E-001  0.3000000E+03  0.7818608E-02  0.1093470E+00
         21   -1    0    0  501  502  0.00000000000E+00  0.00000000000E+00  0.15346421740E+01  0.15346421740E+01  0.00000000000E+00 0. -1.
         13   -1    0    0    0    0 -0.00000000000E+00 -0.00000000000E+00 -0.10000000000E+04  0.10000000000E+04  0.00000000000E+00 0.  1.
    9000005    2    1    2  501    0  0.32112145648E+02  0.22278510604E+02 -0.48298897903E+03  0.48457872623E+03  0.32659022413E+01 0.  0.
         13    1    3    3    0    0  0.61158408850E+01  0.33421411194E+01 -0.99173745183E+02  0.99418334077E+02  0.00000000000E+00 0.  1.
          1    1    3    3  501    0  0.25996304763E+02  0.18936369484E+02 -0.38381523385E+03  0.38516039216E+03  0.00000000000E+00 0.  1.
         -1    1    1    2    0  502 -0.32112145648E+02 -0.22278510604E+02 -0.51547637879E+03  0.51695591594E+03  0.00000000000E+00 0. -1.
<mgrwt>
<rscale>  1 0.30000000E+03</rscale>
<asrwt>0</asrwt>
<pdfrwt beam="1">  1       21 0.55805288E-02 0.30000000E+03</pdfrwt>
<pdfrwt beam="2">0</pdfrwt>
<totfact> 0.23871380E+04</totfact>
</mgrwt>
</event>
<event>
 6    1  0.1198667E-001  0.3000000E+03  0.7818608E-02  0.1093470E+00
         21   -1    0    0  501  502  0.00000000000E+00  0.00000000000E+00  0.37483284039E+01  0.37483284039E+01  0.00000000000E+00 0. -1.
         13   -1    0    0    0    0 -0.00000000000E+00 -0.00000000000E+00 -0.10000000000E+04  0.10000000000E+04  0.00000000000E+00 0.  1.
    9000005    2    1    2  501    0 -0.19818570457E+01 -0.31304952965E+02 -0.92897426871E+03  0.92951776343E+03  0.51139774514E+01 0.  0.
         13    1    3    3    0    0 -0.27577680752E+01 -0.10415331065E+02 -0.35244485747E+03  0.35260950351E+03  0.00000000000E+00 0.  1.
          3    1    3    3  501    0  0.77591102949E+00 -0.20889621900E+02 -0.57652941124E+03  0.57690825992E+03  0.00000000000E+00 0.  1.
         -3    1    1    2    0  502  0.19818570457E+01  0.31304952965E+02 -0.67277402882E+02  0.74230564972E+02  0.00000000000E+00 0. -1.
<mgrwt>
<rscale>  1 0.30000000E+03</rscale>
<asrwt>0</asrwt>
<pdfrwt beam="1">  1       21 0.13630314E-01 0.30000000E+03</pdfrwt>
<pdfrwt beam="2">0</pdfrwt>
<totfact> 0.49120779E+03</totfact>
</mgrwt>
</event>
<event>
 6    1  0.1198667E-001  0.3000000E+03  0.7818608E-02  0.1093470E+00
         21   -1    0    0  501  502  0.00000000000E+00  0.00000000000E+00  0.20303691664E+01  0.20303691664E+01  0.00000000000E+00 0. -1.
         13   -1    0    0    0    0 -0.00000000000E+00 -0.00000000000E+00 -0.10000000000E+04  0.10000000000E+04  0.00000000000E+00 0.  1.
    9000005    2    1    2  501    0  0.20295721851E+02  0.37195395833E+02 -0.66809433100E+03  0.66944485048E+03  0.33104273441E+01 0.  0.
         13    1    3    3    0    0  0.32053383254E+01  0.86044604704E+01 -0.15038859176E+03  0.15066864128E+03  0.00000000000E+00 0.  1.
          1    1    3    3  501    0  0.17090383526E+02  0.28590935362E+02 -0.51770573924E+03  0.51877620920E+03  0.00000000000E+00 0.  1.
         -1    1    1    2    0  502 -0.20295721851E+02 -0.37195395833E+02 -0.32987529984E+03  0.33258551868E+03  0.00000000000E+00 0. -1.
<mgrwt>
<rscale>  1 0.30000000E+03</rscale>
<asrwt>0</asrwt>
<pdfrwt beam="1">  1       21 0.73831762E-02 0.30000000E+03</pdfrwt>
<pdfrwt beam="2">0</pdfrwt>
<totfact> 0.14702898E+04</totfact>
</mgrwt>
</event>
<event>
 6    1  0.1198667E-001  0.3000000E+03  0.7818608E-02  0.1093470E+00
         21   -1    0    0  501  502  0.00000000000E+00  0.00000000000E+00  0.15358658861E+01  0.15358658861E+01  0.00000000000E+00 0. -1.
         13   -1    0    0    0    0 -0.00000000000E+00 -0.00000000000E+00 -0.10000000000E+04  0.10000000000E+04  0.00000000000E+00 0.  1.
    9000005    2    1    2  501    0  0.27761229217E+02  0.12417071948E+02 -0.81477866906E+03  0.81534988468E+03  0.25070657500E+01 0.  0.
         13    1    3    3    0    0  0.23118882419E+02  0.11288923563E+02 -0.67959838261E+03  0.68008520360E+03  0.00000000000E+00 0.  1.
          3    1    3    3  501    0  0.46423467978E+01  0.11281483852E+01 -0.13518028645E+03  0.13526468108E+03  0.00000000000E+00 0.  1.
         -3    1    1    2    0  502 -0.27761229217E+02 -0.12417071948E+02 -0.18368546506E+03  0.18618598120E+03  0.00000000000E+00 0. -1.
<mgrwt>
<rscale>  1 0.30000000E+03</rscale>
<asrwt>0</asrwt>
<pdfrwt beam="1">  1       21 0.55849786E-02 0.30000000E+03</pdfrwt>
<pdfrwt beam="2">0</pdfrwt>
<totfact> 0.23838739E+04</totfact>
</mgrwt>
</event>
<event>
 6    1  0.1198667E-001  0.3000000E+03  0.7818608E-02  0.1093470E+00
         21   -1    0    0  501  502  0.00000000000E+00  0.00000000000E+00  0.36578798729E+01  0.36578798729E+01  0.00000000000E+00 0. -1.
         13   -1    0    0    0    0 -0.00000000000E+00 -0.00000000000E+00 -0.10000000000E+04  0.10000000000E+04  0.00000000000E+00 0.  1.
    9000005    2    1    2  501    0  0.36757689881E+02 -0.67122419151E+01 -0.89268850763E+03  0.89347506206E+03  0.29551507321E+01 0.  0.
         13    1    3    3    0    0  0.13675203447E+02 -0.34073494759E+01 -0.31006398619E+03  0.31038411163E+03  0.00000000000E+00 0.  1.
          3    1    3    3  501    0  0.23082486434E+02 -0.33048924392E+01 -0.58262452144E+03  0.58309095043E+03  0.00000000000E+00 0.  1.
         -3    1    1    2    0  502 -0.36757689881E+02  0.67122419151E+01 -0.10365361250E+03  0.11018281781E+03  0.00000000000E+00 0. -1.
<mgrwt>
<rscale>  1 0.30000000E+03</rscale>
<asrwt>0</asrwt>
<pdfrwt beam="1">  1       21 0.13301409E-01 0.30000000E+03</pdfrwt>
<pdfrwt beam="2">0</pdfrwt>
<totfact> 0.51367650E+03</totfact>
</mgrwt>
</event>
<event>
 6    1  0.1198667E-001  0.3000000E+03  0.7818608E-02  0.1093470E+00
         21   -1    0    0  501  502  0.00000000000E+00  0.00000000000E+00  0.22969696953E+01  0.22969696953E+01  0.00000000000E+00 0. -1.
         13   -1    0    0    0    0 -0.00000000000E+00 -0.00000000000E+00 -0.10000000000E+04  0.10000000000E+04  0.00000000000E+00 0.  1.
    9000005    2    1    2  501    0 -0.36524517442E+02  0.62446476732E+01 -0.81636319507E+03  0.81721003920E+03  0.32165039561E+01 0.  0.
         13    1    3    3    0    0 -0.30190545042E+02  0.39313427874E+01 -0.67353933188E+03  0.67422708049E+03  0.00000000000E+00 0.  1.
          1    1    3    3  501    0 -0.63339724001E+01  0.23133048858E+01 -0.14282386319E+03  0.14298295871E+03  0.00000000000E+00 0.  1.
         -3    1    1    2    0  502  0.36524517442E+02 -0.62446476732E+01 -0.18133983523E+03  0.18508693050E+03  0.00000000000E+00 0. -1.
<mgrwt>
<rscale>  1 0.30000000E+03</rscale>
<asrwt>0</asrwt>
<pdfrwt beam="1">  1       21 0.83526347E-02 0.30000000E+03</pdfrwt>
<pdfrwt beam="2">0</pdfrwt>
<totfact> 0.11840630E+04</totfact>
</mgrwt>
</event>
<event>
 6    1  0.1198667E-001  0.3000000E+03  0.7818608E-02  0.1093470E+00
         21   -1    0    0  501  502  0.00000000000E+00  0.00000000000E+00  0.11100213791E+01  0.11100213791E+01  0.00000000000E+00 0. -1.
         13   -1    0    0    0    0 -0.00000000000E+00 -0.00000000000E+00 -0.10000000000E+04  0.10000000000E+04  0.00000000000E+00 0.  1.
    9000005    2    1    2  501    0 -0.29863586223E+02  0.14431958880E+02 -0.53134959986E+03  0.53239462693E+03  0.33950399318E+01 0.  0.
         13    1    3    3    0    0 -0.26364985758E+02  0.11716098958E+02 -0.44893604114E+03  0.44986214386E+03  0.00000000000E+00 0.  1.
          3    1    3    3  501    0 -0.34986004648E+01  0.27158599221E+01 -0.82413558720E+02  0.82532483067E+02  0.00000000000E+00 0.  1.
         -1    1    1    2    0  502  0.29863586223E+02 -0.14431958880E+02 -0.46754037876E+03  0.46871539445E+03  0.00000000000E+00 0. -1.
<mgrwt>
<rscale>  1 0.30000000E+03</rscale>
<asrwt>0</asrwt>
<pdfrwt beam="1">  1       21 0.40364499E-02 0.30000000E+03</pdfrwt>
<pdfrwt beam="2">0</pdfrwt>
<totfact> 0.41409735E+04</totfact>
</mgrwt>
</event>
<event>
 6    1  0.1198667E-001  0.3000000E+03  0.7818608E-02  0.1093470E+00
         21   -1    0    0  501  502  0.00000000000E+00  0.00000000000E+00  0.24857302494E+01  0.24857302494E+01  0.00000000000E+00 0. -1.
         13   -1    0    0    0    0 -0.00000000000E+00 -0.00000000000E+00 -0.10000000000E+04  0.10000000000E+04  0.00000000000E+00 0.  1.
    9000005    2    1    2  501    0  0.35888777136E+02 -0.26857970367E+01 -0.84539050135E+03  0.84616279930E+03  0.33414527496E+01 0.  0.
         13    1    3    3    0    0  0.12330451119E+02 -0.24546536050E+01 -0.28383632624E+03  0.28411463433E+03  0.00000000000E+00 0.  1.
          3    1    3    3  501    0  0.23558326016E+02 -0.23114343167E+00 -0.56155417511E+03  0.56204816497E+03  0.00000000000E+00 0.  1.
         -3    1    1    2    0  502 -0.35888777136E+02  0.26857970367E+01 -0.15212376840E+03  0.15632293095E+03  0.00000000000E+00 0. -1.
<mgrwt>
<rscale>  1 0.30000000E+03</rscale>
<asrwt>0</asrwt>
<pdfrwt beam="1">  1       21 0.90390381E-02 0.30000000E+03</pdfrwt>
<pdfrwt beam="2">0</pdfrwt>
<totfact> 0.10298798E+04</totfact>
</mgrwt>
</event>
<event>
 6    1  0.1198667E-001  0.3000000E+03  0.7818608E-02  0.1093470E+00
         21   -1    0    0  501  502  0.00000000000E+00  0.00000000000E+00  0.91112358319E+00  0.91112358319E+00  0.00000000000E+00 0. -1.
         13   -1    0    0    0    0 -0.00000000000E+00 -0.00000000000E+00 -0.10000000000E+04  0.10000000000E+04  0.00000000000E+00 0.  1.
    9000005    2    1    2  501    0 -0.75406533221E+01  0.29116802566E+02 -0.48516879875E+03  0.48611165207E+03  0.33354685859E+01 0.  0.
         13    1    3    3    0    0 -0.18948469311E+01  0.31217256933E+01 -0.54837136688E+02  0.54958595109E+02  0.00000000000E+00 0.  1.
          1    1    3    3  501    0 -0.56458063910E+01  0.25995076873E+02 -0.43033166206E+03  0.43115305696E+03  0.00000000000E+00 0.  1.
         -1    1    1    2    0  502  0.75406533221E+01 -0.29116802566E+02 -0.51392007767E+03  0.51479947152E+03  0.00000000000E+00 0. -1.
<mgrwt>
<rscale>  1 0.30000000E+03</rscale>
<asrwt>0</asrwt>
<pdfrwt beam="1">  1       21 0.33131837E-02 0.30000000E+03</pdfrwt>
<pdfrwt beam="2">0</pdfrwt>
<totfact> 0.57668666E+04</totfact>
</mgrwt>
</event>
<event>
 6    1  0.1198667E-001  0.3000000E+03  0.7818608E-02  0.1093470E+00
         21   -1    0    0  501  502  0.00000000000E+00  0.00000000000E+00  0.16443691223E+01  0.16443691223E+01  0.00000000000E+00 0. -1.
         13   -1    0    0    0    0 -0.00000000000E+00 -0.00000000000E+00 -0.10000000000E+04  0.10000000000E+04  0.00000000000E+00 0.  1.
    9000005    2    1    2  501    0 -0.31250804899E+02  0.14523280198E+01 -0.81656850006E+03  0.81718493457E+03  0.53272824957E+01 0.  0.
         13    1    3    3    0    0 -0.21173886895E+02 -0.14663875187E+01 -0.55965453418E+03  0.56005685552E+03  0.00000000000E+00 0.  1.
          1    1    3    3  501    0 -0.10076918004E+02  0.29187155385E+01 -0.25691396587E+03  0.25712807905E+03  0.00000000000E+00 0.  1.
         -1    1    1    2    0  502  0.31250804899E+02 -0.14523280198E+01 -0.18178713082E+03  0.18445943455E+03  0.00000000000E+00 0. -1.
<mgrwt>
<rscale>  1 0.30000000E+03</rscale>
<asrwt>0</asrwt>
<pdfrwt beam="1">  1       21 0.59795367E-02 0.30000000E+03</pdfrwt>
<pdfrwt beam="2">0</pdfrwt>
<totfact> 0.21196178E+04</totfact>
</mgrwt>
</event>
<event>
 6    1  0.1198667E-001  0.3000000E+03  0.7818608E-02  0.1093470E+00
         21   -1    0    0  501  502  0.00000000000E+00  0.00000000000E+00  0.17636383599E+01  0.17636383599E+01  0.00000000000E+00 0. -1.
         13   -1    0    0    0    0 -0.00000000000E+00 -0.00000000000E+00 -0.10000000000E+04  0.10000000000E+04  0.00000000000E+00 0.  1.
    9000005    2    1    2  501    0  0.92293356788E+00  0.38738035928E+02 -0.31352797983E+03  0.31595969017E+03  0.54078129661E+01 0.  0.
         13    1    3    3    0    0 -0.79043001853E+00  0.12294364149E+01 -0.79186719712E+01  0.80524318873E+01  0.00000000000E+00 0.  1.
          3    1    3    3  501    0  0.17133635864E+01  0.37508599514E+02 -0.30560930786E+03  0.30790725828E+03  0.00000000000E+00 0.  1.
         -3    1    1    2    0  502 -0.92293356788E+00 -0.38738035928E+02 -0.68470838181E+03  0.68580394819E+03  0.00000000000E+00 0. -1.
<mgrwt>
<rscale>  1 0.30000000E+03</rscale>
<asrwt>0</asrwt>
<pdfrwt beam="1">  1       21 0.64132439E-02 0.30000000E+03</pdfrwt>
<pdfrwt beam="2">0</pdfrwt>
<totfact> 0.18781788E+04</totfact>
</mgrwt>
</event>
<event>
 6    1  0.1198667E-001  0.3000000E+03  0.7818608E-02  0.1093470E+00
         21   -1    0    0  501  502  0.00000000000E+00  0.00000000000E+00  0.15600014599E+01  0.15600014599E+01  0.00000000000E+00 0. -1.
         13   -1    0    0    0    0 -0.00000000000E+00 -0.00000000000E+00 -0.10000000000E+04  0.10000000000E+04  0.00000000000E+00 0.  1.
    9000005    2    1    2  501    0 -0.36224843571E+02 -0.14380109122E+02 -0.57629754560E+03  0.57762217889E+03  0.30811770692E+01 0.  0.
         13    1    3    3    0    0 -0.14035350478E+02 -0.42848316915E+01 -0.20352955548E+03  0.20405791040E+03  0.00000000000E+00 0.  1.
          3    1    3    3  501    0 -0.22189493093E+02 -0.10095277431E+02 -0.37276799012E+03  0.37356426848E+03  0.00000000000E+00 0.  1.
         -3    1    1    2    0  502  0.36224843571E+02  0.14380109122E+02 -0.42214245294E+03  0.42393782257E+03  0.00000000000E+00 0. -1.
<mgrwt>
<rscale>  1 0.30000000E+03</rscale>
<asrwt>0</asrwt>
<pdfrwt beam="1">  1       21 0.56727445E-02 0.30000000E+03</pdfrwt>
<pdfrwt beam="2">0</pdfrwt>
<totfact> 0.23208721E+04</totfact>
</mgrwt>
</event>
<event>
 6    1  0.1198667E-001  0.3000000E+03  0.7818608E-02  0.1093470E+00
         21   -1    0    0  501  502  0.00000000000E+00  0.00000000000E+00  0.15543225226E+01  0.15543225226E+01  0.00000000000E+00 0. -1.
         13   -1    0    0    0    0 -0.00000000000E+00 -0.00000000000E+00 -0.10000000000E+04  0.10000000000E+04  0.00000000000E+00 0.  1.
    9000005    2    1    2  501    0  0.97596960605E+01 -0.29470318881E+02 -0.80734382586E+03  0.80794732612E+03  0.33282544696E+01 0.  0.
         13    1    3    3    0    0  0.77009092939E+01 -0.22763596684E+02 -0.58654004678E+03  0.58703212162E+03  0.00000000000E+00 0.  1.
          3    1    3    3  501    0  0.20587867666E+01 -0.67067221969E+01 -0.22080377908E+03  0.22091520450E+03  0.00000000000E+00 0.  1.
         -3    1    1    2    0  502 -0.97596960605E+01  0.29470318881E+02 -0.19110185162E+03  0.19360699640E+03  0.00000000000E+00 0. -1.
<mgrwt>
<rscale>  1 0.30000000E+03</rscale>
<asrwt>0</asrwt>
<pdfrwt beam="1">  1       21 0.56520938E-02 0.30000000E+03</pdfrwt>
<pdfrwt beam="2">0</pdfrwt>
<totfact> 0.23354641E+04</totfact>
</mgrwt>
</event>
<event>
 6    1  0.1198667E-001  0.3000000E+03  0.7818608E-02  0.1093470E+00
         21   -1    0    0  501  502  0.00000000000E+00  0.00000000000E+00  0.54882765040E+01  0.54882765040E+01  0.00000000000E+00 0. -1.
         13   -1    0    0    0    0 -0.00000000000E+00 -0.00000000000E+00 -0.10000000000E+04  0.10000000000E+04  0.00000000000E+00 0.  1.
    9000005    2    1    2  501    0 -0.29580635489E+02 -0.60960842271E+02 -0.70004551606E+03  0.70332675412E+03  0.36824206538E+01 0.  0.
         13    1    3    3    0    0 -0.21613569706E+02 -0.47864886217E+02 -0.54715310214E+03  0.54966781870E+03  0.00000000000E+00 0.  1.
          3    1    3    3  501    0 -0.79670657827E+01 -0.13095956054E+02 -0.15289241392E+03  0.15365893543E+03  0.00000000000E+00 0.  1.
         -3    1    1    2    0  502  0.29580635489E+02  0.60960842271E+02 -0.29446620743E+03  0.30216152238E+03  0.00000000000E+00 0. -1.
<mgrwt>
<rscale>  1 0.30000000E+03</rscale>
<asrwt>0</asrwt>
<pdfrwt beam="1">  1       21 0.19957411E-01 0.30000000E+03</pdfrwt>
<pdfrwt beam="2">0</pdfrwt>
<totfact> 0.24090040E+03</totfact>
</mgrwt>
</event>
<event>
 6    1  0.1198667E-001  0.3000000E+03  0.7818608E-02  0.1093470E+00
         21   -1    0    0  501  502  0.00000000000E+00  0.00000000000E+00  0.19090447376E+01  0.19090447376E+01  0.00000000000E+00 0. -1.
         13   -1    0    0    0    0 -0.00000000000E+00 -0.00000000000E+00 -0.10000000000E+04  0.10000000000E+04  0.00000000000E+00 0.  1.
    9000005    2    1    2  501    0 -0.36618560618E+02  0.21465382005E+02 -0.61457836711E+03  0.61605468507E+03  0.38889671562E+01 0.  0.
         13    1    3    3    0    0 -0.23067553414E+02  0.14446954314E+02 -0.41758383906E+03  0.41846993817E+03  0.00000000000E+00 0.  1.
          1    1    3    3  501    0 -0.13551007205E+02  0.70184276909E+01 -0.19699452806E+03  0.19758474690E+03  0.00000000000E+00 0.  1.
         -3    1    1    2    0  502  0.36618560618E+02 -0.21465382005E+02 -0.38351258815E+03  0.38585435967E+03  0.00000000000E+00 0. -1.
<mgrwt>
<rscale>  1 0.30000000E+03</rscale>
<asrwt>0</asrwt>
<pdfrwt beam="1">  1       21 0.69419955E-02 0.30000000E+03</pdfrwt>
<pdfrwt beam="2">0</pdfrwt>
<totfact> 0.16370564E+04</totfact>
</mgrwt>
</event>
<event>
 6    1  0.1198667E-001  0.3000000E+03  0.7818608E-02  0.1093470E+00
         21   -1    0    0  501  502  0.00000000000E+00  0.00000000000E+00  0.10825442229E+01  0.10825442229E+01  0.00000000000E+00 0. -1.
         13   -1    0    0    0    0 -0.00000000000E+00 -0.00000000000E+00 -0.10000000000E+04  0.10000000000E+04  0.00000000000E+00 0.  1.
    9000005    2    1    2  501    0 -0.28589244169E+02 -0.14200384639E+02 -0.58993033440E+03  0.59085155897E+03  0.82927372208E+01 0.  0.
         13    1    3    3    0    0 -0.16172095523E+02 -0.57200291370E+01 -0.24927687212E+03  0.24986639306E+03  0.00000000000E+00 0.  1.
          3    1    3    3  501    0 -0.12417148645E+02 -0.84803555020E+01 -0.34065346228E+03  0.34098516592E+03  0.00000000000E+00 0.  1.
         -1    1    1    2    0  502  0.28589244169E+02  0.14200384639E+02 -0.40898712138E+03  0.41023098525E+03  0.00000000000E+00 0. -1.
<mgrwt>
<rscale>  1 0.30000000E+03</rscale>
<asrwt>0</asrwt>
<pdfrwt beam="1">  1       21 0.39365327E-02 0.30000000E+03</pdfrwt>
<pdfrwt beam="2">0</pdfrwt>
<totfact> 0.43194777E+04</totfact>
</mgrwt>
</event>
<event>
 6    1  0.1198667E-001  0.3000000E+03  0.7818608E-02  0.1093470E+00
         21   -1    0    0  501  502  0.00000000000E+00  0.00000000000E+00  0.63626311906E+01  0.63626311906E+01  0.00000000000E+00 0. -1.
         13   -1    0    0    0    0 -0.00000000000E+00 -0.00000000000E+00 -0.10000000000E+04  0.10000000000E+04  0.00000000000E+00 0.  1.
    9000005    2    1    2  501    0  0.13151202017E+02  0.27588458538E+02 -0.96157875660E+03  0.96207006098E+03  0.33196282288E+01 0.  0.
         13    1    3    3    0    0  0.11497676487E+01  0.29011244803E+01 -0.13347246447E+03  0.13350894075E+03  0.00000000000E+00 0.  1.
          1    1    3    3  501    0  0.12001434369E+02  0.24687334057E+02 -0.82810629214E+03  0.82856112023E+03  0.00000000000E+00 0.  1.
         -3    1    1    2    0  502 -0.13151202017E+02 -0.27588458538E+02 -0.32058612208E+02  0.44292570208E+02  0.00000000000E+00 0. -1.
<mgrwt>
<rscale>  1 0.30000000E+03</rscale>
<asrwt>0</asrwt>
<pdfrwt beam="1">  1       21 0.23136889E-01 0.30000000E+03</pdfrwt>
<pdfrwt beam="2">0</pdfrwt>
<totfact> 0.18133298E+03</totfact>
</mgrwt>
</event>
<event>
 6    1  0.1198667E-001  0.3000000E+03  0.7818608E-02  0.1093470E+00
         21   -1    0    0  501  502  0.00000000000E+00  0.00000000000E+00  0.57810002751E+01  0.57810002751E+01  0.00000000000E+00 0. -1.
         13   -1    0    0    0    0 -0.00000000000E+00 -0.00000000000E+00 -0.10000000000E+04  0.10000000000E+04  0.00000000000E+00 0.  1.
    9000005    2    1    2  501    0 -0.51422908757E+01  0.35087919701E+02 -0.94191165410E+03  0.94258556001E+03  0.35168933592E+01 0.  0.
         13    1    3    3    0    0 -0.17393407732E+01  0.16079063621E+02 -0.38623729501E+03  0.38657574891E+03  0.00000000000E+00 0.  1.
          1    1    3    3  501    0 -0.34029501025E+01  0.19008856080E+02 -0.55567435909E+03  0.55600981109E+03  0.00000000000E+00 0.  1.
         -1    1    1    2    0  502  0.51422908757E+01 -0.35087919701E+02 -0.52307345625E+02  0.63195440269E+02  0.00000000000E+00 0. -1.
<mgrwt>
<rscale>  1 0.30000000E+03</rscale>
<asrwt>0</asrwt>
<pdfrwt beam="1">  1       21 0.21021864E-01 0.30000000E+03</pdfrwt>
<pdfrwt beam="2">0</pdfrwt>
<totfact> 0.21810677E+03</totfact>
</mgrwt>
</event>
<event>
 6    1  0.1198667E-001  0.3000000E+03  0.7818608E-02  0.1093470E+00
         21   -1    0    0  501  502  0.00000000000E+00  0.00000000000E+00  0.69481743404E+01  0.69481743404E+01  0.00000000000E+00 0. -1.
         13   -1    0    0    0    0 -0.00000000000E+00 -0.00000000000E+00 -0.10000000000E+04  0.10000000000E+04  0.00000000000E+00 0.  1.
    9000005    2    1    2  501    0 -0.36930884328E+02 -0.49443760154E+02 -0.83486768414E+03  0.83715183085E+03  0.32499590913E+01 0.  0.
         13    1    3    3    0    0 -0.11807923169E+02 -0.17723949625E+02 -0.27402103382E+03  0.27484739842E+03  0.00000000000E+00 0.  1.
          1    1    3    3  501    0 -0.25122961158E+02 -0.31719810529E+02 -0.56084665032E+03  0.56230443243E+03  0.00000000000E+00 0.  1.
         -1    1    1    2    0  502  0.36930884328E+02  0.49443760154E+02 -0.15818414152E+03  0.16979634349E+03  0.00000000000E+00 0. -1.
<mgrwt>
<rscale>  1 0.30000000E+03</rscale>
<asrwt>0</asrwt>
<pdfrwt beam="1">  1       21 0.25266142E-01 0.30000000E+03</pdfrwt>
<pdfrwt beam="2">0</pdfrwt>
<totfact> 0.15275792E+03</totfact>
</mgrwt>
</event>
<event>
 6    1  0.1198667E-001  0.3000000E+03  0.7818608E-02  0.1093470E+00
         21   -1    0    0  501  502  0.00000000000E+00  0.00000000000E+00  0.12053556422E+01  0.12053556422E+01  0.00000000000E+00 0. -1.
         13   -1    0    0    0    0 -0.00000000000E+00 -0.00000000000E+00 -0.10000000000E+04  0.10000000000E+04  0.00000000000E+00 0.  1.
    9000005    2    1    2  501    0 -0.27914395981E+02  0.15674701416E+02 -0.68837926316E+03  0.68914347292E+03  0.52731910842E+01 0.  0.
         13    1    3    3    0    0 -0.16642225244E+02  0.90864755513E+01 -0.46086102279E+03  0.46125091872E+03  0.00000000000E+00 0.  1.
          3    1    3    3  501    0 -0.11272170737E+02  0.65882258648E+01 -0.22751824038E+03  0.22789255420E+03  0.00000000000E+00 0.  1.
         -1    1    1    2    0  502  0.27914395981E+02 -0.15674701416E+02 -0.31041538119E+03  0.31206188272E+03  0.00000000000E+00 0. -1.
<mgrwt>
<rscale>  1 0.30000000E+03</rscale>
<asrwt>0</asrwt>
<pdfrwt beam="1">  1       21 0.43831207E-02 0.30000000E+03</pdfrwt>
<pdfrwt beam="2">0</pdfrwt>
<totfact> 0.36030199E+04</totfact>
</mgrwt>
</event>
<event>
 6    1  0.1198667E-001  0.3000000E+03  0.7818608E-02  0.1093470E+00
         21   -1    0    0  501  502  0.00000000000E+00  0.00000000000E+00  0.22090742914E+01  0.22090742914E+01  0.00000000000E+00 0. -1.
         13   -1    0    0    0    0 -0.00000000000E+00 -0.00000000000E+00 -0.10000000000E+04  0.10000000000E+04  0.00000000000E+00 0.  1.
    9000005    2    1    2  501    0 -0.22203805807E+02 -0.32489891172E+02 -0.77238101049E+03  0.77338986203E+03  0.32941320028E+01 0.  0.
         13    1    3    3    0    0 -0.14674829556E+02 -0.18905954852E+02 -0.45457591711E+03  0.45520550323E+03  0.00000000000E+00 0.  1.
          3    1    3    3  501    0 -0.75289762518E+01 -0.13583936320E+02 -0.31780509338E+03  0.31818435881E+03  0.00000000000E+00 0.  1.
         -1    1    1    2    0  502  0.22203805807E+02  0.32489891172E+02 -0.22540991522E+03  0.22881921226E+03  0.00000000000E+00 0. -1.
<mgrwt>
<rscale>  1 0.30000000E+03</rscale>
<asrwt>0</asrwt>
<pdfrwt beam="1">  1       21 0.80330144E-02 0.30000000E+03</pdfrwt>
<pdfrwt beam="2">0</pdfrwt>
<totfact> 0.12681790E+04</totfact>
</mgrwt>
</event>
<event>
 6    1  0.1198667E-001  0.3000000E+03  0.7818608E-02  0.1093470E+00
         21   -1    0    0  501  502  0.00000000000E+00  0.00000000000E+00  0.13051760549E+01  0.13051760549E+01  0.00000000000E+00 0. -1.
         13   -1    0    0    0    0 -0.00000000000E+00 -0.00000000000E+00 -0.10000000000E+04  0.10000000000E+04  0.00000000000E+00 0.  1.
    9000005    2    1    2  501    0 -0.11439427652E+02  0.33980049487E+02 -0.44478311453E+03  0.44623429221E+03  0.27423170148E+01 0.  0.
         13    1    3    3    0    0 -0.74829532781E+00  0.16954801748E+01 -0.31373242957E+02  0.31427932998E+02  0.00000000000E+00 0.  1.
          3    1    3    3  501    0 -0.10691132324E+02  0.32284569312E+02 -0.41340987157E+03  0.41480635921E+03  0.00000000000E+00 0.  1.
         -1    1    1    2    0  502  0.11439427652E+02 -0.33980049487E+02 -0.55391170941E+03  0.55507088385E+03  0.00000000000E+00 0. -1.
<mgrwt>
<rscale>  1 0.30000000E+03</rscale>
<asrwt>0</asrwt>
<pdfrwt beam="1">  1       21 0.47461048E-02 0.30000000E+03</pdfrwt>
<pdfrwt beam="2">0</pdfrwt>
<totfact> 0.31477442E+04</totfact>
</mgrwt>
</event>
<event>
 6    1  0.1198667E-001  0.3000000E+03  0.7818608E-02  0.1093470E+00
         21   -1    0    0  501  502  0.00000000000E+00  0.00000000000E+00  0.10932141133E+01  0.10932141133E+01  0.00000000000E+00 0. -1.
         13   -1    0    0    0    0 -0.00000000000E+00 -0.00000000000E+00 -0.10000000000E+04  0.10000000000E+04  0.00000000000E+00 0.  1.
    9000005    2    1    2  501    0 -0.31041515899E+02 -0.10137800028E+02 -0.56196687959E+03  0.56293475828E+03  0.47347260935E+01 0.  0.
         13    1    3    3    0    0 -0.13730827328E+01  0.32394857308E+00 -0.36275066519E+02  0.36302489582E+02  0.00000000000E+00 0.  1.
          3    1    3    3  501    0 -0.29668433166E+02 -0.10461748601E+02 -0.52569181307E+03  0.52663226870E+03  0.00000000000E+00 0.  1.
         -1    1    1    2    0  502  0.31041515899E+02  0.10137800028E+02 -0.43693990630E+03  0.43815845583E+03  0.00000000000E+00 0. -1.
<mgrwt>
<rscale>  1 0.30000000E+03</rscale>
<asrwt>0</asrwt>
<pdfrwt beam="1">  1       21 0.39753324E-02 0.30000000E+03</pdfrwt>
<pdfrwt beam="2">0</pdfrwt>
<totfact> 0.42487568E+04</totfact>
</mgrwt>
</event>
<event>
 6    1  0.1198667E-001  0.3000000E+03  0.7818608E-02  0.1093470E+00
         21   -1    0    0  501  502  0.00000000000E+00  0.00000000000E+00  0.44175301747E+01  0.44175301747E+01  0.00000000000E+00 0. -1.
         13   -1    0    0    0    0 -0.00000000000E+00 -0.00000000000E+00 -0.10000000000E+04  0.10000000000E+04  0.00000000000E+00 0.  1.
    9000005    2    1    2  501    0 -0.17908388374E+01 -0.30932995020E+02 -0.94204948765E+03  0.94256417566E+03  0.31513112088E+01 0.  0.
         13    1    3    3    0    0 -0.90509161668E+00 -0.34087855022E+01 -0.13020513196E+03  0.13025289017E+03  0.00000000000E+00 0.  1.
          1    1    3    3  501    0 -0.88574722076E+00 -0.27524209518E+02 -0.81184435570E+03  0.81231128549E+03  0.00000000000E+00 0.  1.
         -3    1    1    2    0  502  0.17908388374E+01  0.30932995020E+02 -0.53532982172E+02  0.61853354516E+02  0.00000000000E+00 0. -1.
<mgrwt>
<rscale>  1 0.30000000E+03</rscale>
<asrwt>0</asrwt>
<pdfrwt beam="1">  1       21 0.16063780E-01 0.30000000E+03</pdfrwt>
<pdfrwt beam="2">0</pdfrwt>
<totfact> 0.36256754E+03</totfact>
</mgrwt>
</event>
<event>
 6    1  0.1198667E-001  0.3000000E+03  0.7818608E-02  0.1093470E+00
         21   -1    0    0  501  502  0.00000000000E+00  0.00000000000E+00  0.22002343604E+01  0.22002343604E+01  0.00000000000E+00 0. -1.
         13   -1    0    0    0    0 -0.00000000000E+00 -0.00000000000E+00 -0.10000000000E+04  0.10000000000E+04  0.00000000000E+00 0.  1.
    9000005    2    1    2  501    0 -0.25700879830E+02  0.17813614171E+02 -0.87224504624E+03  0.87280994246E+03  0.28133427512E+01 0.  0.
         13    1    3    3    0    0 -0.18800137947E+02  0.11964118371E+02 -0.64535319585E+03  0.64573782041E+03  0.00000000000E+00 0.  1.
          1    1    3    3  501    0 -0.69007418834E+01  0.58494957998E+01 -0.22689185039E+03  0.22707212205E+03  0.00000000000E+00 0.  1.
         -1    1    1    2    0  502  0.25700879830E+02 -0.17813614171E+02 -0.12555471940E+03  0.12939029190E+03  0.00000000000E+00 0. -1.
<mgrwt>
<rscale>  1 0.30000000E+03</rscale>
<asrwt>0</asrwt>
<pdfrwt beam="1">  1       21 0.80008691E-02 0.30000000E+03</pdfrwt>
<pdfrwt beam="2">0</pdfrwt>
<totfact> 0.12771432E+04</totfact>
</mgrwt>
</event>
<event>
 6    1  0.1198667E-001  0.3000000E+03  0.7818608E-02  0.1093470E+00
         21   -1    0    0  501  502  0.00000000000E+00  0.00000000000E+00  0.17519382236E+01  0.17519382236E+01  0.00000000000E+00 0. -1.
         13   -1    0    0    0    0 -0.00000000000E+00 -0.00000000000E+00 -0.10000000000E+04  0.10000000000E+04  0.00000000000E+00 0.  1.
    9000005    2    1    2  501    0  0.22476825335E+02  0.26852023361E+02 -0.77281050333E+03  0.77361090378E+03  0.33937537876E+01 0.  0.
         13    1    3    3    0    0  0.20717636272E+02  0.23075610492E+02 -0.68514393541E+03  0.68584540276E+03  0.00000000000E+00 0.  1.
          3    1    3    3  501    0  0.17591890626E+01  0.37764128685E+01 -0.87666567915E+02  0.87765501026E+02  0.00000000000E+00 0.  1.
         -3    1    1    2    0  502 -0.22476825335E+02 -0.26852023361E+02 -0.22543755845E+03  0.22814103444E+03  0.00000000000E+00 0. -1.
<mgrwt>
<rscale>  1 0.30000000E+03</rscale>
<asrwt>0</asrwt>
<pdfrwt beam="1">  1       21 0.63706979E-02 0.30000000E+03</pdfrwt>
<pdfrwt beam="2">0</pdfrwt>
<totfact> 0.18999283E+04</totfact>
</mgrwt>
</event>
<event>
 6    1  0.1198667E-001  0.3000000E+03  0.7818608E-02  0.1093470E+00
         21   -1    0    0  501  502  0.00000000000E+00  0.00000000000E+00  0.24227221977E+01  0.24227221977E+01  0.00000000000E+00 0. -1.
         13   -1    0    0    0    0 -0.00000000000E+00 -0.00000000000E+00 -0.10000000000E+04  0.10000000000E+04  0.00000000000E+00 0.  1.
    9000005    2    1    2  501    0  0.44809007188E+02  0.18575586306E+02 -0.41956345711E+03  0.42237714085E+03  0.40068737456E+01 0.  0.
         13    1    3    3    0    0  0.21489569602E+02  0.11061274640E+02 -0.21045962679E+03  0.21184288495E+03  0.00000000000E+00 0.  1.
          1    1    3    3  501    0  0.23319437586E+02  0.75143116660E+01 -0.20910383032E+03  0.21053425589E+03  0.00000000000E+00 0.  1.
         -3    1    1    2    0  502 -0.44809007188E+02 -0.18575586306E+02 -0.57801382069E+03  0.58004558135E+03  0.00000000000E+00 0. -1.
<mgrwt>
<rscale>  1 0.30000000E+03</rscale>
<asrwt>0</asrwt>
<pdfrwt beam="1">  1       21 0.88099175E-02 0.30000000E+03</pdfrwt>
<pdfrwt beam="2">0</pdfrwt>
<totfact> 0.10777705E+04</totfact>
</mgrwt>
</event>
<event>
 6    1  0.1198667E-001  0.3000000E+03  0.7818608E-02  0.1093470E+00
         21   -1    0    0  501  502  0.00000000000E+00  0.00000000000E+00  0.73992688690E+01  0.73992688690E+01  0.00000000000E+00 0. -1.
         13   -1    0    0    0    0 -0.00000000000E+00 -0.00000000000E+00 -0.10000000000E+04  0.10000000000E+04  0.00000000000E+00 0.  1.
    9000005    2    1    2  501    0  0.38253928971E+02  0.11392848488E+02 -0.94244544133E+03  0.94330002415E+03  0.42855108087E+01 0.  0.
         13    1    3    3    0    0  0.19068650331E+02  0.77820232059E+01 -0.46677301367E+03  0.46722716060E+03  0.00000000000E+00 0.  1.
          1    1    3    3  501    0  0.19185278640E+02  0.36108252819E+01 -0.47567242766E+03  0.47607286355E+03  0.00000000000E+00 0.  1.
         -3    1    1    2    0  502 -0.38253928971E+02 -0.11392848488E+02 -0.50155289806E+02  0.64099244722E+02  0.00000000000E+00 0. -1.
<mgrwt>
<rscale>  1 0.30000000E+03</rscale>
<asrwt>0</asrwt>
<pdfrwt beam="1">  1       21 0.26906489E-01 0.30000000E+03</pdfrwt>
<pdfrwt beam="2">0</pdfrwt>
<totfact> 0.13496926E+03</totfact>
</mgrwt>
</event>
<event>
 6    1  0.1198667E-001  0.3000000E+03  0.7818608E-02  0.1093470E+00
         21   -1    0    0  501  502  0.00000000000E+00  0.00000000000E+00  0.15261865431E+01  0.15261865431E+01  0.00000000000E+00 0. -1.
         13   -1    0    0    0    0 -0.00000000000E+00 -0.00000000000E+00 -0.10000000000E+04  0.10000000000E+04  0.00000000000E+00 0.  1.
    9000005    2    1    2  501    0  0.20749474180E+02  0.29617577162E+02 -0.68419561010E+03  0.68517427701E+03  0.56934567344E+01 0.  0.
         13    1    3    3    0    0  0.12105705892E+02  0.19151998631E+02 -0.37857789524E+03  0.37925528332E+03  0.00000000000E+00 0.  1.
          1    1    3    3  501    0  0.86437682878E+01  0.10465578532E+02 -0.30561771486E+03  0.30591899369E+03  0.00000000000E+00 0.  1.
         -1    1    1    2    0  502 -0.20749474180E+02 -0.29617577162E+02 -0.31427820336E+03  0.31635190953E+03  0.00000000000E+00 0. -1.
<mgrwt>
<rscale>  1 0.30000000E+03</rscale>
<asrwt>0</asrwt>
<pdfrwt beam="1">  1       21 0.55497810E-02 0.30000000E+03</pdfrwt>
<pdfrwt beam="2">0</pdfrwt>
<totfact> 0.24098808E+04</totfact>
</mgrwt>
</event>
<event>
 6    1  0.1198667E-001  0.3000000E+03  0.7818608E-02  0.1093470E+00
         21   -1    0    0  501  502  0.00000000000E+00  0.00000000000E+00  0.19529941846E+01  0.19529941846E+01  0.00000000000E+00 0. -1.
         13   -1    0    0    0    0 -0.00000000000E+00 -0.00000000000E+00 -0.10000000000E+04  0.10000000000E+04  0.00000000000E+00 0.  1.
    9000005    2    1    2  501    0 -0.39981001232E+02  0.13512783999E+02 -0.64595303861E+03  0.64733878475E+03  0.33314201768E+01 0.  0.
         13    1    3    3    0    0 -0.69640259013E+01  0.20476091088E+01 -0.13107262779E+03  0.13127347072E+03  0.00000000000E+00 0.  1.
          1    1    3    3  501    0 -0.33016975331E+02  0.11465174890E+02 -0.51488041082E+03  0.51606531403E+03  0.00000000000E+00 0.  1.
         -1    1    1    2    0  502  0.39981001232E+02 -0.13512783999E+02 -0.35209396721E+03  0.35461420944E+03  0.00000000000E+00 0. -1.
<mgrwt>
<rscale>  1 0.30000000E+03</rscale>
<asrwt>0</asrwt>
<pdfrwt beam="1">  1       21 0.71018120E-02 0.30000000E+03</pdfrwt>
<pdfrwt beam="2">0</pdfrwt>
<totfact> 0.15734623E+04</totfact>
</mgrwt>
</event>
<event>
 6    1  0.1198667E-001  0.3000000E+03  0.7818608E-02  0.1093470E+00
         21   -1    0    0  501  502  0.00000000000E+00  0.00000000000E+00  0.98828043277E+00  0.98828043277E+00  0.00000000000E+00 0. -1.
         13   -1    0    0    0    0 -0.00000000000E+00 -0.00000000000E+00 -0.10000000000E+04  0.10000000000E+04  0.00000000000E+00 0.  1.
    9000005    2    1    2  501    0  0.30187283711E+02 -0.56907689238E+01 -0.57931924898E+03  0.58017308725E+03  0.68089630360E+01 0.  0.
         13    1    3    3    0    0  0.22912693323E+02 -0.17287912551E+01 -0.45316590675E+03  0.45374807908E+03  0.00000000000E+00 0.  1.
          1    1    3    3  501    0  0.72745903878E+01 -0.39619776686E+01 -0.12615334224E+03  0.12642500817E+03  0.00000000000E+00 0.  1.
         -3    1    1    2    0  502 -0.30187283711E+02  0.56907689238E+01 -0.41969247058E+03  0.42081519318E+03  0.00000000000E+00 0. -1.
<mgrwt>
<rscale>  1 0.30000000E+03</rscale>
<asrwt>0</asrwt>
<pdfrwt beam="1">  1       21 0.35937546E-02 0.30000000E+03</pdfrwt>
<pdfrwt beam="2">0</pdfrwt>
<totfact> 0.50336662E+04</totfact>
</mgrwt>
</event>
<event>
 6    1  0.1198667E-001  0.3000000E+03  0.7818608E-02  0.1093470E+00
         21   -1    0    0  501  502  0.00000000000E+00  0.00000000000E+00  0.12043907489E+01  0.12043907489E+01  0.00000000000E+00 0. -1.
         13   -1    0    0    0    0 -0.00000000000E+00 -0.00000000000E+00 -0.10000000000E+04  0.10000000000E+04  0.00000000000E+00 0.  1.
    9000005    2    1    2  501    0  0.33024486845E+02  0.78198913491E+01 -0.40100824823E+03  0.40245444592E+03  0.31935032268E+01 0.  0.
         13    1    3    3    0    0  0.49711630975E+01  0.45616382475E+00 -0.49167416094E+02  0.49420191758E+02  0.00000000000E+00 0.  1.
          3    1    3    3  501    0  0.28053323748E+02  0.73637275243E+01 -0.35184083213E+03  0.35303425416E+03  0.00000000000E+00 0.  1.
         -3    1    1    2    0  502 -0.33024486845E+02 -0.78198913491E+01 -0.59778736103E+03  0.59874994483E+03  0.00000000000E+00 0. -1.
<mgrwt>
<rscale>  1 0.30000000E+03</rscale>
<asrwt>0</asrwt>
<pdfrwt beam="1">  1       21 0.43796120E-02 0.30000000E+03</pdfrwt>
<pdfrwt beam="2">0</pdfrwt>
<totfact> 0.36079094E+04</totfact>
</mgrwt>
</event>
<event>
 6    1  0.1198667E-001  0.3000000E+03  0.7818608E-02  0.1093470E+00
         21   -1    0    0  501  502  0.00000000000E+00  0.00000000000E+00  0.79265327099E+01  0.79265327099E+01  0.00000000000E+00 0. -1.
         13   -1    0    0    0    0 -0.00000000000E+00 -0.00000000000E+00 -0.10000000000E+04  0.10000000000E+04  0.00000000000E+00 0.  1.
    9000005    2    1    2  501    0 -0.18922118711E+02  0.28968074584E+02 -0.96036843957E+03  0.96099674788E+03  0.31644567325E+01 0.  0.
         13    1    3    3    0    0 -0.94658237185E+01  0.16523125659E+02 -0.49639039986E+03  0.49675551791E+03  0.00000000000E+00 0.  1.
          3    1    3    3  501    0 -0.94562949924E+01  0.12444948925E+02 -0.46397803972E+03  0.46424122998E+03  0.00000000000E+00 0.  1.
         -3    1    1    2    0  502  0.18922118711E+02 -0.28968074584E+02 -0.31705027716E+02  0.46929784829E+02  0.00000000000E+00 0. -1.
<mgrwt>
<rscale>  1 0.30000000E+03</rscale>
<asrwt>0</asrwt>
<pdfrwt beam="1">  1       21 0.28823816E-01 0.30000000E+03</pdfrwt>
<pdfrwt beam="2">0</pdfrwt>
<totfact> 0.11775867E+03</totfact>
</mgrwt>
</event>
<event>
 6    1  0.1198667E-001  0.3000000E+03  0.7818608E-02  0.1093470E+00
         21   -1    0    0  501  502  0.00000000000E+00  0.00000000000E+00  0.25995579186E+01  0.25995579186E+01  0.00000000000E+00 0. -1.
         13   -1    0    0    0    0 -0.00000000000E+00 -0.00000000000E+00 -0.10000000000E+04  0.10000000000E+04  0.00000000000E+00 0.  1.
    9000005    2    1    2  501    0  0.35785101737E+02  0.30842941811E+02 -0.68627860249E+03  0.68791136361E+03  0.34443263135E+01 0.  0.
         13    1    3    3    0    0  0.34110422854E+02  0.30207026364E+02 -0.65698163566E+03  0.65855968217E+03  0.00000000000E+00 0.  1.
          1    1    3    3  501    0  0.16746788822E+01  0.63591544657E+00 -0.29296966831E+02  0.29351681440E+02  0.00000000000E+00 0.  1.
         -3    1    1    2    0  502 -0.35785101737E+02 -0.30842941811E+02 -0.31112183959E+03  0.31468819431E+03  0.00000000000E+00 0. -1.
<mgrwt>
<rscale>  1 0.30000000E+03</rscale>
<asrwt>0</asrwt>
<pdfrwt beam="1">  1       21 0.94529578E-02 0.30000000E+03</pdfrwt>
<pdfrwt beam="2">0</pdfrwt>
<totfact> 0.95114387E+03</totfact>
</mgrwt>
</event>
<event>
 6    1  0.1198667E-001  0.3000000E+03  0.7818608E-02  0.1093470E+00
         21   -1    0    0  501  502  0.00000000000E+00  0.00000000000E+00  0.18669390201E+01  0.18669390201E+01  0.00000000000E+00 0. -1.
         13   -1    0    0    0    0 -0.00000000000E+00 -0.00000000000E+00 -0.10000000000E+04  0.10000000000E+04  0.00000000000E+00 0.  1.
    9000005    2    1    2  501    0  0.32618893755E+02  0.26715109871E+02 -0.60470069554E+03  0.60618181736E+03  0.39717993002E+01 0.  0.
         13    1    3    3    0    0  0.29363204005E+02  0.24876939405E+02 -0.56303470497E+03  0.56434841974E+03  0.00000000000E+00 0.  1.
          1    1    3    3  501    0  0.32556897500E+01  0.18381704658E+01 -0.41665990566E+02  0.41833397618E+02  0.00000000000E+00 0.  1.
         -3    1    1    2    0  502 -0.32618893755E+02 -0.26715109871E+02 -0.39343236544E+03  0.39568512166E+03  0.00000000000E+00 0. -1.
<mgrwt>
<rscale>  1 0.30000000E+03</rscale>
<asrwt>0</asrwt>
<pdfrwt beam="1">  1       21 0.67888835E-02 0.30000000E+03</pdfrwt>
<pdfrwt beam="2">0</pdfrwt>
<totfact> 0.17017473E+04</totfact>
</mgrwt>
</event>
<event>
 6    1  0.1198667E-001  0.3000000E+03  0.7818608E-02  0.1093470E+00
         21   -1    0    0  501  502  0.00000000000E+00  0.00000000000E+00  0.10633452568E+01  0.10633452568E+01  0.00000000000E+00 0. -1.
         13   -1    0    0    0    0 -0.00000000000E+00 -0.00000000000E+00 -0.10000000000E+04  0.10000000000E+04  0.00000000000E+00 0.  1.
    9000005    2    1    2  501    0  0.31914172495E+02 -0.62379063256E+01 -0.49540200425E+03  0.49647978416E+03  0.34065207794E+01 0.  0.
         13    1    3    3    0    0  0.53783572818E+01  0.15371293291E+00 -0.88348958602E+02  0.88512647914E+02  0.00000000000E+00 0.  1.
          3    1    3    3  501    0  0.26535815213E+02 -0.63916192585E+01 -0.40705304565E+03  0.40796713625E+03  0.00000000000E+00 0.  1.
         -3    1    1    2    0  502 -0.31914172495E+02  0.62379063256E+01 -0.50353465049E+03  0.50458356110E+03  0.00000000000E+00 0. -1.
<mgrwt>
<rscale>  1 0.30000000E+03</rscale>
<asrwt>0</asrwt>
<pdfrwt beam="1">  1       21 0.38667182E-02 0.30000000E+03</pdfrwt>
<pdfrwt beam="2">0</pdfrwt>
<totfact> 0.44514642E+04</totfact>
</mgrwt>
</event>
<event>
 6    1  0.1198667E-001  0.3000000E+03  0.7818608E-02  0.1093470E+00
         21   -1    0    0  501  502  0.00000000000E+00  0.00000000000E+00  0.22608548683E+01  0.22608548683E+01  0.00000000000E+00 0. -1.
         13   -1    0    0    0    0 -0.00000000000E+00 -0.00000000000E+00 -0.10000000000E+04  0.10000000000E+04  0.00000000000E+00 0.  1.
    9000005    2    1    2  501    0 -0.34958441079E+02  0.26749030693E+02 -0.31370372969E+03  0.31681059932E+03  0.46176376711E+01 0.  0.
         13    1    3    3    0    0 -0.27652604732E+02  0.21043706497E+02 -0.23315968686E+03  0.23573490134E+03  0.00000000000E+00 0.  1.
          3    1    3    3  501    0 -0.73058363476E+01  0.57053241955E+01 -0.80544042824E+02  0.81075697982E+02  0.00000000000E+00 0.  1.
         -1    1    1    2    0  502  0.34958441079E+02 -0.26749030693E+02 -0.68403541545E+03  0.68545025555E+03  0.00000000000E+00 0. -1.
<mgrwt>
<rscale>  1 0.30000000E+03</rscale>
<asrwt>0</asrwt>
<pdfrwt beam="1">  1       21 0.82213078E-02 0.30000000E+03</pdfrwt>
<pdfrwt beam="2">0</pdfrwt>
<totfact> 0.12175589E+04</totfact>
</mgrwt>
</event>
<event>
 6    1  0.1198667E-001  0.3000000E+03  0.7818608E-02  0.1093470E+00
         21   -1    0    0  501  502  0.00000000000E+00  0.00000000000E+00  0.11648836267E+01  0.11648836267E+01  0.00000000000E+00 0. -1.
         13   -1    0    0    0    0 -0.00000000000E+00 -0.00000000000E+00 -0.10000000000E+04  0.10000000000E+04  0.00000000000E+00 0.  1.
    9000005    2    1    2  501    0  0.31663669397E+02  0.92207960330E+01 -0.62437544331E+03  0.62525577521E+03  0.35325892952E+01 0.  0.
         13    1    3    3    0    0  0.64517357241E+01  0.14025242233E+01 -0.10154796940E+03  0.10176238036E+03  0.00000000000E+00 0.  1.
          1    1    3    3  501    0  0.25211933673E+02  0.78182718097E+01 -0.52282747391E+03  0.52349339485E+03  0.00000000000E+00 0.  1.
         -3    1    1    2    0  502 -0.31663669397E+02 -0.92207960330E+01 -0.37445967306E+03  0.37590910841E+03  0.00000000000E+00 0. -1.
<mgrwt>
<rscale>  1 0.30000000E+03</rscale>
<asrwt>0</asrwt>
<pdfrwt beam="1">  1       21 0.42359494E-02 0.30000000E+03</pdfrwt>
<pdfrwt beam="2">0</pdfrwt>
<totfact> 0.38172945E+04</totfact>
</mgrwt>
</event>
<event>
 6    1  0.1198667E-001  0.3000000E+03  0.7818608E-02  0.1093470E+00
         21   -1    0    0  501  502  0.00000000000E+00  0.00000000000E+00  0.18918466546E+01  0.18918466546E+01  0.00000000000E+00 0. -1.
         13   -1    0    0    0    0 -0.00000000000E+00 -0.00000000000E+00 -0.10000000000E+04  0.10000000000E+04  0.00000000000E+00 0.  1.
    9000005    2    1    2  501    0  0.32091406248E+02 -0.24692705033E+02 -0.68051027272E+03  0.68172313829E+03  0.35521779932E+01 0.  0.
         13    1    3    3    0    0  0.10680135791E+02 -0.61661804609E+01 -0.20415382215E+03  0.20452596457E+03  0.00000000000E+00 0.  1.
          1    1    3    3  501    0  0.21411270457E+02 -0.18526524572E+02 -0.47635645056E+03  0.47719717372E+03  0.00000000000E+00 0.  1.
         -3    1    1    2    0  502 -0.32091406248E+02  0.24692705033E+02 -0.31759788063E+03  0.32016870836E+03  0.00000000000E+00 0. -1.
<mgrwt>
<rscale>  1 0.30000000E+03</rscale>
<asrwt>0</asrwt>
<pdfrwt beam="1">  1       21 0.68794569E-02 0.30000000E+03</pdfrwt>
<pdfrwt beam="2">0</pdfrwt>
<totfact> 0.16630165E+04</totfact>
</mgrwt>
</event>
<event>
 6    1  0.1198667E-001  0.3000000E+03  0.7818608E-02  0.1093470E+00
         21   -1    0    0  501  502  0.00000000000E+00  0.00000000000E+00  0.15841572582E+01  0.15841572582E+01  0.00000000000E+00 0. -1.
         13   -1    0    0    0    0 -0.00000000000E+00 -0.00000000000E+00 -0.10000000000E+04  0.10000000000E+04  0.00000000000E+00 0.  1.
    9000005    2    1    2  501    0 -0.10705329395E+02 -0.35090343582E+02 -0.69212105558E+03  0.69310006864E+03  0.31958217865E+01 0.  0.
         13    1    3    3    0    0 -0.10246439283E+02 -0.29842241783E+02 -0.59721239701E+03  0.59804531271E+03  0.00000000000E+00 0.  1.
          3    1    3    3  501    0 -0.45889011130E+00 -0.52481017987E+01 -0.94908658567E+02  0.95054755923E+02  0.00000000000E+00 0.  1.
         -1    1    1    2    0  502  0.10705329395E+02  0.35090343582E+02 -0.30629478716E+03  0.30848408862E+03  0.00000000000E+00 0. -1.
<mgrwt>
<rscale>  1 0.30000000E+03</rscale>
<asrwt>0</asrwt>
<pdfrwt beam="1">  1       21 0.57605840E-02 0.30000000E+03</pdfrwt>
<pdfrwt beam="2">0</pdfrwt>
<totfact> 0.22603381E+04</totfact>
</mgrwt>
</event>
<event>
 6    1  0.1198667E-001  0.3000000E+03  0.7818608E-02  0.1093470E+00
         21   -1    0    0  501  502  0.00000000000E+00  0.00000000000E+00  0.20434977843E+01  0.20434977843E+01  0.00000000000E+00 0. -1.
         13   -1    0    0    0    0 -0.00000000000E+00 -0.00000000000E+00 -0.10000000000E+04  0.10000000000E+04  0.00000000000E+00 0.  1.
    9000005    2    1    2  501    0  0.30794698134E+02 -0.13857474236E+02 -0.83170688367E+03  0.83239893203E+03  0.33613487400E+01 0.  0.
         13    1    3    3    0    0  0.25201119981E+02 -0.98723771508E+01 -0.65969789590E+03  0.66025288650E+03  0.00000000000E+00 0.  1.
          1    1    3    3  501    0  0.55935781528E+01 -0.39850970852E+01 -0.17200898777E+03  0.17214604552E+03  0.00000000000E+00 0.  1.
         -1    1    1    2    0  502 -0.30794698134E+02  0.13857474236E+02 -0.16624961854E+03  0.16964456576E+03  0.00000000000E+00 0. -1.
<mgrwt>
<rscale>  1 0.30000000E+03</rscale>
<asrwt>0</asrwt>
<pdfrwt beam="1">  1       21 0.74309167E-02 0.30000000E+03</pdfrwt>
<pdfrwt beam="2">0</pdfrwt>
<totfact> 0.14538060E+04</totfact>
</mgrwt>
</event>
<event>
 6    1  0.1198667E-001  0.3000000E+03  0.7818608E-02  0.1093470E+00
         21   -1    0    0  501  502  0.00000000000E+00  0.00000000000E+00  0.12035838818E+01  0.12035838818E+01  0.00000000000E+00 0. -1.
         13   -1    0    0    0    0 -0.00000000000E+00 -0.00000000000E+00 -0.10000000000E+04  0.10000000000E+04  0.00000000000E+00 0.  1.
    9000005    2    1    2  501    0 -0.24989277291E+02 -0.17400670057E+02 -0.73873793552E+03  0.73936840552E+03  0.21574066417E+01 0.  0.
         13    1    3    3    0    0 -0.12910823741E+02 -0.78562742956E+01 -0.35275615883E+03  0.35307976154E+03  0.00000000000E+00 0.  1.
          3    1    3    3  501    0 -0.12078453550E+02 -0.95443957618E+01 -0.38598177670E+03  0.38628864399E+03  0.00000000000E+00 0.  1.
         -1    1    1    2    0  502  0.24989277291E+02  0.17400670057E+02 -0.26005848059E+03  0.26183517836E+03  0.00000000000E+00 0. -1.
<mgrwt>
<rscale>  1 0.30000000E+03</rscale>
<asrwt>0</asrwt>
<pdfrwt beam="1">  1       21 0.43766779E-02 0.30000000E+03</pdfrwt>
<pdfrwt beam="2">0</pdfrwt>
<totfact> 0.36120061E+04</totfact>
</mgrwt>
</event>
<event>
 6    1  0.1198667E-001  0.3000000E+03  0.7818608E-02  0.1093470E+00
         21   -1    0    0  501  502  0.00000000000E+00  0.00000000000E+00  0.46757433846E+01  0.46757433846E+01  0.00000000000E+00 0. -1.
         13   -1    0    0    0    0 -0.00000000000E+00 -0.00000000000E+00 -0.10000000000E+04  0.10000000000E+04  0.00000000000E+00 0.  1.
    9000005    2    1    2  501    0 -0.30180533264E+02 -0.18516336233E+02 -0.92735686061E+03  0.92803837512E+03  0.32801628761E+01 0.  0.
         13    1    3    3    0    0 -0.16368629256E+02 -0.84986971060E+01 -0.45616561163E+03  0.45653830629E+03  0.00000000000E+00 0.  1.
          3    1    3    3  501    0 -0.13811904008E+02 -0.10017639127E+02 -0.47119124898E+03  0.47150006883E+03  0.00000000000E+00 0.  1.
         -1    1    1    2    0  502  0.30180533264E+02  0.18516336233E+02 -0.67967396002E+02  0.76637368267E+02  0.00000000000E+00 0. -1.
<mgrwt>
<rscale>  1 0.30000000E+03</rscale>
<asrwt>0</asrwt>
<pdfrwt beam="1">  1       21 0.17002739E-01 0.30000000E+03</pdfrwt>
<pdfrwt beam="2">0</pdfrwt>
<totfact> 0.32605369E+03</totfact>
</mgrwt>
</event>
<event>
 6    1  0.1198667E-001  0.3000000E+03  0.7818608E-02  0.1093470E+00
         21   -1    0    0  501  502  0.00000000000E+00  0.00000000000E+00  0.39879161349E+01  0.39879161349E+01  0.00000000000E+00 0. -1.
         13   -1    0    0    0    0 -0.00000000000E+00 -0.00000000000E+00 -0.10000000000E+04  0.10000000000E+04  0.00000000000E+00 0.  1.
    9000005    2    1    2  501    0 -0.33664550474E+02  0.14200276644E+02 -0.90664977984E+03  0.90744481075E+03  0.10359124986E+02 0.  0.
         13    1    3    3    0    0 -0.28288059783E+01  0.48838047273E+01 -0.11135375522E+03  0.11149669274E+03  0.00000000000E+00 0.  1.
          3    1    3    3  501    0 -0.30835744495E+02  0.93164719170E+01 -0.79529602462E+03  0.79594811801E+03  0.00000000000E+00 0.  1.
         -1    1    1    2    0  502  0.33664550474E+02 -0.14200276644E+02 -0.89362304028E+02  0.96543105381E+02  0.00000000000E+00 0. -1.
<mgrwt>
<rscale>  1 0.30000000E+03</rscale>
<asrwt>0</asrwt>
<pdfrwt beam="1">  1       21 0.14501544E-01 0.30000000E+03</pdfrwt>
<pdfrwt beam="2">0</pdfrwt>
<totfact> 0.43833167E+03</totfact>
</mgrwt>
</event>
<event>
 6    1  0.1198667E-001  0.3000000E+03  0.7818608E-02  0.1093470E+00
         21   -1    0    0  501  502  0.00000000000E+00  0.00000000000E+00  0.15137960420E+01  0.15137960420E+01  0.00000000000E+00 0. -1.
         13   -1    0    0    0    0 -0.00000000000E+00 -0.00000000000E+00 -0.10000000000E+04  0.10000000000E+04  0.00000000000E+00 0.  1.
    9000005    2    1    2  501    0  0.30835775868E+02 -0.24872890023E+01 -0.80078591888E+03  0.80140773816E+03  0.62644418047E+01 0.  0.
         13    1    3    3    0    0  0.13465899658E+02  0.89053523337E+00 -0.40863989481E+03  0.40886267516E+03  0.00000000000E+00 0.  1.
          3    1    3    3  501    0  0.17369876210E+02 -0.33778242357E+01 -0.39214602406E+03  0.39254506300E+03  0.00000000000E+00 0.  1.
         -3    1    1    2    0  502 -0.30835775868E+02  0.24872890023E+01 -0.19770028508E+03  0.20010605788E+03  0.00000000000E+00 0. -1.
<mgrwt>
<rscale>  1 0.30000000E+03</rscale>
<asrwt>0</asrwt>
<pdfrwt beam="1">  1       21 0.55047245E-02 0.30000000E+03</pdfrwt>
<pdfrwt beam="2">0</pdfrwt>
<totfact> 0.24438142E+04</totfact>
</mgrwt>
</event>
<event>
 6    1  0.1198667E-001  0.3000000E+03  0.7818608E-02  0.1093470E+00
         21   -1    0    0  501  502  0.00000000000E+00  0.00000000000E+00  0.13916566419E+01  0.13916566419E+01  0.00000000000E+00 0. -1.
         13   -1    0    0    0    0 -0.00000000000E+00 -0.00000000000E+00 -0.10000000000E+04  0.10000000000E+04  0.00000000000E+00 0.  1.
    9000005    2    1    2  501    0  0.14811354385E+02  0.31344983030E+02 -0.32415553140E+03  0.32604842559E+03  0.53743006580E+01 0.  0.
         13    1    3    3    0    0  0.29701452109E+01  0.71350881570E+01 -0.94908670241E+02  0.95222827791E+02  0.00000000000E+00 0.  1.
          1    1    3    3  501    0  0.11841209174E+02  0.24209894873E+02 -0.22924686116E+03  0.23082559779E+03  0.00000000000E+00 0.  1.
         -3    1    1    2    0  502 -0.14811354385E+02 -0.31344983030E+02 -0.67445281195E+03  0.67534323106E+03  0.00000000000E+00 0. -1.
<mgrwt>
<rscale>  1 0.30000000E+03</rscale>
<asrwt>0</asrwt>
<pdfrwt beam="1">  1       21 0.50605803E-02 0.30000000E+03</pdfrwt>
<pdfrwt beam="2">0</pdfrwt>
<totfact> 0.28219138E+04</totfact>
</mgrwt>
</event>
<event>
 6    1  0.1198667E-001  0.3000000E+03  0.7818608E-02  0.1093470E+00
         21   -1    0    0  501  502  0.00000000000E+00  0.00000000000E+00  0.12740824325E+01  0.12740824325E+01  0.00000000000E+00 0. -1.
         13   -1    0    0    0    0 -0.00000000000E+00 -0.00000000000E+00 -0.10000000000E+04  0.10000000000E+04  0.00000000000E+00 0.  1.
    9000005    2    1    2  501    0 -0.22834466679E+02  0.22035990705E+02 -0.72779697146E+03  0.72849305012E+03  0.25874003075E+01 0.  0.
         13    1    3    3    0    0 -0.13144071602E+02  0.12535879424E+02 -0.38703452810E+03  0.38746050229E+03  0.00000000000E+00 0.  1.
          1    1    3    3  501    0 -0.96903950767E+01  0.95001112807E+01 -0.34076244336E+03  0.34103254783E+03  0.00000000000E+00 0.  1.
         -1    1    1    2    0  502  0.22834466679E+02 -0.22035990705E+02 -0.27092894610E+03  0.27278103232E+03  0.00000000000E+00 0. -1.
<mgrwt>
<rscale>  1 0.30000000E+03</rscale>
<asrwt>0</asrwt>
<pdfrwt beam="1">  1       21 0.46330368E-02 0.30000000E+03</pdfrwt>
<pdfrwt beam="2">0</pdfrwt>
<totfact> 0.32794579E+04</totfact>
</mgrwt>
</event>
<event>
 6    1  0.1198667E-001  0.3000000E+03  0.7818608E-02  0.1093470E+00
         21   -1    0    0  501  502  0.00000000000E+00  0.00000000000E+00  0.62757698882E+01  0.62757698882E+01  0.00000000000E+00 0. -1.
         13   -1    0    0    0    0 -0.00000000000E+00 -0.00000000000E+00 -0.10000000000E+04  0.10000000000E+04  0.00000000000E+00 0.  1.
    9000005    2    1    2  501    0  0.59357284277E+02  0.96094813011E+01 -0.82432854454E+03  0.82652447610E+03  0.30872194352E+01 0.  0.
         13    1    3    3    0    0  0.33529399031E+02  0.68974447163E+01 -0.47535333770E+03  0.47658429580E+03  0.00000000000E+00 0.  1.
          1    1    3    3  501    0  0.25827885247E+02  0.27120365848E+01 -0.34897520684E+03  0.34994018030E+03  0.00000000000E+00 0.  1.
         -1    1    1    2    0  502 -0.59357284277E+02 -0.96094813011E+01 -0.16939568557E+03  0.17975129379E+03  0.00000000000E+00 0. -1.
<mgrwt>
<rscale>  1 0.30000000E+03</rscale>
<asrwt>0</asrwt>
<pdfrwt beam="1">  1       21 0.22821030E-01 0.30000000E+03</pdfrwt>
<pdfrwt beam="2">0</pdfrwt>
<totfact> 0.18622004E+03</totfact>
</mgrwt>
</event>
<event>
 6    1  0.1198667E-001  0.3000000E+03  0.7818608E-02  0.1093470E+00
         21   -1    0    0  501  502  0.00000000000E+00  0.00000000000E+00  0.15244261582E+01  0.15244261582E+01  0.00000000000E+00 0. -1.
         13   -1    0    0    0    0 -0.00000000000E+00 -0.00000000000E+00 -0.10000000000E+04  0.10000000000E+04  0.00000000000E+00 0.  1.
    9000005    2    1    2  501    0 -0.10111295200E+02  0.37526566202E+02 -0.53571367242E+03  0.53713336373E+03  0.35538916489E+01 0.  0.
         13    1    3    3    0    0 -0.67707205240E+01  0.18527640537E+02 -0.27712231650E+03  0.27782349509E+03  0.00000000000E+00 0.  1.
          1    1    3    3  501    0 -0.33405746763E+01  0.18998925665E+02 -0.25859135592E+03  0.25930986864E+03  0.00000000000E+00 0.  1.
         -1    1    1    2    0  502  0.10111295200E+02 -0.37526566202E+02 -0.46276190142E+03  0.46439106243E+03  0.00000000000E+00 0. -1.
<mgrwt>
<rscale>  1 0.30000000E+03</rscale>
<asrwt>0</asrwt>
<pdfrwt beam="1">  1       21 0.55433795E-02 0.30000000E+03</pdfrwt>
<pdfrwt beam="2">0</pdfrwt>
<totfact> 0.24146576E+04</totfact>
</mgrwt>
</event>
<event>
 6    1  0.1198667E-001  0.3000000E+03  0.7818608E-02  0.1093470E+00
         21   -1    0    0  501  502  0.00000000000E+00  0.00000000000E+00  0.34972992411E+01  0.34972992411E+01  0.00000000000E+00 0. -1.
         13   -1    0    0    0    0 -0.00000000000E+00 -0.00000000000E+00 -0.10000000000E+04  0.10000000000E+04  0.00000000000E+00 0.  1.
    9000005    2    1    2  501    0 -0.49124473670E+01 -0.41721470774E+02 -0.85118959497E+03  0.85223358259E+03  0.36795974518E+01 0.  0.
         13    1    3    3    0    0  0.28468080065E+00 -0.32662310829E+00 -0.65987573213E+01  0.66129663540E+01  0.00000000000E+00 0.  1.
          3    1    3    3  501    0 -0.51971281676E+01 -0.41394847666E+02 -0.84459083765E+03  0.84562061623E+03  0.00000000000E+00 0.  1.
         -1    1    1    2    0  502  0.49124473670E+01  0.41721470774E+02 -0.14531310579E+03  0.15126371666E+03  0.00000000000E+00 0. -1.
<mgrwt>
<rscale>  1 0.30000000E+03</rscale>
<asrwt>0</asrwt>
<pdfrwt beam="1">  1       21 0.12717479E-01 0.30000000E+03</pdfrwt>
<pdfrwt beam="2">0</pdfrwt>
<totfact> 0.55756487E+03</totfact>
</mgrwt>
</event>
<event>
 6    1  0.1198667E-001  0.3000000E+03  0.7818608E-02  0.1093470E+00
         21   -1    0    0  501  502  0.00000000000E+00  0.00000000000E+00  0.47211169853E+01  0.47211169853E+01  0.00000000000E+00 0. -1.
         13   -1    0    0    0    0 -0.00000000000E+00 -0.00000000000E+00 -0.10000000000E+04  0.10000000000E+04  0.00000000000E+00 0.  1.
    9000005    2    1    2  501    0 -0.61702996218E+02 -0.21344331654E+02 -0.34239758192E+03  0.34858330101E+03  0.33724473491E+01 0.  0.
         13    1    3    3    0    0 -0.60185858510E+02 -0.20281681818E+02 -0.33143121433E+03  0.33746160376E+03  0.00000000000E+00 0.  1.
          3    1    3    3  501    0 -0.15171377078E+01 -0.10626498360E+01 -0.10966367591E+02  0.11121697246E+02  0.00000000000E+00 0.  1.
         -3    1    1    2    0  502  0.61702996218E+02  0.21344331654E+02 -0.65288130109E+03  0.65613781598E+03  0.00000000000E+00 0. -1.
<mgrwt>
<rscale>  1 0.30000000E+03</rscale>
<asrwt>0</asrwt>
<pdfrwt beam="1">  1       21 0.17167734E-01 0.30000000E+03</pdfrwt>
<pdfrwt beam="2">0</pdfrwt>
<totfact> 0.32020660E+03</totfact>
</mgrwt>
</event>
<event>
 6    1  0.1198667E-001  0.3000000E+03  0.7818608E-02  0.1093470E+00
         21   -1    0    0  501  502  0.00000000000E+00  0.00000000000E+00  0.30177632720E+01  0.30177632720E+01  0.00000000000E+00 0. -1.
         13   -1    0    0    0    0 -0.00000000000E+00 -0.00000000000E+00 -0.10000000000E+04  0.10000000000E+04  0.00000000000E+00 0.  1.
    9000005    2    1    2  501    0 -0.14466723149E+02 -0.47390782485E+02 -0.71439784234E+03  0.71612211622E+03  0.33816952221E+01 0.  0.
         13    1    3    3    0    0 -0.90987679607E+01 -0.34391314129E+02 -0.50133997902E+03  0.50260056171E+03  0.00000000000E+00 0.  1.
          3    1    3    3  501    0 -0.53679551880E+01 -0.12999468357E+02 -0.21305786332E+03  0.21352155451E+03  0.00000000000E+00 0.  1.
         -3    1    1    2    0  502  0.14466723149E+02  0.47390782485E+02 -0.28258439439E+03  0.28689564705E+03  0.00000000000E+00 0. -1.
<mgrwt>
<rscale>  1 0.30000000E+03</rscale>
<asrwt>0</asrwt>
<pdfrwt beam="1">  1       21 0.10973708E-01 0.30000000E+03</pdfrwt>
<pdfrwt beam="2">0</pdfrwt>
<totfact> 0.72833100E+03</totfact>
</mgrwt>
</event>
<event>
 6    1  0.1198667E-001  0.3000000E+03  0.7818608E-02  0.1093470E+00
         21   -1    0    0  501  502  0.00000000000E+00  0.00000000000E+00  0.12848401550E+01  0.12848401550E+01  0.00000000000E+00 0. -1.
         13   -1    0    0    0    0 -0.00000000000E+00 -0.00000000000E+00 -0.10000000000E+04  0.10000000000E+04  0.00000000000E+00 0.  1.
    9000005    2    1    2  501    0 -0.57441187173E+01 -0.31327840488E+02 -0.27258562611E+03  0.27445712449E+03  0.30595971601E+01 0.  0.
         13    1    3    3    0    0 -0.23441932643E+01 -0.17011322349E+02 -0.15805682580E+03  0.15898691931E+03  0.00000000000E+00 0.  1.
          1    1    3    3  501    0 -0.33999254530E+01 -0.14316518139E+02 -0.11452880031E+03  0.11547020518E+03  0.00000000000E+00 0.  1.
         -3    1    1    2    0  502  0.57441187173E+01  0.31327840488E+02 -0.72612953374E+03  0.72682771566E+03  0.00000000000E+00 0. -1.
<mgrwt>
<rscale>  1 0.30000000E+03</rscale>
<asrwt>0</asrwt>
<pdfrwt beam="1">  1       21 0.46721559E-02 0.30000000E+03</pdfrwt>
<pdfrwt beam="2">0</pdfrwt>
<totfact> 0.32329263E+04</totfact>
</mgrwt>
</event>
<event>
 6    1  0.1198667E-001  0.3000000E+03  0.7818608E-02  0.1093470E+00
         21   -1    0    0  501  502  0.00000000000E+00  0.00000000000E+00  0.13950191494E+01  0.13950191494E+01  0.00000000000E+00 0. -1.
         13   -1    0    0    0    0 -0.00000000000E+00 -0.00000000000E+00 -0.10000000000E+04  0.10000000000E+04  0.00000000000E+00 0.  1.
    9000005    2    1    2  501    0 -0.32674667662E+02 -0.72055535841E+01 -0.71975973578E+03  0.72054946621E+03  0.42310863022E+01 0.  0.
         13    1    3    3    0    0 -0.21229027760E+01  0.11929028576E+00 -0.67559377209E+02  0.67592827987E+02  0.00000000000E+00 0.  1.
          3    1    3    3  501    0 -0.30551764886E+02 -0.73248438699E+01 -0.65220035857E+03  0.65295663822E+03  0.00000000000E+00 0.  1.
         -3    1    1    2    0  502  0.32674667662E+02  0.72055535841E+01 -0.27884524507E+03  0.28084555294E+03  0.00000000000E+00 0. -1.
<mgrwt>
<rscale>  1 0.30000000E+03</rscale>
<asrwt>0</asrwt>
<pdfrwt beam="1">  1       21 0.50728076E-02 0.30000000E+03</pdfrwt>
<pdfrwt beam="2">0</pdfrwt>
<totfact> 0.28103206E+04</totfact>
</mgrwt>
</event>
<event>
 6    1  0.1198667E-001  0.3000000E+03  0.7818608E-02  0.1093470E+00
         21   -1    0    0  501  502  0.00000000000E+00  0.00000000000E+00  0.26450650952E+01  0.26450650952E+01  0.00000000000E+00 0. -1.
         13   -1    0    0    0    0 -0.00000000000E+00 -0.00000000000E+00 -0.10000000000E+04  0.10000000000E+04  0.00000000000E+00 0.  1.
    9000005    2    1    2  501    0 -0.12644247187E+02 -0.49596353161E+02 -0.54283791762E+03  0.54525530325E+03  0.32658366536E+01 0.  0.
         13    1    3    3    0    0 -0.46081911916E+01 -0.24141471931E+02 -0.26708307373E+03  0.26821151050E+03  0.00000000000E+00 0.  1.
          1    1    3    3  501    0 -0.80360559951E+01 -0.25454881230E+02 -0.27575484389E+03  0.27704379276E+03  0.00000000000E+00 0.  1.
         -1    1    1    2    0  502  0.12644247187E+02  0.49596353161E+02 -0.45451701729E+03  0.45738976184E+03  0.00000000000E+00 0. -1.
<mgrwt>
<rscale>  1 0.30000000E+03</rscale>
<asrwt>0</asrwt>
<pdfrwt beam="1">  1       21 0.96184388E-02 0.30000000E+03</pdfrwt>
<pdfrwt beam="2">0</pdfrwt>
<totfact> 0.92218078E+03</totfact>
</mgrwt>
</event>
<event>
 6    1  0.1198667E-001  0.3000000E+03  0.7818608E-02  0.1093470E+00
         21   -1    0    0  501  502  0.00000000000E+00  0.00000000000E+00  0.95493057819E+01  0.95493057819E+01  0.00000000000E+00 0. -1.
         13   -1    0    0    0    0 -0.00000000000E+00 -0.00000000000E+00 -0.10000000000E+04  0.10000000000E+04  0.00000000000E+00 0.  1.
    9000005    2    1    2  501    0 -0.47608302062E+02 -0.91325051410E+01 -0.93350425379E+03  0.93476394523E+03  0.18677212297E+01 0.  0.
         13    1    3    3    0    0 -0.21547938549E+02 -0.38341586957E+01 -0.40450355049E+03  0.40509521941E+03  0.00000000000E+00 0.  1.
          3    1    3    3  501    0 -0.26060363513E+02 -0.52983464452E+01 -0.52900070330E+03  0.52966872583E+03  0.00000000000E+00 0.  1.
         -3    1    1    2    0  502  0.47608302062E+02  0.91325051410E+01 -0.56946440427E+02  0.74785360551E+02  0.00000000000E+00 0. -1.
<mgrwt>
<rscale>  1 0.30000000E+03</rscale>
<asrwt>0</asrwt>
<pdfrwt beam="1">  1       21 0.34724822E-01 0.30000000E+03</pdfrwt>
<pdfrwt beam="2">0</pdfrwt>
<totfact> 0.80874105E+02</totfact>
</mgrwt>
</event>
<event>
 6    1  0.1198667E-001  0.3000000E+03  0.7818608E-02  0.1093470E+00
         21   -1    0    0  501  502  0.00000000000E+00  0.00000000000E+00  0.11995965729E+01  0.11995965729E+01  0.00000000000E+00 0. -1.
         13   -1    0    0    0    0 -0.00000000000E+00 -0.00000000000E+00 -0.10000000000E+04  0.10000000000E+04  0.00000000000E+00 0.  1.
    9000005    2    1    2  501    0  0.53874196079E+01 -0.33503816642E+02 -0.57418339835E+03  0.57522878652E+03  0.70747350909E+01 0.  0.
         13    1    3    3    0    0  0.22536826035E+01 -0.26301024071E+02 -0.47617126878E+03  0.47690240109E+03  0.00000000000E+00 0.  1.
          1    1    3    3  501    0  0.31337370043E+01 -0.72027925712E+01 -0.98012129568E+02  0.98326385425E+02  0.00000000000E+00 0.  1.
         -3    1    1    2    0  502 -0.53874196079E+01  0.33503816642E+02 -0.42461700508E+03  0.42597081006E+03  0.00000000000E+00 0. -1.
<mgrwt>
<rscale>  1 0.30000000E+03</rscale>
<asrwt>0</asrwt>
<pdfrwt beam="1">  1       21 0.43621786E-02 0.30000000E+03</pdfrwt>
<pdfrwt beam="2">0</pdfrwt>
<totfact> 0.36323566E+04</totfact>
</mgrwt>
</event>
<event>
 6    1  0.1198667E-001  0.3000000E+03  0.7818608E-02  0.1093470E+00
         21   -1    0    0  501  502  0.00000000000E+00  0.00000000000E+00  0.73220580183E+01  0.73220580183E+01  0.00000000000E+00 0. -1.
         13   -1    0    0    0    0 -0.00000000000E+00 -0.00000000000E+00 -0.10000000000E+04  0.10000000000E+04  0.00000000000E+00 0.  1.
    9000005    2    1    2  501    0  0.26827466517E+02 -0.58784648850E+02 -0.82642948922E+03  0.82895755497E+03  0.30950603152E+01 0.  0.
         13    1    3    3    0    0  0.12482344397E+02 -0.30442810825E+02 -0.43154907057E+03  0.43280154108E+03  0.00000000000E+00 0.  1.
          3    1    3    3  501    0  0.14345122120E+02 -0.28341838025E+02 -0.39488041865E+03  0.39615601390E+03  0.00000000000E+00 0.  1.
         -1    1    1    2    0  502 -0.26827466517E+02  0.58784648850E+02 -0.16624845276E+03  0.17836450304E+03  0.00000000000E+00 0. -1.
<mgrwt>
<rscale>  1 0.30000000E+03</rscale>
<asrwt>0</asrwt>
<pdfrwt beam="1">  1       21 0.26625722E-01 0.30000000E+03</pdfrwt>
<pdfrwt beam="2">0</pdfrwt>
<totfact> 0.13779220E+03</totfact>
</mgrwt>
</event>
<event>
 6    1  0.1198667E-001  0.3000000E+03  0.7818608E-02  0.1093470E+00
         21   -1    0    0  501  502  0.00000000000E+00  0.00000000000E+00  0.12204525543E+01  0.12204525543E+01  0.00000000000E+00 0. -1.
         13   -1    0    0    0    0 -0.00000000000E+00 -0.00000000000E+00 -0.10000000000E+04  0.10000000000E+04  0.00000000000E+00 0.  1.
    9000005    2    1    2  501    0 -0.11188351351E+02  0.28364073259E+02 -0.73210945145E+03  0.73281285215E+03  0.10036309691E+02 0.  0.
         13    1    3    3    0    0 -0.54240084721E+01  0.73238532819E+01 -0.31655454189E+03  0.31668570647E+03  0.00000000000E+00 0.  1.
          3    1    3    3  501    0 -0.57643428788E+01  0.21040219977E+02 -0.41555490957E+03  0.41612714568E+03  0.00000000000E+00 0.  1.
         -3    1    1    2    0  502  0.11188351351E+02 -0.28364073259E+02 -0.26667009599E+03  0.26840760040E+03  0.00000000000E+00 0. -1.
<mgrwt>
<rscale>  1 0.30000000E+03</rscale>
<asrwt>0</asrwt>
<pdfrwt beam="1">  1       21 0.44380186E-02 0.30000000E+03</pdfrwt>
<pdfrwt beam="2">0</pdfrwt>
<totfact> 0.35278325E+04</totfact>
</mgrwt>
</event>
<event>
 6    1  0.1198667E-001  0.3000000E+03  0.7818608E-02  0.1093470E+00
         21   -1    0    0  501  502  0.00000000000E+00  0.00000000000E+00  0.15075338319E+01  0.15075338319E+01  0.00000000000E+00 0. -1.
         13   -1    0    0    0    0 -0.00000000000E+00 -0.00000000000E+00 -0.10000000000E+04  0.10000000000E+04  0.00000000000E+00 0.  1.
    9000005    2    1    2  501    0 -0.36777432922E+01  0.32283818298E+02 -0.77290929926E+03  0.77359628814E+03  0.25809736292E+01 0.  0.
         13    1    3    3    0    0 -0.24716956013E+01  0.27392217008E+02 -0.63634215524E+03  0.63693624592E+03  0.00000000000E+00 0.  1.
          3    1    3    3  501    0 -0.12060476909E+01  0.48916012894E+01 -0.13656714402E+03  0.13666004222E+03  0.00000000000E+00 0.  1.
         -3    1    1    2    0  502  0.36777432922E+01 -0.32283818298E+02 -0.22558316691E+03  0.22791124569E+03  0.00000000000E+00 0. -1.
<mgrwt>
<rscale>  1 0.30000000E+03</rscale>
<asrwt>0</asrwt>
<pdfrwt beam="1">  1       21 0.54819528E-02 0.30000000E+03</pdfrwt>
<pdfrwt beam="2">0</pdfrwt>
<totfact> 0.24612449E+04</totfact>
</mgrwt>
</event>
<event>
 6    1  0.1198667E-001  0.3000000E+03  0.7818608E-02  0.1093470E+00
         21   -1    0    0  501  502  0.00000000000E+00  0.00000000000E+00  0.21963021897E+01  0.21963021897E+01  0.00000000000E+00 0. -1.
         13   -1    0    0    0    0 -0.00000000000E+00 -0.00000000000E+00 -0.10000000000E+04  0.10000000000E+04  0.00000000000E+00 0.  1.
    9000005    2    1    2  501    0 -0.22530675171E+02 -0.40904063066E+02 -0.47001353283E+03  0.47234421722E+03  0.39452245768E+01 0.  0.
         13    1    3    3    0    0 -0.21555292434E+02 -0.38467831010E+02 -0.43365937281E+03  0.43589546485E+03  0.00000000000E+00 0.  1.
          3    1    3    3  501    0 -0.97538273784E+00 -0.24362320563E+01 -0.36354160027E+02  0.36448752371E+02  0.00000000000E+00 0.  1.
         -1    1    1    2    0  502  0.22530675171E+02  0.40904063066E+02 -0.52779016498E+03  0.52985208497E+03  0.00000000000E+00 0. -1.
<mgrwt>
<rscale>  1 0.30000000E+03</rscale>
<asrwt>0</asrwt>
<pdfrwt beam="1">  1       21 0.79865703E-02 0.30000000E+03</pdfrwt>
<pdfrwt beam="2">0</pdfrwt>
<totfact> 0.12811619E+04</totfact>
</mgrwt>
</event>
<event>
 6    1  0.1198667E-001  0.3000000E+03  0.7818608E-02  0.1093470E+00
         21   -1    0    0  501  502  0.00000000000E+00  0.00000000000E+00  0.11077640495E+01  0.11077640495E+01  0.00000000000E+00 0. -1.
         13   -1    0    0    0    0 -0.00000000000E+00 -0.00000000000E+00 -0.10000000000E+04  0.10000000000E+04  0.00000000000E+00 0.  1.
    9000005    2    1    2  501    0  0.12939108050E+01  0.32778826477E+02 -0.57765474431E+03  0.57859486480E+03  0.32997388232E+01 0.  0.
         13    1    3    3    0    0  0.14277746015E+01  0.23505575479E+02 -0.38874220491E+03  0.38945481445E+03  0.00000000000E+00 0.  1.
          3    1    3    3  501    0 -0.13386379646E+00  0.92732509978E+01 -0.18891253939E+03  0.18914005034E+03  0.00000000000E+00 0.  1.
         -3    1    1    2    0  502 -0.12939108050E+01 -0.32778826477E+02 -0.42123749164E+03  0.42251289925E+03  0.00000000000E+00 0. -1.
<mgrwt>
<rscale>  1 0.30000000E+03</rscale>
<asrwt>0</asrwt>
<pdfrwt beam="1">  1       21 0.40282414E-02 0.30000000E+03</pdfrwt>
<pdfrwt beam="2">0</pdfrwt>
<totfact> 0.41551995E+04</totfact>
</mgrwt>
</event>
<event>
 6    1  0.1198667E-001  0.3000000E+03  0.7818608E-02  0.1093470E+00
         21   -1    0    0  501  502  0.00000000000E+00  0.00000000000E+00  0.28710486626E+01  0.28710486626E+01  0.00000000000E+00 0. -1.
         13   -1    0    0    0    0 -0.00000000000E+00 -0.00000000000E+00 -0.10000000000E+04  0.10000000000E+04  0.00000000000E+00 0.  1.
    9000005    2    1    2  501    0 -0.49230561658E+02  0.20472396261E+02 -0.45400923589E+03  0.45714053594E+03  0.32118710249E+01 0.  0.
         13    1    3    3    0    0 -0.16779901567E+02  0.79074822411E+01 -0.16887256790E+03  0.16988830908E+03  0.00000000000E+00 0.  1.
          1    1    3    3  501    0 -0.32450660091E+02  0.12564914020E+02 -0.28513666799E+03  0.28725222686E+03  0.00000000000E+00 0.  1.
         -3    1    1    2    0  502  0.49230561658E+02 -0.20472396261E+02 -0.54311971545E+03  0.54573051272E+03  0.00000000000E+00 0. -1.
<mgrwt>
<rscale>  1 0.30000000E+03</rscale>
<asrwt>0</asrwt>
<pdfrwt beam="1">  1       21 0.10440199E-01 0.30000000E+03</pdfrwt>
<pdfrwt beam="2">0</pdfrwt>
<totfact> 0.79649852E+03</totfact>
</mgrwt>
</event>
<event>
 6    1  0.1198667E-001  0.3000000E+03  0.7818608E-02  0.1093470E+00
         21   -1    0    0  501  502  0.00000000000E+00  0.00000000000E+00  0.14663674687E+01  0.14663674687E+01  0.00000000000E+00 0. -1.
         13   -1    0    0    0    0 -0.00000000000E+00 -0.00000000000E+00 -0.10000000000E+04  0.10000000000E+04  0.00000000000E+00 0.  1.
    9000005    2    1    2  501    0 -0.19744339390E+02 -0.32058419598E+02 -0.56801729738E+03  0.56930679504E+03  0.69996826265E+01 0.  0.
         13    1    3    3    0    0 -0.10681740748E+02 -0.13350357648E+02 -0.29831842156E+03  0.29880798564E+03  0.00000000000E+00 0.  1.
          3    1    3    3  501    0 -0.90625986422E+01 -0.18708061950E+02 -0.26969887581E+03  0.27049880941E+03  0.00000000000E+00 0.  1.
         -3    1    1    2    0  502  0.19744339390E+02  0.32058419598E+02 -0.43051633515E+03  0.43215957242E+03  0.00000000000E+00 0. -1.
<mgrwt>
<rscale>  1 0.30000000E+03</rscale>
<asrwt>0</asrwt>
<pdfrwt beam="1">  1       21 0.53322566E-02 0.30000000E+03</pdfrwt>
<pdfrwt beam="2">0</pdfrwt>
<totfact> 0.25807593E+04</totfact>
</mgrwt>
</event>
<event>
 6    1  0.1198667E-001  0.3000000E+03  0.7818608E-02  0.1093470E+00
         21   -1    0    0  501  502  0.00000000000E+00  0.00000000000E+00  0.33200981181E+01  0.33200981181E+01  0.00000000000E+00 0. -1.
         13   -1    0    0    0    0 -0.00000000000E+00 -0.00000000000E+00 -0.10000000000E+04  0.10000000000E+04  0.00000000000E+00 0.  1.
    9000005    2    1    2  501    0 -0.38088062515E+02 -0.12117462985E+02 -0.85948265585E+03  0.86041937126E+03  0.36776803293E+01 0.  0.
         13    1    3    3    0    0 -0.30460888838E+02 -0.84094530781E+01 -0.65821164293E+03  0.65896976527E+03  0.00000000000E+00 0.  1.
          1    1    3    3  501    0 -0.76271736773E+01 -0.37080099065E+01 -0.20127101291E+03  0.20144960599E+03  0.00000000000E+00 0.  1.
         -3    1    1    2    0  502  0.38088062515E+02  0.12117462985E+02 -0.13719724604E+03  0.14290072685E+03  0.00000000000E+00 0. -1.
<mgrwt>
<rscale>  1 0.30000000E+03</rscale>
<asrwt>0</asrwt>
<pdfrwt beam="1">  1       21 0.12073110E-01 0.30000000E+03</pdfrwt>
<pdfrwt beam="2">0</pdfrwt>
<totfact> 0.61291552E+03</totfact>
</mgrwt>
</event>
<event>
 6    1  0.1198667E-001  0.3000000E+03  0.7818608E-02  0.1093470E+00
         21   -1    0    0  501  502  0.00000000000E+00  0.00000000000E+00  0.21242853422E+01  0.21242853422E+01  0.00000000000E+00 0. -1.
         13   -1    0    0    0    0 -0.00000000000E+00 -0.00000000000E+00 -0.10000000000E+04  0.10000000000E+04  0.00000000000E+00 0.  1.
    9000005    2    1    2  501    0  0.28294318531E+02  0.22257864062E+02 -0.81140424200E+03  0.81220959110E+03  0.34051382290E+01 0.  0.
         13    1    3    3    0    0  0.23217670017E-01  0.39120116351E+00 -0.60597744106E+01  0.60724330641E+01  0.00000000000E+00 0.  1.
          1    1    3    3  501    0  0.28271100861E+02  0.21866662898E+02 -0.80534446759E+03  0.80613715803E+03  0.00000000000E+00 0.  1.
         -3    1    1    2    0  502 -0.28294318531E+02 -0.22257864062E+02 -0.18647147266E+03  0.18991469424E+03  0.00000000000E+00 0. -1.
<mgrwt>
<rscale>  1 0.30000000E+03</rscale>
<asrwt>0</asrwt>
<pdfrwt beam="1">  1       21 0.77246903E-02 0.30000000E+03</pdfrwt>
<pdfrwt beam="2">0</pdfrwt>
<totfact> 0.13583479E+04</totfact>
</mgrwt>
</event>
<event>
 6    1  0.1198667E-001  0.3000000E+03  0.7818608E-02  0.1093470E+00
         21   -1    0    0  501  502  0.00000000000E+00  0.00000000000E+00  0.60957010744E+01  0.60957010744E+01  0.00000000000E+00 0. -1.
         13   -1    0    0    0    0 -0.00000000000E+00 -0.00000000000E+00 -0.10000000000E+04  0.10000000000E+04  0.00000000000E+00 0.  1.
    9000005    2    1    2  501    0 -0.32753981283E+02  0.13608424071E+02 -0.94506879184E+03  0.94573910038E+03  0.30679265545E+01 0.  0.
         13    1    3    3    0    0 -0.24852103242E+02  0.10938254667E+02 -0.75262229841E+03  0.75311194156E+03  0.00000000000E+00 0.  1.
          1    1    3    3  501    0 -0.79018780406E+01  0.26701694046E+01 -0.19244649343E+03  0.19262715882E+03  0.00000000000E+00 0.  1.
         -3    1    1    2    0  502  0.32753981283E+02 -0.13608424071E+02 -0.48835507083E+02  0.60356600697E+02  0.00000000000E+00 0. -1.
<mgrwt>
<rscale>  1 0.30000000E+03</rscale>
<asrwt>0</asrwt>
<pdfrwt beam="1">  1       21 0.22166232E-01 0.30000000E+03</pdfrwt>
<pdfrwt beam="2">0</pdfrwt>
<totfact> 0.19698243E+03</totfact>
</mgrwt>
</event>
<event>
 6    1  0.1198667E-001  0.3000000E+03  0.7818608E-02  0.1093470E+00
         21   -1    0    0  501  502  0.00000000000E+00  0.00000000000E+00  0.13440531147E+01  0.13440531147E+01  0.00000000000E+00 0. -1.
         13   -1    0    0    0    0 -0.00000000000E+00 -0.00000000000E+00 -0.10000000000E+04  0.10000000000E+04  0.00000000000E+00 0.  1.
    9000005    2    1    2  501    0 -0.17005374308E+02 -0.25136327916E+02 -0.77955098702E+03  0.78014730546E+03  0.30098359859E+01 0.  0.
         13    1    3    3    0    0 -0.13258287321E+02 -0.17202924244E+02 -0.56105274047E+03  0.56147297386E+03  0.00000000000E+00 0.  1.
          3    1    3    3  501    0 -0.37470869879E+01 -0.79334036719E+01 -0.21849824656E+03  0.21867433161E+03  0.00000000000E+00 0.  1.
         -1    1    1    2    0  502  0.17005374308E+02  0.25136327916E+02 -0.21910495986E+03  0.22119674765E+03  0.00000000000E+00 0. -1.
<mgrwt>
<rscale>  1 0.30000000E+03</rscale>
<asrwt>0</asrwt>
<pdfrwt beam="1">  1       21 0.48874762E-02 0.30000000E+03</pdfrwt>
<pdfrwt beam="2">0</pdfrwt>
<totfact> 0.29943692E+04</totfact>
</mgrwt>
</event>
<event>
 6    1  0.1198667E-001  0.3000000E+03  0.7818608E-02  0.1093470E+00
         21   -1    0    0  501  502  0.00000000000E+00  0.00000000000E+00  0.19769662452E+01  0.19769662452E+01  0.00000000000E+00 0. -1.
         13   -1    0    0    0    0 -0.00000000000E+00 -0.00000000000E+00 -0.10000000000E+04  0.10000000000E+04  0.00000000000E+00 0.  1.
    9000005    2    1    2  501    0 -0.18293941717E+02 -0.34798780977E+02 -0.73208734646E+03  0.73315097562E+03  0.35842346814E+01 0.  0.
         13    1    3    3    0    0 -0.43365772563E+01 -0.98804405172E+01 -0.22795047486E+03  0.22820571420E+03  0.00000000000E+00 0.  1.
          1    1    3    3  501    0 -0.13957364460E+02 -0.24918340459E+02 -0.50413687160E+03  0.50494526141E+03  0.00000000000E+00 0.  1.
         -3    1    1    2    0  502  0.18293941717E+02  0.34798780977E+02 -0.26593568729E+03  0.26882599063E+03  0.00000000000E+00 0. -1.
<mgrwt>
<rscale>  1 0.30000000E+03</rscale>
<asrwt>0</asrwt>
<pdfrwt beam="1">  1       21 0.71889833E-02 0.30000000E+03</pdfrwt>
<pdfrwt beam="2">0</pdfrwt>
<totfact> 0.15403504E+04</totfact>
</mgrwt>
</event>
<event>
 6    1  0.1198667E-001  0.3000000E+03  0.7818608E-02  0.1093470E+00
         21   -1    0    0  501  502  0.00000000000E+00  0.00000000000E+00  0.16541379166E+01  0.16541379166E+01  0.00000000000E+00 0. -1.
         13   -1    0    0    0    0 -0.00000000000E+00 -0.00000000000E+00 -0.10000000000E+04  0.10000000000E+04  0.00000000000E+00 0.  1.
    9000005    2    1    2  501    0  0.12496555184E+02  0.37385396283E+02 -0.61979506415E+03  0.62105653104E+03  0.33854766219E+01 0.  0.
         13    1    3    3    0    0  0.52332411264E+01  0.17534482583E+02 -0.31252981632E+03  0.31306505871E+03  0.00000000000E+00 0.  1.
          3    1    3    3  501    0  0.72633140573E+01  0.19850913701E+02 -0.30726524783E+03  0.30799147233E+03  0.00000000000E+00 0.  1.
         -1    1    1    2    0  502 -0.12496555184E+02 -0.37385396283E+02 -0.37855079793E+03  0.38059760688E+03  0.00000000000E+00 0. -1.
<mgrwt>
<rscale>  1 0.30000000E+03</rscale>
<asrwt>0</asrwt>
<pdfrwt beam="1">  1       21 0.60150597E-02 0.30000000E+03</pdfrwt>
<pdfrwt beam="2">0</pdfrwt>
<totfact> 0.20980758E+04</totfact>
</mgrwt>
</event>
<event>
 6    1  0.1198667E-001  0.3000000E+03  0.7818608E-02  0.1093470E+00
         21   -1    0    0  501  502  0.00000000000E+00  0.00000000000E+00  0.37397188294E+01  0.37397188294E+01  0.00000000000E+00 0. -1.
         13   -1    0    0    0    0 -0.00000000000E+00 -0.00000000000E+00 -0.10000000000E+04  0.10000000000E+04  0.00000000000E+00 0.  1.
    9000005    2    1    2  501    0 -0.24299204938E+02  0.33928409845E+02 -0.86482605765E+03  0.86583923490E+03  0.34470782088E+01 0.  0.
         13    1    3    3    0    0 -0.17460692962E+02  0.26882613259E+02 -0.66077083712E+03  0.66154791956E+03  0.00000000000E+00 0.  1.
          1    1    3    3  501    0 -0.68385119755E+01  0.70457965857E+01 -0.20405522053E+03  0.20429131534E+03  0.00000000000E+00 0.  1.
         -1    1    1    2    0  502  0.24299204938E+02 -0.33928409845E+02 -0.13143422352E+03  0.13790048393E+03  0.00000000000E+00 0. -1.
<mgrwt>
<rscale>  1 0.30000000E+03</rscale>
<asrwt>0</asrwt>
<pdfrwt beam="1">  1       21 0.13599006E-01 0.30000000E+03</pdfrwt>
<pdfrwt beam="2">0</pdfrwt>
<totfact> 0.49328236E+03</totfact>
</mgrwt>
</event>
<event>
 6    1  0.1198667E-001  0.3000000E+03  0.7818608E-02  0.1093470E+00
         21   -1    0    0  501  502  0.00000000000E+00  0.00000000000E+00  0.15328579148E+01  0.15328579148E+01  0.00000000000E+00 0. -1.
         13   -1    0    0    0    0 -0.00000000000E+00 -0.00000000000E+00 -0.10000000000E+04  0.10000000000E+04  0.00000000000E+00 0.  1.
    9000005    2    1    2  501    0  0.30517787435E+02  0.47374654786E+00 -0.81239643283E+03  0.81297552279E+03  0.31107553438E+01 0.  0.
         13    1    3    3    0    0  0.15779564411E+02  0.17197701452E+01 -0.40749404610E+03  0.40780307732E+03  0.00000000000E+00 0.  1.
          1    1    3    3  501    0  0.14738223024E+02 -0.12460235973E+01 -0.40490238673E+03  0.40517244548E+03  0.00000000000E+00 0.  1.
         -1    1    1    2    0  502 -0.30517787435E+02 -0.47374654786E+00 -0.18607070925E+03  0.18855733512E+03  0.00000000000E+00 0. -1.
<mgrwt>
<rscale>  1 0.30000000E+03</rscale>
<asrwt>0</asrwt>
<pdfrwt beam="1">  1       21 0.55740405E-02 0.30000000E+03</pdfrwt>
<pdfrwt beam="2">0</pdfrwt>
<totfact> 0.23919095E+04</totfact>
</mgrwt>
</event>
<event>
 6    1  0.1198667E-001  0.3000000E+03  0.7818608E-02  0.1093470E+00
         21   -1    0    0  501  502  0.00000000000E+00  0.00000000000E+00  0.38330916898E+01  0.38330916898E+01  0.00000000000E+00 0. -1.
         13   -1    0    0    0    0 -0.00000000000E+00 -0.00000000000E+00 -0.10000000000E+04  0.10000000000E+04  0.00000000000E+00 0.  1.
    9000005    2    1    2  501    0 -0.76671646743E+01 -0.60417398996E+02 -0.41083209188E+03  0.41533849117E+03  0.37425944670E+01 0.  0.
         13    1    3    3    0    0 -0.79566489666E+00 -0.15682375664E+02 -0.11368346668E+03  0.11476280140E+03  0.00000000000E+00 0.  1.
          1    1    3    3  501    0 -0.68714997777E+01 -0.44735023332E+02 -0.29714862520E+03  0.30057568977E+03  0.00000000000E+00 0.  1.
         -1    1    1    2    0  502  0.76671646743E+01  0.60417398996E+02 -0.58533481643E+03  0.58849460052E+03  0.00000000000E+00 0. -1.
<mgrwt>
<rscale>  1 0.30000000E+03</rscale>
<asrwt>0</asrwt>
<pdfrwt beam="1">  1       21 0.13938545E-01 0.30000000E+03</pdfrwt>
<pdfrwt beam="2">0</pdfrwt>
<totfact> 0.47146242E+03</totfact>
</mgrwt>
</event>
<event>
 6    1  0.1198667E-001  0.3000000E+03  0.7818608E-02  0.1093470E+00
         21   -1    0    0  501  502  0.00000000000E+00  0.00000000000E+00  0.11358901868E+01  0.11358901868E+01  0.00000000000E+00 0. -1.
         13   -1    0    0    0    0 -0.00000000000E+00 -0.00000000000E+00 -0.10000000000E+04  0.10000000000E+04  0.00000000000E+00 0.  1.
    9000005    2    1    2  501    0  0.10876692055E+02  0.30168590846E+02 -0.64044863029E+03  0.64128855830E+03  0.69369058946E+01 0.  0.
         13    1    3    3    0    0  0.89173403001E+01  0.25289615083E+02 -0.57685956255E+03  0.57748250059E+03  0.00000000000E+00 0.  1.
          1    1    3    3  501    0  0.19593517549E+01  0.48789757630E+01 -0.63589067746E+02  0.63806057710E+02  0.00000000000E+00 0.  1.
         -3    1    1    2    0  502 -0.10876692055E+02 -0.30168590846E+02 -0.35841547952E+03  0.35984733188E+03  0.00000000000E+00 0. -1.
<mgrwt>
<rscale>  1 0.30000000E+03</rscale>
<asrwt>0</asrwt>
<pdfrwt beam="1">  1       21 0.41305185E-02 0.30000000E+03</pdfrwt>
<pdfrwt beam="2">0</pdfrwt>
<totfact> 0.39832294E+04</totfact>
</mgrwt>
</event>
<event>
 6    1  0.1198667E-001  0.3000000E+03  0.7818608E-02  0.1093470E+00
         21   -1    0    0  501  502  0.00000000000E+00  0.00000000000E+00  0.12109832269E+01  0.12109832269E+01  0.00000000000E+00 0. -1.
         13   -1    0    0    0    0 -0.00000000000E+00 -0.00000000000E+00 -0.10000000000E+04  0.10000000000E+04  0.00000000000E+00 0.  1.
    9000005    2    1    2  501    0  0.26963092711E+02 -0.21553888100E+02 -0.55413284682E+03  0.55521693849E+03  0.33254178357E+01 0.  0.
         13    1    3    3    0    0  0.57718609159E+01 -0.47768108115E+01 -0.99795791375E+02  0.10007663202E+03  0.00000000000E+00 0.  1.
          3    1    3    3  501    0  0.21191231795E+02 -0.16777077289E+02 -0.45433705545E+03  0.45514030648E+03  0.00000000000E+00 0.  1.
         -3    1    1    2    0  502 -0.26963092711E+02  0.21553888100E+02 -0.44465616995E+03  0.44599404473E+03  0.00000000000E+00 0. -1.
<mgrwt>
<rscale>  1 0.30000000E+03</rscale>
<asrwt>0</asrwt>
<pdfrwt beam="1">  1       21 0.44035847E-02 0.30000000E+03</pdfrwt>
<pdfrwt beam="2">0</pdfrwt>
<totfact> 0.35747056E+04</totfact>
</mgrwt>
</event>
<event>
 6    1  0.1198667E-001  0.3000000E+03  0.7818608E-02  0.1093470E+00
         21   -1    0    0  501  502  0.00000000000E+00  0.00000000000E+00  0.13137722777E+01  0.13137722777E+01  0.00000000000E+00 0. -1.
         13   -1    0    0    0    0 -0.00000000000E+00 -0.00000000000E+00 -0.10000000000E+04  0.10000000000E+04  0.00000000000E+00 0.  1.
    9000005    2    1    2  501    0  0.26899494864E+02 -0.18142853846E+02 -0.72131993573E+03  0.72205617452E+03  0.31501614209E+01 0.  0.
         13    1    3    3    0    0  0.26170057479E+02 -0.16943153231E+02 -0.68489607412E+03  0.68560526157E+03  0.00000000000E+00 0.  1.
          3    1    3    3  501    0  0.72943738558E+00 -0.11997006151E+01 -0.36423861604E+02  0.36450912946E+02  0.00000000000E+00 0.  1.
         -1    1    1    2    0  502 -0.26899494864E+02  0.18142853846E+02 -0.27736629200E+03  0.27925759776E+03  0.00000000000E+00 0. -1.
<mgrwt>
<rscale>  1 0.30000000E+03</rscale>
<asrwt>0</asrwt>
<pdfrwt beam="1">  1       21 0.47773638E-02 0.30000000E+03</pdfrwt>
<pdfrwt beam="2">0</pdfrwt>
<totfact> 0.31127892E+04</totfact>
</mgrwt>
</event>
<event>
 6    1  0.1198667E-001  0.3000000E+03  0.7818608E-02  0.1093470E+00
         21   -1    0    0  501  502  0.00000000000E+00  0.00000000000E+00  0.14828826634E+01  0.14828826634E+01  0.00000000000E+00 0. -1.
         13   -1    0    0    0    0 -0.00000000000E+00 -0.00000000000E+00 -0.10000000000E+04  0.10000000000E+04  0.00000000000E+00 0.  1.
    9000005    2    1    2  501    0 -0.21132765611E+02  0.30425033410E+02 -0.63333912220E+03  0.63443078204E+03  0.34200950010E+01 0.  0.
         13    1    3    3    0    0 -0.18274330169E+02  0.25345385612E+02 -0.51319504441E+03  0.51414540095E+03  0.00000000000E+00 0.  1.
          3    1    3    3  501    0 -0.28584354428E+01  0.50796477981E+01 -0.12014407779E+03  0.12028538109E+03  0.00000000000E+00 0.  1.
         -1    1    1    2    0  502  0.21132765611E+02 -0.30425033410E+02 -0.36517799513E+03  0.36705210062E+03  0.00000000000E+00 0. -1.
<mgrwt>
<rscale>  1 0.30000000E+03</rscale>
<asrwt>0</asrwt>
<pdfrwt beam="1">  1       21 0.53923120E-02 0.30000000E+03</pdfrwt>
<pdfrwt beam="2">0</pdfrwt>
<totfact> 0.25317581E+04</totfact>
</mgrwt>
</event>
<event>
 6    1  0.1198667E-001  0.3000000E+03  0.7818608E-02  0.1093470E+00
         21   -1    0    0  501  502  0.00000000000E+00  0.00000000000E+00  0.16249991688E+01  0.16249991688E+01  0.00000000000E+00 0. -1.
         13   -1    0    0    0    0 -0.00000000000E+00 -0.00000000000E+00 -0.10000000000E+04  0.10000000000E+04  0.00000000000E+00 0.  1.
    9000005    2    1    2  501    0 -0.35824307205E+02 -0.10203562408E+02 -0.31112013495E+03  0.31336142731E+03  0.34859834970E+01 0.  0.
         13    1    3    3    0    0 -0.81319685772E+01 -0.14161260293E+01 -0.79039611661E+02  0.79469456632E+02  0.00000000000E+00 0.  1.
          1    1    3    3  501    0 -0.27692338628E+02 -0.87874363783E+01 -0.23208052329E+03  0.23389197067E+03  0.00000000000E+00 0.  1.
         -1    1    1    2    0  502  0.35824307205E+02  0.10203562408E+02 -0.68725486588E+03  0.68826357186E+03  0.00000000000E+00 0. -1.
<mgrwt>
<rscale>  1 0.30000000E+03</rscale>
<asrwt>0</asrwt>
<pdfrwt beam="1">  1       21 0.59091003E-02 0.30000000E+03</pdfrwt>
<pdfrwt beam="2">0</pdfrwt>
<totfact> 0.21633644E+04</totfact>
</mgrwt>
</event>
<event>
 6    1  0.1198667E-001  0.3000000E+03  0.7818608E-02  0.1093470E+00
         21   -1    0    0  501  502  0.00000000000E+00  0.00000000000E+00  0.10403772989E+01  0.10403772989E+01  0.00000000000E+00 0. -1.
         13   -1    0    0    0    0 -0.00000000000E+00 -0.00000000000E+00 -0.10000000000E+04  0.10000000000E+04  0.00000000000E+00 0.  1.
    9000005    2    1    2  501    0 -0.11743219535E+01 -0.32104735151E+02 -0.52658901739E+03  0.52757857122E+03  0.33260376142E+01 0.  0.
         13    1    3    3    0    0  0.55429688252E+00 -0.18350756042E+02 -0.31784839927E+03  0.31837817515E+03  0.00000000000E+00 0.  1.
          1    1    3    3  501    0 -0.17286188361E+01 -0.13753979109E+02 -0.20874061812E+03  0.20920039607E+03  0.00000000000E+00 0.  1.
         -1    1    1    2    0  502  0.11743219535E+01  0.32104735151E+02 -0.47237060531E+03  0.47346180608E+03  0.00000000000E+00 0. -1.
<mgrwt>
<rscale>  1 0.30000000E+03</rscale>
<asrwt>0</asrwt>
<pdfrwt beam="1">  1       21 0.37831982E-02 0.30000000E+03</pdfrwt>
<pdfrwt beam="2">0</pdfrwt>
<totfact> 0.46178587E+04</totfact>
</mgrwt>
</event>
<event>
 6    1  0.1198667E-001  0.3000000E+03  0.7818608E-02  0.1093470E+00
         21   -1    0    0  501  502  0.00000000000E+00  0.00000000000E+00  0.15677361544E+01  0.15677361544E+01  0.00000000000E+00 0. -1.
         13   -1    0    0    0    0 -0.00000000000E+00 -0.00000000000E+00 -0.10000000000E+04  0.10000000000E+04  0.00000000000E+00 0.  1.
    9000005    2    1    2  501    0  0.32718670563E+02  0.15995216926E+02 -0.69376705618E+03  0.69473350219E+03  0.39436610754E+01 0.  0.
         13    1    3    3    0    0  0.32400672360E+02  0.16096379391E+02 -0.69098991013E+03  0.69193637923E+03  0.00000000000E+00 0.  1.
          1    1    3    3  501    0  0.31799820265E+00 -0.10116246446E+00 -0.27771460484E+01  0.27971229639E+01  0.00000000000E+00 0.  1.
         -1    1    1    2    0  502 -0.32718670563E+02 -0.15995216926E+02 -0.30466520767E+03  0.30683423396E+03  0.00000000000E+00 0. -1.
<mgrwt>
<rscale>  1 0.30000000E+03</rscale>
<asrwt>0</asrwt>
<pdfrwt beam="1">  1       21 0.57008708E-02 0.30000000E+03</pdfrwt>
<pdfrwt beam="2">0</pdfrwt>
<totfact> 0.23012215E+04</totfact>
</mgrwt>
</event>
<event>
 6    1  0.1198667E-001  0.3000000E+03  0.7818608E-02  0.1093470E+00
         21   -1    0    0  501  502  0.00000000000E+00  0.00000000000E+00  0.14728882337E+01  0.14728882337E+01  0.00000000000E+00 0. -1.
         13   -1    0    0    0    0 -0.00000000000E+00 -0.00000000000E+00 -0.10000000000E+04  0.10000000000E+04  0.00000000000E+00 0.  1.
    9000005    2    1    2  501    0  0.76842987614E+01  0.30633805516E+02 -0.78299566184E+03  0.78363973099E+03  0.33975044221E+01 0.  0.
         13    1    3    3    0    0  0.60346559259E+01  0.17178796053E+02 -0.45250579239E+03  0.45287196894E+03  0.00000000000E+00 0.  1.
          3    1    3    3  501    0  0.16496428354E+01  0.13455009463E+02 -0.33048986945E+03  0.33076776205E+03  0.00000000000E+00 0.  1.
         -3    1    1    2    0  502 -0.76842987614E+01 -0.30633805516E+02 -0.21553144992E+03  0.21783315724E+03  0.00000000000E+00 0. -1.
<mgrwt>
<rscale>  1 0.30000000E+03</rscale>
<asrwt>0</asrwt>
<pdfrwt beam="1">  1       21 0.53559685E-02 0.30000000E+03</pdfrwt>
<pdfrwt beam="2">0</pdfrwt>
<totfact> 0.25612383E+04</totfact>
</mgrwt>
</event>
<event>
 6    1  0.1198667E-001  0.3000000E+03  0.7818608E-02  0.1093470E+00
         21   -1    0    0  501  502  0.00000000000E+00  0.00000000000E+00  0.22799682487E+01  0.22799682487E+01  0.00000000000E+00 0. -1.
         13   -1    0    0    0    0 -0.00000000000E+00 -0.00000000000E+00 -0.10000000000E+04  0.10000000000E+04  0.00000000000E+00 0.  1.
    9000005    2    1    2  501    0 -0.23075433507E+02  0.25570210542E+02 -0.84567655302E+03  0.84638407117E+03  0.32942856384E+01 0.  0.
         13    1    3    3    0    0 -0.64270712478E+01  0.93497074636E+01 -0.26763731448E+03  0.26787768921E+03  0.00000000000E+00 0.  1.
          1    1    3    3  501    0 -0.16648362259E+02  0.16220503079E+02 -0.57803923853E+03  0.57850638196E+03  0.00000000000E+00 0.  1.
         -3    1    1    2    0  502  0.23075433507E+02 -0.25570210542E+02 -0.15204347874E+03  0.15589589707E+03  0.00000000000E+00 0. -1.
<mgrwt>
<rscale>  1 0.30000000E+03</rscale>
<asrwt>0</asrwt>
<pdfrwt beam="1">  1       21 0.82908111E-02 0.30000000E+03</pdfrwt>
<pdfrwt beam="2">0</pdfrwt>
<totfact> 0.11996535E+04</totfact>
</mgrwt>
</event>
<event>
 6    1  0.1198667E-001  0.3000000E+03  0.7818608E-02  0.1093470E+00
         21   -1    0    0  501  502  0.00000000000E+00  0.00000000000E+00  0.13690551958E+01  0.13690551958E+01  0.00000000000E+00 0. -1.
         13   -1    0    0    0    0 -0.00000000000E+00 -0.00000000000E+00 -0.10000000000E+04  0.10000000000E+04  0.00000000000E+00 0.  1.
    9000005    2    1    2  501    0 -0.24549933357E+02 -0.25511921056E+02 -0.64169964463E+03  0.64268603304E+03  0.36531894984E+01 0.  0.
         13    1    3    3    0    0 -0.21111007644E+02 -0.23178495156E+02 -0.57982588980E+03  0.58067286812E+03  0.00000000000E+00 0.  1.
          3    1    3    3  501    0 -0.34389257129E+01 -0.23334258993E+01 -0.61873754830E+02  0.62013164919E+02  0.00000000000E+00 0.  1.
         -1    1    1    2    0  502  0.24549933357E+02  0.25511921056E+02 -0.35693130017E+03  0.35868302216E+03  0.00000000000E+00 0. -1.
<mgrwt>
<rscale>  1 0.30000000E+03</rscale>
<asrwt>0</asrwt>
<pdfrwt beam="1">  1       21 0.49783930E-02 0.30000000E+03</pdfrwt>
<pdfrwt beam="2">0</pdfrwt>
<totfact> 0.29018077E+04</totfact>
</mgrwt>
</event>
<event>
 6    1  0.1198667E-001  0.3000000E+03  0.7818608E-02  0.1093470E+00
         21   -1    0    0  501  502  0.00000000000E+00  0.00000000000E+00  0.12454673217E+01  0.12454673217E+01  0.00000000000E+00 0. -1.
         13   -1    0    0    0    0 -0.00000000000E+00 -0.00000000000E+00 -0.10000000000E+04  0.10000000000E+04  0.00000000000E+00 0.  1.
    9000005    2    1    2  501    0  0.32797144556E+02  0.71198984943E+01 -0.65207706090E+03  0.65294729752E+03  0.30552163236E+01 0.  0.
         13    1    3    3    0    0  0.19977075831E+02  0.28065161713E+01 -0.38888743590E+03  0.38941032074E+03  0.00000000000E+00 0.  1.
          1    1    3    3  501    0  0.12820068725E+02  0.43133823231E+01 -0.26318962499E+03  0.26353697679E+03  0.00000000000E+00 0.  1.
         -1    1    1    2    0  502 -0.32797144556E+02 -0.71198984943E+01 -0.34667747178E+03  0.34829816980E+03  0.00000000000E+00 0. -1.
<mgrwt>
<rscale>  1 0.30000000E+03</rscale>
<asrwt>0</asrwt>
<pdfrwt beam="1">  1       21 0.45289816E-02 0.30000000E+03</pdfrwt>
<pdfrwt beam="2">0</pdfrwt>
<totfact> 0.34084755E+04</totfact>
</mgrwt>
</event>
<event>
 6    1  0.1198667E-001  0.3000000E+03  0.7818608E-02  0.1093470E+00
         21   -1    0    0  501  502  0.00000000000E+00  0.00000000000E+00  0.12687829432E+01  0.12687829432E+01  0.00000000000E+00 0. -1.
         13   -1    0    0    0    0 -0.00000000000E+00 -0.00000000000E+00 -0.10000000000E+04  0.10000000000E+04  0.00000000000E+00 0.  1.
    9000005    2    1    2  501    0  0.56908885084E+01 -0.31518783718E+02 -0.71745582861E+03  0.71817575215E+03  0.27793933349E+01 0.  0.
         13    1    3    3    0    0  0.30422206177E+01 -0.98803163306E+01 -0.23955010688E+03  0.23977307910E+03  0.00000000000E+00 0.  1.
          3    1    3    3  501    0  0.26486678907E+01 -0.21638467387E+02 -0.47790572173E+03  0.47840267304E+03  0.00000000000E+00 0.  1.
         -1    1    1    2    0  502 -0.56908885084E+01  0.31518783718E+02 -0.28127538845E+03  0.28309303079E+03  0.00000000000E+00 0. -1.
<mgrwt>
<rscale>  1 0.30000000E+03</rscale>
<asrwt>0</asrwt>
<pdfrwt beam="1">  1       21 0.46137659E-02 0.30000000E+03</pdfrwt>
<pdfrwt beam="2">0</pdfrwt>
<totfact> 0.33027678E+04</totfact>
</mgrwt>
</event>
<event>
 6    1  0.1198667E-001  0.3000000E+03  0.7818608E-02  0.1093470E+00
         21   -1    0    0  501  502  0.00000000000E+00  0.00000000000E+00  0.81132926253E+01  0.81132926253E+01  0.00000000000E+00 0. -1.
         13   -1    0    0    0    0 -0.00000000000E+00 -0.00000000000E+00 -0.10000000000E+04  0.10000000000E+04  0.00000000000E+00 0.  1.
    9000005    2    1    2  501    0  0.81141516574E+02  0.97709861935E+01 -0.70737309969E+03  0.71209401818E+03  0.46659066661E+01 0.  0.
         13    1    3    3    0    0  0.12419887108E+02  0.54456485315E+00 -0.96042103254E+02  0.96843356738E+02  0.00000000000E+00 0.  1.
          1    1    3    3  501    0  0.68721629466E+02  0.92264213403E+01 -0.61133099643E+03  0.61525066144E+03  0.00000000000E+00 0.  1.
         -1    1    1    2    0  502 -0.81141516574E+02 -0.97709861935E+01 -0.28451360769E+03  0.29601927444E+03  0.00000000000E+00 0. -1.
<mgrwt>
<rscale>  1 0.30000000E+03</rscale>
<asrwt>0</asrwt>
<pdfrwt beam="1">  1       21 0.29502944E-01 0.30000000E+03</pdfrwt>
<pdfrwt beam="2">0</pdfrwt>
<totfact> 0.11241884E+03</totfact>
</mgrwt>
</event>
<event>
 6    1  0.1198667E-001  0.3000000E+03  0.7818608E-02  0.1093470E+00
         21   -1    0    0  501  502  0.00000000000E+00  0.00000000000E+00  0.11017186804E+01  0.11017186804E+01  0.00000000000E+00 0. -1.
         13   -1    0    0    0    0 -0.00000000000E+00 -0.00000000000E+00 -0.10000000000E+04  0.10000000000E+04  0.00000000000E+00 0.  1.
    9000005    2    1    2  501    0  0.28430965249E+02  0.11942516551E+02 -0.68070105364E+03  0.68141371579E+03  0.44479387267E+01 0.  0.
         13    1    3    3    0    0  0.25934929516E+02  0.97263037637E+01 -0.62405156683E+03  0.62466597443E+03  0.00000000000E+00 0.  1.
          3    1    3    3  501    0  0.24960357328E+01  0.22162127871E+01 -0.56649486815E+02  0.56747741363E+02  0.00000000000E+00 0.  1.
         -3    1    1    2    0  502 -0.28430965249E+02 -0.11942516551E+02 -0.31819722768E+03  0.31968800289E+03  0.00000000000E+00 0. -1.
<mgrwt>
<rscale>  1 0.30000000E+03</rscale>
<asrwt>0</asrwt>
<pdfrwt beam="1">  1       21 0.40062582E-02 0.30000000E+03</pdfrwt>
<pdfrwt beam="2">0</pdfrwt>
<totfact> 0.41936767E+04</totfact>
</mgrwt>
</event>
<event>
 6    1  0.1198667E-001  0.3000000E+03  0.7818608E-02  0.1093470E+00
         21   -1    0    0  501  502  0.00000000000E+00  0.00000000000E+00  0.29083853434E+01  0.29083853434E+01  0.00000000000E+00 0. -1.
         13   -1    0    0    0    0 -0.00000000000E+00 -0.00000000000E+00 -0.10000000000E+04  0.10000000000E+04  0.00000000000E+00 0.  1.
    9000005    2    1    2  501    0 -0.19108824388E+02  0.23851208231E+02 -0.91160129341E+03  0.91211949654E+03  0.33212218964E+01 0.  0.
         13    1    3    3    0    0 -0.17561967547E+02  0.20624470645E+02 -0.78303873725E+03  0.78350715091E+03  0.00000000000E+00 0.  1.
          1    1    3    3  501    0 -0.15468568408E+01  0.32267375860E+01 -0.12856255616E+03  0.12861234563E+03  0.00000000000E+00 0.  1.
         -1    1    1    2    0  502  0.19108824388E+02 -0.23851208231E+02 -0.85490321243E+02  0.90788888801E+02  0.00000000000E+00 0. -1.
<mgrwt>
<rscale>  1 0.30000000E+03</rscale>
<asrwt>0</asrwt>
<pdfrwt beam="1">  1       21 0.10575969E-01 0.30000000E+03</pdfrwt>
<pdfrwt beam="2">0</pdfrwt>
<totfact> 0.77826166E+03</totfact>
</mgrwt>
</event>
<event>
 6    1  0.1198667E-001  0.3000000E+03  0.7818608E-02  0.1093470E+00
         21   -1    0    0  501  502  0.00000000000E+00  0.00000000000E+00  0.63622641987E+01  0.63622641987E+01  0.00000000000E+00 0. -1.
         13   -1    0    0    0    0 -0.00000000000E+00 -0.00000000000E+00 -0.10000000000E+04  0.10000000000E+04  0.00000000000E+00 0.  1.
    9000005    2    1    2  501    0 -0.15898118409E+02  0.26725897698E+02 -0.96015945082E+03  0.96066960240E+03  0.35902932335E+01 0.  0.
         13    1    3    3    0    0 -0.14280571739E+02  0.24721842009E+02 -0.84760667117E+03  0.84808736179E+03  0.00000000000E+00 0.  1.
          3    1    3    3  501    0 -0.16175466700E+01  0.20040556888E+01 -0.11255277964E+03  0.11258224062E+03  0.00000000000E+00 0.  1.
         -1    1    1    2    0  502  0.15898118409E+02 -0.26725897698E+02 -0.33478284983E+02  0.45692661797E+02  0.00000000000E+00 0. -1.
<mgrwt>
<rscale>  1 0.30000000E+03</rscale>
<asrwt>0</asrwt>
<pdfrwt beam="1">  1       21 0.23135555E-01 0.30000000E+03</pdfrwt>
<pdfrwt beam="2">0</pdfrwt>
<totfact> 0.18135324E+03</totfact>
</mgrwt>
</event>
<event>
 6    1  0.1198667E-001  0.3000000E+03  0.7818608E-02  0.1093470E+00
         21   -1    0    0  501  502  0.00000000000E+00  0.00000000000E+00  0.19249225028E+01  0.19249225028E+01  0.00000000000E+00 0. -1.
         13   -1    0    0    0    0 -0.00000000000E+00 -0.00000000000E+00 -0.10000000000E+04  0.10000000000E+04  0.00000000000E+00 0.  1.
    9000005    2    1    2  501    0  0.31251552395E+01  0.41119642749E+02 -0.66594045135E+03  0.66723999380E+03  0.56509261773E+01 0.  0.
         13    1    3    3    0    0  0.46412219317E+01  0.24798743444E+02 -0.39967279830E+03  0.40046830626E+03  0.00000000000E+00 0.  1.
          3    1    3    3  501    0 -0.15160666922E+01  0.16320899304E+02 -0.26626765305E+03  0.26677168754E+03  0.00000000000E+00 0.  1.
         -3    1    1    2    0  502 -0.31251552395E+01 -0.41119642749E+02 -0.33213462615E+03  0.33468492870E+03  0.00000000000E+00 0. -1.
<mgrwt>
<rscale>  1 0.30000000E+03</rscale>
<asrwt>0</asrwt>
<pdfrwt beam="1">  1       21 0.69997330E-02 0.30000000E+03</pdfrwt>
<pdfrwt beam="2">0</pdfrwt>
<totfact> 0.16136358E+04</totfact>
</mgrwt>
</event>
<event>
 6    1  0.1198667E-001  0.3000000E+03  0.7818608E-02  0.1093470E+00
         21   -1    0    0  501  502  0.00000000000E+00  0.00000000000E+00  0.14339681543E+01  0.14339681543E+01  0.00000000000E+00 0. -1.
         13   -1    0    0    0    0 -0.00000000000E+00 -0.00000000000E+00 -0.10000000000E+04  0.10000000000E+04  0.00000000000E+00 0.  1.
    9000005    2    1    2  501    0  0.32432588256E+02 -0.65721251984E+00 -0.75581203396E+03  0.75652213055E+03  0.46474319544E+01 0.  0.
         13    1    3    3    0    0  0.15878568029E+02 -0.20728408084E+01 -0.33574421733E+03  0.33612587681E+03  0.00000000000E+00 0.  1.
          1    1    3    3  501    0  0.16554020227E+02  0.14156282885E+01 -0.42006781663E+03  0.42039625374E+03  0.00000000000E+00 0.  1.
         -3    1    1    2    0  502 -0.32432588256E+02  0.65721251984E+00 -0.24275399789E+03  0.24491183761E+03  0.00000000000E+00 0. -1.
<mgrwt>
<rscale>  1 0.30000000E+03</rscale>
<asrwt>0</asrwt>
<pdfrwt beam="1">  1       21 0.52144406E-02 0.30000000E+03</pdfrwt>
<pdfrwt beam="2">0</pdfrwt>
<totfact> 0.26812546E+04</totfact>
</mgrwt>
</event>
<event>
 6    1  0.1198667E-001  0.3000000E+03  0.7818608E-02  0.1093470E+00
         21   -1    0    0  501  502  0.00000000000E+00  0.00000000000E+00  0.19987106210E+01  0.19987106210E+01  0.00000000000E+00 0. -1.
         13   -1    0    0    0    0 -0.00000000000E+00 -0.00000000000E+00 -0.10000000000E+04  0.10000000000E+04  0.00000000000E+00 0.  1.
    9000005    2    1    2  501    0 -0.35081300818E+02  0.26696581851E+02 -0.57915658964E+03  0.58084044150E+03  0.31397466215E+01 0.  0.
         13    1    3    3    0    0 -0.30572397056E+01  0.12984815319E+01 -0.42434709872E+02  0.42564508347E+02  0.00000000000E+00 0.  1.
          3    1    3    3  501    0 -0.32024061112E+02  0.25398100319E+02 -0.53672187976E+03  0.53827593315E+03  0.00000000000E+00 0.  1.
         -3    1    1    2    0  502  0.35081300818E+02 -0.26696581851E+02 -0.41884469974E+03  0.42115826913E+03  0.00000000000E+00 0. -1.
<mgrwt>
<rscale>  1 0.30000000E+03</rscale>
<asrwt>0</asrwt>
<pdfrwt beam="1">  1       21 0.72680539E-02 0.30000000E+03</pdfrwt>
<pdfrwt beam="2">0</pdfrwt>
<totfact> 0.15112240E+04</totfact>
</mgrwt>
</event>
<event>
 6    1  0.1198667E-001  0.3000000E+03  0.7818608E-02  0.1093470E+00
         21   -1    0    0  501  502  0.00000000000E+00  0.00000000000E+00  0.19510296920E+01  0.19510296920E+01  0.00000000000E+00 0. -1.
         13   -1    0    0    0    0 -0.00000000000E+00 -0.00000000000E+00 -0.10000000000E+04  0.10000000000E+04  0.00000000000E+00 0.  1.
    9000005    2    1    2  501    0  0.30106443701E+02  0.29601075178E+02 -0.64430047495E+03  0.64569182691E+03  0.34945248914E+01 0.  0.
         13    1    3    3    0    0  0.23291403397E+02  0.23251456785E+02 -0.52276860437E+03  0.52380352560E+03  0.00000000000E+00 0.  1.
          3    1    3    3  501    0  0.68150403038E+01  0.63496183928E+01 -0.12153187059E+03  0.12188830131E+03  0.00000000000E+00 0.  1.
         -3    1    1    2    0  502 -0.30106443701E+02 -0.29601075178E+02 -0.35374849535E+03  0.35625920279E+03  0.00000000000E+00 0. -1.
<mgrwt>
<rscale>  1 0.30000000E+03</rscale>
<asrwt>0</asrwt>
<pdfrwt beam="1">  1       21 0.70946684E-02 0.30000000E+03</pdfrwt>
<pdfrwt beam="2">0</pdfrwt>
<totfact> 0.15762238E+04</totfact>
</mgrwt>
</event>
<event>
 6    1  0.1198667E-001  0.3000000E+03  0.7818608E-02  0.1093470E+00
         21   -1    0    0  501  502  0.00000000000E+00  0.00000000000E+00  0.11987207723E+01  0.11987207723E+01  0.00000000000E+00 0. -1.
         13   -1    0    0    0    0 -0.00000000000E+00 -0.00000000000E+00 -0.10000000000E+04  0.10000000000E+04  0.00000000000E+00 0.  1.
    9000005    2    1    2  501    0  0.33736428275E+02  0.59459094666E+01 -0.56668602138E+03  0.56772773386E+03  0.28692388094E+01 0.  0.
         13    1    3    3    0    0  0.19806222790E+02  0.46920000693E+01 -0.32311491168E+03  0.32375538216E+03  0.00000000000E+00 0.  1.
          3    1    3    3  501    0  0.13930205485E+02  0.12539093973E+01 -0.24357110970E+03  0.24397235170E+03  0.00000000000E+00 0.  1.
         -1    1    1    2    0  502 -0.33736428275E+02 -0.59459094666E+01 -0.43211525785E+03  0.43347098691E+03  0.00000000000E+00 0. -1.
<mgrwt>
<rscale>  1 0.30000000E+03</rscale>
<asrwt>0</asrwt>
<pdfrwt beam="1">  1       21 0.43589938E-02 0.30000000E+03</pdfrwt>
<pdfrwt beam="2">0</pdfrwt>
<totfact> 0.36368503E+04</totfact>
</mgrwt>
</event>
<event>
 6    1  0.1198667E-001  0.3000000E+03  0.7818608E-02  0.1093470E+00
         21   -1    0    0  501  502  0.00000000000E+00  0.00000000000E+00  0.34815989482E+01  0.34815989482E+01  0.00000000000E+00 0. -1.
         13   -1    0    0    0    0 -0.00000000000E+00 -0.00000000000E+00 -0.10000000000E+04  0.10000000000E+04  0.00000000000E+00 0.  1.
    9000005    2    1    2  501    0  0.50187978915E+02 -0.72254252746E+01 -0.24290233307E+03  0.24816165487E+03  0.34093313680E+01 0.  0.
         13    1    3    3    0    0  0.20229326507E+02 -0.12812425096E+01 -0.98976905763E+02  0.10103115909E+03  0.00000000000E+00 0.  1.
          3    1    3    3  501    0  0.29958652407E+02 -0.59441827650E+01 -0.14392542731E+03  0.14713049578E+03  0.00000000000E+00 0.  1.
         -3    1    1    2    0  502 -0.50187978915E+02  0.72254252746E+01 -0.75361606798E+03  0.75531994407E+03  0.00000000000E+00 0. -1.
<mgrwt>
<rscale>  1 0.30000000E+03</rscale>
<asrwt>0</asrwt>
<pdfrwt beam="1">  1       21 0.12660387E-01 0.30000000E+03</pdfrwt>
<pdfrwt beam="2">0</pdfrwt>
<totfact> 0.56215731E+03</totfact>
</mgrwt>
</event>
<event>
 6    1  0.1198667E-001  0.3000000E+03  0.7818608E-02  0.1093470E+00
         21   -1    0    0  501  502  0.00000000000E+00  0.00000000000E+00  0.13993124835E+01  0.13993124835E+01  0.00000000000E+00 0. -1.
         13   -1    0    0    0    0 -0.00000000000E+00 -0.00000000000E+00 -0.10000000000E+04  0.10000000000E+04  0.00000000000E+00 0.  1.
    9000005    2    1    2  501    0 -0.20413980369E+02 -0.30491338793E+02 -0.59133385164E+03  0.59248278318E+03  0.36975571392E+01 0.  0.
         13    1    3    3    0    0 -0.14243973198E+00 -0.37715727354E-01 -0.88490360571E+01  0.88502627471E+01  0.00000000000E+00 0.  1.
          3    1    3    3  501    0 -0.20271540637E+02 -0.30453623066E+02 -0.58248481558E+03  0.58363252043E+03  0.00000000000E+00 0.  1.
         -1    1    1    2    0  502  0.20413980369E+02  0.30491338793E+02 -0.40726683588E+03  0.40891652931E+03  0.00000000000E+00 0. -1.
<mgrwt>
<rscale>  1 0.30000000E+03</rscale>
<asrwt>0</asrwt>
<pdfrwt beam="1">  1       21 0.50884198E-02 0.30000000E+03</pdfrwt>
<pdfrwt beam="2">0</pdfrwt>
<totfact> 0.27956254E+04</totfact>
</mgrwt>
</event>
<event>
 6    1  0.1198667E-001  0.3000000E+03  0.7818608E-02  0.1093470E+00
         21   -1    0    0  501  502  0.00000000000E+00  0.00000000000E+00  0.34349357415E+01  0.34349357415E+01  0.00000000000E+00 0. -1.
         13   -1    0    0    0    0 -0.00000000000E+00 -0.00000000000E+00 -0.10000000000E+04  0.10000000000E+04  0.00000000000E+00 0.  1.
    9000005    2    1    2  501    0 -0.98240597530E+01 -0.44559334749E+02 -0.81291201650E+03  0.81419834199E+03  0.33086353091E+01 0.  0.
         13    1    3    3    0    0 -0.15315211956E+01 -0.61035896693E+01 -0.13370320755E+03  0.13385121244E+03  0.00000000000E+00 0.  1.
          1    1    3    3  501    0 -0.82925385574E+01 -0.38455745079E+02 -0.67920880896E+03  0.68034712955E+03  0.00000000000E+00 0.  1.
         -3    1    1    2    0  502  0.98240597530E+01  0.44559334749E+02 -0.18365304776E+03  0.18923659375E+03  0.00000000000E+00 0. -1.
<mgrwt>
<rscale>  1 0.30000000E+03</rscale>
<asrwt>0</asrwt>
<pdfrwt beam="1">  1       21 0.12490702E-01 0.30000000E+03</pdfrwt>
<pdfrwt beam="2">0</pdfrwt>
<totfact> 0.57614976E+03</totfact>
</mgrwt>
</event>
<event>
 6    1  0.1198667E-001  0.3000000E+03  0.7818608E-02  0.1093470E+00
         21   -1    0    0  501  502  0.00000000000E+00  0.00000000000E+00  0.15754330224E+01  0.15754330224E+01  0.00000000000E+00 0. -1.
         13   -1    0    0    0    0 -0.00000000000E+00 -0.00000000000E+00 -0.10000000000E+04  0.10000000000E+04  0.00000000000E+00 0.  1.
    9000005    2    1    2  501    0  0.33930053774E+02 -0.17153537553E+02 -0.64136651162E+03  0.64249891291E+03  0.28911008599E+01 0.  0.
         13    1    3    3    0    0  0.28868045203E+02 -0.14568614842E+02 -0.56160759414E+03  0.56253773062E+03  0.00000000000E+00 0.  1.
          1    1    3    3  501    0  0.50620085711E+01 -0.25849227111E+01 -0.79758917480E+02  0.79961182293E+02  0.00000000000E+00 0.  1.
         -3    1    1    2    0  502 -0.33930053774E+02  0.17153537553E+02 -0.35705805535E+03  0.35907652011E+03  0.00000000000E+00 0. -1.
<mgrwt>
<rscale>  1 0.30000000E+03</rscale>
<asrwt>0</asrwt>
<pdfrwt beam="1">  1       21 0.57288594E-02 0.30000000E+03</pdfrwt>
<pdfrwt beam="2">0</pdfrwt>
<totfact> 0.22819190E+04</totfact>
</mgrwt>
</event>
<event>
 6    1  0.1198667E-001  0.3000000E+03  0.7818608E-02  0.1093470E+00
         21   -1    0    0  501  502  0.00000000000E+00  0.00000000000E+00  0.15213540533E+01  0.15213540533E+01  0.00000000000E+00 0. -1.
         13   -1    0    0    0    0 -0.00000000000E+00 -0.00000000000E+00 -0.10000000000E+04  0.10000000000E+04  0.00000000000E+00 0.  1.
    9000005    2    1    2  501    0 -0.15549364313E+02  0.27936610053E+02 -0.78539018249E+03  0.78604761976E+03  0.32992222835E+01 0.  0.
         13    1    3    3    0    0 -0.14336380641E+02  0.24034176606E+02 -0.70141749658E+03  0.70197555368E+03  0.00000000000E+00 0.  1.
          3    1    3    3  501    0 -0.12129836723E+01  0.39024334471E+01 -0.83972685909E+02  0.84072066080E+02  0.00000000000E+00 0.  1.
         -3    1    1    2    0  502  0.15549364313E+02 -0.27936610053E+02 -0.21308846346E+03  0.21547373429E+03  0.00000000000E+00 0. -1.
<mgrwt>
<rscale>  1 0.30000000E+03</rscale>
<asrwt>0</asrwt>
<pdfrwt beam="1">  1       21 0.55322082E-02 0.30000000E+03</pdfrwt>
<pdfrwt beam="2">0</pdfrwt>
<totfact> 0.24230286E+04</totfact>
</mgrwt>
</event>
<event>
 6    1  0.1198667E-001  0.3000000E+03  0.7818608E-02  0.1093470E+00
         21   -1    0    0  501  502  0.00000000000E+00  0.00000000000E+00  0.21069175876E+01  0.21069175876E+01  0.00000000000E+00 0. -1.
         13   -1    0    0    0    0 -0.00000000000E+00 -0.00000000000E+00 -0.10000000000E+04  0.10000000000E+04  0.00000000000E+00 0.  1.
    9000005    2    1    2  501    0  0.38668451386E+02  0.24290021219E+02 -0.49410225152E+03  0.49625075666E+03  0.65210627149E+01 0.  0.
         13    1    3    3    0    0  0.15304389262E+02  0.11799070598E+02 -0.18055732476E+03  0.18158851814E+03  0.00000000000E+00 0.  1.
          1    1    3    3  501    0  0.23364062125E+02  0.12490950621E+02 -0.31354492676E+03  0.31466223851E+03  0.00000000000E+00 0.  1.
         -1    1    1    2    0  502 -0.38668451386E+02 -0.24290021219E+02 -0.50379083089E+03  0.50585616093E+03  0.00000000000E+00 0. -1.
<mgrwt>
<rscale>  1 0.30000000E+03</rscale>
<asrwt>0</asrwt>
<pdfrwt beam="1">  1       21 0.76615347E-02 0.30000000E+03</pdfrwt>
<pdfrwt beam="2">0</pdfrwt>
<totfact> 0.13780360E+04</totfact>
</mgrwt>
</event>
<event>
 6    1  0.1198667E-001  0.3000000E+03  0.7818608E-02  0.1093470E+00
         21   -1    0    0  501  502  0.00000000000E+00  0.00000000000E+00  0.27962405818E+01  0.27962405818E+01  0.00000000000E+00 0. -1.
         13   -1    0    0    0    0 -0.00000000000E+00 -0.00000000000E+00 -0.10000000000E+04  0.10000000000E+04  0.00000000000E+00 0.  1.
    9000005    2    1    2  501    0 -0.51188432197E+02 -0.13021053823E+02 -0.49959397967E+03  0.50239110838E+03  0.35885683531E+01 0.  0.
         13    1    3    3    0    0 -0.47218835175E+02 -0.12980477275E+02 -0.46228907405E+03  0.46487557386E+03  0.00000000000E+00 0.  1.
          1    1    3    3  501    0 -0.39695970215E+01 -0.40576547742E-01 -0.37304905619E+02  0.37515534519E+02  0.00000000000E+00 0.  1.
         -1    1    1    2    0  502  0.51188432197E+02  0.13021053823E+02 -0.49760977975E+03  0.50040513220E+03  0.00000000000E+00 0. -1.
<mgrwt>
<rscale>  1 0.30000000E+03</rscale>
<asrwt>0</asrwt>
<pdfrwt beam="1">  1       21 0.10168169E-01 0.30000000E+03</pdfrwt>
<pdfrwt beam="2">0</pdfrwt>
<totfact> 0.83504853E+03</totfact>
</mgrwt>
</event>
<event>
 6    1  0.1198667E-001  0.3000000E+03  0.7818608E-02  0.1093470E+00
         21   -1    0    0  501  502  0.00000000000E+00  0.00000000000E+00  0.11614337586E+01  0.11614337586E+01  0.00000000000E+00 0. -1.
         13   -1    0    0    0    0 -0.00000000000E+00 -0.00000000000E+00 -0.10000000000E+04  0.10000000000E+04  0.00000000000E+00 0.  1.
    9000005    2    1    2  501    0  0.20343808026E+02 -0.26718605823E+02 -0.42170182743E+03  0.42304849522E+03  0.31374554006E+01 0.  0.
         13    1    3    3    0    0  0.10218387385E+02 -0.11261134186E+02 -0.17972842699E+03  0.18037055206E+03  0.00000000000E+00 0.  1.
          1    1    3    3  501    0  0.10125420641E+02 -0.15457471637E+02 -0.24197340044E+03  0.24267794316E+03  0.00000000000E+00 0.  1.
         -3    1    1    2    0  502 -0.20343808026E+02  0.26718605823E+02 -0.57713673881E+03  0.57811293854E+03  0.00000000000E+00 0. -1.
<mgrwt>
<rscale>  1 0.30000000E+03</rscale>
<asrwt>0</asrwt>
<pdfrwt beam="1">  1       21 0.42234044E-02 0.30000000E+03</pdfrwt>
<pdfrwt beam="2">0</pdfrwt>
<totfact> 0.38364696E+04</totfact>
</mgrwt>
</event>
<event>
 6    1  0.1198667E-001  0.3000000E+03  0.7818608E-02  0.1093470E+00
         21   -1    0    0  501  502  0.00000000000E+00  0.00000000000E+00  0.11086520739E+01  0.11086520739E+01  0.00000000000E+00 0. -1.
         13   -1    0    0    0    0 -0.00000000000E+00 -0.00000000000E+00 -0.10000000000E+04  0.10000000000E+04  0.00000000000E+00 0.  1.
    9000005    2    1    2  501    0 -0.27861916689E+02 -0.14954198853E+02 -0.65297302549E+03  0.65374803216E+03  0.35781391937E+01 0.  0.
         13    1    3    3    0    0 -0.19250035564E+02 -0.11219189164E+02 -0.48762727988E+03  0.48813604473E+03  0.00000000000E+00 0.  1.
          3    1    3    3  501    0 -0.86118811255E+01 -0.37350096885E+01 -0.16534574560E+03  0.16561198744E+03  0.00000000000E+00 0.  1.
         -3    1    1    2    0  502  0.27861916689E+02  0.14954198853E+02 -0.34591832244E+03  0.34736061991E+03  0.00000000000E+00 0. -1.
<mgrwt>
<rscale>  1 0.30000000E+03</rscale>
<asrwt>0</asrwt>
<pdfrwt beam="1">  1       21 0.40314706E-02 0.30000000E+03</pdfrwt>
<pdfrwt beam="2">0</pdfrwt>
<totfact> 0.41495939E+04</totfact>
</mgrwt>
</event>
<event>
 6    1  0.1198667E-001  0.3000000E+03  0.7818608E-02  0.1093470E+00
         21   -1    0    0  501  502  0.00000000000E+00  0.00000000000E+00  0.10356222467E+01  0.10356222467E+01  0.00000000000E+00 0. -1.
         13   -1    0    0    0    0 -0.00000000000E+00 -0.00000000000E+00 -0.10000000000E+04  0.10000000000E+04  0.00000000000E+00 0.  1.
    9000005    2    1    2  501    0 -0.29963912047E+02  0.46712174734E+01 -0.66455312367E+03  0.66525214565E+03  0.31475092553E+01 0.  0.
         13    1    3    3    0    0 -0.12967719974E+02  0.94783824012E+00 -0.30936594169E+03  0.30963905768E+03  0.00000000000E+00 0.  1.
          3    1    3    3  501    0 -0.16996192073E+02  0.37233792333E+01 -0.35518718198E+03  0.35561308798E+03  0.00000000000E+00 0.  1.
         -3    1    1    2    0  502  0.29963912047E+02 -0.46712174734E+01 -0.33441125408E+03  0.33578347660E+03  0.00000000000E+00 0. -1.
<mgrwt>
<rscale>  1 0.30000000E+03</rscale>
<asrwt>0</asrwt>
<pdfrwt beam="1">  1       21 0.37659070E-02 0.30000000E+03</pdfrwt>
<pdfrwt beam="2">0</pdfrwt>
<totfact> 0.46535286E+04</totfact>
</mgrwt>
</event>
<event>
 6    1  0.1198667E-001  0.3000000E+03  0.7818608E-02  0.1093470E+00
         21   -1    0    0  501  502  0.00000000000E+00  0.00000000000E+00  0.12654972631E+01  0.12654972631E+01  0.00000000000E+00 0. -1.
         13   -1    0    0    0    0 -0.00000000000E+00 -0.00000000000E+00 -0.10000000000E+04  0.10000000000E+04  0.00000000000E+00 0.  1.
    9000005    2    1    2  501    0  0.22713587491E+02 -0.24337952150E+02 -0.67309098933E+03  0.67392478669E+03  0.38594341962E+01 0.  0.
         13    1    3    3    0    0  0.14199538530E+02 -0.13098789469E+02 -0.36378341274E+03  0.36429600130E+03  0.00000000000E+00 0.  1.
          3    1    3    3  501    0  0.85140489616E+01 -0.11239162681E+02 -0.30930757659E+03  0.30962878540E+03  0.00000000000E+00 0.  1.
         -3    1    1    2    0  502 -0.22713587491E+02  0.24337952150E+02 -0.32564351341E+03  0.32734071057E+03  0.00000000000E+00 0. -1.
<mgrwt>
<rscale>  1 0.30000000E+03</rscale>
<asrwt>0</asrwt>
<pdfrwt beam="1">  1       21 0.46018179E-02 0.30000000E+03</pdfrwt>
<pdfrwt beam="2">0</pdfrwt>
<totfact> 0.33173507E+04</totfact>
</mgrwt>
</event>
<event>
 6    1  0.1198667E-001  0.3000000E+03  0.7818608E-02  0.1093470E+00
         21   -1    0    0  501  502  0.00000000000E+00  0.00000000000E+00  0.16754573041E+01  0.16754573041E+01  0.00000000000E+00 0. -1.
         13   -1    0    0    0    0 -0.00000000000E+00 -0.00000000000E+00 -0.10000000000E+04  0.10000000000E+04  0.00000000000E+00 0.  1.
    9000005    2    1    2  501    0  0.30796233076E+02  0.24696664415E+02 -0.62975345087E+03  0.63099637382E+03  0.29464695666E+01 0.  0.
         13    1    3    3    0    0  0.12970012695E+02  0.11606059896E+02 -0.29532271954E+03  0.29583514080E+03  0.00000000000E+00 0.  1.
          1    1    3    3  501    0  0.17826220381E+02  0.13090604519E+02 -0.33443073133E+03  0.33516123302E+03  0.00000000000E+00 0.  1.
         -1    1    1    2    0  502 -0.30796233076E+02 -0.24696664415E+02 -0.36857109183E+03  0.37067908349E+03  0.00000000000E+00 0. -1.
<mgrwt>
<rscale>  1 0.30000000E+03</rscale>
<asrwt>0</asrwt>
<pdfrwt beam="1">  1       21 0.60925849E-02 0.30000000E+03</pdfrwt>
<pdfrwt beam="2">0</pdfrwt>
<totfact> 0.20522291E+04</totfact>
</mgrwt>
</event>
<event>
 6    1  0.1198667E-001  0.3000000E+03  0.7818608E-02  0.1093470E+00
         21   -1    0    0  501  502  0.00000000000E+00  0.00000000000E+00  0.19002460126E+01  0.19002460126E+01  0.00000000000E+00 0. -1.
         13   -1    0    0    0    0 -0.00000000000E+00 -0.00000000000E+00 -0.10000000000E+04  0.10000000000E+04  0.00000000000E+00 0.  1.
    9000005    2    1    2  501    0 -0.18766299058E+02  0.29798452385E+02 -0.20522307351E+03  0.20824191134E+03  0.28393651042E+01 0.  0.
         13    1    3    3    0    0 -0.82141052864E+01  0.10654872130E+02 -0.75083758603E+02  0.76279542681E+02  0.00000000000E+00 0.  1.
          3    1    3    3  501    0 -0.10552193772E+02  0.19143580255E+02 -0.13013931490E+03  0.13196236866E+03  0.00000000000E+00 0.  1.
         -3    1    1    2    0  502  0.18766299058E+02 -0.29798452385E+02 -0.79287668048E+03  0.79365833467E+03  0.00000000000E+00 0. -1.
<mgrwt>
<rscale>  1 0.30000000E+03</rscale>
<asrwt>0</asrwt>
<pdfrwt beam="1">  1       21 0.69100001E-02 0.30000000E+03</pdfrwt>
<pdfrwt beam="2">0</pdfrwt>
<totfact> 0.16502597E+04</totfact>
</mgrwt>
</event>
<event>
 6    1  0.1198667E-001  0.3000000E+03  0.7818608E-02  0.1093470E+00
         21   -1    0    0  501  502  0.00000000000E+00  0.00000000000E+00  0.22616211159E+01  0.22616211159E+01  0.00000000000E+00 0. -1.
         13   -1    0    0    0    0 -0.00000000000E+00 -0.00000000000E+00 -0.10000000000E+04  0.10000000000E+04  0.00000000000E+00 0.  1.
    9000005    2    1    2  501    0 -0.44350039231E+02  0.16684883766E+02 -0.53267539240E+03  0.53479088115E+03  0.35918752121E+01 0.  0.
         13    1    3    3    0    0 -0.31858571704E+02  0.12863153100E+02 -0.40095414186E+03  0.40242347493E+03  0.00000000000E+00 0.  1.
          3    1    3    3  501    0 -0.12491467527E+02  0.38217306652E+01 -0.13172125054E+03  0.13236740622E+03  0.00000000000E+00 0.  1.
         -1    1    1    2    0  502  0.44350039231E+02 -0.16684883766E+02 -0.46506298649E+03  0.46747073997E+03  0.00000000000E+00 0. -1.
<mgrwt>
<rscale>  1 0.30000000E+03</rscale>
<asrwt>0</asrwt>
<pdfrwt beam="1">  1       21 0.82240941E-02 0.30000000E+03</pdfrwt>
<pdfrwt beam="2">0</pdfrwt>
<totfact> 0.12168332E+04</totfact>
</mgrwt>
</event>
<event>
 6    1  0.1198667E-001  0.3000000E+03  0.7818608E-02  0.1093470E+00
         21   -1    0    0  501  502  0.00000000000E+00  0.00000000000E+00  0.45060174590E+01  0.45060174590E+01  0.00000000000E+00 0. -1.
         13   -1    0    0    0    0 -0.00000000000E+00 -0.00000000000E+00 -0.10000000000E+04  0.10000000000E+04  0.00000000000E+00 0.  1.
    9000005    2    1    2  501    0  0.54527212508E+01 -0.43182023791E+02 -0.87967939531E+03  0.88078278616E+03  0.69324248586E+01 0.  0.
         13    1    3    3    0    0  0.19723622319E+01 -0.20138755141E+02 -0.34140868660E+03  0.34200782294E+03  0.00000000000E+00 0.  1.
          3    1    3    3  501    0  0.34803590189E+01 -0.23043268650E+02 -0.53827070871E+03  0.53877496321E+03  0.00000000000E+00 0.  1.
         -3    1    1    2    0  502 -0.54527212508E+01  0.43182023791E+02 -0.11581458723E+03  0.12372323130E+03  0.00000000000E+00 0. -1.
<mgrwt>
<rscale>  1 0.30000000E+03</rscale>
<asrwt>0</asrwt>
<pdfrwt beam="1">  1       21 0.16385553E-01 0.30000000E+03</pdfrwt>
<pdfrwt beam="2">0</pdfrwt>
<totfact> 0.34939599E+03</totfact>
</mgrwt>
</event>
<event>
 6    1  0.1198667E-001  0.3000000E+03  0.7818608E-02  0.1093470E+00
         21   -1    0    0  501  502  0.00000000000E+00  0.00000000000E+00  0.37057047502E+01  0.37057047502E+01  0.00000000000E+00 0. -1.
         13   -1    0    0    0    0 -0.00000000000E+00 -0.00000000000E+00 -0.10000000000E+04  0.10000000000E+04  0.00000000000E+00 0.  1.
    9000005    2    1    2  501    0  0.39293057085E+02 -0.17534807742E+02 -0.85298190761E+03  0.85407330762E+03  0.34155928490E+01 0.  0.
         13    1    3    3    0    0  0.14548763233E+02 -0.60350108312E+01 -0.34434372180E+03  0.34470376646E+03  0.00000000000E+00 0.  1.
          3    1    3    3  501    0  0.24744293852E+02 -0.11499796910E+02 -0.50863818581E+03  0.50936954117E+03  0.00000000000E+00 0.  1.
         -3    1    1    2    0  502 -0.39293057085E+02  0.17534807742E+02 -0.14331238764E+03  0.14963239713E+03  0.00000000000E+00 0. -1.
<mgrwt>
<rscale>  1 0.30000000E+03</rscale>
<asrwt>0</asrwt>
<pdfrwt beam="1">  1       21 0.13475318E-01 0.30000000E+03</pdfrwt>
<pdfrwt beam="2">0</pdfrwt>
<totfact> 0.50160831E+03</totfact>
</mgrwt>
</event>
<event>
 6    1  0.1198667E-001  0.3000000E+03  0.7818608E-02  0.1093470E+00
         21   -1    0    0  501  502  0.00000000000E+00  0.00000000000E+00  0.17754960381E+01  0.17754960381E+01  0.00000000000E+00 0. -1.
         13   -1    0    0    0    0 -0.00000000000E+00 -0.00000000000E+00 -0.10000000000E+04  0.10000000000E+04  0.00000000000E+00 0.  1.
    9000005    2    1    2  501    0 -0.19098000192E+02  0.27078800649E+02 -0.80809685735E+03  0.80878192863E+03  0.31116166471E+01 0.  0.
         13    1    3    3    0    0 -0.78083354196E+01  0.12829659138E+02 -0.39423556594E+03  0.39452154784E+03  0.00000000000E+00 0.  1.
          3    1    3    3  501    0 -0.11289664773E+02  0.14249141512E+02 -0.41386129141E+03  0.41426038079E+03  0.00000000000E+00 0.  1.
         -3    1    1    2    0  502  0.19098000192E+02 -0.27078800649E+02 -0.19012764661E+03  0.19299356741E+03  0.00000000000E+00 0. -1.
<mgrwt>
<rscale>  1 0.30000000E+03</rscale>
<asrwt>0</asrwt>
<pdfrwt beam="1">  1       21 0.64563628E-02 0.30000000E+03</pdfrwt>
<pdfrwt beam="2">0</pdfrwt>
<totfact> 0.18565267E+04</totfact>
</mgrwt>
</event>
<event>
 6    1  0.1198667E-001  0.3000000E+03  0.7818608E-02  0.1093470E+00
         21   -1    0    0  501  502  0.00000000000E+00  0.00000000000E+00  0.13602927197E+01  0.13602927197E+01  0.00000000000E+00 0. -1.
         13   -1    0    0    0    0 -0.00000000000E+00 -0.00000000000E+00 -0.10000000000E+04  0.10000000000E+04  0.00000000000E+00 0.  1.
    9000005    2    1    2  501    0  0.18339726543E+02 -0.24251168331E+02 -0.78212237361E+03  0.78271852975E+03  0.29025465146E+01 0.  0.
         13    1    3    3    0    0  0.18271111286E+02 -0.23488850407E+02 -0.75763981210E+03  0.75822400679E+03  0.00000000000E+00 0.  1.
          1    1    3    3  501    0  0.68615257596E-01 -0.76231792429E+00 -0.24482561513E+02  0.24494522958E+02  0.00000000000E+00 0.  1.
         -1    1    1    2    0  502 -0.18339726543E+02  0.24251168331E+02 -0.21651733367E+03  0.21864176297E+03  0.00000000000E+00 0. -1.
<mgrwt>
<rscale>  1 0.30000000E+03</rscale>
<asrwt>0</asrwt>
<pdfrwt beam="1">  1       21 0.49465294E-02 0.30000000E+03</pdfrwt>
<pdfrwt beam="2">0</pdfrwt>
<totfact> 0.29337335E+04</totfact>
</mgrwt>
</event>
<event>
 6    1  0.1198667E-001  0.3000000E+03  0.7818608E-02  0.1093470E+00
         21   -1    0    0  501  502  0.00000000000E+00  0.00000000000E+00  0.24578988922E+01  0.24578988922E+01  0.00000000000E+00 0. -1.
         13   -1    0    0    0    0 -0.00000000000E+00 -0.00000000000E+00 -0.10000000000E+04  0.10000000000E+04  0.00000000000E+00 0.  1.
    9000005    2    1    2  501    0  0.14603492594E+02  0.45114883162E+02 -0.64130613924E+03  0.64307972036E+03  0.54173637699E+01 0.  0.
         13    1    3    3    0    0  0.12854433121E+02  0.42867388586E+02 -0.61265516592E+03  0.61428755627E+03  0.00000000000E+00 0.  1.
          1    1    3    3  501    0  0.17490594730E+01  0.22474945761E+01 -0.28650973325E+02  0.28792164097E+02  0.00000000000E+00 0.  1.
         -3    1    1    2    0  502 -0.14603492594E+02 -0.45114883162E+02 -0.35623596186E+03  0.35937817853E+03  0.00000000000E+00 0. -1.
<mgrwt>
<rscale>  1 0.30000000E+03</rscale>
<asrwt>0</asrwt>
<pdfrwt beam="1">  1       21 0.89378330E-02 0.30000000E+03</pdfrwt>
<pdfrwt beam="2">0</pdfrwt>
<totfact> 0.10506279E+04</totfact>
</mgrwt>
</event>
<event>
 6    1  0.1198667E-001  0.3000000E+03  0.7818608E-02  0.1093470E+00
         21   -1    0    0  501  502  0.00000000000E+00  0.00000000000E+00  0.54597672156E+01  0.54597672156E+01  0.00000000000E+00 0. -1.
         13   -1    0    0    0    0 -0.00000000000E+00 -0.00000000000E+00 -0.10000000000E+04  0.10000000000E+04  0.00000000000E+00 0.  1.
    9000005    2    1    2  501    0 -0.39614083346E+01  0.56589347373E+02 -0.81916507637E+03  0.82113805803E+03  0.42709481858E+01 0.  0.
         13    1    3    3    0    0 -0.29436109342E+01  0.16436317558E+02 -0.25169522525E+03  0.25224849611E+03  0.00000000000E+00 0.  1.
          3    1    3    3  501    0 -0.10177974004E+01  0.40153029814E+02 -0.56746985113E+03  0.56888956191E+03  0.00000000000E+00 0.  1.
         -1    1    1    2    0  502  0.39614083346E+01 -0.56589347373E+02 -0.17537515641E+03  0.18432170919E+03  0.00000000000E+00 0. -1.
<mgrwt>
<rscale>  1 0.30000000E+03</rscale>
<asrwt>0</asrwt>
<pdfrwt beam="1">  1       21 0.19853741E-01 0.30000000E+03</pdfrwt>
<pdfrwt beam="2">0</pdfrwt>
<totfact> 0.24330573E+03</totfact>
</mgrwt>
</event>
<event>
 6    1  0.1198667E-001  0.3000000E+03  0.7818608E-02  0.1093470E+00
         21   -1    0    0  501  502  0.00000000000E+00  0.00000000000E+00  0.12574925880E+01  0.12574925880E+01  0.00000000000E+00 0. -1.
         13   -1    0    0    0    0 -0.00000000000E+00 -0.00000000000E+00 -0.10000000000E+04  0.10000000000E+04  0.00000000000E+00 0.  1.
    9000005    2    1    2  501    0 -0.30773096471E+02 -0.85433646494E+01 -0.71565546212E+03  0.71637462585E+03  0.31450851680E+01 0.  0.
         13    1    3    3    0    0 -0.43184870547E+01 -0.12703288395E+01 -0.78821182649E+02  0.78949616212E+02  0.00000000000E+00 0.  1.
          3    1    3    3  501    0 -0.26454609416E+02 -0.72730358099E+01 -0.63683427947E+03  0.63742500964E+03  0.00000000000E+00 0.  1.
         -1    1    1    2    0  502  0.30773096471E+02  0.85433646494E+01 -0.28308704530E+03  0.28488286674E+03  0.00000000000E+00 0. -1.
<mgrwt>
<rscale>  1 0.30000000E+03</rscale>
<asrwt>0</asrwt>
<pdfrwt beam="1">  1       21 0.45727100E-02 0.30000000E+03</pdfrwt>
<pdfrwt beam="2">0</pdfrwt>
<totfact> 0.33533041E+04</totfact>
</mgrwt>
</event>
<event>
 6    1  0.1198667E-001  0.3000000E+03  0.7818608E-02  0.1093470E+00
         21   -1    0    0  501  502  0.00000000000E+00  0.00000000000E+00  0.63297234705E+01  0.63297234705E+01  0.00000000000E+00 0. -1.
         13   -1    0    0    0    0 -0.00000000000E+00 -0.00000000000E+00 -0.10000000000E+04  0.10000000000E+04  0.00000000000E+00 0.  1.
    9000005    2    1    2  501    0  0.23200656598E+02 -0.19563703711E+02 -0.96193183751E+03  0.96241688388E+03  0.35198568507E+01 0.  0.
         13    1    3    3    0    0  0.92450017091E+01 -0.56915685166E+01 -0.35788194833E+03  0.35804657930E+03  0.00000000000E+00 0.  1.
          1    1    3    3  501    0  0.13955654889E+02 -0.13872135194E+02 -0.60404988918E+03  0.60437030458E+03  0.00000000000E+00 0.  1.
         -1    1    1    2    0  502 -0.23200656598E+02  0.19563703711E+02 -0.31738439017E+02  0.43912839589E+02  0.00000000000E+00 0. -1.
<mgrwt>
<rscale>  1 0.30000000E+03</rscale>
<asrwt>0</asrwt>
<pdfrwt beam="1">  1       21 0.23017225E-01 0.30000000E+03</pdfrwt>
<pdfrwt beam="2">0</pdfrwt>
<totfact> 0.18316225E+03</totfact>
</mgrwt>
</event>
<event>
 6    1  0.1198667E-001  0.3000000E+03  0.7818608E-02  0.1093470E+00
         21   -1    0    0  501  502  0.00000000000E+00  0.00000000000E+00  0.21996364626E+01  0.21996364626E+01  0.00000000000E+00 0. -1.
         13   -1    0    0    0    0 -0.00000000000E+00 -0.00000000000E+00 -0.10000000000E+04  0.10000000000E+04  0.00000000000E+00 0.  1.
    9000005    2    1    2  501    0 -0.20860941228E+02  0.23367999281E+02 -0.87160928724E+03  0.87217875354E+03  0.34331124816E+01 0.  0.
         13    1    3    3    0    0 -0.10075820987E+02  0.13480952737E+02 -0.44146171119E+03  0.44178241331E+03  0.00000000000E+00 0.  1.
          3    1    3    3  501    0 -0.10785120241E+02  0.98870465440E+01 -0.43014757605E+03  0.43039634023E+03  0.00000000000E+00 0.  1.
         -3    1    1    2    0  502  0.20860941228E+02 -0.23367999281E+02 -0.12619107630E+03  0.13002088292E+03  0.00000000000E+00 0. -1.
<mgrwt>
<rscale>  1 0.30000000E+03</rscale>
<asrwt>0</asrwt>
<pdfrwt beam="1">  1       21 0.79986949E-02 0.30000000E+03</pdfrwt>
<pdfrwt beam="2">0</pdfrwt>
<totfact> 0.12777530E+04</totfact>
</mgrwt>
</event>
<event>
 6    1  0.1198667E-001  0.3000000E+03  0.7818608E-02  0.1093470E+00
         21   -1    0    0  501  502  0.00000000000E+00  0.00000000000E+00  0.13633011540E+01  0.13633011540E+01  0.00000000000E+00 0. -1.
         13   -1    0    0    0    0 -0.00000000000E+00 -0.00000000000E+00 -0.10000000000E+04  0.10000000000E+04  0.00000000000E+00 0.  1.
    9000005    2    1    2  501    0 -0.22779515385E+02  0.28145073600E+02 -0.59331643448E+03  0.59442894749E+03  0.32141400921E+01 0.  0.
         13    1    3    3    0    0 -0.15677735881E+02  0.17223137931E+02 -0.39246522070E+03  0.39315566554E+03  0.00000000000E+00 0.  1.
          1    1    3    3  501    0 -0.71017795038E+01  0.10921935670E+02 -0.20085121378E+03  0.20127328195E+03  0.00000000000E+00 0.  1.
         -3    1    1    2    0  502  0.22779515385E+02 -0.28145073600E+02 -0.40532026436E+03  0.40693435367E+03  0.00000000000E+00 0. -1.
<mgrwt>
<rscale>  1 0.30000000E+03</rscale>
<asrwt>0</asrwt>
<pdfrwt beam="1">  1       21 0.49574692E-02 0.30000000E+03</pdfrwt>
<pdfrwt beam="2">0</pdfrwt>
<totfact> 0.29227109E+04</totfact>
</mgrwt>
</event>
<event>
 6    1  0.1198667E-001  0.3000000E+03  0.7818608E-02  0.1093470E+00
         21   -1    0    0  501  502  0.00000000000E+00  0.00000000000E+00  0.13855279392E+01  0.13855279392E+01  0.00000000000E+00 0. -1.
         13   -1    0    0    0    0 -0.00000000000E+00 -0.00000000000E+00 -0.10000000000E+04  0.10000000000E+04  0.00000000000E+00 0.  1.
    9000005    2    1    2  501    0 -0.13831741781E+02 -0.28348637451E+02 -0.76438420820E+03  0.76504090914E+03  0.30679943804E+01 0.  0.
         13    1    3    3    0    0 -0.20265799536E+01 -0.35456911560E+01 -0.12555333592E+03  0.12561974014E+03  0.00000000000E+00 0.  1.
          3    1    3    3  501    0 -0.11805161827E+02 -0.24802946295E+02 -0.63883087228E+03  0.63942116900E+03  0.00000000000E+00 0.  1.
         -1    1    1    2    0  502  0.13831741781E+02  0.28348637451E+02 -0.23423026386E+03  0.23634461880E+03  0.00000000000E+00 0. -1.
<mgrwt>
<rscale>  1 0.30000000E+03</rscale>
<asrwt>0</asrwt>
<pdfrwt beam="1">  1       21 0.50382940E-02 0.30000000E+03</pdfrwt>
<pdfrwt beam="2">0</pdfrwt>
<totfact> 0.28432366E+04</totfact>
</mgrwt>
</event>
<event>
 6    1  0.1198667E-001  0.3000000E+03  0.7818608E-02  0.1093470E+00
         21   -1    0    0  501  502  0.00000000000E+00  0.00000000000E+00  0.24817783225E+01  0.24817783225E+01  0.00000000000E+00 0. -1.
         13   -1    0    0    0    0 -0.00000000000E+00 -0.00000000000E+00 -0.10000000000E+04  0.10000000000E+04  0.00000000000E+00 0.  1.
    9000005    2    1    2  501    0 -0.58355927949E+01 -0.48014474253E+02 -0.61687530872E+03  0.61877815433E+03  0.34371332904E+01 0.  0.
         13    1    3    3    0    0 -0.52995533628E+01 -0.47295164976E+02 -0.60477869428E+03  0.60664832230E+03  0.00000000000E+00 0.  1.
          1    1    3    3  501    0 -0.53603943213E+00 -0.71930927752E+00 -0.12096614441E+02  0.12129832029E+02  0.00000000000E+00 0.  1.
         -1    1    1    2    0  502  0.58355927949E+01  0.48014474253E+02 -0.38064291296E+03  0.38370362399E+03  0.00000000000E+00 0. -1.
<mgrwt>
<rscale>  1 0.30000000E+03</rscale>
<asrwt>0</asrwt>
<pdfrwt beam="1">  1       21 0.90246675E-02 0.30000000E+03</pdfrwt>
<pdfrwt beam="2">0</pdfrwt>
<totfact> 0.10327880E+04</totfact>
</mgrwt>
</event>
<event>
 6    1  0.1198667E-001  0.3000000E+03  0.7818608E-02  0.1093470E+00
         21   -1    0    0  501  502  0.00000000000E+00  0.00000000000E+00  0.13131609435E+01  0.13131609435E+01  0.00000000000E+00 0. -1.
         13   -1    0    0    0    0 -0.00000000000E+00 -0.00000000000E+00 -0.10000000000E+04  0.10000000000E+04  0.00000000000E+00 0.  1.
    9000005    2    1    2  501    0 -0.24366184200E+02 -0.20303692357E+02 -0.74019472451E+03  0.74088250964E+03  0.35653950249E+01 0.  0.
         13    1    3    3    0    0 -0.22391360704E+02 -0.18526301325E+02 -0.65126573906E+03  0.65191384381E+03  0.00000000000E+00 0.  1.
          3    1    3    3  501    0 -0.19748234964E+01 -0.17773910322E+01 -0.88928985448E+02  0.88968665829E+02  0.00000000000E+00 0.  1.
         -3    1    1    2    0  502  0.24366184200E+02  0.20303692357E+02 -0.25849211455E+03  0.26043065131E+03  0.00000000000E+00 0. -1.
<mgrwt>
<rscale>  1 0.30000000E+03</rscale>
<asrwt>0</asrwt>
<pdfrwt beam="1">  1       21 0.47751408E-02 0.30000000E+03</pdfrwt>
<pdfrwt beam="2">0</pdfrwt>
<totfact> 0.31152550E+04</totfact>
</mgrwt>
</event>
<event>
 6    1  0.1198667E-001  0.3000000E+03  0.7818608E-02  0.1093470E+00
         21   -1    0    0  501  502  0.00000000000E+00  0.00000000000E+00  0.10590361657E+01  0.10590361657E+01  0.00000000000E+00 0. -1.
         13   -1    0    0    0    0 -0.00000000000E+00 -0.00000000000E+00 -0.10000000000E+04  0.10000000000E+04  0.00000000000E+00 0.  1.
    9000005    2    1    2  501    0 -0.12074721404E+02  0.30126655869E+02 -0.51059899095E+03  0.51163968962E+03  0.32292640579E+01 0.  0.
         13    1    3    3    0    0 -0.76134075010E+00  0.44590247788E+01 -0.62323105338E+02  0.62487054665E+02  0.00000000000E+00 0.  1.
          1    1    3    3  501    0 -0.11313380654E+02  0.25667631090E+02 -0.44827588562E+03  0.44915263496E+03  0.00000000000E+00 0.  1.
         -3    1    1    2    0  502  0.12074721404E+02 -0.30126655869E+02 -0.48834197288E+03  0.48941934654E+03  0.00000000000E+00 0. -1.
<mgrwt>
<rscale>  1 0.30000000E+03</rscale>
<asrwt>0</asrwt>
<pdfrwt beam="1">  1       21 0.38510487E-02 0.30000000E+03</pdfrwt>
<pdfrwt beam="2">0</pdfrwt>
<totfact> 0.44819573E+04</totfact>
</mgrwt>
</event>
<event>
 6    1  0.1198667E-001  0.3000000E+03  0.7818608E-02  0.1093470E+00
         21   -1    0    0  501  502  0.00000000000E+00  0.00000000000E+00  0.96122638953E+01  0.96122638953E+01  0.00000000000E+00 0. -1.
         13   -1    0    0    0    0 -0.00000000000E+00 -0.00000000000E+00 -0.10000000000E+04  0.10000000000E+04  0.00000000000E+00 0.  1.
    9000005    2    1    2  501    0  0.78388349356E+02  0.55476479563E+02 -0.39401470199E+03  0.40555666305E+03  0.24996912399E+01 0.  0.
         13    1    3    3    0    0  0.62544706526E+02  0.43747527244E+02 -0.31694920120E+03  0.32600994248E+03  0.00000000000E+00 0.  1.
          3    1    3    3  501    0  0.15843642831E+02  0.11728952320E+02 -0.77065500796E+02  0.79546720571E+02  0.00000000000E+00 0.  1.
         -3    1    1    2    0  502 -0.78388349356E+02 -0.55476479563E+02 -0.59637303411E+03  0.60405560085E+03  0.00000000000E+00 0. -1.
<mgrwt>
<rscale>  1 0.30000000E+03</rscale>
<asrwt>0</asrwt>
<pdfrwt beam="1">  1       21 0.34953761E-01 0.30000000E+03</pdfrwt>
<pdfrwt beam="2">0</pdfrwt>
<totfact> 0.79794905E+02</totfact>
</mgrwt>
</event>
<event>
 6    1  0.1198667E-001  0.3000000E+03  0.7818608E-02  0.1093470E+00
         21   -1    0    0  501  502  0.00000000000E+00  0.00000000000E+00  0.61508394196E+01  0.61508394196E+01  0.00000000000E+00 0. -1.
         13   -1    0    0    0    0 -0.00000000000E+00 -0.00000000000E+00 -0.10000000000E+04  0.10000000000E+04  0.00000000000E+00 0.  1.
    9000005    2    1    2  501    0 -0.12084779558E+02  0.77443166161E+02 -0.48666375717E+03  0.49294472165E+03  0.30659711700E+01 0.  0.
         13    1    3    3    0    0 -0.38374022357E+01  0.27736444095E+02 -0.16522038517E+03  0.16757628610E+03  0.00000000000E+00 0.  1.
          1    1    3    3  501    0 -0.82473773225E+01  0.49706722067E+02 -0.32144337200E+03  0.32536843555E+03  0.00000000000E+00 0.  1.
         -1    1    1    2    0  502  0.12084779558E+02 -0.77443166161E+02 -0.50718540341E+03  0.51320611777E+03  0.00000000000E+00 0. -1.
<mgrwt>
<rscale>  1 0.30000000E+03</rscale>
<asrwt>0</asrwt>
<pdfrwt beam="1">  1       21 0.22366736E-01 0.30000000E+03</pdfrwt>
<pdfrwt beam="2">0</pdfrwt>
<totfact> 0.19359241E+03</totfact>
</mgrwt>
</event>
<event>
 6    1  0.1198667E-001  0.3000000E+03  0.7818608E-02  0.1093470E+00
         21   -1    0    0  501  502  0.00000000000E+00  0.00000000000E+00  0.27169696648E+01  0.27169696648E+01  0.00000000000E+00 0. -1.
         13   -1    0    0    0    0 -0.00000000000E+00 -0.00000000000E+00 -0.10000000000E+04  0.10000000000E+04  0.00000000000E+00 0.  1.
    9000005    2    1    2  501    0  0.30721103123E+02 -0.11728197931E+02 -0.88750893179E+03  0.88812338558E+03  0.31156361493E+01 0.  0.
         13    1    3    3    0    0  0.80630886804E+01 -0.33238142411E+01 -0.20064960299E+03  0.20083905079E+03  0.00000000000E+00 0.  1.
          3    1    3    3  501    0  0.22658014443E+02 -0.84043836901E+01 -0.68685932880E+03  0.68728433479E+03  0.00000000000E+00 0.  1.
         -1    1    1    2    0  502 -0.30721103123E+02  0.11728197931E+02 -0.10977409854E+03  0.11459358409E+03  0.00000000000E+00 0. -1.
<mgrwt>
<rscale>  1 0.30000000E+03</rscale>
<asrwt>0</asrwt>
<pdfrwt beam="1">  1       21 0.98799105E-02 0.30000000E+03</pdfrwt>
<pdfrwt beam="2">0</pdfrwt>
<totfact> 0.87908748E+03</totfact>
</mgrwt>
</event>
<event>
 6    1  0.1198667E-001  0.3000000E+03  0.7818608E-02  0.1093470E+00
         21   -1    0    0  501  502  0.00000000000E+00  0.00000000000E+00  0.23658788500E+01  0.23658788500E+01  0.00000000000E+00 0. -1.
         13   -1    0    0    0    0 -0.00000000000E+00 -0.00000000000E+00 -0.10000000000E+04  0.10000000000E+04  0.00000000000E+00 0.  1.
    9000005    2    1    2  501    0 -0.32509722522E+02 -0.26460753367E+02 -0.24693539199E+03  0.25049778171E+03  0.38726347047E+01 0.  0.
         13    1    3    3    0    0 -0.16324752899E+02 -0.14242151512E+02 -0.13815460319E+03  0.13984287904E+03  0.00000000000E+00 0.  1.
          1    1    3    3  501    0 -0.16184969623E+02 -0.12218601855E+02 -0.10878078880E+03  0.11065490267E+03  0.00000000000E+00 0.  1.
         -1    1    1    2    0  502  0.32509722522E+02  0.26460753367E+02 -0.75069872916E+03  0.75186809714E+03  0.00000000000E+00 0. -1.
<mgrwt>
<rscale>  1 0.30000000E+03</rscale>
<asrwt>0</asrwt>
<pdfrwt beam="1">  1       21 0.86032140E-02 0.30000000E+03</pdfrwt>
<pdfrwt beam="2">0</pdfrwt>
<totfact> 0.11239377E+04</totfact>
</mgrwt>
</event>
<event>
 6    1  0.1198667E-001  0.3000000E+03  0.7818608E-02  0.1093470E+00
         21   -1    0    0  501  502  0.00000000000E+00  0.00000000000E+00  0.31772095218E+01  0.31772095218E+01  0.00000000000E+00 0. -1.
         13   -1    0    0    0    0 -0.00000000000E+00 -0.00000000000E+00 -0.10000000000E+04  0.10000000000E+04  0.00000000000E+00 0.  1.
    9000005    2    1    2  501    0  0.11297625903E+02 -0.30452373728E+02 -0.90826236970E+03  0.90884836162E+03  0.31350921613E+01 0.  0.
         13    1    3    3    0    0  0.82036161556E+01 -0.24043964655E+02 -0.67687898789E+03  0.67735557561E+03  0.00000000000E+00 0.  1.
          1    1    3    3  501    0  0.30940097476E+01 -0.64084090737E+01 -0.23138338180E+03  0.23149278602E+03  0.00000000000E+00 0.  1.
         -1    1    1    2    0  502 -0.11297625903E+02  0.30452373728E+02 -0.88560420783E+02  0.94328847899E+02  0.00000000000E+00 0. -1.
<mgrwt>
<rscale>  1 0.30000000E+03</rscale>
<asrwt>0</asrwt>
<pdfrwt beam="1">  1       21 0.11553514E-01 0.30000000E+03</pdfrwt>
<pdfrwt beam="2">0</pdfrwt>
<totfact> 0.66376356E+03</totfact>
</mgrwt>
</event>
<event>
 6    1  0.1198667E-001  0.3000000E+03  0.7818608E-02  0.1093470E+00
         21   -1    0    0  501  502  0.00000000000E+00  0.00000000000E+00  0.12335266653E+01  0.12335266653E+01  0.00000000000E+00 0. -1.
         13   -1    0    0    0    0 -0.00000000000E+00 -0.00000000000E+00 -0.10000000000E+04  0.10000000000E+04  0.00000000000E+00 0.  1.
    9000005    2    1    2  501    0  0.41306616715E+01 -0.32395054008E+02 -0.67255822254E+03  0.67339465652E+03  0.77005737849E+01 0.  0.
         13    1    3    3    0    0  0.53896489238E+01 -0.12445457965E+02 -0.26895280220E+03  0.26929453680E+03  0.00000000000E+00 0.  1.
          1    1    3    3  501    0 -0.12589872523E+01 -0.19949596043E+02 -0.40360542034E+03  0.40410011972E+03  0.00000000000E+00 0.  1.
         -1    1    1    2    0  502 -0.41306616715E+01  0.32395054008E+02 -0.32620825079E+03  0.32783887014E+03  0.00000000000E+00 0. -1.
<mgrwt>
<rscale>  1 0.30000000E+03</rscale>
<asrwt>0</asrwt>
<pdfrwt beam="1">  1       21 0.44855610E-02 0.30000000E+03</pdfrwt>
<pdfrwt beam="2">0</pdfrwt>
<totfact> 0.34646598E+04</totfact>
</mgrwt>
</event>
<event>
 6    1  0.1198667E-001  0.3000000E+03  0.7818608E-02  0.1093470E+00
         21   -1    0    0  501  502  0.00000000000E+00  0.00000000000E+00  0.11320096959E+01  0.11320096959E+01  0.00000000000E+00 0. -1.
         13   -1    0    0    0    0 -0.00000000000E+00 -0.00000000000E+00 -0.10000000000E+04  0.10000000000E+04  0.00000000000E+00 0.  1.
    9000005    2    1    2  501    0  0.28007289578E+02 -0.16101426791E+02 -0.63585939172E+03  0.63668872623E+03  0.34210906755E+01 0.  0.
         13    1    3    3    0    0  0.27775756844E+02 -0.15520106252E+02 -0.62736275716E+03  0.62816908189E+03  0.00000000000E+00 0.  1.
          3    1    3    3  501    0  0.23153273397E+00 -0.58132053928E+00 -0.84966345596E+01  0.85196443479E+01  0.00000000000E+00 0.  1.
         -3    1    1    2    0  502 -0.28007289578E+02  0.16101426791E+02 -0.36300859859E+03  0.36444328346E+03  0.00000000000E+00 0. -1.
<mgrwt>
<rscale>  1 0.30000000E+03</rscale>
<asrwt>0</asrwt>
<pdfrwt beam="1">  1       21 0.41164076E-02 0.30000000E+03</pdfrwt>
<pdfrwt beam="2">0</pdfrwt>
<totfact> 0.40062886E+04</totfact>
</mgrwt>
</event>
<event>
 6    1  0.1198667E-001  0.3000000E+03  0.7818608E-02  0.1093470E+00
         21   -1    0    0  501  502  0.00000000000E+00  0.00000000000E+00  0.16697147320E+01  0.16697147320E+01  0.00000000000E+00 0. -1.
         13   -1    0    0    0    0 -0.00000000000E+00 -0.00000000000E+00 -0.10000000000E+04  0.10000000000E+04  0.00000000000E+00 0.  1.
    9000005    2    1    2  501    0  0.33751418760E+02  0.24126881868E+01 -0.77914551602E+03  0.77988842066E+03  0.36378844858E+01 0.  0.
         13    1    3    3    0    0  0.26321073193E+02  0.12239451701E+01 -0.63534391383E+03  0.63589007366E+03  0.00000000000E+00 0.  1.
          1    1    3    3  501    0  0.74303455668E+01  0.11887430166E+01 -0.14380160219E+03  0.14399834699E+03  0.00000000000E+00 0.  1.
         -1    1    1    2    0  502 -0.33751418760E+02 -0.24126881868E+01 -0.21918476925E+03  0.22178129408E+03  0.00000000000E+00 0. -1.
<mgrwt>
<rscale>  1 0.30000000E+03</rscale>
<asrwt>0</asrwt>
<pdfrwt beam="1">  1       21 0.60717027E-02 0.30000000E+03</pdfrwt>
<pdfrwt beam="2">0</pdfrwt>
<totfact> 0.20644239E+04</totfact>
</mgrwt>
</event>
<event>
 6    1  0.1198667E-001  0.3000000E+03  0.7818608E-02  0.1093470E+00
         21   -1    0    0  501  502  0.00000000000E+00  0.00000000000E+00  0.15088973576E+01  0.15088973576E+01  0.00000000000E+00 0. -1.
         13   -1    0    0    0    0 -0.00000000000E+00 -0.00000000000E+00 -0.10000000000E+04  0.10000000000E+04  0.00000000000E+00 0.  1.
    9000005    2    1    2  501    0 -0.22552743415E+02 -0.30671931342E+02 -0.59410987726E+03  0.59533951268E+03  0.36325600031E+01 0.  0.
         13    1    3    3    0    0 -0.49795295521E+01 -0.46485052919E+01 -0.11532021931E+03  0.11552124176E+03  0.00000000000E+00 0.  1.
          1    1    3    3  501    0 -0.17573213863E+02 -0.26023426050E+02 -0.47878965795E+03  0.47981827092E+03  0.00000000000E+00 0.  1.
         -3    1    1    2    0  502  0.22552743415E+02  0.30671931342E+02 -0.40438122538E+03  0.40616938468E+03  0.00000000000E+00 0. -1.
<mgrwt>
<rscale>  1 0.30000000E+03</rscale>
<asrwt>0</asrwt>
<pdfrwt beam="1">  1       21 0.54869111E-02 0.30000000E+03</pdfrwt>
<pdfrwt beam="2">0</pdfrwt>
<totfact> 0.24574333E+04</totfact>
</mgrwt>
</event>
<event>
 6    1  0.1198667E-001  0.3000000E+03  0.7818608E-02  0.1093470E+00
         21   -1    0    0  501  502  0.00000000000E+00  0.00000000000E+00  0.28952469035E+01  0.28952469035E+01  0.00000000000E+00 0. -1.
         13   -1    0    0    0    0 -0.00000000000E+00 -0.00000000000E+00 -0.10000000000E+04  0.10000000000E+04  0.00000000000E+00 0.  1.
    9000005    2    1    2  501    0  0.16390757992E+02 -0.44252186080E+02 -0.73882289719E+03  0.74033776746E+03  0.37180098362E+01 0.  0.
         13    1    3    3    0    0  0.15004307258E+02 -0.36810729927E+02 -0.61348370080E+03  0.61477020929E+03  0.00000000000E+00 0.  1.
          1    1    3    3  501    0  0.13864507339E+01 -0.74414561534E+01 -0.12533919639E+03  0.12556755818E+03  0.00000000000E+00 0.  1.
         -3    1    1    2    0  502 -0.16390757992E+02  0.44252186080E+02 -0.25828185590E+03  0.26255747944E+03  0.00000000000E+00 0. -1.
<mgrwt>
<rscale>  1 0.30000000E+03</rscale>
<asrwt>0</asrwt>
<pdfrwt beam="1">  1       21 0.10528193E-01 0.30000000E+03</pdfrwt>
<pdfrwt beam="2">0</pdfrwt>
<totfact> 0.78460613E+03</totfact>
</mgrwt>
</event>
<event>
 6    1  0.1198667E-001  0.3000000E+03  0.7818608E-02  0.1093470E+00
         21   -1    0    0  501  502  0.00000000000E+00  0.00000000000E+00  0.11292101181E+01  0.11292101181E+01  0.00000000000E+00 0. -1.
         13   -1    0    0    0    0 -0.00000000000E+00 -0.00000000000E+00 -0.10000000000E+04  0.10000000000E+04  0.00000000000E+00 0.  1.
    9000005    2    1    2  501    0 -0.32914056776E+02 -0.22476745299E+01 -0.58995977493E+03  0.59088951759E+03  0.30820109259E+01 0.  0.
         13    1    3    3    0    0 -0.26536660900E+02 -0.58651002225E+00 -0.47446383987E+03  0.47520571725E+03  0.00000000000E+00 0.  1.
          3    1    3    3  501    0 -0.63773958758E+01 -0.16611645077E+01 -0.11549593506E+03  0.11568380034E+03  0.00000000000E+00 0.  1.
         -3    1    1    2    0  502  0.32914056776E+02  0.22476745299E+01 -0.40891101495E+03  0.41023969252E+03  0.00000000000E+00 0. -1.
<mgrwt>
<rscale>  1 0.30000000E+03</rscale>
<asrwt>0</asrwt>
<pdfrwt beam="1">  1       21 0.41062273E-02 0.30000000E+03</pdfrwt>
<pdfrwt beam="2">0</pdfrwt>
<totfact> 0.40230541E+04</totfact>
</mgrwt>
</event>
<event>
 6    1  0.1198667E-001  0.3000000E+03  0.7818608E-02  0.1093470E+00
         21   -1    0    0  501  502  0.00000000000E+00  0.00000000000E+00  0.10560521764E+01  0.10560521764E+01  0.00000000000E+00 0. -1.
         13   -1    0    0    0    0 -0.00000000000E+00 -0.00000000000E+00 -0.10000000000E+04  0.10000000000E+04  0.00000000000E+00 0.  1.
    9000005    2    1    2  501    0 -0.11993254529E+02  0.29652523780E+02 -0.41860134875E+03  0.41983265053E+03  0.30421958860E+01 0.  0.
         13    1    3    3    0    0 -0.12767026007E+01  0.50789842952E+01 -0.80447857646E+02  0.80618135992E+02  0.00000000000E+00 0.  1.
          1    1    3    3  501    0 -0.10716551929E+02  0.24573539484E+02 -0.33815349110E+03  0.33921451454E+03  0.00000000000E+00 0.  1.
         -3    1    1    2    0  502  0.11993254529E+02 -0.29652523780E+02 -0.58034259908E+03  0.58122340165E+03  0.00000000000E+00 0. -1.
<mgrwt>
<rscale>  1 0.30000000E+03</rscale>
<asrwt>0</asrwt>
<pdfrwt beam="1">  1       21 0.38401978E-02 0.30000000E+03</pdfrwt>
<pdfrwt beam="2">0</pdfrwt>
<totfact> 0.45032659E+04</totfact>
</mgrwt>
</event>
<event>
 6    1  0.1198667E-001  0.3000000E+03  0.7818608E-02  0.1093470E+00
         21   -1    0    0  501  502  0.00000000000E+00  0.00000000000E+00  0.21670309222E+01  0.21670309222E+01  0.00000000000E+00 0. -1.
         13   -1    0    0    0    0 -0.00000000000E+00 -0.00000000000E+00 -0.10000000000E+04  0.10000000000E+04  0.00000000000E+00 0.  1.
    9000005    2    1    2  501    0  0.40752312761E+02 -0.12565069483E+02 -0.69882451064E+03  0.70013277760E+03  0.34025906245E+01 0.  0.
         13    1    3    3    0    0  0.37811550797E+02 -0.12550863162E+02 -0.65072281746E+03  0.65194127244E+03  0.00000000000E+00 0.  1.
          3    1    3    3  501    0  0.29407619640E+01 -0.14206321676E-01 -0.48101693180E+02  0.48191505159E+02  0.00000000000E+00 0.  1.
         -3    1    1    2    0  502 -0.40752312761E+02  0.12565069483E+02 -0.29900845844E+03  0.30203425333E+03  0.00000000000E+00 0. -1.
<mgrwt>
<rscale>  1 0.30000000E+03</rscale>
<asrwt>0</asrwt>
<pdfrwt beam="1">  1       21 0.78801291E-02 0.30000000E+03</pdfrwt>
<pdfrwt beam="2">0</pdfrwt>
<totfact> 0.13116988E+04</totfact>
</mgrwt>
</event>
<event>
 6    1  0.1198667E-001  0.3000000E+03  0.7818608E-02  0.1093470E+00
         21   -1    0    0  501  502  0.00000000000E+00  0.00000000000E+00  0.10194015849E+01  0.10194015849E+01  0.00000000000E+00 0. -1.
         13   -1    0    0    0    0 -0.00000000000E+00 -0.00000000000E+00 -0.10000000000E+04  0.10000000000E+04  0.00000000000E+00 0.  1.
    9000005    2    1    2  501    0  0.12892576615E+01  0.31195195822E+02 -0.41268933382E+03  0.41389739606E+03  0.48750170308E+01 0.  0.
         13    1    3    3    0    0  0.75353530173E+00  0.14492538014E+02 -0.16037115970E+03  0.16102642744E+03  0.00000000000E+00 0.  1.
          3    1    3    3  501    0  0.53572235974E+00  0.16702657808E+02 -0.25231817412E+03  0.25287096861E+03  0.00000000000E+00 0.  1.
         -3    1    1    2    0  502 -0.12892576615E+01 -0.31195195822E+02 -0.58629126460E+03  0.58712200553E+03  0.00000000000E+00 0. -1.
<mgrwt>
<rscale>  1 0.30000000E+03</rscale>
<asrwt>0</asrwt>
<pdfrwt beam="1">  1       21 0.37069227E-02 0.30000000E+03</pdfrwt>
<pdfrwt beam="2">0</pdfrwt>
<totfact> 0.47785274E+04</totfact>
</mgrwt>
</event>
<event>
 6    1  0.1198667E-001  0.3000000E+03  0.7818608E-02  0.1093470E+00
         21   -1    0    0  501  502  0.00000000000E+00  0.00000000000E+00  0.27335373082E+01  0.27335373082E+01  0.00000000000E+00 0. -1.
         13   -1    0    0    0    0 -0.00000000000E+00 -0.00000000000E+00 -0.10000000000E+04  0.10000000000E+04  0.00000000000E+00 0.  1.
    9000005    2    1    2  501    0  0.36456331961E+02  0.11446832762E+02 -0.84059009066E+03  0.84146488048E+03  0.33690435905E+01 0.  0.
         13    1    3    3    0    0  0.23205327193E+01  0.13390759508E+01 -0.46440370179E+02  0.46517587844E+02  0.00000000000E+00 0.  1.
          3    1    3    3  501    0  0.34135799242E+02  0.10107756811E+02 -0.79414972048E+03  0.79494729264E+03  0.00000000000E+00 0.  1.
         -1    1    1    2    0  502 -0.36456331961E+02 -0.11446832762E+02 -0.15667637203E+03  0.16126865682E+03  0.00000000000E+00 0. -1.
<mgrwt>
<rscale>  1 0.30000000E+03</rscale>
<asrwt>0</asrwt>
<pdfrwt beam="1">  1       21 0.99401566E-02 0.30000000E+03</pdfrwt>
<pdfrwt beam="2">0</pdfrwt>
<totfact> 0.86959483E+03</totfact>
</mgrwt>
</event>
<event>
 6    1  0.1198667E-001  0.3000000E+03  0.7818608E-02  0.1093470E+00
         21   -1    0    0  501  502  0.00000000000E+00  0.00000000000E+00  0.30232601500E+01  0.30232601500E+01  0.00000000000E+00 0. -1.
         13   -1    0    0    0    0 -0.00000000000E+00 -0.00000000000E+00 -0.10000000000E+04  0.10000000000E+04  0.00000000000E+00 0.  1.
    9000005    2    1    2  501    0  0.42319036031E+02 -0.17547468827E+02 -0.77537485459E+03  0.77673536824E+03  0.35850629886E+01 0.  0.
         13    1    3    3    0    0  0.10987677632E+02 -0.32918332448E+01 -0.21158676099E+03  0.21189743428E+03  0.00000000000E+00 0.  1.
          1    1    3    3  501    0  0.31331358399E+02 -0.14255635582E+02 -0.56378809359E+03  0.56483793396E+03  0.00000000000E+00 0.  1.
         -1    1    1    2    0  502 -0.42319036031E+02  0.17547468827E+02 -0.22160188526E+03  0.22628789191E+03  0.00000000000E+00 0. -1.
<mgrwt>
<rscale>  1 0.30000000E+03</rscale>
<asrwt>0</asrwt>
<pdfrwt beam="1">  1       21 0.10993696E-01 0.30000000E+03</pdfrwt>
<pdfrwt beam="2">0</pdfrwt>
<totfact> 0.72595053E+03</totfact>
</mgrwt>
</event>
<event>
 6    1  0.1198667E-001  0.3000000E+03  0.7818608E-02  0.1093470E+00
         21   -1    0    0  501  502  0.00000000000E+00  0.00000000000E+00  0.10463109035E+01  0.10463109035E+01  0.00000000000E+00 0. -1.
         13   -1    0    0    0    0 -0.00000000000E+00 -0.00000000000E+00 -0.10000000000E+04  0.10000000000E+04  0.00000000000E+00 0.  1.
    9000005    2    1    2  501    0  0.29131035045E+02  0.13591357176E+02 -0.45774698331E+03  0.45888578064E+03  0.32429534517E+01 0.  0.
         13    1    3    3    0    0  0.88333220895E+01  0.29226611442E+01 -0.14661878794E+03  0.14691371108E+03  0.00000000000E+00 0.  1.
          3    1    3    3  501    0  0.20297712955E+02  0.10668696032E+02 -0.31112819537E+03  0.31197206956E+03  0.00000000000E+00 0.  1.
         -1    1    1    2    0  502 -0.29131035045E+02 -0.13591357176E+02 -0.54120670579E+03  0.54216053027E+03  0.00000000000E+00 0. -1.
<mgrwt>
<rscale>  1 0.30000000E+03</rscale>
<asrwt>0</asrwt>
<pdfrwt beam="1">  1       21 0.38047749E-02 0.30000000E+03</pdfrwt>
<pdfrwt beam="2">0</pdfrwt>
<totfact> 0.45739472E+04</totfact>
</mgrwt>
</event>
<event>
 6    1  0.1198667E-001  0.3000000E+03  0.7818608E-02  0.1093470E+00
         21   -1    0    0  501  502  0.00000000000E+00  0.00000000000E+00  0.10293314686E+01  0.10293314686E+01  0.00000000000E+00 0. -1.
         13   -1    0    0    0    0 -0.00000000000E+00 -0.00000000000E+00 -0.10000000000E+04  0.10000000000E+04  0.00000000000E+00 0.  1.
    9000005    2    1    2  501    0  0.31332309684E+02 -0.96685898579E+00 -0.60125565867E+03  0.60208086673E+03  0.32178495734E+01 0.  0.
         13    1    3    3    0    0  0.20462230372E+02  0.66292139739E+00 -0.37520384709E+03  0.37576198478E+03  0.00000000000E+00 0.  1.
          1    1    3    3  501    0  0.10870079312E+02 -0.16297803832E+01 -0.22605181158E+03  0.22631888195E+03  0.00000000000E+00 0.  1.
         -1    1    1    2    0  502 -0.31332309684E+02  0.96685898579E+00 -0.39771500986E+03  0.39894846474E+03  0.00000000000E+00 0. -1.
<mgrwt>
<rscale>  1 0.30000000E+03</rscale>
<asrwt>0</asrwt>
<pdfrwt beam="1">  1       21 0.37430314E-02 0.30000000E+03</pdfrwt>
<pdfrwt beam="2">0</pdfrwt>
<totfact> 0.47013887E+04</totfact>
</mgrwt>
</event>
<event>
 6    1  0.1198667E-001  0.3000000E+03  0.7818608E-02  0.1093470E+00
         21   -1    0    0  501  502  0.00000000000E+00  0.00000000000E+00  0.27693429609E+01  0.27693429609E+01  0.00000000000E+00 0. -1.
         13   -1    0    0    0    0 -0.00000000000E+00 -0.00000000000E+00 -0.10000000000E+04  0.10000000000E+04  0.00000000000E+00 0.  1.
    9000005    2    1    2  501    0 -0.22441396736E+02 -0.34257970301E+02 -0.81320815514E+03  0.81424479277E+03  0.31391340415E+01 0.  0.
         13    1    3    3    0    0 -0.19425372312E+02 -0.31349199961E+02 -0.72667223209E+03  0.72760748369E+03  0.00000000000E+00 0.  1.
          3    1    3    3  501    0 -0.30160244239E+01 -0.29087703402E+01 -0.86535923045E+02  0.86637309085E+02  0.00000000000E+00 0.  1.
         -3    1    1    2    0  502  0.22441396736E+02  0.34257970301E+02 -0.18402250190E+03  0.18852455019E+03  0.00000000000E+00 0. -1.
<mgrwt>
<rscale>  1 0.30000000E+03</rscale>
<asrwt>0</asrwt>
<pdfrwt beam="1">  1       21 0.10070359E-01 0.30000000E+03</pdfrwt>
<pdfrwt beam="2">0</pdfrwt>
<totfact> 0.84960665E+03</totfact>
</mgrwt>
</event>
<event>
 6    1  0.1198667E-001  0.3000000E+03  0.7818608E-02  0.1093470E+00
         21   -1    0    0  501  502  0.00000000000E+00  0.00000000000E+00  0.59700096623E+01  0.59700096623E+01  0.00000000000E+00 0. -1.
         13   -1    0    0    0    0 -0.00000000000E+00 -0.00000000000E+00 -0.10000000000E+04  0.10000000000E+04  0.00000000000E+00 0.  1.
    9000005    2    1    2  501    0  0.80935862468E+00  0.49831395395E+02 -0.88129135878E+03  0.88270678695E+03  0.36041136900E+01 0.  0.
         13    1    3    3    0    0  0.19125435227E+01  0.36608195276E+02 -0.66250251824E+03  0.66351594138E+03  0.00000000000E+00 0.  1.
          1    1    3    3  501    0 -0.11031848980E+01  0.13223200118E+02 -0.21878884054E+03  0.21919084557E+03  0.00000000000E+00 0.  1.
         -3    1    1    2    0  502 -0.80935862468E+00 -0.49831395395E+02 -0.11273863156E+03  0.12326322271E+03  0.00000000000E+00 0. -1.
<mgrwt>
<rscale>  1 0.30000000E+03</rscale>
<asrwt>0</asrwt>
<pdfrwt beam="1">  1       21 0.21709172E-01 0.30000000E+03</pdfrwt>
<pdfrwt beam="2">0</pdfrwt>
<totfact> 0.20504280E+03</totfact>
</mgrwt>
</event>
<event>
 6    1  0.1198667E-001  0.3000000E+03  0.7818608E-02  0.1093470E+00
         21   -1    0    0  501  502  0.00000000000E+00  0.00000000000E+00  0.13432546012E+01  0.13432546012E+01  0.00000000000E+00 0. -1.
         13   -1    0    0    0    0 -0.00000000000E+00 -0.00000000000E+00 -0.10000000000E+04  0.10000000000E+04  0.00000000000E+00 0.  1.
    9000005    2    1    2  501    0 -0.35612131704E+02 -0.58095201055E+01 -0.58200447317E+03  0.58313147762E+03  0.33375078604E+01 0.  0.
         13    1    3    3    0    0 -0.32945725277E+02 -0.61426652109E+01 -0.54516451731E+03  0.54619365072E+03  0.00000000000E+00 0.  1.
          1    1    3    3  501    0 -0.26664064272E+01  0.33314510542E+00 -0.36839955858E+02  0.36937826905E+02  0.00000000000E+00 0.  1.
         -1    1    1    2    0  502  0.35612131704E+02  0.58095201055E+01 -0.41665227223E+03  0.41821177698E+03  0.00000000000E+00 0. -1.
<mgrwt>
<rscale>  1 0.30000000E+03</rscale>
<asrwt>0</asrwt>
<pdfrwt beam="1">  1       21 0.48845725E-02 0.30000000E+03</pdfrwt>
<pdfrwt beam="2">0</pdfrwt>
<totfact> 0.29974010E+04</totfact>
</mgrwt>
</event>
<event>
 6    1  0.1198667E-001  0.3000000E+03  0.7818608E-02  0.1093470E+00
         21   -1    0    0  501  502  0.00000000000E+00  0.00000000000E+00  0.86834527574E+01  0.86834527574E+01  0.00000000000E+00 0. -1.
         13   -1    0    0    0    0 -0.00000000000E+00 -0.00000000000E+00 -0.10000000000E+04  0.10000000000E+04  0.00000000000E+00 0.  1.
    9000005    2    1    2  501    0 -0.46225872913E+02  0.27099051902E+02 -0.90825063908E+03  0.90983440097E+03  0.28677266714E+01 0.  0.
         13    1    3    3    0    0 -0.34279973433E+02  0.21030301863E+02 -0.66488088447E+03  0.66609607468E+03  0.00000000000E+00 0.  1.
          1    1    3    3  501    0 -0.11945899480E+02  0.60687500384E+01 -0.24336975461E+03  0.24373832629E+03  0.00000000000E+00 0.  1.
         -3    1    1    2    0  502  0.46225872913E+02 -0.27099051902E+02 -0.83065908160E+02  0.98849051786E+02  0.00000000000E+00 0. -1.
<mgrwt>
<rscale>  1 0.30000000E+03</rscale>
<asrwt>0</asrwt>
<pdfrwt beam="1">  1       21 0.31576258E-01 0.30000000E+03</pdfrwt>
<pdfrwt beam="2">0</pdfrwt>
<totfact> 0.98101876E+02</totfact>
</mgrwt>
</event>
<event>
 6    1  0.1198667E-001  0.3000000E+03  0.7818608E-02  0.1093470E+00
         21   -1    0    0  501  502  0.00000000000E+00  0.00000000000E+00  0.14324749676E+01  0.14324749676E+01  0.00000000000E+00 0. -1.
         13   -1    0    0    0    0 -0.00000000000E+00 -0.00000000000E+00 -0.10000000000E+04  0.10000000000E+04  0.00000000000E+00 0.  1.
    9000005    2    1    2  501    0  0.25862200716E+02  0.26729846048E+02 -0.58755096015E+03  0.58873651581E+03  0.33490567965E+01 0.  0.
         13    1    3    3    0    0  0.14180857094E+02  0.16903872154E+02 -0.33907747113E+03  0.33979459829E+03  0.00000000000E+00 0.  1.
          3    1    3    3  501    0  0.11681343623E+02  0.98259738943E+01 -0.24847348902E+03  0.24894191752E+03  0.00000000000E+00 0.  1.
         -1    1    1    2    0  502 -0.25862200716E+02 -0.26729846048E+02 -0.41101656488E+03  0.41269595916E+03  0.00000000000E+00 0. -1.
<mgrwt>
<rscale>  1 0.30000000E+03</rscale>
<asrwt>0</asrwt>
<pdfrwt beam="1">  1       21 0.52090109E-02 0.30000000E+03</pdfrwt>
<pdfrwt beam="2">0</pdfrwt>
<totfact> 0.26860316E+04</totfact>
</mgrwt>
</event>
<event>
 6    1  0.1198667E-001  0.3000000E+03  0.7818608E-02  0.1093470E+00
         21   -1    0    0  501  502  0.00000000000E+00  0.00000000000E+00  0.62194955071E+01  0.62194955071E+01  0.00000000000E+00 0. -1.
         13   -1    0    0    0    0 -0.00000000000E+00 -0.00000000000E+00 -0.10000000000E+04  0.10000000000E+04  0.00000000000E+00 0.  1.
    9000005    2    1    2  501    0  0.29330638008E+02 -0.21619468761E+02 -0.94305888106E+03  0.94376654651E+03  0.27483447344E+01 0.  0.
         13    1    3    3    0    0  0.94598179761E+01 -0.57558694584E+01 -0.26591897787E+03  0.26614943355E+03  0.00000000000E+00 0.  1.
          3    1    3    3  501    0  0.19870820032E+02 -0.15863599302E+02 -0.67713990319E+03  0.67761711295E+03  0.00000000000E+00 0.  1.
         -3    1    1    2    0  502 -0.29330638008E+02  0.21619468761E+02 -0.50721623430E+02  0.62452949000E+02  0.00000000000E+00 0. -1.
<mgrwt>
<rscale>  1 0.30000000E+03</rscale>
<asrwt>0</asrwt>
<pdfrwt beam="1">  1       21 0.22616395E-01 0.30000000E+03</pdfrwt>
<pdfrwt beam="2">0</pdfrwt>
<totfact> 0.18948925E+03</totfact>
</mgrwt>
</event>
<event>
 6    1  0.1198667E-001  0.3000000E+03  0.7818608E-02  0.1093470E+00
         21   -1    0    0  501  502  0.00000000000E+00  0.00000000000E+00  0.54993342543E+01  0.54993342543E+01  0.00000000000E+00 0. -1.
         13   -1    0    0    0    0 -0.00000000000E+00 -0.00000000000E+00 -0.10000000000E+04  0.10000000000E+04  0.00000000000E+00 0.  1.
    9000005    2    1    2  501    0  0.61752401163E+02  0.37764577125E+02 -0.38889479710E+03  0.39558295435E+03  0.26810870553E+01 0.  0.
         13    1    3    3    0    0  0.10332246385E+02  0.52585434405E+01 -0.64377483038E+02  0.65413056164E+02  0.00000000000E+00 0.  1.
          3    1    3    3  501    0  0.51420154777E+02  0.32506033685E+02 -0.32451731406E+03  0.33016989819E+03  0.00000000000E+00 0.  1.
         -1    1    1    2    0  502 -0.61752401163E+02 -0.37764577125E+02 -0.60560586864E+03  0.60991637990E+03  0.00000000000E+00 0. -1.
<mgrwt>
<rscale>  1 0.30000000E+03</rscale>
<asrwt>0</asrwt>
<pdfrwt beam="1">  1       21 0.19997621E-01 0.30000000E+03</pdfrwt>
<pdfrwt beam="2">0</pdfrwt>
<totfact> 0.23997670E+03</totfact>
</mgrwt>
</event>
<event>
 6    1  0.1198667E-001  0.3000000E+03  0.7818608E-02  0.1093470E+00
         21   -1    0    0  501  502  0.00000000000E+00  0.00000000000E+00  0.12523981685E+01  0.12523981685E+01  0.00000000000E+00 0. -1.
         13   -1    0    0    0    0 -0.00000000000E+00 -0.00000000000E+00 -0.10000000000E+04  0.10000000000E+04  0.00000000000E+00 0.  1.
    9000005    2    1    2  501    0  0.92792279082E+01 -0.29997213163E+02 -0.72854873626E+03  0.72923518580E+03  0.38416449326E+01 0.  0.
         13    1    3    3    0    0  0.29004526614E+01 -0.49742782588E+01 -0.11737326128E+03  0.11751441841E+03  0.00000000000E+00 0.  1.
          3    1    3    3  501    0  0.63787752469E+01 -0.25022934904E+02 -0.61117547498E+03  0.61172076739E+03  0.00000000000E+00 0.  1.
         -3    1    1    2    0  502 -0.92792279082E+01  0.29997213163E+02 -0.27019886557E+03  0.27201721236E+03  0.00000000000E+00 0. -1.
<mgrwt>
<rscale>  1 0.30000000E+03</rscale>
<asrwt>0</asrwt>
<pdfrwt beam="1">  1       21 0.45541848E-02 0.30000000E+03</pdfrwt>
<pdfrwt beam="2">0</pdfrwt>
<totfact> 0.33765056E+04</totfact>
</mgrwt>
</event>
<event>
 6    1  0.1198667E-001  0.3000000E+03  0.7818608E-02  0.1093470E+00
         21   -1    0    0  501  502  0.00000000000E+00  0.00000000000E+00  0.12434160864E+01  0.12434160864E+01  0.00000000000E+00 0. -1.
         13   -1    0    0    0    0 -0.00000000000E+00 -0.00000000000E+00 -0.10000000000E+04  0.10000000000E+04  0.00000000000E+00 0.  1.
    9000005    2    1    2  501    0  0.10482379484E+02 -0.29456451239E+02 -0.72921601828E+03  0.72989552256E+03  0.37295760287E+01 0.  0.
         13    1    3    3    0    0  0.10052604862E+02 -0.29013522740E+02 -0.72218359032E+03  0.72283606544E+03  0.00000000000E+00 0.  1.
          3    1    3    3  501    0  0.42977462205E+00 -0.44292849912E+00 -0.70324279606E+01  0.70594571252E+01  0.00000000000E+00 0.  1.
         -3    1    1    2    0  502 -0.10482379484E+02  0.29456451239E+02 -0.26954056563E+03  0.27134789352E+03  0.00000000000E+00 0. -1.
<mgrwt>
<rscale>  1 0.30000000E+03</rscale>
<asrwt>0</asrwt>
<pdfrwt beam="1">  1       21 0.45215226E-02 0.30000000E+03</pdfrwt>
<pdfrwt beam="2">0</pdfrwt>
<totfact> 0.34180268E+04</totfact>
</mgrwt>
</event>
<event>
 6    1  0.1198667E-001  0.3000000E+03  0.7818608E-02  0.1093470E+00
         21   -1    0    0  501  502  0.00000000000E+00  0.00000000000E+00  0.74233993118E+01  0.74233993118E+01  0.00000000000E+00 0. -1.
         13   -1    0    0    0    0 -0.00000000000E+00 -0.00000000000E+00 -0.10000000000E+04  0.10000000000E+04  0.00000000000E+00 0.  1.
    9000005    2    1    2  501    0  0.51492782717E+02  0.30092739274E+02 -0.85971227254E+03  0.86178683343E+03  0.37782377663E+01 0.  0.
         13    1    3    3    0    0  0.21860819147E+01  0.11549620275E+01 -0.26318738193E+02  0.26434615025E+02  0.00000000000E+00 0.  1.
          1    1    3    3  501    0  0.49306700802E+02  0.28937777246E+02 -0.83339353435E+03  0.83535221840E+03  0.00000000000E+00 0.  1.
         -3    1    1    2    0  502 -0.51492782717E+02 -0.30092739274E+02 -0.13286432815E+03  0.14563656589E+03  0.00000000000E+00 0. -1.
<mgrwt>
<rscale>  1 0.30000000E+03</rscale>
<asrwt>0</asrwt>
<pdfrwt beam="1">  1       21 0.26994236E-01 0.30000000E+03</pdfrwt>
<pdfrwt beam="2">0</pdfrwt>
<totfact> 0.13410428E+03</totfact>
</mgrwt>
</event>
<event>
 6    1  0.1198667E-001  0.3000000E+03  0.7818608E-02  0.1093470E+00
         21   -1    0    0  501  502  0.00000000000E+00  0.00000000000E+00  0.92399898286E+00  0.92399898286E+00  0.00000000000E+00 0. -1.
         13   -1    0    0    0    0 -0.00000000000E+00 -0.00000000000E+00 -0.10000000000E+04  0.10000000000E+04  0.00000000000E+00 0.  1.
    9000005    2    1    2  501    0  0.29655441227E+02 -0.57511725549E+01 -0.51740855201E+03  0.51831022731E+03  0.46217805708E+01 0.  0.
         13    1    3    3    0    0  0.11985233934E+02 -0.43027781276E+01 -0.19631841195E+03  0.19673098029E+03  0.00000000000E+00 0.  1.
          3    1    3    3  501    0  0.17670207294E+02 -0.14483944273E+01 -0.32109014006E+03  0.32157924702E+03  0.00000000000E+00 0.  1.
         -1    1    1    2    0  502 -0.29655441227E+02  0.57511725549E+01 -0.48166744901E+03  0.48261377168E+03  0.00000000000E+00 0. -1.
<mgrwt>
<rscale>  1 0.30000000E+03</rscale>
<asrwt>0</asrwt>
<pdfrwt beam="1">  1       21 0.33600034E-02 0.30000000E+03</pdfrwt>
<pdfrwt beam="2">0</pdfrwt>
<totfact> 0.56333658E+04</totfact>
</mgrwt>
</event>
<event>
 6    1  0.1198667E-001  0.3000000E+03  0.7818608E-02  0.1093470E+00
         21   -1    0    0  501  502  0.00000000000E+00  0.00000000000E+00  0.10177205783E+01  0.10177205783E+01  0.00000000000E+00 0. -1.
         13   -1    0    0    0    0 -0.00000000000E+00 -0.00000000000E+00 -0.10000000000E+04  0.10000000000E+04  0.00000000000E+00 0.  1.
    9000005    2    1    2  501    0  0.11987899965E+02 -0.28168754120E+02 -0.63612102198E+03  0.63686736618E+03  0.35915246816E+01 0.  0.
         13    1    3    3    0    0  0.71935097098E+01 -0.15273301906E+02 -0.31563536258E+03  0.31608654265E+03  0.00000000000E+00 0.  1.
          3    1    3    3  501    0  0.47943902553E+01 -0.12895452214E+02 -0.32048565940E+03  0.32078082353E+03  0.00000000000E+00 0.  1.
         -3    1    1    2    0  502 -0.11987899965E+02  0.28168754120E+02 -0.36286125744E+03  0.36415035440E+03  0.00000000000E+00 0. -1.
<mgrwt>
<rscale>  1 0.30000000E+03</rscale>
<asrwt>0</asrwt>
<pdfrwt beam="1">  1       21 0.37008099E-02 0.30000000E+03</pdfrwt>
<pdfrwt beam="2">0</pdfrwt>
<totfact> 0.47917832E+04</totfact>
</mgrwt>
</event>
<event>
 6    1  0.1198667E-001  0.3000000E+03  0.7818608E-02  0.1093470E+00
         21   -1    0    0  501  502  0.00000000000E+00  0.00000000000E+00  0.18250089064E+01  0.18250089064E+01  0.00000000000E+00 0. -1.
         13   -1    0    0    0    0 -0.00000000000E+00 -0.00000000000E+00 -0.10000000000E+04  0.10000000000E+04  0.00000000000E+00 0.  1.
    9000005    2    1    2  501    0 -0.30597431574E+02 -0.55969620197E+01 -0.84209577369E+03  0.84267649051E+03  0.32934460998E+01 0.  0.
         13    1    3    3    0    0 -0.19448708877E+02 -0.50894595437E+01 -0.55393053226E+03  0.55429521867E+03  0.00000000000E+00 0.  1.
          3    1    3    3  501    0 -0.11148722697E+02 -0.50750247602E+00 -0.28816524143E+03  0.28838127183E+03  0.00000000000E+00 0.  1.
         -3    1    1    2    0  502  0.30597431574E+02  0.55969620197E+01 -0.15607921741E+03  0.15914851840E+03  0.00000000000E+00 0. -1.
<mgrwt>
<rscale>  1 0.30000000E+03</rscale>
<asrwt>0</asrwt>
<pdfrwt beam="1">  1       21 0.66364100E-02 0.30000000E+03</pdfrwt>
<pdfrwt beam="2">0</pdfrwt>
<totfact> 0.17701512E+04</totfact>
</mgrwt>
</event>
<event>
 6    1  0.1198667E-001  0.3000000E+03  0.7818608E-02  0.1093470E+00
         21   -1    0    0  501  502  0.00000000000E+00  0.00000000000E+00  0.15105672770E+01  0.15105672770E+01  0.00000000000E+00 0. -1.
         13   -1    0    0    0    0 -0.00000000000E+00 -0.00000000000E+00 -0.10000000000E+04  0.10000000000E+04  0.00000000000E+00 0.  1.
    9000005    2    1    2  501    0  0.65620253280E+01 -0.34874269438E+02 -0.70192942677E+03  0.70283497073E+03  0.35778571937E+01 0.  0.
         13    1    3    3    0    0  0.61952068084E+00 -0.10959443357E+02 -0.23335912501E+03  0.23361715354E+03  0.00000000000E+00 0.  1.
          3    1    3    3  501    0  0.59425046472E+01 -0.23914826081E+02 -0.46857030176E+03  0.46921781718E+03  0.00000000000E+00 0.  1.
         -1    1    1    2    0  502 -0.65620253280E+01  0.34874269438E+02 -0.29656000595E+03  0.29867559655E+03  0.00000000000E+00 0. -1.
<mgrwt>
<rscale>  1 0.30000000E+03</rscale>
<asrwt>0</asrwt>
<pdfrwt beam="1">  1       21 0.54929835E-02 0.30000000E+03</pdfrwt>
<pdfrwt beam="2">0</pdfrwt>
<totfact> 0.24527776E+04</totfact>
</mgrwt>
</event>
<event>
 6    1  0.1198667E-001  0.3000000E+03  0.7818608E-02  0.1093470E+00
         21   -1    0    0  501  502  0.00000000000E+00  0.00000000000E+00  0.13649148933E+01  0.13649148933E+01  0.00000000000E+00 0. -1.
         13   -1    0    0    0    0 -0.00000000000E+00 -0.00000000000E+00 -0.10000000000E+04  0.10000000000E+04  0.00000000000E+00 0.  1.
    9000005    2    1    2  501    0 -0.32904360941E+02  0.30190631358E+00 -0.72602987817E+03  0.72678088956E+03  0.28791188821E+01 0.  0.
         13    1    3    3    0    0 -0.99961046992E+01  0.28333483546E+00 -0.19283465812E+03  0.19309377970E+03  0.00000000000E+00 0.  1.
          3    1    3    3  501    0 -0.22908256241E+02  0.18571478113E-01 -0.53319522005E+03  0.53368710987E+03  0.00000000000E+00 0.  1.
         -3    1    1    2    0  502  0.32904360941E+02 -0.30190631358E+00 -0.27260520694E+03  0.27458402533E+03  0.00000000000E+00 0. -1.
<mgrwt>
<rscale>  1 0.30000000E+03</rscale>
<asrwt>0</asrwt>
<pdfrwt beam="1">  1       21 0.49633374E-02 0.30000000E+03</pdfrwt>
<pdfrwt beam="2">0</pdfrwt>
<totfact> 0.29168249E+04</totfact>
</mgrwt>
</event>
<event>
 6    1  0.1198667E-001  0.3000000E+03  0.7818608E-02  0.1093470E+00
         21   -1    0    0  501  502  0.00000000000E+00  0.00000000000E+00  0.25991064802E+01  0.25991064802E+01  0.00000000000E+00 0. -1.
         13   -1    0    0    0    0 -0.00000000000E+00 -0.00000000000E+00 -0.10000000000E+04  0.10000000000E+04  0.00000000000E+00 0.  1.
    9000005    2    1    2  501    0  0.39763625353E+02  0.19449284567E+02 -0.74696452863E+03  0.74828081490E+03  0.29580989788E+01 0.  0.
         13    1    3    3    0    0  0.20345829754E+01  0.40648434171E+00 -0.29847188030E+02  0.29919214406E+02  0.00000000000E+00 0.  1.
          1    1    3    3  501    0  0.37729042378E+02  0.19042800225E+02 -0.71711734060E+03  0.71836160049E+03  0.00000000000E+00 0.  1.
         -3    1    1    2    0  502 -0.39763625353E+02 -0.19449284567E+02 -0.25043636489E+03  0.25431829158E+03  0.00000000000E+00 0. -1.
<mgrwt>
<rscale>  1 0.30000000E+03</rscale>
<asrwt>0</asrwt>
<pdfrwt beam="1">  1       21 0.94513162E-02 0.30000000E+03</pdfrwt>
<pdfrwt beam="2">0</pdfrwt>
<totfact> 0.95143801E+03</totfact>
</mgrwt>
</event>
<event>
 6    1  0.1198667E-001  0.3000000E+03  0.7818608E-02  0.1093470E+00
         21   -1    0    0  501  502  0.00000000000E+00  0.00000000000E+00  0.12842870911E+01  0.12842870911E+01  0.00000000000E+00 0. -1.
         13   -1    0    0    0    0 -0.00000000000E+00 -0.00000000000E+00 -0.10000000000E+04  0.10000000000E+04  0.00000000000E+00 0.  1.
    9000005    2    1    2  501    0  0.32369076715E+02 -0.27452767104E+01 -0.70869018422E+03  0.70944511741E+03  0.39119980682E+01 0.  0.
         13    1    3    3    0    0  0.16640257610E+02 -0.54583968914E+00 -0.32455390549E+03  0.32498066663E+03  0.00000000000E+00 0.  1.
          1    1    3    3  501    0  0.15728819105E+02 -0.21994370213E+01 -0.38413627873E+03  0.38446445078E+03  0.00000000000E+00 0.  1.
         -3    1    1    2    0  502 -0.32369076715E+02  0.27452767104E+01 -0.29002552869E+03  0.29183916969E+03  0.00000000000E+00 0. -1.
<mgrwt>
<rscale>  1 0.30000000E+03</rscale>
<asrwt>0</asrwt>
<pdfrwt beam="1">  1       21 0.46701447E-02 0.30000000E+03</pdfrwt>
<pdfrwt beam="2">0</pdfrwt>
<totfact> 0.32352932E+04</totfact>
</mgrwt>
</event>
<event>
 6    1  0.1198667E-001  0.3000000E+03  0.7818608E-02  0.1093470E+00
         21   -1    0    0  501  502  0.00000000000E+00  0.00000000000E+00  0.47046911376E+01  0.47046911376E+01  0.00000000000E+00 0. -1.
         13   -1    0    0    0    0 -0.00000000000E+00 -0.00000000000E+00 -0.10000000000E+04  0.10000000000E+04  0.00000000000E+00 0.  1.
    9000005    2    1    2  501    0 -0.37946145877E+02  0.60152285136E+01 -0.91329251066E+03  0.91414779260E+03  0.93211433493E+01 0.  0.
         13    1    3    3    0    0 -0.42775012589E+01 -0.20267618446E+01 -0.84159929510E+02  0.84292932775E+02  0.00000000000E+00 0.  1.
          3    1    3    3  501    0 -0.33668644618E+02  0.80419903582E+01 -0.82913258115E+03  0.82985485982E+03  0.00000000000E+00 0.  1.
         -1    1    1    2    0  502  0.37946145877E+02 -0.60152285136E+01 -0.82002798200E+02  0.90556898542E+02  0.00000000000E+00 0. -1.
<mgrwt>
<rscale>  1 0.30000000E+03</rscale>
<asrwt>0</asrwt>
<pdfrwt beam="1">  1       21 0.17108004E-01 0.30000000E+03</pdfrwt>
<pdfrwt beam="2">0</pdfrwt>
<totfact> 0.32230520E+03</totfact>
</mgrwt>
</event>
<event>
 6    1  0.1198667E-001  0.3000000E+03  0.7818608E-02  0.1093470E+00
         21   -1    0    0  501  502  0.00000000000E+00  0.00000000000E+00  0.14359806488E+01  0.14359806488E+01  0.00000000000E+00 0. -1.
         13   -1    0    0    0    0 -0.00000000000E+00 -0.00000000000E+00 -0.10000000000E+04  0.10000000000E+04  0.00000000000E+00 0.  1.
    9000005    2    1    2  501    0 -0.24452534562E+02  0.24778697687E+02 -0.69381752449E+03  0.69470753979E+03  0.48885822780E+01 0.  0.
         13    1    3    3    0    0 -0.21449341415E+01  0.62565923019E+00 -0.36619697277E+02  0.36687796617E+02  0.00000000000E+00 0.  1.
          1    1    3    3  501    0 -0.22307600420E+02  0.24153038457E+02 -0.65719782722E+03  0.65801974317E+03  0.00000000000E+00 0.  1.
         -3    1    1    2    0  502  0.24452534562E+02 -0.24778697687E+02 -0.30474649486E+03  0.30672844086E+03  0.00000000000E+00 0. -1.
<mgrwt>
<rscale>  1 0.30000000E+03</rscale>
<asrwt>0</asrwt>
<pdfrwt beam="1">  1       21 0.52217588E-02 0.30000000E+03</pdfrwt>
<pdfrwt beam="2">0</pdfrwt>
<totfact> 0.26748370E+04</totfact>
</mgrwt>
</event>
<event>
 6    1  0.1198667E-001  0.3000000E+03  0.7818608E-02  0.1093470E+00
         21   -1    0    0  501  502  0.00000000000E+00  0.00000000000E+00  0.11093692798E+01  0.11093692798E+01  0.00000000000E+00 0. -1.
         13   -1    0    0    0    0 -0.00000000000E+00 -0.00000000000E+00 -0.10000000000E+04  0.10000000000E+04  0.00000000000E+00 0.  1.
    9000005    2    1    2  501    0  0.68646757489E+01 -0.30328937538E+02 -0.33162828310E+03  0.33312283590E+03  0.51514484180E+01 0.  0.
         13    1    3    3    0    0  0.49433261270E+01 -0.24422384313E+02 -0.24194870572E+03  0.24322842254E+03  0.00000000000E+00 0.  1.
          1    1    3    3  501    0  0.19213496218E+01 -0.59065532255E+01 -0.89679577374E+02  0.89894413360E+02  0.00000000000E+00 0.  1.
         -3    1    1    2    0  502 -0.68646757489E+01  0.30328937538E+02 -0.66726234762E+03  0.66798653338E+03  0.00000000000E+00 0. -1.
<mgrwt>
<rscale>  1 0.30000000E+03</rscale>
<asrwt>0</asrwt>
<pdfrwt beam="1">  1       21 0.40340786E-02 0.30000000E+03</pdfrwt>
<pdfrwt beam="2">0</pdfrwt>
<totfact> 0.41450753E+04</totfact>
</mgrwt>
</event>
<event>
 6    1  0.1198667E-001  0.3000000E+03  0.7818608E-02  0.1093470E+00
         21   -1    0    0  501  502  0.00000000000E+00  0.00000000000E+00  0.28399801175E+01  0.28399801175E+01  0.00000000000E+00 0. -1.
         13   -1    0    0    0    0 -0.00000000000E+00 -0.00000000000E+00 -0.10000000000E+04  0.10000000000E+04  0.00000000000E+00 0.  1.
    9000005    2    1    2  501    0 -0.31172332470E+02 -0.19590734887E+02 -0.86090978644E+03  0.86170303485E+03  0.33088796076E+01 0.  0.
         13    1    3    3    0    0 -0.79907473493E+01 -0.37738477846E+01 -0.22878967827E+03  0.22896028227E+03  0.00000000000E+00 0.  1.
          1    1    3    3  501    0 -0.23181585121E+02 -0.15816887102E+02 -0.63212010817E+03  0.63274275259E+03  0.00000000000E+00 0.  1.
         -3    1    1    2    0  502  0.31172332470E+02  0.19590734887E+02 -0.13625023344E+03  0.14113694526E+03  0.00000000000E+00 0. -1.
<mgrwt>
<rscale>  1 0.30000000E+03</rscale>
<asrwt>0</asrwt>
<pdfrwt beam="1">  1       21 0.10327222E-01 0.30000000E+03</pdfrwt>
<pdfrwt beam="2">0</pdfrwt>
<totfact> 0.81217318E+03</totfact>
</mgrwt>
</event>
<event>
 6    1  0.1198667E-001  0.3000000E+03  0.7818608E-02  0.1093470E+00
         21   -1    0    0  501  502  0.00000000000E+00  0.00000000000E+00  0.39629174585E+01  0.39629174585E+01  0.00000000000E+00 0. -1.
         13   -1    0    0    0    0 -0.00000000000E+00 -0.00000000000E+00 -0.10000000000E+04  0.10000000000E+04  0.00000000000E+00 0.  1.
    9000005    2    1    2  501    0  0.39038913615E+02 -0.48847486086E+02 -0.54992049937E+03  0.55348526046E+03  0.48233025267E+01 0.  0.
         13    1    3    3    0    0  0.31905373395E+02 -0.41971750809E+02 -0.47306256296E+03  0.47599135411E+03  0.00000000000E+00 0.  1.
          1    1    3    3  501    0  0.71335402194E+01 -0.68757352768E+01 -0.76857936410E+02  0.77493906347E+02  0.00000000000E+00 0.  1.
         -1    1    1    2    0  502 -0.39038913615E+02  0.48847486086E+02 -0.44611658317E+03  0.45047765700E+03  0.00000000000E+00 0. -1.
<mgrwt>
<rscale>  1 0.30000000E+03</rscale>
<asrwt>0</asrwt>
<pdfrwt beam="1">  1       21 0.14410639E-01 0.30000000E+03</pdfrwt>
<pdfrwt beam="2">0</pdfrwt>
<totfact> 0.44344184E+03</totfact>
</mgrwt>
</event>
<event>
 6    1  0.1198667E-001  0.3000000E+03  0.7818608E-02  0.1093470E+00
         21   -1    0    0  501  502  0.00000000000E+00  0.00000000000E+00  0.40335548488E+01  0.40335548488E+01  0.00000000000E+00 0. -1.
         13   -1    0    0    0    0 -0.00000000000E+00 -0.00000000000E+00 -0.10000000000E+04  0.10000000000E+04  0.00000000000E+00 0.  1.
    9000005    2    1    2  501    0 -0.38122727901E+01  0.51495895006E+02 -0.79003643277E+03  0.79172827788E+03  0.31209416435E+01 0.  0.
         13    1    3    3    0    0 -0.28596477125E+01  0.26297366917E+02 -0.38505494793E+03  0.38596248784E+03  0.00000000000E+00 0.  1.
          1    1    3    3  501    0 -0.95262507758E+00  0.25198528089E+02 -0.40498148484E+03  0.40576579005E+03  0.00000000000E+00 0.  1.
         -1    1    1    2    0  502  0.38122727901E+01 -0.51495895006E+02 -0.20593001238E+03  0.21230527696E+03  0.00000000000E+00 0. -1.
<mgrwt>
<rscale>  1 0.30000000E+03</rscale>
<asrwt>0</asrwt>
<pdfrwt beam="1">  1       21 0.14667503E-01 0.30000000E+03</pdfrwt>
<pdfrwt beam="2">0</pdfrwt>
<totfact> 0.42922511E+03</totfact>
</mgrwt>
</event>
<event>
 6    1  0.1198667E-001  0.3000000E+03  0.7818608E-02  0.1093470E+00
         21   -1    0    0  501  502  0.00000000000E+00  0.00000000000E+00  0.14525700413E+01  0.14525700413E+01  0.00000000000E+00 0. -1.
         13   -1    0    0    0    0 -0.00000000000E+00 -0.00000000000E+00 -0.10000000000E+04  0.10000000000E+04  0.00000000000E+00 0.  1.
    9000005    2    1    2  501    0 -0.31300410764E+02  0.48025157868E+01 -0.77713727668E+03  0.77778935034E+03  0.33386862953E+01 0.  0.
         13    1    3    3    0    0 -0.89095471555E+01  0.22452012009E+01 -0.25661115174E+03  0.25677559105E+03  0.00000000000E+00 0.  1.
          1    1    3    3  501    0 -0.22390863608E+02  0.25573145859E+01 -0.52052612494E+03  0.52101375930E+03  0.00000000000E+00 0.  1.
         -3    1    1    2    0  502  0.31300410764E+02 -0.48025157868E+01 -0.22141015328E+03  0.22366321970E+03  0.00000000000E+00 0. -1.
<mgrwt>
<rscale>  1 0.30000000E+03</rscale>
<asrwt>0</asrwt>
<pdfrwt beam="1">  1       21 0.52820840E-02 0.30000000E+03</pdfrwt>
<pdfrwt beam="2">0</pdfrwt>
<totfact> 0.26228306E+04</totfact>
</mgrwt>
</event>
<event>
 6    1  0.1198667E-001  0.3000000E+03  0.7818608E-02  0.1093470E+00
         21   -1    0    0  501  502  0.00000000000E+00  0.00000000000E+00  0.14785586937E+01  0.14785586937E+01  0.00000000000E+00 0. -1.
         13   -1    0    0    0    0 -0.00000000000E+00 -0.00000000000E+00 -0.10000000000E+04  0.10000000000E+04  0.00000000000E+00 0.  1.
    9000005    2    1    2  501    0 -0.16625873381E+01  0.38006147341E+02 -0.43610403747E+03  0.43777600631E+03  0.37240791786E+01 0.  0.
         13    1    3    3    0    0 -0.12973192619E+01  0.34866194487E+02 -0.38663723430E+03  0.38820830169E+03  0.00000000000E+00 0.  1.
          3    1    3    3  501    0 -0.36526807615E+00  0.31399528547E+01 -0.49466803172E+02  0.49567704615E+02  0.00000000000E+00 0.  1.
         -3    1    1    2    0  502  0.16625873381E+01 -0.38006147341E+02 -0.56241740383E+03  0.56370255239E+03  0.00000000000E+00 0. -1.
<mgrwt>
<rscale>  1 0.30000000E+03</rscale>
<asrwt>0</asrwt>
<pdfrwt beam="1">  1       21 0.53765884E-02 0.30000000E+03</pdfrwt>
<pdfrwt beam="2">0</pdfrwt>
<totfact> 0.25444477E+04</totfact>
</mgrwt>
</event>
<event>
 6    1  0.1198667E-001  0.3000000E+03  0.7818608E-02  0.1093470E+00
         21   -1    0    0  501  502  0.00000000000E+00  0.00000000000E+00  0.43554727992E+01  0.43554727992E+01  0.00000000000E+00 0. -1.
         13   -1    0    0    0    0 -0.00000000000E+00 -0.00000000000E+00 -0.10000000000E+04  0.10000000000E+04  0.00000000000E+00 0.  1.
    9000005    2    1    2  501    0 -0.39051463201E+02  0.50064669862E+02 -0.63398032126E+03  0.63716004008E+03  0.32219545630E+01 0.  0.
         13    1    3    3    0    0 -0.22336928002E+02  0.29695449060E+02 -0.38533733838E+03  0.38712481501E+03  0.00000000000E+00 0.  1.
          1    1    3    3  501    0 -0.16714535199E+02  0.20369220802E+02 -0.24864298288E+03  0.25003522507E+03  0.00000000000E+00 0.  1.
         -3    1    1    2    0  502  0.39051463201E+02 -0.50064669862E+02 -0.36166420595E+03  0.36719543272E+03  0.00000000000E+00 0. -1.
<mgrwt>
<rscale>  1 0.30000000E+03</rscale>
<asrwt>0</asrwt>
<pdfrwt beam="1">  1       21 0.15838116E-01 0.30000000E+03</pdfrwt>
<pdfrwt beam="2">0</pdfrwt>
<totfact> 0.37225341E+03</totfact>
</mgrwt>
</event>
<event>
 6    1  0.1198667E-001  0.3000000E+03  0.7818608E-02  0.1093470E+00
         21   -1    0    0  501  502  0.00000000000E+00  0.00000000000E+00  0.47464287160E+01  0.47464287160E+01  0.00000000000E+00 0. -1.
         13   -1    0    0    0    0 -0.00000000000E+00 -0.00000000000E+00 -0.10000000000E+04  0.10000000000E+04  0.00000000000E+00 0.  1.
    9000005    2    1    2  501    0  0.58151015983E+02  0.16643927524E+02 -0.73793567960E+03  0.74041508672E+03  0.26215310970E+01 0.  0.
         13    1    3    3    0    0  0.42457126097E+02  0.10992781576E+02 -0.53018166761E+03  0.53199252764E+03  0.00000000000E+00 0.  1.
          3    1    3    3  501    0  0.15693889886E+02  0.56511459479E+01 -0.20775401200E+03  0.20842255908E+03  0.00000000000E+00 0.  1.
         -3    1    1    2    0  502 -0.58151015983E+02 -0.16643927524E+02 -0.25731789168E+03  0.26433134200E+03  0.00000000000E+00 0. -1.
<mgrwt>
<rscale>  1 0.30000000E+03</rscale>
<asrwt>0</asrwt>
<pdfrwt beam="1">  1       21 0.17259777E-01 0.30000000E+03</pdfrwt>
<pdfrwt beam="2">0</pdfrwt>
<totfact> 0.31701222E+03</totfact>
</mgrwt>
</event>
<event>
 6    1  0.1198667E-001  0.3000000E+03  0.7818608E-02  0.1093470E+00
         21   -1    0    0  501  502  0.00000000000E+00  0.00000000000E+00  0.95892742424E+00  0.95892742424E+00  0.00000000000E+00 0. -1.
         13   -1    0    0    0    0 -0.00000000000E+00 -0.00000000000E+00 -0.10000000000E+04  0.10000000000E+04  0.00000000000E+00 0.  1.
    9000005    2    1    2  501    0  0.28628175494E+02  0.90103656560E+01 -0.38567819274E+03  0.38686220745E+03  0.37336412960E+01 0.  0.
         13    1    3    3    0    0  0.11202160719E+02  0.54509134251E+01 -0.15817192695E+03  0.15866177654E+03  0.00000000000E+00 0.  1.
          1    1    3    3  501    0  0.17426014776E+02  0.35594522308E+01 -0.22750626580E+03  0.22820043091E+03  0.00000000000E+00 0.  1.
         -1    1    1    2    0  502 -0.28628175494E+02 -0.90103656560E+01 -0.61336287983E+03  0.61409671997E+03  0.00000000000E+00 0. -1.
<mgrwt>
<rscale>  1 0.30000000E+03</rscale>
<asrwt>0</asrwt>
<pdfrwt beam="1">  1       21 0.34870162E-02 0.30000000E+03</pdfrwt>
<pdfrwt beam="2">0</pdfrwt>
<totfact> 0.52945232E+04</totfact>
</mgrwt>
</event>
<event>
 6    1  0.1198667E-001  0.3000000E+03  0.7818608E-02  0.1093470E+00
         21   -1    0    0  501  502  0.00000000000E+00  0.00000000000E+00  0.33239213377E+01  0.33239213377E+01  0.00000000000E+00 0. -1.
         13   -1    0    0    0    0 -0.00000000000E+00 -0.00000000000E+00 -0.10000000000E+04  0.10000000000E+04  0.00000000000E+00 0.  1.
    9000005    2    1    2  501    0 -0.56873885413E+02  0.88351692153E+01 -0.49910747343E+03  0.50243749113E+03  0.47395567916E+01 0.  0.
         13    1    3    3    0    0 -0.19495615448E+02  0.31395807043E+01 -0.19132227947E+03  0.19233863525E+03  0.00000000000E+00 0.  1.
          3    1    3    3  501    0 -0.37378269965E+02  0.56955885110E+01 -0.30778519397E+03  0.31009885588E+03  0.00000000000E+00 0.  1.
         -1    1    1    2    0  502  0.56873885413E+02 -0.88351692153E+01 -0.49756860523E+03  0.50088643021E+03  0.00000000000E+00 0. -1.
<mgrwt>
<rscale>  1 0.30000000E+03</rscale>
<asrwt>0</asrwt>
<pdfrwt beam="1">  1       21 0.12087012E-01 0.30000000E+03</pdfrwt>
<pdfrwt beam="2">0</pdfrwt>
<totfact> 0.61163563E+03</totfact>
</mgrwt>
</event>
<event>
 6    1  0.1198667E-001  0.3000000E+03  0.7818608E-02  0.1093470E+00
         21   -1    0    0  501  502  0.00000000000E+00  0.00000000000E+00  0.21124004433E+01  0.21124004433E+01  0.00000000000E+00 0. -1.
         13   -1    0    0    0    0 -0.00000000000E+00 -0.00000000000E+00 -0.10000000000E+04  0.10000000000E+04  0.00000000000E+00 0.  1.
    9000005    2    1    2  501    0  0.98168700953E-01 -0.41012261438E+02 -0.72426415288E+03  0.72543243045E+03  0.34106851936E+01 0.  0.
         13    1    3    3    0    0  0.10670846169E+01 -0.47175723615E+01 -0.90314215290E+02  0.90443637930E+02  0.00000000000E+00 0.  1.
          3    1    3    3  501    0 -0.96891591597E+00 -0.36294689076E+02 -0.63394993759E+03  0.63498879252E+03  0.00000000000E+00 0.  1.
         -1    1    1    2    0  502 -0.98168700953E-01  0.41012261438E+02 -0.27362344667E+03  0.27667996999E+03  0.00000000000E+00 0. -1.
<mgrwt>
<rscale>  1 0.30000000E+03</rscale>
<asrwt>0</asrwt>
<pdfrwt beam="1">  1       21 0.76814724E-02 0.30000000E+03</pdfrwt>
<pdfrwt beam="2">0</pdfrwt>
<totfact> 0.13717733E+04</totfact>
</mgrwt>
</event>
<event>
 6    1  0.1198667E-001  0.3000000E+03  0.7818608E-02  0.1093470E+00
         21   -1    0    0  501  502  0.00000000000E+00  0.00000000000E+00  0.11448203205E+01  0.11448203205E+01  0.00000000000E+00 0. -1.
         13   -1    0    0    0    0 -0.00000000000E+00 -0.00000000000E+00 -0.10000000000E+04  0.10000000000E+04  0.00000000000E+00 0.  1.
    9000005    2    1    2  501    0 -0.13652043782E+02 -0.27944415277E+02 -0.69429131631E+03  0.69499711820E+03  0.36460602025E+01 0.  0.
         13    1    3    3    0    0 -0.24186742548E+01 -0.46545692856E+01 -0.89861004665E+02  0.90013972026E+02  0.00000000000E+00 0.  1.
          1    1    3    3  501    0 -0.11233369527E+02 -0.23289845991E+02 -0.60443031164E+03  0.60498314617E+03  0.00000000000E+00 0.  1.
         -1    1    1    2    0  502  0.13652043782E+02  0.27944415277E+02 -0.30456386337E+03  0.30614770213E+03  0.00000000000E+00 0. -1.
<mgrwt>
<rscale>  1 0.30000000E+03</rscale>
<asrwt>0</asrwt>
<pdfrwt beam="1">  1       21 0.41629918E-02 0.30000000E+03</pdfrwt>
<pdfrwt beam="2">0</pdfrwt>
<totfact> 0.39309426E+04</totfact>
</mgrwt>
</event>
<event>
 6    1  0.1198667E-001  0.3000000E+03  0.7818608E-02  0.1093470E+00
         21   -1    0    0  501  502  0.00000000000E+00  0.00000000000E+00  0.17918375736E+01  0.17918375736E+01  0.00000000000E+00 0. -1.
         13   -1    0    0    0    0 -0.00000000000E+00 -0.00000000000E+00 -0.10000000000E+04  0.10000000000E+04  0.00000000000E+00 0.  1.
    9000005    2    1    2  501    0  0.14356389099E+02 -0.27020745241E+02 -0.15484139047E+03  0.15787019511E+03  0.33038945912E+01 0.  0.
         13    1    3    3    0    0  0.13857436010E+02 -0.26315309889E+02 -0.15253266834E+03  0.15540508028E+03  0.00000000000E+00 0.  1.
          3    1    3    3  501    0  0.49895308884E+00 -0.70543535248E+00 -0.23087221342E+01  0.24651148278E+01  0.00000000000E+00 0.  1.
         -1    1    1    2    0  502 -0.14356389099E+02  0.27020745241E+02 -0.84336677195E+03  0.84392164246E+03  0.00000000000E+00 0. -1.
<mgrwt>
<rscale>  1 0.30000000E+03</rscale>
<asrwt>0</asrwt>
<pdfrwt beam="1">  1       21 0.65157867E-02 0.30000000E+03</pdfrwt>
<pdfrwt beam="2">0</pdfrwt>
<totfact> 0.18273131E+04</totfact>
</mgrwt>
</event>
<event>
 6    1  0.1198667E-001  0.3000000E+03  0.7818608E-02  0.1093470E+00
         21   -1    0    0  501  502  0.00000000000E+00  0.00000000000E+00  0.34365426141E+01  0.34365426141E+01  0.00000000000E+00 0. -1.
         13   -1    0    0    0    0 -0.00000000000E+00 -0.00000000000E+00 -0.10000000000E+04  0.10000000000E+04  0.00000000000E+00 0.  1.
    9000005    2    1    2  501    0  0.30602976334E+02  0.23254202002E+01 -0.92570048310E+03  0.92621277125E+03  0.26006669039E+01 0.  0.
         13    1    3    3    0    0  0.21536133393E+02  0.14747056083E+01 -0.68514617762E+03  0.68548615194E+03  0.00000000000E+00 0.  1.
          1    1    3    3  501    0  0.90668429408E+01  0.85071459190E+00 -0.24055430549E+03  0.24072661931E+03  0.00000000000E+00 0.  1.
         -1    1    1    2    0  502 -0.30602976334E+02 -0.23254202002E+01 -0.70862974281E+02  0.77223771363E+02  0.00000000000E+00 0. -1.
<mgrwt>
<rscale>  1 0.30000000E+03</rscale>
<asrwt>0</asrwt>
<pdfrwt beam="1">  1       21 0.12496545E-01 0.30000000E+03</pdfrwt>
<pdfrwt beam="2">0</pdfrwt>
<totfact> 0.57565919E+03</totfact>
</mgrwt>
</event>
<event>
 6    1  0.1198667E-001  0.3000000E+03  0.7818608E-02  0.1093470E+00
         21   -1    0    0  501  502  0.00000000000E+00  0.00000000000E+00  0.17452071750E+01  0.17452071750E+01  0.00000000000E+00 0. -1.
         13   -1    0    0    0    0 -0.00000000000E+00 -0.00000000000E+00 -0.10000000000E+04  0.10000000000E+04  0.00000000000E+00 0.  1.
    9000005    2    1    2  501    0  0.39958803190E+02 -0.10372853027E+02 -0.57294521951E+03  0.57443672939E+03  0.26513171114E+01 0.  0.
         13    1    3    3    0    0  0.19485669303E+02 -0.44361922704E+01 -0.26087307012E+03  0.26163740143E+03  0.00000000000E+00 0.  1.
          1    1    3    3  501    0  0.20473133886E+02 -0.59366607569E+01 -0.31207214939E+03  0.31279932796E+03  0.00000000000E+00 0.  1.
         -3    1    1    2    0  502 -0.39958803190E+02  0.10372853027E+02 -0.42530957332E+03  0.42730847778E+03  0.00000000000E+00 0. -1.
<mgrwt>
<rscale>  1 0.30000000E+03</rscale>
<asrwt>0</asrwt>
<pdfrwt beam="1">  1       21 0.63462213E-02 0.30000000E+03</pdfrwt>
<pdfrwt beam="2">0</pdfrwt>
<totfact> 0.19126178E+04</totfact>
</mgrwt>
</event>
<event>
 6    1  0.1198667E-001  0.3000000E+03  0.7818608E-02  0.1093470E+00
         21   -1    0    0  501  502  0.00000000000E+00  0.00000000000E+00  0.35478144203E+01  0.35478144203E+01  0.00000000000E+00 0. -1.
         13   -1    0    0    0    0 -0.00000000000E+00 -0.00000000000E+00 -0.10000000000E+04  0.10000000000E+04  0.00000000000E+00 0.  1.
    9000005    2    1    2  501    0 -0.57355975509E+02  0.15936153787E+02 -0.49195460676E+03  0.49555029872E+03  0.26635547031E+01 0.  0.
         13    1    3    3    0    0 -0.46653674038E+02  0.12013966146E+02 -0.39350232768E+03  0.39644038968E+03  0.00000000000E+00 0.  1.
          1    1    3    3  501    0 -0.10702301471E+02  0.39221876411E+01 -0.98452279083E+02  0.99109909037E+02  0.00000000000E+00 0.  1.
         -1    1    1    2    0  502  0.57355975509E+02 -0.15936153787E+02 -0.50449757882E+03  0.50799751570E+03  0.00000000000E+00 0. -1.
<mgrwt>
<rscale>  1 0.30000000E+03</rscale>
<asrwt>0</asrwt>
<pdfrwt beam="1">  1       21 0.12901171E-01 0.30000000E+03</pdfrwt>
<pdfrwt beam="2">0</pdfrwt>
<totfact> 0.54316742E+03</totfact>
</mgrwt>
</event>
<event>
 6    1  0.1198667E-001  0.3000000E+03  0.7818608E-02  0.1093470E+00
         21   -1    0    0  501  502  0.00000000000E+00  0.00000000000E+00  0.14656168204E+01  0.14656168204E+01  0.00000000000E+00 0. -1.
         13   -1    0    0    0    0 -0.00000000000E+00 -0.00000000000E+00 -0.10000000000E+04  0.10000000000E+04  0.00000000000E+00 0.  1.
    9000005    2    1    2  501    0 -0.32641874209E+02  0.19448306959E+02 -0.44532686722E+03  0.44695476543E+03  0.29690195714E+01 0.  0.
         13    1    3    3    0    0 -0.93928006008E+01  0.46243151608E+01 -0.11083902941E+03  0.11133238269E+03  0.00000000000E+00 0.  1.
          3    1    3    3  501    0 -0.23249073609E+02  0.14823991798E+02 -0.33448783781E+03  0.33562238274E+03  0.00000000000E+00 0.  1.
         -1    1    1    2    0  502  0.32641874209E+02 -0.19448306959E+02 -0.55320751596E+03  0.55451085139E+03  0.00000000000E+00 0. -1.
<mgrwt>
<rscale>  1 0.30000000E+03</rscale>
<asrwt>0</asrwt>
<pdfrwt beam="1">  1       21 0.53295269E-02 0.30000000E+03</pdfrwt>
<pdfrwt beam="2">0</pdfrwt>
<totfact> 0.25830213E+04</totfact>
</mgrwt>
</event>
<event>
 6    1  0.1198667E-001  0.3000000E+03  0.7818608E-02  0.1093470E+00
         21   -1    0    0  501  502  0.00000000000E+00  0.00000000000E+00  0.30867682061E+01  0.30867682061E+01  0.00000000000E+00 0. -1.
         13   -1    0    0    0    0 -0.00000000000E+00 -0.00000000000E+00 -0.10000000000E+04  0.10000000000E+04  0.00000000000E+00 0.  1.
    9000005    2    1    2  501    0  0.43404717223E+02  0.10761139631E+02 -0.79577667263E+03  0.79703898968E+03  0.32964775228E+01 0.  0.
         13    1    3    3    0    0  0.33492287916E+02  0.69199386922E+01 -0.61406397319E+03  0.61501559498E+03  0.00000000000E+00 0.  1.
          1    1    3    3  501    0  0.99124293074E+01  0.38412009390E+01 -0.18171269945E+03  0.18202339470E+03  0.00000000000E+00 0.  1.
         -3    1    1    2    0  502 -0.43404717223E+02 -0.10761139631E+02 -0.20113655916E+03  0.20604777853E+03  0.00000000000E+00 0. -1.
<mgrwt>
<rscale>  1 0.30000000E+03</rscale>
<asrwt>0</asrwt>
<pdfrwt beam="1">  1       21 0.11224635E-01 0.30000000E+03</pdfrwt>
<pdfrwt beam="2">0</pdfrwt>
<totfact> 0.69927751E+03</totfact>
</mgrwt>
</event>
<event>
 6    1  0.1198667E-001  0.3000000E+03  0.7818608E-02  0.1093470E+00
         21   -1    0    0  501  502  0.00000000000E+00  0.00000000000E+00  0.26087283034E+01  0.26087283034E+01  0.00000000000E+00 0. -1.
         13   -1    0    0    0    0 -0.00000000000E+00 -0.00000000000E+00 -0.10000000000E+04  0.10000000000E+04  0.00000000000E+00 0.  1.
    9000005    2    1    2  501    0 -0.20016623871E+02 -0.40533264113E+02 -0.73139855254E+03  0.73280187633E+03  0.33371477237E+01 0.  0.
         13    1    3    3    0    0 -0.36194664762E+01 -0.68883336501E+01 -0.14731474712E+03  0.14752011523E+03  0.00000000000E+00 0.  1.
          1    1    3    3  501    0 -0.16397157395E+02 -0.33644930463E+02 -0.58408380543E+03  0.58528176110E+03  0.00000000000E+00 0.  1.
         -3    1    1    2    0  502  0.20016623871E+02  0.40533264113E+02 -0.26599271915E+03  0.26980685198E+03  0.00000000000E+00 0. -1.
<mgrwt>
<rscale>  1 0.30000000E+03</rscale>
<asrwt>0</asrwt>
<pdfrwt beam="1">  1       21 0.94863047E-02 0.30000000E+03</pdfrwt>
<pdfrwt beam="2">0</pdfrwt>
<totfact> 0.94519812E+03</totfact>
</mgrwt>
</event>
<event>
 6    1  0.1198667E-001  0.3000000E+03  0.7818608E-02  0.1093470E+00
         21   -1    0    0  501  502  0.00000000000E+00  0.00000000000E+00  0.25289733469E+01  0.25289733469E+01  0.00000000000E+00 0. -1.
         13   -1    0    0    0    0 -0.00000000000E+00 -0.00000000000E+00 -0.10000000000E+04  0.10000000000E+04  0.00000000000E+00 0.  1.
    9000005    2    1    2  501    0 -0.13483987503E+02 -0.30583423483E+02 -0.87306760548E+03  0.87371369898E+03  0.33793984414E+01 0.  0.
         13    1    3    3    0    0 -0.65266271601E+01 -0.18910060861E+02 -0.51806191344E+03  0.51844800455E+03  0.00000000000E+00 0.  1.
          1    1    3    3  501    0 -0.69573603426E+01 -0.11673362621E+02 -0.35500569205E+03  0.35526569444E+03  0.00000000000E+00 0.  1.
         -1    1    1    2    0  502  0.13483987503E+02  0.30583423483E+02 -0.12440342117E+03  0.12881527436E+03  0.00000000000E+00 0. -1.
<mgrwt>
<rscale>  1 0.30000000E+03</rscale>
<asrwt>0</asrwt>
<pdfrwt beam="1">  1       21 0.91962861E-02 0.30000000E+03</pdfrwt>
<pdfrwt beam="2">0</pdfrwt>
<totfact> 0.99884989E+03</totfact>
</mgrwt>
</event>
<event>
 6    1  0.1198667E-001  0.3000000E+03  0.7818608E-02  0.1093470E+00
         21   -1    0    0  501  502  0.00000000000E+00  0.00000000000E+00  0.10255211462E+01  0.10255211462E+01  0.00000000000E+00 0. -1.
         13   -1    0    0    0    0 -0.00000000000E+00 -0.00000000000E+00 -0.10000000000E+04  0.10000000000E+04  0.00000000000E+00 0.  1.
    9000005    2    1    2  501    0  0.31200903054E+02 -0.38322846357E+01 -0.49836190804E+03  0.49942694777E+03  0.86314550351E+01 0.  0.
         13    1    3    3    0    0  0.23769161600E+02 -0.34632046319E+01 -0.31517800125E+03  0.31609197918E+03  0.00000000000E+00 0.  1.
          1    1    3    3  501    0  0.74317414535E+01 -0.36908000376E+00 -0.18318390679E+03  0.18333496859E+03  0.00000000000E+00 0.  1.
         -1    1    1    2    0  502 -0.31200903054E+02  0.38322846357E+01 -0.50061257081E+03  0.50159857338E+03  0.00000000000E+00 0. -1.
<mgrwt>
<rscale>  1 0.30000000E+03</rscale>
<asrwt>0</asrwt>
<pdfrwt beam="1">  1       21 0.37291757E-02 0.30000000E+03</pdfrwt>
<pdfrwt beam="2">0</pdfrwt>
<totfact> 0.47307553E+04</totfact>
</mgrwt>
</event>
<event>
 6    1  0.1198667E-001  0.3000000E+03  0.7818608E-02  0.1093470E+00
         21   -1    0    0  501  502  0.00000000000E+00  0.00000000000E+00  0.28049611724E+01  0.28049611724E+01  0.00000000000E+00 0. -1.
         13   -1    0    0    0    0 -0.00000000000E+00 -0.00000000000E+00 -0.10000000000E+04  0.10000000000E+04  0.00000000000E+00 0.  1.
    9000005    2    1    2  501    0 -0.30812045583E+02 -0.10284002348E+02 -0.89425536777E+03  0.89486183386E+03  0.54677280282E+01 0.  0.
         13    1    3    3    0    0 -0.13756248096E+02 -0.72223049059E+01 -0.45291216293E+03  0.45317857780E+03  0.00000000000E+00 0.  1.
          1    1    3    3  501    0 -0.17055797487E+02 -0.30616974426E+01 -0.44134320485E+03  0.44168325606E+03  0.00000000000E+00 0.  1.
         -3    1    1    2    0  502  0.30812045583E+02  0.10284002348E+02 -0.10293967105E+03  0.10794312731E+03  0.00000000000E+00 0. -1.
<mgrwt>
<rscale>  1 0.30000000E+03</rscale>
<asrwt>0</asrwt>
<pdfrwt beam="1">  1       21 0.10199880E-01 0.30000000E+03</pdfrwt>
<pdfrwt beam="2">0</pdfrwt>
<totfact> 0.83041010E+03</totfact>
</mgrwt>
</event>
<event>
 6    1  0.1198667E-001  0.3000000E+03  0.7818608E-02  0.1093470E+00
         21   -1    0    0  501  502  0.00000000000E+00  0.00000000000E+00  0.40367088005E+01  0.40367088005E+01  0.00000000000E+00 0. -1.
         13   -1    0    0    0    0 -0.00000000000E+00 -0.00000000000E+00 -0.10000000000E+04  0.10000000000E+04  0.00000000000E+00 0.  1.
    9000005    2    1    2  501    0  0.58661648341E+02 -0.13119069898E+02 -0.65996425852E+03  0.66270307591E+03  0.30406109064E+01 0.  0.
         13    1    3    3    0    0  0.31279023666E+02 -0.69846969581E+01 -0.33511660106E+03  0.33664565885E+03  0.00000000000E+00 0.  1.
          1    1    3    3  501    0  0.27382624675E+02 -0.61343729396E+01 -0.32484765746E+03  0.32605741706E+03  0.00000000000E+00 0.  1.
         -1    1    1    2    0  502 -0.58661648341E+02  0.13119069898E+02 -0.33599903268E+03  0.34133363289E+03  0.00000000000E+00 0. -1.
<mgrwt>
<rscale>  1 0.30000000E+03</rscale>
<asrwt>0</asrwt>
<pdfrwt beam="1">  1       21 0.14678972E-01 0.30000000E+03</pdfrwt>
<pdfrwt beam="2">0</pdfrwt>
<totfact> 0.42860618E+03</totfact>
</mgrwt>
</event>
<event>
 6    1  0.1198667E-001  0.3000000E+03  0.7818608E-02  0.1093470E+00
         21   -1    0    0  501  502  0.00000000000E+00  0.00000000000E+00  0.28763098520E+01  0.28763098520E+01  0.00000000000E+00 0. -1.
         13   -1    0    0    0    0 -0.00000000000E+00 -0.00000000000E+00 -0.10000000000E+04  0.10000000000E+04  0.00000000000E+00 0.  1.
    9000005    2    1    2  501    0  0.28699927302E+02  0.13492779268E+02 -0.90232491857E+03  0.90291357674E+03  0.75450288454E+01 0.  0.
         13    1    3    3    0    0  0.13550570430E+02  0.54379239013E+01 -0.31517979003E+03  0.31551781093E+03  0.00000000000E+00 0.  1.
          3    1    3    3  501    0  0.15149356872E+02  0.80548553667E+01 -0.58714512855E+03  0.58739576580E+03  0.00000000000E+00 0.  1.
         -1    1    1    2    0  502 -0.28699927302E+02 -0.13492779268E+02 -0.94798771574E+02  0.99962733113E+02  0.00000000000E+00 0. -1.
<mgrwt>
<rscale>  1 0.30000000E+03</rscale>
<asrwt>0</asrwt>
<pdfrwt beam="1">  1       21 0.10459331E-01 0.30000000E+03</pdfrwt>
<pdfrwt beam="2">0</pdfrwt>
<totfact> 0.79388970E+03</totfact>
</mgrwt>
</event>
<event>
 6    1  0.1198667E-001  0.3000000E+03  0.7818608E-02  0.1093470E+00
         21   -1    0    0  501  502  0.00000000000E+00  0.00000000000E+00  0.79264022679E+01  0.79264022679E+01  0.00000000000E+00 0. -1.
         13   -1    0    0    0    0 -0.00000000000E+00 -0.00000000000E+00 -0.10000000000E+04  0.10000000000E+04  0.00000000000E+00 0.  1.
    9000005    2    1    2  501    0  0.31517570570E+02 -0.25492842584E+02 -0.94468091795E+03  0.94556208254E+03  0.47300031761E+01 0.  0.
         13    1    3    3    0    0 -0.17235983626E-02 -0.44789815752E+00 -0.20286149621E+02  0.20291093667E+02  0.00000000000E+00 0.  1.
          3    1    3    3  501    0  0.31519294168E+02 -0.25044944427E+02 -0.92439476833E+03  0.92527098888E+03  0.00000000000E+00 0.  1.
         -3    1    1    2    0  502 -0.31517570570E+02  0.25492842584E+02 -0.47392679784E+02  0.62364319725E+02  0.00000000000E+00 0. -1.
<mgrwt>
<rscale>  1 0.30000000E+03</rscale>
<asrwt>0</asrwt>
<pdfrwt beam="1">  1       21 0.28823342E-01 0.30000000E+03</pdfrwt>
<pdfrwt beam="2">0</pdfrwt>
<totfact> 0.11776252E+03</totfact>
</mgrwt>
</event>
<event>
 6    1  0.1198667E-001  0.3000000E+03  0.7818608E-02  0.1093470E+00
         21   -1    0    0  501  502  0.00000000000E+00  0.00000000000E+00  0.10558124151E+01  0.10558124151E+01  0.00000000000E+00 0. -1.
         13   -1    0    0    0    0 -0.00000000000E+00 -0.00000000000E+00 -0.10000000000E+04  0.10000000000E+04  0.00000000000E+00 0.  1.
    9000005    2    1    2  501    0 -0.26141689640E+02  0.18463671899E+02 -0.58124299122E+03  0.58213030047E+03  0.28243160183E+01 0.  0.
         13    1    3    3    0    0 -0.15802988619E+02  0.10601315970E+02 -0.36879777390E+03  0.36928839731E+03  0.00000000000E+00 0.  1.
          3    1    3    3  501    0 -0.10338701021E+02  0.78623559292E+01 -0.21244521732E+03  0.21284190316E+03  0.00000000000E+00 0.  1.
         -3    1    1    2    0  502  0.26141689640E+02 -0.18463671899E+02 -0.41770119636E+03  0.41892551195E+03  0.00000000000E+00 0. -1.
<mgrwt>
<rscale>  1 0.30000000E+03</rscale>
<asrwt>0</asrwt>
<pdfrwt beam="1">  1       21 0.38393260E-02 0.30000000E+03</pdfrwt>
<pdfrwt beam="2">0</pdfrwt>
<totfact> 0.45049849E+04</totfact>
</mgrwt>
</event>
<event>
 6    1  0.1198667E-001  0.3000000E+03  0.7818608E-02  0.1093470E+00
         21   -1    0    0  501  502  0.00000000000E+00  0.00000000000E+00  0.15667148141E+01  0.15667148141E+01  0.00000000000E+00 0. -1.
         13   -1    0    0    0    0 -0.00000000000E+00 -0.00000000000E+00 -0.10000000000E+04  0.10000000000E+04  0.00000000000E+00 0.  1.
    9000005    2    1    2  501    0 -0.29376143529E+02 -0.82082320899E+01 -0.81634060198E+03  0.81693714470E+03  0.66322748856E+01 0.  0.
         13    1    3    3    0    0 -0.13829807041E+02 -0.14270848323E+01 -0.42933430724E+03  0.42955936436E+03  0.00000000000E+00 0.  1.
          1    1    3    3  501    0 -0.15546336487E+02 -0.67811472576E+01 -0.38700629474E+03  0.38737778035E+03  0.00000000000E+00 0.  1.
         -1    1    1    2    0  502  0.29376143529E+02  0.82082320899E+01 -0.18209268320E+03  0.18462957011E+03  0.00000000000E+00 0. -1.
<mgrwt>
<rscale>  1 0.30000000E+03</rscale>
<asrwt>0</asrwt>
<pdfrwt beam="1">  1       21 0.56971568E-02 0.30000000E+03</pdfrwt>
<pdfrwt beam="2">0</pdfrwt>
<totfact> 0.23038016E+04</totfact>
</mgrwt>
</event>
<event>
 6    1  0.1198667E-001  0.3000000E+03  0.7818608E-02  0.1093470E+00
         21   -1    0    0  501  502  0.00000000000E+00  0.00000000000E+00  0.27082483790E+01  0.27082483790E+01  0.00000000000E+00 0. -1.
         13   -1    0    0    0    0 -0.00000000000E+00 -0.00000000000E+00 -0.10000000000E+04  0.10000000000E+04  0.00000000000E+00 0.  1.
    9000005    2    1    2  501    0 -0.43343301016E+00  0.45789632743E+02 -0.73635331143E+03  0.73778231930E+03  0.31101578312E+01 0.  0.
         13    1    3    3    0    0  0.35547697176E+00  0.20203211577E+02 -0.34822493030E+03  0.34881069107E+03  0.00000000000E+00 0.  1.
          1    1    3    3  501    0 -0.78890998192E+00  0.25586421166E+02 -0.38812838113E+03  0.38897162823E+03  0.00000000000E+00 0.  1.
         -3    1    1    2    0  502  0.43343301016E+00 -0.45789632743E+02 -0.26093844019E+03  0.26492592908E+03  0.00000000000E+00 0. -1.
<mgrwt>
<rscale>  1 0.30000000E+03</rscale>
<asrwt>0</asrwt>
<pdfrwt beam="1">  1       21 0.98481967E-02 0.30000000E+03</pdfrwt>
<pdfrwt beam="2">0</pdfrwt>
<totfact> 0.88414821E+03</totfact>
</mgrwt>
</event>
<event>
 6    1  0.1198667E-001  0.3000000E+03  0.7818608E-02  0.1093470E+00
         21   -1    0    0  501  502  0.00000000000E+00  0.00000000000E+00  0.52394403181E+01  0.52394403181E+01  0.00000000000E+00 0. -1.
         13   -1    0    0    0    0 -0.00000000000E+00 -0.00000000000E+00 -0.10000000000E+04  0.10000000000E+04  0.00000000000E+00 0.  1.
    9000005    2    1    2  501    0 -0.19140927156E+02  0.44049898292E+02 -0.87332813640E+03  0.87465382833E+03  0.32429876120E+01 0.  0.
         13    1    3    3    0    0 -0.73294246921E+01  0.13412388944E+02 -0.26628310672E+03  0.26672140066E+03  0.00000000000E+00 0.  1.
          3    1    3    3  501    0 -0.11811502464E+02  0.30637509348E+02 -0.60704502968E+03  0.60793242768E+03  0.00000000000E+00 0.  1.
         -3    1    1    2    0  502  0.19140927156E+02 -0.44049898292E+02 -0.12143242329E+03  0.13058561198E+03  0.00000000000E+00 0. -1.
<mgrwt>
<rscale>  1 0.30000000E+03</rscale>
<asrwt>0</asrwt>
<pdfrwt beam="1">  1       21 0.19052550E-01 0.30000000E+03</pdfrwt>
<pdfrwt beam="2">0</pdfrwt>
<totfact> 0.26312753E+03</totfact>
</mgrwt>
</event>
<event>
 6    1  0.1198667E-001  0.3000000E+03  0.7818608E-02  0.1093470E+00
         21   -1    0    0  501  502  0.00000000000E+00  0.00000000000E+00  0.13461864005E+01  0.13461864005E+01  0.00000000000E+00 0. -1.
         13   -1    0    0    0    0 -0.00000000000E+00 -0.00000000000E+00 -0.10000000000E+04  0.10000000000E+04  0.00000000000E+00 0.  1.
    9000005    2    1    2  501    0  0.25247646429E+02 -0.26059495521E+02 -0.44262057319E+03  0.44413033469E+03  0.47160814173E+01 0.  0.
         13    1    3    3    0    0  0.24156414468E+02 -0.25970450533E+02 -0.42618463172E+03  0.42765796727E+03  0.00000000000E+00 0.  1.
          3    1    3    3  501    0  0.10912319602E+01 -0.89044988243E-01 -0.16435941476E+02  0.16472367420E+02  0.00000000000E+00 0.  1.
         -1    1    1    2    0  502 -0.25247646429E+02  0.26059495521E+02 -0.55603324040E+03  0.55721585171E+03  0.00000000000E+00 0. -1.
<mgrwt>
<rscale>  1 0.30000000E+03</rscale>
<asrwt>0</asrwt>
<pdfrwt beam="1">  1       21 0.48952336E-02 0.30000000E+03</pdfrwt>
<pdfrwt beam="2">0</pdfrwt>
<totfact> 0.29862929E+04</totfact>
</mgrwt>
</event>
<event>
 6    1  0.1198667E-001  0.3000000E+03  0.7818608E-02  0.1093470E+00
         21   -1    0    0  501  502  0.00000000000E+00  0.00000000000E+00  0.11948272399E+01  0.11948272399E+01  0.00000000000E+00 0. -1.
         13   -1    0    0    0    0 -0.00000000000E+00 -0.00000000000E+00 -0.10000000000E+04  0.10000000000E+04  0.00000000000E+00 0.  1.
    9000005    2    1    2  501    0  0.29340966966E+02  0.94412015313E+01 -0.72449334335E+03  0.72515677119E+03  0.34219333169E+01 0.  0.
         13    1    3    3    0    0  0.13081882565E+01  0.38902279518E+00 -0.53020588418E+02  0.53038151282E+02  0.00000000000E+00 0.  1.
          3    1    3    3  501    0  0.28032778709E+02  0.90521787362E+01 -0.67147275493E+03  0.67211861991E+03  0.00000000000E+00 0.  1.
         -3    1    1    2    0  502 -0.29340966966E+02 -0.94412015313E+01 -0.27431182941E+03  0.27603805605E+03  0.00000000000E+00 0. -1.
<mgrwt>
<rscale>  1 0.30000000E+03</rscale>
<asrwt>0</asrwt>
<pdfrwt beam="1">  1       21 0.43448355E-02 0.30000000E+03</pdfrwt>
<pdfrwt beam="2">0</pdfrwt>
<totfact> 0.36569326E+04</totfact>
</mgrwt>
</event>
<event>
 6    1  0.1198667E-001  0.3000000E+03  0.7818608E-02  0.1093470E+00
         21   -1    0    0  501  502  0.00000000000E+00  0.00000000000E+00  0.16813127464E+01  0.16813127464E+01  0.00000000000E+00 0. -1.
         13   -1    0    0    0    0 -0.00000000000E+00 -0.00000000000E+00 -0.10000000000E+04  0.10000000000E+04  0.00000000000E+00 0.  1.
    9000005    2    1    2  501    0 -0.24834048513E+02  0.20747932600E+02 -0.80619807603E+03  0.80685437434E+03  0.33818516973E+01 0.  0.
         13    1    3    3    0    0 -0.21762151790E+02  0.18170344528E+02 -0.67519539686E+03  0.67579033480E+03  0.00000000000E+00 0.  1.
          1    1    3    3  501    0 -0.30718967235E+01  0.25775880714E+01 -0.13100267917E+03  0.13106403954E+03  0.00000000000E+00 0.  1.
         -1    1    1    2    0  502  0.24834048513E+02 -0.20747932600E+02 -0.19212061122E+03  0.19482693841E+03  0.00000000000E+00 0. -1.
<mgrwt>
<rscale>  1 0.30000000E+03</rscale>
<asrwt>0</asrwt>
<pdfrwt beam="1">  1       21 0.61138774E-02 0.30000000E+03</pdfrwt>
<pdfrwt beam="2">0</pdfrwt>
<totfact> 0.20399096E+04</totfact>
</mgrwt>
</event>
<event>
 6    1  0.1198667E-001  0.3000000E+03  0.7818608E-02  0.1093470E+00
         21   -1    0    0  501  502  0.00000000000E+00  0.00000000000E+00  0.13059234546E+02  0.13059234546E+02  0.00000000000E+00 0. -1.
         13   -1    0    0    0    0 -0.00000000000E+00 -0.00000000000E+00 -0.10000000000E+04  0.10000000000E+04  0.00000000000E+00 0.  1.
    9000005    2    1    2  501    0 -0.37140967115E+02  0.80454313359E+02 -0.81325621356E+03  0.81807546203E+03  0.30732248550E+01 0.  0.
         13    1    3    3    0    0 -0.36985112092E+02  0.79611565075E+02 -0.80318509610E+03  0.80796794392E+03  0.00000000000E+00 0.  1.
          1    1    3    3  501    0 -0.15585502297E+00  0.84274828447E+00 -0.10071117460E+02  0.10107518111E+02  0.00000000000E+00 0.  1.
         -3    1    1    2    0  502  0.37140967115E+02 -0.80454313359E+02 -0.17368455190E+03  0.19498377252E+03  0.00000000000E+00 0. -1.
<mgrwt>
<rscale>  1 0.30000000E+03</rscale>
<asrwt>0</asrwt>
<pdfrwt beam="1">  1       21 0.47488226E-01 0.30000000E+03</pdfrwt>
<pdfrwt beam="2">0</pdfrwt>
<totfact> 0.41990560E+02</totfact>
</mgrwt>
</event>
<event>
 6    1  0.1198667E-001  0.3000000E+03  0.7818608E-02  0.1093470E+00
         21   -1    0    0  501  502  0.00000000000E+00  0.00000000000E+00  0.25976054240E+01  0.25976054240E+01  0.00000000000E+00 0. -1.
         13   -1    0    0    0    0 -0.00000000000E+00 -0.00000000000E+00 -0.10000000000E+04  0.10000000000E+04  0.00000000000E+00 0.  1.
    9000005    2    1    2  501    0  0.24339579349E+02  0.19358912411E+02 -0.89574369936E+03  0.89628827881E+03  0.29531630415E+01 0.  0.
         13    1    3    3    0    0  0.20278367514E+02  0.15483248810E+02 -0.76138833267E+03  0.76181568395E+03  0.00000000000E+00 0.  1.
          1    1    3    3  501    0  0.40612118347E+01  0.38756636005E+01 -0.13435536669E+03  0.13447259486E+03  0.00000000000E+00 0.  1.
         -3    1    1    2    0  502 -0.24339579349E+02 -0.19358912411E+02 -0.10165869521E+03  0.10630932661E+03  0.00000000000E+00 0. -1.
<mgrwt>
<rscale>  1 0.30000000E+03</rscale>
<asrwt>0</asrwt>
<pdfrwt beam="1">  1       21 0.94458578E-02 0.30000000E+03</pdfrwt>
<pdfrwt beam="2">0</pdfrwt>
<totfact> 0.95241704E+03</totfact>
</mgrwt>
</event>
<event>
 6    1  0.1198667E-001  0.3000000E+03  0.7818608E-02  0.1093470E+00
         21   -1    0    0  501  502  0.00000000000E+00  0.00000000000E+00  0.30536215776E+01  0.30536215776E+01  0.00000000000E+00 0. -1.
         13   -1    0    0    0    0 -0.00000000000E+00 -0.00000000000E+00 -0.10000000000E+04  0.10000000000E+04  0.00000000000E+00 0.  1.
    9000005    2    1    2  501    0 -0.49381354444E+02  0.46422321154E+01 -0.71897462209E+03  0.72069150336E+03  0.34157459151E+01 0.  0.
         13    1    3    3    0    0 -0.31646288199E+02  0.45758964177E+01 -0.45709578947E+03  0.45821281861E+03  0.00000000000E+00 0.  1.
          1    1    3    3  501    0 -0.17735066246E+02  0.66335697711E-01 -0.26187883262E+03  0.26247868475E+03  0.00000000000E+00 0.  1.
         -1    1    1    2    0  502  0.49381354444E+02 -0.46422321154E+01 -0.27797175633E+03  0.28236211822E+03  0.00000000000E+00 0. -1.
<mgrwt>
<rscale>  1 0.30000000E+03</rscale>
<asrwt>0</asrwt>
<pdfrwt beam="1">  1       21 0.11104102E-01 0.30000000E+03</pdfrwt>
<pdfrwt beam="2">0</pdfrwt>
<totfact> 0.71301120E+03</totfact>
</mgrwt>
</event>
<event>
 6    1  0.1198667E-001  0.3000000E+03  0.7818608E-02  0.1093470E+00
         21   -1    0    0  501  502  0.00000000000E+00  0.00000000000E+00  0.10406816355E+01  0.10406816355E+01  0.00000000000E+00 0. -1.
         13   -1    0    0    0    0 -0.00000000000E+00 -0.00000000000E+00 -0.10000000000E+04  0.10000000000E+04  0.00000000000E+00 0.  1.
    9000005    2    1    2  501    0  0.76093951472E+00  0.31925383912E+02 -0.44120298019E+03  0.44237088476E+03  0.34814922166E+01 0.  0.
         13    1    3    3    0    0  0.77989387418E+00  0.18601188073E+02 -0.27993160488E+03  0.28055002378E+03  0.00000000000E+00 0.  1.
          3    1    3    3  501    0 -0.18954359464E-01  0.13324195839E+02 -0.16127137532E+03  0.16182086099E+03  0.00000000000E+00 0.  1.
         -1    1    1    2    0  502 -0.76093951472E+00 -0.31925383912E+02 -0.55775633817E+03  0.55866979687E+03  0.00000000000E+00 0. -1.
<mgrwt>
<rscale>  1 0.30000000E+03</rscale>
<asrwt>0</asrwt>
<pdfrwt beam="1">  1       21 0.37843048E-02 0.30000000E+03</pdfrwt>
<pdfrwt beam="2">0</pdfrwt>
<totfact> 0.46155903E+04</totfact>
</mgrwt>
</event>
<event>
 6    1  0.1198667E-001  0.3000000E+03  0.7818608E-02  0.1093470E+00
         21   -1    0    0  501  502  0.00000000000E+00  0.00000000000E+00  0.34393433217E+01  0.34393433217E+01  0.00000000000E+00 0. -1.
         13   -1    0    0    0    0 -0.00000000000E+00 -0.00000000000E+00 -0.10000000000E+04  0.10000000000E+04  0.00000000000E+00 0.  1.
    9000005    2    1    2  501    0  0.28868137125E+02  0.17582589965E+02 -0.90821561717E+03  0.90884884265E+03  0.28451203612E+01 0.  0.
         13    1    3    3    0    0  0.17397701085E+02  0.11800967123E+02 -0.58806925746E+03  0.58844489495E+03  0.00000000000E+00 0.  1.
          1    1    3    3  501    0  0.11470436040E+02  0.57816228424E+01 -0.32014635971E+03  0.32040394770E+03  0.00000000000E+00 0.  1.
         -1    1    1    2    0  502 -0.28868137125E+02 -0.17582589965E+02 -0.88345039507E+02  0.94590500667E+02  0.00000000000E+00 0. -1.
<mgrwt>
<rscale>  1 0.30000000E+03</rscale>
<asrwt>0</asrwt>
<pdfrwt beam="1">  1       21 0.12506729E-01 0.30000000E+03</pdfrwt>
<pdfrwt beam="2">0</pdfrwt>
<totfact> 0.57480567E+03</totfact>
</mgrwt>
</event>
<event>
 6    1  0.1198667E-001  0.3000000E+03  0.7818608E-02  0.1093470E+00
         21   -1    0    0  501  502  0.00000000000E+00  0.00000000000E+00  0.12585915199E+01  0.12585915199E+01  0.00000000000E+00 0. -1.
         13   -1    0    0    0    0 -0.00000000000E+00 -0.00000000000E+00 -0.10000000000E+04  0.10000000000E+04  0.00000000000E+00 0.  1.
    9000005    2    1    2  501    0  0.15430510782E+02  0.31717035435E+02 -0.50501375727E+03  0.50627266792E+03  0.53896422665E+01 0.  0.
         13    1    3    3    0    0  0.97213918174E+01  0.22913779859E+02 -0.32369642300E+03  0.32465199988E+03  0.00000000000E+00 0.  1.
          3    1    3    3  501    0  0.57091189647E+01  0.88032555757E+01 -0.18131733428E+03  0.18162066803E+03  0.00000000000E+00 0.  1.
         -3    1    1    2    0  502 -0.15430510782E+02 -0.31717035435E+02 -0.49372765121E+03  0.49498592360E+03  0.00000000000E+00 0. -1.
<mgrwt>
<rscale>  1 0.30000000E+03</rscale>
<asrwt>0</asrwt>
<pdfrwt beam="1">  1       21 0.45767061E-02 0.30000000E+03</pdfrwt>
<pdfrwt beam="2">0</pdfrwt>
<totfact> 0.33483320E+04</totfact>
</mgrwt>
</event>
<event>
 6    1  0.1198667E-001  0.3000000E+03  0.7818608E-02  0.1093470E+00
         21   -1    0    0  501  502  0.00000000000E+00  0.00000000000E+00  0.95262299239E+00  0.95262299239E+00  0.00000000000E+00 0. -1.
         13   -1    0    0    0    0 -0.00000000000E+00 -0.00000000000E+00 -0.10000000000E+04  0.10000000000E+04  0.00000000000E+00 0.  1.
    9000005    2    1    2  501    0  0.22927709889E+02  0.20261549333E+02 -0.44298853105E+03  0.44405258670E+03  0.27660161019E+01 0.  0.
         13    1    3    3    0    0  0.59955031871E+01  0.62169569120E+01 -0.11043802230E+03  0.11077523812E+03  0.00000000000E+00 0.  1.
          1    1    3    3  501    0  0.16932206702E+02  0.14044592421E+02 -0.33255050875E+03  0.33327734857E+03  0.00000000000E+00 0.  1.
         -3    1    1    2    0  502 -0.22927709889E+02 -0.20261549333E+02 -0.55605884595E+03  0.55690003629E+03  0.00000000000E+00 0. -1.
<mgrwt>
<rscale>  1 0.30000000E+03</rscale>
<asrwt>0</asrwt>
<pdfrwt beam="1">  1       21 0.34640909E-02 0.30000000E+03</pdfrwt>
<pdfrwt beam="2">0</pdfrwt>
<totfact> 0.53532959E+04</totfact>
</mgrwt>
</event>
<event>
 6    1  0.1198667E-001  0.3000000E+03  0.7818608E-02  0.1093470E+00
         21   -1    0    0  501  502  0.00000000000E+00  0.00000000000E+00  0.18262793945E+01  0.18262793945E+01  0.00000000000E+00 0. -1.
         13   -1    0    0    0    0 -0.00000000000E+00 -0.00000000000E+00 -0.10000000000E+04  0.10000000000E+04  0.00000000000E+00 0.  1.
    9000005    2    1    2  501    0 -0.10671409581E+02  0.33638150530E+02 -0.78090443178E+03  0.78170961028E+03  0.35747843612E+01 0.  0.
         13    1    3    3    0    0 -0.35020132363E+01  0.69449379254E+01 -0.15434348727E+03  0.15453934231E+03  0.00000000000E+00 0.  1.
          3    1    3    3  501    0 -0.71693963444E+01  0.26693212605E+02 -0.62656094451E+03  0.62717026797E+03  0.00000000000E+00 0.  1.
         -3    1    1    2    0  502  0.10671409581E+02 -0.33638150530E+02 -0.21726928882E+03  0.22011666911E+03  0.00000000000E+00 0. -1.
<mgrwt>
<rscale>  1 0.30000000E+03</rscale>
<asrwt>0</asrwt>
<pdfrwt beam="1">  1       21 0.66410300E-02 0.30000000E+03</pdfrwt>
<pdfrwt beam="2">0</pdfrwt>
<totfact> 0.17680169E+04</totfact>
</mgrwt>
</event>
<event>
 6    1  0.1198667E-001  0.3000000E+03  0.7818608E-02  0.1093470E+00
         21   -1    0    0  501  502  0.00000000000E+00  0.00000000000E+00  0.12168239122E+01  0.12168239122E+01  0.00000000000E+00 0. -1.
         13   -1    0    0    0    0 -0.00000000000E+00 -0.00000000000E+00 -0.10000000000E+04  0.10000000000E+04  0.00000000000E+00 0.  1.
    9000005    2    1    2  501    0 -0.11149845535E+02 -0.30655624553E+02 -0.67438092211E+03  0.67517862254E+03  0.35295677517E+01 0.  0.
         13    1    3    3    0    0 -0.57293562220E+01 -0.11894491462E+02 -0.24924705636E+03  0.24959647344E+03  0.00000000000E+00 0.  1.
          3    1    3    3  501    0 -0.54204893133E+01 -0.18761133092E+02 -0.42513386575E+03  0.42558214909E+03  0.00000000000E+00 0.  1.
         -3    1    1    2    0  502  0.11149845535E+02  0.30655624553E+02 -0.32440225397E+03  0.32603820137E+03  0.00000000000E+00 0. -1.
<mgrwt>
<rscale>  1 0.30000000E+03</rscale>
<asrwt>0</asrwt>
<pdfrwt beam="1">  1       21 0.44248236E-02 0.30000000E+03</pdfrwt>
<pdfrwt beam="2">0</pdfrwt>
<totfact> 0.35456814E+04</totfact>
</mgrwt>
</event>
<event>
 6    1  0.1198667E-001  0.3000000E+03  0.7818608E-02  0.1093470E+00
         21   -1    0    0  501  502  0.00000000000E+00  0.00000000000E+00  0.13944223397E+01  0.13944223397E+01  0.00000000000E+00 0. -1.
         13   -1    0    0    0    0 -0.00000000000E+00 -0.00000000000E+00 -0.10000000000E+04  0.10000000000E+04  0.00000000000E+00 0.  1.
    9000005    2    1    2  501    0  0.32313694990E+02  0.67250116594E+01 -0.26788270946E+03  0.26992650727E+03  0.31261211642E+01 0.  0.
         13    1    3    3    0    0  0.88435018665E+00  0.37457114547E+00 -0.46538518999E+01  0.47519171186E+01  0.00000000000E+00 0.  1.
          1    1    3    3  501    0  0.31429344803E+02  0.63504405139E+01 -0.26322885756E+03  0.26517459015E+03  0.00000000000E+00 0.  1.
         -1    1    1    2    0  502 -0.32313694990E+02 -0.67250116594E+01 -0.73072286820E+03  0.73146791507E+03  0.00000000000E+00 0. -1.
<mgrwt>
<rscale>  1 0.30000000E+03</rscale>
<asrwt>0</asrwt>
<pdfrwt beam="1">  1       21 0.50706374E-02 0.30000000E+03</pdfrwt>
<pdfrwt beam="2">0</pdfrwt>
<totfact> 0.28123728E+04</totfact>
</mgrwt>
</event>
<event>
 6    1  0.1198667E-001  0.3000000E+03  0.7818608E-02  0.1093470E+00
         21   -1    0    0  501  502  0.00000000000E+00  0.00000000000E+00  0.10596210191E+01  0.10596210191E+01  0.00000000000E+00 0. -1.
         13   -1    0    0    0    0 -0.00000000000E+00 -0.00000000000E+00 -0.10000000000E+04  0.10000000000E+04  0.00000000000E+00 0.  1.
    9000005    2    1    2  501    0  0.24723701987E+01  0.31296894932E+02 -0.62797788076E+03  0.62877104568E+03  0.33467755131E+01 0.  0.
         13    1    3    3    0    0  0.46759866532E+00  0.21028061598E+02 -0.39827334141E+03  0.39882834967E+03  0.00000000000E+00 0.  1.
          3    1    3    3  501    0  0.20047715333E+01  0.10268833334E+02 -0.22970453935E+03  0.22994269600E+03  0.00000000000E+00 0.  1.
         -3    1    1    2    0  502 -0.24723701987E+01 -0.31296894932E+02 -0.37096249822E+03  0.37228857534E+03  0.00000000000E+00 0. -1.
<mgrwt>
<rscale>  1 0.30000000E+03</rscale>
<asrwt>0</asrwt>
<pdfrwt beam="1">  1       21 0.38531755E-02 0.30000000E+03</pdfrwt>
<pdfrwt beam="2">0</pdfrwt>
<totfact> 0.44777994E+04</totfact>
</mgrwt>
</event>
<event>
 6    1  0.1198667E-001  0.3000000E+03  0.7818608E-02  0.1093470E+00
         21   -1    0    0  501  502  0.00000000000E+00  0.00000000000E+00  0.18261829835E+01  0.18261829835E+01  0.00000000000E+00 0. -1.
         13   -1    0    0    0    0 -0.00000000000E+00 -0.00000000000E+00 -0.10000000000E+04  0.10000000000E+04  0.00000000000E+00 0.  1.
    9000005    2    1    2  501    0  0.31735748620E+02 -0.19297835582E+02 -0.74580755677E+03  0.74674130787E+03  0.37556560481E+01 0.  0.
         13    1    3    3    0    0  0.25117912604E+02 -0.13964922463E+02 -0.55234947891E+03  0.55309662397E+03  0.00000000000E+00 0.  1.
          1    1    3    3  501    0  0.66178360153E+01 -0.53329131192E+01 -0.19345807785E+03  0.19364468390E+03  0.00000000000E+00 0.  1.
         -3    1    1    2    0  502 -0.31735748620E+02  0.19297835582E+02 -0.25236626025E+03  0.25508487511E+03  0.00000000000E+00 0. -1.
<mgrwt>
<rscale>  1 0.30000000E+03</rscale>
<asrwt>0</asrwt>
<pdfrwt beam="1">  1       21 0.66406794E-02 0.30000000E+03</pdfrwt>
<pdfrwt beam="2">0</pdfrwt>
<totfact> 0.17681787E+04</totfact>
</mgrwt>
</event>
<event>
 6    1  0.1198667E-001  0.3000000E+03  0.7818608E-02  0.1093470E+00
         21   -1    0    0  501  502  0.00000000000E+00  0.00000000000E+00  0.10408020298E+01  0.10408020298E+01  0.00000000000E+00 0. -1.
         13   -1    0    0    0    0 -0.00000000000E+00 -0.00000000000E+00 -0.10000000000E+04  0.10000000000E+04  0.00000000000E+00 0.  1.
    9000005    2    1    2  501    0  0.24521530003E+02 -0.19556072794E+02 -0.38910471082E+03  0.39038030641E+03  0.32499587042E+01 0.  0.
         13    1    3    3    0    0  0.15956120935E+02 -0.13100107427E+02 -0.27418459873E+03  0.27496073318E+03  0.00000000000E+00 0.  1.
          1    1    3    3  501    0  0.85654090676E+01 -0.64559653666E+01 -0.11492011210E+03  0.11541957324E+03  0.00000000000E+00 0.  1.
         -3    1    1    2    0  502 -0.24521530003E+02  0.19556072794E+02 -0.60985448715E+03  0.61066049562E+03  0.00000000000E+00 0. -1.
<mgrwt>
<rscale>  1 0.30000000E+03</rscale>
<asrwt>0</asrwt>
<pdfrwt beam="1">  1       21 0.37847426E-02 0.30000000E+03</pdfrwt>
<pdfrwt beam="2">0</pdfrwt>
<totfact> 0.46146935E+04</totfact>
</mgrwt>
</event>
<event>
 6    1  0.1198667E-001  0.3000000E+03  0.7818608E-02  0.1093470E+00
         21   -1    0    0  501  502  0.00000000000E+00  0.00000000000E+00  0.40172622405E+01  0.40172622405E+01  0.00000000000E+00 0. -1.
         13   -1    0    0    0    0 -0.00000000000E+00 -0.00000000000E+00 -0.10000000000E+04  0.10000000000E+04  0.00000000000E+00 0.  1.
    9000005    2    1    2  501    0 -0.28925775033E+02  0.13100709453E+02 -0.93240032376E+03  0.93294650581E+03  0.32388129258E+01 0.  0.
         13    1    3    3    0    0 -0.62818945183E+01  0.37098564980E+01 -0.24807261698E+03  0.24817987132E+03  0.00000000000E+00 0.  1.
          1    1    3    3  501    0 -0.22643880514E+02  0.93908529547E+01 -0.68432770678E+03  0.68476663449E+03  0.00000000000E+00 0.  1.
         -1    1    1    2    0  502  0.28925775033E+02 -0.13100709453E+02 -0.63582414003E+02  0.71070756432E+02  0.00000000000E+00 0. -1.
<mgrwt>
<rscale>  1 0.30000000E+03</rscale>
<asrwt>0</asrwt>
<pdfrwt beam="1">  1       21 0.14608257E-01 0.30000000E+03</pdfrwt>
<pdfrwt beam="2">0</pdfrwt>
<totfact> 0.43244360E+03</totfact>
</mgrwt>
</event>
<event>
 6    1  0.1198667E-001  0.3000000E+03  0.7818608E-02  0.1093470E+00
         21   -1    0    0  501  502  0.00000000000E+00  0.00000000000E+00  0.22652799665E+01  0.22652799665E+01  0.00000000000E+00 0. -1.
         13   -1    0    0    0    0 -0.00000000000E+00 -0.00000000000E+00 -0.10000000000E+04  0.10000000000E+04  0.00000000000E+00 0.  1.
    9000005    2    1    2  501    0 -0.30181715661E+02  0.29594151318E+02 -0.72844087323E+03  0.72967414717E+03  0.33919765782E+01 0.  0.
         13    1    3    3    0    0 -0.25459659364E+02  0.23344802168E+02 -0.58267554776E+03  0.58369852493E+03  0.00000000000E+00 0.  1.
          3    1    3    3  501    0 -0.47220562963E+01  0.62493491504E+01 -0.14576532546E+03  0.14597562224E+03  0.00000000000E+00 0.  1.
         -1    1    1    2    0  502  0.30181715661E+02 -0.29594151318E+02 -0.26929384681E+03  0.27259113280E+03  0.00000000000E+00 0. -1.
<mgrwt>
<rscale>  1 0.30000000E+03</rscale>
<asrwt>0</asrwt>
<pdfrwt beam="1">  1       21 0.82373991E-02 0.30000000E+03</pdfrwt>
<pdfrwt beam="2">0</pdfrwt>
<totfact> 0.12133772E+04</totfact>
</mgrwt>
</event>
<event>
 6    1  0.1198667E-001  0.3000000E+03  0.7818608E-02  0.1093470E+00
         21   -1    0    0  501  502  0.00000000000E+00  0.00000000000E+00  0.19311831284E+01  0.19311831284E+01  0.00000000000E+00 0. -1.
         13   -1    0    0    0    0 -0.00000000000E+00 -0.00000000000E+00 -0.10000000000E+04  0.10000000000E+04  0.00000000000E+00 0.  1.
    9000005    2    1    2  501    0 -0.37974947728E+02 -0.21560481594E+02 -0.54670793099E+03  0.54846277153E+03  0.38599114112E+01 0.  0.
         13    1    3    3    0    0 -0.75303877699E+01 -0.32337153107E+01 -0.11837328355E+03  0.11865663872E+03  0.00000000000E+00 0.  1.
          3    1    3    3  501    0 -0.30444559958E+02 -0.18326766283E+02 -0.42833464745E+03  0.42980613280E+03  0.00000000000E+00 0.  1.
         -3    1    1    2    0  502  0.37974947728E+02  0.21560481594E+02 -0.45136088588E+03  0.45346841160E+03  0.00000000000E+00 0. -1.
<mgrwt>
<rscale>  1 0.30000000E+03</rscale>
<asrwt>0</asrwt>
<pdfrwt beam="1">  1       21 0.70224989E-02 0.30000000E+03</pdfrwt>
<pdfrwt beam="2">0</pdfrwt>
<totfact> 0.16045416E+04</totfact>
</mgrwt>
</event>
<event>
 6    1  0.1198667E-001  0.3000000E+03  0.7818608E-02  0.1093470E+00
         21   -1    0    0  501  502  0.00000000000E+00  0.00000000000E+00  0.10342658906E+01  0.10342658906E+01  0.00000000000E+00 0. -1.
         13   -1    0    0    0    0 -0.00000000000E+00 -0.00000000000E+00 -0.10000000000E+04  0.10000000000E+04  0.00000000000E+00 0.  1.
    9000005    2    1    2  501    0  0.69448003975E+01 -0.30574334687E+02 -0.60672575657E+03  0.60754319843E+03  0.30942001234E+01 0.  0.
         13    1    3    3    0    0  0.36315012725E+01 -0.18614696011E+02 -0.39316129957E+03  0.39361847287E+03  0.00000000000E+00 0.  1.
          1    1    3    3  501    0  0.33132991250E+01 -0.11959638676E+02 -0.21356445700E+03  0.21392472556E+03  0.00000000000E+00 0.  1.
         -3    1    1    2    0  502 -0.69448003975E+01  0.30574334687E+02 -0.39223997754E+03  0.39349106746E+03  0.00000000000E+00 0. -1.
<mgrwt>
<rscale>  1 0.30000000E+03</rscale>
<asrwt>0</asrwt>
<pdfrwt beam="1">  1       21 0.37609748E-02 0.30000000E+03</pdfrwt>
<pdfrwt beam="2">0</pdfrwt>
<totfact> 0.46637827E+04</totfact>
</mgrwt>
</event>
<event>
 6    1  0.1198667E-001  0.3000000E+03  0.7818608E-02  0.1093470E+00
         21   -1    0    0  501  502  0.00000000000E+00  0.00000000000E+00  0.15275483984E+01  0.15275483984E+01  0.00000000000E+00 0. -1.
         13   -1    0    0    0    0 -0.00000000000E+00 -0.00000000000E+00 -0.10000000000E+04  0.10000000000E+04  0.00000000000E+00 0.  1.
    9000005    2    1    2  501    0  0.11898956543E+02 -0.35146436696E+02 -0.65467184832E+03  0.65573033615E+03  0.31918005086E+01 0.  0.
         13    1    3    3    0    0  0.74808865445E+01 -0.17568978873E+02 -0.34750756371E+03  0.34803180820E+03  0.00000000000E+00 0.  1.
          3    1    3    3  501    0  0.44180699984E+01 -0.17577457823E+02 -0.30716428461E+03  0.30769852795E+03  0.00000000000E+00 0.  1.
         -3    1    1    2    0  502 -0.11898956543E+02  0.35146436696E+02 -0.34380060328E+03  0.34579721225E+03  0.00000000000E+00 0. -1.
<mgrwt>
<rscale>  1 0.30000000E+03</rscale>
<asrwt>0</asrwt>
<pdfrwt beam="1">  1       21 0.55547332E-02 0.30000000E+03</pdfrwt>
<pdfrwt beam="2">0</pdfrwt>
<totfact> 0.24061954E+04</totfact>
</mgrwt>
</event>
<event>
 6    1  0.1198667E-001  0.3000000E+03  0.7818608E-02  0.1093470E+00
         21   -1    0    0  501  502  0.00000000000E+00  0.00000000000E+00  0.15863762551E+01  0.15863762551E+01  0.00000000000E+00 0. -1.
         13   -1    0    0    0    0 -0.00000000000E+00 -0.00000000000E+00 -0.10000000000E+04  0.10000000000E+04  0.00000000000E+00 0.  1.
    9000005    2    1    2  501    0 -0.14579786720E+02  0.36912781080E+02 -0.46477599130E+03  0.46647494267E+03  0.26507481783E+01 0.  0.
         13    1    3    3    0    0 -0.24329515399E+01  0.92174781781E+01 -0.10989446167E+03  0.11030717956E+03  0.00000000000E+00 0.  1.
          1    1    3    3  501    0 -0.12146835180E+02  0.27695302902E+02 -0.35488152963E+03  0.35616776311E+03  0.00000000000E+00 0.  1.
         -1    1    1    2    0  502  0.14579786720E+02 -0.36912781080E+02 -0.53363763244E+03  0.53511143358E+03  0.00000000000E+00 0. -1.
<mgrwt>
<rscale>  1 0.30000000E+03</rscale>
<asrwt>0</asrwt>
<pdfrwt beam="1">  1       21 0.57686531E-02 0.30000000E+03</pdfrwt>
<pdfrwt beam="2">0</pdfrwt>
<totfact> 0.22548989E+04</totfact>
</mgrwt>
</event>
<event>
 6    1  0.1198667E-001  0.3000000E+03  0.7818608E-02  0.1093470E+00
         21   -1    0    0  501  502  0.00000000000E+00  0.00000000000E+00  0.26224028045E+01  0.26224028045E+01  0.00000000000E+00 0. -1.
         13   -1    0    0    0    0 -0.00000000000E+00 -0.00000000000E+00 -0.10000000000E+04  0.10000000000E+04  0.00000000000E+00 0.  1.
    9000005    2    1    2  501    0  0.14573946792E+02  0.38544132797E+02 -0.79574353008E+03  0.79682068483E+03  0.41698941193E+01 0.  0.
         13    1    3    3    0    0  0.50293122209E+01  0.19077983729E+02 -0.37137180739E+03  0.37189552669E+03  0.00000000000E+00 0.  1.
          1    1    3    3  501    0  0.95446345709E+01  0.19466149067E+02 -0.42437172268E+03  0.42492515814E+03  0.00000000000E+00 0.  1.
         -1    1    1    2    0  502 -0.14573946792E+02 -0.38544132797E+02 -0.20163406712E+03  0.20580171797E+03  0.00000000000E+00 0. -1.
<mgrwt>
<rscale>  1 0.30000000E+03</rscale>
<asrwt>0</asrwt>
<pdfrwt beam="1">  1       21 0.95360303E-02 0.30000000E+03</pdfrwt>
<pdfrwt beam="2">0</pdfrwt>
<totfact> 0.93643502E+03</totfact>
</mgrwt>
</event>
<event>
 6    1  0.1198667E-001  0.3000000E+03  0.7818608E-02  0.1093470E+00
         21   -1    0    0  501  502  0.00000000000E+00  0.00000000000E+00  0.10796677595E+01  0.10796677595E+01  0.00000000000E+00 0. -1.
         13   -1    0    0    0    0 -0.00000000000E+00 -0.00000000000E+00 -0.10000000000E+04  0.10000000000E+04  0.00000000000E+00 0.  1.
    9000005    2    1    2  501    0  0.24969022224E+01  0.30441690223E+02 -0.68173101260E+03  0.68242311986E+03  0.33481272985E+01 0.  0.
         13    1    3    3    0    0 -0.39186787000E+00  0.15638224697E+02 -0.34990540206E+03  0.35025490436E+03  0.00000000000E+00 0.  1.
          3    1    3    3  501    0  0.28887700924E+01  0.14803465526E+02 -0.33182561053E+03  0.33216821550E+03  0.00000000000E+00 0.  1.
         -1    1    1    2    0  502 -0.24969022224E+01 -0.30441690223E+02 -0.31718931964E+03  0.31865654790E+03  0.00000000000E+00 0. -1.
<mgrwt>
<rscale>  1 0.30000000E+03</rscale>
<asrwt>0</asrwt>
<pdfrwt beam="1">  1       21 0.39260729E-02 0.30000000E+03</pdfrwt>
<pdfrwt beam="2">0</pdfrwt>
<totfact> 0.43388588E+04</totfact>
</mgrwt>
</event>
<event>
 6    1  0.1198667E-001  0.3000000E+03  0.7818608E-02  0.1093470E+00
         21   -1    0    0  501  502  0.00000000000E+00  0.00000000000E+00  0.97652603857E+00  0.97652603857E+00  0.00000000000E+00 0. -1.
         13   -1    0    0    0    0 -0.00000000000E+00 -0.00000000000E+00 -0.10000000000E+04  0.10000000000E+04  0.00000000000E+00 0.  1.
    9000005    2    1    2  501    0 -0.24779242310E+01 -0.30514394774E+02 -0.59467947329E+03  0.59547518291E+03  0.31223575909E+01 0.  0.
         13    1    3    3    0    0 -0.27079562283E+01 -0.15122172419E+02 -0.30693044356E+03  0.30731467636E+03  0.00000000000E+00 0.  1.
          3    1    3    3  501    0  0.23003199730E+00 -0.15392222355E+02 -0.28774902973E+03  0.28816050655E+03  0.00000000000E+00 0.  1.
         -3    1    1    2    0  502  0.24779242310E+01  0.30514394774E+02 -0.40434400067E+03  0.40550134312E+03  0.00000000000E+00 0. -1.
<mgrwt>
<rscale>  1 0.30000000E+03</rscale>
<asrwt>0</asrwt>
<pdfrwt beam="1">  1       21 0.35510113E-02 0.30000000E+03</pdfrwt>
<pdfrwt beam="2">0</pdfrwt>
<totfact> 0.51356626E+04</totfact>
</mgrwt>
</event>
<event>
 6    1  0.1198667E-001  0.3000000E+03  0.7818608E-02  0.1093470E+00
         21   -1    0    0  501  502  0.00000000000E+00  0.00000000000E+00  0.30845924229E+01  0.30845924229E+01  0.00000000000E+00 0. -1.
         13   -1    0    0    0    0 -0.00000000000E+00 -0.00000000000E+00 -0.10000000000E+04  0.10000000000E+04  0.00000000000E+00 0.  1.
    9000005    2    1    2  501    0 -0.48416951368E+00  0.39123899178E+02 -0.85418577762E+03  0.85508911555E+03  0.36247672411E+01 0.  0.
         13    1    3    3    0    0  0.13947488572E+00  0.84222465725E+00 -0.33326177205E+02  0.33337109694E+02  0.00000000000E+00 0.  1.
          3    1    3    3  501    0 -0.62364439940E+00  0.38281674521E+02 -0.82085960041E+03  0.82175200585E+03  0.00000000000E+00 0.  1.
         -1    1    1    2    0  502  0.48416951368E+00 -0.39123899178E+02 -0.14272962996E+03  0.14799547688E+03  0.00000000000E+00 0. -1.
<mgrwt>
<rscale>  1 0.30000000E+03</rscale>
<asrwt>0</asrwt>
<pdfrwt beam="1">  1       21 0.11216723E-01 0.30000000E+03</pdfrwt>
<pdfrwt beam="2">0</pdfrwt>
<totfact> 0.70016675E+03</totfact>
</mgrwt>
</event>
<event>
 6    1  0.1198667E-001  0.3000000E+03  0.7818608E-02  0.1093470E+00
         21   -1    0    0  501  502  0.00000000000E+00  0.00000000000E+00  0.38441363738E+01  0.38441363738E+01  0.00000000000E+00 0. -1.
         13   -1    0    0    0    0 -0.00000000000E+00 -0.00000000000E+00 -0.10000000000E+04  0.10000000000E+04  0.00000000000E+00 0.  1.
    9000005    2    1    2  501    0  0.35427429824E+02  0.31746217973E+02 -0.81981351553E+03  0.82119817044E+03  0.30511883344E+01 0.  0.
         13    1    3    3    0    0  0.59668149408E+01  0.63327910091E+01 -0.16638618838E+03  0.16661353729E+03  0.00000000000E+00 0.  1.
          3    1    3    3  501    0  0.29460614883E+02  0.25413426964E+02 -0.65342732714E+03  0.65458463315E+03  0.00000000000E+00 0.  1.
         -1    1    1    2    0  502 -0.35427429824E+02 -0.31746217973E+02 -0.17634234810E+03  0.18264596594E+03  0.00000000000E+00 0. -1.
<mgrwt>
<rscale>  1 0.30000000E+03</rscale>
<asrwt>0</asrwt>
<pdfrwt beam="1">  1       21 0.13978707E-01 0.30000000E+03</pdfrwt>
<pdfrwt beam="2">0</pdfrwt>
<totfact> 0.46897729E+03</totfact>
</mgrwt>
</event>
<event>
 6    1  0.1198667E-001  0.3000000E+03  0.7818608E-02  0.1093470E+00
         21   -1    0    0  501  502  0.00000000000E+00  0.00000000000E+00  0.16969320323E+01  0.16969320323E+01  0.00000000000E+00 0. -1.
         13   -1    0    0    0    0 -0.00000000000E+00 -0.00000000000E+00 -0.10000000000E+04  0.10000000000E+04  0.00000000000E+00 0.  1.
    9000005    2    1    2  501    0 -0.80114957404E+01  0.39723539399E+02 -0.58539971611E+03  0.58680981290E+03  0.32840901261E+01 0.  0.
         13    1    3    3    0    0  0.29106509784E+00  0.77463534406E+00 -0.10716030726E+02  0.10747934375E+02  0.00000000000E+00 0.  1.
          1    1    3    3  501    0 -0.83025608382E+01  0.38948904054E+02 -0.57468368539E+03  0.57606187853E+03  0.00000000000E+00 0.  1.
         -1    1    1    2    0  502  0.80114957404E+01 -0.39723539399E+02 -0.41290335185E+03  0.41488711913E+03  0.00000000000E+00 0. -1.
<mgrwt>
<rscale>  1 0.30000000E+03</rscale>
<asrwt>0</asrwt>
<pdfrwt beam="1">  1       21 0.61706749E-02 0.30000000E+03</pdfrwt>
<pdfrwt beam="2">0</pdfrwt>
<totfact> 0.20076039E+04</totfact>
</mgrwt>
</event>
<event>
 6    1  0.1198667E-001  0.3000000E+03  0.7818608E-02  0.1093470E+00
         21   -1    0    0  501  502  0.00000000000E+00  0.00000000000E+00  0.30666222201E+01  0.30666222201E+01  0.00000000000E+00 0. -1.
         13   -1    0    0    0    0 -0.00000000000E+00 -0.00000000000E+00 -0.10000000000E+04  0.10000000000E+04  0.00000000000E+00 0.  1.
    9000005    2    1    2  501    0 -0.42384660023E+02  0.37661384030E+00 -0.82095639178E+03  0.82205695163E+03  0.34107603442E+01 0.  0.
         13    1    3    3    0    0 -0.22153900997E+02  0.93712674028E+00 -0.39944729231E+03  0.40006226124E+03  0.00000000000E+00 0.  1.
          1    1    3    3  501    0 -0.20230759026E+02 -0.56051289998E+00 -0.42150909946E+03  0.42199469039E+03  0.00000000000E+00 0.  1.
         -1    1    1    2    0  502  0.42384660023E+02 -0.37661384030E+00 -0.17597698600E+03  0.18100967059E+03  0.00000000000E+00 0. -1.
<mgrwt>
<rscale>  1 0.30000000E+03</rscale>
<asrwt>0</asrwt>
<pdfrwt beam="1">  1       21 0.11151377E-01 0.30000000E+03</pdfrwt>
<pdfrwt beam="2">0</pdfrwt>
<totfact> 0.70757664E+03</totfact>
</mgrwt>
</event>
<event>
 6    1  0.1198667E-001  0.3000000E+03  0.7818608E-02  0.1093470E+00
         21   -1    0    0  501  502  0.00000000000E+00  0.00000000000E+00  0.24640161689E+01  0.24640161689E+01  0.00000000000E+00 0. -1.
         13   -1    0    0    0    0 -0.00000000000E+00 -0.00000000000E+00 -0.10000000000E+04  0.10000000000E+04  0.00000000000E+00 0.  1.
    9000005    2    1    2  501    0  0.12811166645E+02 -0.41762334012E+02 -0.73637678472E+03  0.73767665655E+03  0.28039281136E+01 0.  0.
         13    1    3    3    0    0  0.41439988620E+01 -0.11713958259E+02 -0.22931049699E+03  0.22964688889E+03  0.00000000000E+00 0.  1.
          3    1    3    3  501    0  0.86671677835E+01 -0.30048375753E+02 -0.50706628773E+03  0.50802976767E+03  0.00000000000E+00 0.  1.
         -3    1    1    2    0  502 -0.12811166645E+02  0.41762334012E+02 -0.26115919911E+03  0.26478735962E+03  0.00000000000E+00 0. -1.
<mgrwt>
<rscale>  1 0.30000000E+03</rscale>
<asrwt>0</asrwt>
<pdfrwt beam="1">  1       21 0.89600777E-02 0.30000000E+03</pdfrwt>
<pdfrwt beam="2">0</pdfrwt>
<totfact> 0.10460136E+04</totfact>
</mgrwt>
</event>
<event>
 6    1  0.1198667E-001  0.3000000E+03  0.7818608E-02  0.1093470E+00
         21   -1    0    0  501  502  0.00000000000E+00  0.00000000000E+00  0.19486020196E+01  0.19486020196E+01  0.00000000000E+00 0. -1.
         13   -1    0    0    0    0 -0.00000000000E+00 -0.00000000000E+00 -0.10000000000E+04  0.10000000000E+04  0.00000000000E+00 0.  1.
    9000005    2    1    2  501    0  0.36819981902E+02 -0.11316949736E+02 -0.74319785288E+03  0.74420044225E+03  0.27322680620E+01 0.  0.
         13    1    3    3    0    0  0.26320648286E+02 -0.93049755166E+01 -0.53000751308E+03  0.53074223783E+03  0.00000000000E+00 0.  1.
          3    1    3    3  501    0  0.10499333616E+02 -0.20119742197E+01 -0.21319033980E+03  0.21345820442E+03  0.00000000000E+00 0.  1.
         -3    1    1    2    0  502 -0.36819981902E+02  0.11316949736E+02 -0.25485354510E+03  0.25774815977E+03  0.00000000000E+00 0. -1.
<mgrwt>
<rscale>  1 0.30000000E+03</rscale>
<asrwt>0</asrwt>
<pdfrwt beam="1">  1       21 0.70858405E-02 0.30000000E+03</pdfrwt>
<pdfrwt beam="2">0</pdfrwt>
<totfact> 0.15796465E+04</totfact>
</mgrwt>
</event>
<event>
 6    1  0.1198667E-001  0.3000000E+03  0.7818608E-02  0.1093470E+00
         21   -1    0    0  501  502  0.00000000000E+00  0.00000000000E+00  0.46226567665E+01  0.46226567665E+01  0.00000000000E+00 0. -1.
         13   -1    0    0    0    0 -0.00000000000E+00 -0.00000000000E+00 -0.10000000000E+04  0.10000000000E+04  0.00000000000E+00 0.  1.
    9000005    2    1    2  501    0  0.32821862682E+02 -0.92624396638E+01 -0.93219103369E+03  0.93282030881E+03  0.32461943412E+01 0.  0.
         13    1    3    3    0    0  0.14422475006E+02 -0.40557762382E+01 -0.36615190194E+03  0.36645828194E+03  0.00000000000E+00 0.  1.
          3    1    3    3  501    0  0.18399387676E+02 -0.52066634256E+01 -0.56603913175E+03  0.56636202687E+03  0.00000000000E+00 0.  1.
         -1    1    1    2    0  502 -0.32821862682E+02  0.92624396638E+01 -0.63186309546E+02  0.71802347960E+02  0.00000000000E+00 0. -1.
<mgrwt>
<rscale>  1 0.30000000E+03</rscale>
<asrwt>0</asrwt>
<pdfrwt beam="1">  1       21 0.16809696E-01 0.30000000E+03</pdfrwt>
<pdfrwt beam="2">0</pdfrwt>
<totfact> 0.33309846E+03</totfact>
</mgrwt>
</event>
<event>
 6    1  0.1198667E-001  0.3000000E+03  0.7818608E-02  0.1093470E+00
         21   -1    0    0  501  502  0.00000000000E+00  0.00000000000E+00  0.14735098529E+01  0.14735098529E+01  0.00000000000E+00 0. -1.
         13   -1    0    0    0    0 -0.00000000000E+00 -0.00000000000E+00 -0.10000000000E+04  0.10000000000E+04  0.00000000000E+00 0.  1.
    9000005    2    1    2  501    0 -0.14174849286E+02  0.32706451739E+02 -0.68346678301E+03  0.68440371092E+03  0.33102413231E+01 0.  0.
         13    1    3    3    0    0 -0.42940093062E+01  0.86728607076E+01 -0.16010091446E+03  0.16039314150E+03  0.00000000000E+00 0.  1.
          3    1    3    3  501    0 -0.98808399795E+01  0.24033591031E+02 -0.52336586856E+03  0.52401056942E+03  0.00000000000E+00 0.  1.
         -3    1    1    2    0  502  0.14174849286E+02 -0.32706451739E+02 -0.31505970713E+03  0.31706979893E+03  0.00000000000E+00 0. -1.
<mgrwt>
<rscale>  1 0.30000000E+03</rscale>
<asrwt>0</asrwt>
<pdfrwt beam="1">  1       21 0.53582289E-02 0.30000000E+03</pdfrwt>
<pdfrwt beam="2">0</pdfrwt>
<totfact> 0.25593893E+04</totfact>
</mgrwt>
</event>
<event>
 6    1  0.1198667E-001  0.3000000E+03  0.7818608E-02  0.1093470E+00
         21   -1    0    0  501  502  0.00000000000E+00  0.00000000000E+00  0.40067889382E+01  0.40067889382E+01  0.00000000000E+00 0. -1.
         13   -1    0    0    0    0 -0.00000000000E+00 -0.00000000000E+00 -0.10000000000E+04  0.10000000000E+04  0.00000000000E+00 0.  1.
    9000005    2    1    2  501    0 -0.28492451759E+02  0.95258444881E+01 -0.93948689011E+03  0.94001049351E+03  0.90304877349E+01 0.  0.
         13    1    3    3    0    0 -0.17506046884E+02  0.11746051676E+01 -0.50716059077E+03  0.50746399498E+03  0.00000000000E+00 0.  1.
          3    1    3    3  501    0 -0.10986404875E+02  0.83512393205E+01 -0.43232629934E+03  0.43254649853E+03  0.00000000000E+00 0.  1.
         -3    1    1    2    0  502  0.28492451759E+02 -0.95258444881E+01 -0.56506320955E+02  0.63996295427E+02  0.00000000000E+00 0. -1.
<mgrwt>
<rscale>  1 0.30000000E+03</rscale>
<asrwt>0</asrwt>
<pdfrwt beam="1">  1       21 0.14570172E-01 0.30000000E+03</pdfrwt>
<pdfrwt beam="2">0</pdfrwt>
<totfact> 0.43453145E+03</totfact>
</mgrwt>
</event>
<event>
 6    1  0.1198667E-001  0.3000000E+03  0.7818608E-02  0.1093470E+00
         21   -1    0    0  501  502  0.00000000000E+00  0.00000000000E+00  0.26288207267E+01  0.26288207267E+01  0.00000000000E+00 0. -1.
         13   -1    0    0    0    0 -0.00000000000E+00 -0.00000000000E+00 -0.10000000000E+04  0.10000000000E+04  0.00000000000E+00 0.  1.
    9000005    2    1    2  501    0  0.36401156548E+02 -0.25894469188E+02 -0.74272496496E+03  0.74409398324E+03  0.63177986452E+01 0.  0.
         13    1    3    3    0    0  0.36649494996E+02 -0.25882926229E+02 -0.73860975112E+03  0.73997126688E+03  0.00000000000E+00 0.  1.
          3    1    3    3  501    0 -0.24833844823E+00 -0.11542958923E-01 -0.41152138373E+01  0.41227163559E+01  0.00000000000E+00 0.  1.
         -1    1    1    2    0  502 -0.36401156548E+02  0.25894469188E+02 -0.25464621431E+03  0.25853483749E+03  0.00000000000E+00 0. -1.
<mgrwt>
<rscale>  1 0.30000000E+03</rscale>
<asrwt>0</asrwt>
<pdfrwt beam="1">  1       21 0.95593683E-02 0.30000000E+03</pdfrwt>
<pdfrwt beam="2">0</pdfrwt>
<totfact> 0.93236420E+03</totfact>
</mgrwt>
</event>
<event>
 6    1  0.1198667E-001  0.3000000E+03  0.7818608E-02  0.1093470E+00
         21   -1    0    0  501  502  0.00000000000E+00  0.00000000000E+00  0.26340129692E+01  0.26340129692E+01  0.00000000000E+00 0. -1.
         13   -1    0    0    0    0 -0.00000000000E+00 -0.00000000000E+00 -0.10000000000E+04  0.10000000000E+04  0.00000000000E+00 0.  1.
    9000005    2    1    2  501    0  0.14192214205E+02 -0.28879476268E+02 -0.88905895580E+03  0.88964792485E+03  0.34871500109E+01 0.  0.
         13    1    3    3    0    0  0.30094546509E+01 -0.97077424995E+01 -0.28872649843E+03  0.28890532702E+03  0.00000000000E+00 0.  1.
          3    1    3    3  501    0  0.11182759554E+02 -0.19171733769E+02 -0.60033245737E+03  0.60074259784E+03  0.00000000000E+00 0.  1.
         -3    1    1    2    0  502 -0.14192214205E+02  0.28879476268E+02 -0.10830703123E+03  0.11298608812E+03  0.00000000000E+00 0. -1.
<mgrwt>
<rscale>  1 0.30000000E+03</rscale>
<asrwt>0</asrwt>
<pdfrwt beam="1">  1       21 0.95782492E-02 0.30000000E+03</pdfrwt>
<pdfrwt beam="2">0</pdfrwt>
<totfact> 0.92909057E+03</totfact>
</mgrwt>
</event>
<event>
 6    1  0.1198667E-001  0.3000000E+03  0.7818608E-02  0.1093470E+00
         21   -1    0    0  501  502  0.00000000000E+00  0.00000000000E+00  0.27596984350E+01  0.27596984350E+01  0.00000000000E+00 0. -1.
         13   -1    0    0    0    0 -0.00000000000E+00 -0.00000000000E+00 -0.10000000000E+04  0.10000000000E+04  0.00000000000E+00 0.  1.
    9000005    2    1    2  501    0  0.29970672128E+02  0.26080866591E+02 -0.82634836946E+03  0.82731026056E+03  0.34909510400E+01 0.  0.
         13    1    3    3    0    0  0.23502312990E+02  0.19856982285E+02 -0.60928699781E+03  0.61006336077E+03  0.00000000000E+00 0.  1.
          1    1    3    3  501    0  0.64683591376E+01  0.62238843052E+01 -0.21706137165E+03  0.21724689979E+03  0.00000000000E+00 0.  1.
         -1    1    1    2    0  502 -0.29970672128E+02 -0.26080866591E+02 -0.17089193211E+03  0.17544943787E+03  0.00000000000E+00 0. -1.
<mgrwt>
<rscale>  1 0.30000000E+03</rscale>
<asrwt>0</asrwt>
<pdfrwt beam="1">  1       21 0.10035288E-01 0.30000000E+03</pdfrwt>
<pdfrwt beam="2">0</pdfrwt>
<totfact> 0.85492108E+03</totfact>
</mgrwt>
</event>
<event>
 6    1  0.1198667E-001  0.3000000E+03  0.7818608E-02  0.1093470E+00
         21   -1    0    0  501  502  0.00000000000E+00  0.00000000000E+00  0.38888009764E+01  0.38888009764E+01  0.00000000000E+00 0. -1.
         13   -1    0    0    0    0 -0.00000000000E+00 -0.00000000000E+00 -0.10000000000E+04  0.10000000000E+04  0.00000000000E+00 0.  1.
    9000005    2    1    2  501    0  0.19070889432E+02 -0.30470042180E+02 -0.90818317092E+03  0.90889690437E+03  0.21882736798E+01 0.  0.
         13    1    3    3    0    0  0.28935647277E+01 -0.59996925007E+01 -0.15739478413E+03  0.15753566929E+03  0.00000000000E+00 0.  1.
          1    1    3    3  501    0  0.16177324705E+02 -0.24470349680E+02 -0.75078838679E+03  0.75136123509E+03  0.00000000000E+00 0.  1.
         -1    1    1    2    0  502 -0.19070889432E+02  0.30470042180E+02 -0.87928028105E+02  0.94991896606E+02  0.00000000000E+00 0. -1.
<mgrwt>
<rscale>  1 0.30000000E+03</rscale>
<asrwt>0</asrwt>
<pdfrwt beam="1">  1       21 0.14141124E-01 0.30000000E+03</pdfrwt>
<pdfrwt beam="2">0</pdfrwt>
<totfact> 0.45912429E+03</totfact>
</mgrwt>
</event>
<event>
 6    1  0.1198667E-001  0.3000000E+03  0.7818608E-02  0.1093470E+00
         21   -1    0    0  501  502  0.00000000000E+00  0.00000000000E+00  0.18828270570E+01  0.18828270570E+01  0.00000000000E+00 0. -1.
         13   -1    0    0    0    0 -0.00000000000E+00 -0.00000000000E+00 -0.10000000000E+04  0.10000000000E+04  0.00000000000E+00 0.  1.
    9000005    2    1    2  501    0 -0.75301336673E+01  0.40337226245E+02 -0.33895639557E+03  0.34144605858E+03  0.31903111650E+01 0.  0.
         13    1    3    3    0    0 -0.19479620677E+01  0.61926839237E+01 -0.46758009748E+02  0.47206518257E+02  0.00000000000E+00 0.  1.
          1    1    3    3  501    0 -0.55821715996E+01  0.34144542321E+02 -0.29219838583E+03  0.29423954032E+03  0.00000000000E+00 0.  1.
         -1    1    1    2    0  502  0.75301336673E+01 -0.40337226245E+02 -0.65916077737E+03  0.66043676848E+03  0.00000000000E+00 0. -1.
<mgrwt>
<rscale>  1 0.30000000E+03</rscale>
<asrwt>0</asrwt>
<pdfrwt beam="1">  1       21 0.68466583E-02 0.30000000E+03</pdfrwt>
<pdfrwt beam="2">0</pdfrwt>
<totfact> 0.16768842E+04</totfact>
</mgrwt>
</event>
<event>
 6    1  0.1198667E-001  0.3000000E+03  0.7818608E-02  0.1093470E+00
         21   -1    0    0  501  502  0.00000000000E+00  0.00000000000E+00  0.12135368830E+01  0.12135368830E+01  0.00000000000E+00 0. -1.
         13   -1    0    0    0    0 -0.00000000000E+00 -0.00000000000E+00 -0.10000000000E+04  0.10000000000E+04  0.00000000000E+00 0.  1.
    9000005    2    1    2  501    0 -0.20845127085E+02 -0.26702252043E+02 -0.39201456538E+03  0.39349677270E+03  0.40940281827E+01 0.  0.
         13    1    3    3    0    0 -0.53401434205E+01 -0.46535050484E+01 -0.70933998176E+02  0.71286775339E+02  0.00000000000E+00 0.  1.
          3    1    3    3  501    0 -0.15504983664E+02 -0.22048746995E+02 -0.32108056721E+03  0.32220999736E+03  0.00000000000E+00 0.  1.
         -3    1    1    2    0  502  0.20845127085E+02  0.26702252043E+02 -0.60677189773E+03  0.60771676418E+03  0.00000000000E+00 0. -1.
<mgrwt>
<rscale>  1 0.30000000E+03</rscale>
<asrwt>0</asrwt>
<pdfrwt beam="1">  1       21 0.44128707E-02 0.30000000E+03</pdfrwt>
<pdfrwt beam="2">0</pdfrwt>
<totfact> 0.35619706E+04</totfact>
</mgrwt>
</event>
<event>
 6    1  0.1198667E-001  0.3000000E+03  0.7818608E-02  0.1093470E+00
         21   -1    0    0  501  502  0.00000000000E+00  0.00000000000E+00  0.17402675801E+01  0.17402675801E+01  0.00000000000E+00 0. -1.
         13   -1    0    0    0    0 -0.00000000000E+00 -0.00000000000E+00 -0.10000000000E+04  0.10000000000E+04  0.00000000000E+00 0.  1.
    9000005    2    1    2  501    0  0.28176466704E+02  0.21555718918E+02 -0.76193584470E+03  0.76276842363E+03  0.32976285170E+01 0.  0.
         13    1    3    3    0    0  0.10993013605E+01  0.14377295048E+00 -0.24249100945E+02  0.24274431626E+02  0.00000000000E+00 0.  1.
          3    1    3    3  501    0  0.27077165343E+02  0.21411945967E+02 -0.73768674376E+03  0.73849399200E+03  0.00000000000E+00 0.  1.
         -1    1    1    2    0  502 -0.28176466704E+02 -0.21555718918E+02 -0.23632388772E+03  0.23897184395E+03  0.00000000000E+00 0. -1.
<mgrwt>
<rscale>  1 0.30000000E+03</rscale>
<asrwt>0</asrwt>
<pdfrwt beam="1">  1       21 0.63282591E-02 0.30000000E+03</pdfrwt>
<pdfrwt beam="2">0</pdfrwt>
<totfact> 0.19220137E+04</totfact>
</mgrwt>
</event>
<event>
 6    1  0.1198667E-001  0.3000000E+03  0.7818608E-02  0.1093470E+00
         21   -1    0    0  501  502  0.00000000000E+00  0.00000000000E+00  0.20071765205E+01  0.20071765205E+01  0.00000000000E+00 0. -1.
         13   -1    0    0    0    0 -0.00000000000E+00 -0.00000000000E+00 -0.10000000000E+04  0.10000000000E+04  0.00000000000E+00 0.  1.
    9000005    2    1    2  501    0 -0.26890163429E+02 -0.25560158752E+02 -0.77937366490E+03  0.78026241536E+03  0.31184414541E+01 0.  0.
         13    1    3    3    0    0 -0.23886363741E+02 -0.21628543258E+02 -0.65971512235E+03  0.66050162370E+03  0.00000000000E+00 0.  1.
          1    1    3    3  501    0 -0.30037996877E+01 -0.39316154937E+01 -0.11965854255E+03  0.11976079165E+03  0.00000000000E+00 0.  1.
         -1    1    1    2    0  502  0.26890163429E+02  0.25560158752E+02 -0.21861915858E+03  0.22174476116E+03  0.00000000000E+00 0. -1.
<mgrwt>
<rscale>  1 0.30000000E+03</rscale>
<asrwt>0</asrwt>
<pdfrwt beam="1">  1       21 0.72988391E-02 0.30000000E+03</pdfrwt>
<pdfrwt beam="2">0</pdfrwt>
<totfact> 0.15001099E+04</totfact>
</mgrwt>
</event>
<event>
 6    1  0.1198667E-001  0.3000000E+03  0.7818608E-02  0.1093470E+00
         21   -1    0    0  501  502  0.00000000000E+00  0.00000000000E+00  0.14075430378E+01  0.14075430378E+01  0.00000000000E+00 0. -1.
         13   -1    0    0    0    0 -0.00000000000E+00 -0.00000000000E+00 -0.10000000000E+04  0.10000000000E+04  0.00000000000E+00 0.  1.
    9000005    2    1    2  501    0  0.25219014959E+02  0.16414787754E+02 -0.20259668321E+03  0.20484322310E+03  0.31442055041E+01 0.  0.
         13    1    3    3    0    0  0.20947863731E+02  0.12185768749E+02 -0.16433689814E+03  0.16611418376E+03  0.00000000000E+00 0.  1.
          3    1    3    3  501    0  0.42711512287E+01  0.42290190050E+01 -0.38259785067E+02  0.38729039336E+02  0.00000000000E+00 0.  1.
         -1    1    1    2    0  502 -0.25219014959E+02 -0.16414787754E+02 -0.79599577375E+03  0.79656431994E+03  0.00000000000E+00 0. -1.
<mgrwt>
<rscale>  1 0.30000000E+03</rscale>
<asrwt>0</asrwt>
<pdfrwt beam="1">  1       21 0.51183491E-02 0.30000000E+03</pdfrwt>
<pdfrwt beam="2">0</pdfrwt>
<totfact> 0.27677859E+04</totfact>
</mgrwt>
</event>
<event>
 6    1  0.1198667E-001  0.3000000E+03  0.7818608E-02  0.1093470E+00
         21   -1    0    0  501  502  0.00000000000E+00  0.00000000000E+00  0.90731629040E+00  0.90731629040E+00  0.00000000000E+00 0. -1.
         13   -1    0    0    0    0 -0.00000000000E+00 -0.00000000000E+00 -0.10000000000E+04  0.10000000000E+04  0.00000000000E+00 0.  1.
    9000005    2    1    2  501    0 -0.28833598083E+02  0.83559780424E+01 -0.47192861143E+03  0.47288917470E+03  0.25216093248E+01 0.  0.
         13    1    3    3    0    0 -0.18294054085E+02  0.65550975947E+01 -0.30327391870E+03  0.30389588922E+03  0.00000000000E+00 0.  1.
          3    1    3    3  501    0 -0.10539543998E+02  0.18008804477E+01 -0.16865469273E+03  0.16899328548E+03  0.00000000000E+00 0.  1.
         -3    1    1    2    0  502  0.28833598083E+02 -0.83559780424E+01 -0.52716407228E+03  0.52801814159E+03  0.00000000000E+00 0. -1.
<mgrwt>
<rscale>  1 0.30000000E+03</rscale>
<asrwt>0</asrwt>
<pdfrwt beam="1">  1       21 0.32993389E-02 0.30000000E+03</pdfrwt>
<pdfrwt beam="2">0</pdfrwt>
<totfact> 0.58072920E+04</totfact>
</mgrwt>
</event>
<event>
 6    1  0.1198667E-001  0.3000000E+03  0.7818608E-02  0.1093470E+00
         21   -1    0    0  501  502  0.00000000000E+00  0.00000000000E+00  0.29493179833E+01  0.29493179833E+01  0.00000000000E+00 0. -1.
         13   -1    0    0    0    0 -0.00000000000E+00 -0.00000000000E+00 -0.10000000000E+04  0.10000000000E+04  0.00000000000E+00 0.  1.
    9000005    2    1    2  501    0 -0.35815813942E+02 -0.94927250289E+01 -0.86496693705E+03  0.86576695745E+03  0.34260863146E+01 0.  0.
         13    1    3    3    0    0 -0.20823481958E+02 -0.59401412247E+01 -0.46666268063E+03  0.46716481050E+03  0.00000000000E+00 0.  1.
          1    1    3    3  501    0 -0.14992331984E+02 -0.35525838042E+01 -0.39830425642E+03  0.39860214695E+03  0.00000000000E+00 0.  1.
         -3    1    1    2    0  502  0.35815813942E+02  0.94927250289E+01 -0.13208374497E+03  0.13718236053E+03  0.00000000000E+00 0. -1.
<mgrwt>
<rscale>  1 0.30000000E+03</rscale>
<asrwt>0</asrwt>
<pdfrwt beam="1">  1       21 0.10724815E-01 0.30000000E+03</pdfrwt>
<pdfrwt beam="2">0</pdfrwt>
<totfact> 0.75898634E+03</totfact>
</mgrwt>
</event>
<event>
 6    1  0.1198667E-001  0.3000000E+03  0.7818608E-02  0.1093470E+00
         21   -1    0    0  501  502  0.00000000000E+00  0.00000000000E+00  0.44079005122E+01  0.44079005122E+01  0.00000000000E+00 0. -1.
         13   -1    0    0    0    0 -0.00000000000E+00 -0.00000000000E+00 -0.10000000000E+04  0.10000000000E+04  0.00000000000E+00 0.  1.
    9000005    2    1    2  501    0  0.14240926300E+02  0.64802042994E+02 -0.50423444904E+03  0.50859094899E+03  0.32039105889E+01 0.  0.
         13    1    3    3    0    0  0.85810261170E+01  0.42301618842E+02 -0.33821614316E+03  0.34095926510E+03  0.00000000000E+00 0.  1.
          1    1    3    3  501    0  0.56599001830E+01  0.22500424152E+02 -0.16601830588E+03  0.16763168389E+03  0.00000000000E+00 0.  1.
         -1    1    1    2    0  502 -0.14240926300E+02 -0.64802042994E+02 -0.49135765045E+03  0.49581695152E+03  0.00000000000E+00 0. -1.
<mgrwt>
<rscale>  1 0.30000000E+03</rscale>
<asrwt>0</asrwt>
<pdfrwt beam="1">  1       21 0.16028763E-01 0.30000000E+03</pdfrwt>
<pdfrwt beam="2">0</pdfrwt>
<totfact> 0.36404560E+03</totfact>
</mgrwt>
</event>
<event>
 6    1  0.1198667E-001  0.3000000E+03  0.7818608E-02  0.1093470E+00
         21   -1    0    0  501  502  0.00000000000E+00  0.00000000000E+00  0.11645748364E+01  0.11645748364E+01  0.00000000000E+00 0. -1.
         13   -1    0    0    0    0 -0.00000000000E+00 -0.00000000000E+00 -0.10000000000E+04  0.10000000000E+04  0.00000000000E+00 0.  1.
    9000005    2    1    2  501    0 -0.30165081088E+02  0.15413359638E+02 -0.55188834172E+03  0.55293561641E+03  0.30903716588E+01 0.  0.
         13    1    3    3    0    0 -0.25017235921E+01  0.22901445439E+01 -0.52118929803E+02  0.52229170267E+02  0.00000000000E+00 0.  1.
          1    1    3    3  501    0 -0.27663357496E+02  0.13123215094E+02 -0.49976941192E+03  0.50070644615E+03  0.00000000000E+00 0.  1.
         -3    1    1    2    0  502  0.30165081088E+02 -0.15413359638E+02 -0.44694708344E+03  0.44822895842E+03  0.00000000000E+00 0. -1.
<mgrwt>
<rscale>  1 0.30000000E+03</rscale>
<asrwt>0</asrwt>
<pdfrwt beam="1">  1       21 0.42348265E-02 0.30000000E+03</pdfrwt>
<pdfrwt beam="2">0</pdfrwt>
<totfact> 0.38190048E+04</totfact>
</mgrwt>
</event>
<event>
 6    1  0.1198667E-001  0.3000000E+03  0.7818608E-02  0.1093470E+00
         21   -1    0    0  501  502  0.00000000000E+00  0.00000000000E+00  0.13161878538E+01  0.13161878538E+01  0.00000000000E+00 0. -1.
         13   -1    0    0    0    0 -0.00000000000E+00 -0.00000000000E+00 -0.10000000000E+04  0.10000000000E+04  0.00000000000E+00 0.  1.
    9000005    2    1    2  501    0  0.22648253804E+02  0.22621022392E+02 -0.73370892045E+03  0.73441480666E+03  0.34167582719E+01 0.  0.
         13    1    3    3    0    0  0.59075926113E+01  0.81259539842E+01 -0.23241567165E+03  0.23263270451E+03  0.00000000000E+00 0.  1.
          3    1    3    3  501    0  0.16740661193E+02  0.14495068408E+02 -0.50129324880E+03  0.50178210215E+03  0.00000000000E+00 0.  1.
         -3    1    1    2    0  502 -0.22648253804E+02 -0.22621022392E+02 -0.26497489169E+03  0.26690138119E+03  0.00000000000E+00 0. -1.
<mgrwt>
<rscale>  1 0.30000000E+03</rscale>
<asrwt>0</asrwt>
<pdfrwt beam="1">  1       21 0.47861477E-02 0.30000000E+03</pdfrwt>
<pdfrwt beam="2">0</pdfrwt>
<totfact> 0.31030759E+04</totfact>
</mgrwt>
</event>
<event>
 6    1  0.1198667E-001  0.3000000E+03  0.7818608E-02  0.1093470E+00
         21   -1    0    0  501  502  0.00000000000E+00  0.00000000000E+00  0.28843668533E+01  0.28843668533E+01  0.00000000000E+00 0. -1.
         13   -1    0    0    0    0 -0.00000000000E+00 -0.00000000000E+00 -0.10000000000E+04  0.10000000000E+04  0.00000000000E+00 0.  1.
    9000005    2    1    2  501    0  0.52309313213E+02 -0.82808472276E+01 -0.55657343670E+03  0.55917019813E+03  0.96168265109E+01 0.  0.
         13    1    3    3    0    0  0.45869150864E+02 -0.39443718954E+01 -0.48197959307E+03  0.48417338342E+03  0.00000000000E+00 0.  1.
          1    1    3    3  501    0  0.64401623488E+01 -0.43364753321E+01 -0.74593843627E+02  0.74996814709E+02  0.00000000000E+00 0.  1.
         -1    1    1    2    0  502 -0.52309313213E+02  0.82808472276E+01 -0.44054219645E+03  0.44371416873E+03  0.00000000000E+00 0. -1.
<mgrwt>
<rscale>  1 0.30000000E+03</rscale>
<asrwt>0</asrwt>
<pdfrwt beam="1">  1       21 0.10488629E-01 0.30000000E+03</pdfrwt>
<pdfrwt beam="2">0</pdfrwt>
<totfact> 0.78991962E+03</totfact>
</mgrwt>
</event>
<event>
 6    1  0.1198667E-001  0.3000000E+03  0.7818608E-02  0.1093470E+00
         21   -1    0    0  501  502  0.00000000000E+00  0.00000000000E+00  0.21886816819E+01  0.21886816819E+01  0.00000000000E+00 0. -1.
         13   -1    0    0    0    0 -0.00000000000E+00 -0.00000000000E+00 -0.10000000000E+04  0.10000000000E+04  0.00000000000E+00 0.  1.
    9000005    2    1    2  501    0 -0.30145310638E+01 -0.32250781114E+02 -0.86030790089E+03  0.86092159392E+03  0.26657581054E+01 0.  0.
         13    1    3    3    0    0 -0.29810136502E+01 -0.23917730495E+02 -0.61466380625E+03  0.61513619548E+03  0.00000000000E+00 0.  1.
          1    1    3    3  501    0 -0.33517413571E-01 -0.83330506184E+01 -0.24564409464E+03  0.24578539844E+03  0.00000000000E+00 0.  1.
         -1    1    1    2    0  502  0.30145310638E+01  0.32250781114E+02 -0.13750341743E+03  0.14126708776E+03  0.00000000000E+00 0. -1.
<mgrwt>
<rscale>  1 0.30000000E+03</rscale>
<asrwt>0</asrwt>
<pdfrwt beam="1">  1       21 0.79588593E-02 0.30000000E+03</pdfrwt>
<pdfrwt beam="2">0</pdfrwt>
<totfact> 0.12890058E+04</totfact>
</mgrwt>
</event>
<event>
 6    1  0.1198667E-001  0.3000000E+03  0.7818608E-02  0.1093470E+00
         21   -1    0    0  501  502  0.00000000000E+00  0.00000000000E+00  0.10125900341E+01  0.10125900341E+01  0.00000000000E+00 0. -1.
         13   -1    0    0    0    0 -0.00000000000E+00 -0.00000000000E+00 -0.10000000000E+04  0.10000000000E+04  0.00000000000E+00 0.  1.
    9000005    2    1    2  501    0 -0.53647084183E+01 -0.29520862143E+02 -0.34270584572E+03  0.34404550336E+03  0.44441305689E+01 0.  0.
         13    1    3    3    0    0 -0.46476007093E+01 -0.24657600689E+02 -0.30284108208E+03  0.30387878909E+03  0.00000000000E+00 0.  1.
          3    1    3    3  501    0 -0.71710770902E+00 -0.48632614546E+01 -0.39864763639E+02  0.40166714272E+02  0.00000000000E+00 0.  1.
         -1    1    1    2    0  502  0.53647084183E+01  0.29520862143E+02 -0.65628156425E+03  0.65696708667E+03  0.00000000000E+00 0. -1.
<mgrwt>
<rscale>  1 0.30000000E+03</rscale>
<asrwt>0</asrwt>
<pdfrwt beam="1">  1       21 0.36821533E-02 0.30000000E+03</pdfrwt>
<pdfrwt beam="2">0</pdfrwt>
<totfact> 0.48326008E+04</totfact>
</mgrwt>
</event>
<event>
 6    1  0.1198667E-001  0.3000000E+03  0.7818608E-02  0.1093470E+00
         21   -1    0    0  501  502  0.00000000000E+00  0.00000000000E+00  0.29581409897E+01  0.29581409897E+01  0.00000000000E+00 0. -1.
         13   -1    0    0    0    0 -0.00000000000E+00 -0.00000000000E+00 -0.10000000000E+04  0.10000000000E+04  0.00000000000E+00 0.  1.
    9000005    2    1    2  501    0  0.30073615500E+02 -0.64697570127E+01 -0.91193448897E+03  0.91246203864E+03  0.40223977455E+01 0.  0.
         13    1    3    3    0    0  0.27518554879E+01 -0.10739217352E+01 -0.12503004258E+03  0.12506493339E+03  0.00000000000E+00 0.  1.
          3    1    3    3  501    0  0.27321760012E+02 -0.53958352776E+01 -0.78690444640E+03  0.78739710526E+03  0.00000000000E+00 0.  1.
         -3    1    1    2    0  502 -0.30073615500E+02  0.64697570127E+01 -0.85107370039E+02  0.90496102347E+02  0.00000000000E+00 0. -1.
<mgrwt>
<rscale>  1 0.30000000E+03</rscale>
<asrwt>0</asrwt>
<pdfrwt beam="1">  1       21 0.10756899E-01 0.30000000E+03</pdfrwt>
<pdfrwt beam="2">0</pdfrwt>
<totfact> 0.75492630E+03</totfact>
</mgrwt>
</event>
<event>
 6    1  0.1198667E-001  0.3000000E+03  0.7818608E-02  0.1093470E+00
         21   -1    0    0  501  502  0.00000000000E+00  0.00000000000E+00  0.16801637140E+01  0.16801637140E+01  0.00000000000E+00 0. -1.
         13   -1    0    0    0    0 -0.00000000000E+00 -0.00000000000E+00 -0.10000000000E+04  0.10000000000E+04  0.00000000000E+00 0.  1.
    9000005    2    1    2  501    0 -0.28511177544E+02 -0.15817164200E+02 -0.80206737739E+03  0.80273771588E+03  0.35626803804E+01 0.  0.
         13    1    3    3    0    0 -0.16652217209E+02 -0.76614910533E+01 -0.42196354709E+03  0.42236149192E+03  0.00000000000E+00 0.  1.
          1    1    3    3  501    0 -0.11858960335E+02 -0.81556731467E+01 -0.38010383030E+03  0.38037622396E+03  0.00000000000E+00 0.  1.
         -3    1    1    2    0  502  0.28511177544E+02  0.15817164200E+02 -0.19625245890E+03  0.19894244784E+03  0.00000000000E+00 0. -1.
<mgrwt>
<rscale>  1 0.30000000E+03</rscale>
<asrwt>0</asrwt>
<pdfrwt beam="1">  1       21 0.61096991E-02 0.30000000E+03</pdfrwt>
<pdfrwt beam="2">0</pdfrwt>
<totfact> 0.20423180E+04</totfact>
</mgrwt>
</event>
<event>
 6    1  0.1198667E-001  0.3000000E+03  0.7818608E-02  0.1093470E+00
         21   -1    0    0  501  502  0.00000000000E+00  0.00000000000E+00  0.41455398898E+01  0.41455398898E+01  0.00000000000E+00 0. -1.
         13   -1    0    0    0    0 -0.00000000000E+00 -0.00000000000E+00 -0.10000000000E+04  0.10000000000E+04  0.00000000000E+00 0.  1.
    9000005    2    1    2  501    0  0.33031958082E+02 -0.54245736959E+02 -0.57713687320E+03  0.58063860037E+03  0.45280901450E+01 0.  0.
         13    1    3    3    0    0  0.65824677305E+01 -0.10696178239E+02 -0.13147104864E+03  0.13206957917E+03  0.00000000000E+00 0.  1.
          3    1    3    3  501    0  0.26449490351E+02 -0.43549558721E+02 -0.44566582455E+03  0.44856902120E+03  0.00000000000E+00 0.  1.
         -3    1    1    2    0  502 -0.33031958082E+02  0.54245736959E+02 -0.41871758692E+03  0.42350693952E+03  0.00000000000E+00 0. -1.
<mgrwt>
<rscale>  1 0.30000000E+03</rscale>
<asrwt>0</asrwt>
<pdfrwt beam="1">  1       21 0.15074722E-01 0.30000000E+03</pdfrwt>
<pdfrwt beam="2">0</pdfrwt>
<totfact> 0.40803237E+03</totfact>
</mgrwt>
</event>
<event>
 6    1  0.1198667E-001  0.3000000E+03  0.7818608E-02  0.1093470E+00
         21   -1    0    0  501  502  0.00000000000E+00  0.00000000000E+00  0.53464824446E+01  0.53464824446E+01  0.00000000000E+00 0. -1.
         13   -1    0    0    0    0 -0.00000000000E+00 -0.00000000000E+00 -0.10000000000E+04  0.10000000000E+04  0.00000000000E+00 0.  1.
    9000005    2    1    2  501    0 -0.21089036603E+02  0.69973208669E+02 -0.49517834792E+03  0.50055301727E+03  0.32755850438E+01 0.  0.
         13    1    3    3    0    0 -0.11710268953E+02  0.42139907365E+02 -0.30504608472E+03  0.30816556588E+03  0.00000000000E+00 0.  1.
          1    1    3    3  501    0 -0.93787676498E+01  0.27833301304E+02 -0.19013226320E+03  0.19238745139E+03  0.00000000000E+00 0.  1.
         -1    1    1    2    0  502  0.21089036603E+02 -0.69973208669E+02 -0.49947516964E+03  0.50479346517E+03  0.00000000000E+00 0. -1.
<mgrwt>
<rscale>  1 0.30000000E+03</rscale>
<asrwt>0</asrwt>
<pdfrwt beam="1">  1       21 0.19441795E-01 0.30000000E+03</pdfrwt>
<pdfrwt beam="2">0</pdfrwt>
<totfact> 0.25321553E+03</totfact>
</mgrwt>
</event>
<event>
 6    1  0.1198667E-001  0.3000000E+03  0.7818608E-02  0.1093470E+00
         21   -1    0    0  501  502  0.00000000000E+00  0.00000000000E+00  0.31722697302E+01  0.31722697302E+01  0.00000000000E+00 0. -1.
         13   -1    0    0    0    0 -0.00000000000E+00 -0.00000000000E+00 -0.10000000000E+04  0.10000000000E+04  0.00000000000E+00 0.  1.
    9000005    2    1    2  501    0  0.34760946702E+02  0.93461228603E+01 -0.88396983028E+03  0.88471308259E+03  0.43478994759E+01 0.  0.
         13    1    3    3    0    0  0.91113329661E+01  0.23617373472E+01 -0.28084614311E+03  0.28100382612E+03  0.00000000000E+00 0.  1.
          1    1    3    3  501    0  0.25649613736E+02  0.69843855131E+01 -0.60312368717E+03  0.60370925647E+03  0.00000000000E+00 0.  1.
         -1    1    1    2    0  502 -0.34760946702E+02 -0.93461228603E+01 -0.11285789999E+03  0.11845918714E+03  0.00000000000E+00 0. -1.
<mgrwt>
<rscale>  1 0.30000000E+03</rscale>
<asrwt>0</asrwt>
<pdfrwt beam="1">  1       21 0.11535551E-01 0.30000000E+03</pdfrwt>
<pdfrwt beam="2">0</pdfrwt>
<totfact> 0.66563274E+03</totfact>
</mgrwt>
</event>
<event>
 6    1  0.1198667E-001  0.3000000E+03  0.7818608E-02  0.1093470E+00
         21   -1    0    0  501  502  0.00000000000E+00  0.00000000000E+00  0.24735248810E+01  0.24735248810E+01  0.00000000000E+00 0. -1.
         13   -1    0    0    0    0 -0.00000000000E+00 -0.00000000000E+00 -0.10000000000E+04  0.10000000000E+04  0.00000000000E+00 0.  1.
    9000005    2    1    2  501    0 -0.30254028296E+02 -0.60948117166E+01 -0.89167429827E+03  0.89221412029E+03  0.32448858558E+01 0.  0.
         13    1    3    3    0    0 -0.28813070352E+02 -0.54017687396E+01 -0.85999865127E+03  0.86049814196E+03  0.00000000000E+00 0.  1.
          1    1    3    3  501    0 -0.14409579438E+01 -0.69304297705E+00 -0.31675646998E+02  0.31715978325E+02  0.00000000000E+00 0.  1.
         -3    1    1    2    0  502  0.30254028296E+02  0.60948117166E+01 -0.10585217685E+03  0.11025940459E+03  0.00000000000E+00 0. -1.
<mgrwt>
<rscale>  1 0.30000000E+03</rscale>
<asrwt>0</asrwt>
<pdfrwt beam="1">  1       21 0.89946549E-02 0.30000000E+03</pdfrwt>
<pdfrwt beam="2">0</pdfrwt>
<totfact> 0.10389018E+04</totfact>
</mgrwt>
</event>
<event>
 6    1  0.1198667E-001  0.3000000E+03  0.7818608E-02  0.1093470E+00
         21   -1    0    0  501  502  0.00000000000E+00  0.00000000000E+00  0.29412004533E+01  0.29412004533E+01  0.00000000000E+00 0. -1.
         13   -1    0    0    0    0 -0.00000000000E+00 -0.00000000000E+00 -0.10000000000E+04  0.10000000000E+04  0.00000000000E+00 0.  1.
    9000005    2    1    2  501    0 -0.27874907064E+02  0.45405911995E+02 -0.57637063443E+03  0.57889257168E+03  0.86483544833E+01 0.  0.
         13    1    3    3    0    0 -0.10678395913E+02  0.10339516273E+02 -0.14726973880E+03  0.14801793710E+03  0.00000000000E+00 0.  1.
          3    1    3    3  501    0 -0.17196511151E+02  0.35066395722E+02 -0.42910089563E+03  0.43087463459E+03  0.00000000000E+00 0.  1.
         -1    1    1    2    0  502  0.27874907064E+02 -0.45405911995E+02 -0.42068816512E+03  0.42404862877E+03  0.00000000000E+00 0. -1.
<mgrwt>
<rscale>  1 0.30000000E+03</rscale>
<asrwt>0</asrwt>
<pdfrwt beam="1">  1       21 0.10695297E-01 0.30000000E+03</pdfrwt>
<pdfrwt beam="2">0</pdfrwt>
<totfact> 0.76275100E+03</totfact>
</mgrwt>
</event>
<event>
 6    1  0.1198667E-001  0.3000000E+03  0.7818608E-02  0.1093470E+00
         21   -1    0    0  501  502  0.00000000000E+00  0.00000000000E+00  0.10853166295E+01  0.10853166295E+01  0.00000000000E+00 0. -1.
         13   -1    0    0    0    0 -0.00000000000E+00 -0.00000000000E+00 -0.10000000000E+04  0.10000000000E+04  0.00000000000E+00 0.  1.
    9000005    2    1    2  501    0 -0.27542196675E+02 -0.13844976338E+02 -0.67363026336E+03  0.67434350745E+03  0.33434041578E+01 0.  0.
         13    1    3    3    0    0 -0.12747797416E+02 -0.81373528008E+01 -0.34270810046E+03  0.34304163737E+03  0.00000000000E+00 0.  1.
          1    1    3    3  501    0 -0.14794399259E+02 -0.57076235367E+01 -0.33092216291E+03  0.33130187008E+03  0.00000000000E+00 0.  1.
         -3    1    1    2    0  502  0.27542196675E+02  0.13844976338E+02 -0.32528442001E+03  0.32674180918E+03  0.00000000000E+00 0. -1.
<mgrwt>
<rscale>  1 0.30000000E+03</rscale>
<asrwt>0</asrwt>
<pdfrwt beam="1">  1       21 0.39466142E-02 0.30000000E+03</pdfrwt>
<pdfrwt beam="2">0</pdfrwt>
<totfact> 0.43009257E+04</totfact>
</mgrwt>
</event>
<event>
 6    1  0.1198667E-001  0.3000000E+03  0.7818608E-02  0.1093470E+00
         21   -1    0    0  501  502  0.00000000000E+00  0.00000000000E+00  0.35850834218E+01  0.35850834218E+01  0.00000000000E+00 0. -1.
         13   -1    0    0    0    0 -0.00000000000E+00 -0.00000000000E+00 -0.10000000000E+04  0.10000000000E+04  0.00000000000E+00 0.  1.
    9000005    2    1    2  501    0 -0.32079449384E+01  0.40748766363E+02 -0.86471524634E+03  0.86568817987E+03  0.35797523145E+01 0.  0.
         13    1    3    3    0    0 -0.24881315062E+01  0.34498587441E+02 -0.70250516947E+03  0.70335613771E+03  0.00000000000E+00 0.  1.
          1    1    3    3  501    0 -0.71981343226E+00  0.62501789218E+01 -0.16221007688E+03  0.16233204215E+03  0.00000000000E+00 0.  1.
         -1    1    1    2    0  502  0.32079449384E+01 -0.40748766363E+02 -0.13169967023E+03  0.13789690356E+03  0.00000000000E+00 0. -1.
<mgrwt>
<rscale>  1 0.30000000E+03</rscale>
<asrwt>0</asrwt>
<pdfrwt beam="1">  1       21 0.13036694E-01 0.30000000E+03</pdfrwt>
<pdfrwt beam="2">0</pdfrwt>
<totfact> 0.53290207E+03</totfact>
</mgrwt>
</event>
<event>
 6    1  0.1198667E-001  0.3000000E+03  0.7818608E-02  0.1093470E+00
         21   -1    0    0  501  502  0.00000000000E+00  0.00000000000E+00  0.16301130622E+01  0.16301130622E+01  0.00000000000E+00 0. -1.
         13   -1    0    0    0    0 -0.00000000000E+00 -0.00000000000E+00 -0.10000000000E+04  0.10000000000E+04  0.00000000000E+00 0.  1.
    9000005    2    1    2  501    0  0.15100086126E+02  0.31351656983E+02 -0.75215817638E+03  0.75297142044E+03  0.36192154415E+01 0.  0.
         13    1    3    3    0    0  0.15088635039E+02  0.29906571514E+02 -0.71263737845E+03  0.71342420977E+03  0.00000000000E+00 0.  1.
          1    1    3    3  501    0  0.11451086626E-01  0.14450854691E+01 -0.39520797925E+02  0.39547210670E+02  0.00000000000E+00 0.  1.
         -3    1    1    2    0  502 -0.15100086126E+02 -0.31351656983E+02 -0.24621171056E+03  0.24865869262E+03  0.00000000000E+00 0. -1.
<mgrwt>
<rscale>  1 0.30000000E+03</rscale>
<asrwt>0</asrwt>
<pdfrwt beam="1">  1       21 0.59276964E-02 0.30000000E+03</pdfrwt>
<pdfrwt beam="2">0</pdfrwt>
<totfact> 0.21516790E+04</totfact>
</mgrwt>
</event>
<event>
 6    1  0.1198667E-001  0.3000000E+03  0.7818608E-02  0.1093470E+00
         21   -1    0    0  501  502  0.00000000000E+00  0.00000000000E+00  0.39863692941E+01  0.39863692941E+01  0.00000000000E+00 0. -1.
         13   -1    0    0    0    0 -0.00000000000E+00 -0.00000000000E+00 -0.10000000000E+04  0.10000000000E+04  0.00000000000E+00 0.  1.
    9000005    2    1    2  501    0 -0.31689360975E+02 -0.39284252537E+02 -0.79922133380E+03  0.80082466961E+03  0.42359132359E+01 0.  0.
         13    1    3    3    0    0 -0.17093829173E+02 -0.18435494170E+02 -0.37785476036E+03  0.37869022481E+03  0.00000000000E+00 0.  1.
          1    1    3    3  501    0 -0.14595531802E+02 -0.20848758366E+02 -0.42136657345E+03  0.42213444481E+03  0.00000000000E+00 0.  1.
         -3    1    1    2    0  502  0.31689360975E+02  0.39284252537E+02 -0.19679229690E+03  0.20316169968E+03  0.00000000000E+00 0. -1.
<mgrwt>
<rscale>  1 0.30000000E+03</rscale>
<asrwt>0</asrwt>
<pdfrwt beam="1">  1       21 0.14495919E-01 0.30000000E+03</pdfrwt>
<pdfrwt beam="2">0</pdfrwt>
<totfact> 0.43864533E+03</totfact>
</mgrwt>
</event>
<event>
 6    1  0.1198667E-001  0.3000000E+03  0.7818608E-02  0.1093470E+00
         21   -1    0    0  501  502  0.00000000000E+00  0.00000000000E+00  0.16636341000E+01  0.16636341000E+01  0.00000000000E+00 0. -1.
         13   -1    0    0    0    0 -0.00000000000E+00 -0.00000000000E+00 -0.10000000000E+04  0.10000000000E+04  0.00000000000E+00 0.  1.
    9000005    2    1    2  501    0 -0.22098520491E+01  0.37439706354E+02 -0.69498059490E+03  0.69599823066E+03  0.29824056778E+01 0.  0.
         13    1    3    3    0    0 -0.24825777450E+01  0.26962301234E+02 -0.48201281067E+03  0.48277269862E+03  0.00000000000E+00 0.  1.
          3    1    3    3  501    0  0.27272569588E+00  0.10477405120E+02 -0.21296778423E+03  0.21322553205E+03  0.00000000000E+00 0.  1.
         -1    1    1    2    0  502  0.22098520491E+01 -0.37439706354E+02 -0.30335577100E+03  0.30566540344E+03  0.00000000000E+00 0. -1.
<mgrwt>
<rscale>  1 0.30000000E+03</rscale>
<asrwt>0</asrwt>
<pdfrwt beam="1">  1       21 0.60495913E-02 0.30000000E+03</pdfrwt>
<pdfrwt beam="2">0</pdfrwt>
<totfact> 0.20774598E+04</totfact>
</mgrwt>
</event>
<event>
 6    1  0.1198667E-001  0.3000000E+03  0.7818608E-02  0.1093470E+00
         21   -1    0    0  501  502  0.00000000000E+00  0.00000000000E+00  0.11043440166E+01  0.11043440166E+01  0.00000000000E+00 0. -1.
         13   -1    0    0    0    0 -0.00000000000E+00 -0.00000000000E+00 -0.10000000000E+04  0.10000000000E+04  0.00000000000E+00 0.  1.
    9000005    2    1    2  501    0  0.30639305590E+02  0.10576804507E+02 -0.60579693941E+03  0.60667154009E+03  0.31288844473E+01 0.  0.
         13    1    3    3    0    0  0.28322737960E+00 -0.16500610596E+00 -0.96714882414E+01  0.96770413644E+01  0.00000000000E+00 0.  1.
          1    1    3    3  501    0  0.30356078210E+02  0.10741810613E+02 -0.59612545117E+03  0.59699449873E+03  0.00000000000E+00 0.  1.
         -3    1    1    2    0  502 -0.30639305590E+02 -0.10576804507E+02 -0.39309871657E+03  0.39443280393E+03  0.00000000000E+00 0. -1.
<mgrwt>
<rscale>  1 0.30000000E+03</rscale>
<asrwt>0</asrwt>
<pdfrwt beam="1">  1       21 0.40158049E-02 0.30000000E+03</pdfrwt>
<pdfrwt beam="2">0</pdfrwt>
<totfact> 0.41768990E+04</totfact>
</mgrwt>
</event>
<event>
 6    1  0.1198667E-001  0.3000000E+03  0.7818608E-02  0.1093470E+00
         21   -1    0    0  501  502  0.00000000000E+00  0.00000000000E+00  0.32603394430E+01  0.32603394430E+01  0.00000000000E+00 0. -1.
         13   -1    0    0    0    0 -0.00000000000E+00 -0.00000000000E+00 -0.10000000000E+04  0.10000000000E+04  0.00000000000E+00 0.  1.
    9000005    2    1    2  501    0  0.52513637292E+02  0.20312460217E+02 -0.41870959504E+03  0.42249443584E+03  0.36803802528E+01 0.  0.
         13    1    3    3    0    0  0.10544171516E+02  0.56766535411E+01 -0.90341749163E+02  0.91131967993E+02  0.00000000000E+00 0.  1.
          1    1    3    3  501    0  0.41969465775E+02  0.14635806676E+02 -0.32836784588E+03  0.33136246785E+03  0.00000000000E+00 0.  1.
         -3    1    1    2    0  502 -0.52513637292E+02 -0.20312460217E+02 -0.57803006552E+03  0.58076590360E+03  0.00000000000E+00 0. -1.
<mgrwt>
<rscale>  1 0.30000000E+03</rscale>
<asrwt>0</asrwt>
<pdfrwt beam="1">  1       21 0.11855805E-01 0.30000000E+03</pdfrwt>
<pdfrwt beam="2">0</pdfrwt>
<totfact> 0.63344950E+03</totfact>
</mgrwt>
</event>
<event>
 6    1  0.1198667E-001  0.3000000E+03  0.7818608E-02  0.1093470E+00
         21   -1    0    0  501  502  0.00000000000E+00  0.00000000000E+00  0.22257686054E+01  0.22257686054E+01  0.00000000000E+00 0. -1.
         13   -1    0    0    0    0 -0.00000000000E+00 -0.00000000000E+00 -0.10000000000E+04  0.10000000000E+04  0.00000000000E+00 0.  1.
    9000005    2    1    2  501    0 -0.40011183426E+02  0.20344218345E+02 -0.37165323516E+03  0.37449789449E+03  0.10380932099E+02 0.  0.
         13    1    3    3    0    0 -0.36533083053E+02  0.20296219030E+02 -0.35697816036E+03  0.35941620670E+03  0.00000000000E+00 0.  1.
          3    1    3    3  501    0 -0.34781003724E+01  0.47999314238E-01 -0.14675074798E+02  0.15081687786E+02  0.00000000000E+00 0.  1.
         -1    1    1    2    0  502  0.40011183426E+02 -0.20344218345E+02 -0.62612099623E+03  0.62772787412E+03  0.00000000000E+00 0. -1.
<mgrwt>
<rscale>  1 0.30000000E+03</rscale>
<asrwt>0</asrwt>
<pdfrwt beam="1">  1       21 0.80937211E-02 0.30000000E+03</pdfrwt>
<pdfrwt beam="2">0</pdfrwt>
<totfact> 0.12515115E+04</totfact>
</mgrwt>
</event>
<event>
 6    1  0.1198667E-001  0.3000000E+03  0.7818608E-02  0.1093470E+00
         21   -1    0    0  501  502  0.00000000000E+00  0.00000000000E+00  0.10754035547E+01  0.10754035547E+01  0.00000000000E+00 0. -1.
         13   -1    0    0    0    0 -0.00000000000E+00 -0.00000000000E+00 -0.10000000000E+04  0.10000000000E+04  0.00000000000E+00 0.  1.
    9000005    2    1    2  501    0  0.29995069340E+02 -0.13012445786E+02 -0.51467940030E+03  0.51572765408E+03  0.33316902631E+01 0.  0.
         13    1    3    3    0    0  0.45512934891E+01 -0.33166811989E+01 -0.91711027055E+02  0.91883769678E+02  0.00000000000E+00 0.  1.
          3    1    3    3  501    0  0.25443775851E+02 -0.96957645873E+01 -0.42296837325E+03  0.42384388440E+03  0.00000000000E+00 0.  1.
         -1    1    1    2    0  502 -0.29995069340E+02  0.13012445786E+02 -0.48424519614E+03  0.48534774947E+03  0.00000000000E+00 0. -1.
<mgrwt>
<rscale>  1 0.30000000E+03</rscale>
<asrwt>0</asrwt>
<pdfrwt beam="1">  1       21 0.39105666E-02 0.30000000E+03</pdfrwt>
<pdfrwt beam="2">0</pdfrwt>
<totfact> 0.43678421E+04</totfact>
</mgrwt>
</event>
<event>
 6    1  0.1198667E-001  0.3000000E+03  0.7818608E-02  0.1093470E+00
         21   -1    0    0  501  502  0.00000000000E+00  0.00000000000E+00  0.20848768981E+01  0.20848768981E+01  0.00000000000E+00 0. -1.
         13   -1    0    0    0    0 -0.00000000000E+00 -0.00000000000E+00 -0.10000000000E+04  0.10000000000E+04  0.00000000000E+00 0.  1.
    9000005    2    1    2  501    0 -0.35864373658E+02 -0.95994110228E+01 -0.79016715586E+03  0.79104549696E+03  0.32314203348E+01 0.  0.
         13    1    3    3    0    0 -0.32348852911E+01 -0.16964497301E+01 -0.67109264150E+02  0.67208598849E+02  0.00000000000E+00 0.  1.
          3    1    3    3  501    0 -0.32629488367E+02 -0.79029612927E+01 -0.72305789171E+03  0.72383689812E+03  0.00000000000E+00 0.  1.
         -3    1    1    2    0  502  0.35864373658E+02  0.95994110228E+01 -0.20774796724E+03  0.21103937993E+03  0.00000000000E+00 0. -1.
<mgrwt>
<rscale>  1 0.30000000E+03</rscale>
<asrwt>0</asrwt>
<pdfrwt beam="1">  1       21 0.75813865E-02 0.30000000E+03</pdfrwt>
<pdfrwt beam="2">0</pdfrwt>
<totfact> 0.14036624E+04</totfact>
</mgrwt>
</event>
<event>
 6    1  0.1198667E-001  0.3000000E+03  0.7818608E-02  0.1093470E+00
         21   -1    0    0  501  502  0.00000000000E+00  0.00000000000E+00  0.19331345895E+01  0.19331345895E+01  0.00000000000E+00 0. -1.
         13   -1    0    0    0    0 -0.00000000000E+00 -0.00000000000E+00 -0.10000000000E+04  0.10000000000E+04  0.00000000000E+00 0.  1.
    9000005    2    1    2  501    0 -0.18902711637E+02 -0.29508690188E+02 -0.80128706377E+03  0.80205725902E+03  0.26101468195E+01 0.  0.
         13    1    3    3    0    0 -0.18013470136E+02 -0.27532446965E+02 -0.76278697064E+03  0.76349622351E+03  0.00000000000E+00 0.  1.
          3    1    3    3  501    0 -0.88924150077E+00 -0.19762432229E+01 -0.38500093137E+02  0.38561035506E+02  0.00000000000E+00 0.  1.
         -3    1    1    2    0  502  0.18902711637E+02  0.29508690188E+02 -0.19677980164E+03  0.19987587557E+03  0.00000000000E+00 0. -1.
<mgrwt>
<rscale>  1 0.30000000E+03</rscale>
<asrwt>0</asrwt>
<pdfrwt beam="1">  1       21 0.70295951E-02 0.30000000E+03</pdfrwt>
<pdfrwt beam="2">0</pdfrwt>
<totfact> 0.16017229E+04</totfact>
</mgrwt>
</event>
<event>
 6    1  0.1198667E-001  0.3000000E+03  0.7818608E-02  0.1093470E+00
         21   -1    0    0  501  502  0.00000000000E+00  0.00000000000E+00  0.11536599848E+01  0.11536599848E+01  0.00000000000E+00 0. -1.
         13   -1    0    0    0    0 -0.00000000000E+00 -0.00000000000E+00 -0.10000000000E+04  0.10000000000E+04  0.00000000000E+00 0.  1.
    9000005    2    1    2  501    0 -0.24144533090E+02 -0.20654915033E+02 -0.67424316074E+03  0.67499908315E+03  0.32153473780E+01 0.  0.
         13    1    3    3    0    0 -0.23956942034E+02 -0.19859088060E+02 -0.65622387079E+03  0.65696125232E+03  0.00000000000E+00 0.  1.
          3    1    3    3  501    0 -0.18759105626E+00 -0.79582697298E+00 -0.18019289943E+02  0.18037830830E+02  0.00000000000E+00 0.  1.
         -3    1    1    2    0  502  0.24144533090E+02  0.20654915033E+02 -0.32460317928E+03  0.32615457683E+03  0.00000000000E+00 0. -1.
<mgrwt>
<rscale>  1 0.30000000E+03</rscale>
<asrwt>0</asrwt>
<pdfrwt beam="1">  1       21 0.41951361E-02 0.30000000E+03</pdfrwt>
<pdfrwt beam="2">0</pdfrwt>
<totfact> 0.38802306E+04</totfact>
</mgrwt>
</event>
<event>
 6    1  0.1198667E-001  0.3000000E+03  0.7818608E-02  0.1093470E+00
         21   -1    0    0  501  502  0.00000000000E+00  0.00000000000E+00  0.11205175577E+01  0.11205175577E+01  0.00000000000E+00 0. -1.
         13   -1    0    0    0    0 -0.00000000000E+00 -0.00000000000E+00 -0.10000000000E+04  0.10000000000E+04  0.00000000000E+00 0.  1.
    9000005    2    1    2  501    0 -0.27769257207E+02  0.16156673665E+02 -0.63706752509E+03  0.63788497106E+03  0.31678134247E+01 0.  0.
         13    1    3    3    0    0 -0.35502894620E+00  0.25324769840E+00 -0.38145072182E+01  0.38393547983E+01  0.00000000000E+00 0.  1.
          1    1    3    3  501    0 -0.27414228261E+02  0.15903425966E+02 -0.63325301787E+03  0.63404561627E+03  0.00000000000E+00 0.  1.
         -3    1    1    2    0  502  0.27769257207E+02 -0.16156673665E+02 -0.36181195736E+03  0.36323554649E+03  0.00000000000E+00 0. -1.
<mgrwt>
<rscale>  1 0.30000000E+03</rscale>
<asrwt>0</asrwt>
<pdfrwt beam="1">  1       21 0.40746179E-02 0.30000000E+03</pdfrwt>
<pdfrwt beam="2">0</pdfrwt>
<totfact> 0.40758138E+04</totfact>
</mgrwt>
</event>
<event>
 6    1  0.1198667E-001  0.3000000E+03  0.7818608E-02  0.1093470E+00
         21   -1    0    0  501  502  0.00000000000E+00  0.00000000000E+00  0.13417351018E+01  0.13417351018E+01  0.00000000000E+00 0. -1.
         13   -1    0    0    0    0 -0.00000000000E+00 -0.00000000000E+00 -0.10000000000E+04  0.10000000000E+04  0.00000000000E+00 0.  1.
    9000005    2    1    2  501    0  0.28000355481E+02  0.21736951055E+02 -0.37843254808E+03  0.38010389438E+03  0.33559088950E+01 0.  0.
         13    1    3    3    0    0  0.24613968784E+01  0.25721797784E+01 -0.48193375650E+02  0.48324693894E+02  0.00000000000E+00 0.  1.
          3    1    3    3  501    0  0.25538958603E+02  0.19164771277E+02 -0.33023917243E+03  0.33177920048E+03  0.00000000000E+00 0.  1.
         -1    1    1    2    0  502 -0.28000355481E+02 -0.21736951055E+02 -0.62022571682E+03  0.62123784073E+03  0.00000000000E+00 0. -1.
<mgrwt>
<rscale>  1 0.30000000E+03</rscale>
<asrwt>0</asrwt>
<pdfrwt beam="1">  1       21 0.48790470E-02 0.30000000E+03</pdfrwt>
<pdfrwt beam="2">0</pdfrwt>
<totfact> 0.30031836E+04</totfact>
</mgrwt>
</event>
<event>
 6    1  0.1198667E-001  0.3000000E+03  0.7818608E-02  0.1093470E+00
         21   -1    0    0  501  502  0.00000000000E+00  0.00000000000E+00  0.16666081740E+01  0.16666081740E+01  0.00000000000E+00 0. -1.
         13   -1    0    0    0    0 -0.00000000000E+00 -0.00000000000E+00 -0.10000000000E+04  0.10000000000E+04  0.00000000000E+00 0.  1.
    9000005    2    1    2  501    0  0.16829046146E+02  0.34854878337E+02 -0.65671124378E+03  0.65785885467E+03  0.32458611305E+01 0.  0.
         13    1    3    3    0    0  0.93691966827E+01  0.15764773136E+02 -0.30423136199E+03  0.30478358148E+03  0.00000000000E+00 0.  1.
          3    1    3    3  501    0  0.74598494629E+01  0.19090105202E+02 -0.35247988179E+03  0.35307527319E+03  0.00000000000E+00 0.  1.
         -1    1    1    2    0  502 -0.16829046146E+02 -0.34854878337E+02 -0.34162214804E+03  0.34380775351E+03  0.00000000000E+00 0. -1.
<mgrwt>
<rscale>  1 0.30000000E+03</rscale>
<asrwt>0</asrwt>
<pdfrwt beam="1">  1       21 0.60604061E-02 0.30000000E+03</pdfrwt>
<pdfrwt beam="2">0</pdfrwt>
<totfact> 0.20710679E+04</totfact>
</mgrwt>
</event>
<event>
 6    1  0.1198667E-001  0.3000000E+03  0.7818608E-02  0.1093470E+00
         21   -1    0    0  501  502  0.00000000000E+00  0.00000000000E+00  0.29856925416E+01  0.29856925416E+01  0.00000000000E+00 0. -1.
         13   -1    0    0    0    0 -0.00000000000E+00 -0.00000000000E+00 -0.10000000000E+04  0.10000000000E+04  0.00000000000E+00 0.  1.
    9000005    2    1    2  501    0 -0.28973254841E+02 -0.41715228075E+02 -0.68249574264E+03  0.68439263335E+03  0.36370472854E+01 0.  0.
         13    1    3    3    0    0 -0.19907015188E+00 -0.11593285789E+01 -0.18656569269E+02  0.18693615182E+02  0.00000000000E+00 0.  1.
          1    1    3    3  501    0 -0.28774184689E+02 -0.40555899496E+02 -0.66383917337E+03  0.66569901817E+03  0.00000000000E+00 0.  1.
         -1    1    1    2    0  502  0.28973254841E+02  0.41715228075E+02 -0.31451856482E+03  0.31859305919E+03  0.00000000000E+00 0. -1.
<mgrwt>
<rscale>  1 0.30000000E+03</rscale>
<asrwt>0</asrwt>
<pdfrwt beam="1">  1       21 0.10857087E-01 0.30000000E+03</pdfrwt>
<pdfrwt beam="2">0</pdfrwt>
<totfact> 0.74245730E+03</totfact>
</mgrwt>
</event>
<event>
 6    1  0.1198667E-001  0.3000000E+03  0.7818608E-02  0.1093470E+00
         21   -1    0    0  501  502  0.00000000000E+00  0.00000000000E+00  0.32605564697E+01  0.32605564697E+01  0.00000000000E+00 0. -1.
         13   -1    0    0    0    0 -0.00000000000E+00 -0.00000000000E+00 -0.10000000000E+04  0.10000000000E+04  0.00000000000E+00 0.  1.
    9000005    2    1    2  501    0  0.22082538769E+02 -0.30812495240E+02 -0.87338489984E+03  0.87421253506E+03  0.30536537446E+01 0.  0.
         13    1    3    3    0    0  0.14069039171E+02 -0.21371413427E+02 -0.61128571805E+03  0.61182097404E+03  0.00000000000E+00 0.  1.
          3    1    3    3  501    0  0.80134995973E+01 -0.94410818130E+01 -0.26209918179E+03  0.26239156102E+03  0.00000000000E+00 0.  1.
         -1    1    1    2    0  502 -0.22082538769E+02  0.30812495240E+02 -0.12335454369E+03  0.12904802141E+03  0.00000000000E+00 0. -1.
<mgrwt>
<rscale>  1 0.30000000E+03</rscale>
<asrwt>0</asrwt>
<pdfrwt beam="1">  1       21 0.11856594E-01 0.30000000E+03</pdfrwt>
<pdfrwt beam="2">0</pdfrwt>
<totfact> 0.63337309E+03</totfact>
</mgrwt>
</event>
<event>
 6    1  0.1198667E-001  0.3000000E+03  0.7818608E-02  0.1093470E+00
         21   -1    0    0  501  502  0.00000000000E+00  0.00000000000E+00  0.53909493505E+02  0.53909493505E+02  0.00000000000E+00 0. -1.
         13   -1    0    0    0    0 -0.00000000000E+00 -0.00000000000E+00 -0.10000000000E+04  0.10000000000E+04  0.00000000000E+00 0.  1.
    9000005    2    1    2  501    0  0.10113550477E+03  0.85764342149E+02 -0.90559453380E+03  0.91525944297E+03  0.38046801157E+01 0.  0.
         13    1    3    3    0    0  0.47137220820E+02  0.39861258349E+02 -0.40853084813E+03  0.41316859922E+03  0.00000000000E+00 0.  1.
          3    1    3    3  501    0  0.53998283947E+02  0.45903083800E+02 -0.49706368567E+03  0.50209084375E+03  0.00000000000E+00 0.  1.
         -1    1    1    2    0  502 -0.10113550477E+03 -0.85764342149E+02 -0.40495972695E+02  0.13865005053E+03  0.00000000000E+00 0. -1.
<mgrwt>
<rscale>  1 0.30000000E+03</rscale>
<asrwt>0</asrwt>
<pdfrwt beam="1">  1       21 0.19603494E+00 0.30000000E+03</pdfrwt>
<pdfrwt beam="2">0</pdfrwt>
<totfact> 0.10131086E+01</totfact>
</mgrwt>
</event>
<event>
 6    1  0.1198667E-001  0.3000000E+03  0.7818608E-02  0.1093470E+00
         21   -1    0    0  501  502  0.00000000000E+00  0.00000000000E+00  0.28387175379E+01  0.28387175379E+01  0.00000000000E+00 0. -1.
         13   -1    0    0    0    0 -0.00000000000E+00 -0.00000000000E+00 -0.10000000000E+04  0.10000000000E+04  0.00000000000E+00 0.  1.
    9000005    2    1    2  501    0  0.19446371660E+02 -0.35186778991E+02 -0.82709682677E+03  0.82808692248E+03  0.47454758378E+01 0.  0.
         13    1    3    3    0    0  0.12280991008E+02 -0.17450230296E+02 -0.42516236145E+03  0.42569750630E+03  0.00000000000E+00 0.  1.
          1    1    3    3  501    0  0.71653806526E+01 -0.17736548695E+02 -0.40193446532E+03  0.40238941618E+03  0.00000000000E+00 0.  1.
         -3    1    1    2    0  502 -0.19446371660E+02  0.35186778991E+02 -0.17006445569E+03  0.17475179506E+03  0.00000000000E+00 0. -1.
<mgrwt>
<rscale>  1 0.30000000E+03</rscale>
<asrwt>0</asrwt>
<pdfrwt beam="1">  1       21 0.10322631E-01 0.30000000E+03</pdfrwt>
<pdfrwt beam="2">0</pdfrwt>
<totfact> 0.81282006E+03</totfact>
</mgrwt>
</event>
<event>
 6    1  0.1198667E-001  0.3000000E+03  0.7818608E-02  0.1093470E+00
         21   -1    0    0  501  502  0.00000000000E+00  0.00000000000E+00  0.15433777879E+01  0.15433777879E+01  0.00000000000E+00 0. -1.
         13   -1    0    0    0    0 -0.00000000000E+00 -0.00000000000E+00 -0.10000000000E+04  0.10000000000E+04  0.00000000000E+00 0.  1.
    9000005    2    1    2  501    0  0.30198685050E+02 -0.24879889208E+02 -0.50564843088E+03  0.50718431505E+03  0.49622894824E+01 0.  0.
         13    1    3    3    0    0  0.14954283943E+02 -0.97157791252E+01 -0.21090802204E+03  0.21166062632E+03  0.00000000000E+00 0.  1.
          1    1    3    3  501    0  0.15244401107E+02 -0.15164110083E+02 -0.29474040884E+03  0.29552368874E+03  0.00000000000E+00 0.  1.
         -1    1    1    2    0  502 -0.30198685050E+02  0.24879889208E+02 -0.49280819133E+03  0.49435906273E+03  0.00000000000E+00 0. -1.
<mgrwt>
<rscale>  1 0.30000000E+03</rscale>
<asrwt>0</asrwt>
<pdfrwt beam="1">  1       21 0.56122947E-02 0.30000000E+03</pdfrwt>
<pdfrwt beam="2">0</pdfrwt>
<totfact> 0.23639867E+04</totfact>
</mgrwt>
</event>
<event>
 6    1  0.1198667E-001  0.3000000E+03  0.7818608E-02  0.1093470E+00
         21   -1    0    0  501  502  0.00000000000E+00  0.00000000000E+00  0.10483342395E+01  0.10483342395E+01  0.00000000000E+00 0. -1.
         13   -1    0    0    0    0 -0.00000000000E+00 -0.00000000000E+00 -0.10000000000E+04  0.10000000000E+04  0.00000000000E+00 0.  1.
    9000005    2    1    2  501    0  0.29384166936E+02 -0.90310200322E+01 -0.63320356014E+03  0.63401064495E+03  0.88182058644E+01 0.  0.
         13    1    3    3    0    0  0.24866299587E+02 -0.95797150962E+01 -0.58036522283E+03  0.58097667394E+03  0.00000000000E+00 0.  1.
          3    1    3    3  501    0  0.45178673493E+01  0.54869506396E+00 -0.52838337307E+02  0.53033971009E+02  0.00000000000E+00 0.  1.
         -3    1    1    2    0  502 -0.29384166936E+02  0.90310200322E+01 -0.36574810562E+03  0.36703768929E+03  0.00000000000E+00 0. -1.
<mgrwt>
<rscale>  1 0.30000000E+03</rscale>
<asrwt>0</asrwt>
<pdfrwt beam="1">  1       21 0.38121325E-02 0.30000000E+03</pdfrwt>
<pdfrwt beam="2">0</pdfrwt>
<totfact> 0.45591234E+04</totfact>
</mgrwt>
</event>
<event>
 6    1  0.1198667E-001  0.3000000E+03  0.7818608E-02  0.1093470E+00
         21   -1    0    0  501  502  0.00000000000E+00  0.00000000000E+00  0.11714580010E+01  0.11714580010E+01  0.00000000000E+00 0. -1.
         13   -1    0    0    0    0 -0.00000000000E+00 -0.00000000000E+00 -0.10000000000E+04  0.10000000000E+04  0.00000000000E+00 0.  1.
    9000005    2    1    2  501    0  0.12420426001E+01  0.33908501570E+02 -0.45194237496E+03  0.45323367974E+03  0.41867668139E+01 0.  0.
         13    1    3    3    0    0  0.18130727238E+01  0.23338438759E+02 -0.28787900715E+03  0.28882917566E+03  0.00000000000E+00 0.  1.
          1    1    3    3  501    0 -0.57103012373E+00  0.10570062811E+02 -0.16406336781E+03  0.16440450408E+03  0.00000000000E+00 0.  1.
         -3    1    1    2    0  502 -0.12420426001E+01 -0.33908501570E+02 -0.54688616704E+03  0.54793777826E+03  0.00000000000E+00 0. -1.
<mgrwt>
<rscale>  1 0.30000000E+03</rscale>
<asrwt>0</asrwt>
<pdfrwt beam="1">  1       21 0.42598563E-02 0.30000000E+03</pdfrwt>
<pdfrwt beam="2">0</pdfrwt>
<totfact> 0.37811628E+04</totfact>
</mgrwt>
</event>
<event>
 6    1  0.1198667E-001  0.3000000E+03  0.7818608E-02  0.1093470E+00
         21   -1    0    0  501  502  0.00000000000E+00  0.00000000000E+00  0.17747413251E+01  0.17747413251E+01  0.00000000000E+00 0. -1.
         13   -1    0    0    0    0 -0.00000000000E+00 -0.00000000000E+00 -0.10000000000E+04  0.10000000000E+04  0.00000000000E+00 0.  1.
    9000005    2    1    2  501    0 -0.12077741494E+02  0.37272997703E+02 -0.68150908527E+03  0.68264423088E+03  0.36557431511E+01 0.  0.
         13    1    3    3    0    0 -0.16100806124E+01  0.29226346959E+01 -0.73388641468E+02  0.73464459773E+02  0.00000000000E+00 0.  1.
          3    1    3    3  501    0 -0.10467660882E+02  0.34350363007E+02 -0.60812044380E+03  0.60917977111E+03  0.00000000000E+00 0.  1.
         -3    1    1    2    0  502  0.12077741494E+02 -0.37272997703E+02 -0.31671617341E+03  0.31913051044E+03  0.00000000000E+00 0. -1.
<mgrwt>
<rscale>  1 0.30000000E+03</rscale>
<asrwt>0</asrwt>
<pdfrwt beam="1">  1       21 0.64536184E-02 0.30000000E+03</pdfrwt>
<pdfrwt beam="2">0</pdfrwt>
<totfact> 0.18578933E+04</totfact>
</mgrwt>
</event>
<event>
 6    1  0.1198667E-001  0.3000000E+03  0.7818608E-02  0.1093470E+00
         21   -1    0    0  501  502  0.00000000000E+00  0.00000000000E+00  0.10487275203E+01  0.10487275203E+01  0.00000000000E+00 0. -1.
         13   -1    0    0    0    0 -0.00000000000E+00 -0.00000000000E+00 -0.10000000000E+04  0.10000000000E+04  0.00000000000E+00 0.  1.
    9000005    2    1    2  501    0 -0.22078374421E+02 -0.23453070377E+02 -0.47862453489E+03  0.47972597243E+03  0.42499523857E+01 0.  0.
         13    1    3    3    0    0 -0.14657010191E+02 -0.17473781940E+02 -0.35779972152E+03  0.35852587316E+03  0.00000000000E+00 0.  1.
          3    1    3    3  501    0 -0.74213642297E+01 -0.59792884370E+01 -0.12082481337E+03  0.12120009927E+03  0.00000000000E+00 0.  1.
         -3    1    1    2    0  502  0.22078374421E+02  0.23453070377E+02 -0.52032673759E+03  0.52132275509E+03  0.00000000000E+00 0. -1.
<mgrwt>
<rscale>  1 0.30000000E+03</rscale>
<asrwt>0</asrwt>
<pdfrwt beam="1">  1       21 0.38135627E-02 0.30000000E+03</pdfrwt>
<pdfrwt beam="2">0</pdfrwt>
<totfact> 0.45562509E+04</totfact>
</mgrwt>
</event>
<event>
 6    1  0.1198667E-001  0.3000000E+03  0.7818608E-02  0.1093470E+00
         21   -1    0    0  501  502  0.00000000000E+00  0.00000000000E+00  0.22161708230E+01  0.22161708230E+01  0.00000000000E+00 0. -1.
         13   -1    0    0    0    0 -0.00000000000E+00 -0.00000000000E+00 -0.10000000000E+04  0.10000000000E+04  0.00000000000E+00 0.  1.
    9000005    2    1    2  501    0 -0.23365157718E+02  0.39748279742E+02 -0.40608433086E+03  0.40872299256E+03  0.49137092505E+01 0.  0.
         13    1    3    3    0    0 -0.18914270897E+02  0.29765502048E+02 -0.29427239978E+03  0.29637810315E+03  0.00000000000E+00 0.  1.
          3    1    3    3  501    0 -0.44508868215E+01  0.99827776936E+01 -0.11181193108E+03  0.11234488941E+03  0.00000000000E+00 0.  1.
         -1    1    1    2    0  502  0.23365157718E+02 -0.39748279742E+02 -0.59169949832E+03  0.59349317827E+03  0.00000000000E+00 0. -1.
<mgrwt>
<rscale>  1 0.30000000E+03</rscale>
<asrwt>0</asrwt>
<pdfrwt beam="1">  1       21 0.80588200E-02 0.30000000E+03</pdfrwt>
<pdfrwt beam="2">0</pdfrwt>
<totfact> 0.12610525E+04</totfact>
</mgrwt>
</event>
<event>
 6    1  0.1198667E-001  0.3000000E+03  0.7818608E-02  0.1093470E+00
         21   -1    0    0  501  502  0.00000000000E+00  0.00000000000E+00  0.23013727665E+01  0.23013727665E+01  0.00000000000E+00 0. -1.
         13   -1    0    0    0    0 -0.00000000000E+00 -0.00000000000E+00 -0.10000000000E+04  0.10000000000E+04  0.00000000000E+00 0.  1.
    9000005    2    1    2  501    0 -0.40678053094E+02  0.20879913900E+02 -0.64902530712E+03  0.65064278981E+03  0.33934999119E+01 0.  0.
         13    1    3    3    0    0 -0.14991947504E+02  0.89123986944E+01 -0.26514304513E+03  0.26571605845E+03  0.00000000000E+00 0.  1.
          3    1    3    3  501    0 -0.25686105589E+02  0.11967515206E+02 -0.38388226199E+03  0.38492673135E+03  0.00000000000E+00 0.  1.
         -1    1    1    2    0  502  0.40678053094E+02 -0.20879913900E+02 -0.34867332012E+03  0.35165858296E+03  0.00000000000E+00 0. -1.
<mgrwt>
<rscale>  1 0.30000000E+03</rscale>
<asrwt>0</asrwt>
<pdfrwt beam="1">  1       21 0.83686459E-02 0.30000000E+03</pdfrwt>
<pdfrwt beam="2">0</pdfrwt>
<totfact> 0.11800759E+04</totfact>
</mgrwt>
</event>
<event>
 6    1  0.1198667E-001  0.3000000E+03  0.7818608E-02  0.1093470E+00
         21   -1    0    0  501  502  0.00000000000E+00  0.00000000000E+00  0.15857432138E+01  0.15857432138E+01  0.00000000000E+00 0. -1.
         13   -1    0    0    0    0 -0.00000000000E+00 -0.00000000000E+00 -0.10000000000E+04  0.10000000000E+04  0.00000000000E+00 0.  1.
    9000005    2    1    2  501    0  0.13588892200E+01 -0.38127282882E+02 -0.62442208362E+03  0.62565266158E+03  0.90982495819E+01 0.  0.
         13    1    3    3    0    0  0.86662742528E+00 -0.17613989028E+02 -0.21760873588E+03  0.21832216008E+03  0.00000000000E+00 0.  1.
          1    1    3    3  501    0  0.49226179473E+00 -0.20513293854E+02 -0.40681334775E+03  0.40733050150E+03  0.00000000000E+00 0.  1.
         -3    1    1    2    0  502 -0.13588892200E+01  0.38127282882E+02 -0.37399217316E+03  0.37593308163E+03  0.00000000000E+00 0. -1.
<mgrwt>
<rscale>  1 0.30000000E+03</rscale>
<asrwt>0</asrwt>
<pdfrwt beam="1">  1       21 0.57663511E-02 0.30000000E+03</pdfrwt>
<pdfrwt beam="2">0</pdfrwt>
<totfact> 0.22564486E+04</totfact>
</mgrwt>
</event>
<event>
 6    1  0.1198667E-001  0.3000000E+03  0.7818608E-02  0.1093470E+00
         21   -1    0    0  501  502  0.00000000000E+00  0.00000000000E+00  0.20420581847E+01  0.20420581847E+01  0.00000000000E+00 0. -1.
         13   -1    0    0    0    0 -0.00000000000E+00 -0.00000000000E+00 -0.10000000000E+04  0.10000000000E+04  0.00000000000E+00 0.  1.
    9000005    2    1    2  501    0 -0.12980646594E+02  0.33529119441E+02 -0.80209947811E+03  0.80291085309E+03  0.30929262428E+01 0.  0.
         13    1    3    3    0    0 -0.78785253146E+01  0.18800246252E+02 -0.48593637289E+03  0.48636373109E+03  0.00000000000E+00 0.  1.
          1    1    3    3  501    0 -0.51021212793E+01  0.14728873190E+02 -0.31616310522E+03  0.31654712201E+03  0.00000000000E+00 0.  1.
         -3    1    1    2    0  502  0.12980646594E+02 -0.33529119441E+02 -0.19585846371E+03  0.19913120509E+03  0.00000000000E+00 0. -1.
<mgrwt>
<rscale>  1 0.30000000E+03</rscale>
<asrwt>0</asrwt>
<pdfrwt beam="1">  1       21 0.74256818E-02 0.30000000E+03</pdfrwt>
<pdfrwt beam="2">0</pdfrwt>
<totfact> 0.14555998E+04</totfact>
</mgrwt>
</event>
<event>
 6    1  0.1198667E-001  0.3000000E+03  0.7818608E-02  0.1093470E+00
         21   -1    0    0  501  502  0.00000000000E+00  0.00000000000E+00  0.30683810786E+01  0.30683810786E+01  0.00000000000E+00 0. -1.
         13   -1    0    0    0    0 -0.00000000000E+00 -0.00000000000E+00 -0.10000000000E+04  0.10000000000E+04  0.00000000000E+00 0.  1.
    9000005    2    1    2  501    0  0.16679539800E+02 -0.46091485536E+02 -0.73071005459E+03  0.73237195812E+03  0.53729951354E+01 0.  0.
         13    1    3    3    0    0  0.16741216848E+02 -0.43230604171E+02 -0.67665269228E+03  0.67823891030E+03  0.00000000000E+00 0.  1.
          1    1    3    3  501    0 -0.61677048414E-01 -0.28608813646E+01 -0.54057362306E+02  0.54133047815E+02  0.00000000000E+00 0.  1.
         -1    1    1    2    0  502 -0.16679539800E+02  0.46091485536E+02 -0.26622156433E+03  0.27069642296E+03  0.00000000000E+00 0. -1.
<mgrwt>
<rscale>  1 0.30000000E+03</rscale>
<asrwt>0</asrwt>
<pdfrwt beam="1">  1       21 0.11157773E-01 0.30000000E+03</pdfrwt>
<pdfrwt beam="2">0</pdfrwt>
<totfact> 0.70684619E+03</totfact>
</mgrwt>
</event>
<event>
 6    1  0.1198667E-001  0.3000000E+03  0.7818608E-02  0.1093470E+00
         21   -1    0    0  501  502  0.00000000000E+00  0.00000000000E+00  0.35096637564E+01  0.35096637564E+01  0.00000000000E+00 0. -1.
         13   -1    0    0    0    0 -0.00000000000E+00 -0.00000000000E+00 -0.10000000000E+04  0.10000000000E+04  0.00000000000E+00 0.  1.
    9000005    2    1    2  501    0  0.34105723971E+02 -0.54502980359E+01 -0.90582426223E+03  0.90648779440E+03  0.31018053363E+01 0.  0.
         13    1    3    3    0    0  0.26486753367E+02 -0.53442123288E+01 -0.68862185930E+03  0.68915177851E+03  0.00000000000E+00 0.  1.
          3    1    3    3  501    0  0.76189706047E+01 -0.10608570711E+00 -0.21720240293E+03  0.21733601589E+03  0.00000000000E+00 0.  1.
         -1    1    1    2    0  502 -0.34105723971E+02  0.54502980359E+01 -0.90666074017E+02  0.97021869359E+02  0.00000000000E+00 0. -1.
<mgrwt>
<rscale>  1 0.30000000E+03</rscale>
<asrwt>0</asrwt>
<pdfrwt beam="1">  1       21 0.12762441E-01 0.30000000E+03</pdfrwt>
<pdfrwt beam="2">0</pdfrwt>
<totfact> 0.55398798E+03</totfact>
</mgrwt>
</event>
<event>
 6    1  0.1198667E-001  0.3000000E+03  0.7818608E-02  0.1093470E+00
         21   -1    0    0  501  502  0.00000000000E+00  0.00000000000E+00  0.13262730910E+01  0.13262730910E+01  0.00000000000E+00 0. -1.
         13   -1    0    0    0    0 -0.00000000000E+00 -0.00000000000E+00 -0.10000000000E+04  0.10000000000E+04  0.00000000000E+00 0.  1.
    9000005    2    1    2  501    0 -0.38312707432E+01 -0.34327301172E+02 -0.38101964358E+03  0.38270715853E+03  0.97856097763E+01 0.  0.
         13    1    3    3    0    0  0.13788037630E+01 -0.35387287063E+00 -0.22013863212E+02  0.22059839060E+02  0.00000000000E+00 0.  1.
          1    1    3    3  501    0 -0.52100745061E+01 -0.33973428301E+02 -0.35900578037E+03  0.36064731947E+03  0.00000000000E+00 0.  1.
         -3    1    1    2    0  502  0.38312707432E+01  0.34327301172E+02 -0.61765408333E+03  0.61861911456E+03  0.00000000000E+00 0. -1.
<mgrwt>
<rscale>  1 0.30000000E+03</rscale>
<asrwt>0</asrwt>
<pdfrwt beam="1">  1       21 0.48228214E-02 0.30000000E+03</pdfrwt>
<pdfrwt beam="2">0</pdfrwt>
<totfact> 0.30630299E+04</totfact>
</mgrwt>
</event>
<event>
 6    1  0.1198667E-001  0.3000000E+03  0.7818608E-02  0.1093470E+00
         21   -1    0    0  501  502  0.00000000000E+00  0.00000000000E+00  0.11507092387E+02  0.11507092387E+02  0.00000000000E+00 0. -1.
         13   -1    0    0    0    0 -0.00000000000E+00 -0.00000000000E+00 -0.10000000000E+04  0.10000000000E+04  0.00000000000E+00 0.  1.
    9000005    2    1    2  501    0 -0.10563823813E+03  0.82402794754E+01 -0.57247024845E+03  0.58220278016E+03  0.32484305448E+01 0.  0.
         13    1    3    3    0    0 -0.31916758974E+02  0.39771482584E+01 -0.17465372556E+03  0.17759059959E+03  0.00000000000E+00 0.  1.
          3    1    3    3  501    0 -0.73721479159E+02  0.42631312169E+01 -0.39781652290E+03  0.40461218057E+03  0.00000000000E+00 0.  1.
         -3    1    1    2    0  502  0.10563823813E+03 -0.82402794754E+01 -0.41602265916E+03  0.42930431223E+03  0.00000000000E+00 0. -1.
<mgrwt>
<rscale>  1 0.30000000E+03</rscale>
<asrwt>0</asrwt>
<pdfrwt beam="1">  1       21 0.41844061E-01 0.30000000E+03</pdfrwt>
<pdfrwt beam="2">0</pdfrwt>
<totfact> 0.54953588E+02</totfact>
</mgrwt>
</event>
<event>
 6    1  0.1198667E-001  0.3000000E+03  0.7818608E-02  0.1093470E+00
         21   -1    0    0  501  502  0.00000000000E+00  0.00000000000E+00  0.93169459781E+01  0.93169459781E+01  0.00000000000E+00 0. -1.
         13   -1    0    0    0    0 -0.00000000000E+00 -0.00000000000E+00 -0.10000000000E+04  0.10000000000E+04  0.00000000000E+00 0.  1.
    9000005    2    1    2  501    0 -0.17793826832E+02  0.67098060672E+02 -0.84595220383E+03  0.84879969140E+03  0.26485732716E+01 0.  0.
         13    1    3    3    0    0 -0.12550043586E+02  0.44290465277E+02 -0.54872543737E+03  0.55065302553E+03  0.00000000000E+00 0.  1.
          3    1    3    3  501    0 -0.52437832457E+01  0.22807595395E+02 -0.29722676646E+03  0.29814666588E+03  0.00000000000E+00 0.  1.
         -1    1    1    2    0  502  0.17793826832E+02 -0.67098060672E+02 -0.14473085019E+03  0.16051725458E+03  0.00000000000E+00 0. -1.
<mgrwt>
<rscale>  1 0.30000000E+03</rscale>
<asrwt>0</asrwt>
<pdfrwt beam="1">  1       21 0.33879875E-01 0.30000000E+03</pdfrwt>
<pdfrwt beam="2">0</pdfrwt>
<totfact> 0.85043512E+02</totfact>
</mgrwt>
</event>
<event>
 6    1  0.1198667E-001  0.3000000E+03  0.7818608E-02  0.1093470E+00
         21   -1    0    0  501  502  0.00000000000E+00  0.00000000000E+00  0.11808527521E+02  0.11808527521E+02  0.00000000000E+00 0. -1.
         13   -1    0    0    0    0 -0.00000000000E+00 -0.00000000000E+00 -0.10000000000E+04  0.10000000000E+04  0.00000000000E+00 0.  1.
    9000005    2    1    2  501    0  0.55899419824E+02  0.25319566370E+02 -0.91157367912E+03  0.91364482834E+03  0.38045114478E+01 0.  0.
         13    1    3    3    0    0  0.32317518195E+02  0.12629690449E+02 -0.52130573065E+03  0.52245918105E+03  0.00000000000E+00 0.  1.
          1    1    3    3  501    0  0.23581901630E+02  0.12689875922E+02 -0.39026794848E+03  0.39118564729E+03  0.00000000000E+00 0.  1.
         -3    1    1    2    0  502 -0.55899419824E+02 -0.25319566370E+02 -0.76617793355E+02  0.98163699179E+02  0.00000000000E+00 0. -1.
<mgrwt>
<rscale>  1 0.30000000E+03</rscale>
<asrwt>0</asrwt>
<pdfrwt beam="1">  1       21 0.42940191E-01 0.30000000E+03</pdfrwt>
<pdfrwt beam="2">0</pdfrwt>
<totfact> 0.52033053E+02</totfact>
</mgrwt>
</event>
<event>
 6    1  0.1198667E-001  0.3000000E+03  0.7818608E-02  0.1093470E+00
         21   -1    0    0  501  502  0.00000000000E+00  0.00000000000E+00  0.18677589808E+01  0.18677589808E+01  0.00000000000E+00 0. -1.
         13   -1    0    0    0    0 -0.00000000000E+00 -0.00000000000E+00 -0.10000000000E+04  0.10000000000E+04  0.00000000000E+00 0.  1.
    9000005    2    1    2  501    0  0.22644409181E-01 -0.30063717911E+02 -0.85849945495E+03  0.85903519059E+03  0.40394153856E+01 0.  0.
         13    1    3    3    0    0  0.51207407056E-01 -0.21428621342E+01 -0.37603968792E+02  0.37665009614E+02  0.00000000000E+00 0.  1.
          1    1    3    3  501    0 -0.28562997875E-01 -0.27920855777E+02 -0.82089548616E+03  0.82137018098E+03  0.00000000000E+00 0.  1.
         -3    1    1    2    0  502 -0.22644409181E-01  0.30063717911E+02 -0.13963278607E+03  0.14283256839E+03  0.00000000000E+00 0. -1.
<mgrwt>
<rscale>  1 0.30000000E+03</rscale>
<asrwt>0</asrwt>
<pdfrwt beam="1">  1       21 0.67918652E-02 0.30000000E+03</pdfrwt>
<pdfrwt beam="2">0</pdfrwt>
<totfact> 0.17004503E+04</totfact>
</mgrwt>
</event>
<event>
 6    1  0.1198667E-001  0.3000000E+03  0.7818608E-02  0.1093470E+00
         21   -1    0    0  501  502  0.00000000000E+00  0.00000000000E+00  0.96713970584E+00  0.96713970584E+00  0.00000000000E+00 0. -1.
         13   -1    0    0    0    0 -0.00000000000E+00 -0.00000000000E+00 -0.10000000000E+04  0.10000000000E+04  0.00000000000E+00 0.  1.
    9000005    2    1    2  501    0  0.20246770032E+01 -0.30959585130E+02 -0.50834935651E+03  0.50930374254E+03  0.29391616283E+01 0.  0.
         13    1    3    3    0    0 -0.75082179691E+00 -0.52920279074E+01 -0.84827305497E+02  0.84995535475E+02  0.00000000000E+00 0.  1.
          1    1    3    3  501    0  0.27754988001E+01 -0.25667557222E+02 -0.42352205102E+03  0.42430820707E+03  0.00000000000E+00 0.  1.
         -1    1    1    2    0  502 -0.20246770032E+01  0.30959585130E+02 -0.49068350378E+03  0.49166339716E+03  0.00000000000E+00 0. -1.
<mgrwt>
<rscale>  1 0.30000000E+03</rscale>
<asrwt>0</asrwt>
<pdfrwt beam="1">  1       21 0.35168791E-02 0.30000000E+03</pdfrwt>
<pdfrwt beam="2">0</pdfrwt>
<totfact> 0.52194562E+04</totfact>
</mgrwt>
</event>
<event>
 6    1  0.1198667E-001  0.3000000E+03  0.7818608E-02  0.1093470E+00
         21   -1    0    0  501  502  0.00000000000E+00  0.00000000000E+00  0.33458308730E+01  0.33458308730E+01  0.00000000000E+00 0. -1.
         13   -1    0    0    0    0 -0.00000000000E+00 -0.00000000000E+00 -0.10000000000E+04  0.10000000000E+04  0.00000000000E+00 0.  1.
    9000005    2    1    2  501    0  0.28353050678E+02  0.16757078302E+02 -0.91064020296E+03  0.91124209842E+03  0.34478297974E+01 0.  0.
         13    1    3    3    0    0  0.21879586021E+02  0.14281773804E+02 -0.69728345653E+03  0.69777281696E+03  0.00000000000E+00 0.  1.
          1    1    3    3  501    0  0.64734646566E+01  0.24753044975E+01 -0.21335674644E+03  0.21346928146E+03  0.00000000000E+00 0.  1.
         -1    1    1    2    0  502 -0.28353050678E+02 -0.16757078302E+02 -0.86013966166E+02  0.92103732451E+02  0.00000000000E+00 0. -1.
<mgrwt>
<rscale>  1 0.30000000E+03</rscale>
<asrwt>0</asrwt>
<pdfrwt beam="1">  1       21 0.12166683E-01 0.30000000E+03</pdfrwt>
<pdfrwt beam="2">0</pdfrwt>
<totfact> 0.60437695E+03</totfact>
</mgrwt>
</event>
<event>
 6    1  0.1198667E-001  0.3000000E+03  0.7818608E-02  0.1093470E+00
         21   -1    0    0  501  502  0.00000000000E+00  0.00000000000E+00  0.48911486933E+01  0.48911486933E+01  0.00000000000E+00 0. -1.
         13   -1    0    0    0    0 -0.00000000000E+00 -0.00000000000E+00 -0.10000000000E+04  0.10000000000E+04  0.00000000000E+00 0.  1.
    9000005    2    1    2  501    0 -0.22887488593E+02  0.47879961853E+02 -0.82451081501E+03  0.82622940722E+03  0.45410781484E+01 0.  0.
         13    1    3    3    0    0 -0.18167614356E+02  0.33237941510E+02 -0.58612832277E+03  0.58735103109E+03  0.00000000000E+00 0.  1.
          1    1    3    3  501    0 -0.47198742371E+01  0.14642020343E+02 -0.23838249224E+03  0.23887837612E+03  0.00000000000E+00 0.  1.
         -3    1    1    2    0  502  0.22887488593E+02 -0.47879961853E+02 -0.17059803629E+03  0.17866174148E+03  0.00000000000E+00 0. -1.
<mgrwt>
<rscale>  1 0.30000000E+03</rscale>
<asrwt>0</asrwt>
<pdfrwt beam="1">  1       21 0.17786033E-01 0.30000000E+03</pdfrwt>
<pdfrwt beam="2">0</pdfrwt>
<totfact> 0.29962387E+03</totfact>
</mgrwt>
</event>
<event>
 6    1  0.1198667E-001  0.3000000E+03  0.7818608E-02  0.1093470E+00
         21   -1    0    0  501  502  0.00000000000E+00  0.00000000000E+00  0.49523429514E+01  0.49523429514E+01  0.00000000000E+00 0. -1.
         13   -1    0    0    0    0 -0.00000000000E+00 -0.00000000000E+00 -0.10000000000E+04  0.10000000000E+04  0.00000000000E+00 0.  1.
    9000005    2    1    2  501    0 -0.65335648792E+02 -0.30488089105E+01 -0.68237951993E+03  0.68551626764E+03  0.35639507909E+01 0.  0.
         13    1    3    3    0    0 -0.14751647519E+02 -0.20733769561E+01 -0.14941269675E+03  0.15015346798E+03  0.00000000000E+00 0.  1.
          1    1    3    3  501    0 -0.50584001274E+02 -0.97543195442E+00 -0.53296682317E+03  0.53536279966E+03  0.00000000000E+00 0.  1.
         -1    1    1    2    0  502  0.65335648792E+02  0.30488089105E+01 -0.31266813712E+03  0.31943607531E+03  0.00000000000E+00 0. -1.
<mgrwt>
<rscale>  1 0.30000000E+03</rscale>
<asrwt>0</asrwt>
<pdfrwt beam="1">  1       21 0.18008558E-01 0.30000000E+03</pdfrwt>
<pdfrwt beam="2">0</pdfrwt>
<totfact> 0.29269307E+03</totfact>
</mgrwt>
</event>
<event>
 6    1  0.1198667E-001  0.3000000E+03  0.7818608E-02  0.1093470E+00
         21   -1    0    0  501  502  0.00000000000E+00  0.00000000000E+00  0.18885231303E+01  0.18885231303E+01  0.00000000000E+00 0. -1.
         13   -1    0    0    0    0 -0.00000000000E+00 -0.00000000000E+00 -0.10000000000E+04  0.10000000000E+04  0.00000000000E+00 0.  1.
    9000005    2    1    2  501    0  0.29736110836E+01 -0.37392559863E+02 -0.75122326797E+03  0.75216701107E+03  0.34304947810E+01 0.  0.
         13    1    3    3    0    0 -0.59596599825E-02 -0.14667408640E+02 -0.26957996599E+03  0.26997868614E+03  0.00000000000E+00 0.  1.
          3    1    3    3  501    0  0.29795707436E+01 -0.22725151223E+02 -0.48164330199E+03  0.48218832492E+03  0.00000000000E+00 0.  1.
         -3    1    1    2    0  502 -0.29736110836E+01  0.37392559863E+02 -0.24688820890E+03  0.24972151206E+03  0.00000000000E+00 0. -1.
<mgrwt>
<rscale>  1 0.30000000E+03</rscale>
<asrwt>0</asrwt>
<pdfrwt beam="1">  1       21 0.68673713E-02 0.30000000E+03</pdfrwt>
<pdfrwt beam="2">0</pdfrwt>
<totfact> 0.16681059E+04</totfact>
</mgrwt>
</event>
<event>
 6    1  0.1198667E-001  0.3000000E+03  0.7818608E-02  0.1093470E+00
         21   -1    0    0  501  502  0.00000000000E+00  0.00000000000E+00  0.17425308718E+01  0.17425308718E+01  0.00000000000E+00 0. -1.
         13   -1    0    0    0    0 -0.00000000000E+00 -0.00000000000E+00 -0.10000000000E+04  0.10000000000E+04  0.00000000000E+00 0.  1.
    9000005    2    1    2  501    0 -0.40891903291E+00  0.38135809653E+02 -0.70168871871E+03  0.70273160981E+03  0.31859474800E+01 0.  0.
         13    1    3    3    0    0  0.79495539270E+00  0.27853246768E+01 -0.55611836745E+02  0.55687219124E+02  0.00000000000E+00 0.  1.
          1    1    3    3  501    0 -0.12038744256E+01  0.35350484976E+02 -0.64607688197E+03  0.64704439068E+03  0.00000000000E+00 0.  1.
         -3    1    1    2    0  502  0.40891903291E+00 -0.38135809653E+02 -0.29656875042E+03  0.29901092106E+03  0.00000000000E+00 0. -1.
<mgrwt>
<rscale>  1 0.30000000E+03</rscale>
<asrwt>0</asrwt>
<pdfrwt beam="1">  1       21 0.63364893E-02 0.30000000E+03</pdfrwt>
<pdfrwt beam="2">0</pdfrwt>
<totfact> 0.19176997E+04</totfact>
</mgrwt>
</event>
<event>
 6    1  0.1198667E-001  0.3000000E+03  0.7818608E-02  0.1093470E+00
         21   -1    0    0  501  502  0.00000000000E+00  0.00000000000E+00  0.31629303348E+01  0.31629303348E+01  0.00000000000E+00 0. -1.
         13   -1    0    0    0    0 -0.00000000000E+00 -0.00000000000E+00 -0.10000000000E+04  0.10000000000E+04  0.00000000000E+00 0.  1.
    9000005    2    1    2  501    0  0.15831253178E+02  0.34172729239E+02 -0.87078221927E+03  0.87160218654E+03  0.32084538276E+01 0.  0.
         13    1    3    3    0    0  0.15097638065E+02  0.33428507141E+02 -0.83601596334E+03  0.83682022844E+03  0.00000000000E+00 0.  1.
          3    1    3    3  501    0  0.73361511269E+00  0.74422209834E+00 -0.34766255934E+02  0.34781958101E+02  0.00000000000E+00 0.  1.
         -1    1    1    2    0  502 -0.15831253178E+02 -0.34172729239E+02 -0.12605485039E+03  0.13156074380E+03  0.00000000000E+00 0. -1.
<mgrwt>
<rscale>  1 0.30000000E+03</rscale>
<asrwt>0</asrwt>
<pdfrwt beam="1">  1       21 0.11501589E-01 0.30000000E+03</pdfrwt>
<pdfrwt beam="2">0</pdfrwt>
<totfact> 0.66918830E+03</totfact>
</mgrwt>
</event>
<event>
 6    1  0.1198667E-001  0.3000000E+03  0.7818608E-02  0.1093470E+00
         21   -1    0    0  501  502  0.00000000000E+00  0.00000000000E+00  0.13325479585E+01  0.13325479585E+01  0.00000000000E+00 0. -1.
         13   -1    0    0    0    0 -0.00000000000E+00 -0.00000000000E+00 -0.10000000000E+04  0.10000000000E+04  0.00000000000E+00 0.  1.
    9000005    2    1    2  501    0  0.24996534660E+02 -0.16864875508E+02 -0.78057031138E+03  0.78116076608E+03  0.35889669614E+01 0.  0.
         13    1    3    3    0    0  0.33258418897E+01 -0.34263012892E+01 -0.10249509118E+03  0.10260625946E+03  0.00000000000E+00 0.  1.
          3    1    3    3  501    0  0.21670692770E+02 -0.13438574218E+02 -0.67807522020E+03  0.67855450661E+03  0.00000000000E+00 0.  1.
         -1    1    1    2    0  502 -0.24996534660E+02  0.16864875508E+02 -0.21809714066E+03  0.22017178188E+03  0.00000000000E+00 0. -1.
<mgrwt>
<rscale>  1 0.30000000E+03</rscale>
<asrwt>0</asrwt>
<pdfrwt beam="1">  1       21 0.48456392E-02 0.30000000E+03</pdfrwt>
<pdfrwt beam="2">0</pdfrwt>
<totfact> 0.30385201E+04</totfact>
</mgrwt>
</event>
<event>
 6    1  0.1198667E-001  0.3000000E+03  0.7818608E-02  0.1093470E+00
         21   -1    0    0  501  502  0.00000000000E+00  0.00000000000E+00  0.17107641109E+01  0.17107641109E+01  0.00000000000E+00 0. -1.
         13   -1    0    0    0    0 -0.00000000000E+00 -0.00000000000E+00 -0.10000000000E+04  0.10000000000E+04  0.00000000000E+00 0.  1.
    9000005    2    1    2  501    0 -0.26622956005E+02 -0.28378768922E+02 -0.66698459379E+03  0.66812883686E+03  0.36821160715E+01 0.  0.
         13    1    3    3    0    0 -0.41360174579E+01 -0.61235386055E+01 -0.11259582990E+03  0.11283804888E+03  0.00000000000E+00 0.  1.
          3    1    3    3  501    0 -0.22486938547E+02 -0.22255230316E+02 -0.55438876389E+03  0.55529078797E+03  0.00000000000E+00 0.  1.
         -3    1    1    2    0  502  0.26622956005E+02  0.28378768922E+02 -0.33130464210E+03  0.33358192725E+03  0.00000000000E+00 0. -1.
<mgrwt>
<rscale>  1 0.30000000E+03</rscale>
<asrwt>0</asrwt>
<pdfrwt beam="1">  1       21 0.62209735E-02 0.30000000E+03</pdfrwt>
<pdfrwt beam="2">0</pdfrwt>
<totfact> 0.19796530E+04</totfact>
</mgrwt>
</event>
<event>
 6    1  0.1198667E-001  0.3000000E+03  0.7818608E-02  0.1093470E+00
         21   -1    0    0  501  502  0.00000000000E+00  0.00000000000E+00  0.13323121626E+01  0.13323121626E+01  0.00000000000E+00 0. -1.
         13   -1    0    0    0    0 -0.00000000000E+00 -0.00000000000E+00 -0.10000000000E+04  0.10000000000E+04  0.00000000000E+00 0.  1.
    9000005    2    1    2  501    0  0.11142441898E+02 -0.29959999205E+02 -0.73994725237E+03  0.74064472271E+03  0.33035482822E+01 0.  0.
         13    1    3    3    0    0  0.82149948228E+01 -0.21147681777E+02 -0.48972271900E+03  0.49024794960E+03  0.00000000000E+00 0.  1.
          3    1    3    3  501    0  0.29274470752E+01 -0.88123174282E+01 -0.25022453337E+03  0.25039677311E+03  0.00000000000E+00 0.  1.
         -3    1    1    2    0  502 -0.11142441898E+02  0.29959999205E+02 -0.25872043547E+03  0.26068758945E+03  0.00000000000E+00 0. -1.
<mgrwt>
<rscale>  1 0.30000000E+03</rscale>
<asrwt>0</asrwt>
<pdfrwt beam="1">  1       21 0.48447817E-02 0.30000000E+03</pdfrwt>
<pdfrwt beam="2">0</pdfrwt>
<totfact> 0.30394355E+04</totfact>
</mgrwt>
</event>
<event>
 6    1  0.1198667E-001  0.3000000E+03  0.7818608E-02  0.1093470E+00
         21   -1    0    0  501  502  0.00000000000E+00  0.00000000000E+00  0.14820055450E+01  0.14820055450E+01  0.00000000000E+00 0. -1.
         13   -1    0    0    0    0 -0.00000000000E+00 -0.00000000000E+00 -0.10000000000E+04  0.10000000000E+04  0.00000000000E+00 0.  1.
    9000005    2    1    2  501    0  0.34305936007E+02  0.15896030047E+02 -0.41002060504E+03  0.41177126427E+03  0.30160423879E+01 0.  0.
         13    1    3    3    0    0  0.10672994409E+02  0.59957783134E+01 -0.12151759752E+03  0.12213266834E+03  0.00000000000E+00 0.  1.
          3    1    3    3  501    0  0.23632941598E+02  0.99002517339E+01 -0.28850300751E+03  0.28963859594E+03  0.00000000000E+00 0.  1.
         -3    1    1    2    0  502 -0.34305936007E+02 -0.15896030047E+02 -0.58849738942E+03  0.58971074127E+03  0.00000000000E+00 0. -1.
<mgrwt>
<rscale>  1 0.30000000E+03</rscale>
<asrwt>0</asrwt>
<pdfrwt beam="1">  1       21 0.53891224E-02 0.30000000E+03</pdfrwt>
<pdfrwt beam="2">0</pdfrwt>
<totfact> 0.25343243E+04</totfact>
</mgrwt>
</event>
<event>
 6    1  0.1198667E-001  0.3000000E+03  0.7818608E-02  0.1093470E+00
         21   -1    0    0  501  502  0.00000000000E+00  0.00000000000E+00  0.25076079195E+01  0.25076079195E+01  0.00000000000E+00 0. -1.
         13   -1    0    0    0    0 -0.00000000000E+00 -0.00000000000E+00 -0.10000000000E+04  0.10000000000E+04  0.00000000000E+00 0.  1.
    9000005    2    1    2  501    0  0.20819893178E+02 -0.32051603736E+02 -0.82149143619E+03  0.82240455484E+03  0.63481363457E+01 0.  0.
         13    1    3    3    0    0  0.12512078398E+02 -0.19873305668E+02 -0.56744174987E+03  0.56792749526E+03  0.00000000000E+00 0.  1.
          1    1    3    3  501    0  0.83078147796E+01 -0.12178298068E+02 -0.25404968632E+03  0.25447705957E+03  0.00000000000E+00 0.  1.
         -3    1    1    2    0  502 -0.20819893178E+02  0.32051603736E+02 -0.17600095589E+03  0.18010305308E+03  0.00000000000E+00 0. -1.
<mgrwt>
<rscale>  1 0.30000000E+03</rscale>
<asrwt>0</asrwt>
<pdfrwt beam="1">  1       21 0.91185935E-02 0.30000000E+03</pdfrwt>
<pdfrwt beam="2">0</pdfrwt>
<totfact> 0.10140020E+04</totfact>
</mgrwt>
</event>
<event>
 6    1  0.1198667E-001  0.3000000E+03  0.7818608E-02  0.1093470E+00
         21   -1    0    0  501  502  0.00000000000E+00  0.00000000000E+00  0.30872892150E+01  0.30872892150E+01  0.00000000000E+00 0. -1.
         13   -1    0    0    0    0 -0.00000000000E+00 -0.00000000000E+00 -0.10000000000E+04  0.10000000000E+04  0.00000000000E+00 0.  1.
    9000005    2    1    2  501    0  0.12671123626E+01 -0.40718367585E+02 -0.15874178795E+03  0.16392694284E+03  0.36737333349E+01 0.  0.
         13    1    3    3    0    0  0.19124240353E+01 -0.30972955789E+02 -0.11552293283E+03  0.11961826518E+03  0.00000000000E+00 0.  1.
          1    1    3    3  501    0 -0.64531167266E+00 -0.97454117959E+01 -0.43218855122E+02  0.44308677663E+02  0.00000000000E+00 0.  1.
         -3    1    1    2    0  502 -0.12671123626E+01  0.40718367585E+02 -0.83817092284E+03  0.83916034637E+03  0.00000000000E+00 0. -1.
<mgrwt>
<rscale>  1 0.30000000E+03</rscale>
<asrwt>0</asrwt>
<pdfrwt beam="1">  1       21 0.11226530E-01 0.30000000E+03</pdfrwt>
<pdfrwt beam="2">0</pdfrwt>
<totfact> 0.69906482E+03</totfact>
</mgrwt>
</event>
<event>
 6    1  0.1198667E-001  0.3000000E+03  0.7818608E-02  0.1093470E+00
         21   -1    0    0  501  502  0.00000000000E+00  0.00000000000E+00  0.21520873891E+01  0.21520873891E+01  0.00000000000E+00 0. -1.
         13   -1    0    0    0    0 -0.00000000000E+00 -0.00000000000E+00 -0.10000000000E+04  0.10000000000E+04  0.00000000000E+00 0.  1.
    9000005    2    1    2  501    0 -0.92856279983E+01 -0.36314568790E+02 -0.79365970238E+03  0.79455200071E+03  0.34911100909E+01 0.  0.
         13    1    3    3    0    0 -0.58600981059E+01 -0.22750346236E+02 -0.53220965802E+03  0.53272792220E+03  0.00000000000E+00 0.  1.
          1    1    3    3  501    0 -0.34255298924E+01 -0.13564222553E+02 -0.26145004436E+03  0.26182407851E+03  0.00000000000E+00 0.  1.
         -1    1    1    2    0  502  0.92856279983E+01  0.36314568790E+02 -0.20418821023E+03  0.20760008668E+03  0.00000000000E+00 0. -1.
<mgrwt>
<rscale>  1 0.30000000E+03</rscale>
<asrwt>0</asrwt>
<pdfrwt beam="1">  1       21 0.78257888E-02 0.30000000E+03</pdfrwt>
<pdfrwt beam="2">0</pdfrwt>
<totfact> 0.13277224E+04</totfact>
</mgrwt>
</event>
<event>
 6    1  0.1198667E-001  0.3000000E+03  0.7818608E-02  0.1093470E+00
         21   -1    0    0  501  502  0.00000000000E+00  0.00000000000E+00  0.12902315810E+01  0.12902315810E+01  0.00000000000E+00 0. -1.
         13   -1    0    0    0    0 -0.00000000000E+00 -0.00000000000E+00 -0.10000000000E+04  0.10000000000E+04  0.00000000000E+00 0.  1.
    9000005    2    1    2  501    0  0.27177331615E+02  0.16656276339E+02 -0.72816095929E+03  0.72887015703E+03  0.41574373503E+01 0.  0.
         13    1    3    3    0    0  0.18641546793E+02  0.11659926551E+02 -0.45652524461E+03  0.45705443891E+03  0.00000000000E+00 0.  1.
          1    1    3    3  501    0  0.85357848214E+01  0.49963497880E+01 -0.27163571467E+03  0.27181571812E+03  0.00000000000E+00 0.  1.
         -3    1    1    2    0  502 -0.27177331615E+02 -0.16656276339E+02 -0.27054880913E+03  0.27242007455E+03  0.00000000000E+00 0. -1.
<mgrwt>
<rscale>  1 0.30000000E+03</rscale>
<asrwt>0</asrwt>
<pdfrwt beam="1">  1       21 0.46917611E-02 0.30000000E+03</pdfrwt>
<pdfrwt beam="2">0</pdfrwt>
<totfact> 0.32099943E+04</totfact>
</mgrwt>
</event>
<event>
 6    1  0.1198667E-001  0.3000000E+03  0.7818608E-02  0.1093470E+00
         21   -1    0    0  501  502  0.00000000000E+00  0.00000000000E+00  0.25217794035E+01  0.25217794035E+01  0.00000000000E+00 0. -1.
         13   -1    0    0    0    0 -0.00000000000E+00 -0.00000000000E+00 -0.10000000000E+04  0.10000000000E+04  0.00000000000E+00 0.  1.
    9000005    2    1    2  501    0 -0.22363291145E+02  0.25420431928E+02 -0.86874736675E+03  0.86941299727E+03  0.32645717009E+01 0.  0.
         13    1    3    3    0    0 -0.66590863081E+01  0.96090975091E+01 -0.31885359880E+03  0.31906785431E+03  0.00000000000E+00 0.  1.
          3    1    3    3  501    0 -0.15704204837E+02  0.15811334419E+02 -0.54989376795E+03  0.55034514296E+03  0.00000000000E+00 0.  1.
         -3    1    1    2    0  502  0.22363291145E+02 -0.25420431928E+02 -0.12873085384E+03  0.13310878213E+03  0.00000000000E+00 0. -1.
<mgrwt>
<rscale>  1 0.30000000E+03</rscale>
<asrwt>0</asrwt>
<pdfrwt beam="1">  1       21 0.91701263E-02 0.30000000E+03</pdfrwt>
<pdfrwt beam="2">0</pdfrwt>
<totfact> 0.10039134E+04</totfact>
</mgrwt>
</event>
<event>
 6    1  0.1198667E-001  0.3000000E+03  0.7818608E-02  0.1093470E+00
         21   -1    0    0  501  502  0.00000000000E+00  0.00000000000E+00  0.11067990670E+01  0.11067990670E+01  0.00000000000E+00 0. -1.
         13   -1    0    0    0    0 -0.00000000000E+00 -0.00000000000E+00 -0.10000000000E+04  0.10000000000E+04  0.00000000000E+00 0.  1.
    9000005    2    1    2  501    0  0.30899389602E+02  0.72843113435E+01 -0.36353036231E+03  0.36495133837E+03  0.52270056809E+01 0.  0.
         13    1    3    3    0    0  0.23214332519E+02  0.53461913228E+01 -0.24464542013E+03  0.24580249915E+03  0.00000000000E+00 0.  1.
          1    1    3    3  501    0  0.76850570830E+01  0.19381200207E+01 -0.11888494218E+03  0.11914883922E+03  0.00000000000E+00 0.  1.
         -3    1    1    2    0  502 -0.30899389602E+02 -0.72843113435E+01 -0.63536283862E+03  0.63615546069E+03  0.00000000000E+00 0. -1.
<mgrwt>
<rscale>  1 0.30000000E+03</rscale>
<asrwt>0</asrwt>
<pdfrwt beam="1">  1       21 0.40247324E-02 0.30000000E+03</pdfrwt>
<pdfrwt beam="2">0</pdfrwt>
<totfact> 0.41613043E+04</totfact>
</mgrwt>
</event>
<event>
 6    1  0.1198667E-001  0.3000000E+03  0.7818608E-02  0.1093470E+00
         21   -1    0    0  501  502  0.00000000000E+00  0.00000000000E+00  0.13080736847E+01  0.13080736847E+01  0.00000000000E+00 0. -1.
         13   -1    0    0    0    0 -0.00000000000E+00 -0.00000000000E+00 -0.10000000000E+04  0.10000000000E+04  0.00000000000E+00 0.  1.
    9000005    2    1    2  501    0  0.77509943028E+01 -0.29864714745E+02 -0.75956390965E+03  0.76019775152E+03  0.33629563708E+01 0.  0.
         13    1    3    3    0    0  0.74348679714E+01 -0.28620813960E+02 -0.74082775581E+03  0.74141769067E+03  0.00000000000E+00 0.  1.
          3    1    3    3  501    0  0.31612633141E+00 -0.12439007856E+01 -0.18736153839E+02  0.18780060855E+02  0.00000000000E+00 0.  1.
         -3    1    1    2    0  502 -0.77509943028E+01  0.29864714745E+02 -0.23912801666E+03  0.24111032216E+03  0.00000000000E+00 0. -1.
<mgrwt>
<rscale>  1 0.30000000E+03</rscale>
<asrwt>0</asrwt>
<pdfrwt beam="1">  1       21 0.47566416E-02 0.30000000E+03</pdfrwt>
<pdfrwt beam="2">0</pdfrwt>
<totfact> 0.31358932E+04</totfact>
</mgrwt>
</event>
<event>
 6    1  0.1198667E-001  0.3000000E+03  0.7818608E-02  0.1093470E+00
         21   -1    0    0  501  502  0.00000000000E+00  0.00000000000E+00  0.37581268020E+01  0.37581268020E+01  0.00000000000E+00 0. -1.
         13   -1    0    0    0    0 -0.00000000000E+00 -0.00000000000E+00 -0.10000000000E+04  0.10000000000E+04  0.00000000000E+00 0.  1.
    9000005    2    1    2  501    0 -0.28821786451E+02  0.25210105343E+02 -0.88995908514E+03  0.89078788372E+03  0.31041529225E+01 0.  0.
         13    1    3    3    0    0 -0.27458887701E+01  0.36707713862E+01 -0.99356278737E+02  0.99461975610E+02  0.00000000000E+00 0.  1.
          3    1    3    3  501    0 -0.26075897681E+02  0.21539333957E+02 -0.79060280641E+03  0.79132590811E+03  0.00000000000E+00 0.  1.
         -1    1    1    2    0  502  0.28821786451E+02 -0.25210105343E+02 -0.10628278806E+03  0.11297024308E+03  0.00000000000E+00 0. -1.
<mgrwt>
<rscale>  1 0.30000000E+03</rscale>
<asrwt>0</asrwt>
<pdfrwt beam="1">  1       21 0.13665944E-01 0.30000000E+03</pdfrwt>
<pdfrwt beam="2">0</pdfrwt>
<totfact> 0.48886263E+03</totfact>
</mgrwt>
</event>
<event>
 6    1  0.1198667E-001  0.3000000E+03  0.7818608E-02  0.1093470E+00
         21   -1    0    0  501  502  0.00000000000E+00  0.00000000000E+00  0.16064369783E+01  0.16064369783E+01  0.00000000000E+00 0. -1.
         13   -1    0    0    0    0 -0.00000000000E+00 -0.00000000000E+00 -0.10000000000E+04  0.10000000000E+04  0.00000000000E+00 0.  1.
    9000005    2    1    2  501    0  0.31702204643E+02 -0.15215522212E+02 -0.26295919557E+03  0.26533186135E+03  0.41129325802E+01 0.  0.
         13    1    3    3    0    0  0.18005296616E+02 -0.94281114191E+01 -0.16588751454E+03  0.16712793744E+03  0.00000000000E+00 0.  1.
          3    1    3    3  501    0  0.13696908027E+02 -0.57874107927E+01 -0.97071681030E+02  0.98203923910E+02  0.00000000000E+00 0.  1.
         -3    1    1    2    0  502 -0.31702204643E+02  0.15215522212E+02 -0.73543436745E+03  0.73627457563E+03  0.00000000000E+00 0. -1.
<mgrwt>
<rscale>  1 0.30000000E+03</rscale>
<asrwt>0</asrwt>
<pdfrwt beam="1">  1       21 0.58416013E-02 0.30000000E+03</pdfrwt>
<pdfrwt beam="2">0</pdfrwt>
<totfact> 0.22066220E+04</totfact>
</mgrwt>
</event>
<event>
 6    1  0.1198667E-001  0.3000000E+03  0.7818608E-02  0.1093470E+00
         21   -1    0    0  501  502  0.00000000000E+00  0.00000000000E+00  0.17152118092E+01  0.17152118092E+01  0.00000000000E+00 0. -1.
         13   -1    0    0    0    0 -0.00000000000E+00 -0.00000000000E+00 -0.10000000000E+04  0.10000000000E+04  0.00000000000E+00 0.  1.
    9000005    2    1    2  501    0  0.29845070058E+02  0.59965915760E+01 -0.16258594824E+03  0.16546211710E+03  0.41029638638E+01 0.  0.
         13    1    3    3    0    0  0.19603608442E+02  0.36734303747E+01 -0.11648619288E+03  0.11818133814E+03  0.00000000000E+00 0.  1.
          3    1    3    3  501    0  0.10241461617E+02  0.23231612013E+01 -0.46099755361E+02  0.47280778952E+02  0.00000000000E+00 0.  1.
         -3    1    1    2    0  502 -0.29845070058E+02 -0.59965915760E+01 -0.83569883995E+03  0.83625309471E+03  0.00000000000E+00 0. -1.
<mgrwt>
<rscale>  1 0.30000000E+03</rscale>
<asrwt>0</asrwt>
<pdfrwt beam="1">  1       21 0.62371470E-02 0.30000000E+03</pdfrwt>
<pdfrwt beam="2">0</pdfrwt>
<totfact> 0.19707935E+04</totfact>
</mgrwt>
</event>
<event>
 6    1  0.1198667E-001  0.3000000E+03  0.7818608E-02  0.1093470E+00
         21   -1    0    0  501  502  0.00000000000E+00  0.00000000000E+00  0.32467189219E+01  0.32467189219E+01  0.00000000000E+00 0. -1.
         13   -1    0    0    0    0 -0.00000000000E+00 -0.00000000000E+00 -0.10000000000E+04  0.10000000000E+04  0.00000000000E+00 0.  1.
    9000005    2    1    2  501    0  0.22712099830E+02 -0.23099669832E+02 -0.91077353605E+03  0.91136662978E+03  0.55915729891E+01 0.  0.
         13    1    3    3    0    0  0.65248118454E+01 -0.10097426596E+02 -0.30228792376E+03  0.30252689144E+03  0.00000000000E+00 0.  1.
          3    1    3    3  501    0  0.16187287985E+02 -0.13002243237E+02 -0.60848561228E+03  0.60883973834E+03  0.00000000000E+00 0.  1.
         -1    1    1    2    0  502 -0.22712099830E+02  0.23099669832E+02 -0.85979745033E+02  0.91880089143E+02  0.00000000000E+00 0. -1.
<mgrwt>
<rscale>  1 0.30000000E+03</rscale>
<asrwt>0</asrwt>
<pdfrwt beam="1">  1       21 0.11806276E-01 0.30000000E+03</pdfrwt>
<pdfrwt beam="2">0</pdfrwt>
<totfact> 0.63827295E+03</totfact>
</mgrwt>
</event>
<event>
 6    1  0.1198667E-001  0.3000000E+03  0.7818608E-02  0.1093470E+00
         21   -1    0    0  501  502  0.00000000000E+00  0.00000000000E+00  0.27449921389E+01  0.27449921389E+01  0.00000000000E+00 0. -1.
         13   -1    0    0    0    0 -0.00000000000E+00 -0.00000000000E+00 -0.10000000000E+04  0.10000000000E+04  0.00000000000E+00 0.  1.
    9000005    2    1    2  501    0 -0.16095767451E+02 -0.26300190180E+02 -0.90385066702E+03  0.90438267913E+03  0.33508651482E+01 0.  0.
         13    1    3    3    0    0 -0.39884080955E+01 -0.67750570833E+01 -0.19052525459E+03  0.19068739192E+03  0.00000000000E+00 0.  1.
          1    1    3    3  501    0 -0.12107359355E+02 -0.19525133096E+02 -0.71332541242E+03  0.71369528721E+03  0.00000000000E+00 0.  1.
         -1    1    1    2    0  502  0.16095767451E+02  0.26300190180E+02 -0.93404340842E+02  0.98362313014E+02  0.00000000000E+00 0. -1.
<mgrwt>
<rscale>  1 0.30000000E+03</rscale>
<asrwt>0</asrwt>
<pdfrwt beam="1">  1       21 0.99818106E-02 0.30000000E+03</pdfrwt>
<pdfrwt beam="2">0</pdfrwt>
<totfact> 0.86312288E+03</totfact>
</mgrwt>
</event>
<event>
 6    1  0.1198667E-001  0.3000000E+03  0.7818608E-02  0.1093470E+00
         21   -1    0    0  501  502  0.00000000000E+00  0.00000000000E+00  0.19538326739E+01  0.19538326739E+01  0.00000000000E+00 0. -1.
         13   -1    0    0    0    0 -0.00000000000E+00 -0.00000000000E+00 -0.10000000000E+04  0.10000000000E+04  0.00000000000E+00 0.  1.
    9000005    2    1    2  501    0  0.37281648010E+02 -0.42468910353E+01 -0.76268805005E+03  0.76362338827E+03  0.44339669314E+01 0.  0.
         13    1    3    3    0    0  0.13812026218E+02  0.22284436770E+00 -0.30355890180E+03  0.30387304683E+03  0.00000000000E+00 0.  1.
          1    1    3    3  501    0  0.23469621792E+02 -0.44697354030E+01 -0.45912914826E+03  0.45975034145E+03  0.00000000000E+00 0.  1.
         -1    1    1    2    0  502 -0.37281648010E+02  0.42468910353E+01 -0.23535811727E+03  0.23833044440E+03  0.00000000000E+00 0. -1.
<mgrwt>
<rscale>  1 0.30000000E+03</rscale>
<asrwt>0</asrwt>
<pdfrwt beam="1">  1       21 0.71048611E-02 0.30000000E+03</pdfrwt>
<pdfrwt beam="2">0</pdfrwt>
<totfact> 0.15722859E+04</totfact>
</mgrwt>
</event>
<event>
 6    1  0.1198667E-001  0.3000000E+03  0.7818608E-02  0.1093470E+00
         21   -1    0    0  501  502  0.00000000000E+00  0.00000000000E+00  0.25741446845E+01  0.25741446845E+01  0.00000000000E+00 0. -1.
         13   -1    0    0    0    0 -0.00000000000E+00 -0.00000000000E+00 -0.10000000000E+04  0.10000000000E+04  0.00000000000E+00 0.  1.
    9000005    2    1    2  501    0  0.35991136073E+01  0.29850767823E+02 -0.90140948076E+03  0.90196019863E+03  0.94406538824E+01 0.  0.
         13    1    3    3    0    0  0.48184107398E+01  0.11398070216E+02 -0.45415732743E+03  0.45432588650E+03  0.00000000000E+00 0.  1.
          1    1    3    3  501    0 -0.12192971326E+01  0.18452697608E+02 -0.44725215333E+03  0.44763431213E+03  0.00000000000E+00 0.  1.
         -3    1    1    2    0  502 -0.35991136073E+01 -0.29850767823E+02 -0.96016374558E+02  0.10061394606E+03  0.00000000000E+00 0. -1.
<mgrwt>
<rscale>  1 0.30000000E+03</rscale>
<asrwt>0</asrwt>
<pdfrwt beam="1">  1       21 0.93605459E-02 0.30000000E+03</pdfrwt>
<pdfrwt beam="2">0</pdfrwt>
<totfact> 0.96791737E+03</totfact>
</mgrwt>
</event>
<event>
 6    1  0.1198667E-001  0.3000000E+03  0.7818608E-02  0.1093470E+00
         21   -1    0    0  501  502  0.00000000000E+00  0.00000000000E+00  0.47992584215E+01  0.47992584215E+01  0.00000000000E+00 0. -1.
         13   -1    0    0    0    0 -0.00000000000E+00 -0.00000000000E+00 -0.10000000000E+04  0.10000000000E+04  0.00000000000E+00 0.  1.
    9000005    2    1    2  501    0  0.41778811698E+01 -0.31399167256E+02 -0.94436845354E+03  0.94490531964E+03  0.33052455390E+01 0.  0.
         13    1    3    3    0    0  0.26469092731E+01 -0.25461664822E+02 -0.72768501453E+03  0.72813514053E+03  0.00000000000E+00 0.  1.
          3    1    3    3  501    0  0.15309718966E+01 -0.59375024339E+01 -0.21668343901E+03  0.21677017911E+03  0.00000000000E+00 0.  1.
         -1    1    1    2    0  502 -0.41778811698E+01  0.31399167256E+02 -0.50832288037E+02  0.59893938779E+02  0.00000000000E+00 0. -1.
<mgrwt>
<rscale>  1 0.30000000E+03</rscale>
<asrwt>0</asrwt>
<pdfrwt beam="1">  1       21 0.17451886E-01 0.30000000E+03</pdfrwt>
<pdfrwt beam="2">0</pdfrwt>
<totfact> 0.31049551E+03</totfact>
</mgrwt>
</event>
<event>
 6    1  0.1198667E-001  0.3000000E+03  0.7818608E-02  0.1093470E+00
         21   -1    0    0  501  502  0.00000000000E+00  0.00000000000E+00  0.11592071133E+01  0.11592071133E+01  0.00000000000E+00 0. -1.
         13   -1    0    0    0    0 -0.00000000000E+00 -0.00000000000E+00 -0.10000000000E+04  0.10000000000E+04  0.00000000000E+00 0.  1.
    9000005    2    1    2  501    0 -0.25502270823E+02  0.21228277414E+02 -0.60574363210E+03  0.60666410778E+03  0.38712091694E+01 0.  0.
         13    1    3    3    0    0 -0.11085657242E+02  0.11526427161E+02 -0.30461642726E+03  0.30503592916E+03  0.00000000000E+00 0.  1.
          3    1    3    3  501    0 -0.14416613581E+02  0.97018502529E+01 -0.30112720484E+03  0.30162817862E+03  0.00000000000E+00 0.  1.
         -1    1    1    2    0  502  0.25502270823E+02 -0.21228277414E+02 -0.39309716079E+03  0.39449509933E+03  0.00000000000E+00 0. -1.
<mgrwt>
<rscale>  1 0.30000000E+03</rscale>
<asrwt>0</asrwt>
<pdfrwt beam="1">  1       21 0.42153075E-02 0.30000000E+03</pdfrwt>
<pdfrwt beam="2">0</pdfrwt>
<totfact> 0.38489253E+04</totfact>
</mgrwt>
</event>
<event>
 6    1  0.1198667E-001  0.3000000E+03  0.7818608E-02  0.1093470E+00
         21   -1    0    0  501  502  0.00000000000E+00  0.00000000000E+00  0.18301457952E+01  0.18301457952E+01  0.00000000000E+00 0. -1.
         13   -1    0    0    0    0 -0.00000000000E+00 -0.00000000000E+00 -0.10000000000E+04  0.10000000000E+04  0.00000000000E+00 0.  1.
    9000005    2    1    2  501    0  0.36752248711E+02  0.21339576305E+02 -0.49418296646E+03  0.49605461424E+03  0.68753666483E+01 0.  0.
         13    1    3    3    0    0  0.23438807481E+02  0.17003277003E+02 -0.31751530971E+03  0.31883296728E+03  0.00000000000E+00 0.  1.
          3    1    3    3  501    0  0.13313441230E+02  0.43362993021E+01 -0.17666765675E+03  0.17722164696E+03  0.00000000000E+00 0.  1.
         -1    1    1    2    0  502 -0.36752248711E+02 -0.21339576305E+02 -0.50398688775E+03  0.50577553156E+03  0.00000000000E+00 0. -1.
<mgrwt>
<rscale>  1 0.30000000E+03</rscale>
<asrwt>0</asrwt>
<pdfrwt beam="1">  1       21 0.66550897E-02 0.30000000E+03</pdfrwt>
<pdfrwt beam="2">0</pdfrwt>
<totfact> 0.17615459E+04</totfact>
</mgrwt>
</event>
<event>
 6    1  0.1198667E-001  0.3000000E+03  0.7818608E-02  0.1093470E+00
         21   -1    0    0  501  502  0.00000000000E+00  0.00000000000E+00  0.21429995886E+01  0.21429995886E+01  0.00000000000E+00 0. -1.
         13   -1    0    0    0    0 -0.00000000000E+00 -0.00000000000E+00 -0.10000000000E+04  0.10000000000E+04  0.00000000000E+00 0.  1.
    9000005    2    1    2  501    0  0.37429352630E+02  0.17154284791E+02 -0.72737046869E+03  0.72854075222E+03  0.29330855835E+01 0.  0.
         13    1    3    3    0    0  0.18699558827E+02  0.74100203078E+01 -0.33692237317E+03  0.33752224733E+03  0.00000000000E+00 0.  1.
          3    1    3    3  501    0  0.18729793804E+02  0.97442644832E+01 -0.39044809552E+03  0.39101850488E+03  0.00000000000E+00 0.  1.
         -1    1    1    2    0  502 -0.37429352630E+02 -0.17154284791E+02 -0.27048653172E+03  0.27360224737E+03  0.00000000000E+00 0. -1.
<mgrwt>
<rscale>  1 0.30000000E+03</rscale>
<asrwt>0</asrwt>
<pdfrwt beam="1">  1       21 0.77927422E-02 0.30000000E+03</pdfrwt>
<pdfrwt beam="2">0</pdfrwt>
<totfact> 0.13376150E+04</totfact>
</mgrwt>
</event>
<event>
 6    1  0.1198667E-001  0.3000000E+03  0.7818608E-02  0.1093470E+00
         21   -1    0    0  501  502  0.00000000000E+00  0.00000000000E+00  0.45871249376E+01  0.45871249376E+01  0.00000000000E+00 0. -1.
         13   -1    0    0    0    0 -0.00000000000E+00 -0.00000000000E+00 -0.10000000000E+04  0.10000000000E+04  0.00000000000E+00 0.  1.
    9000005    2    1    2  501    0 -0.33390579831E+02 -0.35816579118E+02 -0.84451724848E+03  0.84594523803E+03  0.40254934520E+01 0.  0.
         13    1    3    3    0    0 -0.88390786871E+01 -0.87643243060E+01 -0.24491521626E+03  0.24523133129E+03  0.00000000000E+00 0.  1.
          3    1    3    3  501    0 -0.24551501143E+02 -0.27052254812E+02 -0.59960203222E+03  0.60071390673E+03  0.00000000000E+00 0.  1.
         -1    1    1    2    0  502  0.33390579831E+02  0.35816579118E+02 -0.15089562658E+03  0.15864188691E+03  0.00000000000E+00 0. -1.
<mgrwt>
<rscale>  1 0.30000000E+03</rscale>
<asrwt>0</asrwt>
<pdfrwt beam="1">  1       21 0.16680489E-01 0.30000000E+03</pdfrwt>
<pdfrwt beam="2">0</pdfrwt>
<totfact> 0.33794099E+03</totfact>
</mgrwt>
</event>
<event>
 6    1  0.1198667E-001  0.3000000E+03  0.7818608E-02  0.1093470E+00
         21   -1    0    0  501  502  0.00000000000E+00  0.00000000000E+00  0.19886635080E+01  0.19886635080E+01  0.00000000000E+00 0. -1.
         13   -1    0    0    0    0 -0.00000000000E+00 -0.00000000000E+00 -0.10000000000E+04  0.10000000000E+04  0.00000000000E+00 0.  1.
    9000005    2    1    2  501    0  0.15695000613E+02 -0.29059026455E+02 -0.83536085397E+03  0.83601896890E+03  0.30331430571E+01 0.  0.
         13    1    3    3    0    0  0.98985931863E+00 -0.14435929174E+01 -0.63880681648E+02  0.63904657653E+02  0.00000000000E+00 0.  1.
          3    1    3    3  501    0  0.14705141294E+02 -0.27615433538E+02 -0.77148017232E+03  0.77211431125E+03  0.00000000000E+00 0.  1.
         -3    1    1    2    0  502 -0.15695000613E+02  0.29059026455E+02 -0.16265048252E+03  0.16596969461E+03  0.00000000000E+00 0. -1.
<mgrwt>
<rscale>  1 0.30000000E+03</rscale>
<asrwt>0</asrwt>
<pdfrwt beam="1">  1       21 0.72315189E-02 0.30000000E+03</pdfrwt>
<pdfrwt beam="2">0</pdfrwt>
<totfact> 0.15245770E+04</totfact>
</mgrwt>
</event>
<event>
 6    1  0.1198667E-001  0.3000000E+03  0.7818608E-02  0.1093470E+00
         21   -1    0    0  501  502  0.00000000000E+00  0.00000000000E+00  0.20757129050E+02  0.20757129050E+02  0.00000000000E+00 0. -1.
         13   -1    0    0    0    0 -0.00000000000E+00 -0.00000000000E+00 -0.10000000000E+04  0.10000000000E+04  0.00000000000E+00 0.  1.
    9000005    2    1    2  501    0  0.79358832998E+02 -0.36421302329E+02 -0.89556765659E+03  0.89981963636E+03  0.31007781311E+01 0.  0.
         13    1    3    3    0    0  0.63681622031E+02 -0.30475281214E+02 -0.72827133673E+03  0.73168519983E+03  0.00000000000E+00 0.  1.
          3    1    3    3  501    0  0.15677210967E+02 -0.59460211145E+01 -0.16729631986E+03  0.16813443654E+03  0.00000000000E+00 0.  1.
         -3    1    1    2    0  502 -0.79358832998E+02  0.36421302329E+02 -0.83675214363E+02  0.12093749268E+03  0.00000000000E+00 0. -1.
<mgrwt>
<rscale>  1 0.30000000E+03</rscale>
<asrwt>0</asrwt>
<pdfrwt beam="1">  1       21 0.75480628E-01 0.30000000E+03</pdfrwt>
<pdfrwt beam="2">0</pdfrwt>
<totfact> 0.14781659E+02</totfact>
</mgrwt>
</event>
<event>
 6    1  0.1198667E-001  0.3000000E+03  0.7818608E-02  0.1093470E+00
         21   -1    0    0  501  502  0.00000000000E+00  0.00000000000E+00  0.10308230575E+01  0.10308230575E+01  0.00000000000E+00 0. -1.
         13   -1    0    0    0    0 -0.00000000000E+00 -0.00000000000E+00 -0.10000000000E+04  0.10000000000E+04  0.00000000000E+00 0.  1.
    9000005    2    1    2  501    0 -0.11146816822E+02 -0.29280675187E+02 -0.58804195439E+03  0.58891094766E+03  0.64151916361E+01 0.  0.
         13    1    3    3    0    0 -0.73539011625E+01 -0.22313435329E+02 -0.48227908251E+03  0.48285099429E+03  0.00000000000E+00 0.  1.
          3    1    3    3  501    0 -0.37929156594E+01 -0.69672398583E+01 -0.10576287188E+03  0.10605995337E+03  0.00000000000E+00 0.  1.
         -1    1    1    2    0  502  0.11146816822E+02  0.29280675187E+02 -0.41092722255E+03  0.41211987540E+03  0.00000000000E+00 0. -1.
<mgrwt>
<rscale>  1 0.30000000E+03</rscale>
<asrwt>0</asrwt>
<pdfrwt beam="1">  1       21 0.37484554E-02 0.30000000E+03</pdfrwt>
<pdfrwt beam="2">0</pdfrwt>
<totfact> 0.46899709E+04</totfact>
</mgrwt>
</event>
<event>
 6    1  0.1198667E-001  0.3000000E+03  0.7818608E-02  0.1093470E+00
         21   -1    0    0  501  502  0.00000000000E+00  0.00000000000E+00  0.11458148235E+01  0.11458148235E+01  0.00000000000E+00 0. -1.
         13   -1    0    0    0    0 -0.00000000000E+00 -0.00000000000E+00 -0.10000000000E+04  0.10000000000E+04  0.00000000000E+00 0.  1.
    9000005    2    1    2  501    0  0.27798253392E+02  0.18536595535E+02 -0.57320039076E+03  0.57418270053E+03  0.32767904014E+01 0.  0.
         13    1    3    3    0    0  0.68668359138E+01  0.37054737436E+01 -0.15494333901E+03  0.15513968633E+03  0.00000000000E+00 0.  1.
          3    1    3    3  501    0  0.20931417478E+02  0.14831121791E+02 -0.41825705175E+03  0.41904301420E+03  0.00000000000E+00 0.  1.
         -1    1    1    2    0  502 -0.27798253392E+02 -0.18536595535E+02 -0.42565379442E+03  0.42696311429E+03  0.00000000000E+00 0. -1.
<mgrwt>
<rscale>  1 0.30000000E+03</rscale>
<asrwt>0</asrwt>
<pdfrwt beam="1">  1       21 0.41666081E-02 0.30000000E+03</pdfrwt>
<pdfrwt beam="2">0</pdfrwt>
<totfact> 0.39251859E+04</totfact>
</mgrwt>
</event>
<event>
 6    1  0.1198667E-001  0.3000000E+03  0.7818608E-02  0.1093470E+00
         21   -1    0    0  501  502  0.00000000000E+00  0.00000000000E+00  0.14960958337E+02  0.14960958337E+02  0.00000000000E+00 0. -1.
         13   -1    0    0    0    0 -0.00000000000E+00 -0.00000000000E+00 -0.10000000000E+04  0.10000000000E+04  0.00000000000E+00 0.  1.
    9000005    2    1    2  501    0  0.81261864304E+02  0.79577185127E+02 -0.67903023416E+03  0.68849900151E+03  0.35773174444E+01 0.  0.
         13    1    3    3    0    0  0.72563349291E+02  0.71315261858E+02 -0.60058973809E+03  0.60914640254E+03  0.00000000000E+00 0.  1.
          1    1    3    3  501    0  0.86985150129E+01  0.82619232689E+01 -0.78440496074E+02  0.79352598973E+02  0.00000000000E+00 0.  1.
         -3    1    1    2    0  502 -0.81261864304E+02 -0.79577185127E+02 -0.30600880750E+03  0.32646195682E+03  0.00000000000E+00 0. -1.
<mgrwt>
<rscale>  1 0.30000000E+03</rscale>
<asrwt>0</asrwt>
<pdfrwt beam="1">  1       21 0.54403600E-01 0.30000000E+03</pdfrwt>
<pdfrwt beam="2">0</pdfrwt>
<totfact> 0.31233377E+02</totfact>
</mgrwt>
</event>
<event>
 6    1  0.1198667E-001  0.3000000E+03  0.7818608E-02  0.1093470E+00
         21   -1    0    0  501  502  0.00000000000E+00  0.00000000000E+00  0.88920877905E+01  0.88920877905E+01  0.00000000000E+00 0. -1.
         13   -1    0    0    0    0 -0.00000000000E+00 -0.00000000000E+00 -0.10000000000E+04  0.10000000000E+04  0.00000000000E+00 0.  1.
    9000005    2    1    2  501    0  0.38117246831E+02  0.86119742877E+02 -0.47399292535E+03  0.48327107960E+03  0.34797233130E+01 0.  0.
         13    1    3    3    0    0  0.99538137188E+01  0.20478379839E+02 -0.10829050826E+03  0.11065837803E+03  0.00000000000E+00 0.  1.
          1    1    3    3  501    0  0.28163433112E+02  0.65641363038E+02 -0.36570241709E+03  0.37261270157E+03  0.00000000000E+00 0.  1.
         -1    1    1    2    0  502 -0.38117246831E+02 -0.86119742877E+02 -0.51711498686E+03  0.52562100819E+03  0.00000000000E+00 0. -1.
<mgrwt>
<rscale>  1 0.30000000E+03</rscale>
<asrwt>0</asrwt>
<pdfrwt beam="1">  1       21 0.32334933E-01 0.30000000E+03</pdfrwt>
<pdfrwt beam="2">0</pdfrwt>
<totfact> 0.93505940E+02</totfact>
</mgrwt>
</event>
<event>
 6    1  0.1198667E-001  0.3000000E+03  0.7818608E-02  0.1093470E+00
         21   -1    0    0  501  502  0.00000000000E+00  0.00000000000E+00  0.17249572167E+01  0.17249572167E+01  0.00000000000E+00 0. -1.
         13   -1    0    0    0    0 -0.00000000000E+00 -0.00000000000E+00 -0.10000000000E+04  0.10000000000E+04  0.00000000000E+00 0.  1.
    9000005    2    1    2  501    0 -0.35833561061E+02  0.17339150049E+02 -0.64015183991E+03  0.64139605377E+03  0.31351920421E+01 0.  0.
         13    1    3    3    0    0 -0.23499474600E+02  0.12299308936E+02 -0.44526259621E+03  0.44605187802E+03  0.00000000000E+00 0.  1.
          1    1    3    3  501    0 -0.12334086461E+02  0.50398411129E+01 -0.19488924370E+03  0.19534417575E+03  0.00000000000E+00 0.  1.
         -3    1    1    2    0  502  0.35833561061E+02 -0.17339150049E+02 -0.35812320287E+03  0.36032890345E+03  0.00000000000E+00 0. -1.
<mgrwt>
<rscale>  1 0.30000000E+03</rscale>
<asrwt>0</asrwt>
<pdfrwt beam="1">  1       21 0.62725849E-02 0.30000000E+03</pdfrwt>
<pdfrwt beam="2">0</pdfrwt>
<totfact> 0.19515951E+04</totfact>
</mgrwt>
</event>
<event>
 6    1  0.1198667E-001  0.3000000E+03  0.7818608E-02  0.1093470E+00
         21   -1    0    0  501  502  0.00000000000E+00  0.00000000000E+00  0.35118396988E+01  0.35118396988E+01  0.00000000000E+00 0. -1.
         13   -1    0    0    0    0 -0.00000000000E+00 -0.00000000000E+00 -0.10000000000E+04  0.10000000000E+04  0.00000000000E+00 0.  1.
    9000005    2    1    2  501    0 -0.30749794552E+01 -0.32661459370E+02 -0.91601855285E+03  0.91661198843E+03  0.33647801018E+01 0.  0.
         13    1    3    3    0    0 -0.48711637386E-01 -0.18140366203E+02 -0.49642258671E+03  0.49675392284E+03  0.00000000000E+00 0.  1.
          1    1    3    3  501    0 -0.30262678178E+01 -0.14521093167E+02 -0.41959596614E+03  0.41985806559E+03  0.00000000000E+00 0.  1.
         -1    1    1    2    0  502  0.30749794552E+01  0.32661459370E+02 -0.80469607451E+02  0.86899851266E+02  0.00000000000E+00 0. -1.
<mgrwt>
<rscale>  1 0.30000000E+03</rscale>
<asrwt>0</asrwt>
<pdfrwt beam="1">  1       21 0.12770353E-01 0.30000000E+03</pdfrwt>
<pdfrwt beam="2">0</pdfrwt>
<totfact> 0.55336210E+03</totfact>
</mgrwt>
</event>
<event>
 6    1  0.1198667E-001  0.3000000E+03  0.7818608E-02  0.1093470E+00
         21   -1    0    0  501  502  0.00000000000E+00  0.00000000000E+00  0.23539283361E+01  0.23539283361E+01  0.00000000000E+00 0. -1.
         13   -1    0    0    0    0 -0.00000000000E+00 -0.00000000000E+00 -0.10000000000E+04  0.10000000000E+04  0.00000000000E+00 0.  1.
    9000005    2    1    2  501    0 -0.17881314672E+01  0.47895039325E+02 -0.42457133967E+03  0.42727847185E+03  0.29896201833E+01 0.  0.
         13    1    3    3    0    0 -0.13232205986E+01  0.43981618304E+02 -0.39584598196E+03  0.39828403821E+03  0.00000000000E+00 0.  1.
          3    1    3    3  501    0 -0.46491086867E+00  0.39134210203E+01 -0.28725357716E+02  0.28994433640E+02  0.00000000000E+00 0.  1.
         -1    1    1    2    0  502  0.17881314672E+01 -0.47895039325E+02 -0.57307473199E+03  0.57507545649E+03  0.00000000000E+00 0. -1.
<mgrwt>
<rscale>  1 0.30000000E+03</rscale>
<asrwt>0</asrwt>
<pdfrwt beam="1">  1       21 0.85597575E-02 0.30000000E+03</pdfrwt>
<pdfrwt beam="2">0</pdfrwt>
<totfact> 0.11340262E+04</totfact>
</mgrwt>
</event>
<event>
 6    1  0.1198667E-001  0.3000000E+03  0.7818608E-02  0.1093470E+00
         21   -1    0    0  501  502  0.00000000000E+00  0.00000000000E+00  0.10623808294E+01  0.10623808294E+01  0.00000000000E+00 0. -1.
         13   -1    0    0    0    0 -0.00000000000E+00 -0.00000000000E+00 -0.10000000000E+04  0.10000000000E+04  0.00000000000E+00 0.  1.
    9000005    2    1    2  501    0 -0.23455942258E+02 -0.21478797003E+02 -0.60513734578E+03  0.60597988910E+03  0.29830838486E+01 0.  0.
         13    1    3    3    0    0 -0.13592826703E+02 -0.13532417160E+02 -0.34091984759E+03  0.34145897811E+03  0.00000000000E+00 0.  1.
          1    1    3    3  501    0 -0.98631155552E+01 -0.79463798426E+01 -0.26421749819E+03  0.26452091099E+03  0.00000000000E+00 0.  1.
         -3    1    1    2    0  502  0.23455942258E+02  0.21478797003E+02 -0.39380027339E+03  0.39508249173E+03  0.00000000000E+00 0. -1.
<mgrwt>
<rscale>  1 0.30000000E+03</rscale>
<asrwt>0</asrwt>
<pdfrwt beam="1">  1       21 0.38632112E-02 0.30000000E+03</pdfrwt>
<pdfrwt beam="2">0</pdfrwt>
<totfact> 0.44582606E+04</totfact>
</mgrwt>
</event>
<event>
 6    1  0.1198667E-001  0.3000000E+03  0.7818608E-02  0.1093470E+00
         21   -1    0    0  501  502  0.00000000000E+00  0.00000000000E+00  0.17365863865E+01  0.17365863865E+01  0.00000000000E+00 0. -1.
         13   -1    0    0    0    0 -0.00000000000E+00 -0.00000000000E+00 -0.10000000000E+04  0.10000000000E+04  0.00000000000E+00 0.  1.
    9000005    2    1    2  501    0 -0.28792976181E+02  0.29351022894E+02 -0.57659843496E+03  0.57807177519E+03  0.32717047947E+01 0.  0.
         13    1    3    3    0    0 -0.58354764696E+00  0.85404075140E+00 -0.22882332968E+02  0.22905699629E+02  0.00000000000E+00 0.  1.
          1    1    3    3  501    0 -0.28209428534E+02  0.28496982142E+02 -0.55371610199E+03  0.55516607556E+03  0.00000000000E+00 0.  1.
         -1    1    1    2    0  502  0.28792976181E+02 -0.29351022894E+02 -0.42166497866E+03  0.42366481120E+03  0.00000000000E+00 0. -1.
<mgrwt>
<rscale>  1 0.30000000E+03</rscale>
<asrwt>0</asrwt>
<pdfrwt beam="1">  1       21 0.63148729E-02 0.30000000E+03</pdfrwt>
<pdfrwt beam="2">0</pdfrwt>
<totfact> 0.19290624E+04</totfact>
</mgrwt>
</event>
<event>
 6    1  0.1198667E-001  0.3000000E+03  0.7818608E-02  0.1093470E+00
         21   -1    0    0  501  502  0.00000000000E+00  0.00000000000E+00  0.20278340835E+01  0.20278340835E+01  0.00000000000E+00 0. -1.
         13   -1    0    0    0    0 -0.00000000000E+00 -0.00000000000E+00 -0.10000000000E+04  0.10000000000E+04  0.00000000000E+00 0.  1.
    9000005    2    1    2  501    0 -0.24508397709E+02  0.28359089036E+02 -0.77583543061E+03  0.77675105175E+03  0.40842997104E+01 0.  0.
         13    1    3    3    0    0 -0.21326830091E+02  0.25558664844E+02 -0.66138624533E+03  0.66222340984E+03  0.00000000000E+00 0.  1.
          1    1    3    3  501    0 -0.31815676182E+01  0.28004241913E+01 -0.11444918529E+03  0.11452764191E+03  0.00000000000E+00 0.  1.
         -3    1    1    2    0  502  0.24508397709E+02 -0.28359089036E+02 -0.22213673530E+03  0.22527678234E+03  0.00000000000E+00 0. -1.
<mgrwt>
<rscale>  1 0.30000000E+03</rscale>
<asrwt>0</asrwt>
<pdfrwt beam="1">  1       21 0.73739577E-02 0.30000000E+03</pdfrwt>
<pdfrwt beam="2">0</pdfrwt>
<totfact> 0.14735053E+04</totfact>
</mgrwt>
</event>
<event>
 6    1  0.1198667E-001  0.3000000E+03  0.7818608E-02  0.1093470E+00
         21   -1    0    0  501  502  0.00000000000E+00  0.00000000000E+00  0.26047630677E+01  0.26047630677E+01  0.00000000000E+00 0. -1.
         13   -1    0    0    0    0 -0.00000000000E+00 -0.00000000000E+00 -0.10000000000E+04  0.10000000000E+04  0.00000000000E+00 0.  1.
    9000005    2    1    2  501    0  0.42922122471E+02 -0.12795251531E+02 -0.73884866360E+03  0.74020743526E+03  0.19163638318E+01 0.  0.
         13    1    3    3    0    0  0.21957485877E+02 -0.74426922006E+01 -0.37520884025E+03  0.37592445871E+03  0.00000000000E+00 0.  1.
          1    1    3    3  501    0  0.20964636595E+02 -0.53525593299E+01 -0.36363982335E+03  0.36428297655E+03  0.00000000000E+00 0.  1.
         -1    1    1    2    0  502 -0.42922122471E+02  0.12795251531E+02 -0.25854657333E+03  0.26239732781E+03  0.00000000000E+00 0. -1.
<mgrwt>
<rscale>  1 0.30000000E+03</rscale>
<asrwt>0</asrwt>
<pdfrwt beam="1">  1       21 0.94718857E-02 0.30000000E+03</pdfrwt>
<pdfrwt beam="2">0</pdfrwt>
<totfact> 0.94776217E+03</totfact>
</mgrwt>
</event>
<event>
 6    1  0.1198667E-001  0.3000000E+03  0.7818608E-02  0.1093470E+00
         21   -1    0    0  501  502  0.00000000000E+00  0.00000000000E+00  0.22082714145E+01  0.22082714145E+01  0.00000000000E+00 0. -1.
         13   -1    0    0    0    0 -0.00000000000E+00 -0.00000000000E+00 -0.10000000000E+04  0.10000000000E+04  0.00000000000E+00 0.  1.
    9000005    2    1    2  501    0  0.39935870249E+02  0.18788296515E+02 -0.66981950646E+03  0.67127980135E+03  0.32444779559E+01 0.  0.
         13    1    3    3    0    0  0.78602036005E+01  0.29007169086E+01 -0.11189754535E+03  0.11221077317E+03  0.00000000000E+00 0.  1.
          1    1    3    3  501    0  0.32075666649E+02  0.15887579606E+02 -0.55792196111E+03  0.55906902818E+03  0.00000000000E+00 0.  1.
         -1    1    1    2    0  502 -0.39935870249E+02 -0.18788296515E+02 -0.32797222212E+03  0.33092847007E+03  0.00000000000E+00 0. -1.
<mgrwt>
<rscale>  1 0.30000000E+03</rscale>
<asrwt>0</asrwt>
<pdfrwt beam="1">  1       21 0.80300948E-02 0.30000000E+03</pdfrwt>
<pdfrwt beam="2">0</pdfrwt>
<totfact> 0.12689891E+04</totfact>
</mgrwt>
</event>
<event>
 6    1  0.1198667E-001  0.3000000E+03  0.7818608E-02  0.1093470E+00
         21   -1    0    0  501  502  0.00000000000E+00  0.00000000000E+00  0.12947174807E+01  0.12947174807E+01  0.00000000000E+00 0. -1.
         13   -1    0    0    0    0 -0.00000000000E+00 -0.00000000000E+00 -0.10000000000E+04  0.10000000000E+04  0.00000000000E+00 0.  1.
    9000005    2    1    2  501    0 -0.14714190857E+02  0.27486740012E+02 -0.74804142822E+03  0.74869939658E+03  0.35748868300E+01 0.  0.
         13    1    3    3    0    0 -0.16800894562E+01  0.54618780306E+01 -0.11770642898E+03  0.11784506029E+03  0.00000000000E+00 0.  1.
          3    1    3    3  501    0 -0.13034101401E+02  0.22024861982E+02 -0.63033499924E+03  0.63085433629E+03  0.00000000000E+00 0.  1.
         -1    1    1    2    0  502  0.14714190857E+02 -0.27486740012E+02 -0.25066385430E+03  0.25259532090E+03  0.00000000000E+00 0. -1.
<mgrwt>
<rscale>  1 0.30000000E+03</rscale>
<asrwt>0</asrwt>
<pdfrwt beam="1">  1       21 0.47080735E-02 0.30000000E+03</pdfrwt>
<pdfrwt beam="2">0</pdfrwt>
<totfact> 0.31911075E+04</totfact>
</mgrwt>
</event>
<event>
 6    1  0.1198667E-001  0.3000000E+03  0.7818608E-02  0.1093470E+00
         21   -1    0    0  501  502  0.00000000000E+00  0.00000000000E+00  0.12776875703E+01  0.12776875703E+01  0.00000000000E+00 0. -1.
         13   -1    0    0    0    0 -0.00000000000E+00 -0.00000000000E+00 -0.10000000000E+04  0.10000000000E+04  0.00000000000E+00 0.  1.
    9000005    2    1    2  501    0 -0.27989522754E+02  0.20518895805E+02 -0.61689296170E+03  0.61787438614E+03  0.27188938678E+01 0.  0.
         13    1    3    3    0    0 -0.69664048002E+01  0.62218959655E+01 -0.18037201270E+03  0.18061369204E+03  0.00000000000E+00 0.  1.
          1    1    3    3  501    0 -0.21023117954E+02  0.14296999839E+02 -0.43652094900E+03  0.43726069410E+03  0.00000000000E+00 0.  1.
         -3    1    1    2    0  502  0.27989522754E+02 -0.20518895805E+02 -0.38182935073E+03  0.38340330143E+03  0.00000000000E+00 0. -1.
<mgrwt>
<rscale>  1 0.30000000E+03</rscale>
<asrwt>0</asrwt>
<pdfrwt beam="1">  1       21 0.46461464E-02 0.30000000E+03</pdfrwt>
<pdfrwt beam="2">0</pdfrwt>
<totfact> 0.32637478E+04</totfact>
</mgrwt>
</event>
<event>
 6    1  0.1198667E-001  0.3000000E+03  0.7818608E-02  0.1093470E+00
         21   -1    0    0  501  502  0.00000000000E+00  0.00000000000E+00  0.10071162437E+01  0.10071162437E+01  0.00000000000E+00 0. -1.
         13   -1    0    0    0    0 -0.00000000000E+00 -0.00000000000E+00 -0.10000000000E+04  0.10000000000E+04  0.00000000000E+00 0.  1.
    9000005    2    1    2  501    0 -0.27247614256E+02  0.14732913459E+02 -0.59572122472E+03  0.59654757290E+03  0.50732560402E+01 0.  0.
         13    1    3    3    0    0 -0.83251294341E+01  0.19898665538E+01 -0.15433078340E+03  0.15456797228E+03  0.00000000000E+00 0.  1.
          3    1    3    3  501    0 -0.18922484822E+02  0.12743046905E+02 -0.44139044132E+03  0.44197960062E+03  0.00000000000E+00 0.  1.
         -3    1    1    2    0  502  0.27247614256E+02 -0.14732913459E+02 -0.40327165903E+03  0.40445954334E+03  0.00000000000E+00 0. -1.
<mgrwt>
<rscale>  1 0.30000000E+03</rscale>
<asrwt>0</asrwt>
<pdfrwt beam="1">  1       21 0.36622486E-02 0.30000000E+03</pdfrwt>
<pdfrwt beam="2">0</pdfrwt>
<totfact> 0.48767565E+04</totfact>
</mgrwt>
</event>
<event>
 6    1  0.1198667E-001  0.3000000E+03  0.7818608E-02  0.1093470E+00
         21   -1    0    0  501  502  0.00000000000E+00  0.00000000000E+00  0.11914475182E+01  0.11914475182E+01  0.00000000000E+00 0. -1.
         13   -1    0    0    0    0 -0.00000000000E+00 -0.00000000000E+00 -0.10000000000E+04  0.10000000000E+04  0.00000000000E+00 0.  1.
    9000005    2    1    2  501    0  0.26478319478E+02  0.18586196378E+02 -0.67190226525E+03  0.67268837489E+03  0.32322683001E+01 0.  0.
         13    1    3    3    0    0  0.20489963573E+02  0.12684059967E+02 -0.49279528770E+03  0.49338415009E+03  0.00000000000E+00 0.  1.
          3    1    3    3  501    0  0.59883559044E+01  0.59021364105E+01 -0.17910697755E+03  0.17930422480E+03  0.00000000000E+00 0.  1.
         -3    1    1    2    0  502 -0.26478319478E+02 -0.18586196378E+02 -0.32690628723E+03  0.32850307263E+03  0.00000000000E+00 0. -1.
<mgrwt>
<rscale>  1 0.30000000E+03</rscale>
<asrwt>0</asrwt>
<pdfrwt beam="1">  1       21 0.43325456E-02 0.30000000E+03</pdfrwt>
<pdfrwt beam="2">0</pdfrwt>
<totfact> 0.36745044E+04</totfact>
</mgrwt>
</event>
<event>
 6    1  0.1198667E-001  0.3000000E+03  0.7818608E-02  0.1093470E+00
         21   -1    0    0  501  502  0.00000000000E+00  0.00000000000E+00  0.20528956899E+01  0.20528956899E+01  0.00000000000E+00 0. -1.
         13   -1    0    0    0    0 -0.00000000000E+00 -0.00000000000E+00 -0.10000000000E+04  0.10000000000E+04  0.00000000000E+00 0.  1.
    9000005    2    1    2  501    0 -0.30462911864E+02  0.29624782023E+02 -0.67118946731E+03  0.67254391244E+03  0.37942606182E+01 0.  0.
         13    1    3    3    0    0 -0.65522614884E+01  0.81650040788E+01 -0.14958898398E+03  0.14995487171E+03  0.00000000000E+00 0.  1.
          3    1    3    3  501    0 -0.23910650375E+02  0.21459777944E+02 -0.52160048334E+03  0.52258904073E+03  0.00000000000E+00 0.  1.
         -1    1    1    2    0  502  0.30462911864E+02 -0.29624782023E+02 -0.32675763700E+03  0.32950898325E+03  0.00000000000E+00 0. -1.
<mgrwt>
<rscale>  1 0.30000000E+03</rscale>
<asrwt>0</asrwt>
<pdfrwt beam="1">  1       21 0.74650910E-02 0.30000000E+03</pdfrwt>
<pdfrwt beam="2">0</pdfrwt>
<totfact> 0.14421776E+04</totfact>
</mgrwt>
</event>
<event>
 6    1  0.1198667E-001  0.3000000E+03  0.7818608E-02  0.1093470E+00
         21   -1    0    0  501  502  0.00000000000E+00  0.00000000000E+00  0.47952449312E+01  0.47952449312E+01  0.00000000000E+00 0. -1.
         13   -1    0    0    0    0 -0.00000000000E+00 -0.00000000000E+00 -0.10000000000E+04  0.10000000000E+04  0.00000000000E+00 0.  1.
    9000005    2    1    2  501    0  0.17376180071E+02 -0.32188246686E+02 -0.92414417525E+03  0.92487265199E+03  0.29918033048E+01 0.  0.
         13    1    3    3    0    0  0.40262524452E+01 -0.51829362082E+01 -0.15604930574E+03  0.15618725735E+03  0.00000000000E+00 0.  1.
          1    1    3    3  501    0  0.13349927626E+02 -0.27005310478E+02 -0.76809486951E+03  0.76868539464E+03  0.00000000000E+00 0.  1.
         -3    1    1    2    0  502 -0.17376180071E+02  0.32188246686E+02 -0.71060579815E+02  0.79922592940E+02  0.00000000000E+00 0. -1.
<mgrwt>
<rscale>  1 0.30000000E+03</rscale>
<asrwt>0</asrwt>
<pdfrwt beam="1">  1       21 0.17437291E-01 0.30000000E+03</pdfrwt>
<pdfrwt beam="2">0</pdfrwt>
<totfact> 0.31098358E+03</totfact>
</mgrwt>
</event>
<event>
 6    1  0.1198667E-001  0.3000000E+03  0.7818608E-02  0.1093470E+00
         21   -1    0    0  501  502  0.00000000000E+00  0.00000000000E+00  0.13349199975E+01  0.13349199975E+01  0.00000000000E+00 0. -1.
         13   -1    0    0    0    0 -0.00000000000E+00 -0.00000000000E+00 -0.10000000000E+04  0.10000000000E+04  0.00000000000E+00 0.  1.
    9000005    2    1    2  501    0 -0.66291857453E+01  0.35146921437E+02 -0.59757344628E+03  0.59865173084E+03  0.32586723086E+01 0.  0.
         13    1    3    3    0    0 -0.16436975120E+01  0.69362656222E+01 -0.14148536011E+03  0.14166481796E+03  0.00000000000E+00 0.  1.
          1    1    3    3  501    0 -0.49854882333E+01  0.28210655815E+02 -0.45608808618E+03  0.45698691288E+03  0.00000000000E+00 0.  1.
         -3    1    1    2    0  502  0.66291857453E+01 -0.35146921437E+02 -0.40109163372E+03  0.40268318916E+03  0.00000000000E+00 0. -1.
<mgrwt>
<rscale>  1 0.30000000E+03</rscale>
<asrwt>0</asrwt>
<pdfrwt beam="1">  1       21 0.48542648E-02 0.30000000E+03</pdfrwt>
<pdfrwt beam="2">0</pdfrwt>
<totfact> 0.30293345E+04</totfact>
</mgrwt>
</event>
<event>
 6    1  0.1198667E-001  0.3000000E+03  0.7818608E-02  0.1093470E+00
         21   -1    0    0  501  502  0.00000000000E+00  0.00000000000E+00  0.15606408459E+01  0.15606408459E+01  0.00000000000E+00 0. -1.
         13   -1    0    0    0    0 -0.00000000000E+00 -0.00000000000E+00 -0.10000000000E+04  0.10000000000E+04  0.00000000000E+00 0.  1.
    9000005    2    1    2  501    0 -0.19471366024E+02  0.32052598647E+02 -0.65455341796E+03  0.65563573032E+03  0.33956925224E+01 0.  0.
         13    1    3    3    0    0 -0.33773439818E+01  0.81049207264E+01 -0.16264783162E+03  0.16288466264E+03  0.00000000000E+00 0.  1.
          3    1    3    3  501    0 -0.16094022043E+02  0.23947677920E+02 -0.49190558634E+03  0.49275106768E+03  0.00000000000E+00 0.  1.
         -3    1    1    2    0  502  0.19471366024E+02 -0.32052598647E+02 -0.34388594119E+03  0.34592491053E+03  0.00000000000E+00 0. -1.
<mgrwt>
<rscale>  1 0.30000000E+03</rscale>
<asrwt>0</asrwt>
<pdfrwt beam="1">  1       21 0.56750696E-02 0.30000000E+03</pdfrwt>
<pdfrwt beam="2">0</pdfrwt>
<totfact> 0.23192379E+04</totfact>
</mgrwt>
</event>
<event>
 6    1  0.1198667E-001  0.3000000E+03  0.7818608E-02  0.1093470E+00
         21   -1    0    0  501  502  0.00000000000E+00  0.00000000000E+00  0.21415799622E+01  0.21415799622E+01  0.00000000000E+00 0. -1.
         13   -1    0    0    0    0 -0.00000000000E+00 -0.00000000000E+00 -0.10000000000E+04  0.10000000000E+04  0.00000000000E+00 0.  1.
    9000005    2    1    2  501    0  0.32670350039E+02  0.32052501905E+02 -0.56950690095E+03  0.57135191139E+03  0.31908871648E+01 0.  0.
         13    1    3    3    0    0  0.25097516038E+02  0.23653819632E+02 -0.44317639232E+03  0.44451625752E+03  0.00000000000E+00 0.  1.
          3    1    3    3  501    0  0.75728340007E+01  0.83986822726E+01 -0.12633050864E+03  0.12683565386E+03  0.00000000000E+00 0.  1.
         -1    1    1    2    0  502 -0.32670350039E+02 -0.32052501905E+02 -0.42835151908E+03  0.43078966858E+03  0.00000000000E+00 0. -1.
<mgrwt>
<rscale>  1 0.30000000E+03</rscale>
<asrwt>0</asrwt>
<pdfrwt beam="1">  1       21 0.77875799E-02 0.30000000E+03</pdfrwt>
<pdfrwt beam="2">0</pdfrwt>
<totfact> 0.13391706E+04</totfact>
</mgrwt>
</event>
<event>
 6    1  0.1198667E-001  0.3000000E+03  0.7818608E-02  0.1093470E+00
         21   -1    0    0  501  502  0.00000000000E+00  0.00000000000E+00  0.25474799328E+01  0.25474799328E+01  0.00000000000E+00 0. -1.
         13   -1    0    0    0    0 -0.00000000000E+00 -0.00000000000E+00 -0.10000000000E+04  0.10000000000E+04  0.00000000000E+00 0.  1.
    9000005    2    1    2  501    0 -0.38625510572E+02  0.70099719155E+01 -0.81341454642E+03  0.81436925187E+03  0.36033717760E+01 0.  0.
         13    1    3    3    0    0 -0.22356572636E+01  0.14062436368E+00 -0.32490398008E+02  0.32567528327E+02  0.00000000000E+00 0.  1.
          1    1    3    3  501    0 -0.36389853309E+02  0.68693475519E+01 -0.78092414841E+03  0.78180172354E+03  0.00000000000E+00 0.  1.
         -1    1    1    2    0  502  0.38625510572E+02 -0.70099719155E+01 -0.18403797365E+03  0.18817822806E+03  0.00000000000E+00 0. -1.
<mgrwt>
<rscale>  1 0.30000000E+03</rscale>
<asrwt>0</asrwt>
<pdfrwt beam="1">  1       21 0.92635829E-02 0.30000000E+03</pdfrwt>
<pdfrwt beam="2">0</pdfrwt>
<totfact> 0.98599944E+03</totfact>
</mgrwt>
</event>
<event>
 6    1  0.1198667E-001  0.3000000E+03  0.7818608E-02  0.1093470E+00
         21   -1    0    0  501  502  0.00000000000E+00  0.00000000000E+00  0.17930782829E+01  0.17930782829E+01  0.00000000000E+00 0. -1.
         13   -1    0    0    0    0 -0.00000000000E+00 -0.00000000000E+00 -0.10000000000E+04  0.10000000000E+04  0.00000000000E+00 0.  1.
    9000005    2    1    2  501    0 -0.38969362883E+02  0.57268576624E+01 -0.68143559425E+03  0.68258236097E+03  0.35780237849E+01 0.  0.
         13    1    3    3    0    0 -0.34059713871E+02  0.45011396971E+01 -0.61109137133E+03  0.61205636054E+03  0.00000000000E+00 0.  1.
          3    1    3    3  501    0 -0.49096490127E+01  0.12257179653E+01 -0.70344222920E+02  0.70526000426E+02  0.00000000000E+00 0.  1.
         -3    1    1    2    0  502  0.38969362883E+02 -0.57268576624E+01 -0.31677132747E+03  0.31921071732E+03  0.00000000000E+00 0. -1.
<mgrwt>
<rscale>  1 0.30000000E+03</rscale>
<asrwt>0</asrwt>
<pdfrwt beam="1">  1       21 0.65202984E-02 0.30000000E+03</pdfrwt>
<pdfrwt beam="2">0</pdfrwt>
<totfact> 0.18251242E+04</totfact>
</mgrwt>
</event>
<event>
 6    1  0.1198667E-001  0.3000000E+03  0.7818608E-02  0.1093470E+00
         21   -1    0    0  501  502  0.00000000000E+00  0.00000000000E+00  0.11003082892E+01  0.11003082892E+01  0.00000000000E+00 0. -1.
         13   -1    0    0    0    0 -0.00000000000E+00 -0.00000000000E+00 -0.10000000000E+04  0.10000000000E+04  0.00000000000E+00 0.  1.
    9000005    2    1    2  501    0 -0.30008166394E+02  0.27796550719E+01 -0.70675361283E+03  0.70740395500E+03  0.33867037453E+01 0.  0.
         13    1    3    3    0    0 -0.15782318166E+02 -0.83308937011E-01 -0.38458712337E+03  0.38491082600E+03  0.00000000000E+00 0.  1.
          3    1    3    3  501    0 -0.14225848228E+02  0.28629640089E+01 -0.32216648946E+03  0.32249312900E+03  0.00000000000E+00 0.  1.
         -3    1    1    2    0  502  0.30008166394E+02 -0.27796550719E+01 -0.29214607888E+03  0.29369635329E+03  0.00000000000E+00 0. -1.
<mgrwt>
<rscale>  1 0.30000000E+03</rscale>
<asrwt>0</asrwt>
<pdfrwt beam="1">  1       21 0.40011295E-02 0.30000000E+03</pdfrwt>
<pdfrwt beam="2">0</pdfrwt>
<totfact> 0.42027336E+04</totfact>
</mgrwt>
</event>
<event>
 6    1  0.1198667E-001  0.3000000E+03  0.7818608E-02  0.1093470E+00
         21   -1    0    0  501  502  0.00000000000E+00  0.00000000000E+00  0.58478369484E+01  0.58478369484E+01  0.00000000000E+00 0. -1.
         13   -1    0    0    0    0 -0.00000000000E+00 -0.00000000000E+00 -0.10000000000E+04  0.10000000000E+04  0.00000000000E+00 0.  1.
    9000005    2    1    2  501    0 -0.48097552261E+02 -0.20740218180E+02 -0.86325498873E+03  0.86485988913E+03  0.54700165602E+01 0.  0.
         13    1    3    3    0    0 -0.27838138824E+02 -0.10534452772E+02 -0.52801351976E+03  0.52885178804E+03  0.00000000000E+00 0.  1.
          3    1    3    3  501    0 -0.20259413437E+02 -0.10205765408E+02 -0.33524146897E+03  0.33600810109E+03  0.00000000000E+00 0.  1.
         -3    1    1    2    0  502  0.48097552261E+02  0.20740218180E+02 -0.13089717432E+03  0.14098794781E+03  0.00000000000E+00 0. -1.
<mgrwt>
<rscale>  1 0.30000000E+03</rscale>
<asrwt>0</asrwt>
<pdfrwt beam="1">  1       21 0.21264906E-01 0.30000000E+03</pdfrwt>
<pdfrwt beam="2">0</pdfrwt>
<totfact> 0.21335056E+03</totfact>
</mgrwt>
</event>
<event>
 6    1  0.1198667E-001  0.3000000E+03  0.7818608E-02  0.1093470E+00
         21   -1    0    0  501  502  0.00000000000E+00  0.00000000000E+00  0.95247966644E+00  0.95247966644E+00  0.00000000000E+00 0. -1.
         13   -1    0    0    0    0 -0.00000000000E+00 -0.00000000000E+00 -0.10000000000E+04  0.10000000000E+04  0.00000000000E+00 0.  1.
    9000005    2    1    2  501    0  0.31694677322E+01  0.30581518848E+02 -0.52740818567E+03  0.52831209119E+03  0.29994268009E+01 0.  0.
         13    1    3    3    0    0  0.19886613859E+01  0.72951753045E+01 -0.13602504726E+03  0.13623504630E+03  0.00000000000E+00 0.  1.
          3    1    3    3  501    0  0.11808063464E+01  0.23286343544E+02 -0.39138313841E+03  0.39207704489E+03  0.00000000000E+00 0.  1.
         -3    1    1    2    0  502 -0.31694677322E+01 -0.30581518848E+02 -0.47163933466E+03  0.47264038848E+03  0.00000000000E+00 0. -1.
<mgrwt>
<rscale>  1 0.30000000E+03</rscale>
<asrwt>0</asrwt>
<pdfrwt beam="1">  1       21 0.34635697E-02 0.30000000E+03</pdfrwt>
<pdfrwt beam="2">0</pdfrwt>
<totfact> 0.53546438E+04</totfact>
</mgrwt>
</event>
<event>
 6    1  0.1198667E-001  0.3000000E+03  0.7818608E-02  0.1093470E+00
         21   -1    0    0  501  502  0.00000000000E+00  0.00000000000E+00  0.19288631586E+01  0.19288631586E+01  0.00000000000E+00 0. -1.
         13   -1    0    0    0    0 -0.00000000000E+00 -0.00000000000E+00 -0.10000000000E+04  0.10000000000E+04  0.00000000000E+00 0.  1.
    9000005    2    1    2  501    0 -0.35003991190E+02 -0.10206317431E+02 -0.77712312563E+03  0.77799255085E+03  0.47548359839E+01 0.  0.
         13    1    3    3    0    0 -0.86964786124E+01 -0.74751917712E+00 -0.16325240484E+03  0.16348558105E+03  0.00000000000E+00 0.  1.
          3    1    3    3  501    0 -0.26307512577E+02 -0.94587982534E+01 -0.61387072080E+03  0.61450696980E+03  0.00000000000E+00 0.  1.
         -3    1    1    2    0  502  0.35003991190E+02  0.10206317431E+02 -0.22094801121E+03  0.22393631231E+03  0.00000000000E+00 0. -1.
<mgrwt>
<rscale>  1 0.30000000E+03</rscale>
<asrwt>0</asrwt>
<pdfrwt beam="1">  1       21 0.70140626E-02 0.30000000E+03</pdfrwt>
<pdfrwt beam="2">0</pdfrwt>
<totfact> 0.16079024E+04</totfact>
</mgrwt>
</event>
<event>
 6    1  0.1198667E-001  0.3000000E+03  0.7818608E-02  0.1093470E+00
         21   -1    0    0  501  502  0.00000000000E+00  0.00000000000E+00  0.52254289107E+01  0.52254289107E+01  0.00000000000E+00 0. -1.
         13   -1    0    0    0    0 -0.00000000000E+00 -0.00000000000E+00 -0.10000000000E+04  0.10000000000E+04  0.00000000000E+00 0.  1.
    9000005    2    1    2  501    0  0.25762326030E+02 -0.56239303058E+02 -0.23847706636E+03  0.24640234524E+03  0.40308695612E+01 0.  0.
         13    1    3    3    0    0  0.22829948455E+02 -0.46815127830E+02 -0.20344021966E+03  0.21000187075E+03  0.00000000000E+00 0.  1.
          3    1    3    3  501    0  0.29323775752E+01 -0.94241752282E+01 -0.35036846695E+02  0.36400474493E+02  0.00000000000E+00 0.  1.
         -1    1    1    2    0  502 -0.25762326030E+02  0.56239303058E+02 -0.75629750473E+03  0.75882308367E+03  0.00000000000E+00 0. -1.
<mgrwt>
<rscale>  1 0.30000000E+03</rscale>
<asrwt>0</asrwt>
<pdfrwt beam="1">  1       21 0.19001600E-01 0.30000000E+03</pdfrwt>
<pdfrwt beam="2">0</pdfrwt>
<totfact> 0.26446667E+03</totfact>
</mgrwt>
</event>
<event>
 6    1  0.1198667E-001  0.3000000E+03  0.7818608E-02  0.1093470E+00
         21   -1    0    0  501  502  0.00000000000E+00  0.00000000000E+00  0.14791527394E+01  0.14791527394E+01  0.00000000000E+00 0. -1.
         13   -1    0    0    0    0 -0.00000000000E+00 -0.00000000000E+00 -0.10000000000E+04  0.10000000000E+04  0.00000000000E+00 0.  1.
    9000005    2    1    2  501    0 -0.17966713694E+00  0.37708299106E+02 -0.59203886075E+03  0.59325182213E+03  0.39703546803E+01 0.  0.
         13    1    3    3    0    0  0.65951841408E+00  0.15621929067E+02 -0.27414238827E+03  0.27458792522E+03  0.00000000000E+00 0.  1.
          1    1    3    3  501    0 -0.83918555102E+00  0.22086370040E+02 -0.31789647248E+03  0.31866389691E+03  0.00000000000E+00 0.  1.
         -1    1    1    2    0  502  0.17966713694E+00 -0.37708299106E+02 -0.40648198651E+03  0.40822733061E+03  0.00000000000E+00 0. -1.
<mgrwt>
<rscale>  1 0.30000000E+03</rscale>
<asrwt>0</asrwt>
<pdfrwt beam="1">  1       21 0.53787486E-02 0.30000000E+03</pdfrwt>
<pdfrwt beam="2">0</pdfrwt>
<totfact> 0.25426985E+04</totfact>
</mgrwt>
</event>
<event>
 6    1  0.1198667E-001  0.3000000E+03  0.7818608E-02  0.1093470E+00
         21   -1    0    0  501  502  0.00000000000E+00  0.00000000000E+00  0.23448769853E+01  0.23448769853E+01  0.00000000000E+00 0. -1.
         13   -1    0    0    0    0 -0.00000000000E+00 -0.00000000000E+00 -0.10000000000E+04  0.10000000000E+04  0.00000000000E+00 0.  1.
    9000005    2    1    2  501    0  0.38314602002E+01  0.34045469743E+02 -0.85251822137E+03  0.85321911021E+03  0.46645645063E+01 0.  0.
         13    1    3    3    0    0  0.18964662010E+01  0.20905985873E+02 -0.57545628765E+03  0.57583903638E+03  0.00000000000E+00 0.  1.
          3    1    3    3  501    0  0.19349939992E+01  0.13139483870E+02 -0.27706193373E+03  0.27738007383E+03  0.00000000000E+00 0.  1.
         -1    1    1    2    0  502 -0.38314602002E+01 -0.34045469743E+02 -0.14513690164E+03  0.14912576677E+03  0.00000000000E+00 0. -1.
<mgrwt>
<rscale>  1 0.30000000E+03</rscale>
<asrwt>0</asrwt>
<pdfrwt beam="1">  1       21 0.85268434E-02 0.30000000E+03</pdfrwt>
<pdfrwt beam="2">0</pdfrwt>
<totfact> 0.11417595E+04</totfact>
</mgrwt>
</event>
<event>
 6    1  0.1198667E-001  0.3000000E+03  0.7818608E-02  0.1093470E+00
         21   -1    0    0  501  502  0.00000000000E+00  0.00000000000E+00  0.10237931403E+01  0.10237931403E+01  0.00000000000E+00 0. -1.
         13   -1    0    0    0    0 -0.00000000000E+00 -0.00000000000E+00 -0.10000000000E+04  0.10000000000E+04  0.00000000000E+00 0.  1.
    9000005    2    1    2  501    0 -0.41349601113E+01 -0.30886506205E+02 -0.60687837518E+03  0.60768960473E+03  0.37708461970E+01 0.  0.
         13    1    3    3    0    0  0.15904702756E+00 -0.77087453703E+01 -0.17223989450E+03  0.17241238734E+03  0.00000000000E+00 0.  1.
          3    1    3    3  501    0 -0.42940071389E+01 -0.23177760834E+02 -0.43463848068E+03  0.43527721740E+03  0.00000000000E+00 0.  1.
         -3    1    1    2    0  502  0.41349601113E+01  0.30886506205E+02 -0.39209783168E+03  0.39333418841E+03  0.00000000000E+00 0. -1.
<mgrwt>
<rscale>  1 0.30000000E+03</rscale>
<asrwt>0</asrwt>
<pdfrwt beam="1">  1       21 0.37228920E-02 0.30000000E+03</pdfrwt>
<pdfrwt beam="2">0</pdfrwt>
<totfact> 0.47441684E+04</totfact>
</mgrwt>
</event>
<event>
 6    1  0.1198667E-001  0.3000000E+03  0.7818608E-02  0.1093470E+00
         21   -1    0    0  501  502  0.00000000000E+00  0.00000000000E+00  0.44256291112E+01  0.44256291112E+01  0.00000000000E+00 0. -1.
         13   -1    0    0    0    0 -0.00000000000E+00 -0.00000000000E+00 -0.10000000000E+04  0.10000000000E+04  0.00000000000E+00 0.  1.
    9000005    2    1    2  501    0  0.23886103094E+02 -0.24753650175E+02 -0.92758514166E+03  0.92822966853E+03  0.35823719688E+01 0.  0.
         13    1    3    3    0    0  0.65741931862E+01 -0.90052325964E+01 -0.28093556989E+03  0.28115673326E+03  0.00000000000E+00 0.  1.
          1    1    3    3  501    0  0.17311909908E+02 -0.15748417579E+02 -0.64664957178E+03  0.64707293527E+03  0.00000000000E+00 0.  1.
         -3    1    1    2    0  502 -0.23886103094E+02  0.24753650175E+02 -0.67989229224E+02  0.76195960579E+02  0.00000000000E+00 0. -1.
<mgrwt>
<rscale>  1 0.30000000E+03</rscale>
<asrwt>0</asrwt>
<pdfrwt beam="1">  1       21 0.16093231E-01 0.30000000E+03</pdfrwt>
<pdfrwt beam="2">0</pdfrwt>
<totfact> 0.36133137E+03</totfact>
</mgrwt>
</event>
<event>
 6    1  0.1198667E-001  0.3000000E+03  0.7818608E-02  0.1093470E+00
         21   -1    0    0  501  502  0.00000000000E+00  0.00000000000E+00  0.33453165381E+01  0.33453165381E+01  0.00000000000E+00 0. -1.
         13   -1    0    0    0    0 -0.00000000000E+00 -0.00000000000E+00 -0.10000000000E+04  0.10000000000E+04  0.00000000000E+00 0.  1.
    9000005    2    1    2  501    0  0.45631111368E+02  0.11924393242E+02 -0.78818533502E+03  0.78960748948E+03  0.44131181198E+01 0.  0.
         13    1    3    3    0    0  0.28573457475E+02  0.53726084240E+01 -0.49579712945E+03  0.49664887090E+03  0.00000000000E+00 0.  1.
          1    1    3    3  501    0  0.17057653893E+02  0.65517848185E+01 -0.29238820557E+03  0.29295861858E+03  0.00000000000E+00 0.  1.
         -3    1    1    2    0  502 -0.45631111368E+02 -0.11924393242E+02 -0.20846934844E+03  0.21373782706E+03  0.00000000000E+00 0. -1.
<mgrwt>
<rscale>  1 0.30000000E+03</rscale>
<asrwt>0</asrwt>
<pdfrwt beam="1">  1       21 0.12164813E-01 0.30000000E+03</pdfrwt>
<pdfrwt beam="2">0</pdfrwt>
<totfact> 0.60454589E+03</totfact>
</mgrwt>
</event>
<event>
 6    1  0.1198667E-001  0.3000000E+03  0.7818608E-02  0.1093470E+00
         21   -1    0    0  501  502  0.00000000000E+00  0.00000000000E+00  0.10686484198E+02  0.10686484198E+02  0.00000000000E+00 0. -1.
         13   -1    0    0    0    0 -0.00000000000E+00 -0.00000000000E+00 -0.10000000000E+04  0.10000000000E+04  0.00000000000E+00 0.  1.
    9000005    2    1    2  501    0 -0.27190139147E+02 -0.94134353629E+02 -0.65504772377E+03  0.66235589421E+03  0.52182349189E+01 0.  0.
         13    1    3    3    0    0 -0.94699231656E+01 -0.34932473738E+02 -0.22565463214E+03  0.22853877171E+03  0.00000000000E+00 0.  1.
          1    1    3    3  501    0 -0.17720215981E+02 -0.59201879892E+02 -0.42939309163E+03  0.43381712250E+03  0.00000000000E+00 0.  1.
         -3    1    1    2    0  502  0.27190139147E+02  0.94134353629E+02 -0.33426579203E+03  0.34833058999E+03  0.00000000000E+00 0. -1.
<mgrwt>
<rscale>  1 0.30000000E+03</rscale>
<asrwt>0</asrwt>
<pdfrwt beam="1">  1       21 0.38860024E-01 0.30000000E+03</pdfrwt>
<pdfrwt beam="2">0</pdfrwt>
<totfact> 0.64150061E+02</totfact>
</mgrwt>
</event>
<event>
 6    1  0.1198667E-001  0.3000000E+03  0.7818608E-02  0.1093470E+00
         21   -1    0    0  501  502  0.00000000000E+00  0.00000000000E+00  0.37116119532E+01  0.37116119532E+01  0.00000000000E+00 0. -1.
         13   -1    0    0    0    0 -0.00000000000E+00 -0.00000000000E+00 -0.10000000000E+04  0.10000000000E+04  0.00000000000E+00 0.  1.
    9000005    2    1    2  501    0 -0.37365601945E+01  0.58408793868E+02 -0.63449201015E+03  0.63721172363E+03  0.57550587770E+01 0.  0.
         13    1    3    3    0    0 -0.50214899138E+01  0.51591105560E+02 -0.56666300115E+03  0.56902883442E+03  0.00000000000E+00 0.  1.
          1    1    3    3  501    0  0.12849297193E+01  0.68176883075E+01 -0.67829009001E+02  0.68182889205E+02  0.00000000000E+00 0.  1.
         -3    1    1    2    0  502  0.37365601945E+01 -0.58408793868E+02 -0.36179637790E+03  0.36649988833E+03  0.00000000000E+00 0. -1.
<mgrwt>
<rscale>  1 0.30000000E+03</rscale>
<asrwt>0</asrwt>
<pdfrwt beam="1">  1       21 0.13496799E-01 0.30000000E+03</pdfrwt>
<pdfrwt beam="2">0</pdfrwt>
<totfact> 0.50014729E+03</totfact>
</mgrwt>
</event>
<event>
 6    1  0.1198667E-001  0.3000000E+03  0.7818608E-02  0.1093470E+00
         21   -1    0    0  501  502  0.00000000000E+00  0.00000000000E+00  0.88634034958E+01  0.88634034958E+01  0.00000000000E+00 0. -1.
         13   -1    0    0    0    0 -0.00000000000E+00 -0.00000000000E+00 -0.10000000000E+04  0.10000000000E+04  0.00000000000E+00 0.  1.
    9000005    2    1    2  501    0 -0.46926445389E+02 -0.62667395928E+02 -0.21577259347E+03  0.22955689705E+03  0.30435342600E+01 0.  0.
         13    1    3    3    0    0 -0.27897947772E+01 -0.49629735389E+01 -0.14909555756E+02  0.15959602567E+02  0.00000000000E+00 0.  1.
          3    1    3    3  501    0 -0.44136650611E+02 -0.57704422389E+02 -0.20086303772E+03  0.21359729449E+03  0.00000000000E+00 0.  1.
         -1    1    1    2    0  502  0.46926445389E+02  0.62667395928E+02 -0.77536400303E+03  0.77930650644E+03  0.00000000000E+00 0. -1.
<mgrwt>
<rscale>  1 0.30000000E+03</rscale>
<asrwt>0</asrwt>
<pdfrwt beam="1">  1       21 0.32230626E-01 0.30000000E+03</pdfrwt>
<pdfrwt beam="2">0</pdfrwt>
<totfact> 0.94119633E+02</totfact>
</mgrwt>
</event>
<event>
 6    1  0.1198667E-001  0.3000000E+03  0.7818608E-02  0.1093470E+00
         21   -1    0    0  501  502  0.00000000000E+00  0.00000000000E+00  0.13064865597E+01  0.13064865597E+01  0.00000000000E+00 0. -1.
         13   -1    0    0    0    0 -0.00000000000E+00 -0.00000000000E+00 -0.10000000000E+04  0.10000000000E+04  0.00000000000E+00 0.  1.
    9000005    2    1    2  501    0 -0.66001814096E+01 -0.34556632192E+02 -0.40466873342E+03  0.40624080741E+03  0.60898747743E+01 0.  0.
         13    1    3    3    0    0 -0.47107067915E+01 -0.30413784037E+02 -0.36929659773E+03  0.37057680191E+03  0.00000000000E+00 0.  1.
          1    1    3    3  501    0 -0.18894746181E+01 -0.41428481550E+01 -0.35372135692E+02  0.35664005504E+02  0.00000000000E+00 0.  1.
         -1    1    1    2    0  502  0.66001814096E+01  0.34556632192E+02 -0.59402478002E+03  0.59506567915E+03  0.00000000000E+00 0. -1.
<mgrwt>
<rscale>  1 0.30000000E+03</rscale>
<asrwt>0</asrwt>
<pdfrwt beam="1">  1       21 0.47508702E-02 0.30000000E+03</pdfrwt>
<pdfrwt beam="2">0</pdfrwt>
<totfact> 0.31423757E+04</totfact>
</mgrwt>
</event>
<event>
 6    1  0.1198667E-001  0.3000000E+03  0.7818608E-02  0.1093470E+00
         21   -1    0    0  501  502  0.00000000000E+00  0.00000000000E+00  0.18491411294E+01  0.18491411294E+01  0.00000000000E+00 0. -1.
         13   -1    0    0    0    0 -0.00000000000E+00 -0.00000000000E+00 -0.10000000000E+04  0.10000000000E+04  0.00000000000E+00 0.  1.
    9000005    2    1    2  501    0  0.23961198036E+02 -0.21104774597E+02 -0.83400243487E+03  0.83462397669E+03  0.41917256151E+01 0.  0.
         13    1    3    3    0    0  0.58076383612E+01 -0.37274522922E+01 -0.21787374140E+03  0.21798300336E+03  0.00000000000E+00 0.  1.
          1    1    3    3  501    0  0.18153559674E+02 -0.17377322304E+02 -0.61612869348E+03  0.61664097333E+03  0.00000000000E+00 0.  1.
         -3    1    1    2    0  502 -0.23961198036E+02  0.21104774597E+02 -0.16414842400E+03  0.16722516444E+03  0.00000000000E+00 0. -1.
<mgrwt>
<rscale>  1 0.30000000E+03</rscale>
<asrwt>0</asrwt>
<pdfrwt beam="1">  1       21 0.67241637E-02 0.30000000E+03</pdfrwt>
<pdfrwt beam="2">0</pdfrwt>
<totfact> 0.17302773E+04</totfact>
</mgrwt>
</event>
<event>
 6    1  0.1198667E-001  0.3000000E+03  0.7818608E-02  0.1093470E+00
         21   -1    0    0  501  502  0.00000000000E+00  0.00000000000E+00  0.23990823580E+01  0.23990823580E+01  0.00000000000E+00 0. -1.
         13   -1    0    0    0    0 -0.00000000000E+00 -0.00000000000E+00 -0.10000000000E+04  0.10000000000E+04  0.00000000000E+00 0.  1.
    9000005    2    1    2  501    0 -0.47458367765E+02 -0.11769754167E+02 -0.49136610062E+03  0.49380836897E+03  0.39034135768E+01 0.  0.
         13    1    3    3    0    0 -0.38884030596E+02 -0.10372999543E+02 -0.39011440842E+03  0.39218467412E+03  0.00000000000E+00 0.  1.
          1    1    3    3  501    0 -0.85743371690E+01 -0.13967546239E+01 -0.10125169220E+03  0.10162369485E+03  0.00000000000E+00 0.  1.
         -1    1    1    2    0  502  0.47458367765E+02  0.11769754167E+02 -0.50623481702E+03  0.50859071339E+03  0.00000000000E+00 0. -1.
<mgrwt>
<rscale>  1 0.30000000E+03</rscale>
<asrwt>0</asrwt>
<pdfrwt beam="1">  1       21 0.87239542E-02 0.30000000E+03</pdfrwt>
<pdfrwt beam="2">0</pdfrwt>
<totfact> 0.10966137E+04</totfact>
</mgrwt>
</event>
<event>
 6    1  0.1198667E-001  0.3000000E+03  0.7818608E-02  0.1093470E+00
         21   -1    0    0  501  502  0.00000000000E+00  0.00000000000E+00  0.22238703227E+01  0.22238703227E+01  0.00000000000E+00 0. -1.
         13   -1    0    0    0    0 -0.00000000000E+00 -0.00000000000E+00 -0.10000000000E+04  0.10000000000E+04  0.00000000000E+00 0.  1.
    9000005    2    1    2  501    0 -0.10719976294E+02  0.38606883136E+02 -0.76057427450E+03  0.76166175897E+03  0.70709782911E+01 0.  0.
         13    1    3    3    0    0 -0.11276167106E+02  0.30864876526E+02 -0.63137858390E+03  0.63223311267E+03  0.00000000000E+00 0.  1.
          1    1    3    3  501    0  0.55619081210E+00  0.77420066105E+01 -0.12919569059E+03  0.12942864630E+03  0.00000000000E+00 0.  1.
         -3    1    1    2    0  502  0.10719976294E+02 -0.38606883136E+02 -0.23720185518E+03  0.24056211135E+03  0.00000000000E+00 0. -1.
<mgrwt>
<rscale>  1 0.30000000E+03</rscale>
<asrwt>0</asrwt>
<pdfrwt beam="1">  1       21 0.80868182E-02 0.30000000E+03</pdfrwt>
<pdfrwt beam="2">0</pdfrwt>
<totfact> 0.12533897E+04</totfact>
</mgrwt>
</event>
<event>
 6    1  0.1198667E-001  0.3000000E+03  0.7818608E-02  0.1093470E+00
         21   -1    0    0  501  502  0.00000000000E+00  0.00000000000E+00  0.55267813487E+01  0.55267813487E+01  0.00000000000E+00 0. -1.
         13   -1    0    0    0    0 -0.00000000000E+00 -0.00000000000E+00 -0.10000000000E+04  0.10000000000E+04  0.00000000000E+00 0.  1.
    9000005    2    1    2  501    0 -0.37319661390E+02  0.24133880671E+02 -0.90006931712E+03  0.90118456579E+03  0.58004035925E+01 0.  0.
         13    1    3    3    0    0 -0.21124732227E+02  0.10867847027E+02 -0.44418297477E+03  0.44481780482E+03  0.00000000000E+00 0.  1.
          1    1    3    3  501    0 -0.16194929163E+02  0.13266033644E+02 -0.45588634235E+03  0.45636676098E+03  0.00000000000E+00 0.  1.
         -3    1    1    2    0  502  0.37319661390E+02 -0.24133880671E+02 -0.94403901530E+02  0.10434221555E+03  0.00000000000E+00 0. -1.
<mgrwt>
<rscale>  1 0.30000000E+03</rscale>
<asrwt>0</asrwt>
<pdfrwt beam="1">  1       21 0.20097429E-01 0.30000000E+03</pdfrwt>
<pdfrwt beam="2">0</pdfrwt>
<totfact> 0.23770605E+03</totfact>
</mgrwt>
</event>
<event>
 6    1  0.1198667E-001  0.3000000E+03  0.7818608E-02  0.1093470E+00
         21   -1    0    0  501  502  0.00000000000E+00  0.00000000000E+00  0.12270359235E+01  0.12270359235E+01  0.00000000000E+00 0. -1.
         13   -1    0    0    0    0 -0.00000000000E+00 -0.00000000000E+00 -0.10000000000E+04  0.10000000000E+04  0.00000000000E+00 0.  1.
    9000005    2    1    2  501    0 -0.27894210784E+02 -0.19960874739E+02 -0.59858445571E+03  0.59957125575E+03  0.24117612146E+01 0.  0.
         13    1    3    3    0    0 -0.20686612422E+02 -0.16052192821E+02 -0.45320057387E+03  0.45395635141E+03  0.00000000000E+00 0.  1.
          3    1    3    3  501    0 -0.72075983618E+01 -0.39086819181E+01 -0.14538388183E+03  0.14561490434E+03  0.00000000000E+00 0.  1.
         -1    1    1    2    0  502  0.27894210784E+02  0.19960874739E+02 -0.40018850837E+03  0.40165578017E+03  0.00000000000E+00 0. -1.
<mgrwt>
<rscale>  1 0.30000000E+03</rscale>
<asrwt>0</asrwt>
<pdfrwt beam="1">  1       21 0.44619582E-02 0.30000000E+03</pdfrwt>
<pdfrwt beam="2">0</pdfrwt>
<totfact> 0.34958021E+04</totfact>
</mgrwt>
</event>
<event>
 6    1  0.1198667E-001  0.3000000E+03  0.7818608E-02  0.1093470E+00
         21   -1    0    0  501  502  0.00000000000E+00  0.00000000000E+00  0.63789785503E+01  0.63789785503E+01  0.00000000000E+00 0. -1.
         13   -1    0    0    0    0 -0.00000000000E+00 -0.00000000000E+00 -0.10000000000E+04  0.10000000000E+04  0.00000000000E+00 0.  1.
    9000005    2    1    2  501    0 -0.48264577155E+01 -0.35707313280E+02 -0.94585117722E+03  0.94654366345E+03  0.34857490500E+01 0.  0.
         13    1    3    3    0    0 -0.19300477312E+00 -0.14088836165E+02 -0.36541923602E+03  0.36569078551E+03  0.00000000000E+00 0.  1.
          3    1    3    3  501    0 -0.46334529423E+01 -0.21618477115E+02 -0.58043194121E+03  0.58085287794E+03  0.00000000000E+00 0.  1.
         -1    1    1    2    0  502  0.48264577155E+01  0.35707313280E+02 -0.47769844226E+02  0.59835315101E+02  0.00000000000E+00 0. -1.
<mgrwt>
<rscale>  1 0.30000000E+03</rscale>
<asrwt>0</asrwt>
<pdfrwt beam="1">  1       21 0.23196335E-01 0.30000000E+03</pdfrwt>
<pdfrwt beam="2">0</pdfrwt>
<totfact> 0.18043413E+03</totfact>
</mgrwt>
</event>
<event>
 6    1  0.1198667E-001  0.3000000E+03  0.7818608E-02  0.1093470E+00
         21   -1    0    0  501  502  0.00000000000E+00  0.00000000000E+00  0.12500720102E+01  0.12500720102E+01  0.00000000000E+00 0. -1.
         13   -1    0    0    0    0 -0.00000000000E+00 -0.00000000000E+00 -0.10000000000E+04  0.10000000000E+04  0.00000000000E+00 0.  1.
    9000005    2    1    2  501    0 -0.20275554635E+02  0.28798652547E+02 -0.52829861958E+03  0.52948223283E+03  0.33974878489E+01 0.  0.
         13    1    3    3    0    0 -0.15028927930E+02  0.23431445109E+02 -0.40532429003E+03  0.40627906835E+03  0.00000000000E+00 0.  1.
          1    1    3    3  501    0 -0.52466267049E+01  0.53672074382E+01 -0.12297432956E+03  0.12320316448E+03  0.00000000000E+00 0.  1.
         -3    1    1    2    0  502  0.20275554635E+02 -0.28798652547E+02 -0.47045130841E+03  0.47176783918E+03  0.00000000000E+00 0. -1.
<mgrwt>
<rscale>  1 0.30000000E+03</rscale>
<asrwt>0</asrwt>
<pdfrwt beam="1">  1       21 0.45457260E-02 0.30000000E+03</pdfrwt>
<pdfrwt beam="2">0</pdfrwt>
<totfact> 0.33871835E+04</totfact>
</mgrwt>
</event>
<event>
 6    1  0.1198667E-001  0.3000000E+03  0.7818608E-02  0.1093470E+00
         21   -1    0    0  501  502  0.00000000000E+00  0.00000000000E+00  0.19340581149E+01  0.19340581149E+01  0.00000000000E+00 0. -1.
         13   -1    0    0    0    0 -0.00000000000E+00 -0.00000000000E+00 -0.10000000000E+04  0.10000000000E+04  0.00000000000E+00 0.  1.
    9000005    2    1    2  501    0 -0.55728341979E+01 -0.32918512482E+02 -0.82454066157E+03  0.82522608474E+03  0.40129056788E+01 0.  0.
         13    1    3    3    0    0 -0.14525462727E+01 -0.16900021958E+02 -0.45296394569E+03  0.45328143214E+03  0.00000000000E+00 0.  1.
          1    1    3    3  501    0 -0.41202879252E+01 -0.16018490523E+02 -0.37157671588E+03  0.37194465260E+03  0.00000000000E+00 0.  1.
         -1    1    1    2    0  502  0.55728341979E+01  0.32918512482E+02 -0.17352528031E+03  0.17670797337E+03  0.00000000000E+00 0. -1.
<mgrwt>
<rscale>  1 0.30000000E+03</rscale>
<asrwt>0</asrwt>
<pdfrwt beam="1">  1       21 0.70329534E-02 0.30000000E+03</pdfrwt>
<pdfrwt beam="2">0</pdfrwt>
<totfact> 0.16003916E+04</totfact>
</mgrwt>
</event>
<event>
 6    1  0.1198667E-001  0.3000000E+03  0.7818608E-02  0.1093470E+00
         21   -1    0    0  501  502  0.00000000000E+00  0.00000000000E+00  0.44781913561E+01  0.44781913561E+01  0.00000000000E+00 0. -1.
         13   -1    0    0    0    0 -0.00000000000E+00 -0.00000000000E+00 -0.10000000000E+04  0.10000000000E+04  0.00000000000E+00 0.  1.
    9000005    2    1    2  501    0 -0.63268491483E+02  0.12317220831E+02 -0.63193456286E+03  0.63522177470E+03  0.32856315622E+01 0.  0.
         13    1    3    3    0    0 -0.16762930557E+02  0.37877750964E+01 -0.18217104016E+03  0.18297986489E+03  0.00000000000E+00 0.  1.
          3    1    3    3  501    0 -0.46505560926E+02  0.85294457351E+01 -0.44976352269E+03  0.45224190981E+03  0.00000000000E+00 0.  1.
         -1    1    1    2    0  502  0.63268491483E+02 -0.12317220831E+02 -0.36358724579E+03  0.36925641666E+03  0.00000000000E+00 0. -1.
<mgrwt>
<rscale>  1 0.30000000E+03</rscale>
<asrwt>0</asrwt>
<pdfrwt beam="1">  1       21 0.16284367E-01 0.30000000E+03</pdfrwt>
<pdfrwt beam="2">0</pdfrwt>
<totfact> 0.35345977E+03</totfact>
</mgrwt>
</event>
<event>
 6    1  0.1198667E-001  0.3000000E+03  0.7818608E-02  0.1093470E+00
         21   -1    0    0  501  502  0.00000000000E+00  0.00000000000E+00  0.19365639476E+01  0.19365639476E+01  0.00000000000E+00 0. -1.
         13   -1    0    0    0    0 -0.00000000000E+00 -0.00000000000E+00 -0.10000000000E+04  0.10000000000E+04  0.00000000000E+00 0.  1.
    9000005    2    1    2  501    0  0.16846514410E+02 -0.34593649899E+02 -0.25890152742E+03  0.26177384344E+03  0.38753768858E+01 0.  0.
         13    1    3    3    0    0  0.97625917526E-01 -0.22009861672E+01 -0.15463670490E+02  0.15619826374E+02  0.00000000000E+00 0.  1.
          1    1    3    3  501    0  0.16748888493E+02 -0.32392663732E+02 -0.24343785693E+03  0.24615401706E+03  0.00000000000E+00 0.  1.
         -1    1    1    2    0  502 -0.16846514410E+02  0.34593649899E+02 -0.73916190863E+03  0.74016272051E+03  0.00000000000E+00 0. -1.
<mgrwt>
<rscale>  1 0.30000000E+03</rscale>
<asrwt>0</asrwt>
<pdfrwt beam="1">  1       21 0.70420656E-02 0.30000000E+03</pdfrwt>
<pdfrwt beam="2">0</pdfrwt>
<totfact> 0.15967878E+04</totfact>
</mgrwt>
</event>
<event>
 6    1  0.1198667E-001  0.3000000E+03  0.7818608E-02  0.1093470E+00
         21   -1    0    0  501  502  0.00000000000E+00  0.00000000000E+00  0.13824449554E+01  0.13824449554E+01  0.00000000000E+00 0. -1.
         13   -1    0    0    0    0 -0.00000000000E+00 -0.00000000000E+00 -0.10000000000E+04  0.10000000000E+04  0.00000000000E+00 0.  1.
    9000005    2    1    2  501    0 -0.13268911111E+01  0.34571020885E+02 -0.66519282206E+03  0.66616763518E+03  0.10045472607E+02 0.  0.
         13    1    3    3    0    0 -0.25197655067E+01  0.28101391844E+01 -0.43722442326E+02  0.43885055126E+02  0.00000000000E+00 0.  1.
          1    1    3    3  501    0  0.11928743956E+01  0.31760881701E+02 -0.62147037973E+03  0.62228258005E+03  0.00000000000E+00 0.  1.
         -1    1    1    2    0  502  0.13268911111E+01 -0.34571020885E+02 -0.33342473299E+03  0.33521480978E+03  0.00000000000E+00 0. -1.
<mgrwt>
<rscale>  1 0.30000000E+03</rscale>
<asrwt>0</asrwt>
<pdfrwt beam="1">  1       21 0.50270832E-02 0.30000000E+03</pdfrwt>
<pdfrwt beam="2">0</pdfrwt>
<totfact> 0.28540577E+04</totfact>
</mgrwt>
</event>
<event>
 6    1  0.1198667E-001  0.3000000E+03  0.7818608E-02  0.1093470E+00
         21   -1    0    0  501  502  0.00000000000E+00  0.00000000000E+00  0.81463535718E+01  0.81463535718E+01  0.00000000000E+00 0. -1.
         13   -1    0    0    0    0 -0.00000000000E+00 -0.00000000000E+00 -0.10000000000E+04  0.10000000000E+04  0.00000000000E+00 0.  1.
    9000005    2    1    2  501    0 -0.14293847622E+01 -0.61516184170E+02 -0.86463756854E+03  0.86683034412E+03  0.32305558226E+01 0.  0.
         13    1    3    3    0    0  0.87331479916E+00 -0.11139978594E+02 -0.14970207951E+03  0.15011853453E+03  0.00000000000E+00 0.  1.
          1    1    3    3  501    0 -0.23026995614E+01 -0.50376205576E+02 -0.71493548904E+03  0.71671180958E+03  0.00000000000E+00 0.  1.
         -3    1    1    2    0  502  0.14293847622E+01  0.61516184170E+02 -0.12721607788E+03  0.14131600945E+03  0.00000000000E+00 0. -1.
<mgrwt>
<rscale>  1 0.30000000E+03</rscale>
<asrwt>0</asrwt>
<pdfrwt beam="1">  1       21 0.29623166E-01 0.30000000E+03</pdfrwt>
<pdfrwt beam="2">0</pdfrwt>
<totfact> 0.11150989E+03</totfact>
</mgrwt>
</event>
<event>
 6    1  0.1198667E-001  0.3000000E+03  0.7818608E-02  0.1093470E+00
         21   -1    0    0  501  502  0.00000000000E+00  0.00000000000E+00  0.11958696640E+01  0.11958696640E+01  0.00000000000E+00 0. -1.
         13   -1    0    0    0    0 -0.00000000000E+00 -0.00000000000E+00 -0.10000000000E+04  0.10000000000E+04  0.00000000000E+00 0.  1.
    9000005    2    1    2  501    0 -0.14221137562E+02 -0.30320793919E+02 -0.62236496278E+03  0.62326990050E+03  0.23729047971E+01 0.  0.
         13    1    3    3    0    0 -0.37765176232E+01 -0.80043479192E+01 -0.18464024394E+03  0.18485224195E+03  0.00000000000E+00 0.  1.
          1    1    3    3  501    0 -0.10444619939E+02 -0.22316445999E+02 -0.43772471884E+03  0.43841765856E+03  0.00000000000E+00 0.  1.
         -3    1    1    2    0  502  0.14221137562E+02  0.30320793919E+02 -0.37643916756E+03  0.37792596916E+03  0.00000000000E+00 0. -1.
<mgrwt>
<rscale>  1 0.30000000E+03</rscale>
<asrwt>0</asrwt>
<pdfrwt beam="1">  1       21 0.43486261E-02 0.30000000E+03</pdfrwt>
<pdfrwt beam="2">0</pdfrwt>
<totfact> 0.36515391E+04</totfact>
</mgrwt>
</event>
<event>
 6    1  0.1198667E-001  0.3000000E+03  0.7818608E-02  0.1093470E+00
         21   -1    0    0  501  502  0.00000000000E+00  0.00000000000E+00  0.17025442523E+01  0.17025442523E+01  0.00000000000E+00 0. -1.
         13   -1    0    0    0    0 -0.00000000000E+00 -0.00000000000E+00 -0.10000000000E+04  0.10000000000E+04  0.00000000000E+00 0.  1.
    9000005    2    1    2  501    0  0.23100133828E+01  0.35393628436E+02 -0.24464741103E+03  0.24721832639E+03  0.25495264825E+01 0.  0.
         13    1    3    3    0    0  0.18765032394E+01  0.28206861546E+02 -0.20174849885E+03  0.20371942738E+03  0.00000000000E+00 0.  1.
          1    1    3    3  501    0  0.43351014336E+00  0.71867668892E+01 -0.42898912179E+02  0.43498899014E+02  0.00000000000E+00 0.  1.
         -1    1    1    2    0  502 -0.23100133828E+01 -0.35393628436E+02 -0.75365004472E+03  0.75448421786E+03  0.00000000000E+00 0. -1.
<mgrwt>
<rscale>  1 0.30000000E+03</rscale>
<asrwt>0</asrwt>
<pdfrwt beam="1">  1       21 0.61910831E-02 0.30000000E+03</pdfrwt>
<pdfrwt beam="2">0</pdfrwt>
<totfact> 0.19961897E+04</totfact>
</mgrwt>
</event>
<event>
 6    1  0.1198667E-001  0.3000000E+03  0.7818608E-02  0.1093470E+00
         21   -1    0    0  501  502  0.00000000000E+00  0.00000000000E+00  0.10329392266E+01  0.10329392266E+01  0.00000000000E+00 0. -1.
         13   -1    0    0    0    0 -0.00000000000E+00 -0.00000000000E+00 -0.10000000000E+04  0.10000000000E+04  0.00000000000E+00 0.  1.
    9000005    2    1    2  501    0 -0.29459839000E+02 -0.11476097498E+02 -0.58280138414E+03  0.58366804692E+03  0.33693774965E+01 0.  0.
         13    1    3    3    0    0 -0.11224574075E+02 -0.53049476998E+01 -0.25464786554E+03  0.25495032645E+03  0.00000000000E+00 0.  1.
          1    1    3    3  501    0 -0.18235264925E+02 -0.61711497981E+01 -0.32815351861E+03  0.32871772047E+03  0.00000000000E+00 0.  1.
         -1    1    1    2    0  502  0.29459839000E+02  0.11476097498E+02 -0.41616567663E+03  0.41736489231E+03  0.00000000000E+00 0. -1.
<mgrwt>
<rscale>  1 0.30000000E+03</rscale>
<asrwt>0</asrwt>
<pdfrwt beam="1">  1       21 0.37561506E-02 0.30000000E+03</pdfrwt>
<pdfrwt beam="2">0</pdfrwt>
<totfact> 0.46738468E+04</totfact>
</mgrwt>
</event>
<event>
 6    1  0.1198667E-001  0.3000000E+03  0.7818608E-02  0.1093470E+00
         21   -1    0    0  501  502  0.00000000000E+00  0.00000000000E+00  0.39008275584E+01  0.39008275584E+01  0.00000000000E+00 0. -1.
         13   -1    0    0    0    0 -0.00000000000E+00 -0.00000000000E+00 -0.10000000000E+04  0.10000000000E+04  0.00000000000E+00 0.  1.
    9000005    2    1    2  501    0  0.29141534058E+02  0.12438202889E+02 -0.93056820152E+03  0.93111177585E+03  0.28325875798E+01 0.  0.
         13    1    3    3    0    0  0.28626815231E+02  0.12171609313E+02 -0.92161996127E+03  0.92214478019E+03  0.00000000000E+00 0.  1.
          3    1    3    3  501    0  0.51471882749E+00  0.26659357645E+00 -0.89482402519E+01  0.89669956626E+01  0.00000000000E+00 0.  1.
         -1    1    1    2    0  502 -0.29141534058E+02 -0.12438202889E+02 -0.65530970924E+02  0.72789051709E+02  0.00000000000E+00 0. -1.
<mgrwt>
<rscale>  1 0.30000000E+03</rscale>
<asrwt>0</asrwt>
<pdfrwt beam="1">  1       21 0.14184857E-01 0.30000000E+03</pdfrwt>
<pdfrwt beam="2">0</pdfrwt>
<totfact> 0.45652397E+03</totfact>
</mgrwt>
</event>
<event>
 6    1  0.1198667E-001  0.3000000E+03  0.7818608E-02  0.1093470E+00
         21   -1    0    0  501  502  0.00000000000E+00  0.00000000000E+00  0.16954210797E+01  0.16954210797E+01  0.00000000000E+00 0. -1.
         13   -1    0    0    0    0 -0.00000000000E+00 -0.00000000000E+00 -0.10000000000E+04  0.10000000000E+04  0.00000000000E+00 0.  1.
    9000005    2    1    2  501    0 -0.98726537261E+01 -0.31083219473E+02 -0.80439389364E+03  0.80506126918E+03  0.32365408534E+01 0.  0.
         13    1    3    3    0    0 -0.59949852465E+01 -0.20319979491E+02 -0.55765373917E+03  0.55805603144E+03  0.00000000000E+00 0.  1.
          1    1    3    3  501    0 -0.38776684797E+01 -0.10763239981E+02 -0.24674015446E+03  0.24700523774E+03  0.00000000000E+00 0.  1.
         -3    1    1    2    0  502  0.98726537261E+01  0.31083219473E+02 -0.19391068528E+03  0.19663415190E+03  0.00000000000E+00 0. -1.
<mgrwt>
<rscale>  1 0.30000000E+03</rscale>
<asrwt>0</asrwt>
<pdfrwt beam="1">  1       21 0.61651806E-02 0.30000000E+03</pdfrwt>
<pdfrwt beam="2">0</pdfrwt>
<totfact> 0.20106942E+04</totfact>
</mgrwt>
</event>
<event>
 6    1  0.1198667E-001  0.3000000E+03  0.7818608E-02  0.1093470E+00
         21   -1    0    0  501  502  0.00000000000E+00  0.00000000000E+00  0.16592950420E+01  0.16592950420E+01  0.00000000000E+00 0. -1.
         13   -1    0    0    0    0 -0.00000000000E+00 -0.00000000000E+00 -0.10000000000E+04  0.10000000000E+04  0.00000000000E+00 0.  1.
    9000005    2    1    2  501    0 -0.29024972184E+02 -0.10468526938E+02 -0.82574112308E+03  0.82632346091E+03  0.31655389952E+01 0.  0.
         13    1    3    3    0    0 -0.21070361153E+02 -0.89746752287E+01 -0.62331771770E+03  0.62373831221E+03  0.00000000000E+00 0.  1.
          1    1    3    3  501    0 -0.79546110304E+01 -0.14938517098E+01 -0.20242340538E+03  0.20258514870E+03  0.00000000000E+00 0.  1.
         -3    1    1    2    0  502  0.29024972184E+02  0.10468526938E+02 -0.17259958187E+03  0.17533583413E+03  0.00000000000E+00 0. -1.
<mgrwt>
<rscale>  1 0.30000000E+03</rscale>
<asrwt>0</asrwt>
<pdfrwt beam="1">  1       21 0.60338129E-02 0.30000000E+03</pdfrwt>
<pdfrwt beam="2">0</pdfrwt>
<totfact> 0.20868405E+04</totfact>
</mgrwt>
</event>
<event>
 6    1  0.1198667E-001  0.3000000E+03  0.7818608E-02  0.1093470E+00
         21   -1    0    0  501  502  0.00000000000E+00  0.00000000000E+00  0.32455572420E+01  0.32455572420E+01  0.00000000000E+00 0. -1.
         13   -1    0    0    0    0 -0.00000000000E+00 -0.00000000000E+00 -0.10000000000E+04  0.10000000000E+04  0.00000000000E+00 0.  1.
    9000005    2    1    2  501    0 -0.35486760585E+02  0.19855022446E+02 -0.84919665430E+03  0.85018729047E+03  0.54716639017E+01 0.  0.
         13    1    3    3    0    0 -0.14333794988E+02  0.93210845696E+01 -0.30671430292E+03  0.30719050102E+03  0.00000000000E+00 0.  1.
          1    1    3    3  501    0 -0.21152965597E+02  0.10533937877E+02 -0.54248235138E+03  0.54299678946E+03  0.00000000000E+00 0.  1.
         -1    1    1    2    0  502  0.35486760585E+02 -0.19855022446E+02 -0.14755778845E+03  0.15305826677E+03  0.00000000000E+00 0. -1.
<mgrwt>
<rscale>  1 0.30000000E+03</rscale>
<asrwt>0</asrwt>
<pdfrwt beam="1">  1       21 0.11802051E-01 0.30000000E+03</pdfrwt>
<pdfrwt beam="2">0</pdfrwt>
<totfact> 0.63868687E+03</totfact>
</mgrwt>
</event>
<event>
 6    1  0.1198667E-001  0.3000000E+03  0.7818608E-02  0.1093470E+00
         21   -1    0    0  501  502  0.00000000000E+00  0.00000000000E+00  0.26364577617E+01  0.26364577617E+01  0.00000000000E+00 0. -1.
         13   -1    0    0    0    0 -0.00000000000E+00 -0.00000000000E+00 -0.10000000000E+04  0.10000000000E+04  0.00000000000E+00 0.  1.
    9000005    2    1    2  501    0  0.31196475082E+02  0.21077521612E+02 -0.83721778621E+03  0.83812461883E+03  0.10088268823E+02 0.  0.
         13    1    3    3    0    0  0.29494939300E+02  0.20087536544E+02 -0.82274721045E+03  0.82352075436E+03  0.00000000000E+00 0.  1.
          3    1    3    3  501    0  0.17015357820E+01  0.98998506730E+00 -0.14470575759E+02  0.14603864463E+02  0.00000000000E+00 0.  1.
         -1    1    1    2    0  502 -0.31196475082E+02 -0.21077521612E+02 -0.16014575603E+03  0.16451183894E+03  0.00000000000E+00 0. -1.
<mgrwt>
<rscale>  1 0.30000000E+03</rscale>
<asrwt>0</asrwt>
<pdfrwt beam="1">  1       21 0.95871394E-02 0.30000000E+03</pdfrwt>
<pdfrwt beam="2">0</pdfrwt>
<totfact> 0.92755527E+03</totfact>
</mgrwt>
</event>
<event>
 6    1  0.1198667E-001  0.3000000E+03  0.7818608E-02  0.1093470E+00
         21   -1    0    0  501  502  0.00000000000E+00  0.00000000000E+00  0.24065443976E+01  0.24065443976E+01  0.00000000000E+00 0. -1.
         13   -1    0    0    0    0 -0.00000000000E+00 -0.00000000000E+00 -0.10000000000E+04  0.10000000000E+04  0.00000000000E+00 0.  1.
    9000005    2    1    2  501    0  0.69263340549E+01  0.47496749547E+02 -0.39829719907E+03  0.40119117665E+03  0.31282766070E+01 0.  0.
         13    1    3    3    0    0 -0.31679303150E-01  0.44928216914E+01 -0.32489602071E+02  0.32798791031E+02  0.00000000000E+00 0.  1.
          1    1    3    3  501    0  0.69580133581E+01  0.43003927856E+02 -0.36580759700E+03  0.36839238562E+03  0.00000000000E+00 0.  1.
         -3    1    1    2    0  502 -0.69263340549E+01 -0.47496749547E+02 -0.59929625654E+03  0.60121536775E+03  0.00000000000E+00 0. -1.
<mgrwt>
<rscale>  1 0.30000000E+03</rscale>
<asrwt>0</asrwt>
<pdfrwt beam="1">  1       21 0.87510890E-02 0.30000000E+03</pdfrwt>
<pdfrwt beam="2">0</pdfrwt>
<totfact> 0.10906120E+04</totfact>
</mgrwt>
</event>
<event>
 6    1  0.1198667E-001  0.3000000E+03  0.7818608E-02  0.1093470E+00
         21   -1    0    0  501  502  0.00000000000E+00  0.00000000000E+00  0.17757690356E+01  0.17757690356E+01  0.00000000000E+00 0. -1.
         13   -1    0    0    0    0 -0.00000000000E+00 -0.00000000000E+00 -0.10000000000E+04  0.10000000000E+04  0.00000000000E+00 0.  1.
    9000005    2    1    2  501    0  0.26611020067E+02  0.22448956931E+02 -0.78078617085E+03  0.78156811240E+03  0.30931646709E+01 0.  0.
         13    1    3    3    0    0  0.16284186275E+02  0.11825948694E+02 -0.43963206726E+03  0.44009247023E+03  0.00000000000E+00 0.  1.
          3    1    3    3  501    0  0.10326833792E+02  0.10623008237E+02 -0.34115410359E+03  0.34147564217E+03  0.00000000000E+00 0.  1.
         -3    1    1    2    0  502 -0.26611020067E+02 -0.22448956931E+02 -0.21743806011E+03  0.22020765664E+03  0.00000000000E+00 0. -1.
<mgrwt>
<rscale>  1 0.30000000E+03</rscale>
<asrwt>0</asrwt>
<pdfrwt beam="1">  1       21 0.64573556E-02 0.30000000E+03</pdfrwt>
<pdfrwt beam="2">0</pdfrwt>
<totfact> 0.18560328E+04</totfact>
</mgrwt>
</event>
<event>
 6    1  0.1198667E-001  0.3000000E+03  0.7818608E-02  0.1093470E+00
         21   -1    0    0  501  502  0.00000000000E+00  0.00000000000E+00  0.11178754057E+01  0.11178754057E+01  0.00000000000E+00 0. -1.
         13   -1    0    0    0    0 -0.00000000000E+00 -0.00000000000E+00 -0.10000000000E+04  0.10000000000E+04  0.00000000000E+00 0.  1.
    9000005    2    1    2  501    0  0.95157418551E+01 -0.30688370580E+02 -0.63413766206E+03  0.63496101232E+03  0.35478581796E+01 0.  0.
         13    1    3    3    0    0  0.43867548506E+01 -0.18512840230E+02 -0.35092489181E+03  0.35144024892E+03  0.00000000000E+00 0.  1.
          1    1    3    3  501    0  0.51289870044E+01 -0.12175530349E+02 -0.28321277025E+03  0.28352076340E+03  0.00000000000E+00 0.  1.
         -3    1    1    2    0  502 -0.95157418551E+01  0.30688370580E+02 -0.36474446254E+03  0.36615686308E+03  0.00000000000E+00 0. -1.
<mgrwt>
<rscale>  1 0.30000000E+03</rscale>
<asrwt>0</asrwt>
<pdfrwt beam="1">  1       21 0.40650100E-02 0.30000000E+03</pdfrwt>
<pdfrwt beam="2">0</pdfrwt>
<totfact> 0.40920646E+04</totfact>
</mgrwt>
</event>
<event>
 6    1  0.1198667E-001  0.3000000E+03  0.7818608E-02  0.1093470E+00
         21   -1    0    0  501  502  0.00000000000E+00  0.00000000000E+00  0.10566281433E+01  0.10566281433E+01  0.00000000000E+00 0. -1.
         13   -1    0    0    0    0 -0.00000000000E+00 -0.00000000000E+00 -0.10000000000E+04  0.10000000000E+04  0.00000000000E+00 0.  1.
    9000005    2    1    2  501    0  0.31955546756E+02  0.46691118809E+01 -0.55151400207E+03  0.55246327273E+03  0.22395671161E+01 0.  0.
         13    1    3    3    0    0  0.51554338082E+01  0.68477602528E+00 -0.75673245978E+02  0.75851747328E+02  0.00000000000E+00 0.  1.
          1    1    3    3  501    0  0.26800112948E+02  0.39843358556E+01 -0.47584075609E+03  0.47661152540E+03  0.00000000000E+00 0.  1.
         -1    1    1    2    0  502 -0.31955546756E+02 -0.46691118809E+01 -0.44742936979E+03  0.44859335541E+03  0.00000000000E+00 0. -1.
<mgrwt>
<rscale>  1 0.30000000E+03</rscale>
<asrwt>0</asrwt>
<pdfrwt beam="1">  1       21 0.38422923E-02 0.30000000E+03</pdfrwt>
<pdfrwt beam="2">0</pdfrwt>
<totfact> 0.44991406E+04</totfact>
</mgrwt>
</event>
<event>
 6    1  0.1198667E-001  0.3000000E+03  0.7818608E-02  0.1093470E+00
         21   -1    0    0  501  502  0.00000000000E+00  0.00000000000E+00  0.12273242367E+01  0.12273242367E+01  0.00000000000E+00 0. -1.
         13   -1    0    0    0    0 -0.00000000000E+00 -0.00000000000E+00 -0.10000000000E+04  0.10000000000E+04  0.00000000000E+00 0.  1.
    9000005    2    1    2  501    0 -0.33846095778E+02 -0.73268338605E+01 -0.43305543042E+03  0.43445114056E+03  0.33980923629E+01 0.  0.
         13    1    3    3    0    0 -0.17531527063E+02 -0.28961186526E+01 -0.20373411914E+03  0.20450753836E+03  0.00000000000E+00 0.  1.
          3    1    3    3  501    0 -0.16314568715E+02 -0.44307152079E+01 -0.22932131128E+03  0.22994360220E+03  0.00000000000E+00 0.  1.
         -1    1    1    2    0  502  0.33846095778E+02  0.73268338605E+01 -0.56571724535E+03  0.56677618367E+03  0.00000000000E+00 0. -1.
<mgrwt>
<rscale>  1 0.30000000E+03</rscale>
<asrwt>0</asrwt>
<pdfrwt beam="1">  1       21 0.44630066E-02 0.30000000E+03</pdfrwt>
<pdfrwt beam="2">0</pdfrwt>
<totfact> 0.34944096E+04</totfact>
</mgrwt>
</event>
<event>
 6    1  0.1198667E-001  0.3000000E+03  0.7818608E-02  0.1093470E+00
         21   -1    0    0  501  502  0.00000000000E+00  0.00000000000E+00  0.12249218466E+01  0.12249218466E+01  0.00000000000E+00 0. -1.
         13   -1    0    0    0    0 -0.00000000000E+00 -0.00000000000E+00 -0.10000000000E+04  0.10000000000E+04  0.00000000000E+00 0.  1.
    9000005    2    1    2  501    0 -0.34315193920E+02 -0.52535920096E+01 -0.55502506907E+03  0.55611908800E+03  0.32372795836E+01 0.  0.
         13    1    3    3    0    0 -0.27254500653E+02 -0.36945798433E+01 -0.45786804131E+03  0.45869336270E+03  0.00000000000E+00 0.  1.
          1    1    3    3  501    0 -0.70606932663E+01 -0.15590121663E+01 -0.97157027760E+02  0.97425725307E+02  0.00000000000E+00 0.  1.
         -1    1    1    2    0  502  0.34315193920E+02  0.52535920096E+01 -0.44375000908E+03  0.44510583384E+03  0.00000000000E+00 0. -1.
<mgrwt>
<rscale>  1 0.30000000E+03</rscale>
<asrwt>0</asrwt>
<pdfrwt beam="1">  1       21 0.44542707E-02 0.30000000E+03</pdfrwt>
<pdfrwt beam="2">0</pdfrwt>
<totfact> 0.35060387E+04</totfact>
</mgrwt>
</event>
<event>
 6    1  0.1198667E-001  0.3000000E+03  0.7818608E-02  0.1093470E+00
         21   -1    0    0  501  502  0.00000000000E+00  0.00000000000E+00  0.11276252366E+01  0.11276252366E+01  0.00000000000E+00 0. -1.
         13   -1    0    0    0    0 -0.00000000000E+00 -0.00000000000E+00 -0.10000000000E+04  0.10000000000E+04  0.00000000000E+00 0.  1.
    9000005    2    1    2  501    0  0.30177723763E+02 -0.91262854029E+01 -0.66869983264E+03  0.66945324927E+03  0.37686464895E+01 0.  0.
         13    1    3    3    0    0  0.12179144617E+02 -0.41836474435E+01 -0.31154635465E+03  0.31181238841E+03  0.00000000000E+00 0.  1.
          3    1    3    3  501    0  0.17998579147E+02 -0.49426379594E+01 -0.35715347798E+03  0.35764086086E+03  0.00000000000E+00 0.  1.
         -3    1    1    2    0  502 -0.30177723763E+02  0.91262854029E+01 -0.33017254213E+03  0.33167437597E+03  0.00000000000E+00 0. -1.
<mgrwt>
<rscale>  1 0.30000000E+03</rscale>
<asrwt>0</asrwt>
<pdfrwt beam="1">  1       21 0.41004641E-02 0.30000000E+03</pdfrwt>
<pdfrwt beam="2">0</pdfrwt>
<totfact> 0.40325939E+04</totfact>
</mgrwt>
</event>
<event>
 6    1  0.1198667E-001  0.3000000E+03  0.7818608E-02  0.1093470E+00
         21   -1    0    0  501  502  0.00000000000E+00  0.00000000000E+00  0.13395863991E+01  0.13395863991E+01  0.00000000000E+00 0. -1.
         13   -1    0    0    0    0 -0.00000000000E+00 -0.00000000000E+00 -0.10000000000E+04  0.10000000000E+04  0.00000000000E+00 0.  1.
    9000005    2    1    2  501    0 -0.33838314656E+02  0.70260497788E+01 -0.66211865458E+03  0.66302796602E+03  0.32517804342E+01 0.  0.
         13    1    3    3    0    0 -0.98223947556E+01  0.33409860406E+01 -0.21313116754E+03  0.21338354248E+03  0.00000000000E+00 0.  1.
          3    1    3    3  501    0 -0.24015919901E+02  0.36850637382E+01 -0.44898748704E+03  0.44964442354E+03  0.00000000000E+00 0.  1.
         -1    1    1    2    0  502  0.33838314656E+02 -0.70260497788E+01 -0.33654175903E+03  0.33831162038E+03  0.00000000000E+00 0. -1.
<mgrwt>
<rscale>  1 0.30000000E+03</rscale>
<asrwt>0</asrwt>
<pdfrwt beam="1">  1       21 0.48712335E-02 0.30000000E+03</pdfrwt>
<pdfrwt beam="2">0</pdfrwt>
<totfact> 0.30113904E+04</totfact>
</mgrwt>
</event>
<event>
 6    1  0.1198667E-001  0.3000000E+03  0.7818608E-02  0.1093470E+00
         21   -1    0    0  501  502  0.00000000000E+00  0.00000000000E+00  0.21175196164E+01  0.21175196164E+01  0.00000000000E+00 0. -1.
         13   -1    0    0    0    0 -0.00000000000E+00 -0.00000000000E+00 -0.10000000000E+04  0.10000000000E+04  0.00000000000E+00 0.  1.
    9000005    2    1    2  501    0  0.34175273710E+02  0.31896365534E+01 -0.17422732499E+03  0.17774749461E+03  0.78030733794E+01 0.  0.
         13    1    3    3    0    0  0.19189153325E+01  0.15573886924E+01 -0.21560572234E+02  0.21701750405E+02  0.00000000000E+00 0.  1.
          3    1    3    3  501    0  0.32256358378E+02  0.16322478611E+01 -0.15266675275E+03  0.15604574421E+03  0.00000000000E+00 0.  1.
         -3    1    1    2    0  502 -0.34175273710E+02 -0.31896365534E+01 -0.82365515540E+03  0.82437002501E+03  0.00000000000E+00 0. -1.
<mgrwt>
<rscale>  1 0.30000000E+03</rscale>
<asrwt>0</asrwt>
<pdfrwt beam="1">  1       21 0.77000876E-02 0.30000000E+03</pdfrwt>
<pdfrwt beam="2">0</pdfrwt>
<totfact> 0.13659656E+04</totfact>
</mgrwt>
</event>
<event>
 6    1  0.1198667E-001  0.3000000E+03  0.7818608E-02  0.1093470E+00
         21   -1    0    0  501  502  0.00000000000E+00  0.00000000000E+00  0.19603768791E+01  0.19603768791E+01  0.00000000000E+00 0. -1.
         13   -1    0    0    0    0 -0.00000000000E+00 -0.00000000000E+00 -0.10000000000E+04  0.10000000000E+04  0.00000000000E+00 0.  1.
    9000005    2    1    2  501    0  0.29412020484E+02  0.25281013306E+02 -0.73998049932E+03  0.74100308543E+03  0.31994784774E+01 0.  0.
         13    1    3    3    0    0  0.19599131794E+02  0.15662433446E+02 -0.45404925525E+03  0.45474186522E+03  0.00000000000E+00 0.  1.
          1    1    3    3  501    0  0.98128886899E+01  0.96185798598E+01 -0.28593124407E+03  0.28626122022E+03  0.00000000000E+00 0.  1.
         -3    1    1    2    0  502 -0.29412020484E+02 -0.25281013306E+02 -0.25805912380E+03  0.26095729145E+03  0.00000000000E+00 0. -1.
<mgrwt>
<rscale>  1 0.30000000E+03</rscale>
<asrwt>0</asrwt>
<pdfrwt beam="1">  1       21 0.71286582E-02 0.30000000E+03</pdfrwt>
<pdfrwt beam="2">0</pdfrwt>
<totfact> 0.15631502E+04</totfact>
</mgrwt>
</event>
<event>
 6    1  0.1198667E-001  0.3000000E+03  0.7818608E-02  0.1093470E+00
         21   -1    0    0  501  502  0.00000000000E+00  0.00000000000E+00  0.27585098999E+01  0.27585098999E+01  0.00000000000E+00 0. -1.
         13   -1    0    0    0    0 -0.00000000000E+00 -0.00000000000E+00 -0.10000000000E+04  0.10000000000E+04  0.00000000000E+00 0.  1.
    9000005    2    1    2  501    0  0.11043698230E+02  0.48133170986E+02 -0.66842420949E+03  0.67025351828E+03  0.31764010851E+01 0.  0.
         13    1    3    3    0    0  0.90057630630E+01  0.40768473358E+02 -0.57903439328E+03  0.58053768249E+03  0.00000000000E+00 0.  1.
          1    1    3    3  501    0  0.20379351672E+01  0.73646976280E+01 -0.89389816206E+02  0.89715835794E+02  0.00000000000E+00 0.  1.
         -1    1    1    2    0  502 -0.11043698230E+02 -0.48133170986E+02 -0.32881728061E+03  0.33250499162E+03  0.00000000000E+00 0. -1.
<mgrwt>
<rscale>  1 0.30000000E+03</rscale>
<asrwt>0</asrwt>
<pdfrwt beam="1">  1       21 0.10030966E-01 0.30000000E+03</pdfrwt>
<pdfrwt beam="2">0</pdfrwt>
<totfact> 0.85557950E+03</totfact>
</mgrwt>
</event>
<event>
 6    1  0.1198667E-001  0.3000000E+03  0.7818608E-02  0.1093470E+00
         21   -1    0    0  501  502  0.00000000000E+00  0.00000000000E+00  0.33315105281E+01  0.33315105281E+01  0.00000000000E+00 0. -1.
         13   -1    0    0    0    0 -0.00000000000E+00 -0.00000000000E+00 -0.10000000000E+04  0.10000000000E+04  0.00000000000E+00 0.  1.
    9000005    2    1    2  501    0 -0.17957365404E+02  0.49021201825E+02 -0.28572234518E+03  0.29047109973E+03  0.32643593919E+01 0.  0.
         13    1    3    3    0    0 -0.11961463158E+02  0.35966459246E+02 -0.20205393656E+03  0.20557834534E+03  0.00000000000E+00 0.  1.
          3    1    3    3  501    0 -0.59959022465E+01  0.13054742578E+02 -0.83668408614E+02  0.84892754388E+02  0.00000000000E+00 0.  1.
         -3    1    1    2    0  502  0.17957365404E+02 -0.49021201825E+02 -0.71094614429E+03  0.71286041080E+03  0.00000000000E+00 0. -1.
<mgrwt>
<rscale>  1 0.30000000E+03</rscale>
<asrwt>0</asrwt>
<pdfrwt beam="1">  1       21 0.12114609E-01 0.30000000E+03</pdfrwt>
<pdfrwt beam="2">0</pdfrwt>
<totfact> 0.60910674E+03</totfact>
</mgrwt>
</event>
<event>
 6    1  0.1198667E-001  0.3000000E+03  0.7818608E-02  0.1093470E+00
         21   -1    0    0  501  502  0.00000000000E+00  0.00000000000E+00  0.50318322352E+01  0.50318322352E+01  0.00000000000E+00 0. -1.
         13   -1    0    0    0    0 -0.00000000000E+00 -0.00000000000E+00 -0.10000000000E+04  0.10000000000E+04  0.00000000000E+00 0.  1.
    9000005    2    1    2  501    0 -0.67184960497E+02  0.13411984859E+02 -0.36876952734E+03  0.37509656769E+03  0.35735891207E+01 0.  0.
         13    1    3    3    0    0 -0.50660218484E+01  0.19904078048E+01 -0.29641984260E+02  0.30137576735E+02  0.00000000000E+00 0.  1.
          1    1    3    3  501    0 -0.62118938649E+02  0.11421577054E+02 -0.33912754308E+03  0.34495899095E+03  0.00000000000E+00 0.  1.
         -1    1    1    2    0  502  0.67184960497E+02 -0.13411984859E+02 -0.62619864042E+03  0.62993526455E+03  0.00000000000E+00 0. -1.
<mgrwt>
<rscale>  1 0.30000000E+03</rscale>
<asrwt>0</asrwt>
<pdfrwt beam="1">  1       21 0.18297610E-01 0.30000000E+03</pdfrwt>
<pdfrwt beam="2">0</pdfrwt>
<totfact> 0.28403758E+03</totfact>
</mgrwt>
</event>
<event>
 6    1  0.1198667E-001  0.3000000E+03  0.7818608E-02  0.1093470E+00
         21   -1    0    0  501  502  0.00000000000E+00  0.00000000000E+00  0.15725994814E+01  0.15725994814E+01  0.00000000000E+00 0. -1.
         13   -1    0    0    0    0 -0.00000000000E+00 -0.00000000000E+00 -0.10000000000E+04  0.10000000000E+04  0.00000000000E+00 0.  1.
    9000005    2    1    2  501    0  0.18761427317E+02 -0.26045229416E+02 -0.78625177099E+03  0.78698265820E+03  0.10932145416E+02 0.  0.
         13    1    3    3    0    0  0.10323819852E+02 -0.18531814364E+02 -0.61027698675E+03  0.61064556820E+03  0.00000000000E+00 0.  1.
          1    1    3    3  501    0  0.84376074643E+01 -0.75134150523E+01 -0.17597478423E+03  0.17633709000E+03  0.00000000000E+00 0.  1.
         -3    1    1    2    0  502 -0.18761427317E+02  0.26045229416E+02 -0.21217562953E+03  0.21458994128E+03  0.00000000000E+00 0. -1.
<mgrwt>
<rscale>  1 0.30000000E+03</rscale>
<asrwt>0</asrwt>
<pdfrwt beam="1">  1       21 0.57185556E-02 0.30000000E+03</pdfrwt>
<pdfrwt beam="2">0</pdfrwt>
<totfact> 0.22889961E+04</totfact>
</mgrwt>
</event>
<event>
 6    1  0.1198667E-001  0.3000000E+03  0.7818608E-02  0.1093470E+00
         21   -1    0    0  501  502  0.00000000000E+00  0.00000000000E+00  0.95940145250E+00  0.95940145250E+00  0.00000000000E+00 0. -1.
         13   -1    0    0    0    0 -0.00000000000E+00 -0.00000000000E+00 -0.10000000000E+04  0.10000000000E+04  0.00000000000E+00 0.  1.
    9000005    2    1    2  501    0  0.44899156473E+01  0.30176463424E+02 -0.57652652550E+03  0.57734528434E+03  0.37369059471E+01 0.  0.
         13    1    3    3    0    0 -0.38224039754E+00  0.89275969982E+01 -0.16596275217E+03  0.16620313837E+03  0.00000000000E+00 0.  1.
          3    1    3    3  501    0  0.48721560449E+01  0.21248866426E+02 -0.41056377332E+03  0.41114214597E+03  0.00000000000E+00 0.  1.
         -3    1    1    2    0  502 -0.44899156473E+01 -0.30176463424E+02 -0.42251407305E+03  0.42361411711E+03  0.00000000000E+00 0. -1.
<mgrwt>
<rscale>  1 0.30000000E+03</rscale>
<asrwt>0</asrwt>
<pdfrwt beam="1">  1       21 0.34887399E-02 0.30000000E+03</pdfrwt>
<pdfrwt beam="2">0</pdfrwt>
<totfact> 0.52901447E+04</totfact>
</mgrwt>
</event>
<event>
 6    1  0.1198667E-001  0.3000000E+03  0.7818608E-02  0.1093470E+00
         21   -1    0    0  501  502  0.00000000000E+00  0.00000000000E+00  0.17848150850E+01  0.17848150850E+01  0.00000000000E+00 0. -1.
         13   -1    0    0    0    0 -0.00000000000E+00 -0.00000000000E+00 -0.10000000000E+04  0.10000000000E+04  0.00000000000E+00 0.  1.
    9000005    2    1    2  501    0 -0.37343245149E+02 -0.19450566083E+02 -0.52737836255E+03  0.52906909102E+03  0.36501112940E+01 0.  0.
         13    1    3    3    0    0 -0.48249111748E+01 -0.31501129822E+01 -0.59196920052E+02  0.59476704039E+02  0.00000000000E+00 0.  1.
          1    1    3    3  501    0 -0.32518333975E+02 -0.16300453101E+02 -0.46818144250E+03  0.46959238698E+03  0.00000000000E+00 0.  1.
         -1    1    1    2    0  502  0.37343245149E+02  0.19450566083E+02 -0.47083682237E+03  0.47271572406E+03  0.00000000000E+00 0. -1.
<mgrwt>
<rscale>  1 0.30000000E+03</rscale>
<asrwt>0</asrwt>
<pdfrwt beam="1">  1       21 0.64902504E-02 0.30000000E+03</pdfrwt>
<pdfrwt beam="2">0</pdfrwt>
<totfact> 0.18397796E+04</totfact>
</mgrwt>
</event>
<event>
 6    1  0.1198667E-001  0.3000000E+03  0.7818608E-02  0.1093470E+00
         21   -1    0    0  501  502  0.00000000000E+00  0.00000000000E+00  0.16714906234E+01  0.16714906234E+01  0.00000000000E+00 0. -1.
         13   -1    0    0    0    0 -0.00000000000E+00 -0.00000000000E+00 -0.10000000000E+04  0.10000000000E+04  0.00000000000E+00 0.  1.
    9000005    2    1    2  501    0  0.27057571382E+02 -0.25638435518E+02 -0.69985869372E+03  0.70088307262E+03  0.67415702538E+01 0.  0.
         13    1    3    3    0    0  0.82374512926E+01 -0.39386455223E+01 -0.17997274079E+03  0.18020420628E+03  0.00000000000E+00 0.  1.
          3    1    3    3  501    0  0.18820120089E+02 -0.21699789995E+02 -0.51988595292E+03  0.52067886634E+03  0.00000000000E+00 0.  1.
         -1    1    1    2    0  502 -0.27057571382E+02  0.25638435518E+02 -0.29846981566E+03  0.30078841800E+03  0.00000000000E+00 0. -1.
<mgrwt>
<rscale>  1 0.30000000E+03</rscale>
<asrwt>0</asrwt>
<pdfrwt beam="1">  1       21 0.60781605E-02 0.30000000E+03</pdfrwt>
<pdfrwt beam="2">0</pdfrwt>
<totfact> 0.20606406E+04</totfact>
</mgrwt>
</event>
<event>
 6    1  0.1198667E-001  0.3000000E+03  0.7818608E-02  0.1093470E+00
         21   -1    0    0  501  502  0.00000000000E+00  0.00000000000E+00  0.14777395331E+01  0.14777395331E+01  0.00000000000E+00 0. -1.
         13   -1    0    0    0    0 -0.00000000000E+00 -0.00000000000E+00 -0.10000000000E+04  0.10000000000E+04  0.00000000000E+00 0.  1.
    9000005    2    1    2  501    0  0.23045379884E+02 -0.19380207326E+02 -0.80991201741E+03  0.81047903337E+03  0.34793127072E+01 0.  0.
         13    1    3    3    0    0  0.17103013554E+02 -0.12588591522E+02 -0.54637083538E+03  0.54678338990E+03  0.00000000000E+00 0.  1.
          1    1    3    3  501    0  0.59423663301E+01 -0.67916158044E+01 -0.26354118203E+03  0.26369564348E+03  0.00000000000E+00 0.  1.
         -1    1    1    2    0  502 -0.23045379884E+02  0.19380207326E+02 -0.18861024305E+03  0.19099870616E+03  0.00000000000E+00 0. -1.
<mgrwt>
<rscale>  1 0.30000000E+03</rscale>
<asrwt>0</asrwt>
<pdfrwt beam="1">  1       21 0.53736096E-02 0.30000000E+03</pdfrwt>
<pdfrwt beam="2">0</pdfrwt>
<totfact> 0.25468628E+04</totfact>
</mgrwt>
</event>
<event>
 6    1  0.1198667E-001  0.3000000E+03  0.7818608E-02  0.1093470E+00
         21   -1    0    0  501  502  0.00000000000E+00  0.00000000000E+00  0.16239061962E+01  0.16239061962E+01  0.00000000000E+00 0. -1.
         13   -1    0    0    0    0 -0.00000000000E+00 -0.00000000000E+00 -0.10000000000E+04  0.10000000000E+04  0.00000000000E+00 0.  1.
    9000005    2    1    2  501    0  0.26160735146E+02  0.20335136684E+02 -0.78360941203E+03  0.78431622238E+03  0.32131312117E+01 0.  0.
         13    1    3    3    0    0  0.22203855248E+02  0.18252953604E+02 -0.65877626230E+03  0.65940302189E+03  0.00000000000E+00 0.  1.
          3    1    3    3  501    0  0.39568798977E+01  0.20821830802E+01 -0.12483314973E+03  0.12491320049E+03  0.00000000000E+00 0.  1.
         -1    1    1    2    0  502 -0.26160735146E+02 -0.20335136684E+02 -0.21476668177E+03  0.21730768382E+03  0.00000000000E+00 0. -1.
<mgrwt>
<rscale>  1 0.30000000E+03</rscale>
<asrwt>0</asrwt>
<pdfrwt beam="1">  1       21 0.59051259E-02 0.30000000E+03</pdfrwt>
<pdfrwt beam="2">0</pdfrwt>
<totfact> 0.21658747E+04</totfact>
</mgrwt>
</event>
<event>
 6    1  0.1198667E-001  0.3000000E+03  0.7818608E-02  0.1093470E+00
         21   -1    0    0  501  502  0.00000000000E+00  0.00000000000E+00  0.13630321883E+01  0.13630321883E+01  0.00000000000E+00 0. -1.
         13   -1    0    0    0    0 -0.00000000000E+00 -0.00000000000E+00 -0.10000000000E+04  0.10000000000E+04  0.00000000000E+00 0.  1.
    9000005    2    1    2  501    0 -0.16861768928E+02  0.32527306004E+02 -0.45063873139E+03  0.45214139022E+03  0.37716882646E+01 0.  0.
         13    1    3    3    0    0 -0.10339409888E+02  0.21915771553E+02 -0.31597832220E+03  0.31690614469E+03  0.00000000000E+00 0.  1.
          3    1    3    3  501    0 -0.65223590401E+01  0.10611534450E+02 -0.13466040919E+03  0.13523524554E+03  0.00000000000E+00 0.  1.
         -3    1    1    2    0  502  0.16861768928E+02 -0.32527306004E+02 -0.54799823642E+03  0.54922164197E+03  0.00000000000E+00 0. -1.
<mgrwt>
<rscale>  1 0.30000000E+03</rscale>
<asrwt>0</asrwt>
<pdfrwt beam="1">  1       21 0.49564911E-02 0.30000000E+03</pdfrwt>
<pdfrwt beam="2">0</pdfrwt>
<totfact> 0.29236937E+04</totfact>
</mgrwt>
</event>
<event>
 6    1  0.1198667E-001  0.3000000E+03  0.7818608E-02  0.1093470E+00
         21   -1    0    0  501  502  0.00000000000E+00  0.00000000000E+00  0.11017793549E+01  0.11017793549E+01  0.00000000000E+00 0. -1.
         13   -1    0    0    0    0 -0.00000000000E+00 -0.00000000000E+00 -0.10000000000E+04  0.10000000000E+04  0.00000000000E+00 0.  1.
    9000005    2    1    2  501    0  0.23860584866E+02  0.21932623759E+02 -0.39974562813E+03  0.40107328285E+03  0.35837850588E+01 0.  0.
         13    1    3    3    0    0  0.15869654909E+02  0.12620323444E+02 -0.23706447472E+03  0.23792999745E+03  0.00000000000E+00 0.  1.
          3    1    3    3  501    0  0.79909299567E+01  0.93123003150E+01 -0.16268115341E+03  0.16314328541E+03  0.00000000000E+00 0.  1.
         -1    1    1    2    0  502 -0.23860584866E+02 -0.21932623759E+02 -0.59915259251E+03  0.60002849650E+03  0.00000000000E+00 0. -1.
<mgrwt>
<rscale>  1 0.30000000E+03</rscale>
<asrwt>0</asrwt>
<pdfrwt beam="1">  1       21 0.40064788E-02 0.30000000E+03</pdfrwt>
<pdfrwt beam="2">0</pdfrwt>
<totfact> 0.41932878E+04</totfact>
</mgrwt>
</event>
<event>
 6    1  0.1198667E-001  0.3000000E+03  0.7818608E-02  0.1093470E+00
         21   -1    0    0  501  502  0.00000000000E+00  0.00000000000E+00  0.10385396544E+01  0.10385396544E+01  0.00000000000E+00 0. -1.
         13   -1    0    0    0    0 -0.00000000000E+00 -0.00000000000E+00 -0.10000000000E+04  0.10000000000E+04  0.00000000000E+00 0.  1.
    9000005    2    1    2  501    0  0.23438766242E+02  0.21967392157E+02 -0.51164151272E+03  0.51266094656E+03  0.35023577896E+01 0.  0.
         13    1    3    3    0    0  0.14976634412E+02  0.15745999551E+02 -0.36141245233E+03  0.36206518305E+03  0.00000000000E+00 0.  1.
          1    1    3    3  501    0  0.84621318302E+01  0.62213926062E+01 -0.15022906039E+03  0.15059576351E+03  0.00000000000E+00 0.  1.
         -1    1    1    2    0  502 -0.23438766242E+02 -0.21967392157E+02 -0.48731994763E+03  0.48837759310E+03  0.00000000000E+00 0. -1.
<mgrwt>
<rscale>  1 0.30000000E+03</rscale>
<asrwt>0</asrwt>
<pdfrwt beam="1">  1       21 0.37765158E-02 0.30000000E+03</pdfrwt>
<pdfrwt beam="2">0</pdfrwt>
<totfact> 0.46315926E+04</totfact>
</mgrwt>
</event>
<event>
 6    1  0.1198667E-001  0.3000000E+03  0.7818608E-02  0.1093470E+00
         21   -1    0    0  501  502  0.00000000000E+00  0.00000000000E+00  0.15395671820E+01  0.15395671820E+01  0.00000000000E+00 0. -1.
         13   -1    0    0    0    0 -0.00000000000E+00 -0.00000000000E+00 -0.10000000000E+04  0.10000000000E+04  0.00000000000E+00 0.  1.
    9000005    2    1    2  501    0 -0.16502946425E+02  0.31167247333E+02 -0.71767450083E+03  0.71854754583E+03  0.31846394502E+01 0.  0.
         13    1    3    3    0    0 -0.63209104242E+00  0.29106144717E+01 -0.53573564723E+02  0.53656295557E+02  0.00000000000E+00 0.  1.
          3    1    3    3  501    0 -0.15870855383E+02  0.28256632861E+02 -0.66410093610E+03  0.66489125027E+03  0.00000000000E+00 0.  1.
         -3    1    1    2    0  502  0.16502946425E+02 -0.31167247333E+02 -0.28078593199E+03  0.28299202136E+03  0.00000000000E+00 0. -1.
<mgrwt>
<rscale>  1 0.30000000E+03</rscale>
<asrwt>0</asrwt>
<pdfrwt beam="1">  1       21 0.55984379E-02 0.30000000E+03</pdfrwt>
<pdfrwt beam="2">0</pdfrwt>
<totfact> 0.23740430E+04</totfact>
</mgrwt>
</event>
<event>
 6    1  0.1198667E-001  0.3000000E+03  0.7818608E-02  0.1093470E+00
         21   -1    0    0  501  502  0.00000000000E+00  0.00000000000E+00  0.12728307521E+01  0.12728307521E+01  0.00000000000E+00 0. -1.
         13   -1    0    0    0    0 -0.00000000000E+00 -0.00000000000E+00 -0.10000000000E+04  0.10000000000E+04  0.00000000000E+00 0.  1.
    9000005    2    1    2  501    0  0.24033523558E+02  0.21170418822E+02 -0.28263884620E+03  0.28446861530E+03  0.34465664494E+01 0.  0.
         13    1    3    3    0    0  0.88814865881E+01  0.57926545973E+01 -0.97985625794E+02  0.98557691296E+02  0.00000000000E+00 0.  1.
          1    1    3    3  501    0  0.15152036970E+02  0.15377764225E+02 -0.18465322041E+03  0.18591092401E+03  0.00000000000E+00 0.  1.
         -1    1    1    2    0  502 -0.24033523558E+02 -0.21170418822E+02 -0.71608832304E+03  0.71680421545E+03  0.00000000000E+00 0. -1.
<mgrwt>
<rscale>  1 0.30000000E+03</rscale>
<asrwt>0</asrwt>
<pdfrwt beam="1">  1       21 0.46284852E-02 0.30000000E+03</pdfrwt>
<pdfrwt beam="2">0</pdfrwt>
<totfact> 0.32849401E+04</totfact>
</mgrwt>
</event>
<event>
 6    1  0.1198667E-001  0.3000000E+03  0.7818608E-02  0.1093470E+00
         21   -1    0    0  501  502  0.00000000000E+00  0.00000000000E+00  0.24323925778E+02  0.24323925778E+02  0.00000000000E+00 0. -1.
         13   -1    0    0    0    0 -0.00000000000E+00 -0.00000000000E+00 -0.10000000000E+04  0.10000000000E+04  0.00000000000E+00 0.  1.
    9000005    2    1    2  501    0 -0.10535502653E+03  0.11535854175E+02 -0.86352614831E+03  0.87001785516E+03  0.45718637896E+01 0.  0.
         13    1    3    3    0    0 -0.98227102826E+02  0.97748186029E+01 -0.80868815111E+03  0.81469051581E+03  0.00000000000E+00 0.  1.
          1    1    3    3  501    0 -0.71279237067E+01  0.17610355716E+01 -0.54837997194E+02  0.55327339344E+02  0.00000000000E+00 0.  1.
         -1    1    1    2    0  502  0.10535502653E+03 -0.11535854175E+02 -0.11214992592E+03  0.15430607062E+03  0.00000000000E+00 0. -1.
<mgrwt>
<rscale>  1 0.30000000E+03</rscale>
<asrwt>0</asrwt>
<pdfrwt beam="1">  1       21 0.88450826E-01 0.30000000E+03</pdfrwt>
<pdfrwt beam="2">0</pdfrwt>
<totfact> 0.10050972E+02</totfact>
</mgrwt>
</event>
<event>
 6    1  0.1198667E-001  0.3000000E+03  0.7818608E-02  0.1093470E+00
         21   -1    0    0  501  502  0.00000000000E+00  0.00000000000E+00  0.15301341384E+01  0.15301341384E+01  0.00000000000E+00 0. -1.
         13   -1    0    0    0    0 -0.00000000000E+00 -0.00000000000E+00 -0.10000000000E+04  0.10000000000E+04  0.00000000000E+00 0.  1.
    9000005    2    1    2  501    0 -0.35661540817E+02 -0.15331846567E+02 -0.55417746508E+03  0.55554521466E+03  0.33183901424E+01 0.  0.
         13    1    3    3    0    0 -0.31537141101E+02 -0.12762609698E+02 -0.49576019433E+03  0.49692619749E+03  0.00000000000E+00 0.  1.
          1    1    3    3  501    0 -0.41243997159E+01 -0.25692368687E+01 -0.58417270754E+02  0.58619017165E+02  0.00000000000E+00 0.  1.
         -3    1    1    2    0  502  0.35661540817E+02  0.15331846567E+02 -0.44429240078E+03  0.44598491948E+03  0.00000000000E+00 0. -1.
<mgrwt>
<rscale>  1 0.30000000E+03</rscale>
<asrwt>0</asrwt>
<pdfrwt beam="1">  1       21 0.55641359E-02 0.30000000E+03</pdfrwt>
<pdfrwt beam="2">0</pdfrwt>
<totfact> 0.23992218E+04</totfact>
</mgrwt>
</event>
<event>
 6    1  0.1198667E-001  0.3000000E+03  0.7818608E-02  0.1093470E+00
         21   -1    0    0  501  502  0.00000000000E+00  0.00000000000E+00  0.32754365803E+01  0.32754365803E+01  0.00000000000E+00 0. -1.
         13   -1    0    0    0    0 -0.00000000000E+00 -0.00000000000E+00 -0.10000000000E+04  0.10000000000E+04  0.00000000000E+00 0.  1.
    9000005    2    1    2  501    0  0.19379881220E+02 -0.23832678698E+02 -0.92155853079E+03  0.92207501274E+03  0.29371896873E+01 0.  0.
         13    1    3    3    0    0  0.17927066437E+02 -0.21418945655E+02 -0.85699632378E+03  0.85745136883E+03  0.00000000000E+00 0.  1.
          3    1    3    3  501    0  0.14528147828E+01 -0.24137330429E+01 -0.64562207014E+02  0.64623643912E+02  0.00000000000E+00 0.  1.
         -1    1    1    2    0  502 -0.19379881220E+02  0.23832678698E+02 -0.75166032629E+02  0.81200423836E+02  0.00000000000E+00 0. -1.
<mgrwt>
<rscale>  1 0.30000000E+03</rscale>
<asrwt>0</asrwt>
<pdfrwt beam="1">  1       21 0.11910704E-01 0.30000000E+03</pdfrwt>
<pdfrwt beam="2">0</pdfrwt>
<totfact> 0.62816633E+03</totfact>
</mgrwt>
</event>
<event>
 6    1  0.1198667E-001  0.3000000E+03  0.7818608E-02  0.1093470E+00
         21   -1    0    0  501  502  0.00000000000E+00  0.00000000000E+00  0.20638871756E+01  0.20638871756E+01  0.00000000000E+00 0. -1.
         13   -1    0    0    0    0 -0.00000000000E+00 -0.00000000000E+00 -0.10000000000E+04  0.10000000000E+04  0.00000000000E+00 0.  1.
    9000005    2    1    2  501    0 -0.28778804673E+02  0.14607628544E+02 -0.85125958716E+03  0.85187864958E+03  0.35702201283E+01 0.  0.
         13    1    3    3    0    0 -0.26713848270E+02  0.12731460642E+02 -0.79371482270E+03  0.79426629007E+03  0.00000000000E+00 0.  1.
          1    1    3    3  501    0 -0.20649564023E+01  0.18761679018E+01 -0.57544764461E+02  0.57612359505E+02  0.00000000000E+00 0.  1.
         -1    1    1    2    0  502  0.28778804673E+02 -0.14607628544E+02 -0.14667652567E+03  0.15018523760E+03  0.00000000000E+00 0. -1.
<mgrwt>
<rscale>  1 0.30000000E+03</rscale>
<asrwt>0</asrwt>
<pdfrwt beam="1">  1       21 0.75050601E-02 0.30000000E+03</pdfrwt>
<pdfrwt beam="2">0</pdfrwt>
<totfact> 0.14287581E+04</totfact>
</mgrwt>
</event>
<event>
 6    1  0.1198667E-001  0.3000000E+03  0.7818608E-02  0.1093470E+00
         21   -1    0    0  501  502  0.00000000000E+00  0.00000000000E+00  0.14738579578E+01  0.14738579578E+01  0.00000000000E+00 0. -1.
         13   -1    0    0    0    0 -0.00000000000E+00 -0.00000000000E+00 -0.10000000000E+04  0.10000000000E+04  0.00000000000E+00 0.  1.
    9000005    2    1    2  501    0  0.32793388165E+02  0.84445343438E+01 -0.73461936747E+03  0.73540337456E+03  0.24066143251E+01 0.  0.
         13    1    3    3    0    0  0.84841665374E+01  0.17234285932E+01 -0.20905442352E+03  0.20923360935E+03  0.00000000000E+00 0.  1.
          3    1    3    3  501    0  0.24309221628E+02  0.67211057506E+01 -0.52556494395E+03  0.52616976522E+03  0.00000000000E+00 0.  1.
         -1    1    1    2    0  502 -0.32793388165E+02 -0.84445343438E+01 -0.26390677457E+03  0.26607048339E+03  0.00000000000E+00 0. -1.
<mgrwt>
<rscale>  1 0.30000000E+03</rscale>
<asrwt>0</asrwt>
<pdfrwt beam="1">  1       21 0.53594948E-02 0.30000000E+03</pdfrwt>
<pdfrwt beam="2">0</pdfrwt>
<totfact> 0.25583548E+04</totfact>
</mgrwt>
</event>
<event>
 6    1  0.1198667E-001  0.3000000E+03  0.7818608E-02  0.1093470E+00
         21   -1    0    0  501  502  0.00000000000E+00  0.00000000000E+00  0.13735797458E+01  0.13735797458E+01  0.00000000000E+00 0. -1.
         13   -1    0    0    0    0 -0.00000000000E+00 -0.00000000000E+00 -0.10000000000E+04  0.10000000000E+04  0.00000000000E+00 0.  1.
    9000005    2    1    2  501    0  0.24187649486E+02  0.22410861237E+02 -0.72637709963E+03  0.72713466626E+03  0.37206078030E+01 0.  0.
         13    1    3    3    0    0  0.18002931419E+02  0.18134233964E+02 -0.53496617251E+03  0.53557610263E+03  0.00000000000E+00 0.  1.
          1    1    3    3  501    0  0.61847180673E+01  0.42766272737E+01 -0.19141092711E+03  0.19155856362E+03  0.00000000000E+00 0.  1.
         -1    1    1    2    0  502 -0.24187649486E+02 -0.22410861237E+02 -0.27224932063E+03  0.27423891349E+03  0.00000000000E+00 0. -1.
<mgrwt>
<rscale>  1 0.30000000E+03</rscale>
<asrwt>0</asrwt>
<pdfrwt beam="1">  1       21 0.49948460E-02 0.30000000E+03</pdfrwt>
<pdfrwt beam="2">0</pdfrwt>
<totfact> 0.28855341E+04</totfact>
</mgrwt>
</event>
<event>
 6    1  0.1198667E-001  0.3000000E+03  0.7818608E-02  0.1093470E+00
         21   -1    0    0  501  502  0.00000000000E+00  0.00000000000E+00  0.14111762967E+01  0.14111762967E+01  0.00000000000E+00 0. -1.
         13   -1    0    0    0    0 -0.00000000000E+00 -0.00000000000E+00 -0.10000000000E+04  0.10000000000E+04  0.00000000000E+00 0.  1.
    9000005    2    1    2  501    0  0.30617856915E+02 -0.47891130895E+01 -0.21793542028E+03  0.22014289649E+03  0.25804443664E+01 0.  0.
         13    1    3    3    0    0  0.20760543901E+02 -0.37097290290E+01 -0.14011823954E+03  0.14169644781E+03  0.00000000000E+00 0.  1.
          3    1    3    3  501    0  0.98573130143E+01 -0.10793840605E+01 -0.77817180749E+02  0.78446448674E+02  0.00000000000E+00 0.  1.
         -3    1    1    2    0  502 -0.30617856915E+02  0.47891130895E+01 -0.78065340342E+03  0.78126827981E+03  0.00000000000E+00 0. -1.
<mgrwt>
<rscale>  1 0.30000000E+03</rscale>
<asrwt>0</asrwt>
<pdfrwt beam="1">  1       21 0.51315610E-02 0.30000000E+03</pdfrwt>
<pdfrwt beam="2">0</pdfrwt>
<totfact> 0.27556334E+04</totfact>
</mgrwt>
</event>
<event>
 6    1  0.1198667E-001  0.3000000E+03  0.7818608E-02  0.1093470E+00
         21   -1    0    0  501  502  0.00000000000E+00  0.00000000000E+00  0.38718195085E+01  0.38718195085E+01  0.00000000000E+00 0. -1.
         13   -1    0    0    0    0 -0.00000000000E+00 -0.00000000000E+00 -0.10000000000E+04  0.10000000000E+04  0.00000000000E+00 0.  1.
    9000005    2    1    2  501    0  0.32939589305E+02 -0.19453963041E+02 -0.89377578555E+03  0.89460386459E+03  0.41768987906E+01 0.  0.
         13    1    3    3    0    0  0.87954449732E+01 -0.40722301563E+01 -0.19215512095E+03  0.19239941116E+03  0.00000000000E+00 0.  1.
          3    1    3    3  501    0  0.24144144332E+02 -0.15381732885E+02 -0.70162066461E+03  0.70220445343E+03  0.00000000000E+00 0.  1.
         -3    1    1    2    0  502 -0.32939589305E+02  0.19453963041E+02 -0.10235239494E+03  0.10926795492E+03  0.00000000000E+00 0. -1.
<mgrwt>
<rscale>  1 0.30000000E+03</rscale>
<asrwt>0</asrwt>
<pdfrwt beam="1">  1       21 0.14079373E-01 0.30000000E+03</pdfrwt>
<pdfrwt beam="2">0</pdfrwt>
<totfact> 0.46283368E+03</totfact>
</mgrwt>
</event>
<event>
 6    1  0.1198667E-001  0.3000000E+03  0.7818608E-02  0.1093470E+00
         21   -1    0    0  501  502  0.00000000000E+00  0.00000000000E+00  0.11486729346E+01  0.11486729346E+01  0.00000000000E+00 0. -1.
         13   -1    0    0    0    0 -0.00000000000E+00 -0.00000000000E+00 -0.10000000000E+04  0.10000000000E+04  0.00000000000E+00 0.  1.
    9000005    2    1    2  501    0 -0.30669849929E+02 -0.13327472792E+01 -0.29208927897E+03  0.29372022529E+03  0.36066528476E+01 0.  0.
         13    1    3    3    0    0 -0.44649930367E+01 -0.90723896573E+00 -0.54376628636E+02  0.54567178663E+02  0.00000000000E+00 0.  1.
          3    1    3    3  501    0 -0.26204856892E+02 -0.42550831343E+00 -0.23771265034E+03  0.23915304663E+03  0.00000000000E+00 0.  1.
         -1    1    1    2    0  502  0.30669849929E+02  0.13327472792E+01 -0.70676204809E+03  0.70742844764E+03  0.00000000000E+00 0. -1.
<mgrwt>
<rscale>  1 0.30000000E+03</rscale>
<asrwt>0</asrwt>
<pdfrwt beam="1">  1       21 0.41770013E-02 0.30000000E+03</pdfrwt>
<pdfrwt beam="2">0</pdfrwt>
<totfact> 0.39087146E+04</totfact>
</mgrwt>
</event>
<event>
 6    1  0.1198667E-001  0.3000000E+03  0.7818608E-02  0.1093470E+00
         21   -1    0    0  501  502  0.00000000000E+00  0.00000000000E+00  0.27706529412E+01  0.27706529412E+01  0.00000000000E+00 0. -1.
         13   -1    0    0    0    0 -0.00000000000E+00 -0.00000000000E+00 -0.10000000000E+04  0.10000000000E+04  0.00000000000E+00 0.  1.
    9000005    2    1    2  501    0 -0.48180156694E+02 -0.66633644980E+01 -0.30882919596E+03  0.31265436133E+03  0.33984483012E+01 0.  0.
         13    1    3    3    0    0 -0.45644812645E+02 -0.59536685289E+01 -0.29599622770E+03  0.29955410513E+03  0.00000000000E+00 0.  1.
          3    1    3    3  501    0 -0.25353440485E+01 -0.70969596908E+00 -0.12832968268E+02  0.13100256196E+02  0.00000000000E+00 0.  1.
         -3    1    1    2    0  502  0.48180156694E+02  0.66633644980E+01 -0.68840015109E+03  0.69011629162E+03  0.00000000000E+00 0. -1.
<mgrwt>
<rscale>  1 0.30000000E+03</rscale>
<asrwt>0</asrwt>
<pdfrwt beam="1">  1       21 0.10075123E-01 0.30000000E+03</pdfrwt>
<pdfrwt beam="2">0</pdfrwt>
<totfact> 0.84888870E+03</totfact>
</mgrwt>
</event>
<event>
 6    1  0.1198667E-001  0.3000000E+03  0.7818608E-02  0.1093470E+00
         21   -1    0    0  501  502  0.00000000000E+00  0.00000000000E+00  0.19399238995E+01  0.19399238995E+01  0.00000000000E+00 0. -1.
         13   -1    0    0    0    0 -0.00000000000E+00 -0.00000000000E+00 -0.10000000000E+04  0.10000000000E+04  0.00000000000E+00 0.  1.
    9000005    2    1    2  501    0  0.12812646009E+02  0.40647284618E+02 -0.37568643633E+03  0.37810876635E+03  0.30943668363E+01 0.  0.
         13    1    3    3    0    0  0.83855364127E+01  0.28416312454E+02 -0.27239316946E+03  0.27399971314E+03  0.00000000000E+00 0.  1.
          3    1    3    3  501    0  0.44271095966E+01  0.12230972164E+02 -0.10329326688E+03  0.10410905321E+03  0.00000000000E+00 0.  1.
         -3    1    1    2    0  502 -0.12812646009E+02 -0.40647284618E+02 -0.62237363977E+03  0.62383115755E+03  0.00000000000E+00 0. -1.
<mgrwt>
<rscale>  1 0.30000000E+03</rscale>
<asrwt>0</asrwt>
<pdfrwt beam="1">  1       21 0.70542836E-02 0.30000000E+03</pdfrwt>
<pdfrwt beam="2">0</pdfrwt>
<totfact> 0.15919750E+04</totfact>
</mgrwt>
</event>
<event>
 6    1  0.1198667E-001  0.3000000E+03  0.7818608E-02  0.1093470E+00
         21   -1    0    0  501  502  0.00000000000E+00  0.00000000000E+00  0.39229079961E+01  0.39229079961E+01  0.00000000000E+00 0. -1.
         13   -1    0    0    0    0 -0.00000000000E+00 -0.00000000000E+00 -0.10000000000E+04  0.10000000000E+04  0.00000000000E+00 0.  1.
    9000005    2    1    2  501    0 -0.43207526715E+02 -0.33165341062E+02 -0.74546621052E+03  0.74746112892E+03  0.33820106084E+01 0.  0.
         13    1    3    3    0    0 -0.96557495434E+01 -0.80925638439E+01 -0.19112307184E+03  0.19153785965E+03  0.00000000000E+00 0.  1.
          3    1    3    3  501    0 -0.33551777171E+02 -0.25072777218E+02 -0.55434313868E+03  0.55592326927E+03  0.00000000000E+00 0.  1.
         -1    1    1    2    0  502  0.43207526715E+02  0.33165341062E+02 -0.25061088148E+03  0.25646177908E+03  0.00000000000E+00 0. -1.
<mgrwt>
<rscale>  1 0.30000000E+03</rscale>
<asrwt>0</asrwt>
<pdfrwt beam="1">  1       21 0.14265150E-01 0.30000000E+03</pdfrwt>
<pdfrwt beam="2">0</pdfrwt>
<totfact> 0.45180666E+03</totfact>
</mgrwt>
</event>
<event>
 6    1  0.1198667E-001  0.3000000E+03  0.7818608E-02  0.1093470E+00
         21   -1    0    0  501  502  0.00000000000E+00  0.00000000000E+00  0.16461956794E+01  0.16461956794E+01  0.00000000000E+00 0. -1.
         13   -1    0    0    0    0 -0.00000000000E+00 -0.00000000000E+00 -0.10000000000E+04  0.10000000000E+04  0.00000000000E+00 0.  1.
    9000005    2    1    2  501    0  0.46520189217E+01  0.33790810850E+02 -0.76960640178E+03  0.77036966348E+03  0.34560915322E+01 0.  0.
         13    1    3    3    0    0  0.33631871190E+01  0.12211777775E+02 -0.28290299781E+03  0.28318641336E+03  0.00000000000E+00 0.  1.
          1    1    3    3  501    0  0.12888318027E+01  0.21579033076E+02 -0.48670340397E+03  0.48718325012E+03  0.00000000000E+00 0.  1.
         -1    1    1    2    0  502 -0.46520189217E+01 -0.33790810850E+02 -0.22874740254E+03  0.23127653220E+03  0.00000000000E+00 0. -1.
<mgrwt>
<rscale>  1 0.30000000E+03</rscale>
<asrwt>0</asrwt>
<pdfrwt beam="1">  1       21 0.59861787E-02 0.30000000E+03</pdfrwt>
<pdfrwt beam="2">0</pdfrwt>
<totfact> 0.21155638E+04</totfact>
</mgrwt>
</event>
<event>
 6    1  0.1198667E-001  0.3000000E+03  0.7818608E-02  0.1093470E+00
         21   -1    0    0  501  502  0.00000000000E+00  0.00000000000E+00  0.27870922968E+01  0.27870922968E+01  0.00000000000E+00 0. -1.
         13   -1    0    0    0    0 -0.00000000000E+00 -0.00000000000E+00 -0.10000000000E+04  0.10000000000E+04  0.00000000000E+00 0.  1.
    9000005    2    1    2  501    0  0.72352211554E+01  0.33961175162E+02 -0.12216276144E+03  0.12704827946E+03  0.34373225275E+01 0.  0.
         13    1    3    3    0    0  0.34745910475E+01  0.23022213556E+02 -0.78602624934E+02  0.81978459039E+02  0.00000000000E+00 0.  1.
          3    1    3    3  501    0  0.37606301080E+01  0.10938961606E+02 -0.43560136509E+02  0.45069820418E+02  0.00000000000E+00 0.  1.
         -3    1    1    2    0  502 -0.72352211554E+01 -0.33961175162E+02 -0.87505014626E+03  0.87573881284E+03  0.00000000000E+00 0. -1.
<mgrwt>
<rscale>  1 0.30000000E+03</rscale>
<asrwt>0</asrwt>
<pdfrwt beam="1">  1       21 0.10134902E-01 0.30000000E+03</pdfrwt>
<pdfrwt beam="2">0</pdfrwt>
<totfact> 0.83995701E+03</totfact>
</mgrwt>
</event>
<event>
 6    1  0.1198667E-001  0.3000000E+03  0.7818608E-02  0.1093470E+00
         21   -1    0    0  501  502  0.00000000000E+00  0.00000000000E+00  0.22380176564E+01  0.22380176564E+01  0.00000000000E+00 0. -1.
         13   -1    0    0    0    0 -0.00000000000E+00 -0.00000000000E+00 -0.10000000000E+04  0.10000000000E+04  0.00000000000E+00 0.  1.
    9000005    2    1    2  501    0 -0.42253093261E+02 -0.76151635767E+01 -0.70863815789E+03  0.70994381574E+03  0.29779330766E+01 0.  0.
         13    1    3    3    0    0 -0.12083846564E+02 -0.23773877317E+01 -0.18197689150E+03  0.18239314779E+03  0.00000000000E+00 0.  1.
          1    1    3    3  501    0 -0.30169246697E+02 -0.52377758451E+01 -0.52666126639E+03  0.52755066795E+03  0.00000000000E+00 0.  1.
         -1    1    1    2    0  502  0.42253093261E+02  0.76151635767E+01 -0.28912382445E+03  0.29229420192E+03  0.00000000000E+00 0. -1.
<mgrwt>
<rscale>  1 0.30000000E+03</rscale>
<asrwt>0</asrwt>
<pdfrwt beam="1">  1       21 0.81382632E-02 0.30000000E+03</pdfrwt>
<pdfrwt beam="2">0</pdfrwt>
<totfact> 0.12394951E+04</totfact>
</mgrwt>
</event>
<event>
 6    1  0.1198667E-001  0.3000000E+03  0.7818608E-02  0.1093470E+00
         21   -1    0    0  501  502  0.00000000000E+00  0.00000000000E+00  0.31637315688E+01  0.31637315688E+01  0.00000000000E+00 0. -1.
         13   -1    0    0    0    0 -0.00000000000E+00 -0.00000000000E+00 -0.10000000000E+04  0.10000000000E+04  0.00000000000E+00 0.  1.
    9000005    2    1    2  501    0 -0.28532900114E+02  0.19937911687E+02 -0.89224607379E+03  0.89293326606E+03  0.38877667496E+01 0.  0.
         13    1    3    3    0    0 -0.16778556628E+02  0.13578303278E+02 -0.57920530720E+03  0.57960734827E+03  0.00000000000E+00 0.  1.
          1    1    3    3  501    0 -0.11754343486E+02  0.63596084088E+01 -0.31304076660E+03  0.31332591780E+03  0.00000000000E+00 0.  1.
         -1    1    1    2    0  502  0.28532900114E+02 -0.19937911687E+02 -0.10459019464E+03  0.11023046551E+03  0.00000000000E+00 0. -1.
<mgrwt>
<rscale>  1 0.30000000E+03</rscale>
<asrwt>0</asrwt>
<pdfrwt beam="1">  1       21 0.11504503E-01 0.30000000E+03</pdfrwt>
<pdfrwt beam="2">0</pdfrwt>
<totfact> 0.66888215E+03</totfact>
</mgrwt>
</event>
<event>
 6    1  0.1198667E-001  0.3000000E+03  0.7818608E-02  0.1093470E+00
         21   -1    0    0  501  502  0.00000000000E+00  0.00000000000E+00  0.10129245336E+01  0.10129245336E+01  0.00000000000E+00 0. -1.
         13   -1    0    0    0    0 -0.00000000000E+00 -0.00000000000E+00 -0.10000000000E+04  0.10000000000E+04  0.00000000000E+00 0.  1.
    9000005    2    1    2  501    0 -0.25097072218E+02  0.17269551025E+02 -0.64078809620E+03  0.64152076999E+03  0.33784135491E+01 0.  0.
         13    1    3    3    0    0 -0.70377934421E+00  0.31899118377E+00 -0.30978800796E+02  0.30988435899E+02  0.00000000000E+00 0.  1.
          3    1    3    3  501    0 -0.24393292874E+02  0.16950559841E+02 -0.60980929540E+03  0.61053233409E+03  0.00000000000E+00 0.  1.
         -1    1    1    2    0  502  0.25097072218E+02 -0.17269551025E+02 -0.35819897927E+03  0.35949215454E+03  0.00000000000E+00 0. -1.
<mgrwt>
<rscale>  1 0.30000000E+03</rscale>
<asrwt>0</asrwt>
<pdfrwt beam="1">  1       21 0.36833697E-02 0.30000000E+03</pdfrwt>
<pdfrwt beam="2">0</pdfrwt>
<totfact> 0.48299230E+04</totfact>
</mgrwt>
</event>
<event>
 6    1  0.1198667E-001  0.3000000E+03  0.7818608E-02  0.1093470E+00
         21   -1    0    0  501  502  0.00000000000E+00  0.00000000000E+00  0.24108647363E+01  0.24108647363E+01  0.00000000000E+00 0. -1.
         13   -1    0    0    0    0 -0.00000000000E+00 -0.00000000000E+00 -0.10000000000E+04  0.10000000000E+04  0.00000000000E+00 0.  1.
    9000005    2    1    2  501    0 -0.32795098562E+02 -0.28684500260E+02 -0.72899153800E+03  0.73030245196E+03  0.38327309182E+01 0.  0.
         13    1    3    3    0    0 -0.19600404541E+02 -0.15207201345E+02 -0.39366610691E+03  0.39444700348E+03  0.00000000000E+00 0.  1.
          1    1    3    3  501    0 -0.13194694021E+02 -0.13477298915E+02 -0.33532543109E+03  0.33585544848E+03  0.00000000000E+00 0.  1.
         -1    1    1    2    0  502  0.32795098562E+02  0.28684500260E+02 -0.26859759727E+03  0.27210841277E+03  0.00000000000E+00 0. -1.
<mgrwt>
<rscale>  1 0.30000000E+03</rscale>
<asrwt>0</asrwt>
<pdfrwt beam="1">  1       21 0.87667993E-02 0.30000000E+03</pdfrwt>
<pdfrwt beam="2">0</pdfrwt>
<totfact> 0.10871600E+04</totfact>
</mgrwt>
</event>
<event>
 6    1  0.1198667E-001  0.3000000E+03  0.7818608E-02  0.1093470E+00
         21   -1    0    0  501  502  0.00000000000E+00  0.00000000000E+00  0.40174621676E+01  0.40174621676E+01  0.00000000000E+00 0. -1.
         13   -1    0    0    0    0 -0.00000000000E+00 -0.00000000000E+00 -0.10000000000E+04  0.10000000000E+04  0.00000000000E+00 0.  1.
    9000005    2    1    2  501    0 -0.75559959441E+01 -0.56373066002E+02 -0.71911333130E+03  0.72136648804E+03  0.32574805344E+01 0.  0.
         13    1    3    3    0    0 -0.64177916238E+01 -0.38946995140E+02 -0.48672101641E+03  0.48831895754E+03  0.00000000000E+00 0.  1.
          1    1    3    3  501    0 -0.11382043203E+01 -0.17426070862E+02 -0.23239231488E+03  0.23304753050E+03  0.00000000000E+00 0.  1.
         -3    1    1    2    0  502  0.75559959441E+01  0.56373066002E+02 -0.27686920654E+03  0.28265097412E+03  0.00000000000E+00 0. -1.
<mgrwt>
<rscale>  1 0.30000000E+03</rscale>
<asrwt>0</asrwt>
<pdfrwt beam="1">  1       21 0.14608984E-01 0.30000000E+03</pdfrwt>
<pdfrwt beam="2">0</pdfrwt>
<totfact> 0.43240389E+03</totfact>
</mgrwt>
</event>
<event>
 6    1  0.1198667E-001  0.3000000E+03  0.7818608E-02  0.1093470E+00
         21   -1    0    0  501  502  0.00000000000E+00  0.00000000000E+00  0.14661175580E+01  0.14661175580E+01  0.00000000000E+00 0. -1.
         13   -1    0    0    0    0 -0.00000000000E+00 -0.00000000000E+00 -0.10000000000E+04  0.10000000000E+04  0.00000000000E+00 0.  1.
    9000005    2    1    2  501    0 -0.70915260781E+01 -0.32479580632E+02 -0.74674263000E+03  0.74748964678E+03  0.33171811580E+01 0.  0.
         13    1    3    3    0    0 -0.67463541679E+01 -0.31920833768E+02 -0.73874475748E+03  0.73946485354E+03  0.00000000000E+00 0.  1.
          1    1    3    3  501    0 -0.34517191024E+00 -0.55874686473E+00 -0.79978725194E+01  0.80247932399E+01  0.00000000000E+00 0.  1.
         -3    1    1    2    0  502  0.70915260781E+01  0.32479580632E+02 -0.25179125245E+03  0.25397647078E+03  0.00000000000E+00 0. -1.
<mgrwt>
<rscale>  1 0.30000000E+03</rscale>
<asrwt>0</asrwt>
<pdfrwt beam="1">  1       21 0.53313478E-02 0.30000000E+03</pdfrwt>
<pdfrwt beam="2">0</pdfrwt>
<totfact> 0.25815120E+04</totfact>
</mgrwt>
</event>
<event>
 6    1  0.1198667E-001  0.3000000E+03  0.7818608E-02  0.1093470E+00
         21   -1    0    0  501  502  0.00000000000E+00  0.00000000000E+00  0.15116478688E+01  0.15116478688E+01  0.00000000000E+00 0. -1.
         13   -1    0    0    0    0 -0.00000000000E+00 -0.00000000000E+00 -0.10000000000E+04  0.10000000000E+04  0.00000000000E+00 0.  1.
    9000005    2    1    2  501    0 -0.19565454381E+02 -0.30928965776E+02 -0.66608768652E+03  0.66710230226E+03  0.36424748591E+01 0.  0.
         13    1    3    3    0    0 -0.13640782083E+02 -0.23057669353E+02 -0.46037907046E+03  0.46115790742E+03  0.00000000000E+00 0.  1.
          1    1    3    3  501    0 -0.59246722980E+01 -0.78712964225E+01 -0.20570861605E+03  0.20594439484E+03  0.00000000000E+00 0.  1.
         -3    1    1    2    0  502  0.19565454381E+02  0.30928965776E+02 -0.33240066562E+03  0.33440934561E+03  0.00000000000E+00 0. -1.
<mgrwt>
<rscale>  1 0.30000000E+03</rscale>
<asrwt>0</asrwt>
<pdfrwt beam="1">  1       21 0.54969129E-02 0.30000000E+03</pdfrwt>
<pdfrwt beam="2">0</pdfrwt>
<totfact> 0.24497721E+04</totfact>
</mgrwt>
</event>
<event>
 6    1  0.1198667E-001  0.3000000E+03  0.7818608E-02  0.1093470E+00
         21   -1    0    0  501  502  0.00000000000E+00  0.00000000000E+00  0.10998831406E+01  0.10998831406E+01  0.00000000000E+00 0. -1.
         13   -1    0    0    0    0 -0.00000000000E+00 -0.00000000000E+00 -0.10000000000E+04  0.10000000000E+04  0.00000000000E+00 0.  1.
    9000005    2    1    2  501    0  0.21141393147E+02  0.22355316686E+02 -0.68447071795E+03  0.68516861595E+03  0.30248747940E+01 0.  0.
         13    1    3    3    0    0  0.19533978667E+02  0.20553511202E+02 -0.60984906084E+03  0.61050790343E+03  0.00000000000E+00 0.  1.
          3    1    3    3  501    0  0.16074144795E+01  0.18018054834E+01 -0.74621657114E+02  0.74660712525E+02  0.00000000000E+00 0.  1.
         -1    1    1    2    0  502 -0.21141393147E+02 -0.22355316686E+02 -0.31442939891E+03  0.31593126719E+03  0.00000000000E+00 0. -1.
<mgrwt>
<rscale>  1 0.30000000E+03</rscale>
<asrwt>0</asrwt>
<pdfrwt beam="1">  1       21 0.39995835E-02 0.30000000E+03</pdfrwt>
<pdfrwt beam="2">0</pdfrwt>
<totfact> 0.42054698E+04</totfact>
</mgrwt>
</event>
<event>
 6    1  0.1198667E-001  0.3000000E+03  0.7818608E-02  0.1093470E+00
         21   -1    0    0  501  502  0.00000000000E+00  0.00000000000E+00  0.16586580111E+02  0.16586580111E+02  0.00000000000E+00 0. -1.
         13   -1    0    0    0    0 -0.00000000000E+00 -0.00000000000E+00 -0.10000000000E+04  0.10000000000E+04  0.00000000000E+00 0.  1.
    9000005    2    1    2  501    0 -0.71856489429E+02 -0.10206617401E+03 -0.61660195178E+03  0.62911850131E+03  0.33560107039E+01 0.  0.
         13    1    3    3    0    0 -0.58205884146E+02 -0.84727701671E+02 -0.51009514053E+03  0.52034965242E+03  0.00000000000E+00 0.  1.
          3    1    3    3  501    0 -0.13650605283E+02 -0.17338472336E+02 -0.10650681125E+03  0.10876884890E+03  0.00000000000E+00 0.  1.
         -3    1    1    2    0  502  0.71856489429E+02  0.10206617401E+03 -0.36681146811E+03  0.38746807880E+03  0.00000000000E+00 0. -1.
<mgrwt>
<rscale>  1 0.30000000E+03</rscale>
<asrwt>0</asrwt>
<pdfrwt beam="1">  1       21 0.60314964E-01 0.30000000E+03</pdfrwt>
<pdfrwt beam="2">0</pdfrwt>
<totfact> 0.24817164E+02</totfact>
</mgrwt>
</event>
<event>
 6    1  0.1198667E-001  0.3000000E+03  0.7818608E-02  0.1093470E+00
         21   -1    0    0  501  502  0.00000000000E+00  0.00000000000E+00  0.22776693820E+01  0.22776693820E+01  0.00000000000E+00 0. -1.
         13   -1    0    0    0    0 -0.00000000000E+00 -0.00000000000E+00 -0.10000000000E+04  0.10000000000E+04  0.00000000000E+00 0.  1.
    9000005    2    1    2  501    0  0.32096945983E+02  0.31750323093E+02 -0.33931398864E+03  0.34232324539E+03  0.35950648083E+01 0.  0.
         13    1    3    3    0    0  0.88392992912E+01  0.70200905683E+01 -0.77632799163E+02  0.78449132496E+02  0.00000000000E+00 0.  1.
          3    1    3    3  501    0  0.23257646692E+02  0.24730232525E+02 -0.26168118948E+03  0.26387411290E+03  0.00000000000E+00 0.  1.
         -3    1    1    2    0  502 -0.32096945983E+02 -0.31750323093E+02 -0.65840834198E+03  0.65995442399E+03  0.00000000000E+00 0. -1.
<mgrwt>
<rscale>  1 0.30000000E+03</rscale>
<asrwt>0</asrwt>
<pdfrwt beam="1">  1       21 0.82824516E-02 0.30000000E+03</pdfrwt>
<pdfrwt beam="2">0</pdfrwt>
<totfact> 0.12017857E+04</totfact>
</mgrwt>
</event>
<event>
 6    1  0.1198667E-001  0.3000000E+03  0.7818608E-02  0.1093470E+00
         21   -1    0    0  501  502  0.00000000000E+00  0.00000000000E+00  0.17676312230E+01  0.17676312230E+01  0.00000000000E+00 0. -1.
         13   -1    0    0    0    0 -0.00000000000E+00 -0.00000000000E+00 -0.10000000000E+04  0.10000000000E+04  0.00000000000E+00 0.  1.
    9000005    2    1    2  501    0  0.36263735633E+02  0.42189843176E+01 -0.74677080849E+03  0.74766966851E+03  0.32302403541E+01 0.  0.
         13    1    3    3    0    0  0.25399823395E+02  0.34868292225E+01 -0.49496862998E+03  0.49563217578E+03  0.00000000000E+00 0.  1.
          1    1    3    3  501    0  0.10863912238E+02  0.73215509508E+00 -0.25180217851E+03  0.25203749273E+03  0.00000000000E+00 0.  1.
         -1    1    1    2    0  502 -0.36263735633E+02 -0.42189843176E+01 -0.25146156029E+03  0.25409796271E+03  0.00000000000E+00 0. -1.
<mgrwt>
<rscale>  1 0.30000000E+03</rscale>
<asrwt>0</asrwt>
<pdfrwt beam="1">  1       21 0.64277635E-02 0.30000000E+03</pdfrwt>
<pdfrwt beam="2">0</pdfrwt>
<totfact> 0.18708445E+04</totfact>
</mgrwt>
</event>
<event>
 6    1  0.1198667E-001  0.3000000E+03  0.7818608E-02  0.1093470E+00
         21   -1    0    0  501  502  0.00000000000E+00  0.00000000000E+00  0.20715098991E+01  0.20715098991E+01  0.00000000000E+00 0. -1.
         13   -1    0    0    0    0 -0.00000000000E+00 -0.00000000000E+00 -0.10000000000E+04  0.10000000000E+04  0.00000000000E+00 0.  1.
    9000005    2    1    2  501    0  0.30935145057E+02  0.23780703685E+02 -0.24340826155E+03  0.24654303236E+03  0.36578615514E+01 0.  0.
         13    1    3    3    0    0  0.65357071531E+01  0.41850004874E+01 -0.57062533559E+02  0.57587867066E+02  0.00000000000E+00 0.  1.
          3    1    3    3  501    0  0.24399437903E+02  0.19595703197E+02 -0.18634572799E+03  0.18895516530E+03  0.00000000000E+00 0.  1.
         -3    1    1    2    0  502 -0.30935145057E+02 -0.23780703685E+02 -0.75452022855E+03  0.75552847753E+03  0.00000000000E+00 0. -1.
<mgrwt>
<rscale>  1 0.30000000E+03</rscale>
<asrwt>0</asrwt>
<pdfrwt beam="1">  1       21 0.75327792E-02 0.30000000E+03</pdfrwt>
<pdfrwt beam="2">0</pdfrwt>
<totfact> 0.14195646E+04</totfact>
</mgrwt>
</event>
<event>
 6    1  0.1198667E-001  0.3000000E+03  0.7818608E-02  0.1093470E+00
         21   -1    0    0  501  502  0.00000000000E+00  0.00000000000E+00  0.19176745649E+01  0.19176745649E+01  0.00000000000E+00 0. -1.
         13   -1    0    0    0    0 -0.00000000000E+00 -0.00000000000E+00 -0.10000000000E+04  0.10000000000E+04  0.00000000000E+00 0.  1.
    9000005    2    1    2  501    0 -0.26965072205E+02  0.31897754248E+02 -0.64748189346E+03  0.64883801677E+03  0.36589352082E+01 0.  0.
         13    1    3    3    0    0 -0.26365639149E+01  0.16514114089E+01 -0.48991021597E+02  0.49089701833E+02  0.00000000000E+00 0.  1.
          3    1    3    3  501    0 -0.24328508290E+02  0.30246342839E+02 -0.59849087186E+03  0.59974831494E+03  0.00000000000E+00 0.  1.
         -3    1    1    2    0  502  0.26965072205E+02 -0.31897754248E+02 -0.35060043198E+03  0.35307965780E+03  0.00000000000E+00 0. -1.
<mgrwt>
<rscale>  1 0.30000000E+03</rscale>
<asrwt>0</asrwt>
<pdfrwt beam="1">  1       21 0.69733768E-02 0.30000000E+03</pdfrwt>
<pdfrwt beam="2">0</pdfrwt>
<totfact> 0.16242630E+04</totfact>
</mgrwt>
</event>
<event>
 6    1  0.1198667E-001  0.3000000E+03  0.7818608E-02  0.1093470E+00
         21   -1    0    0  501  502  0.00000000000E+00  0.00000000000E+00  0.12135906093E+01  0.12135906093E+01  0.00000000000E+00 0. -1.
         13   -1    0    0    0    0 -0.00000000000E+00 -0.00000000000E+00 -0.10000000000E+04  0.10000000000E+04  0.00000000000E+00 0.  1.
    9000005    2    1    2  501    0  0.10873032970E+02 -0.31133067706E+02 -0.65796301584E+03  0.65879852619E+03  0.35604977704E+01 0.  0.
         13    1    3    3    0    0  0.51330923939E+01 -0.18170314036E+02 -0.40209438379E+03  0.40253745469E+03  0.00000000000E+00 0.  1.
          1    1    3    3  501    0  0.57399405758E+01 -0.12962753670E+02 -0.25586863205E+03  0.25626107150E+03  0.00000000000E+00 0.  1.
         -1    1    1    2    0  502 -0.10873032970E+02  0.31133067706E+02 -0.34082339355E+03  0.34241506442E+03  0.00000000000E+00 0. -1.
<mgrwt>
<rscale>  1 0.30000000E+03</rscale>
<asrwt>0</asrwt>
<pdfrwt beam="1">  1       21 0.44130661E-02 0.30000000E+03</pdfrwt>
<pdfrwt beam="2">0</pdfrwt>
<totfact> 0.35617034E+04</totfact>
</mgrwt>
</event>
<event>
 6    1  0.1198667E-001  0.3000000E+03  0.7818608E-02  0.1093470E+00
         21   -1    0    0  501  502  0.00000000000E+00  0.00000000000E+00  0.12911512094E+01  0.12911512094E+01  0.00000000000E+00 0. -1.
         13   -1    0    0    0    0 -0.00000000000E+00 -0.00000000000E+00 -0.10000000000E+04  0.10000000000E+04  0.00000000000E+00 0.  1.
    9000005    2    1    2  501    0  0.34976113961E+02 -0.25605506606E+01 -0.39620784641E+03  0.39777036214E+03  0.32739080480E+01 0.  0.
         13    1    3    3    0    0  0.19057812356E+02 -0.13939364005E+01 -0.23414380745E+03  0.23492225488E+03  0.00000000000E+00 0.  1.
          1    1    3    3  501    0  0.15918301605E+02 -0.11666142601E+01 -0.16206403896E+03  0.16284810726E+03  0.00000000000E+00 0.  1.
         -3    1    1    2    0  502 -0.34976113961E+02  0.25605506606E+01 -0.60250100238E+03  0.60352078907E+03  0.00000000000E+00 0. -1.
<mgrwt>
<rscale>  1 0.30000000E+03</rscale>
<asrwt>0</asrwt>
<pdfrwt beam="1">  1       21 0.46951052E-02 0.30000000E+03</pdfrwt>
<pdfrwt beam="2">0</pdfrwt>
<totfact> 0.32061082E+04</totfact>
</mgrwt>
</event>
<event>
 6    1  0.1198667E-001  0.3000000E+03  0.7818608E-02  0.1093470E+00
         21   -1    0    0  501  502  0.00000000000E+00  0.00000000000E+00  0.13261561561E+01  0.13261561561E+01  0.00000000000E+00 0. -1.
         13   -1    0    0    0    0 -0.00000000000E+00 -0.00000000000E+00 -0.10000000000E+04  0.10000000000E+04  0.00000000000E+00 0.  1.
    9000005    2    1    2  501    0 -0.23388003641E+02  0.22090063204E+02 -0.73234188679E+03  0.73305822860E+03  0.38415837223E+01 0.  0.
         13    1    3    3    0    0 -0.23423074039E+02  0.22025952025E+02 -0.73209623117E+03  0.73280193412E+03  0.00000000000E+00 0.  1.
          1    1    3    3  501    0  0.35070398727E-01  0.64111178989E-01 -0.24565562411E+00  0.25629448257E+00  0.00000000000E+00 0.  1.
         -3    1    1    2    0  502  0.23388003641E+02 -0.22090063204E+02 -0.26633195705E+03  0.26826792755E+03  0.00000000000E+00 0. -1.
<mgrwt>
<rscale>  1 0.30000000E+03</rscale>
<asrwt>0</asrwt>
<pdfrwt beam="1">  1       21 0.48223962E-02 0.30000000E+03</pdfrwt>
<pdfrwt beam="2">0</pdfrwt>
<totfact> 0.30634896E+04</totfact>
</mgrwt>
</event>
<event>
 6    1  0.1198667E-001  0.3000000E+03  0.7818608E-02  0.1093470E+00
         21   -1    0    0  501  502  0.00000000000E+00  0.00000000000E+00  0.37480202019E+01  0.37480202019E+01  0.00000000000E+00 0. -1.
         13   -1    0    0    0    0 -0.00000000000E+00 -0.00000000000E+00 -0.10000000000E+04  0.10000000000E+04  0.00000000000E+00 0.  1.
    9000005    2    1    2  501    0 -0.99050906202E+01  0.58454933034E+02 -0.61539512621E+03  0.61830407753E+03  0.85837586628E+01 0.  0.
         13    1    3    3    0    0  0.99205770410E+00  0.10513100883E+02 -0.91606969488E+02  0.92213590796E+02  0.00000000000E+00 0.  1.
          3    1    3    3  501    0 -0.10897148324E+02  0.47941832151E+02 -0.52378815672E+03  0.52609048673E+03  0.00000000000E+00 0.  1.
         -1    1    1    2    0  502  0.99050906202E+01 -0.58454933034E+02 -0.38085685359E+03  0.38544394267E+03  0.00000000000E+00 0. -1.
<mgrwt>
<rscale>  1 0.30000000E+03</rscale>
<asrwt>0</asrwt>
<pdfrwt beam="1">  1       21 0.13629193E-01 0.30000000E+03</pdfrwt>
<pdfrwt beam="2">0</pdfrwt>
<totfact> 0.49128183E+03</totfact>
</mgrwt>
</event>
<event>
 6    1  0.1198667E-001  0.3000000E+03  0.7818608E-02  0.1093470E+00
         21   -1    0    0  501  502  0.00000000000E+00  0.00000000000E+00  0.12403716134E+01  0.12403716134E+01  0.00000000000E+00 0. -1.
         13   -1    0    0    0    0 -0.00000000000E+00 -0.00000000000E+00 -0.10000000000E+04  0.10000000000E+04  0.00000000000E+00 0.  1.
    9000005    2    1    2  501    0  0.30731614398E+02 -0.98530491626E+01 -0.69507570320E+03  0.69584646022E+03  0.55270531042E+01 0.  0.
         13    1    3    3    0    0  0.24369754515E+02 -0.89813504198E+01 -0.59348332706E+03  0.59405135223E+03  0.00000000000E+00 0.  1.
          1    1    3    3  501    0  0.63618598828E+01 -0.87169874283E+00 -0.10159237614E+03  0.10179510798E+03  0.00000000000E+00 0.  1.
         -1    1    1    2    0  502 -0.30731614398E+02  0.98530491626E+01 -0.30368392519E+03  0.30539391140E+03  0.00000000000E+00 0. -1.
<mgrwt>
<rscale>  1 0.30000000E+03</rscale>
<asrwt>0</asrwt>
<pdfrwt beam="1">  1       21 0.45104517E-02 0.30000000E+03</pdfrwt>
<pdfrwt beam="2">0</pdfrwt>
<totfact> 0.34322792E+04</totfact>
</mgrwt>
</event>
<event>
 6    1  0.1198667E-001  0.3000000E+03  0.7818608E-02  0.1093470E+00
         21   -1    0    0  501  502  0.00000000000E+00  0.00000000000E+00  0.13167044313E+01  0.13167044313E+01  0.00000000000E+00 0. -1.
         13   -1    0    0    0    0 -0.00000000000E+00 -0.00000000000E+00 -0.10000000000E+04  0.10000000000E+04  0.00000000000E+00 0.  1.
    9000005    2    1    2  501    0 -0.34221559288E+02  0.28429191786E+01 -0.65869442431E+03  0.65959806301E+03  0.34731557071E+01 0.  0.
         13    1    3    3    0    0 -0.32797016240E+02  0.34244741684E+01 -0.63015017506E+03  0.63101237264E+03  0.00000000000E+00 0.  1.
          3    1    3    3  501    0 -0.14245430478E+01 -0.58155498983E+00 -0.28544249248E+02  0.28585690375E+02  0.00000000000E+00 0.  1.
         -1    1    1    2    0  502  0.34221559288E+02 -0.28429191786E+01 -0.33998887126E+03  0.34171864142E+03  0.00000000000E+00 0. -1.
<mgrwt>
<rscale>  1 0.30000000E+03</rscale>
<asrwt>0</asrwt>
<pdfrwt beam="1">  1       21 0.47880262E-02 0.30000000E+03</pdfrwt>
<pdfrwt beam="2">0</pdfrwt>
<totfact> 0.31010049E+04</totfact>
</mgrwt>
</event>
<event>
 6    1  0.1198667E-001  0.3000000E+03  0.7818608E-02  0.1093470E+00
         21   -1    0    0  501  502  0.00000000000E+00  0.00000000000E+00  0.17424642142E+01  0.17424642142E+01  0.00000000000E+00 0. -1.
         13   -1    0    0    0    0 -0.00000000000E+00 -0.00000000000E+00 -0.10000000000E+04  0.10000000000E+04  0.00000000000E+00 0.  1.
    9000005    2    1    2  501    0  0.82251592796E+01 -0.40549109580E+02 -0.55820323181E+03  0.55974735793E+03  0.37911966457E+01 0.  0.
         13    1    3    3    0    0  0.82572920355E+01 -0.39213187949E+02 -0.53018318390E+03  0.53169546309E+03  0.00000000000E+00 0.  1.
          1    1    3    3  501    0 -0.32132755895E-01 -0.13359216310E+01 -0.28020047909E+02  0.28051894837E+02  0.00000000000E+00 0.  1.
         -3    1    1    2    0  502 -0.82251592796E+01  0.40549109580E+02 -0.44005430398E+03  0.44199510629E+03  0.00000000000E+00 0. -1.
<mgrwt>
<rscale>  1 0.30000000E+03</rscale>
<asrwt>0</asrwt>
<pdfrwt beam="1">  1       21 0.63362469E-02 0.30000000E+03</pdfrwt>
<pdfrwt beam="2">0</pdfrwt>
<totfact> 0.19178265E+04</totfact>
</mgrwt>
</event>
<event>
 6    1  0.1198667E-001  0.3000000E+03  0.7818608E-02  0.1093470E+00
         21   -1    0    0  501  502  0.00000000000E+00  0.00000000000E+00  0.13610479400E+01  0.13610479400E+01  0.00000000000E+00 0. -1.
         13   -1    0    0    0    0 -0.00000000000E+00 -0.00000000000E+00 -0.10000000000E+04  0.10000000000E+04  0.00000000000E+00 0.  1.
    9000005    2    1    2  501    0  0.30260387947E+02  0.14781471372E+02 -0.70169876581E+03  0.70251718036E+03  0.38791493558E+01 0.  0.
         13    1    3    3    0    0  0.10145200835E+02  0.31737005485E+01 -0.23769187014E+03  0.23792944880E+03  0.00000000000E+00 0.  1.
          3    1    3    3  501    0  0.20115187113E+02  0.11607770824E+02 -0.46400689567E+03  0.46458773157E+03  0.00000000000E+00 0.  1.
         -3    1    1    2    0  502 -0.30260387947E+02 -0.14781471372E+02 -0.29694018625E+03  0.29884386758E+03  0.00000000000E+00 0. -1.
<mgrwt>
<rscale>  1 0.30000000E+03</rscale>
<asrwt>0</asrwt>
<pdfrwt beam="1">  1       21 0.49492757E-02 0.30000000E+03</pdfrwt>
<pdfrwt beam="2">0</pdfrwt>
<totfact> 0.29309604E+04</totfact>
</mgrwt>
</event>
<event>
 6    1  0.1198667E-001  0.3000000E+03  0.7818608E-02  0.1093470E+00
         21   -1    0    0  501  502  0.00000000000E+00  0.00000000000E+00  0.23162684452E+01  0.23162684452E+01  0.00000000000E+00 0. -1.
         13   -1    0    0    0    0 -0.00000000000E+00 -0.00000000000E+00 -0.10000000000E+04  0.10000000000E+04  0.00000000000E+00 0.  1.
    9000005    2    1    2  501    0  0.12236184244E+02  0.42371806102E+02 -0.69863861879E+03  0.70003647483E+03  0.31705324331E+01 0.  0.
         13    1    3    3    0    0  0.71804704681E+01  0.30088463296E+02 -0.48716350419E+03  0.48814460418E+03  0.00000000000E+00 0.  1.
          3    1    3    3  501    0  0.50557137759E+01  0.12283342806E+02 -0.21147511460E+03  0.21189187065E+03  0.00000000000E+00 0.  1.
         -3    1    1    2    0  502 -0.12236184244E+02 -0.42371806102E+02 -0.29904511276E+03  0.30227979361E+03  0.00000000000E+00 0. -1.
<mgrwt>
<rscale>  1 0.30000000E+03</rscale>
<asrwt>0</asrwt>
<pdfrwt beam="1">  1       21 0.84228121E-02 0.30000000E+03</pdfrwt>
<pdfrwt beam="2">0</pdfrwt>
<totfact> 0.11667383E+04</totfact>
</mgrwt>
</event>
<event>
 6    1  0.1198667E-001  0.3000000E+03  0.7818608E-02  0.1093470E+00
         21   -1    0    0  501  502  0.00000000000E+00  0.00000000000E+00  0.13200720943E+01  0.13200720943E+01  0.00000000000E+00 0. -1.
         13   -1    0    0    0    0 -0.00000000000E+00 -0.00000000000E+00 -0.10000000000E+04  0.10000000000E+04  0.00000000000E+00 0.  1.
    9000005    2    1    2  501    0 -0.19250688980E+02 -0.30680556613E+02 -0.51481060612E+03  0.51609702427E+03  0.37805687908E+01 0.  0.
         13    1    3    3    0    0 -0.50436846112E+01 -0.60841163170E+01 -0.96421207225E+02  0.96744531776E+02  0.00000000000E+00 0.  1.
          1    1    3    3  501    0 -0.14207004369E+02 -0.24596440296E+02 -0.41838939890E+03  0.41935249249E+03  0.00000000000E+00 0.  1.
         -1    1    1    2    0  502  0.19250688980E+02  0.30680556613E+02 -0.48386932178E+03  0.48522304783E+03  0.00000000000E+00 0. -1.
<mgrwt>
<rscale>  1 0.30000000E+03</rscale>
<asrwt>0</asrwt>
<pdfrwt beam="1">  1       21 0.48002723E-02 0.30000000E+03</pdfrwt>
<pdfrwt beam="2">0</pdfrwt>
<totfact> 0.30875561E+04</totfact>
</mgrwt>
</event>
<event>
 6    1  0.1198667E-001  0.3000000E+03  0.7818608E-02  0.1093470E+00
         21   -1    0    0  501  502  0.00000000000E+00  0.00000000000E+00  0.99761944079E+00  0.99761944079E+00  0.00000000000E+00 0. -1.
         13   -1    0    0    0    0 -0.00000000000E+00 -0.00000000000E+00 -0.10000000000E+04  0.10000000000E+04  0.00000000000E+00 0.  1.
    9000005    2    1    2  501    0  0.27307256693E+02 -0.12936668152E+02 -0.35944699337E+03  0.36072881891E+03  0.31774357897E+01 0.  0.
         13    1    3    3    0    0  0.59020373485E+00 -0.49649511833E+00 -0.16431125626E+02  0.16449216917E+02  0.00000000000E+00 0.  1.
          3    1    3    3  501    0  0.26717052958E+02 -0.12440173033E+02 -0.34301586774E+03  0.34427960199E+03  0.00000000000E+00 0.  1.
         -3    1    1    2    0  502 -0.27307256693E+02  0.12936668152E+02 -0.63955538719E+03  0.64026880053E+03  0.00000000000E+00 0. -1.
<mgrwt>
<rscale>  1 0.30000000E+03</rscale>
<asrwt>0</asrwt>
<pdfrwt beam="1">  1       21 0.36277147E-02 0.30000000E+03</pdfrwt>
<pdfrwt beam="2">0</pdfrwt>
<totfact> 0.49548890E+04</totfact>
</mgrwt>
</event>
<event>
 6    1  0.1198667E-001  0.3000000E+03  0.7818608E-02  0.1093470E+00
         21   -1    0    0  501  502  0.00000000000E+00  0.00000000000E+00  0.21896658388E+01  0.21896658388E+01  0.00000000000E+00 0. -1.
         13   -1    0    0    0    0 -0.00000000000E+00 -0.00000000000E+00 -0.10000000000E+04  0.10000000000E+04  0.00000000000E+00 0.  1.
    9000005    2    1    2  501    0 -0.28501586945E+02  0.31596461338E+02 -0.70621573003E+03  0.70750663276E+03  0.37816962624E+01 0.  0.
         13    1    3    3    0    0 -0.13586644090E+02  0.16929863076E+02 -0.33614632843E+03  0.33684650997E+03  0.00000000000E+00 0.  1.
          3    1    3    3  501    0 -0.14914942855E+02  0.14666598263E+02 -0.37006940160E+03  0.37066012279E+03  0.00000000000E+00 0.  1.
         -1    1    1    2    0  502  0.28501586945E+02 -0.31596461338E+02 -0.29159460413E+03  0.29468303308E+03  0.00000000000E+00 0. -1.
<mgrwt>
<rscale>  1 0.30000000E+03</rscale>
<asrwt>0</asrwt>
<pdfrwt beam="1">  1       21 0.79624380E-02 0.30000000E+03</pdfrwt>
<pdfrwt beam="2">0</pdfrwt>
<totfact> 0.12879887E+04</totfact>
</mgrwt>
</event>
<event>
 6    1  0.1198667E-001  0.3000000E+03  0.7818608E-02  0.1093470E+00
         21   -1    0    0  501  502  0.00000000000E+00  0.00000000000E+00  0.18219615938E+01  0.18219615938E+01  0.00000000000E+00 0. -1.
         13   -1    0    0    0    0 -0.00000000000E+00 -0.00000000000E+00 -0.10000000000E+04  0.10000000000E+04  0.00000000000E+00 0.  1.
    9000005    2    1    2  501    0  0.27182415893E+02 -0.15640402401E+02 -0.83848765461E+03  0.83908129490E+03  0.35166157103E+01 0.  0.
         13    1    3    3    0    0  0.13878666101E+02 -0.96112898457E+01 -0.47716769209E+03  0.47746622985E+03  0.00000000000E+00 0.  1.
          1    1    3    3  501    0  0.13303749792E+02 -0.60291125551E+01 -0.36131996252E+03  0.36161506505E+03  0.00000000000E+00 0.  1.
         -3    1    1    2    0  502 -0.27182415893E+02  0.15640402401E+02 -0.15969038379E+03  0.16274066670E+03  0.00000000000E+00 0. -1.
<mgrwt>
<rscale>  1 0.30000000E+03</rscale>
<asrwt>0</asrwt>
<pdfrwt beam="1">  1       21 0.66253289E-02 0.30000000E+03</pdfrwt>
<pdfrwt beam="2">0</pdfrwt>
<totfact> 0.17752867E+04</totfact>
</mgrwt>
</event>
<event>
 6    1  0.1198667E-001  0.3000000E+03  0.7818608E-02  0.1093470E+00
         21   -1    0    0  501  502  0.00000000000E+00  0.00000000000E+00  0.14135011494E+01  0.14135011494E+01  0.00000000000E+00 0. -1.
         13   -1    0    0    0    0 -0.00000000000E+00 -0.00000000000E+00 -0.10000000000E+04  0.10000000000E+04  0.00000000000E+00 0.  1.
    9000005    2    1    2  501    0 -0.34737482612E+02  0.81365759537E+01 -0.65488459051E+03  0.65586480940E+03  0.34532256465E+01 0.  0.
         13    1    3    3    0    0 -0.28061934347E+02  0.54091398905E+01 -0.53687311461E+03  0.53763321339E+03  0.00000000000E+00 0.  1.
          1    1    3    3  501    0 -0.66755482650E+01  0.27274360632E+01 -0.11801147590E+03  0.11823159602E+03  0.00000000000E+00 0.  1.
         -1    1    1    2    0  502  0.34737482612E+02 -0.81365759537E+01 -0.34370190835E+03  0.34554869175E+03  0.00000000000E+00 0. -1.
<mgrwt>
<rscale>  1 0.30000000E+03</rscale>
<asrwt>0</asrwt>
<pdfrwt beam="1">  1       21 0.51400150E-02 0.30000000E+03</pdfrwt>
<pdfrwt beam="2">0</pdfrwt>
<totfact> 0.27479007E+04</totfact>
</mgrwt>
</event>
<event>
 6    1  0.1198667E-001  0.3000000E+03  0.7818608E-02  0.1093470E+00
         21   -1    0    0  501  502  0.00000000000E+00  0.00000000000E+00  0.19323504261E+01  0.19323504261E+01  0.00000000000E+00 0. -1.
         13   -1    0    0    0    0 -0.00000000000E+00 -0.00000000000E+00 -0.10000000000E+04  0.10000000000E+04  0.00000000000E+00 0.  1.
    9000005    2    1    2  501    0  0.39807394702E+02 -0.13932772444E+02 -0.63975811240E+03  0.64114920884E+03  0.17648788373E+01 0.  0.
         13    1    3    3    0    0  0.38963235938E+02 -0.13799177969E+02 -0.62945664303E+03  0.63081234652E+03  0.00000000000E+00 0.  1.
          3    1    3    3  501    0  0.84415876415E+00 -0.13359447565E+00 -0.10301469362E+02  0.10336862315E+02  0.00000000000E+00 0.  1.
         -1    1    1    2    0  502 -0.39807394702E+02  0.13932772444E+02 -0.35830953718E+03  0.36078314159E+03  0.00000000000E+00 0. -1.
<mgrwt>
<rscale>  1 0.30000000E+03</rscale>
<asrwt>0</asrwt>
<pdfrwt beam="1">  1       21 0.70267436E-02 0.30000000E+03</pdfrwt>
<pdfrwt beam="2">0</pdfrwt>
<totfact> 0.16028546E+04</totfact>
</mgrwt>
</event>
<event>
 6    1  0.1198667E-001  0.3000000E+03  0.7818608E-02  0.1093470E+00
         21   -1    0    0  501  502  0.00000000000E+00  0.00000000000E+00  0.97796723200E+00  0.97796723200E+00  0.00000000000E+00 0. -1.
         13   -1    0    0    0    0 -0.00000000000E+00 -0.00000000000E+00 -0.10000000000E+04  0.10000000000E+04  0.00000000000E+00 0.  1.
    9000005    2    1    2  501    0 -0.17190136884E+02 -0.25799360514E+02 -0.55703507943E+03  0.55790508978E+03  0.29835687185E+01 0.  0.
         13    1    3    3    0    0 -0.98643172088E+01 -0.14556764821E+02 -0.34196532657E+03  0.34241712680E+03  0.00000000000E+00 0.  1.
          3    1    3    3  501    0 -0.73258196753E+01 -0.11242595693E+02 -0.21506975286E+03  0.21548796298E+03  0.00000000000E+00 0.  1.
         -3    1    1    2    0  502  0.17190136884E+02  0.25799360514E+02 -0.44198695334E+03  0.44307287745E+03  0.00000000000E+00 0. -1.
<mgrwt>
<rscale>  1 0.30000000E+03</rscale>
<asrwt>0</asrwt>
<pdfrwt beam="1">  1       21 0.35562520E-02 0.30000000E+03</pdfrwt>
<pdfrwt beam="2">0</pdfrwt>
<totfact> 0.51229822E+04</totfact>
</mgrwt>
</event>
<event>
 6    1  0.1198667E-001  0.3000000E+03  0.7818608E-02  0.1093470E+00
         21   -1    0    0  501  502  0.00000000000E+00  0.00000000000E+00  0.14768484113E+01  0.14768484113E+01  0.00000000000E+00 0. -1.
         13   -1    0    0    0    0 -0.00000000000E+00 -0.00000000000E+00 -0.10000000000E+04  0.10000000000E+04  0.00000000000E+00 0.  1.
    9000005    2    1    2  501    0  0.27312630489E+02 -0.12828851642E+02 -0.80874438752E+03  0.80931405672E+03  0.33464672351E+01 0.  0.
         13    1    3    3    0    0  0.16310260023E+02 -0.94457150645E+01 -0.49790248586E+03  0.49825910081E+03  0.00000000000E+00 0.  1.
          1    1    3    3  501    0  0.11002370466E+02 -0.33831365776E+01 -0.31084190166E+03  0.31105495591E+03  0.00000000000E+00 0.  1.
         -1    1    1    2    0  502 -0.27312630489E+02  0.12828851642E+02 -0.18977876407E+03  0.19216279169E+03  0.00000000000E+00 0. -1.
<mgrwt>
<rscale>  1 0.30000000E+03</rscale>
<asrwt>0</asrwt>
<pdfrwt beam="1">  1       21 0.53703692E-02 0.30000000E+03</pdfrwt>
<pdfrwt beam="2">0</pdfrwt>
<totfact> 0.25494940E+04</totfact>
</mgrwt>
</event>
<event>
 6    1  0.1198667E-001  0.3000000E+03  0.7818608E-02  0.1093470E+00
         21   -1    0    0  501  502  0.00000000000E+00  0.00000000000E+00  0.24843606246E+01  0.24843606246E+01  0.00000000000E+00 0. -1.
         13   -1    0    0    0    0 -0.00000000000E+00 -0.00000000000E+00 -0.10000000000E+04  0.10000000000E+04  0.00000000000E+00 0.  1.
    9000005    2    1    2  501    0  0.98794263342E+01  0.31345314354E+02 -0.87534894808E+03  0.87597415448E+03  0.38479365926E+01 0.  0.
         13    1    3    3    0    0  0.14915184907E+01  0.92811139447E+01 -0.22196050448E+03  0.22215946806E+03  0.00000000000E+00 0.  1.
          3    1    3    3  501    0  0.83879078435E+01  0.22064200409E+02 -0.65338844360E+03  0.65381468641E+03  0.00000000000E+00 0.  1.
         -3    1    1    2    0  502 -0.98794263342E+01 -0.31345314354E+02 -0.12216669130E+03  0.12651020615E+03  0.00000000000E+00 0. -1.
<mgrwt>
<rscale>  1 0.30000000E+03</rscale>
<asrwt>0</asrwt>
<pdfrwt beam="1">  1       21 0.90340577E-02 0.30000000E+03</pdfrwt>
<pdfrwt beam="2">0</pdfrwt>
<totfact> 0.10308863E+04</totfact>
</mgrwt>
</event>
<event>
 6    1  0.1198667E-001  0.3000000E+03  0.7818608E-02  0.1093470E+00
         21   -1    0    0  501  502  0.00000000000E+00  0.00000000000E+00  0.57002201647E+01  0.57002201647E+01  0.00000000000E+00 0. -1.
         13   -1    0    0    0    0 -0.00000000000E+00 -0.00000000000E+00 -0.10000000000E+04  0.10000000000E+04  0.00000000000E+00 0.  1.
    9000005    2    1    2  501    0 -0.10139458577E+02  0.69423521013E+02 -0.68104115546E+03  0.68468090668E+03  0.69609367259E+01 0.  0.
         13    1    3    3    0    0 -0.10600508310E+02  0.53661731597E+02 -0.51916748582E+03  0.52204102381E+03  0.00000000000E+00 0.  1.
          3    1    3    3  501    0  0.46104973305E+00  0.15761789416E+02 -0.16187366965E+03  0.16263988286E+03  0.00000000000E+00 0.  1.
         -1    1    1    2    0  502  0.10139458577E+02 -0.69423521013E+02 -0.31325862437E+03  0.32101931349E+03  0.00000000000E+00 0. -1.
<mgrwt>
<rscale>  1 0.30000000E+03</rscale>
<asrwt>0</asrwt>
<pdfrwt beam="1">  1       21 0.20728117E-01 0.30000000E+03</pdfrwt>
<pdfrwt beam="2">0</pdfrwt>
<totfact> 0.22406697E+03</totfact>
</mgrwt>
</event>
<event>
 6    1  0.1198667E-001  0.3000000E+03  0.7818608E-02  0.1093470E+00
         21   -1    0    0  501  502  0.00000000000E+00  0.00000000000E+00  0.29359177343E+01  0.29359177343E+01  0.00000000000E+00 0. -1.
         13   -1    0    0    0    0 -0.00000000000E+00 -0.00000000000E+00 -0.10000000000E+04  0.10000000000E+04  0.00000000000E+00 0.  1.
    9000005    2    1    2  501    0 -0.35669426976E+02  0.50568120495E+01 -0.87293385691E+03  0.87368348172E+03  0.33805799117E+01 0.  0.
         13    1    3    3    0    0 -0.24913341590E+02  0.27258185022E+01 -0.57318604887E+03  0.57373369371E+03  0.00000000000E+00 0.  1.
          1    1    3    3  501    0 -0.10756085387E+02  0.23309935473E+01 -0.29974780804E+03  0.29994978801E+03  0.00000000000E+00 0.  1.
         -1    1    1    2    0  502  0.35669426976E+02 -0.50568120495E+01 -0.12413022536E+03  0.12925243601E+03  0.00000000000E+00 0. -1.
<mgrwt>
<rscale>  1 0.30000000E+03</rscale>
<asrwt>0</asrwt>
<pdfrwt beam="1">  1       21 0.10676087E-01 0.30000000E+03</pdfrwt>
<pdfrwt beam="2">0</pdfrwt>
<totfact> 0.76521618E+03</totfact>
</mgrwt>
</event>
<event>
 6    1  0.1198667E-001  0.3000000E+03  0.7818608E-02  0.1093470E+00
         21   -1    0    0  501  502  0.00000000000E+00  0.00000000000E+00  0.25747610426E+01  0.25747610426E+01  0.00000000000E+00 0. -1.
         13   -1    0    0    0    0 -0.00000000000E+00 -0.00000000000E+00 -0.10000000000E+04  0.10000000000E+04  0.00000000000E+00 0.  1.
    9000005    2    1    2  501    0 -0.15373177784E+02  0.48107266663E+02 -0.54163452568E+03  0.54399454122E+03  0.33849327312E+01 0.  0.
         13    1    3    3    0    0 -0.11137782047E+02  0.32737313538E+02 -0.35491784507E+03  0.35659845573E+03  0.00000000000E+00 0.  1.
          3    1    3    3  501    0 -0.42353957374E+01  0.15369953125E+02 -0.18671668061E+03  0.18739608548E+03  0.00000000000E+00 0.  1.
         -3    1    1    2    0  502  0.15373177784E+02 -0.48107266663E+02 -0.45579071328E+03  0.45858021982E+03  0.00000000000E+00 0. -1.
<mgrwt>
<rscale>  1 0.30000000E+03</rscale>
<asrwt>0</asrwt>
<pdfrwt beam="1">  1       21 0.93627872E-02 0.30000000E+03</pdfrwt>
<pdfrwt beam="2">0</pdfrwt>
<totfact> 0.96750531E+03</totfact>
</mgrwt>
</event>
<event>
 6    1  0.1198667E-001  0.3000000E+03  0.7818608E-02  0.1093470E+00
         21   -1    0    0  501  502  0.00000000000E+00  0.00000000000E+00  0.16602356455E+01  0.16602356455E+01  0.00000000000E+00 0. -1.
         13   -1    0    0    0    0 -0.00000000000E+00 -0.00000000000E+00 -0.10000000000E+04  0.10000000000E+04  0.00000000000E+00 0.  1.
    9000005    2    1    2  501    0  0.28846543131E+02 -0.17172015849E+02 -0.78232769848E+03  0.78305508066E+03  0.34103333502E+01 0.  0.
         13    1    3    3    0    0  0.28834489383E+02 -0.17031562338E+02 -0.77152975612E+03  0.77225621815E+03  0.00000000000E+00 0.  1.
          3    1    3    3  501    0  0.12053748381E-01 -0.14045351039E+00 -0.10797942357E+02  0.10798862516E+02  0.00000000000E+00 0.  1.
         -1    1    1    2    0  502 -0.28846543131E+02  0.17172015849E+02 -0.21601206588E+03  0.21860515498E+03  0.00000000000E+00 0. -1.
<mgrwt>
<rscale>  1 0.30000000E+03</rscale>
<asrwt>0</asrwt>
<pdfrwt beam="1">  1       21 0.60372333E-02 0.30000000E+03</pdfrwt>
<pdfrwt beam="2">0</pdfrwt>
<totfact> 0.20848014E+04</totfact>
</mgrwt>
</event>
<event>
 6    1  0.1198667E-001  0.3000000E+03  0.7818608E-02  0.1093470E+00
         21   -1    0    0  501  502  0.00000000000E+00  0.00000000000E+00  0.41385999484E+01  0.41385999484E+01  0.00000000000E+00 0. -1.
         13   -1    0    0    0    0 -0.00000000000E+00 -0.00000000000E+00 -0.10000000000E+04  0.10000000000E+04  0.00000000000E+00 0.  1.
    9000005    2    1    2  501    0  0.45887937378E+02  0.43563028116E+02 -0.40915441872E+03  0.41402969292E+03  0.31317794636E+01 0.  0.
         13    1    3    3    0    0  0.26499526557E+02  0.23122178838E+02 -0.23039652269E+03  0.23306526496E+03  0.00000000000E+00 0.  1.
          1    1    3    3  501    0  0.19388410822E+02  0.20440849279E+02 -0.17875789603E+03  0.18096442796E+03  0.00000000000E+00 0.  1.
         -3    1    1    2    0  502 -0.45887937378E+02 -0.43563028116E+02 -0.58670698133E+03  0.59010890703E+03  0.00000000000E+00 0. -1.
<mgrwt>
<rscale>  1 0.30000000E+03</rscale>
<asrwt>0</asrwt>
<pdfrwt beam="1">  1       21 0.15049486E-01 0.30000000E+03</pdfrwt>
<pdfrwt beam="2">0</pdfrwt>
<totfact> 0.40930032E+03</totfact>
</mgrwt>
</event>
<event>
 6    1  0.1198667E-001  0.3000000E+03  0.7818608E-02  0.1093470E+00
         21   -1    0    0  501  502  0.00000000000E+00  0.00000000000E+00  0.13849239210E+01  0.13849239210E+01  0.00000000000E+00 0. -1.
         13   -1    0    0    0    0 -0.00000000000E+00 -0.00000000000E+00 -0.10000000000E+04  0.10000000000E+04  0.00000000000E+00 0.  1.
    9000005    2    1    2  501    0 -0.22856416510E+02 -0.26682066567E+02 -0.66246978314E+03  0.66340858389E+03  0.32229118702E+01 0.  0.
         13    1    3    3    0    0 -0.66945601286E+01 -0.10073603957E+02 -0.23522678260E+03  0.23553754241E+03  0.00000000000E+00 0.  1.
          1    1    3    3  501    0 -0.16161856381E+02 -0.16608462610E+02 -0.42724300054E+03  0.42787104149E+03  0.00000000000E+00 0.  1.
         -1    1    1    2    0  502  0.22856416510E+02  0.26682066567E+02 -0.33614529294E+03  0.33797634003E+03  0.00000000000E+00 0. -1.
<mgrwt>
<rscale>  1 0.30000000E+03</rscale>
<asrwt>0</asrwt>
<pdfrwt beam="1">  1       21 0.50360976E-02 0.30000000E+03</pdfrwt>
<pdfrwt beam="2">0</pdfrwt>
<totfact> 0.28453516E+04</totfact>
</mgrwt>
</event>
<event>
 6    1  0.1198667E-001  0.3000000E+03  0.7818608E-02  0.1093470E+00
         21   -1    0    0  501  502  0.00000000000E+00  0.00000000000E+00  0.26096366438E+01  0.26096366438E+01  0.00000000000E+00 0. -1.
         13   -1    0    0    0    0 -0.00000000000E+00 -0.00000000000E+00 -0.10000000000E+04  0.10000000000E+04  0.00000000000E+00 0.  1.
    9000005    2    1    2  501    0  0.38014609353E+02  0.27608152581E+02 -0.30314926006E+03  0.30678061302E+03  0.27477328683E+01 0.  0.
         13    1    3    3    0    0  0.10853964646E+02  0.71089375885E+01 -0.76962402583E+02  0.78048426976E+02  0.00000000000E+00 0.  1.
          3    1    3    3  501    0  0.27160644707E+02  0.20499214993E+02 -0.22618685748E+03  0.22873218605E+03  0.00000000000E+00 0.  1.
         -1    1    1    2    0  502 -0.38014609353E+02 -0.27608152581E+02 -0.69424110329E+03  0.69582902362E+03  0.00000000000E+00 0. -1.
<mgrwt>
<rscale>  1 0.30000000E+03</rscale>
<asrwt>0</asrwt>
<pdfrwt beam="1">  1       21 0.94896078E-02 0.30000000E+03</pdfrwt>
<pdfrwt beam="2">0</pdfrwt>
<totfact> 0.94461222E+03</totfact>
</mgrwt>
</event>
<event>
 6    1  0.1198667E-001  0.3000000E+03  0.7818608E-02  0.1093470E+00
         21   -1    0    0  501  502  0.00000000000E+00  0.00000000000E+00  0.25866203257E+01  0.25866203257E+01  0.00000000000E+00 0. -1.
         13   -1    0    0    0    0 -0.00000000000E+00 -0.00000000000E+00 -0.10000000000E+04  0.10000000000E+04  0.00000000000E+00 0.  1.
    9000005    2    1    2  501    0  0.39847574191E+02 -0.30039005004E+02 -0.59291517409E+03  0.59502193919E+03  0.35402623302E+01 0.  0.
         13    1    3    3    0    0  0.57647000736E+01 -0.47707894550E+01 -0.75344320718E+02  0.75714984405E+02  0.00000000000E+00 0.  1.
          1    1    3    3  501    0  0.34082874118E+02 -0.25268215549E+02 -0.51757085337E+03  0.51930695478E+03  0.00000000000E+00 0.  1.
         -3    1    1    2    0  502 -0.39847574191E+02  0.30039005004E+02 -0.40449820558E+03  0.40756468114E+03  0.00000000000E+00 0. -1.
<mgrwt>
<rscale>  1 0.30000000E+03</rscale>
<asrwt>0</asrwt>
<pdfrwt beam="1">  1       21 0.94059119E-02 0.30000000E+03</pdfrwt>
<pdfrwt beam="2">0</pdfrwt>
<totfact> 0.95962804E+03</totfact>
</mgrwt>
</event>
<event>
 6    1  0.1198667E-001  0.3000000E+03  0.7818608E-02  0.1093470E+00
         21   -1    0    0  501  502  0.00000000000E+00  0.00000000000E+00  0.21942098981E+01  0.21942098981E+01  0.00000000000E+00 0. -1.
         13   -1    0    0    0    0 -0.00000000000E+00 -0.00000000000E+00 -0.10000000000E+04  0.10000000000E+04  0.00000000000E+00 0.  1.
    9000005    2    1    2  501    0 -0.39597464548E+02  0.19404051792E+02 -0.66657518421E+03  0.66804126482E+03  0.34898243139E+01 0.  0.
         13    1    3    3    0    0 -0.58295564055E+01  0.27452806817E+01 -0.80247839286E+02  0.80506124015E+02  0.00000000000E+00 0.  1.
          1    1    3    3  501    0 -0.33767908142E+02  0.16658771111E+02 -0.58632734492E+03  0.58753514080E+03  0.00000000000E+00 0.  1.
         -1    1    1    2    0  502  0.39597464548E+02 -0.19404051792E+02 -0.33123060589E+03  0.33415294508E+03  0.00000000000E+00 0. -1.
<mgrwt>
<rscale>  1 0.30000000E+03</rscale>
<asrwt>0</asrwt>
<pdfrwt beam="1">  1       21 0.79789619E-02 0.30000000E+03</pdfrwt>
<pdfrwt beam="2">0</pdfrwt>
<totfact> 0.12833082E+04</totfact>
</mgrwt>
</event>
<event>
 6    1  0.1198667E-001  0.3000000E+03  0.7818608E-02  0.1093470E+00
         21   -1    0    0  501  502  0.00000000000E+00  0.00000000000E+00  0.30986591853E+01  0.30986591853E+01  0.00000000000E+00 0. -1.
         13   -1    0    0    0    0 -0.00000000000E+00 -0.00000000000E+00 -0.10000000000E+04  0.10000000000E+04  0.00000000000E+00 0.  1.
    9000005    2    1    2  501    0  0.26248244172E+02  0.35840628218E+02 -0.80042217776E+03  0.80165987825E+03  0.30621528179E+01 0.  0.
         13    1    3    3    0    0  0.88242345513E+01  0.10983504647E+02 -0.27731111249E+03  0.27766879119E+03  0.00000000000E+00 0.  1.
          3    1    3    3  501    0  0.17424009621E+02  0.24857123571E+02 -0.52311106527E+03  0.52399108705E+03  0.00000000000E+00 0.  1.
         -1    1    1    2    0  502 -0.26248244172E+02 -0.35840628218E+02 -0.19647916305E+03  0.20143878094E+03  0.00000000000E+00 0. -1.
<mgrwt>
<rscale>  1 0.30000000E+03</rscale>
<asrwt>0</asrwt>
<pdfrwt beam="1">  1       21 0.11267875E-01 0.30000000E+03</pdfrwt>
<pdfrwt beam="2">0</pdfrwt>
<totfact> 0.69444754E+03</totfact>
</mgrwt>
</event>
<event>
 6    1  0.1198667E-001  0.3000000E+03  0.7818608E-02  0.1093470E+00
         21   -1    0    0  501  502  0.00000000000E+00  0.00000000000E+00  0.16931377010E+01  0.16931377010E+01  0.00000000000E+00 0. -1.
         13   -1    0    0    0    0 -0.00000000000E+00 -0.00000000000E+00 -0.10000000000E+04  0.10000000000E+04  0.00000000000E+00 0.  1.
    9000005    2    1    2  501    0  0.37808133464E+02 -0.10870404855E+02 -0.35563945920E+03  0.35782280008E+03  0.31797266719E+01 0.  0.
         13    1    3    3    0    0  0.98821794425E+01 -0.21874377403E+01 -0.80638483876E+02  0.81271196843E+02  0.00000000000E+00 0.  1.
          1    1    3    3  501    0  0.27925954021E+02 -0.86829671146E+01 -0.27500097533E+03  0.27655160324E+03  0.00000000000E+00 0.  1.
         -1    1    1    2    0  502 -0.37808133464E+02  0.10870404855E+02 -0.64266740310E+03  0.64387033762E+03  0.00000000000E+00 0. -1.
<mgrwt>
<rscale>  1 0.30000000E+03</rscale>
<asrwt>0</asrwt>
<pdfrwt beam="1">  1       21 0.61568774E-02 0.30000000E+03</pdfrwt>
<pdfrwt beam="2">0</pdfrwt>
<totfact> 0.20153783E+04</totfact>
</mgrwt>
</event>
<event>
 6    1  0.1198667E-001  0.3000000E+03  0.7818608E-02  0.1093470E+00
         21   -1    0    0  501  502  0.00000000000E+00  0.00000000000E+00  0.99002522580E+00  0.99002522580E+00  0.00000000000E+00 0. -1.
         13   -1    0    0    0    0 -0.00000000000E+00 -0.00000000000E+00 -0.10000000000E+04  0.10000000000E+04  0.00000000000E+00 0.  1.
    9000005    2    1    2  501    0  0.30707916858E+02 -0.10242408826E+01 -0.58066824212E+03  0.58152151567E+03  0.69022138252E+01 0.  0.
         13    1    3    3    0    0  0.29294150566E+02 -0.20365106640E+01 -0.52009201813E+03  0.52092034128E+03  0.00000000000E+00 0.  1.
          3    1    3    3  501    0  0.14137662913E+01  0.10122697814E+01 -0.60576223984E+02  0.60601174390E+02  0.00000000000E+00 0.  1.
         -1    1    1    2    0  502 -0.30707916858E+02  0.10242408826E+01 -0.41834173266E+03  0.41946850956E+03  0.00000000000E+00 0. -1.
<mgrwt>
<rscale>  1 0.30000000E+03</rscale>
<asrwt>0</asrwt>
<pdfrwt beam="1">  1       21 0.36000993E-02 0.30000000E+03</pdfrwt>
<pdfrwt beam="2">0</pdfrwt>
<totfact> 0.50187989E+04</totfact>
</mgrwt>
</event>
<event>
 6    1  0.1198667E-001  0.3000000E+03  0.7818608E-02  0.1093470E+00
         21   -1    0    0  501  502  0.00000000000E+00  0.00000000000E+00  0.37269048048E+01  0.37269048048E+01  0.00000000000E+00 0. -1.
         13   -1    0    0    0    0 -0.00000000000E+00 -0.00000000000E+00 -0.10000000000E+04  0.10000000000E+04  0.00000000000E+00 0.  1.
    9000005    2    1    2  501    0 -0.30594019117E+02  0.48249194064E+02 -0.32244465128E+03  0.32748083231E+03  0.30271535676E+01 0.  0.
         13    1    3    3    0    0 -0.15606423088E+02  0.25246781308E+02 -0.17592488831E+03  0.17841111719E+03  0.00000000000E+00 0.  1.
          1    1    3    3  501    0 -0.14987596028E+02  0.23002412756E+02 -0.14651976297E+03  0.14906971512E+03  0.00000000000E+00 0.  1.
         -3    1    1    2    0  502  0.30594019117E+02 -0.48249194064E+02 -0.67382844392E+03  0.67624607250E+03  0.00000000000E+00 0. -1.
<mgrwt>
<rscale>  1 0.30000000E+03</rscale>
<asrwt>0</asrwt>
<pdfrwt beam="1">  1       21 0.13552410E-01 0.30000000E+03</pdfrwt>
<pdfrwt beam="2">0</pdfrwt>
<totfact> 0.49639446E+03</totfact>
</mgrwt>
</event>
<event>
 6    1  0.1198667E-001  0.3000000E+03  0.7818608E-02  0.1093470E+00
         21   -1    0    0  501  502  0.00000000000E+00  0.00000000000E+00  0.37074884436E+01  0.37074884436E+01  0.00000000000E+00 0. -1.
         13   -1    0    0    0    0 -0.00000000000E+00 -0.00000000000E+00 -0.10000000000E+04  0.10000000000E+04  0.00000000000E+00 0.  1.
    9000005    2    1    2  501    0  0.14081644081E+01 -0.33038372798E+02 -0.91948565750E+03  0.92008446629E+03  0.28343878856E+01 0.  0.
         13    1    3    3    0    0 -0.15537394364E+00 -0.24039808834E+02 -0.65340615697E+03  0.65384825649E+03  0.00000000000E+00 0.  1.
          1    1    3    3  501    0  0.15635383518E+01 -0.89985639642E+01 -0.26607950053E+03  0.26623620980E+03  0.00000000000E+00 0.  1.
         -3    1    1    2    0  502 -0.14081644081E+01  0.33038372798E+02 -0.76806854055E+02  0.83623022152E+02  0.00000000000E+00 0. -1.
<mgrwt>
<rscale>  1 0.30000000E+03</rscale>
<asrwt>0</asrwt>
<pdfrwt beam="1">  1       21 0.13481805E-01 0.30000000E+03</pdfrwt>
<pdfrwt beam="2">0</pdfrwt>
<totfact> 0.50116647E+03</totfact>
</mgrwt>
</event>
<event>
 6    1  0.1198667E-001  0.3000000E+03  0.7818608E-02  0.1093470E+00
         21   -1    0    0  501  502  0.00000000000E+00  0.00000000000E+00  0.16404947163E+01  0.16404947163E+01  0.00000000000E+00 0. -1.
         13   -1    0    0    0    0 -0.00000000000E+00 -0.00000000000E+00 -0.10000000000E+04  0.10000000000E+04  0.00000000000E+00 0.  1.
    9000005    2    1    2  501    0 -0.22905758400E+02  0.25711242878E+02 -0.76223120094E+03  0.76301459945E+03  0.30221702954E+01 0.  0.
         13    1    3    3    0    0 -0.15701930507E+02  0.19221379949E+02 -0.56629886439E+03  0.56684249654E+03  0.00000000000E+00 0.  1.
          1    1    3    3  501    0 -0.72038278923E+01  0.64898629289E+01 -0.19593233655E+03  0.19617210291E+03  0.00000000000E+00 0.  1.
         -3    1    1    2    0  502  0.22905758400E+02 -0.25711242878E+02 -0.23612830435E+03  0.23862589527E+03  0.00000000000E+00 0. -1.
<mgrwt>
<rscale>  1 0.30000000E+03</rscale>
<asrwt>0</asrwt>
<pdfrwt beam="1">  1       21 0.59654479E-02 0.30000000E+03</pdfrwt>
<pdfrwt beam="2">0</pdfrwt>
<totfact> 0.21282572E+04</totfact>
</mgrwt>
</event>
<event>
 6    1  0.1198667E-001  0.3000000E+03  0.7818608E-02  0.1093470E+00
         21   -1    0    0  501  502  0.00000000000E+00  0.00000000000E+00  0.11338255143E+01  0.11338255143E+01  0.00000000000E+00 0. -1.
         13   -1    0    0    0    0 -0.00000000000E+00 -0.00000000000E+00 -0.10000000000E+04  0.10000000000E+04  0.00000000000E+00 0.  1.
    9000005    2    1    2  501    0  0.17549580856E+02  0.26154481872E+02 -0.32785280263E+03  0.32938164657E+03  0.35727011056E+01 0.  0.
         13    1    3    3    0    0  0.11001778486E+02  0.15149535738E+02 -0.21110876689E+03  0.21193739411E+03  0.00000000000E+00 0.  1.
          1    1    3    3  501    0  0.65478023700E+01  0.11004946134E+02 -0.11674403574E+03  0.11744425246E+03  0.00000000000E+00 0.  1.
         -1    1    1    2    0  502 -0.17549580856E+02 -0.26154481872E+02 -0.67101337185E+03  0.67175217895E+03  0.00000000000E+00 0. -1.
<mgrwt>
<rscale>  1 0.30000000E+03</rscale>
<asrwt>0</asrwt>
<pdfrwt beam="1">  1       21 0.41230106E-02 0.30000000E+03</pdfrwt>
<pdfrwt beam="2">0</pdfrwt>
<totfact> 0.39954726E+04</totfact>
</mgrwt>
</event>
<event>
 6    1  0.1198667E-001  0.3000000E+03  0.7818608E-02  0.1093470E+00
         21   -1    0    0  501  502  0.00000000000E+00  0.00000000000E+00  0.13596053817E+01  0.13596053817E+01  0.00000000000E+00 0. -1.
         13   -1    0    0    0    0 -0.00000000000E+00 -0.00000000000E+00 -0.10000000000E+04  0.10000000000E+04  0.00000000000E+00 0.  1.
    9000005    2    1    2  501    0 -0.29985500918E+02  0.14090744983E+02 -0.71766146514E+03  0.71843410606E+03  0.34506280820E+01 0.  0.
         13    1    3    3    0    0 -0.93608878833E+01  0.38967880984E+01 -0.18801914540E+03  0.18829235305E+03  0.00000000000E+00 0.  1.
          1    1    3    3  501    0 -0.20624613035E+02  0.10193956884E+02 -0.52964231974E+03  0.53014175300E+03  0.00000000000E+00 0.  1.
         -3    1    1    2    0  502  0.29985500918E+02 -0.14090744983E+02 -0.28097892948E+03  0.28292549933E+03  0.00000000000E+00 0. -1.
<mgrwt>
<rscale>  1 0.30000000E+03</rscale>
<asrwt>0</asrwt>
<pdfrwt beam="1">  1       21 0.49440300E-02 0.30000000E+03</pdfrwt>
<pdfrwt beam="2">0</pdfrwt>
<totfact> 0.29362609E+04</totfact>
</mgrwt>
</event>
<event>
 6    1  0.1198667E-001  0.3000000E+03  0.7818608E-02  0.1093470E+00
         21   -1    0    0  501  502  0.00000000000E+00  0.00000000000E+00  0.70693691980E+01  0.70693691980E+01  0.00000000000E+00 0. -1.
         13   -1    0    0    0    0 -0.00000000000E+00 -0.00000000000E+00 -0.10000000000E+04  0.10000000000E+04  0.00000000000E+00 0.  1.
    9000005    2    1    2  501    0  0.14469619115E+02  0.30044197571E+02 -0.95868072677E+03  0.95926686287E+03  0.34863495751E+01 0.  0.
         13    1    3    3    0    0  0.78536795056E+01  0.12652473836E+02 -0.40631285406E+03  0.40658566226E+03  0.00000000000E+00 0.  1.
          3    1    3    3  501    0  0.66159396097E+01  0.17391723736E+02 -0.55236787271E+03  0.55268120061E+03  0.00000000000E+00 0.  1.
         -3    1    1    2    0  502 -0.14469619115E+02 -0.30044197571E+02 -0.34249904029E+02  0.47802506326E+02  0.00000000000E+00 0. -1.
<mgrwt>
<rscale>  1 0.30000000E+03</rscale>
<asrwt>0</asrwt>
<pdfrwt beam="1">  1       21 0.25706851E-01 0.30000000E+03</pdfrwt>
<pdfrwt beam="2">0</pdfrwt>
<totfact> 0.14765855E+03</totfact>
</mgrwt>
</event>
<event>
 6    1  0.1198667E-001  0.3000000E+03  0.7818608E-02  0.1093470E+00
         21   -1    0    0  501  502  0.00000000000E+00  0.00000000000E+00  0.14620522740E+01  0.14620522740E+01  0.00000000000E+00 0. -1.
         13   -1    0    0    0    0 -0.00000000000E+00 -0.00000000000E+00 -0.10000000000E+04  0.10000000000E+04  0.00000000000E+00 0.  1.
    9000005    2    1    2  501    0 -0.10252692025E+02  0.29622417458E+02 -0.78542317087E+03  0.78605426824E+03  0.30248905236E+01 0.  0.
         13    1    3    3    0    0 -0.37899936209E+01  0.14617946350E+02 -0.35438505901E+03  0.35470666536E+03  0.00000000000E+00 0.  1.
          1    1    3    3  501    0 -0.64626984043E+01  0.15004471108E+02 -0.43103811187E+03  0.43134760287E+03  0.00000000000E+00 0.  1.
         -3    1    1    2    0  502  0.10252692025E+02 -0.29622417458E+02 -0.21311477685E+03  0.21540778404E+03  0.00000000000E+00 0. -1.
<mgrwt>
<rscale>  1 0.30000000E+03</rscale>
<asrwt>0</asrwt>
<pdfrwt beam="1">  1       21 0.53165649E-02 0.30000000E+03</pdfrwt>
<pdfrwt beam="2">0</pdfrwt>
<totfact> 0.25938044E+04</totfact>
</mgrwt>
</event>
<event>
 6    1  0.1198667E-001  0.3000000E+03  0.7818608E-02  0.1093470E+00
         21   -1    0    0  501  502  0.00000000000E+00  0.00000000000E+00  0.26583819311E+01  0.26583819311E+01  0.00000000000E+00 0. -1.
         13   -1    0    0    0    0 -0.00000000000E+00 -0.00000000000E+00 -0.10000000000E+04  0.10000000000E+04  0.00000000000E+00 0.  1.
    9000005    2    1    2  501    0 -0.45709454447E+02 -0.22797114888E+02 -0.56335569000E+03  0.56567686238E+03  0.34082981481E+01 0.  0.
         13    1    3    3    0    0 -0.15180260481E+02 -0.89408843052E+01 -0.18252979813E+03  0.18337804373E+03  0.00000000000E+00 0.  1.
          1    1    3    3  501    0 -0.30529193966E+02 -0.13856230583E+02 -0.38082589188E+03  0.38229881864E+03  0.00000000000E+00 0.  1.
         -3    1    1    2    0  502  0.45709454447E+02  0.22797114888E+02 -0.43398592807E+03  0.43698151956E+03  0.00000000000E+00 0. -1.
<mgrwt>
<rscale>  1 0.30000000E+03</rscale>
<asrwt>0</asrwt>
<pdfrwt beam="1">  1       21 0.96668638E-02 0.30000000E+03</pdfrwt>
<pdfrwt beam="2">0</pdfrwt>
<totfact> 0.91395918E+03</totfact>
</mgrwt>
</event>
<event>
 6    1  0.1198667E-001  0.3000000E+03  0.7818608E-02  0.1093470E+00
         21   -1    0    0  501  502  0.00000000000E+00  0.00000000000E+00  0.15974910212E+01  0.15974910212E+01  0.00000000000E+00 0. -1.
         13   -1    0    0    0    0 -0.00000000000E+00 -0.00000000000E+00 -0.10000000000E+04  0.10000000000E+04  0.00000000000E+00 0.  1.
    9000005    2    1    2  501    0  0.33753210137E+02 -0.42314934301E+01 -0.76135734748E+03  0.76212391561E+03  0.32661060380E+01 0.  0.
         13    1    3    3    0    0  0.23833132293E+02 -0.16953091278E+01 -0.54977466071E+03  0.55029362146E+03  0.00000000000E+00 0.  1.
          3    1    3    3  501    0  0.99200778445E+01 -0.25361843023E+01 -0.21158268677E+03  0.21183029414E+03  0.00000000000E+00 0.  1.
         -1    1    1    2    0  502 -0.33753210137E+02  0.42314934301E+01 -0.23704516150E+03  0.23947357541E+03  0.00000000000E+00 0. -1.
<mgrwt>
<rscale>  1 0.30000000E+03</rscale>
<asrwt>0</asrwt>
<pdfrwt beam="1">  1       21 0.58090705E-02 0.30000000E+03</pdfrwt>
<pdfrwt beam="2">0</pdfrwt>
<totfact> 0.22279530E+04</totfact>
</mgrwt>
</event>
<event>
 6    1  0.1198667E-001  0.3000000E+03  0.7818608E-02  0.1093470E+00
         21   -1    0    0  501  502  0.00000000000E+00  0.00000000000E+00  0.15102526221E+01  0.15102526221E+01  0.00000000000E+00 0. -1.
         13   -1    0    0    0    0 -0.00000000000E+00 -0.00000000000E+00 -0.10000000000E+04  0.10000000000E+04  0.00000000000E+00 0.  1.
    9000005    2    1    2  501    0 -0.31721483225E+02  0.32971184942E+01 -0.78479965227E+03  0.78545336142E+03  0.30602737948E+01 0.  0.
         13    1    3    3    0    0 -0.10427515835E+02 -0.12117975866E-03 -0.27967211225E+03  0.27986643861E+03  0.00000000000E+00 0.  1.
          1    1    3    3  501    0 -0.21293967390E+02  0.32972396740E+01 -0.50512754002E+03  0.50558692282E+03  0.00000000000E+00 0.  1.
         -1    1    1    2    0  502  0.31721483225E+02 -0.32971184942E+01 -0.21369009511E+03  0.21605689120E+03  0.00000000000E+00 0. -1.
<mgrwt>
<rscale>  1 0.30000000E+03</rscale>
<asrwt>0</asrwt>
<pdfrwt beam="1">  1       21 0.54918393E-02 0.30000000E+03</pdfrwt>
<pdfrwt beam="2">0</pdfrwt>
<totfact> 0.24536538E+04</totfact>
</mgrwt>
</event>
<event>
 6    1  0.1198667E-001  0.3000000E+03  0.7818608E-02  0.1093470E+00
         21   -1    0    0  501  502  0.00000000000E+00  0.00000000000E+00  0.14738871345E+01  0.14738871345E+01  0.00000000000E+00 0. -1.
         13   -1    0    0    0    0 -0.00000000000E+00 -0.00000000000E+00 -0.10000000000E+04  0.10000000000E+04  0.00000000000E+00 0.  1.
    9000005    2    1    2  501    0  0.33969152922E+02 -0.53645998066E+01 -0.72096586259E+03  0.72179125482E+03  0.28562638929E+01 0.  0.
         13    1    3    3    0    0  0.69885842624E+00 -0.12071387198E+00 -0.84221715702E+01  0.84519789929E+01  0.00000000000E+00 0.  1.
          1    1    3    3  501    0  0.33270294496E+02 -0.52438859346E+01 -0.71254369102E+03  0.71333927583E+03  0.00000000000E+00 0.  1.
         -3    1    1    2    0  502 -0.33969152922E+02  0.53645998066E+01 -0.27756025028E+03  0.27968263231E+03  0.00000000000E+00 0. -1.
<mgrwt>
<rscale>  1 0.30000000E+03</rscale>
<asrwt>0</asrwt>
<pdfrwt beam="1">  1       21 0.53596009E-02 0.30000000E+03</pdfrwt>
<pdfrwt beam="2">0</pdfrwt>
<totfact> 0.25582681E+04</totfact>
</mgrwt>
</event>
<event>
 6    1  0.1198667E-001  0.3000000E+03  0.7818608E-02  0.1093470E+00
         21   -1    0    0  501  502  0.00000000000E+00  0.00000000000E+00  0.24629375031E+01  0.24629375031E+01  0.00000000000E+00 0. -1.
         13   -1    0    0    0    0 -0.00000000000E+00 -0.00000000000E+00 -0.10000000000E+04  0.10000000000E+04  0.00000000000E+00 0.  1.
    9000005    2    1    2  501    0 -0.60497660482E+01 -0.38249322228E+02 -0.81186811958E+03  0.81279858480E+03  0.34764281060E+01 0.  0.
         13    1    3    3    0    0 -0.52944721713E+01 -0.35815589985E+02 -0.77263863606E+03  0.77348642513E+03  0.00000000000E+00 0.  1.
          3    1    3    3  501    0 -0.75529387681E+00 -0.24337322431E+01 -0.39229483516E+02  0.39312159676E+02  0.00000000000E+00 0.  1.
         -1    1    1    2    0  502  0.60497660482E+01  0.38249322228E+02 -0.18566894292E+03  0.18966435270E+03  0.00000000000E+00 0. -1.
<mgrwt>
<rscale>  1 0.30000000E+03</rscale>
<asrwt>0</asrwt>
<pdfrwt beam="1">  1       21 0.89561553E-02 0.30000000E+03</pdfrwt>
<pdfrwt beam="2">0</pdfrwt>
<totfact> 0.10468250E+04</totfact>
</mgrwt>
</event>
<event>
 6    1  0.1198667E-001  0.3000000E+03  0.7818608E-02  0.1093470E+00
         21   -1    0    0  501  502  0.00000000000E+00  0.00000000000E+00  0.21247897208E+01  0.21247897208E+01  0.00000000000E+00 0. -1.
         13   -1    0    0    0    0 -0.00000000000E+00 -0.00000000000E+00 -0.10000000000E+04  0.10000000000E+04  0.00000000000E+00 0.  1.
    9000005    2    1    2  501    0  0.11502729986E+01  0.35909729829E+02 -0.81223075586E+03  0.81303566977E+03  0.41674621952E+01 0.  0.
         13    1    3    3    0    0  0.20171969669E+01  0.14677169337E+02 -0.36433049944E+03  0.36463159655E+03  0.00000000000E+00 0.  1.
          1    1    3    3  501    0 -0.86692396826E+00  0.21232560492E+02 -0.44790025642E+03  0.44840407322E+03  0.00000000000E+00 0.  1.
         -3    1    1    2    0  502 -0.11502729986E+01 -0.35909729829E+02 -0.18564445442E+03  0.18908911995E+03  0.00000000000E+00 0. -1.
<mgrwt>
<rscale>  1 0.30000000E+03</rscale>
<asrwt>0</asrwt>
<pdfrwt beam="1">  1       21 0.77265244E-02 0.30000000E+03</pdfrwt>
<pdfrwt beam="2">0</pdfrwt>
<totfact> 0.13577826E+04</totfact>
</mgrwt>
</event>
<event>
 6    1  0.1198667E-001  0.3000000E+03  0.7818608E-02  0.1093470E+00
         21   -1    0    0  501  502  0.00000000000E+00  0.00000000000E+00  0.13778529609E+02  0.13778529609E+02  0.00000000000E+00 0. -1.
         13   -1    0    0    0    0 -0.00000000000E+00 -0.00000000000E+00 -0.10000000000E+04  0.10000000000E+04  0.00000000000E+00 0.  1.
    9000005    2    1    2  501    0  0.63402894149E+02  0.93819500176E+02 -0.62631619399E+03  0.63648045967E+03  0.36571964812E+01 0.  0.
         13    1    3    3    0    0  0.55045798157E+02  0.80421464281E+02 -0.54513495427E+03  0.55377772633E+03  0.00000000000E+00 0.  1.
          3    1    3    3  501    0  0.83570959922E+01  0.13398035895E+02 -0.81181239719E+02  0.82702733338E+02  0.00000000000E+00 0.  1.
         -1    1    1    2    0  502 -0.63402894149E+02 -0.93819500176E+02 -0.35990527640E+03  0.37729806994E+03  0.00000000000E+00 0. -1.
<mgrwt>
<rscale>  1 0.30000000E+03</rscale>
<asrwt>0</asrwt>
<pdfrwt beam="1">  1       21 0.50103850E-01 0.30000000E+03</pdfrwt>
<pdfrwt beam="2">0</pdfrwt>
<totfact> 0.37403841E+02</totfact>
</mgrwt>
</event>
<event>
 6    1  0.1198667E-001  0.3000000E+03  0.7818608E-02  0.1093470E+00
         21   -1    0    0  501  502  0.00000000000E+00  0.00000000000E+00  0.55828206526E+01  0.55828206526E+01  0.00000000000E+00 0. -1.
         13   -1    0    0    0    0 -0.00000000000E+00 -0.00000000000E+00 -0.10000000000E+04  0.10000000000E+04  0.00000000000E+00 0.  1.
    9000005    2    1    2  501    0 -0.25517617871E+02  0.32332714854E+02 -0.91665575037E+03  0.91758626896E+03  0.32004754197E+01 0.  0.
         13    1    3    3    0    0 -0.14969306089E+02  0.16462983507E+02 -0.50203591663E+03  0.50252877683E+03  0.00000000000E+00 0.  1.
          1    1    3    3  501    0 -0.10548311781E+02  0.15869731347E+02 -0.41461983373E+03  0.41505749214E+03  0.00000000000E+00 0.  1.
         -1    1    1    2    0  502  0.25517617871E+02 -0.32332714854E+02 -0.77761428982E+02  0.87996551688E+02  0.00000000000E+00 0. -1.
<mgrwt>
<rscale>  1 0.30000000E+03</rscale>
<asrwt>0</asrwt>
<pdfrwt beam="1">  1       21 0.20301209E-01 0.30000000E+03</pdfrwt>
<pdfrwt beam="2">0</pdfrwt>
<totfact> 0.23316771E+03</totfact>
</mgrwt>
</event>
<event>
 6    1  0.1198667E-001  0.3000000E+03  0.7818608E-02  0.1093470E+00
         21   -1    0    0  501  502  0.00000000000E+00  0.00000000000E+00  0.98310750458E+00  0.98310750458E+00  0.00000000000E+00 0. -1.
         13   -1    0    0    0    0 -0.00000000000E+00 -0.00000000000E+00 -0.10000000000E+04  0.10000000000E+04  0.00000000000E+00 0.  1.
    9000005    2    1    2  501    0 -0.30026281687E+02  0.40765362176E+01 -0.37593556382E+03  0.37716539545E+03  0.28269479150E+01 0.  0.
         13    1    3    3    0    0 -0.25983239967E+02  0.27768715668E+01 -0.31499024056E+03  0.31607228829E+03  0.00000000000E+00 0.  1.
          3    1    3    3  501    0 -0.40430417206E+01  0.12996646508E+01 -0.60945323265E+02  0.61093107160E+02  0.00000000000E+00 0.  1.
         -3    1    1    2    0  502  0.30026281687E+02 -0.40765362176E+01 -0.62308132867E+03  0.62381771206E+03  0.00000000000E+00 0. -1.
<mgrwt>
<rscale>  1 0.30000000E+03</rscale>
<asrwt>0</asrwt>
<pdfrwt beam="1">  1       21 0.35749439E-02 0.30000000E+03</pdfrwt>
<pdfrwt beam="2">0</pdfrwt>
<totfact> 0.50781556E+04</totfact>
</mgrwt>
</event>
<event>
 6    1  0.1198667E-001  0.3000000E+03  0.7818608E-02  0.1093470E+00
         21   -1    0    0  501  502  0.00000000000E+00  0.00000000000E+00  0.19399988230E+01  0.19399988230E+01  0.00000000000E+00 0. -1.
         13   -1    0    0    0    0 -0.00000000000E+00 -0.00000000000E+00 -0.10000000000E+04  0.10000000000E+04  0.00000000000E+00 0.  1.
    9000005    2    1    2  501    0  0.37317217176E+02  0.14607442745E+02 -0.70589188777E+03  0.70703635596E+03  0.33315687122E+01 0.  0.
         13    1    3    3    0    0  0.32409974745E+02  0.12169163899E+02 -0.58967718164E+03  0.59069253725E+03  0.00000000000E+00 0.  1.
          1    1    3    3  501    0  0.49072424309E+01  0.24382788469E+01 -0.11621470613E+03  0.11634381871E+03  0.00000000000E+00 0.  1.
         -3    1    1    2    0  502 -0.37317217176E+02 -0.14607442745E+02 -0.29216811341E+03  0.29490364286E+03  0.00000000000E+00 0. -1.
<mgrwt>
<rscale>  1 0.30000000E+03</rscale>
<asrwt>0</asrwt>
<pdfrwt beam="1">  1       21 0.70545561E-02 0.30000000E+03</pdfrwt>
<pdfrwt beam="2">0</pdfrwt>
<totfact> 0.15918680E+04</totfact>
</mgrwt>
</event>
<event>
 6    1  0.1198667E-001  0.3000000E+03  0.7818608E-02  0.1093470E+00
         21   -1    0    0  501  502  0.00000000000E+00  0.00000000000E+00  0.12360452038E+01  0.12360452038E+01  0.00000000000E+00 0. -1.
         13   -1    0    0    0    0 -0.00000000000E+00 -0.00000000000E+00 -0.10000000000E+04  0.10000000000E+04  0.00000000000E+00 0.  1.
    9000005    2    1    2  501    0  0.31099837218E+02 -0.65101266263E+01 -0.28900343668E+03  0.29076467020E+03  0.33949079181E+01 0.  0.
         13    1    3    3    0    0  0.10143051223E+02 -0.52022687026E+00 -0.93522248079E+02  0.94072116006E+02  0.00000000000E+00 0.  1.
          1    1    3    3  501    0  0.20956785995E+02 -0.59898997561E+01 -0.19548118860E+03  0.19669255419E+03  0.00000000000E+00 0.  1.
         -3    1    1    2    0  502 -0.31099837218E+02  0.65101266263E+01 -0.70976051812E+03  0.71047137501E+03  0.00000000000E+00 0. -1.
<mgrwt>
<rscale>  1 0.30000000E+03</rscale>
<asrwt>0</asrwt>
<pdfrwt beam="1">  1       21 0.44947193E-02 0.30000000E+03</pdfrwt>
<pdfrwt beam="2">0</pdfrwt>
<totfact> 0.34526911E+04</totfact>
</mgrwt>
</event>
<event>
 6    1  0.1198667E-001  0.3000000E+03  0.7818608E-02  0.1093470E+00
         21   -1    0    0  501  502  0.00000000000E+00  0.00000000000E+00  0.29535686409E+01  0.29535686409E+01  0.00000000000E+00 0. -1.
         13   -1    0    0    0    0 -0.00000000000E+00 -0.00000000000E+00 -0.10000000000E+04  0.10000000000E+04  0.00000000000E+00 0.  1.
    9000005    2    1    2  501    0 -0.94062535544E+01 -0.48860393304E+02 -0.69866679098E+03  0.70045360925E+03  0.49151043765E+01 0.  0.
         13    1    3    3    0    0 -0.21714616750E+01 -0.55027499987E+01 -0.10040845923E+03  0.10058257398E+03  0.00000000000E+00 0.  1.
          1    1    3    3  501    0 -0.72347918793E+01 -0.43357643305E+02 -0.59825833175E+03  0.59987103527E+03  0.00000000000E+00 0.  1.
         -3    1    1    2    0  502  0.94062535544E+01  0.48860393304E+02 -0.29837964038E+03  0.30249995939E+03  0.00000000000E+00 0. -1.
<mgrwt>
<rscale>  1 0.30000000E+03</rscale>
<asrwt>0</asrwt>
<pdfrwt beam="1">  1       21 0.10740272E-01 0.30000000E+03</pdfrwt>
<pdfrwt beam="2">0</pdfrwt>
<totfact> 0.75702622E+03</totfact>
</mgrwt>
</event>
<event>
 6    1  0.1198667E-001  0.3000000E+03  0.7818608E-02  0.1093470E+00
         21   -1    0    0  501  502  0.00000000000E+00  0.00000000000E+00  0.12452550333E+01  0.12452550333E+01  0.00000000000E+00 0. -1.
         13   -1    0    0    0    0 -0.00000000000E+00 -0.00000000000E+00 -0.10000000000E+04  0.10000000000E+04  0.00000000000E+00 0.  1.
    9000005    2    1    2  501    0  0.46730052685E+01 -0.31177368420E+02 -0.72281986605E+03  0.72351530944E+03  0.34610618388E+01 0.  0.
         13    1    3    3    0    0  0.44510784882E+01 -0.27046933025E+02 -0.59997530286E+03  0.60060112614E+03  0.00000000000E+00 0.  1.
          3    1    3    3  501    0  0.22192678034E+00 -0.41304353949E+01 -0.12284456320E+03  0.12291418329E+03  0.00000000000E+00 0.  1.
         -3    1    1    2    0  502 -0.46730052685E+01  0.31177368420E+02 -0.27593487891E+03  0.27772994559E+03  0.00000000000E+00 0. -1.
<mgrwt>
<rscale>  1 0.30000000E+03</rscale>
<asrwt>0</asrwt>
<pdfrwt beam="1">  1       21 0.45282097E-02 0.30000000E+03</pdfrwt>
<pdfrwt beam="2">0</pdfrwt>
<totfact> 0.34094621E+04</totfact>
</mgrwt>
</event>
<event>
 6    1  0.1198667E-001  0.3000000E+03  0.7818608E-02  0.1093470E+00
         21   -1    0    0  501  502  0.00000000000E+00  0.00000000000E+00  0.10648256358E+01  0.10648256358E+01  0.00000000000E+00 0. -1.
         13   -1    0    0    0    0 -0.00000000000E+00 -0.00000000000E+00 -0.10000000000E+04  0.10000000000E+04  0.00000000000E+00 0.  1.
    9000005    2    1    2  501    0  0.29286182343E+02  0.14191951067E+02 -0.51378271113E+03  0.51482208324E+03  0.31640453817E+01 0.  0.
         13    1    3    3    0    0  0.15160069935E+02  0.71865963021E+01 -0.28957949421E+03  0.29006509331E+03  0.00000000000E+00 0.  1.
          1    1    3    3  501    0  0.14126112409E+02  0.70053547645E+01 -0.22420321692E+03  0.22475698994E+03  0.00000000000E+00 0.  1.
         -1    1    1    2    0  502 -0.29286182343E+02 -0.14191951067E+02 -0.48515246323E+03  0.48624274239E+03  0.00000000000E+00 0. -1.
<mgrwt>
<rscale>  1 0.30000000E+03</rscale>
<asrwt>0</asrwt>
<pdfrwt beam="1">  1       21 0.38721014E-02 0.30000000E+03</pdfrwt>
<pdfrwt beam="2">0</pdfrwt>
<totfact> 0.44410634E+04</totfact>
</mgrwt>
</event>
<event>
 6    1  0.1198667E-001  0.3000000E+03  0.7818608E-02  0.1093470E+00
         21   -1    0    0  501  502  0.00000000000E+00  0.00000000000E+00  0.15986903681E+01  0.15986903681E+01  0.00000000000E+00 0. -1.
         13   -1    0    0    0    0 -0.00000000000E+00 -0.00000000000E+00 -0.10000000000E+04  0.10000000000E+04  0.00000000000E+00 0.  1.
    9000005    2    1    2  501    0  0.13071193852E+02 -0.29824425137E+02 -0.78883838498E+03  0.78952094087E+03  0.41189818096E+01 0.  0.
         13    1    3    3    0    0  0.13239485235E+02 -0.29574554075E+02 -0.77179417049E+03  0.77247406417E+03  0.00000000000E+00 0.  1.
          3    1    3    3  501    0 -0.16829138262E+00 -0.24987106182E+00 -0.17044214496E+02  0.17046876703E+02  0.00000000000E+00 0.  1.
         -3    1    1    2    0  502 -0.13071193852E+02  0.29824425137E+02 -0.20956292465E+03  0.21207774949E+03  0.00000000000E+00 0. -1.
<mgrwt>
<rscale>  1 0.30000000E+03</rscale>
<asrwt>0</asrwt>
<pdfrwt beam="1">  1       21 0.58134318E-02 0.30000000E+03</pdfrwt>
<pdfrwt beam="2">0</pdfrwt>
<totfact> 0.22250749E+04</totfact>
</mgrwt>
</event>
<event>
 6    1  0.1198667E-001  0.3000000E+03  0.7818608E-02  0.1093470E+00
         21   -1    0    0  501  502  0.00000000000E+00  0.00000000000E+00  0.25912013979E+01  0.25912013979E+01  0.00000000000E+00 0. -1.
         13   -1    0    0    0    0 -0.00000000000E+00 -0.00000000000E+00 -0.10000000000E+04  0.10000000000E+04  0.00000000000E+00 0.  1.
    9000005    2    1    2  501    0  0.27821850241E+02 -0.23794272646E+02 -0.84678844098E+03  0.84758566959E+03  0.32528066074E+01 0.  0.
         13    1    3    3    0    0  0.29125549595E+01 -0.27125239407E+01 -0.11773677605E+03  0.11780402878E+03  0.00000000000E+00 0.  1.
          3    1    3    3  501    0  0.24909295282E+02 -0.21081748706E+02 -0.72905166493E+03  0.72978164081E+03  0.00000000000E+00 0.  1.
         -3    1    1    2    0  502 -0.27821850241E+02  0.23794272646E+02 -0.15062035762E+03  0.15500553181E+03  0.00000000000E+00 0. -1.
<mgrwt>
<rscale>  1 0.30000000E+03</rscale>
<asrwt>0</asrwt>
<pdfrwt beam="1">  1       21 0.94225704E-02 0.30000000E+03</pdfrwt>
<pdfrwt beam="2">0</pdfrwt>
<totfact> 0.95661094E+03</totfact>
</mgrwt>
</event>
<event>
 6    1  0.1198667E-001  0.3000000E+03  0.7818608E-02  0.1093470E+00
         21   -1    0    0  501  502  0.00000000000E+00  0.00000000000E+00  0.18652860747E+01  0.18652860747E+01  0.00000000000E+00 0. -1.
         13   -1    0    0    0    0 -0.00000000000E+00 -0.00000000000E+00 -0.10000000000E+04  0.10000000000E+04  0.00000000000E+00 0.  1.
    9000005    2    1    2  501    0  0.25142422307E+02 -0.34366750583E+02 -0.52942859074E+03  0.53122886074E+03  0.98109550962E+01 0.  0.
         13    1    3    3    0    0  0.12576226200E+02 -0.22531088159E+02 -0.27157294551E+03  0.27279603394E+03  0.00000000000E+00 0.  1.
          1    1    3    3  501    0  0.12566196107E+02 -0.11835662424E+02 -0.25785564523E+03  0.25843282680E+03  0.00000000000E+00 0.  1.
         -1    1    1    2    0  502 -0.25142422307E+02  0.34366750583E+02 -0.46870612318E+03  0.47063642534E+03  0.00000000000E+00 0. -1.
<mgrwt>
<rscale>  1 0.30000000E+03</rscale>
<asrwt>0</asrwt>
<pdfrwt beam="1">  1       21 0.67828728E-02 0.30000000E+03</pdfrwt>
<pdfrwt beam="2">0</pdfrwt>
<totfact> 0.17043664E+04</totfact>
</mgrwt>
</event>
<event>
 6    1  0.1198667E-001  0.3000000E+03  0.7818608E-02  0.1093470E+00
         21   -1    0    0  501  502  0.00000000000E+00  0.00000000000E+00  0.12363724204E+01  0.12363724204E+01  0.00000000000E+00 0. -1.
         13   -1    0    0    0    0 -0.00000000000E+00 -0.00000000000E+00 -0.10000000000E+04  0.10000000000E+04  0.00000000000E+00 0.  1.
    9000005    2    1    2  501    0 -0.24164736494E+02  0.21851310218E+02 -0.68579780047E+03  0.68657937951E+03  0.33476847057E+01 0.  0.
         13    1    3    3    0    0 -0.21023010256E+02  0.20292860273E+02 -0.60366564151E+03  0.60437238014E+03  0.00000000000E+00 0.  1.
          1    1    3    3  501    0 -0.31417262378E+01  0.15584499447E+01 -0.82132158959E+02  0.82206999369E+02  0.00000000000E+00 0.  1.
         -3    1    1    2    0  502  0.24164736494E+02 -0.21851310218E+02 -0.31296582711E+03  0.31465699291E+03  0.00000000000E+00 0. -1.
<mgrwt>
<rscale>  1 0.30000000E+03</rscale>
<asrwt>0</asrwt>
<pdfrwt beam="1">  1       21 0.44959092E-02 0.30000000E+03</pdfrwt>
<pdfrwt beam="2">0</pdfrwt>
<totfact> 0.34511407E+04</totfact>
</mgrwt>
</event>
<event>
 6    1  0.1198667E-001  0.3000000E+03  0.7818608E-02  0.1093470E+00
         21   -1    0    0  501  502  0.00000000000E+00  0.00000000000E+00  0.48831205861E+01  0.48831205861E+01  0.00000000000E+00 0. -1.
         13   -1    0    0    0    0 -0.00000000000E+00 -0.00000000000E+00 -0.10000000000E+04  0.10000000000E+04  0.00000000000E+00 0.  1.
    9000005    2    1    2  501    0  0.47060364083E+02  0.99937249287E+00 -0.86878752656E+03  0.87006924146E+03  0.36113727385E+01 0.  0.
         13    1    3    3    0    0  0.86153058451E+01  0.10898001330E+01 -0.18068661635E+03  0.18089517541E+03  0.00000000000E+00 0.  1.
          3    1    3    3  501    0  0.38445058237E+02 -0.90427640153E-01 -0.68810091021E+03  0.68917406605E+03  0.00000000000E+00 0.  1.
         -1    1    1    2    0  502 -0.47060364083E+02 -0.99937249287E+00 -0.12632935286E+03  0.13481387913E+03  0.00000000000E+00 0. -1.
<mgrwt>
<rscale>  1 0.30000000E+03</rscale>
<asrwt>0</asrwt>
<pdfrwt beam="1">  1       21 0.17756840E-01 0.30000000E+03</pdfrwt>
<pdfrwt beam="2">0</pdfrwt>
<totfact> 0.30055107E+03</totfact>
</mgrwt>
</event>
<event>
 6    1  0.1198667E-001  0.3000000E+03  0.7818608E-02  0.1093470E+00
         21   -1    0    0  501  502  0.00000000000E+00  0.00000000000E+00  0.15717098890E+01  0.15717098890E+01  0.00000000000E+00 0. -1.
         13   -1    0    0    0    0 -0.00000000000E+00 -0.00000000000E+00 -0.10000000000E+04  0.10000000000E+04  0.00000000000E+00 0.  1.
    9000005    2    1    2  501    0 -0.14734095933E+02 -0.35575215793E+02 -0.61582727087E+03  0.61703792790E+03  0.31444182101E+01 0.  0.
         13    1    3    3    0    0 -0.21930001558E+01 -0.87215019097E+01 -0.14667033619E+03  0.14694577695E+03  0.00000000000E+00 0.  1.
          3    1    3    3  501    0 -0.12541095777E+02 -0.26853713883E+02 -0.46915693468E+03  0.47009215096E+03  0.00000000000E+00 0.  1.
         -1    1    1    2    0  502  0.14734095933E+02  0.35575215793E+02 -0.38260101924E+03  0.38453378199E+03  0.00000000000E+00 0. -1.
<mgrwt>
<rscale>  1 0.30000000E+03</rscale>
<asrwt>0</asrwt>
<pdfrwt beam="1">  1       21 0.57153207E-02 0.30000000E+03</pdfrwt>
<pdfrwt beam="2">0</pdfrwt>
<totfact> 0.22912249E+04</totfact>
</mgrwt>
</event>
<event>
 6    1  0.1198667E-001  0.3000000E+03  0.7818608E-02  0.1093470E+00
         21   -1    0    0  501  502  0.00000000000E+00  0.00000000000E+00  0.25022762112E+01  0.25022762112E+01  0.00000000000E+00 0. -1.
         13   -1    0    0    0    0 -0.00000000000E+00 -0.00000000000E+00 -0.10000000000E+04  0.10000000000E+04  0.00000000000E+00 0.  1.
    9000005    2    1    2  501    0 -0.31235276908E+02  0.29897580071E+02 -0.75064185623E+03  0.75188837563E+03  0.18507462245E+01 0.  0.
         13    1    3    3    0    0 -0.26650153638E+02  0.26259462071E+02 -0.64329965875E+03  0.64438671695E+03  0.00000000000E+00 0.  1.
          3    1    3    3  501    0 -0.45851232697E+01  0.36381180000E+01 -0.10734219749E+03  0.10750165868E+03  0.00000000000E+00 0.  1.
         -1    1    1    2    0  502  0.31235276908E+02 -0.29897580071E+02 -0.24685586755E+03  0.25061390058E+03  0.00000000000E+00 0. -1.
<mgrwt>
<rscale>  1 0.30000000E+03</rscale>
<asrwt>0</asrwt>
<pdfrwt beam="1">  1       21 0.90992054E-02 0.30000000E+03</pdfrwt>
<pdfrwt beam="2">0</pdfrwt>
<totfact> 0.10178372E+04</totfact>
</mgrwt>
</event>
<event>
 6    1  0.1198667E-001  0.3000000E+03  0.7818608E-02  0.1093470E+00
         21   -1    0    0  501  502  0.00000000000E+00  0.00000000000E+00  0.36028197612E+01  0.36028197612E+01  0.00000000000E+00 0. -1.
         13   -1    0    0    0    0 -0.00000000000E+00 -0.00000000000E+00 -0.10000000000E+04  0.10000000000E+04  0.00000000000E+00 0.  1.
    9000005    2    1    2  501    0 -0.79600029228E+01  0.59339688636E+02 -0.52839976954E+03  0.53179127188E+03  0.33286788618E+01 0.  0.
         13    1    3    3    0    0 -0.75880514744E+01  0.55004259996E+02 -0.48187649785E+03  0.48506495062E+03  0.00000000000E+00 0.  1.
          1    1    3    3  501    0 -0.37195144847E+00  0.43354286398E+01 -0.46523271697E+02  0.46726321263E+02  0.00000000000E+00 0.  1.
         -1    1    1    2    0  502  0.79600029228E+01 -0.59339688636E+02 -0.46799741070E+03  0.47181154788E+03  0.00000000000E+00 0. -1.
<mgrwt>
<rscale>  1 0.30000000E+03</rscale>
<asrwt>0</asrwt>
<pdfrwt beam="1">  1       21 0.13101190E-01 0.30000000E+03</pdfrwt>
<pdfrwt beam="2">0</pdfrwt>
<totfact> 0.52811924E+03</totfact>
</mgrwt>
</event>
<event>
 6    1  0.1198667E-001  0.3000000E+03  0.7818608E-02  0.1093470E+00
         21   -1    0    0  501  502  0.00000000000E+00  0.00000000000E+00  0.17278646911E+01  0.17278646911E+01  0.00000000000E+00 0. -1.
         13   -1    0    0    0    0 -0.00000000000E+00 -0.00000000000E+00 -0.10000000000E+04  0.10000000000E+04  0.00000000000E+00 0.  1.
    9000005    2    1    2  501    0 -0.39689868385E+02 -0.16537082926E+01 -0.64392146645E+03  0.64515751129E+03  0.39165055362E+01 0.  0.
         13    1    3    3    0    0 -0.12092246265E+02  0.12321846436E+01 -0.18838546761E+03  0.18877718375E+03  0.00000000000E+00 0.  1.
          1    1    3    3  501    0 -0.27597622121E+02 -0.28858929362E+01 -0.45553599884E+03  0.45638032754E+03  0.00000000000E+00 0.  1.
         -3    1    1    2    0  502  0.39689868385E+02  0.16537082926E+01 -0.35435066886E+03  0.35657035340E+03  0.00000000000E+00 0. -1.
<mgrwt>
<rscale>  1 0.30000000E+03</rscale>
<asrwt>0</asrwt>
<pdfrwt beam="1">  1       21 0.62831576E-02 0.30000000E+03</pdfrwt>
<pdfrwt beam="2">0</pdfrwt>
<totfact> 0.19459235E+04</totfact>
</mgrwt>
</event>
<event>
 6    1  0.1198667E-001  0.3000000E+03  0.7818608E-02  0.1093470E+00
         21   -1    0    0  501  502  0.00000000000E+00  0.00000000000E+00  0.96131637875E+00  0.96131637875E+00  0.00000000000E+00 0. -1.
         13   -1    0    0    0    0 -0.00000000000E+00 -0.00000000000E+00 -0.10000000000E+04  0.10000000000E+04  0.00000000000E+00 0.  1.
    9000005    2    1    2  501    0 -0.28348429264E+02 -0.12120463169E+02 -0.46264255930E+03  0.46367988058E+03  0.32179042953E+01 0.  0.
         13    1    3    3    0    0 -0.19025737503E+02 -0.79673997658E+01 -0.33121842792E+03  0.33186006861E+03  0.00000000000E+00 0.  1.
          1    1    3    3  501    0 -0.93226917612E+01 -0.41530634034E+01 -0.13142413138E+03  0.13181981197E+03  0.00000000000E+00 0.  1.
         -1    1    1    2    0  502  0.28348429264E+02  0.12120463169E+02 -0.53639612432E+03  0.53728143580E+03  0.00000000000E+00 0. -1.
<mgrwt>
<rscale>  1 0.30000000E+03</rscale>
<asrwt>0</asrwt>
<pdfrwt beam="1">  1       21 0.34957033E-02 0.30000000E+03</pdfrwt>
<pdfrwt beam="2">0</pdfrwt>
<totfact> 0.52725141E+04</totfact>
</mgrwt>
</event>
<event>
 6    1  0.1198667E-001  0.3000000E+03  0.7818608E-02  0.1093470E+00
         21   -1    0    0  501  502  0.00000000000E+00  0.00000000000E+00  0.15494617352E+01  0.15494617352E+01  0.00000000000E+00 0. -1.
         13   -1    0    0    0    0 -0.00000000000E+00 -0.00000000000E+00 -0.10000000000E+04  0.10000000000E+04  0.00000000000E+00 0.  1.
    9000005    2    1    2  501    0 -0.25533802271E+02  0.28124142290E+02 -0.62813393498E+03  0.62928970148E+03  0.32164694303E+01 0.  0.
         13    1    3    3    0    0 -0.22648681143E+02  0.23414571645E+02 -0.54448138287E+03  0.54545502217E+03  0.00000000000E+00 0.  1.
          3    1    3    3  501    0 -0.28851211279E+01  0.47095706454E+01 -0.83652552119E+02  0.83834679313E+02  0.00000000000E+00 0.  1.
         -3    1    1    2    0  502  0.25533802271E+02 -0.28124142290E+02 -0.37031660328E+03  0.37225976025E+03  0.00000000000E+00 0. -1.
<mgrwt>
<rscale>  1 0.30000000E+03</rscale>
<asrwt>0</asrwt>
<pdfrwt beam="1">  1       21 0.56344182E-02 0.30000000E+03</pdfrwt>
<pdfrwt beam="2">0</pdfrwt>
<totfact> 0.23480660E+04</totfact>
</mgrwt>
</event>
<event>
 6    1  0.1198667E-001  0.3000000E+03  0.7818608E-02  0.1093470E+00
         21   -1    0    0  501  502  0.00000000000E+00  0.00000000000E+00  0.13763695605E+01  0.13763695605E+01  0.00000000000E+00 0. -1.
         13   -1    0    0    0    0 -0.00000000000E+00 -0.00000000000E+00 -0.10000000000E+04  0.10000000000E+04  0.00000000000E+00 0.  1.
    9000005    2    1    2  501    0  0.28742833218E+02  0.13521668715E+02 -0.24420866991E+03  0.24629298432E+03  0.36570046329E+01 0.  0.
         13    1    3    3    0    0  0.59331027385E+01  0.38346292846E+01 -0.45538574297E+02  0.46083270705E+02  0.00000000000E+00 0.  1.
          3    1    3    3  501    0  0.22809730479E+02  0.96870394300E+01 -0.19867009561E+03  0.20020971362E+03  0.00000000000E+00 0.  1.
         -1    1    1    2    0  502 -0.28742833218E+02 -0.13521668715E+02 -0.75441496053E+03  0.75508338524E+03  0.00000000000E+00 0. -1.
<mgrwt>
<rscale>  1 0.30000000E+03</rscale>
<asrwt>0</asrwt>
<pdfrwt beam="1">  1       21 0.50049908E-02 0.30000000E+03</pdfrwt>
<pdfrwt beam="2">0</pdfrwt>
<totfact> 0.28755707E+04</totfact>
</mgrwt>
</event>
<event>
 6    1  0.1198667E-001  0.3000000E+03  0.7818608E-02  0.1093470E+00
         21   -1    0    0  501  502  0.00000000000E+00  0.00000000000E+00  0.11398473888E+01  0.11398473888E+01  0.00000000000E+00 0. -1.
         13   -1    0    0    0    0 -0.00000000000E+00 -0.00000000000E+00 -0.10000000000E+04  0.10000000000E+04  0.00000000000E+00 0.  1.
    9000005    2    1    2  501    0  0.29070401524E+02 -0.78714810679E+01 -0.72422960214E+03  0.72486283475E+03  0.32502509214E+01 0.  0.
         13    1    3    3    0    0  0.25319695123E+01 -0.24656009505E+00 -0.83058372012E+02  0.83097321394E+02  0.00000000000E+00 0.  1.
          3    1    3    3  501    0  0.26538432012E+02 -0.76249209728E+01 -0.64117123013E+03  0.64176551336E+03  0.00000000000E+00 0.  1.
         -3    1    1    2    0  502 -0.29070401524E+02  0.78714810679E+01 -0.27463055047E+03  0.27627701264E+03  0.00000000000E+00 0. -1.
<mgrwt>
<rscale>  1 0.30000000E+03</rscale>
<asrwt>0</asrwt>
<pdfrwt beam="1">  1       21 0.41449083E-02 0.30000000E+03</pdfrwt>
<pdfrwt beam="2">0</pdfrwt>
<totfact> 0.39599268E+04</totfact>
</mgrwt>
</event>
<event>
 6    1  0.1198667E-001  0.3000000E+03  0.7818608E-02  0.1093470E+00
         21   -1    0    0  501  502  0.00000000000E+00  0.00000000000E+00  0.47244727724E+01  0.47244727724E+01  0.00000000000E+00 0. -1.
         13   -1    0    0    0    0 -0.00000000000E+00 -0.00000000000E+00 -0.10000000000E+04  0.10000000000E+04  0.00000000000E+00 0.  1.
    9000005    2    1    2  501    0  0.34364114569E+02  0.53827029695E+01 -0.93088191889E+03  0.93153702401E+03  0.31959861819E+01 0.  0.
         13    1    3    3    0    0  0.46557234460E+01  0.22051285404E+00 -0.10103559534E+03  0.10114304678E+03  0.00000000000E+00 0.  1.
          1    1    3    3  501    0  0.29708391123E+02  0.51621901154E+01 -0.82984632355E+03  0.83039397723E+03  0.00000000000E+00 0.  1.
         -3    1    1    2    0  502 -0.34364114569E+02 -0.53827029695E+01 -0.64393608342E+02  0.73187448764E+02  0.00000000000E+00 0. -1.
<mgrwt>
<rscale>  1 0.30000000E+03</rscale>
<asrwt>0</asrwt>
<pdfrwt beam="1">  1       21 0.17179937E-01 0.30000000E+03</pdfrwt>
<pdfrwt beam="2">0</pdfrwt>
<totfact> 0.31978036E+03</totfact>
</mgrwt>
</event>
<event>
 6    1  0.1198667E-001  0.3000000E+03  0.7818608E-02  0.1093470E+00
         21   -1    0    0  501  502  0.00000000000E+00  0.00000000000E+00  0.12724019358E+01  0.12724019358E+01  0.00000000000E+00 0. -1.
         13   -1    0    0    0    0 -0.00000000000E+00 -0.00000000000E+00 -0.10000000000E+04  0.10000000000E+04  0.00000000000E+00 0.  1.
    9000005    2    1    2  501    0 -0.19928965036E+02  0.28040058425E+02 -0.62693746385E+03  0.62789415884E+03  0.41331094296E+01 0.  0.
         13    1    3    3    0    0 -0.71709666735E+01  0.70978703009E+01 -0.19605760949E+03  0.19631706182E+03  0.00000000000E+00 0.  1.
          3    1    3    3  501    0 -0.12757998362E+02  0.20942188124E+02 -0.43087985437E+03  0.43157709701E+03  0.00000000000E+00 0.  1.
         -3    1    1    2    0  502  0.19928965036E+02 -0.28040058425E+02 -0.37179013421E+03  0.37337824310E+03  0.00000000000E+00 0. -1.
<mgrwt>
<rscale>  1 0.30000000E+03</rscale>
<asrwt>0</asrwt>
<pdfrwt beam="1">  1       21 0.46269259E-02 0.30000000E+03</pdfrwt>
<pdfrwt beam="2">0</pdfrwt>
<totfact> 0.32868216E+04</totfact>
</mgrwt>
</event>
<event>
 6    1  0.1198667E-001  0.3000000E+03  0.7818608E-02  0.1093470E+00
         21   -1    0    0  501  502  0.00000000000E+00  0.00000000000E+00  0.58449132771E+01  0.58449132771E+01  0.00000000000E+00 0. -1.
         13   -1    0    0    0    0 -0.00000000000E+00 -0.00000000000E+00 -0.10000000000E+04  0.10000000000E+04  0.00000000000E+00 0.  1.
    9000005    2    1    2  501    0  0.33843899805E+02  0.37792174964E+02 -0.87312516325E+03  0.87461267479E+03  0.51109842335E+01 0.  0.
         13    1    3    3    0    0  0.16137070701E+02  0.19861388046E+02 -0.40145871535E+03  0.40227351382E+03  0.00000000000E+00 0.  1.
          3    1    3    3  501    0  0.17706829104E+02  0.17930786918E+02 -0.47166644790E+03  0.47233916098E+03  0.00000000000E+00 0.  1.
         -1    1    1    2    0  502 -0.33843899805E+02 -0.37792174964E+02 -0.12102992347E+03  0.13123223849E+03  0.00000000000E+00 0. -1.
<mgrwt>
<rscale>  1 0.30000000E+03</rscale>
<asrwt>0</asrwt>
<pdfrwt beam="1">  1       21 0.21254275E-01 0.30000000E+03</pdfrwt>
<pdfrwt beam="2">0</pdfrwt>
<totfact> 0.21355540E+03</totfact>
</mgrwt>
</event>
<event>
 6    1  0.1198667E-001  0.3000000E+03  0.7818608E-02  0.1093470E+00
         21   -1    0    0  501  502  0.00000000000E+00  0.00000000000E+00  0.40808264158E+01  0.40808264158E+01  0.00000000000E+00 0. -1.
         13   -1    0    0    0    0 -0.00000000000E+00 -0.00000000000E+00 -0.10000000000E+04  0.10000000000E+04  0.00000000000E+00 0.  1.
    9000005    2    1    2  501    0 -0.62606388193E+02  0.11544004445E+02 -0.52686938171E+03  0.53073050040E+03  0.55402879788E+01 0.  0.
         13    1    3    3    0    0 -0.13463993672E+02  0.20647743793E+01 -0.13240460231E+03  0.13310342269E+03  0.00000000000E+00 0.  1.
          1    1    3    3  501    0 -0.49142394521E+02  0.94792300661E+01 -0.39446477939E+03  0.39762707770E+03  0.00000000000E+00 0.  1.
         -1    1    1    2    0  502  0.62606388193E+02 -0.11544004445E+02 -0.46904979188E+03  0.47335032602E+03  0.00000000000E+00 0. -1.
<mgrwt>
<rscale>  1 0.30000000E+03</rscale>
<asrwt>0</asrwt>
<pdfrwt beam="1">  1       21 0.14839400E-01 0.30000000E+03</pdfrwt>
<pdfrwt beam="2">0</pdfrwt>
<totfact> 0.42008520E+03</totfact>
</mgrwt>
</event>
<event>
 6    1  0.1198667E-001  0.3000000E+03  0.7818608E-02  0.1093470E+00
         21   -1    0    0  501  502  0.00000000000E+00  0.00000000000E+00  0.99239837297E+00  0.99239837297E+00  0.00000000000E+00 0. -1.
         13   -1    0    0    0    0 -0.00000000000E+00 -0.00000000000E+00 -0.10000000000E+04  0.10000000000E+04  0.00000000000E+00 0.  1.
    9000005    2    1    2  501    0 -0.47494115208E+01 -0.29970433020E+02 -0.63110554772E+03  0.63184106757E+03  0.28528124467E+01 0.  0.
         13    1    3    3    0    0 -0.37665936604E+01 -0.18725734154E+02 -0.41963969303E+03  0.42007417478E+03  0.00000000000E+00 0.  1.
          1    1    3    3  501    0 -0.98281786038E+00 -0.11244698866E+02 -0.21146585469E+03  0.21176689279E+03  0.00000000000E+00 0.  1.
         -3    1    1    2    0  502  0.47494115208E+01  0.29970433020E+02 -0.36790205390E+03  0.36915133080E+03  0.00000000000E+00 0. -1.
<mgrwt>
<rscale>  1 0.30000000E+03</rscale>
<asrwt>0</asrwt>
<pdfrwt beam="1">  1       21 0.36087290E-02 0.30000000E+03</pdfrwt>
<pdfrwt beam="2">0</pdfrwt>
<totfact> 0.49986884E+04</totfact>
</mgrwt>
</event>
<event>
 6    1  0.1198667E-001  0.3000000E+03  0.7818608E-02  0.1093470E+00
         21   -1    0    0  501  502  0.00000000000E+00  0.00000000000E+00  0.11168618633E+01  0.11168618633E+01  0.00000000000E+00 0. -1.
         13   -1    0    0    0    0 -0.00000000000E+00 -0.00000000000E+00 -0.10000000000E+04  0.10000000000E+04  0.00000000000E+00 0.  1.
    9000005    2    1    2  501    0  0.27499962212E+02 -0.15545518696E+02 -0.65697538325E+03  0.65775288017E+03  0.49280930373E+01 0.  0.
         13    1    3    3    0    0  0.79355350430E+01 -0.37504894550E+01 -0.22909597623E+03  0.22926405128E+03  0.00000000000E+00 0.  1.
          3    1    3    3  501    0  0.19564427169E+02 -0.11795029241E+02 -0.42787940703E+03  0.42848882889E+03  0.00000000000E+00 0.  1.
         -1    1    1    2    0  502 -0.27499962212E+02  0.15545518696E+02 -0.34190775488E+03  0.34336398169E+03  0.00000000000E+00 0. -1.
<mgrwt>
<rscale>  1 0.30000000E+03</rscale>
<asrwt>0</asrwt>
<pdfrwt beam="1">  1       21 0.40613244E-02 0.30000000E+03</pdfrwt>
<pdfrwt beam="2">0</pdfrwt>
<totfact> 0.40983253E+04</totfact>
</mgrwt>
</event>
<event>
 6    1  0.1198667E-001  0.3000000E+03  0.7818608E-02  0.1093470E+00
         21   -1    0    0  501  502  0.00000000000E+00  0.00000000000E+00  0.53850328835E+01  0.53850328835E+01  0.00000000000E+00 0. -1.
         13   -1    0    0    0    0 -0.00000000000E+00 -0.00000000000E+00 -0.10000000000E+04  0.10000000000E+04  0.00000000000E+00 0.  1.
    9000005    2    1    2  501    0 -0.27247048476E+02  0.59536719841E+02 -0.72393998228E+03  0.72690348938E+03  0.35443276254E+01 0.  0.
         13    1    3    3    0    0 -0.10589765502E+02  0.27228861172E+02 -0.31754928473E+03  0.31889042358E+03  0.00000000000E+00 0.  1.
          1    1    3    3  501    0 -0.16657282974E+02  0.32307858668E+02 -0.40639069755E+03  0.40801306580E+03  0.00000000000E+00 0.  1.
         -1    1    1    2    0  502  0.27247048476E+02 -0.59536719841E+02 -0.27067498483E+03  0.27848154351E+03  0.00000000000E+00 0. -1.
<mgrwt>
<rscale>  1 0.30000000E+03</rscale>
<asrwt>0</asrwt>
<pdfrwt beam="1">  1       21 0.19581979E-01 0.30000000E+03</pdfrwt>
<pdfrwt beam="2">0</pdfrwt>
<totfact> 0.24977859E+03</totfact>
</mgrwt>
</event>
<event>
 6    1  0.1198667E-001  0.3000000E+03  0.7818608E-02  0.1093470E+00
         21   -1    0    0  501  502  0.00000000000E+00  0.00000000000E+00  0.14707623344E+01  0.14707623344E+01  0.00000000000E+00 0. -1.
         13   -1    0    0    0    0 -0.00000000000E+00 -0.00000000000E+00 -0.10000000000E+04  0.10000000000E+04  0.00000000000E+00 0.  1.
    9000005    2    1    2  501    0 -0.37433672206E+02 -0.72055943143E+01 -0.48275034886E+03  0.48428504855E+03  0.55595432473E+01 0.  0.
         13    1    3    3    0    0 -0.15878188637E+02 -0.29561263480E+00 -0.20367859021E+03  0.20429677523E+03  0.00000000000E+00 0.  1.
          1    1    3    3  501    0 -0.21555483570E+02 -0.69099816795E+01 -0.27907175865E+03  0.27998827332E+03  0.00000000000E+00 0.  1.
         -1    1    1    2    0  502  0.37433672206E+02  0.72055943143E+01 -0.51577888881E+03  0.51718571379E+03  0.00000000000E+00 0. -1.
<mgrwt>
<rscale>  1 0.30000000E+03</rscale>
<asrwt>0</asrwt>
<pdfrwt beam="1">  1       21 0.53482379E-02 0.30000000E+03</pdfrwt>
<pdfrwt beam="2">0</pdfrwt>
<totfact> 0.25675774E+04</totfact>
</mgrwt>
</event>
<event>
 6    1  0.1198667E-001  0.3000000E+03  0.7818608E-02  0.1093470E+00
         21   -1    0    0  501  502  0.00000000000E+00  0.00000000000E+00  0.15514148359E+01  0.15514148359E+01  0.00000000000E+00 0. -1.
         13   -1    0    0    0    0 -0.00000000000E+00 -0.00000000000E+00 -0.10000000000E+04  0.10000000000E+04  0.00000000000E+00 0.  1.
    9000005    2    1    2  501    0 -0.30218375168E+02 -0.97408309867E+01 -0.79422180879E+03  0.79487144441E+03  0.49292594558E+01 0.  0.
         13    1    3    3    0    0 -0.19293675449E+02 -0.39192539127E+01 -0.46300579634E+03  0.46342418355E+03  0.00000000000E+00 0.  1.
          1    1    3    3  501    0 -0.10924699718E+02 -0.58215770740E+01 -0.33121601245E+03  0.33144726085E+03  0.00000000000E+00 0.  1.
         -3    1    1    2    0  502  0.30218375168E+02  0.97408309867E+01 -0.20422677638E+03  0.20667997043E+03  0.00000000000E+00 0. -1.
<mgrwt>
<rscale>  1 0.30000000E+03</rscale>
<asrwt>0</asrwt>
<pdfrwt beam="1">  1       21 0.56415204E-02 0.30000000E+03</pdfrwt>
<pdfrwt beam="2">0</pdfrwt>
<totfact> 0.23429900E+04</totfact>
</mgrwt>
</event>
<event>
 6    1  0.1198667E-001  0.3000000E+03  0.7818608E-02  0.1093470E+00
         21   -1    0    0  501  502  0.00000000000E+00  0.00000000000E+00  0.15004674414E+01  0.15004674414E+01  0.00000000000E+00 0. -1.
         13   -1    0    0    0    0 -0.00000000000E+00 -0.00000000000E+00 -0.10000000000E+04  0.10000000000E+04  0.00000000000E+00 0.  1.
    9000005    2    1    2  501    0  0.91062201504E+01  0.31663821587E+02 -0.76139014646E+03  0.76211295353E+03  0.39595405945E+01 0.  0.
         13    1    3    3    0    0  0.41970516171E+01  0.14435882315E+02 -0.30260517859E+03  0.30297838875E+03  0.00000000000E+00 0.  1.
          3    1    3    3  501    0  0.49091685333E+01  0.17227939271E+02 -0.45878496788E+03  0.45913456478E+03  0.00000000000E+00 0.  1.
         -3    1    1    2    0  502 -0.91062201504E+01 -0.31663821587E+02 -0.23710938609E+03  0.23938751391E+03  0.00000000000E+00 0. -1.
<mgrwt>
<rscale>  1 0.30000000E+03</rscale>
<asrwt>0</asrwt>
<pdfrwt beam="1">  1       21 0.54562567E-02 0.30000000E+03</pdfrwt>
<pdfrwt beam="2">0</pdfrwt>
<totfact> 0.24811452E+04</totfact>
</mgrwt>
</event>
<event>
 6    1  0.1198667E-001  0.3000000E+03  0.7818608E-02  0.1093470E+00
         21   -1    0    0  501  502  0.00000000000E+00  0.00000000000E+00  0.50172923821E+01  0.50172923821E+01  0.00000000000E+00 0. -1.
         13   -1    0    0    0    0 -0.00000000000E+00 -0.00000000000E+00 -0.10000000000E+04  0.10000000000E+04  0.00000000000E+00 0.  1.
    9000005    2    1    2  501    0 -0.29827733673E+02  0.33520104497E+02 -0.88578611258E+03  0.88696142650E+03  0.83811547858E+01 0.  0.
         13    1    3    3    0    0 -0.46127298578E+01  0.86169915529E+01 -0.24657417636E+03  0.24676781449E+03  0.00000000000E+00 0.  1.
          1    1    3    3  501    0 -0.25215003816E+02  0.24903112944E+02 -0.63921193622E+03  0.64019361201E+03  0.00000000000E+00 0.  1.
         -1    1    1    2    0  502  0.29827733673E+02 -0.33520104497E+02 -0.10919659504E+03  0.11805586588E+03  0.00000000000E+00 0. -1.
<mgrwt>
<rscale>  1 0.30000000E+03</rscale>
<asrwt>0</asrwt>
<pdfrwt beam="1">  1       21 0.18244738E-01 0.30000000E+03</pdfrwt>
<pdfrwt beam="2">0</pdfrwt>
<totfact> 0.28559241E+03</totfact>
</mgrwt>
</event>
<event>
 6    1  0.1198667E-001  0.3000000E+03  0.7818608E-02  0.1093470E+00
         21   -1    0    0  501  502  0.00000000000E+00  0.00000000000E+00  0.16505930818E+01  0.16505930818E+01  0.00000000000E+00 0. -1.
         13   -1    0    0    0    0 -0.00000000000E+00 -0.00000000000E+00 -0.10000000000E+04  0.10000000000E+04  0.00000000000E+00 0.  1.
    9000005    2    1    2  501    0 -0.35621948284E+02 -0.16265120114E+02 -0.63070268654E+03  0.63192422353E+03  0.29779443007E+01 0.  0.
         13    1    3    3    0    0 -0.30544284928E+02 -0.12769021837E+02 -0.52938208834E+03  0.53041624854E+03  0.00000000000E+00 0.  1.
          3    1    3    3  501    0 -0.50776633565E+01 -0.34960982763E+01 -0.10132059820E+03  0.10150797500E+03  0.00000000000E+00 0.  1.
         -3    1    1    2    0  502  0.35621948284E+02  0.16265120114E+02 -0.36764672038E+03  0.36972636955E+03  0.00000000000E+00 0. -1.
<mgrwt>
<rscale>  1 0.30000000E+03</rscale>
<asrwt>0</asrwt>
<pdfrwt beam="1">  1       21 0.60021693E-02 0.30000000E+03</pdfrwt>
<pdfrwt beam="2">0</pdfrwt>
<totfact> 0.21058532E+04</totfact>
</mgrwt>
</event>
<event>
 6    1  0.1198667E-001  0.3000000E+03  0.7818608E-02  0.1093470E+00
         21   -1    0    0  501  502  0.00000000000E+00  0.00000000000E+00  0.22100472393E+01  0.22100472393E+01  0.00000000000E+00 0. -1.
         13   -1    0    0    0    0 -0.00000000000E+00 -0.00000000000E+00 -0.10000000000E+04  0.10000000000E+04  0.00000000000E+00 0.  1.
    9000005    2    1    2  501    0  0.32574129902E+02 -0.17304612470E+02 -0.80921085880E+03  0.81005750828E+03  0.32294210695E+01 0.  0.
         13    1    3    3    0    0  0.29629593294E+02 -0.14734712447E+02 -0.71376149445E+03  0.71452816285E+03  0.00000000000E+00 0.  1.
          1    1    3    3  501    0  0.29445366082E+01 -0.25699000232E+01 -0.95449364351E+02  0.95529345423E+02  0.00000000000E+00 0.  1.
         -3    1    1    2    0  502 -0.32574129902E+02  0.17304612470E+02 -0.18857909396E+03  0.19215253896E+03  0.00000000000E+00 0. -1.
<mgrwt>
<rscale>  1 0.30000000E+03</rscale>
<asrwt>0</asrwt>
<pdfrwt beam="1">  1       21 0.80365524E-02 0.30000000E+03</pdfrwt>
<pdfrwt beam="2">0</pdfrwt>
<totfact> 0.12671983E+04</totfact>
</mgrwt>
</event>
<event>
 6    1  0.1198667E-001  0.3000000E+03  0.7818608E-02  0.1093470E+00
         21   -1    0    0  501  502  0.00000000000E+00  0.00000000000E+00  0.17056738807E+01  0.17056738807E+01  0.00000000000E+00 0. -1.
         13   -1    0    0    0    0 -0.00000000000E+00 -0.00000000000E+00 -0.10000000000E+04  0.10000000000E+04  0.00000000000E+00 0.  1.
    9000005    2    1    2  501    0 -0.10794133471E+01 -0.40489462921E+02 -0.40626048016E+03  0.40828791504E+03  0.32988014004E+01 0.  0.
         13    1    3    3    0    0  0.13230233685E+00 -0.99900812165E+01 -0.11453746936E+03  0.11497239284E+03  0.00000000000E+00 0.  1.
          1    1    3    3  501    0 -0.12117156839E+01 -0.30499381705E+02 -0.29172301080E+03  0.29331552221E+03  0.00000000000E+00 0.  1.
         -1    1    1    2    0  502  0.10794133471E+01  0.40489462921E+02 -0.59203384596E+03  0.59341775884E+03  0.00000000000E+00 0. -1.
<mgrwt>
<rscale>  1 0.30000000E+03</rscale>
<asrwt>0</asrwt>
<pdfrwt beam="1">  1       21 0.62024636E-02 0.30000000E+03</pdfrwt>
<pdfrwt beam="2">0</pdfrwt>
<totfact> 0.19898683E+04</totfact>
</mgrwt>
</event>
<event>
 6    1  0.1198667E-001  0.3000000E+03  0.7818608E-02  0.1093470E+00
         21   -1    0    0  501  502  0.00000000000E+00  0.00000000000E+00  0.19906126993E+01  0.19906126993E+01  0.00000000000E+00 0. -1.
         13   -1    0    0    0    0 -0.00000000000E+00 -0.00000000000E+00 -0.10000000000E+04  0.10000000000E+04  0.00000000000E+00 0.  1.
    9000005    2    1    2  501    0 -0.31746167204E+02  0.28336319519E+02 -0.35242245809E+03  0.35500278491E+03  0.38238977121E+01 0.  0.
         13    1    3    3    0    0 -0.13390626664E+02  0.14221884766E+02 -0.16854462065E+03  0.16967280288E+03  0.00000000000E+00 0.  1.
          1    1    3    3  501    0 -0.18355540540E+02  0.14114434752E+02 -0.18387783744E+03  0.18532998203E+03  0.00000000000E+00 0.  1.
         -1    1    1    2    0  502  0.31746167204E+02 -0.28336319519E+02 -0.64558692921E+03  0.64698782779E+03  0.00000000000E+00 0. -1.
<mgrwt>
<rscale>  1 0.30000000E+03</rscale>
<asrwt>0</asrwt>
<pdfrwt beam="1">  1       21 0.72386069E-02 0.30000000E+03</pdfrwt>
<pdfrwt beam="2">0</pdfrwt>
<totfact> 0.15219725E+04</totfact>
</mgrwt>
</event>
<event>
 6    1  0.1198667E-001  0.3000000E+03  0.7818608E-02  0.1093470E+00
         21   -1    0    0  501  502  0.00000000000E+00  0.00000000000E+00  0.75018000313E+01  0.75018000313E+01  0.00000000000E+00 0. -1.
         13   -1    0    0    0    0 -0.00000000000E+00 -0.00000000000E+00 -0.10000000000E+04  0.10000000000E+04  0.00000000000E+00 0.  1.
    9000005    2    1    2  501    0 -0.37632305798E+02  0.27840621568E+02 -0.92005094374E+03  0.92124697070E+03  0.33092727221E+01 0.  0.
         13    1    3    3    0    0 -0.13984212808E+02  0.87052246595E+01 -0.34046943142E+03  0.34086767649E+03  0.00000000000E+00 0.  1.
          1    1    3    3  501    0 -0.23648092990E+02  0.19135396909E+02 -0.57958151232E+03  0.58037929420E+03  0.00000000000E+00 0.  1.
         -1    1    1    2    0  502  0.37632305798E+02 -0.27840621568E+02 -0.72447256227E+02  0.86254829336E+02  0.00000000000E+00 0. -1.
<mgrwt>
<rscale>  1 0.30000000E+03</rscale>
<asrwt>0</asrwt>
<pdfrwt beam="1">  1       21 0.27279330E-01 0.30000000E+03</pdfrwt>
<pdfrwt beam="2">0</pdfrwt>
<totfact> 0.13134894E+03</totfact>
</mgrwt>
</event>
<event>
 6    1  0.1198667E-001  0.3000000E+03  0.7818608E-02  0.1093470E+00
         21   -1    0    0  501  502  0.00000000000E+00  0.00000000000E+00  0.19518859761E+01  0.19518859761E+01  0.00000000000E+00 0. -1.
         13   -1    0    0    0    0 -0.00000000000E+00 -0.00000000000E+00 -0.10000000000E+04  0.10000000000E+04  0.00000000000E+00 0.  1.
    9000005    2    1    2  501    0  0.83737529540E+01  0.42398704476E+02 -0.59968035044E+03  0.60124670140E+03  0.36473779536E+01 0.  0.
         13    1    3    3    0    0  0.25473804078E+01  0.61538679020E+01 -0.93513958760E+02  0.93750838504E+02  0.00000000000E+00 0.  1.
          1    1    3    3  501    0  0.58263725462E+01  0.36244836574E+02 -0.50616639168E+03  0.50749586290E+03  0.00000000000E+00 0.  1.
         -3    1    1    2    0  502 -0.83737529540E+01 -0.42398704476E+02 -0.39836776358E+03  0.40070518457E+03  0.00000000000E+00 0. -1.
<mgrwt>
<rscale>  1 0.30000000E+03</rscale>
<asrwt>0</asrwt>
<pdfrwt beam="1">  1       21 0.70977822E-02 0.30000000E+03</pdfrwt>
<pdfrwt beam="2">0</pdfrwt>
<totfact> 0.15750192E+04</totfact>
</mgrwt>
</event>
<event>
 6    1  0.1198667E-001  0.3000000E+03  0.7818608E-02  0.1093470E+00
         21   -1    0    0  501  502  0.00000000000E+00  0.00000000000E+00  0.31782228146E+01  0.31782228146E+01  0.00000000000E+00 0. -1.
         13   -1    0    0    0    0 -0.00000000000E+00 -0.00000000000E+00 -0.10000000000E+04  0.10000000000E+04  0.00000000000E+00 0.  1.
    9000005    2    1    2  501    0 -0.25041507054E+02 -0.41302075279E+02 -0.75653925770E+03  0.75808920293E+03  0.38278792287E+01 0.  0.
         13    1    3    3    0    0 -0.11443870215E+02 -0.22530011852E+02 -0.39858516335E+03  0.39938539788E+03  0.00000000000E+00 0.  1.
          1    1    3    3  501    0 -0.13597636839E+02 -0.18772063427E+02 -0.35795409435E+03  0.35870380505E+03  0.00000000000E+00 0.  1.
         -1    1    1    2    0  502  0.25041507054E+02  0.41302075279E+02 -0.24028251949E+03  0.24508901989E+03  0.00000000000E+00 0. -1.
<mgrwt>
<rscale>  1 0.30000000E+03</rscale>
<asrwt>0</asrwt>
<pdfrwt beam="1">  1       21 0.11557198E-01 0.30000000E+03</pdfrwt>
<pdfrwt beam="2">0</pdfrwt>
<totfact> 0.66338111E+03</totfact>
</mgrwt>
</event>
<event>
 6    1  0.1198667E-001  0.3000000E+03  0.7818608E-02  0.1093470E+00
         21   -1    0    0  501  502  0.00000000000E+00  0.00000000000E+00  0.17270085825E+01  0.17270085825E+01  0.00000000000E+00 0. -1.
         13   -1    0    0    0    0 -0.00000000000E+00 -0.00000000000E+00 -0.10000000000E+04  0.10000000000E+04  0.00000000000E+00 0.  1.
    9000005    2    1    2  501    0 -0.40602377524E+02 -0.25303944260E+01 -0.47197406101E+03  0.47385816114E+03  0.11273271585E+02 0.  0.
         13    1    3    3    0    0 -0.20253323394E+02 -0.55792124621E+01 -0.27915208803E+03  0.27994144561E+03  0.00000000000E+00 0.  1.
          3    1    3    3  501    0 -0.20349054130E+02  0.30488180361E+01 -0.19282197298E+03  0.19391671553E+03  0.00000000000E+00 0.  1.
         -1    1    1    2    0  502  0.40602377524E+02  0.25303944260E+01 -0.52629893041E+03  0.52786884745E+03  0.00000000000E+00 0. -1.
<mgrwt>
<rscale>  1 0.30000000E+03</rscale>
<asrwt>0</asrwt>
<pdfrwt beam="1">  1       21 0.62800445E-02 0.30000000E+03</pdfrwt>
<pdfrwt beam="2">0</pdfrwt>
<totfact> 0.19475908E+04</totfact>
</mgrwt>
</event>
<event>
 6    1  0.1198667E-001  0.3000000E+03  0.7818608E-02  0.1093470E+00
         21   -1    0    0  501  502  0.00000000000E+00  0.00000000000E+00  0.81341142082E+01  0.81341142082E+01  0.00000000000E+00 0. -1.
         13   -1    0    0    0    0 -0.00000000000E+00 -0.00000000000E+00 -0.10000000000E+04  0.10000000000E+04  0.00000000000E+00 0.  1.
    9000005    2    1    2  501    0 -0.27505540255E+02  0.84079498017E+02 -0.59324461249E+03  0.59981458705E+03  0.35287187190E+01 0.  0.
         13    1    3    3    0    0 -0.26629258334E+02  0.80097592279E+02 -0.56140792734E+03  0.56771788995E+03  0.00000000000E+00 0.  1.
          3    1    3    3  501    0 -0.87628192179E+00  0.39819057375E+01 -0.31836685158E+02  0.32096697107E+02  0.00000000000E+00 0.  1.
         -3    1    1    2    0  502  0.27505540255E+02 -0.84079498017E+02 -0.39862127330E+03  0.40831952716E+03  0.00000000000E+00 0. -1.
<mgrwt>
<rscale>  1 0.30000000E+03</rscale>
<asrwt>0</asrwt>
<pdfrwt beam="1">  1       21 0.29578659E-01 0.30000000E+03</pdfrwt>
<pdfrwt beam="2">0</pdfrwt>
<totfact> 0.11184516E+03</totfact>
</mgrwt>
</event>
<event>
 6    1  0.1198667E-001  0.3000000E+03  0.7818608E-02  0.1093470E+00
         21   -1    0    0  501  502  0.00000000000E+00  0.00000000000E+00  0.12377809412E+01  0.12377809412E+01  0.00000000000E+00 0. -1.
         13   -1    0    0    0    0 -0.00000000000E+00 -0.00000000000E+00 -0.10000000000E+04  0.10000000000E+04  0.00000000000E+00 0.  1.
    9000005    2    1    2  501    0  0.30704250854E+02  0.33013760411E+00 -0.25843873063E+03  0.26027777694E+03  0.33292142247E+01 0.  0.
         13    1    3    3    0    0  0.23495596040E+02 -0.10504613861E+01 -0.19219541300E+03  0.19362908686E+03  0.00000000000E+00 0.  1.
          1    1    3    3  501    0  0.72086548140E+01  0.13805989903E+01 -0.66243317631E+02  0.66648690074E+02  0.00000000000E+00 0.  1.
         -1    1    1    2    0  502 -0.30704250854E+02 -0.33013760411E+00 -0.74032348843E+03  0.74096000400E+03  0.00000000000E+00 0. -1.
<mgrwt>
<rscale>  1 0.30000000E+03</rscale>
<asrwt>0</asrwt>
<pdfrwt beam="1">  1       21 0.45010311E-02 0.30000000E+03</pdfrwt>
<pdfrwt beam="2">0</pdfrwt>
<totfact> 0.34444795E+04</totfact>
</mgrwt>
</event>
<event>
 6    1  0.1198667E-001  0.3000000E+03  0.7818608E-02  0.1093470E+00
         21   -1    0    0  501  502  0.00000000000E+00  0.00000000000E+00  0.23980472369E+01  0.23980472369E+01  0.00000000000E+00 0. -1.
         13   -1    0    0    0    0 -0.00000000000E+00 -0.00000000000E+00 -0.10000000000E+04  0.10000000000E+04  0.00000000000E+00 0.  1.
    9000005    2    1    2  501    0  0.19244277022E+02 -0.35110364869E+02 -0.78700886231E+03  0.78803263569E+03  0.30668624375E+01 0.  0.
         13    1    3    3    0    0  0.95677878253E+01 -0.18035233710E+02 -0.37163362697E+03  0.37219398828E+03  0.00000000000E+00 0.  1.
          1    1    3    3  501    0  0.96764891971E+01 -0.17075131159E+02 -0.41537523534E+03  0.41583864741E+03  0.00000000000E+00 0.  1.
         -3    1    1    2    0  502 -0.19244277022E+02  0.35110364869E+02 -0.21059309046E+03  0.21436541155E+03  0.00000000000E+00 0. -1.
<mgrwt>
<rscale>  1 0.30000000E+03</rscale>
<asrwt>0</asrwt>
<pdfrwt beam="1">  1       21 0.87201902E-02 0.30000000E+03</pdfrwt>
<pdfrwt beam="2">0</pdfrwt>
<totfact> 0.10974502E+04</totfact>
</mgrwt>
</event>
<event>
 6    1  0.1198667E-001  0.3000000E+03  0.7818608E-02  0.1093470E+00
         21   -1    0    0  501  502  0.00000000000E+00  0.00000000000E+00  0.11134541451E+01  0.11134541451E+01  0.00000000000E+00 0. -1.
         13   -1    0    0    0    0 -0.00000000000E+00 -0.00000000000E+00 -0.10000000000E+04  0.10000000000E+04  0.00000000000E+00 0.  1.
    9000005    2    1    2  501    0  0.18526170750E+02 -0.24262651899E+02 -0.69976172345E+03  0.70043496363E+03  0.32822841826E+01 0.  0.
         13    1    3    3    0    0  0.11971511170E+02 -0.13253344722E+02 -0.39196582504E+03  0.39237249677E+03  0.00000000000E+00 0.  1.
          3    1    3    3  501    0  0.65546595806E+01 -0.11009307177E+02 -0.30779589842E+03  0.30806246686E+03  0.00000000000E+00 0.  1.
         -1    1    1    2    0  502 -0.18526170750E+02  0.24262651899E+02 -0.29912482240E+03  0.30067849051E+03  0.00000000000E+00 0. -1.
<mgrwt>
<rscale>  1 0.30000000E+03</rscale>
<asrwt>0</asrwt>
<pdfrwt beam="1">  1       21 0.40489327E-02 0.30000000E+03</pdfrwt>
<pdfrwt beam="2">0</pdfrwt>
<totfact> 0.41194851E+04</totfact>
</mgrwt>
</event>
<event>
 6    1  0.1198667E-001  0.3000000E+03  0.7818608E-02  0.1093470E+00
         21   -1    0    0  501  502  0.00000000000E+00  0.00000000000E+00  0.13407712681E+01  0.13407712681E+01  0.00000000000E+00 0. -1.
         13   -1    0    0    0    0 -0.00000000000E+00 -0.00000000000E+00 -0.10000000000E+04  0.10000000000E+04  0.00000000000E+00 0.  1.
    9000005    2    1    2  501    0  0.30082796583E+02  0.44056389659E+01 -0.77758407818E+03  0.77818475746E+03  0.31833640813E+01 0.  0.
         13    1    3    3    0    0  0.85225222995E+01  0.16526420275E+01 -0.18841235647E+03  0.18861224956E+03  0.00000000000E+00 0.  1.
          1    1    3    3  501    0  0.21560274283E+02  0.27529969383E+01 -0.58917172171E+03  0.58957250791E+03  0.00000000000E+00 0.  1.
         -3    1    1    2    0  502 -0.30082796583E+02 -0.44056389659E+01 -0.22107515055E+03  0.22315601381E+03  0.00000000000E+00 0. -1.
<mgrwt>
<rscale>  1 0.30000000E+03</rscale>
<asrwt>0</asrwt>
<pdfrwt beam="1">  1       21 0.48755422E-02 0.30000000E+03</pdfrwt>
<pdfrwt beam="2">0</pdfrwt>
<totfact> 0.30068606E+04</totfact>
</mgrwt>
</event>
<event>
 6    1  0.1198667E-001  0.3000000E+03  0.7818608E-02  0.1093470E+00
         21   -1    0    0  501  502  0.00000000000E+00  0.00000000000E+00  0.18408845033E+01  0.18408845033E+01  0.00000000000E+00 0. -1.
         13   -1    0    0    0    0 -0.00000000000E+00 -0.00000000000E+00 -0.10000000000E+04  0.10000000000E+04  0.00000000000E+00 0.  1.
    9000005    2    1    2  501    0 -0.33191330655E+01  0.36209230483E+02 -0.76427267499E+03  0.76514489369E+03  0.34440644124E+01 0.  0.
         13    1    3    3    0    0 -0.13172142722E+01  0.80592983044E+01 -0.14547412002E+03  0.14570314663E+03  0.00000000000E+00 0.  1.
          3    1    3    3  501    0 -0.20019187933E+01  0.28149932178E+02 -0.61879855497E+03  0.61944174706E+03  0.00000000000E+00 0.  1.
         -3    1    1    2    0  502  0.33191330655E+01 -0.36209230483E+02 -0.23388644051E+03  0.23669599082E+03  0.00000000000E+00 0. -1.
<mgrwt>
<rscale>  1 0.30000000E+03</rscale>
<asrwt>0</asrwt>
<pdfrwt beam="1">  1       21 0.66941396E-02 0.30000000E+03</pdfrwt>
<pdfrwt beam="2">0</pdfrwt>
<totfact> 0.17437630E+04</totfact>
</mgrwt>
</event>
<event>
 6    1  0.1198667E-001  0.3000000E+03  0.7818608E-02  0.1093470E+00
         21   -1    0    0  501  502  0.00000000000E+00  0.00000000000E+00  0.27473025745E+01  0.27473025745E+01  0.00000000000E+00 0. -1.
         13   -1    0    0    0    0 -0.00000000000E+00 -0.00000000000E+00 -0.10000000000E+04  0.10000000000E+04  0.00000000000E+00 0.  1.
    9000005    2    1    2  501    0  0.38788414837E+02 -0.32517837639E+02 -0.37231919579E+03  0.37576737279E+03  0.41933288716E+01 0.  0.
         13    1    3    3    0    0  0.12549781781E+02 -0.85528805327E+01 -0.10287883835E+03  0.10399376986E+03  0.00000000000E+00 0.  1.
          3    1    3    3  501    0  0.26238633057E+02 -0.23964957106E+02 -0.26944035744E+03  0.27177360293E+03  0.00000000000E+00 0.  1.
         -3    1    1    2    0  502 -0.38788414837E+02  0.32517837639E+02 -0.62493350164E+03  0.62697992979E+03  0.00000000000E+00 0. -1.
<mgrwt>
<rscale>  1 0.30000000E+03</rscale>
<asrwt>0</asrwt>
<pdfrwt beam="1">  1       21 0.99902122E-02 0.30000000E+03</pdfrwt>
<pdfrwt beam="2">0</pdfrwt>
<totfact> 0.86182640E+03</totfact>
</mgrwt>
</event>
<event>
 6    1  0.1198667E-001  0.3000000E+03  0.7818608E-02  0.1093470E+00
         21   -1    0    0  501  502  0.00000000000E+00  0.00000000000E+00  0.42081005552E+01  0.42081005552E+01  0.00000000000E+00 0. -1.
         13   -1    0    0    0    0 -0.00000000000E+00 -0.00000000000E+00 -0.10000000000E+04  0.10000000000E+04  0.00000000000E+00 0.  1.
    9000005    2    1    2  501    0  0.22665605273E+02  0.21616177026E+02 -0.93754878934E+03  0.93807755810E+03  0.32838747054E+01 0.  0.
         13    1    3    3    0    0  0.48373521920E+01  0.31849346298E+01 -0.19588477845E+03  0.19597038095E+03  0.00000000000E+00 0.  1.
          3    1    3    3  501    0  0.17828253081E+02  0.18431242396E+02 -0.74166401090E+03  0.74210717714E+03  0.00000000000E+00 0.  1.
         -3    1    1    2    0  502 -0.22665605273E+02 -0.21616177026E+02 -0.58243110100E+02  0.66130542458E+02  0.00000000000E+00 0. -1.
<mgrwt>
<rscale>  1 0.30000000E+03</rscale>
<asrwt>0</asrwt>
<pdfrwt beam="1">  1       21 0.15302216E-01 0.30000000E+03</pdfrwt>
<pdfrwt beam="2">0</pdfrwt>
<totfact> 0.39685892E+03</totfact>
</mgrwt>
</event>
<event>
 6    1  0.1198667E-001  0.3000000E+03  0.7818608E-02  0.1093470E+00
         21   -1    0    0  501  502  0.00000000000E+00  0.00000000000E+00  0.17691353990E+01  0.17691353990E+01  0.00000000000E+00 0. -1.
         13   -1    0    0    0    0 -0.00000000000E+00 -0.00000000000E+00 -0.10000000000E+04  0.10000000000E+04  0.00000000000E+00 0.  1.
    9000005    2    1    2  501    0  0.19594279850E+02 -0.25149819553E+02 -0.82362116840E+03  0.82427266998E+03  0.75601735692E+01 0.  0.
         13    1    3    3    0    0  0.24136066110E+00 -0.82143089767E+00 -0.60050777725E+01  0.60658027285E+01  0.00000000000E+00 0.  1.
          1    1    3    3  501    0  0.19352919189E+02 -0.24328388655E+02 -0.81761609062E+03  0.81820686725E+03  0.00000000000E+00 0.  1.
         -1    1    1    2    0  502 -0.19594279850E+02  0.25149819553E+02 -0.17460969621E+03  0.17749646542E+03  0.00000000000E+00 0. -1.
<mgrwt>
<rscale>  1 0.30000000E+03</rscale>
<asrwt>0</asrwt>
<pdfrwt beam="1">  1       21 0.64332332E-02 0.30000000E+03</pdfrwt>
<pdfrwt beam="2">0</pdfrwt>
<totfact> 0.18680930E+04</totfact>
</mgrwt>
</event>
<event>
 6    1  0.1198667E-001  0.3000000E+03  0.7818608E-02  0.1093470E+00
         21   -1    0    0  501  502  0.00000000000E+00  0.00000000000E+00  0.11147120217E+01  0.11147120217E+01  0.00000000000E+00 0. -1.
         13   -1    0    0    0    0 -0.00000000000E+00 -0.00000000000E+00 -0.10000000000E+04  0.10000000000E+04  0.00000000000E+00 0.  1.
    9000005    2    1    2  501    0 -0.21766604984E+02  0.21965502362E+02 -0.31502456149E+03  0.31655517362E+03  0.32303584446E+01 0.  0.
         13    1    3    3    0    0 -0.19238975277E+01  0.13199477618E+01 -0.17278205255E+02  0.17435022817E+02  0.00000000000E+00 0.  1.
          1    1    3    3  501    0 -0.19842707456E+02  0.20645554600E+02 -0.29774635624E+03  0.29912015080E+03  0.00000000000E+00 0.  1.
         -3    1    1    2    0  502  0.21766604984E+02 -0.21965502362E+02 -0.68386072649E+03  0.68455953840E+03  0.00000000000E+00 0. -1.
<mgrwt>
<rscale>  1 0.30000000E+03</rscale>
<asrwt>0</asrwt>
<pdfrwt beam="1">  1       21 0.40535068E-02 0.30000000E+03</pdfrwt>
<pdfrwt beam="2">0</pdfrwt>
<totfact> 0.41116547E+04</totfact>
</mgrwt>
</event>
<event>
 6    1  0.1198667E-001  0.3000000E+03  0.7818608E-02  0.1093470E+00
         21   -1    0    0  501  502  0.00000000000E+00  0.00000000000E+00  0.34269612522E+01  0.34269612522E+01  0.00000000000E+00 0. -1.
         13   -1    0    0    0    0 -0.00000000000E+00 -0.00000000000E+00 -0.10000000000E+04  0.10000000000E+04  0.00000000000E+00 0.  1.
    9000005    2    1    2  501    0 -0.27232139973E+02  0.25412698065E+02 -0.88523604735E+03  0.88602457489E+03  0.30484597662E+01 0.  0.
         13    1    3    3    0    0 -0.12234601441E+02  0.12760763044E+02 -0.44721752117E+03  0.44756679254E+03  0.00000000000E+00 0.  1.
          1    1    3    3  501    0 -0.14997538533E+02  0.12651935021E+02 -0.43801852618E+03  0.43845778235E+03  0.00000000000E+00 0.  1.
         -3    1    1    2    0  502  0.27232139973E+02 -0.25412698065E+02 -0.11133699140E+03  0.11740238636E+03  0.00000000000E+00 0. -1.
<mgrwt>
<rscale>  1 0.30000000E+03</rscale>
<asrwt>0</asrwt>
<pdfrwt beam="1">  1       21 0.12461704E-01 0.30000000E+03</pdfrwt>
<pdfrwt beam="2">0</pdfrwt>
<totfact> 0.57859371E+03</totfact>
</mgrwt>
</event>
<event>
 6    1  0.1198667E-001  0.3000000E+03  0.7818608E-02  0.1093470E+00
         21   -1    0    0  501  502  0.00000000000E+00  0.00000000000E+00  0.52635604461E+01  0.52635604461E+01  0.00000000000E+00 0. -1.
         13   -1    0    0    0    0 -0.00000000000E+00 -0.00000000000E+00 -0.10000000000E+04  0.10000000000E+04  0.00000000000E+00 0.  1.
    9000005    2    1    2  501    0 -0.46882161195E+02 -0.27573835453E+02 -0.82985961299E+03  0.83164725540E+03  0.34535058946E+01 0.  0.
         13    1    3    3    0    0 -0.17150731405E+01 -0.18112601881E+01 -0.40890782225E+02  0.40966793996E+02  0.00000000000E+00 0.  1.
          1    1    3    3  501    0 -0.45167088055E+02 -0.25762575265E+02 -0.78896883077E+03  0.79068046140E+03  0.00000000000E+00 0.  1.
         -3    1    1    2    0  502  0.46882161195E+02  0.27573835453E+02 -0.16487682656E+03  0.17361630505E+03  0.00000000000E+00 0. -1.
<mgrwt>
<rscale>  1 0.30000000E+03</rscale>
<asrwt>0</asrwt>
<pdfrwt beam="1">  1       21 0.19140260E-01 0.30000000E+03</pdfrwt>
<pdfrwt beam="2">0</pdfrwt>
<totfact> 0.26084531E+03</totfact>
</mgrwt>
</event>
<event>
 6    1  0.1198667E-001  0.3000000E+03  0.7818608E-02  0.1093470E+00
         21   -1    0    0  501  502  0.00000000000E+00  0.00000000000E+00  0.22344605708E+01  0.22344605708E+01  0.00000000000E+00 0. -1.
         13   -1    0    0    0    0 -0.00000000000E+00 -0.00000000000E+00 -0.10000000000E+04  0.10000000000E+04  0.00000000000E+00 0.  1.
    9000005    2    1    2  501    0  0.13790962938E+01  0.35476490452E+02 -0.82942414821E+03  0.83018996842E+03  0.32377078054E+01 0.  0.
         13    1    3    3    0    0  0.83970693575E+00  0.24728588465E+01 -0.70475093797E+02  0.70523464069E+02  0.00000000000E+00 0.  1.
          3    1    3    3  501    0  0.53938935809E+00  0.33003631606E+02 -0.75894905441E+03  0.75966650435E+03  0.00000000000E+00 0.  1.
         -1    1    1    2    0  502 -0.13790962938E+01 -0.35476490452E+02 -0.16834139122E+03  0.17204449215E+03  0.00000000000E+00 0. -1.
<mgrwt>
<rscale>  1 0.30000000E+03</rscale>
<asrwt>0</asrwt>
<pdfrwt beam="1">  1       21 0.81253283E-02 0.30000000E+03</pdfrwt>
<pdfrwt beam="2">0</pdfrwt>
<totfact> 0.12429663E+04</totfact>
</mgrwt>
</event>
<event>
 6    1  0.1198667E-001  0.3000000E+03  0.7818608E-02  0.1093470E+00
         21   -1    0    0  501  502  0.00000000000E+00  0.00000000000E+00  0.13809820628E+01  0.13809820628E+01  0.00000000000E+00 0. -1.
         13   -1    0    0    0    0 -0.00000000000E+00 -0.00000000000E+00 -0.10000000000E+04  0.10000000000E+04  0.00000000000E+00 0.  1.
    9000005    2    1    2  501    0 -0.31023283008E+02 -0.20265335825E+02 -0.52508262171E+03  0.52639693341E+03  0.29738787375E+01 0.  0.
         13    1    3    3    0    0 -0.24083842958E+02 -0.16381766218E+02 -0.42719445007E+03  0.42818628180E+03  0.00000000000E+00 0.  1.
          1    1    3    3  501    0 -0.69394400502E+01 -0.38835696074E+01 -0.97888171644E+02  0.98210651606E+02  0.00000000000E+00 0.  1.
         -1    1    1    2    0  502  0.31023283008E+02  0.20265335825E+02 -0.47353639623E+03  0.47498404865E+03  0.00000000000E+00 0. -1.
<mgrwt>
<rscale>  1 0.30000000E+03</rscale>
<asrwt>0</asrwt>
<pdfrwt beam="1">  1       21 0.50217635E-02 0.30000000E+03</pdfrwt>
<pdfrwt beam="2">0</pdfrwt>
<totfact> 0.28592148E+04</totfact>
</mgrwt>
</event>
<event>
 6    1  0.1198667E-001  0.3000000E+03  0.7818608E-02  0.1093470E+00
         21   -1    0    0  501  502  0.00000000000E+00  0.00000000000E+00  0.20422336162E+01  0.20422336162E+01  0.00000000000E+00 0. -1.
         13   -1    0    0    0    0 -0.00000000000E+00 -0.00000000000E+00 -0.10000000000E+04  0.10000000000E+04  0.00000000000E+00 0.  1.
    9000005    2    1    2  501    0 -0.16791788453E+02  0.40463099696E+02 -0.37949280112E+03  0.38202760488E+03  0.33283910250E+01 0.  0.
         13    1    3    3    0    0 -0.32388836480E+01  0.11069432404E+02 -0.10645009047E+03  0.10707308001E+03  0.00000000000E+00 0.  1.
          1    1    3    3  501    0 -0.13552904805E+02  0.29393667293E+02 -0.27304271065E+03  0.27495452487E+03  0.00000000000E+00 0.  1.
         -1    1    1    2    0  502  0.16791788453E+02 -0.40463099696E+02 -0.61846496526E+03  0.62001462874E+03  0.00000000000E+00 0. -1.
<mgrwt>
<rscale>  1 0.30000000E+03</rscale>
<asrwt>0</asrwt>
<pdfrwt beam="1">  1       21 0.74263197E-02 0.30000000E+03</pdfrwt>
<pdfrwt beam="2">0</pdfrwt>
<totfact> 0.14553810E+04</totfact>
</mgrwt>
</event>
<event>
 6    1  0.1198667E-001  0.3000000E+03  0.7818608E-02  0.1093470E+00
         21   -1    0    0  501  502  0.00000000000E+00  0.00000000000E+00  0.75361908878E+01  0.75361908878E+01  0.00000000000E+00 0. -1.
         13   -1    0    0    0    0 -0.00000000000E+00 -0.00000000000E+00 -0.10000000000E+04  0.10000000000E+04  0.00000000000E+00 0.  1.
    9000005    2    1    2  501    0  0.99550958665E+01  0.81821625265E+02 -0.65136015781E+03  0.65661514104E+03  0.89166117908E+01 0.  0.
         13    1    3    3    0    0  0.48935150195E+01  0.67092916713E+02 -0.51880155436E+03  0.52314477802E+03  0.00000000000E+00 0.  1.
          3    1    3    3  501    0  0.50615808470E+01  0.14728708552E+02 -0.13255860345E+03  0.13347036303E+03  0.00000000000E+00 0.  1.
         -3    1    1    2    0  502 -0.99550958665E+01 -0.81821625265E+02 -0.34110365130E+03  0.35092104985E+03  0.00000000000E+00 0. -1.
<mgrwt>
<rscale>  1 0.30000000E+03</rscale>
<asrwt>0</asrwt>
<pdfrwt beam="1">  1       21 0.27404388E-01 0.30000000E+03</pdfrwt>
<pdfrwt beam="2">0</pdfrwt>
<totfact> 0.13016621E+03</totfact>
</mgrwt>
</event>
<event>
 6    1  0.1198667E-001  0.3000000E+03  0.7818608E-02  0.1093470E+00
         21   -1    0    0  501  502  0.00000000000E+00  0.00000000000E+00  0.10699491930E+01  0.10699491930E+01  0.00000000000E+00 0. -1.
         13   -1    0    0    0    0 -0.00000000000E+00 -0.00000000000E+00 -0.10000000000E+04  0.10000000000E+04  0.00000000000E+00 0.  1.
    9000005    2    1    2  501    0  0.30800399690E+02 -0.10772421318E+02 -0.48810708537E+03  0.48920589332E+03  0.30281320206E+01 0.  0.
         13    1    3    3    0    0  0.10726113845E+02 -0.25826285045E+01 -0.15127498592E+03  0.15167676438E+03  0.00000000000E+00 0.  1.
          3    1    3    3  501    0  0.20074285845E+02 -0.81897928135E+01 -0.33683209945E+03  0.33752912894E+03  0.00000000000E+00 0.  1.
         -1    1    1    2    0  502 -0.30800399690E+02  0.10772421318E+02 -0.51082296544E+03  0.51186405588E+03  0.00000000000E+00 0. -1.
<mgrwt>
<rscale>  1 0.30000000E+03</rscale>
<asrwt>0</asrwt>
<pdfrwt beam="1">  1       21 0.38907325E-02 0.30000000E+03</pdfrwt>
<pdfrwt beam="2">0</pdfrwt>
<totfact> 0.44053593E+04</totfact>
</mgrwt>
</event>
<event>
 6    1  0.1198667E-001  0.3000000E+03  0.7818608E-02  0.1093470E+00
         21   -1    0    0  501  502  0.00000000000E+00  0.00000000000E+00  0.67205434532E+01  0.67205434532E+01  0.00000000000E+00 0. -1.
         13   -1    0    0    0    0 -0.00000000000E+00 -0.00000000000E+00 -0.10000000000E+04  0.10000000000E+04  0.00000000000E+00 0.  1.
    9000005    2    1    2  501    0 -0.69778142184E+01 -0.43691483292E+02 -0.92034839436E+03  0.92141769804E+03  0.34309853702E+01 0.  0.
         13    1    3    3    0    0 -0.11642814183E+01 -0.12351898959E+02 -0.28612420828E+03  0.28639306472E+03  0.00000000000E+00 0.  1.
          1    1    3    3  501    0 -0.58135328001E+01 -0.31339584333E+02 -0.63422418608E+03  0.63502463332E+03  0.00000000000E+00 0.  1.
         -1    1    1    2    0  502  0.69778142184E+01  0.43691483292E+02 -0.72931062187E+02  0.85302845411E+02  0.00000000000E+00 0. -1.
<mgrwt>
<rscale>  1 0.30000000E+03</rscale>
<asrwt>0</asrwt>
<pdfrwt beam="1">  1       21 0.24438391E-01 0.30000000E+03</pdfrwt>
<pdfrwt beam="2">0</pdfrwt>
<totfact> 0.16303920E+03</totfact>
</mgrwt>
</event>
<event>
 6    1  0.1198667E-001  0.3000000E+03  0.7818608E-02  0.1093470E+00
         21   -1    0    0  501  502  0.00000000000E+00  0.00000000000E+00  0.10187630416E+01  0.10187630416E+01  0.00000000000E+00 0. -1.
         13   -1    0    0    0    0 -0.00000000000E+00 -0.00000000000E+00 -0.10000000000E+04  0.10000000000E+04  0.00000000000E+00 0.  1.
    9000005    2    1    2  501    0  0.95979667836E+01  0.29582001020E+02 -0.39604185230E+03  0.39727782744E+03  0.36479652164E+01 0.  0.
         13    1    3    3    0    0  0.80124580955E+00  0.74739516657E+01 -0.92881937683E+02  0.93185601335E+02  0.00000000000E+00 0.  1.
          1    1    3    3  501    0  0.87967209741E+01  0.22108049355E+02 -0.30315991462E+03  0.30409222610E+03  0.00000000000E+00 0.  1.
         -1    1    1    2    0  502 -0.95979667836E+01 -0.29582001020E+02 -0.60293938466E+03  0.60374093560E+03  0.00000000000E+00 0. -1.
<mgrwt>
<rscale>  1 0.30000000E+03</rscale>
<asrwt>0</asrwt>
<pdfrwt beam="1">  1       21 0.37046007E-02 0.30000000E+03</pdfrwt>
<pdfrwt beam="2">0</pdfrwt>
<totfact> 0.47835559E+04</totfact>
</mgrwt>
</event>
<event>
 6    1  0.1198667E-001  0.3000000E+03  0.7818608E-02  0.1093470E+00
         21   -1    0    0  501  502  0.00000000000E+00  0.00000000000E+00  0.19069256207E+01  0.19069256207E+01  0.00000000000E+00 0. -1.
         13   -1    0    0    0    0 -0.00000000000E+00 -0.00000000000E+00 -0.10000000000E+04  0.10000000000E+04  0.00000000000E+00 0.  1.
    9000005    2    1    2  501    0  0.10072418479E+02 -0.38333990418E+02 -0.70821323032E+03  0.70932997433E+03  0.34762689678E+01 0.  0.
         13    1    3    3    0    0  0.54292077471E+01 -0.14044576354E+02 -0.26602715012E+03  0.26645294336E+03  0.00000000000E+00 0.  1.
          1    1    3    3  501    0  0.46432107317E+01 -0.24289414063E+02 -0.44218608019E+03  0.44287703097E+03  0.00000000000E+00 0.  1.
         -1    1    1    2    0  502 -0.10072418479E+02  0.38333990418E+02 -0.28987984406E+03  0.29257695129E+03  0.00000000000E+00 0. -1.
<mgrwt>
<rscale>  1 0.30000000E+03</rscale>
<asrwt>0</asrwt>
<pdfrwt beam="1">  1       21 0.69342896E-02 0.30000000E+03</pdfrwt>
<pdfrwt beam="2">0</pdfrwt>
<totfact> 0.16402216E+04</totfact>
</mgrwt>
</event>
<event>
 6    1  0.1198667E-001  0.3000000E+03  0.7818608E-02  0.1093470E+00
         21   -1    0    0  501  502  0.00000000000E+00  0.00000000000E+00  0.11162077952E+01  0.11162077952E+01  0.00000000000E+00 0. -1.
         13   -1    0    0    0    0 -0.00000000000E+00 -0.00000000000E+00 -0.10000000000E+04  0.10000000000E+04  0.00000000000E+00 0.  1.
    9000005    2    1    2  501    0  0.10754741180E+02  0.29728818097E+02 -0.65860229284E+03  0.65936927527E+03  0.33754921458E+01 0.  0.
         13    1    3    3    0    0  0.55851870165E+00  0.48357921397E+01 -0.11086573631E+03  0.11097255659E+03  0.00000000000E+00 0.  1.
          3    1    3    3  501    0  0.10196222478E+02  0.24893025958E+02 -0.54773655653E+03  0.54839671867E+03  0.00000000000E+00 0.  1.
         -3    1    1    2    0  502 -0.10754741180E+02 -0.29728818097E+02 -0.34028149936E+03  0.34174693253E+03  0.00000000000E+00 0. -1.
<mgrwt>
<rscale>  1 0.30000000E+03</rscale>
<asrwt>0</asrwt>
<pdfrwt beam="1">  1       21 0.40589460E-02 0.30000000E+03</pdfrwt>
<pdfrwt beam="2">0</pdfrwt>
<totfact> 0.41023735E+04</totfact>
</mgrwt>
</event>
<event>
 6    1  0.1198667E-001  0.3000000E+03  0.7818608E-02  0.1093470E+00
         21   -1    0    0  501  502  0.00000000000E+00  0.00000000000E+00  0.10557112017E+01  0.10557112017E+01  0.00000000000E+00 0. -1.
         13   -1    0    0    0    0 -0.00000000000E+00 -0.00000000000E+00 -0.10000000000E+04  0.10000000000E+04  0.00000000000E+00 0.  1.
    9000005    2    1    2  501    0 -0.31104548368E+02 -0.35193616040E+01 -0.62938084474E+03  0.63016891173E+03  0.35680183409E+01 0.  0.
         13    1    3    3    0    0 -0.10770807124E+02 -0.29283188776E+01 -0.22603183173E+03  0.22630725639E+03  0.00000000000E+00 0.  1.
          3    1    3    3  501    0 -0.20333741244E+02 -0.59104272646E+00 -0.40334901301E+03  0.40386165534E+03  0.00000000000E+00 0.  1.
         -3    1    1    2    0  502  0.31104548368E+02  0.35193616040E+01 -0.36956344406E+03  0.37088679947E+03  0.00000000000E+00 0. -1.
<mgrwt>
<rscale>  1 0.30000000E+03</rscale>
<asrwt>0</asrwt>
<pdfrwt beam="1">  1       21 0.38389579E-02 0.30000000E+03</pdfrwt>
<pdfrwt beam="2">0</pdfrwt>
<totfact> 0.45057109E+04</totfact>
</mgrwt>
</event>
<event>
 6    1  0.1198667E-001  0.3000000E+03  0.7818608E-02  0.1093470E+00
         21   -1    0    0  501  502  0.00000000000E+00  0.00000000000E+00  0.11508339250E+01  0.11508339250E+01  0.00000000000E+00 0. -1.
         13   -1    0    0    0    0 -0.00000000000E+00 -0.00000000000E+00 -0.10000000000E+04  0.10000000000E+04  0.00000000000E+00 0.  1.
    9000005    2    1    2  501    0  0.14316742386E+02 -0.26699238706E+02 -0.72334944709E+03  0.72399038649E+03  0.31366651802E+01 0.  0.
         13    1    3    3    0    0  0.93067330946E+01 -0.17224680358E+02 -0.50197015659E+03  0.50235181198E+03  0.00000000000E+00 0.  1.
          3    1    3    3  501    0  0.50100092915E+01 -0.94745583472E+01 -0.22137929050E+03  0.22163857451E+03  0.00000000000E+00 0.  1.
         -3    1    1    2    0  502 -0.14316742386E+02  0.26699238706E+02 -0.27549971898E+03  0.27716044743E+03  0.00000000000E+00 0. -1.
<mgrwt>
<rscale>  1 0.30000000E+03</rscale>
<asrwt>0</asrwt>
<pdfrwt beam="1">  1       21 0.41848595E-02 0.30000000E+03</pdfrwt>
<pdfrwt beam="2">0</pdfrwt>
<totfact> 0.38963321E+04</totfact>
</mgrwt>
</event>
<event>
 6    1  0.1198667E-001  0.3000000E+03  0.7818608E-02  0.1093470E+00
         21   -1    0    0  501  502  0.00000000000E+00  0.00000000000E+00  0.37138060024E+01  0.37138060024E+01  0.00000000000E+00 0. -1.
         13   -1    0    0    0    0 -0.00000000000E+00 -0.00000000000E+00 -0.10000000000E+04  0.10000000000E+04  0.00000000000E+00 0.  1.
    9000005    2    1    2  501    0  0.67911818572E+01  0.29230513717E+02 -0.93473213416E+03  0.93523428084E+03  0.62011576223E+01 0.  0.
         13    1    3    3    0    0  0.62190593627E+01  0.19107281638E+02 -0.54507738992E+03  0.54544763811E+03  0.00000000000E+00 0.  1.
          1    1    3    3  501    0  0.57212249450E+00  0.10123232078E+02 -0.38965474423E+03  0.38978664273E+03  0.00000000000E+00 0.  1.
         -1    1    1    2    0  502 -0.67911818572E+01 -0.29230513717E+02 -0.61554059842E+02  0.68479525160E+02  0.00000000000E+00 0. -1.
<mgrwt>
<rscale>  1 0.30000000E+03</rscale>
<asrwt>0</asrwt>
<pdfrwt beam="1">  1       21 0.13504778E-01 0.30000000E+03</pdfrwt>
<pdfrwt beam="2">0</pdfrwt>
<totfact> 0.49960626E+03</totfact>
</mgrwt>
</event>
<event>
 6    1  0.1198667E-001  0.3000000E+03  0.7818608E-02  0.1093470E+00
         21   -1    0    0  501  502  0.00000000000E+00  0.00000000000E+00  0.15459328709E+01  0.15459328709E+01  0.00000000000E+00 0. -1.
         13   -1    0    0    0    0 -0.00000000000E+00 -0.00000000000E+00 -0.10000000000E+04  0.10000000000E+04  0.00000000000E+00 0.  1.
    9000005    2    1    2  501    0  0.29417728559E+02 -0.25604494229E+02 -0.44486484639E+03  0.44658465656E+03  0.34829655763E+01 0.  0.
         13    1    3    3    0    0  0.51052407331E+01 -0.59067902677E+01 -0.98889114199E+02  0.99196827375E+02  0.00000000000E+00 0.  1.
          1    1    3    3  501    0  0.24312487826E+02 -0.19697703961E+02 -0.34597573219E+03  0.34738782919E+03  0.00000000000E+00 0.  1.
         -1    1    1    2    0  502 -0.29417728559E+02  0.25604494229E+02 -0.55358922074E+03  0.55496127631E+03  0.00000000000E+00 0. -1.
<mgrwt>
<rscale>  1 0.30000000E+03</rscale>
<asrwt>0</asrwt>
<pdfrwt beam="1">  1       21 0.56215859E-02 0.30000000E+03</pdfrwt>
<pdfrwt beam="2">0</pdfrwt>
<totfact> 0.23572804E+04</totfact>
</mgrwt>
</event>
<event>
 6    1  0.1198667E-001  0.3000000E+03  0.7818608E-02  0.1093470E+00
         21   -1    0    0  501  502  0.00000000000E+00  0.00000000000E+00  0.90764516513E+01  0.90764516513E+01  0.00000000000E+00 0. -1.
         13   -1    0    0    0    0 -0.00000000000E+00 -0.00000000000E+00 -0.10000000000E+04  0.10000000000E+04  0.00000000000E+00 0.  1.
    9000005    2    1    2  501    0 -0.22518974687E+02  0.25987431666E+02 -0.96588363906E+03  0.96653884614E+03  0.91480088066E+01 0.  0.
         13    1    3    3    0    0 -0.18929140069E+02  0.22293448061E+02 -0.89011545522E+03  0.89059577463E+03  0.00000000000E+00 0.  1.
          3    1    3    3  501    0 -0.35898346186E+01  0.36939836057E+01 -0.75768183839E+02  0.75943071506E+02  0.00000000000E+00 0.  1.
         -3    1    1    2    0  502  0.22518974687E+02 -0.25987431666E+02 -0.25039909288E+02  0.42537605513E+02  0.00000000000E+00 0. -1.
<mgrwt>
<rscale>  1 0.30000000E+03</rscale>
<asrwt>0</asrwt>
<pdfrwt beam="1">  1       21 0.33005348E-01 0.30000000E+03</pdfrwt>
<pdfrwt beam="2">0</pdfrwt>
<totfact> 0.89692259E+02</totfact>
</mgrwt>
</event>
<event>
 6    1  0.1198667E-001  0.3000000E+03  0.7818608E-02  0.1093470E+00
         21   -1    0    0  501  502  0.00000000000E+00  0.00000000000E+00  0.15504518473E+01  0.15504518473E+01  0.00000000000E+00 0. -1.
         13   -1    0    0    0    0 -0.00000000000E+00 -0.00000000000E+00 -0.10000000000E+04  0.10000000000E+04  0.00000000000E+00 0.  1.
    9000005    2    1    2  501    0  0.33844102725E+02  0.18470384426E+01 -0.75323574517E+03  0.75400521555E+03  0.33079350987E+01 0.  0.
         13    1    3    3    0    0  0.14086419914E+02  0.96443533028E+00 -0.35018870065E+03  0.35047322783E+03  0.00000000000E+00 0.  1.
          1    1    3    3  501    0  0.19757682811E+02  0.88260311232E+00 -0.40304704452E+03  0.40353198772E+03  0.00000000000E+00 0.  1.
         -1    1    1    2    0  502 -0.33844102725E+02 -0.18470384426E+01 -0.24521380299E+03  0.24754523630E+03  0.00000000000E+00 0. -1.
<mgrwt>
<rscale>  1 0.30000000E+03</rscale>
<asrwt>0</asrwt>
<pdfrwt beam="1">  1       21 0.56380186E-02 0.30000000E+03</pdfrwt>
<pdfrwt beam="2">0</pdfrwt>
<totfact> 0.23454906E+04</totfact>
</mgrwt>
</event>
<event>
 6    1  0.1198667E-001  0.3000000E+03  0.7818608E-02  0.1093470E+00
         21   -1    0    0  501  502  0.00000000000E+00  0.00000000000E+00  0.21462146932E+01  0.21462146932E+01  0.00000000000E+00 0. -1.
         13   -1    0    0    0    0 -0.00000000000E+00 -0.00000000000E+00 -0.10000000000E+04  0.10000000000E+04  0.00000000000E+00 0.  1.
    9000005    2    1    2  501    0  0.10663587192E+02  0.42386081055E+02 -0.66317241181E+03  0.66462300997E+03  0.39756308200E+01 0.  0.
         13    1    3    3    0    0  0.92940545737E+01  0.36994570990E+02 -0.59690719032E+03  0.59812471241E+03  0.00000000000E+00 0.  1.
          3    1    3    3  501    0  0.13695326188E+01  0.53915100651E+01 -0.66265221487E+02  0.66498297565E+02  0.00000000000E+00 0.  1.
         -1    1    1    2    0  502 -0.10663587192E+02 -0.42386081055E+02 -0.33468137350E+03  0.33752320472E+03  0.00000000000E+00 0. -1.
<mgrwt>
<rscale>  1 0.30000000E+03</rscale>
<asrwt>0</asrwt>
<pdfrwt beam="1">  1       21 0.78044335E-02 0.30000000E+03</pdfrwt>
<pdfrwt beam="2">0</pdfrwt>
<totfact> 0.13341023E+04</totfact>
</mgrwt>
</event>
<event>
 6    1  0.1198667E-001  0.3000000E+03  0.7818608E-02  0.1093470E+00
         21   -1    0    0  501  502  0.00000000000E+00  0.00000000000E+00  0.29984528725E+01  0.29984528725E+01  0.00000000000E+00 0. -1.
         13   -1    0    0    0    0 -0.00000000000E+00 -0.00000000000E+00 -0.10000000000E+04  0.10000000000E+04  0.00000000000E+00 0.  1.
    9000005    2    1    2  501    0 -0.44423643507E+00 -0.31040254346E+02 -0.86634378402E+02  0.92102148879E+02  0.36872172632E+01 0.  0.
         13    1    3    3    0    0  0.10017849822E+01 -0.21155438096E+02 -0.62080357167E+02  0.65593649694E+02  0.00000000000E+00 0.  1.
          3    1    3    3  501    0 -0.14460214172E+01 -0.98848162498E+01 -0.24554021235E+02  0.26508499185E+02  0.00000000000E+00 0.  1.
         -1    1    1    2    0  502  0.44423643507E+00  0.31040254346E+02 -0.91036716873E+03  0.91089630399E+03  0.00000000000E+00 0. -1.
<mgrwt>
<rscale>  1 0.30000000E+03</rscale>
<asrwt>0</asrwt>
<pdfrwt beam="1">  1       21 0.10903488E-01 0.30000000E+03</pdfrwt>
<pdfrwt beam="2">0</pdfrwt>
<totfact> 0.73678757E+03</totfact>
</mgrwt>
</event>
<event>
 6    1  0.1198667E-001  0.3000000E+03  0.7818608E-02  0.1093470E+00
         21   -1    0    0  501  502  0.00000000000E+00  0.00000000000E+00  0.38133933141E+01  0.38133933141E+01  0.00000000000E+00 0. -1.
         13   -1    0    0    0    0 -0.00000000000E+00 -0.00000000000E+00 -0.10000000000E+04  0.10000000000E+04  0.00000000000E+00 0.  1.
    9000005    2    1    2  501    0  0.33967481235E+02 -0.49191504101E+02 -0.62324163862E+03  0.62610776314E+03  0.26827413653E+01 0.  0.
         13    1    3    3    0    0  0.10214280334E+02 -0.16889938446E+02 -0.20130929014E+03  0.20227464458E+03  0.00000000000E+00 0.  1.
          1    1    3    3  501    0  0.23753200901E+02 -0.32301565655E+02 -0.42193234848E+03  0.42383311856E+03  0.00000000000E+00 0.  1.
         -3    1    1    2    0  502 -0.33967481235E+02  0.49191504101E+02 -0.37294496806E+03  0.37770563017E+03  0.00000000000E+00 0. -1.
<mgrwt>
<rscale>  1 0.30000000E+03</rscale>
<asrwt>0</asrwt>
<pdfrwt beam="1">  1       21 0.13866914E-01 0.30000000E+03</pdfrwt>
<pdfrwt beam="2">0</pdfrwt>
<totfact> 0.47594379E+03</totfact>
</mgrwt>
</event>
<event>
 6    1  0.1198667E-001  0.3000000E+03  0.7818608E-02  0.1093470E+00
         21   -1    0    0  501  502  0.00000000000E+00  0.00000000000E+00  0.25097340009E+01  0.25097340009E+01  0.00000000000E+00 0. -1.
         13   -1    0    0    0    0 -0.00000000000E+00 -0.00000000000E+00 -0.10000000000E+04  0.10000000000E+04  0.00000000000E+00 0.  1.
    9000005    2    1    2  501    0 -0.30602591247E+02 -0.13003291508E+02 -0.87345151559E+03  0.87409160528E+03  0.36027980131E+01 0.  0.
         13    1    3    3    0    0 -0.29379129120E+02 -0.12057988221E+02 -0.81230256608E+03  0.81292311270E+03  0.00000000000E+00 0.  1.
          3    1    3    3  501    0 -0.12234621264E+01 -0.94530328707E+00 -0.61148949514E+02  0.61168492581E+02  0.00000000000E+00 0.  1.
         -1    1    1    2    0  502  0.30602591247E+02  0.13003291508E+02 -0.12403875041E+03  0.12841812872E+03  0.00000000000E+00 0. -1.
<mgrwt>
<rscale>  1 0.30000000E+03</rscale>
<asrwt>0</asrwt>
<pdfrwt beam="1">  1       21 0.91263247E-02 0.30000000E+03</pdfrwt>
<pdfrwt beam="2">0</pdfrwt>
<totfact> 0.10124787E+04</totfact>
</mgrwt>
</event>
<event>
 6    1  0.1198667E-001  0.3000000E+03  0.7818608E-02  0.1093470E+00
         21   -1    0    0  501  502  0.00000000000E+00  0.00000000000E+00  0.18099017969E+01  0.18099017969E+01  0.00000000000E+00 0. -1.
         13   -1    0    0    0    0 -0.00000000000E+00 -0.00000000000E+00 -0.10000000000E+04  0.10000000000E+04  0.00000000000E+00 0.  1.
    9000005    2    1    2  501    0 -0.39294542654E+02 -0.47959934975E+01 -0.68133363138E+03  0.68249018238E+03  0.32045545597E+01 0.  0.
         13    1    3    3    0    0 -0.89052377575E+01 -0.67645469646E+00 -0.17672340009E+03  0.17694892198E+03  0.00000000000E+00 0.  1.
          3    1    3    3  501    0 -0.30389304897E+02 -0.41195388010E+01 -0.50461023129E+03  0.50554126040E+03  0.00000000000E+00 0.  1.
         -1    1    1    2    0  502  0.39294542654E+02  0.47959934975E+01 -0.31685646683E+03  0.31931971941E+03  0.00000000000E+00 0. -1.
<mgrwt>
<rscale>  1 0.30000000E+03</rscale>
<asrwt>0</asrwt>
<pdfrwt beam="1">  1       21 0.65814750E-02 0.30000000E+03</pdfrwt>
<pdfrwt beam="2">0</pdfrwt>
<totfact> 0.17958374E+04</totfact>
</mgrwt>
</event>
<event>
 6    1  0.1198667E-001  0.3000000E+03  0.7818608E-02  0.1093470E+00
         21   -1    0    0  501  502  0.00000000000E+00  0.00000000000E+00  0.16407411726E+01  0.16407411726E+01  0.00000000000E+00 0. -1.
         13   -1    0    0    0    0 -0.00000000000E+00 -0.00000000000E+00 -0.10000000000E+04  0.10000000000E+04  0.00000000000E+00 0.  1.
    9000005    2    1    2  501    0 -0.95550311616E+01  0.30654989564E+02 -0.80382549086E+03  0.80447478598E+03  0.36379283760E+01 0.  0.
         13    1    3    3    0    0 -0.54261499117E+01  0.13121007919E+02 -0.38644414588E+03  0.38670490278E+03  0.00000000000E+00 0.  1.
          1    1    3    3  501    0 -0.41288812500E+01  0.17533981645E+02 -0.41738134497E+03  0.41776988320E+03  0.00000000000E+00 0.  1.
         -3    1    1    2    0  502  0.95550311616E+01 -0.30654989564E+02 -0.19453376797E+03  0.19716595519E+03  0.00000000000E+00 0. -1.
<mgrwt>
<rscale>  1 0.30000000E+03</rscale>
<asrwt>0</asrwt>
<pdfrwt beam="1">  1       21 0.59663441E-02 0.30000000E+03</pdfrwt>
<pdfrwt beam="2">0</pdfrwt>
<totfact> 0.21277060E+04</totfact>
</mgrwt>
</event>
<event>
 6    1  0.1198667E-001  0.3000000E+03  0.7818608E-02  0.1093470E+00
         21   -1    0    0  501  502  0.00000000000E+00  0.00000000000E+00  0.20342089475E+01  0.20342089475E+01  0.00000000000E+00 0. -1.
         13   -1    0    0    0    0 -0.00000000000E+00 -0.00000000000E+00 -0.10000000000E+04  0.10000000000E+04  0.00000000000E+00 0.  1.
    9000005    2    1    2  501    0 -0.42139869391E+02  0.15778629011E+02 -0.51884589860E+03  0.52080598340E+03  0.36155385582E+01 0.  0.
         13    1    3    3    0    0 -0.28994029689E+01  0.18525818248E+01 -0.32884482186E+02  0.33063995005E+02  0.00000000000E+00 0.  1.
          3    1    3    3  501    0 -0.39240466422E+02  0.13926047186E+02 -0.48596141642E+03  0.48774198839E+03  0.00000000000E+00 0.  1.
         -1    1    1    2    0  502  0.42139869391E+02 -0.15778629011E+02 -0.47911989245E+03  0.48122822555E+03  0.00000000000E+00 0. -1.
<mgrwt>
<rscale>  1 0.30000000E+03</rscale>
<asrwt>0</asrwt>
<pdfrwt beam="1">  1       21 0.73971390E-02 0.30000000E+03</pdfrwt>
<pdfrwt beam="2">0</pdfrwt>
<totfact> 0.14654396E+04</totfact>
</mgrwt>
</event>
<event>
 6    1  0.1198667E-001  0.3000000E+03  0.7818608E-02  0.1093470E+00
         21   -1    0    0  501  502  0.00000000000E+00  0.00000000000E+00  0.53204812760E+01  0.53204812760E+01  0.00000000000E+00 0. -1.
         13   -1    0    0    0    0 -0.00000000000E+00 -0.00000000000E+00 -0.10000000000E+04  0.10000000000E+04  0.00000000000E+00 0.  1.
    9000005    2    1    2  501    0  0.55765942191E+02  0.64779074019E+01 -0.81812787355E+03  0.82005773001E+03  0.31079701429E+01 0.  0.
         13    1    3    3    0    0  0.41979931456E+02  0.48661035418E+01 -0.59566271674E+03  0.59716000010E+03  0.00000000000E+00 0.  1.
          3    1    3    3  501    0  0.13786010735E+02  0.16118038601E+01 -0.22246515681E+03  0.22289772990E+03  0.00000000000E+00 0.  1.
         -3    1    1    2    0  502 -0.55765942191E+02 -0.64779074019E+01 -0.17655164518E+03  0.18526275127E+03  0.00000000000E+00 0. -1.
<mgrwt>
<rscale>  1 0.30000000E+03</rscale>
<asrwt>0</asrwt>
<pdfrwt beam="1">  1       21 0.19347245E-01 0.30000000E+03</pdfrwt>
<pdfrwt beam="2">0</pdfrwt>
<totfact> 0.25557258E+03</totfact>
</mgrwt>
</event>
<event>
 6    1  0.1198667E-001  0.3000000E+03  0.7818608E-02  0.1093470E+00
         21   -1    0    0  501  502  0.00000000000E+00  0.00000000000E+00  0.14345983206E+01  0.14345983206E+01  0.00000000000E+00 0. -1.
         13   -1    0    0    0    0 -0.00000000000E+00 -0.00000000000E+00 -0.10000000000E+04  0.10000000000E+04  0.00000000000E+00 0.  1.
    9000005    2    1    2  501    0  0.31573542703E+02  0.85547603601E+01 -0.75074369674E+03  0.75146326004E+03  0.32955224885E+01 0.  0.
         13    1    3    3    0    0  0.13693116199E+02  0.53615122339E+01 -0.34458054734E+03  0.34489418790E+03  0.00000000000E+00 0.  1.
          3    1    3    3  501    0  0.17880426504E+02  0.31932481262E+01 -0.40616314941E+03  0.40656907214E+03  0.00000000000E+00 0.  1.
         -3    1    1    2    0  502 -0.31573542703E+02 -0.85547603601E+01 -0.24782170494E+03  0.24997133828E+03  0.00000000000E+00 0. -1.
<mgrwt>
<rscale>  1 0.30000000E+03</rscale>
<asrwt>0</asrwt>
<pdfrwt beam="1">  1       21 0.52167322E-02 0.30000000E+03</pdfrwt>
<pdfrwt beam="2">0</pdfrwt>
<totfact> 0.26792425E+04</totfact>
</mgrwt>
</event>
<event>
 6    1  0.1198667E-001  0.3000000E+03  0.7818608E-02  0.1093470E+00
         21   -1    0    0  501  502  0.00000000000E+00  0.00000000000E+00  0.42529483910E+01  0.42529483910E+01  0.00000000000E+00 0. -1.
         13   -1    0    0    0    0 -0.00000000000E+00 -0.00000000000E+00 -0.10000000000E+04  0.10000000000E+04  0.00000000000E+00 0.  1.
    9000005    2    1    2  501    0  0.25807054319E+01 -0.46039520332E+02 -0.85282247915E+03  0.85407395224E+03  0.31364748584E+01 0.  0.
         13    1    3    3    0    0  0.63190158274E+00 -0.35043352829E+02 -0.64353552887E+03  0.64448926508E+03  0.00000000000E+00 0.  1.
          1    1    3    3  501    0  0.19488038492E+01 -0.10996167503E+02 -0.20928695028E+03  0.20958468716E+03  0.00000000000E+00 0.  1.
         -1    1    1    2    0  502 -0.25807054319E+01  0.46039520332E+02 -0.14292457246E+03  0.15017899615E+03  0.00000000000E+00 0. -1.
<mgrwt>
<rscale>  1 0.30000000E+03</rscale>
<asrwt>0</asrwt>
<pdfrwt beam="1">  1       21 0.15465299E-01 0.30000000E+03</pdfrwt>
<pdfrwt beam="2">0</pdfrwt>
<totfact> 0.38912370E+03</totfact>
</mgrwt>
</event>
<event>
 6    1  0.1198667E-001  0.3000000E+03  0.7818608E-02  0.1093470E+00
         21   -1    0    0  501  502  0.00000000000E+00  0.00000000000E+00  0.26238256433E+01  0.26238256433E+01  0.00000000000E+00 0. -1.
         13   -1    0    0    0    0 -0.00000000000E+00 -0.00000000000E+00 -0.10000000000E+04  0.10000000000E+04  0.00000000000E+00 0.  1.
    9000005    2    1    2  501    0 -0.28190708779E+02 -0.22726651733E+02 -0.85305414550E+03  0.85382844677E+03  0.32287149658E+01 0.  0.
         13    1    3    3    0    0 -0.23030019812E+02 -0.20059119829E+02 -0.71196560793E+03  0.71262035964E+03  0.00000000000E+00 0.  1.
          1    1    3    3  501    0 -0.51606889671E+01 -0.26675319038E+01 -0.14108853757E+03  0.14120808713E+03  0.00000000000E+00 0.  1.
         -1    1    1    2    0  502  0.28190708779E+02  0.22726651733E+02 -0.14432202886E+03  0.14879537887E+03  0.00000000000E+00 0. -1.
<mgrwt>
<rscale>  1 0.30000000E+03</rscale>
<asrwt>0</asrwt>
<pdfrwt beam="1">  1       21 0.95412043E-02 0.30000000E+03</pdfrwt>
<pdfrwt beam="2">0</pdfrwt>
<totfact> 0.93553022E+03</totfact>
</mgrwt>
</event>
<event>
 6    1  0.1198667E-001  0.3000000E+03  0.7818608E-02  0.1093470E+00
         21   -1    0    0  501  502  0.00000000000E+00  0.00000000000E+00  0.21664125324E+01  0.21664125324E+01  0.00000000000E+00 0. -1.
         13   -1    0    0    0    0 -0.00000000000E+00 -0.00000000000E+00 -0.10000000000E+04  0.10000000000E+04  0.00000000000E+00 0.  1.
    9000005    2    1    2  501    0  0.45220222436E+02  0.36279671017E+01 -0.60875556271E+03  0.61045256288E+03  0.33114544541E+01 0.  0.
         13    1    3    3    0    0  0.55076752079E+01 -0.57784972055E+00 -0.79173850865E+02  0.79367292113E+02  0.00000000000E+00 0.  1.
          1    1    3    3  501    0  0.39712547228E+02  0.42058168223E+01 -0.52958171185E+03  0.53108527076E+03  0.00000000000E+00 0.  1.
         -3    1    1    2    0  502 -0.45220222436E+02 -0.36279671017E+01 -0.38907802476E+03  0.39171384965E+03  0.00000000000E+00 0. -1.
<mgrwt>
<rscale>  1 0.30000000E+03</rscale>
<asrwt>0</asrwt>
<pdfrwt beam="1">  1       21 0.78778804E-02 0.30000000E+03</pdfrwt>
<pdfrwt beam="2">0</pdfrwt>
<totfact> 0.13123559E+04</totfact>
</mgrwt>
</event>
<event>
 6    1  0.1198667E-001  0.3000000E+03  0.7818608E-02  0.1093470E+00
         21   -1    0    0  501  502  0.00000000000E+00  0.00000000000E+00  0.12278119073E+01  0.12278119073E+01  0.00000000000E+00 0. -1.
         13   -1    0    0    0    0 -0.00000000000E+00 -0.00000000000E+00 -0.10000000000E+04  0.10000000000E+04  0.00000000000E+00 0.  1.
    9000005    2    1    2  501    0  0.14409514286E+02  0.28979523852E+02 -0.68986290680E+03  0.69062776204E+03  0.29032097138E+01 0.  0.
         13    1    3    3    0    0  0.13761962489E+02  0.25983088526E+02 -0.61618341437E+03  0.61688452132E+03  0.00000000000E+00 0.  1.
          3    1    3    3  501    0  0.64755179731E+00  0.29964353254E+01 -0.73679492426E+02  0.73743240722E+02  0.00000000000E+00 0.  1.
         -1    1    1    2    0  502 -0.14409514286E+02 -0.28979523852E+02 -0.30890928130E+03  0.31060004986E+03  0.00000000000E+00 0. -1.
<mgrwt>
<rscale>  1 0.30000000E+03</rscale>
<asrwt>0</asrwt>
<pdfrwt beam="1">  1       21 0.44647800E-02 0.30000000E+03</pdfrwt>
<pdfrwt beam="2">0</pdfrwt>
<totfact> 0.34920563E+04</totfact>
</mgrwt>
</event>
<event>
 6    1  0.1198667E-001  0.3000000E+03  0.7818608E-02  0.1093470E+00
         21   -1    0    0  501  502  0.00000000000E+00  0.00000000000E+00  0.42384737883E+01  0.42384737883E+01  0.00000000000E+00 0. -1.
         13   -1    0    0    0    0 -0.00000000000E+00 -0.00000000000E+00 -0.10000000000E+04  0.10000000000E+04  0.00000000000E+00 0.  1.
    9000005    2    1    2  501    0 -0.29367149144E+02 -0.18553472463E+02 -0.92249980549E+03  0.92315863343E+03  0.30513207894E+01 0.  0.
         13    1    3    3    0    0 -0.48078765041E+01 -0.39985907790E+01 -0.18927661215E+03  0.18937988359E+03  0.00000000000E+00 0.  1.
          1    1    3    3  501    0 -0.24559272640E+02 -0.14554881684E+02 -0.73322319335E+03  0.73377874984E+03  0.00000000000E+00 0.  1.
         -3    1    1    2    0  502  0.29367149144E+02  0.18553472463E+02 -0.73261720717E+02  0.81079840353E+02  0.00000000000E+00 0. -1.
<mgrwt>
<rscale>  1 0.30000000E+03</rscale>
<asrwt>0</asrwt>
<pdfrwt beam="1">  1       21 0.15412664E-01 0.30000000E+03</pdfrwt>
<pdfrwt beam="2">0</pdfrwt>
<totfact> 0.39159586E+03</totfact>
</mgrwt>
</event>
<event>
 6    1  0.1198667E-001  0.3000000E+03  0.7818608E-02  0.1093470E+00
         21   -1    0    0  501  502  0.00000000000E+00  0.00000000000E+00  0.27284341415E+01  0.27284341415E+01  0.00000000000E+00 0. -1.
         13   -1    0    0    0    0 -0.00000000000E+00 -0.00000000000E+00 -0.10000000000E+04  0.10000000000E+04  0.00000000000E+00 0.  1.
    9000005    2    1    2  501    0  0.88354702760E+01  0.45329868475E+02 -0.72824433703E+03  0.72976595987E+03  0.92563088312E+01 0.  0.
         13    1    3    3    0    0 -0.17951909691E+01  0.62118456154E+01 -0.11757731900E+03  0.11775498155E+03  0.00000000000E+00 0.  1.
          3    1    3    3  501    0  0.10630661245E+02  0.39118022860E+02 -0.61066701802E+03  0.61201097831E+03  0.00000000000E+00 0.  1.
         -1    1    1    2    0  502 -0.88354702760E+01 -0.45329868475E+02 -0.26902722883E+03  0.27296247428E+03  0.00000000000E+00 0. -1.
<mgrwt>
<rscale>  1 0.30000000E+03</rscale>
<asrwt>0</asrwt>
<pdfrwt beam="1">  1       21 0.99215996E-02 0.30000000E+03</pdfrwt>
<pdfrwt beam="2">0</pdfrwt>
<totfact> 0.87250200E+03</totfact>
</mgrwt>
</event>
<event>
 6    1  0.1198667E-001  0.3000000E+03  0.7818608E-02  0.1093470E+00
         21   -1    0    0  501  502  0.00000000000E+00  0.00000000000E+00  0.10359954865E+01  0.10359954865E+01  0.00000000000E+00 0. -1.
         13   -1    0    0    0    0 -0.00000000000E+00 -0.00000000000E+00 -0.10000000000E+04  0.10000000000E+04  0.00000000000E+00 0.  1.
    9000005    2    1    2  501    0  0.62872808883E+01  0.30203744366E+02 -0.62860069646E+03  0.62938995955E+03  0.64101106207E+01 0.  0.
         13    1    3    3    0    0  0.28369026017E+01  0.25557272752E+02 -0.51862941534E+03  0.51926649484E+03  0.00000000000E+00 0.  1.
          3    1    3    3  501    0  0.34503782866E+01  0.46464716133E+01 -0.10997128112E+03  0.11012346471E+03  0.00000000000E+00 0.  1.
         -3    1    1    2    0  502 -0.62872808883E+01 -0.30203744366E+02 -0.37036330805E+03  0.37164603594E+03  0.00000000000E+00 0. -1.
<mgrwt>
<rscale>  1 0.30000000E+03</rscale>
<asrwt>0</asrwt>
<pdfrwt beam="1">  1       21 0.37672643E-02 0.30000000E+03</pdfrwt>
<pdfrwt beam="2">0</pdfrwt>
<totfact> 0.46507131E+04</totfact>
</mgrwt>
</event>
<event>
 6    1  0.1198667E-001  0.3000000E+03  0.7818608E-02  0.1093470E+00
         21   -1    0    0  501  502  0.00000000000E+00  0.00000000000E+00  0.47297615517E+01  0.47297615517E+01  0.00000000000E+00 0. -1.
         13   -1    0    0    0    0 -0.00000000000E+00 -0.00000000000E+00 -0.10000000000E+04  0.10000000000E+04  0.00000000000E+00 0.  1.
    9000005    2    1    2  501    0 -0.28864674361E+02  0.13610096945E+02 -0.94259477099E+03  0.94314153998E+03  0.35578035164E+01 0.  0.
         13    1    3    3    0    0 -0.10127077582E+02  0.61434980535E+01 -0.31447828503E+03  0.31470127427E+03  0.00000000000E+00 0.  1.
          3    1    3    3  501    0 -0.18737596779E+02  0.74665988916E+01 -0.62811648596E+03  0.62844026571E+03  0.00000000000E+00 0.  1.
         -1    1    1    2    0  502  0.28864674361E+02 -0.13610096945E+02 -0.52675467454E+02  0.61588221571E+02  0.00000000000E+00 0. -1.
<mgrwt>
<rscale>  1 0.30000000E+03</rscale>
<asrwt>0</asrwt>
<pdfrwt beam="1">  1       21 0.17199169E-01 0.30000000E+03</pdfrwt>
<pdfrwt beam="2">0</pdfrwt>
<totfact> 0.31911030E+03</totfact>
</mgrwt>
</event>
<event>
 6    1  0.1198667E-001  0.3000000E+03  0.7818608E-02  0.1093470E+00
         21   -1    0    0  501  502  0.00000000000E+00  0.00000000000E+00  0.32535343402E+01  0.32535343402E+01  0.00000000000E+00 0. -1.
         13   -1    0    0    0    0 -0.00000000000E+00 -0.00000000000E+00 -0.10000000000E+04  0.10000000000E+04  0.00000000000E+00 0.  1.
    9000005    2    1    2  501    0  0.35172333222E+02  0.44345508582E+02 -0.55711491361E+03  0.55999343156E+03  0.34639965599E+01 0.  0.
         13    1    3    3    0    0  0.18121932387E+02  0.25471172739E+02 -0.31267493217E+03  0.31423366828E+03  0.00000000000E+00 0.  1.
          1    1    3    3  501    0  0.17050400834E+02  0.18874335843E+02 -0.24443998144E+03  0.24575976328E+03  0.00000000000E+00 0.  1.
         -1    1    1    2    0  502 -0.35172333222E+02 -0.44345508582E+02 -0.43963155205E+03  0.44326010278E+03  0.00000000000E+00 0. -1.
<mgrwt>
<rscale>  1 0.30000000E+03</rscale>
<asrwt>0</asrwt>
<pdfrwt beam="1">  1       21 0.11831059E-01 0.30000000E+03</pdfrwt>
<pdfrwt beam="2">0</pdfrwt>
<totfact> 0.63585258E+03</totfact>
</mgrwt>
</event>
<event>
 6    1  0.1198667E-001  0.3000000E+03  0.7818608E-02  0.1093470E+00
         21   -1    0    0  501  502  0.00000000000E+00  0.00000000000E+00  0.12198334880E+01  0.12198334880E+01  0.00000000000E+00 0. -1.
         13   -1    0    0    0    0 -0.00000000000E+00 -0.00000000000E+00 -0.10000000000E+04  0.10000000000E+04  0.00000000000E+00 0.  1.
    9000005    2    1    2  501    0  0.26406255948E+02 -0.19375116483E+02 -0.67122817214E+03  0.67203448371E+03  0.32253260394E+01 0.  0.
         13    1    3    3    0    0  0.22313003036E+02 -0.14935085171E+02 -0.55706951498E+03  0.55771621044E+03  0.00000000000E+00 0.  1.
          3    1    3    3  501    0  0.40932529121E+01 -0.44400313123E+01 -0.11415865716E+03  0.11431827326E+03  0.00000000000E+00 0.  1.
         -3    1    1    2    0  502 -0.26406255948E+02  0.19375116483E+02 -0.32755199437E+03  0.32918534978E+03  0.00000000000E+00 0. -1.
<mgrwt>
<rscale>  1 0.30000000E+03</rscale>
<asrwt>0</asrwt>
<pdfrwt beam="1">  1       21 0.44357675E-02 0.30000000E+03</pdfrwt>
<pdfrwt beam="2">0</pdfrwt>
<totfact> 0.35308678E+04</totfact>
</mgrwt>
</event>
<event>
 6    1  0.1198667E-001  0.3000000E+03  0.7818608E-02  0.1093470E+00
         21   -1    0    0  501  502  0.00000000000E+00  0.00000000000E+00  0.12382448737E+02  0.12382448737E+02  0.00000000000E+00 0. -1.
         13   -1    0    0    0    0 -0.00000000000E+00 -0.00000000000E+00 -0.10000000000E+04  0.10000000000E+04  0.00000000000E+00 0.  1.
    9000005    2    1    2  501    0 -0.10695415420E+03  0.26968668878E+02 -0.55407852039E+03  0.56503181278E+03  0.95625567834E+01 0.  0.
         13    1    3    3    0    0 -0.88886908394E+02  0.23434987270E+02 -0.47788436215E+03  0.48664519385E+03  0.00000000000E+00 0.  1.
          3    1    3    3  501    0 -0.18067245807E+02  0.35336816075E+01 -0.76194158247E+02  0.78386618933E+02  0.00000000000E+00 0.  1.
         -3    1    1    2    0  502  0.10695415420E+03 -0.26968668878E+02 -0.43353903087E+03  0.44735063595E+03  0.00000000000E+00 0. -1.
<mgrwt>
<rscale>  1 0.30000000E+03</rscale>
<asrwt>0</asrwt>
<pdfrwt beam="1">  1       21 0.45027181E-01 0.30000000E+03</pdfrwt>
<pdfrwt beam="2">0</pdfrwt>
<totfact> 0.47048769E+02</totfact>
</mgrwt>
</event>
<event>
 6    1  0.1198667E-001  0.3000000E+03  0.7818608E-02  0.1093470E+00
         21   -1    0    0  501  502  0.00000000000E+00  0.00000000000E+00  0.40549501294E+01  0.40549501294E+01  0.00000000000E+00 0. -1.
         13   -1    0    0    0    0 -0.00000000000E+00 -0.00000000000E+00 -0.10000000000E+04  0.10000000000E+04  0.00000000000E+00 0.  1.
    9000005    2    1    2  501    0  0.11003614541E+02 -0.40281809667E+02 -0.87686980958E+03  0.87787009932E+03  0.33977357304E+01 0.  0.
         13    1    3    3    0    0  0.62488912227E+01 -0.18259192063E+02 -0.37997989194E+03  0.38046966372E+03  0.00000000000E+00 0.  1.
          1    1    3    3  501    0  0.47547233183E+01 -0.22022617604E+02 -0.49688991764E+03  0.49740043560E+03  0.00000000000E+00 0.  1.
         -1    1    1    2    0  502 -0.11003614541E+02  0.40281809667E+02 -0.11907524030E+03  0.12618485081E+03  0.00000000000E+00 0. -1.
<mgrwt>
<rscale>  1 0.30000000E+03</rscale>
<asrwt>0</asrwt>
<pdfrwt beam="1">  1       21 0.14745304E-01 0.30000000E+03</pdfrwt>
<pdfrwt beam="2">0</pdfrwt>
<totfact> 0.42505226E+03</totfact>
</mgrwt>
</event>
<event>
 6    1  0.1198667E-001  0.3000000E+03  0.7818608E-02  0.1093470E+00
         21   -1    0    0  501  502  0.00000000000E+00  0.00000000000E+00  0.52512856569E+01  0.52512856569E+01  0.00000000000E+00 0. -1.
         13   -1    0    0    0    0 -0.00000000000E+00 -0.00000000000E+00 -0.10000000000E+04  0.10000000000E+04  0.00000000000E+00 0.  1.
    9000005    2    1    2  501    0 -0.45404776089E+02  0.21257221741E+02 -0.85974079157E+03  0.86123530606E+03  0.76524863242E+01 0.  0.
         13    1    3    3    0    0 -0.24654695544E+02  0.14342585230E+02 -0.53378870611E+03  0.53455022826E+03  0.00000000000E+00 0.  1.
          3    1    3    3  501    0 -0.20750080544E+02  0.69146365104E+01 -0.32595208546E+03  0.32668507780E+03  0.00000000000E+00 0.  1.
         -1    1    1    2    0  502  0.45404776089E+02 -0.21257221741E+02 -0.13500792277E+03  0.14401597960E+03  0.00000000000E+00 0. -1.
<mgrwt>
<rscale>  1 0.30000000E+03</rscale>
<asrwt>0</asrwt>
<pdfrwt beam="1">  1       21 0.19095624E-01 0.30000000E+03</pdfrwt>
<pdfrwt beam="2">0</pdfrwt>
<totfact> 0.26200311E+03</totfact>
</mgrwt>
</event>
<event>
 6    1  0.1198667E-001  0.3000000E+03  0.7818608E-02  0.1093470E+00
         21   -1    0    0  501  502  0.00000000000E+00  0.00000000000E+00  0.11210082619E+01  0.11210082619E+01  0.00000000000E+00 0. -1.
         13   -1    0    0    0    0 -0.00000000000E+00 -0.00000000000E+00 -0.10000000000E+04  0.10000000000E+04  0.00000000000E+00 0.  1.
    9000005    2    1    2  501    0 -0.95415425892E+01 -0.29042626025E+02 -0.29923440341E+03  0.30080888846E+03  0.32006299908E+01 0.  0.
         13    1    3    3    0    0 -0.58525183484E+01 -0.18454438227E+02 -0.17409204950E+03  0.17516523616E+03  0.00000000000E+00 0.  1.
          3    1    3    3  501    0 -0.36890242408E+01 -0.10588187798E+02 -0.12514235391E+03  0.12564365230E+03  0.00000000000E+00 0.  1.
         -3    1    1    2    0  502  0.95415425892E+01  0.29042626025E+02 -0.69964458833E+03  0.70031211980E+03  0.00000000000E+00 0. -1.
<mgrwt>
<rscale>  1 0.30000000E+03</rscale>
<asrwt>0</asrwt>
<pdfrwt beam="1">  1       21 0.40764023E-02 0.30000000E+03</pdfrwt>
<pdfrwt beam="2">0</pdfrwt>
<totfact> 0.40728068E+04</totfact>
</mgrwt>
</event>
<event>
 6    1  0.1198667E-001  0.3000000E+03  0.7818608E-02  0.1093470E+00
         21   -1    0    0  501  502  0.00000000000E+00  0.00000000000E+00  0.26799549951E+01  0.26799549951E+01  0.00000000000E+00 0. -1.
         13   -1    0    0    0    0 -0.00000000000E+00 -0.00000000000E+00 -0.10000000000E+04  0.10000000000E+04  0.00000000000E+00 0.  1.
    9000005    2    1    2  501    0 -0.13448229514E+02 -0.31502290864E+02 -0.87439522871E+03  0.87507211955E+03  0.33089589715E+01 0.  0.
         13    1    3    3    0    0 -0.76932824463E+01 -0.19745396613E+02 -0.50264296715E+03  0.50308947486E+03  0.00000000000E+00 0.  1.
          3    1    3    3  501    0 -0.57549470681E+01 -0.11756894251E+02 -0.37175226156E+03  0.37198264469E+03  0.00000000000E+00 0.  1.
         -3    1    1    2    0  502  0.13448229514E+02  0.31502290864E+02 -0.12292481629E+03  0.12760783545E+03  0.00000000000E+00 0. -1.
<mgrwt>
<rscale>  1 0.30000000E+03</rscale>
<asrwt>0</asrwt>
<pdfrwt beam="1">  1       21 0.97453114E-02 0.30000000E+03</pdfrwt>
<pdfrwt beam="2">0</pdfrwt>
<totfact> 0.90087651E+03</totfact>
</mgrwt>
</event>
<event>
 6    1  0.1198667E-001  0.3000000E+03  0.7818608E-02  0.1093470E+00
         21   -1    0    0  501  502  0.00000000000E+00  0.00000000000E+00  0.18798702047E+01  0.18798702047E+01  0.00000000000E+00 0. -1.
         13   -1    0    0    0    0 -0.00000000000E+00 -0.00000000000E+00 -0.10000000000E+04  0.10000000000E+04  0.00000000000E+00 0.  1.
    9000005    2    1    2  501    0  0.19383547673E+02  0.22939500777E+02 -0.85981347026E+03  0.86035010412E+03  0.45995001431E+01 0.  0.
         13    1    3    3    0    0  0.25999711012E+01  0.26502926592E+01 -0.15617623503E+03  0.15622035811E+03  0.00000000000E+00 0.  1.
          3    1    3    3  501    0  0.16783576572E+02  0.20289208118E+02 -0.70363723523E+03  0.70412974601E+03  0.00000000000E+00 0.  1.
         -3    1    1    2    0  502 -0.19383547673E+02 -0.22939500777E+02 -0.13830665953E+03  0.14152976608E+03  0.00000000000E+00 0. -1.
<mgrwt>
<rscale>  1 0.30000000E+03</rscale>
<asrwt>0</asrwt>
<pdfrwt beam="1">  1       21 0.68359061E-02 0.30000000E+03</pdfrwt>
<pdfrwt beam="2">0</pdfrwt>
<totfact> 0.16814690E+04</totfact>
</mgrwt>
</event>
<event>
 6    1  0.1198667E-001  0.3000000E+03  0.7818608E-02  0.1093470E+00
         21   -1    0    0  501  502  0.00000000000E+00  0.00000000000E+00  0.11960150465E+02  0.11960150465E+02  0.00000000000E+00 0. -1.
         13   -1    0    0    0    0 -0.00000000000E+00 -0.00000000000E+00 -0.10000000000E+04  0.10000000000E+04  0.00000000000E+00 0.  1.
    9000005    2    1    2  501    0 -0.78278301220E+02  0.72545817058E+02 -0.60196970171E+03  0.61140984519E+03  0.80055608227E+01 0.  0.
         13    1    3    3    0    0 -0.15418184595E+02  0.11080831979E+02 -0.11851795250E+03  0.12002920611E+03  0.00000000000E+00 0.  1.
          3    1    3    3  501    0 -0.62860116625E+02  0.61464985080E+02 -0.48345174921E+03  0.49138063909E+03  0.00000000000E+00 0.  1.
         -3    1    1    2    0  502  0.78278301220E+02 -0.72545817058E+02 -0.38607014782E+03  0.40055030527E+03  0.00000000000E+00 0. -1.
<mgrwt>
<rscale>  1 0.30000000E+03</rscale>
<asrwt>0</asrwt>
<pdfrwt beam="1">  1       21 0.43491548E-01 0.30000000E+03</pdfrwt>
<pdfrwt beam="2">0</pdfrwt>
<totfact> 0.50646514E+02</totfact>
</mgrwt>
</event>
<event>
 6    1  0.1198667E-001  0.3000000E+03  0.7818608E-02  0.1093470E+00
         21   -1    0    0  501  502  0.00000000000E+00  0.00000000000E+00  0.38986730552E+02  0.38986730552E+02  0.00000000000E+00 0. -1.
         13   -1    0    0    0    0 -0.00000000000E+00 -0.00000000000E+00 -0.10000000000E+04  0.10000000000E+04  0.00000000000E+00 0.  1.
    9000005    2    1    2  501    0  0.28704179642E+02  0.10066912310E+03 -0.92094334929E+03  0.92689836908E+03  0.67625239955E+01 0.  0.
         13    1    3    3    0    0  0.23526025023E+02  0.73551343181E+02 -0.69299562914E+03  0.69728488865E+03  0.00000000000E+00 0.  1.
          3    1    3    3  501    0  0.51781546195E+01  0.27117779923E+02 -0.22794772016E+03  0.22961348043E+03  0.00000000000E+00 0.  1.
         -3    1    1    2    0  502 -0.28704179642E+02 -0.10066912310E+03 -0.40069920156E+02  0.11208836147E+03  0.00000000000E+00 0. -1.
<mgrwt>
<rscale>  1 0.30000000E+03</rscale>
<asrwt>0</asrwt>
<pdfrwt beam="1">  1       21 0.14177023E+00 0.30000000E+03</pdfrwt>
<pdfrwt beam="2">0</pdfrwt>
<totfact> 0.28295510E+01</totfact>
</mgrwt>
</event>
<event>
 6    1  0.1198667E-001  0.3000000E+03  0.7818608E-02  0.1093470E+00
         21   -1    0    0  501  502  0.00000000000E+00  0.00000000000E+00  0.12961769426E+01  0.12961769426E+01  0.00000000000E+00 0. -1.
         13   -1    0    0    0    0 -0.00000000000E+00 -0.00000000000E+00 -0.10000000000E+04  0.10000000000E+04  0.00000000000E+00 0.  1.
    9000005    2    1    2  501    0 -0.17948693088E+02  0.27319467800E+02 -0.70725514359E+03  0.70802012666E+03  0.37620101836E+01 0.  0.
         13    1    3    3    0    0 -0.14585225723E+02  0.20486545053E+02 -0.51366263997E+03  0.51427787726E+03  0.00000000000E+00 0.  1.
          3    1    3    3  501    0 -0.33634673656E+01  0.68329227476E+01 -0.19359250361E+03  0.19374224940E+03  0.00000000000E+00 0.  1.
         -3    1    1    2    0  502  0.17948693088E+02 -0.27319467800E+02 -0.29144867947E+03  0.29327605028E+03  0.00000000000E+00 0. -1.
<mgrwt>
<rscale>  1 0.30000000E+03</rscale>
<asrwt>0</asrwt>
<pdfrwt beam="1">  1       21 0.47133806E-02 0.30000000E+03</pdfrwt>
<pdfrwt beam="2">0</pdfrwt>
<totfact> 0.31850003E+04</totfact>
</mgrwt>
</event>
<event>
 6    1  0.1198667E-001  0.3000000E+03  0.7818608E-02  0.1093470E+00
         21   -1    0    0  501  502  0.00000000000E+00  0.00000000000E+00  0.11744288661E+01  0.11744288661E+01  0.00000000000E+00 0. -1.
         13   -1    0    0    0    0 -0.00000000000E+00 -0.00000000000E+00 -0.10000000000E+04  0.10000000000E+04  0.00000000000E+00 0.  1.
    9000005    2    1    2  501    0  0.30001430901E+02  0.10729606306E+01 -0.73402614604E+03  0.73467870164E+03  0.75613801603E+01 0.  0.
         13    1    3    3    0    0  0.23348469057E+02  0.37344859593E+01 -0.59175990105E+03  0.59223211487E+03  0.00000000000E+00 0.  1.
          1    1    3    3  501    0  0.66529618448E+01 -0.26615253287E+01 -0.14226624499E+03  0.14244658677E+03  0.00000000000E+00 0.  1.
         -1    1    1    2    0  502 -0.30001430901E+02 -0.10729606306E+01 -0.26479942510E+03  0.26649572723E+03  0.00000000000E+00 0. -1.
<mgrwt>
<rscale>  1 0.30000000E+03</rscale>
<asrwt>0</asrwt>
<pdfrwt beam="1">  1       21 0.42706594E-02 0.30000000E+03</pdfrwt>
<pdfrwt beam="2">0</pdfrwt>
<totfact> 0.37650094E+04</totfact>
</mgrwt>
</event>
<event>
 6    1  0.1198667E-001  0.3000000E+03  0.7818608E-02  0.1093470E+00
         21   -1    0    0  501  502  0.00000000000E+00  0.00000000000E+00  0.97632849098E+01  0.97632849098E+01  0.00000000000E+00 0. -1.
         13   -1    0    0    0    0 -0.00000000000E+00 -0.00000000000E+00 -0.10000000000E+04  0.10000000000E+04  0.00000000000E+00 0.  1.
    9000005    2    1    2  501    0  0.24942308841E+02 -0.38253489854E+02 -0.94282123508E+03  0.94393262335E+03  0.33864222611E+01 0.  0.
         13    1    3    3    0    0  0.88518182827E+01 -0.10726426023E+02 -0.28584090904E+03  0.28617902820E+03  0.00000000000E+00 0.  1.
          1    1    3    3  501    0  0.16090490558E+02 -0.27527063831E+02 -0.65698032604E+03  0.65775359515E+03  0.00000000000E+00 0.  1.
         -3    1    1    2    0  502 -0.24942308841E+02  0.38253489854E+02 -0.47415480008E+02  0.65830661555E+02  0.00000000000E+00 0. -1.
<mgrwt>
<rscale>  1 0.30000000E+03</rscale>
<asrwt>0</asrwt>
<pdfrwt beam="1">  1       21 0.35502929E-01 0.30000000E+03</pdfrwt>
<pdfrwt beam="2">0</pdfrwt>
<totfact> 0.77288655E+02</totfact>
</mgrwt>
</event>
<event>
 6    1  0.1198667E-001  0.3000000E+03  0.7818608E-02  0.1093470E+00
         21   -1    0    0  501  502  0.00000000000E+00  0.00000000000E+00  0.13152629885E+01  0.13152629885E+01  0.00000000000E+00 0. -1.
         13   -1    0    0    0    0 -0.00000000000E+00 -0.00000000000E+00 -0.10000000000E+04  0.10000000000E+04  0.00000000000E+00 0.  1.
    9000005    2    1    2  501    0 -0.25333057418E+02 -0.20353096916E+02 -0.28056233047E+03  0.28245797317E+03  0.33575250913E+01 0.  0.
         13    1    3    3    0    0 -0.17349727404E+02 -0.11900657581E+02 -0.17863692968E+03  0.17987159680E+03  0.00000000000E+00 0.  1.
          1    1    3    3  501    0 -0.79833300146E+01 -0.84524393353E+01 -0.10192540079E+03  0.10258637637E+03  0.00000000000E+00 0.  1.
         -1    1    1    2    0  502  0.25333057418E+02  0.20353096916E+02 -0.71812240654E+03  0.71885728982E+03  0.00000000000E+00 0. -1.
<mgrwt>
<rscale>  1 0.30000000E+03</rscale>
<asrwt>0</asrwt>
<pdfrwt beam="1">  1       21 0.47827846E-02 0.30000000E+03</pdfrwt>
<pdfrwt beam="2">0</pdfrwt>
<totfact> 0.31067893E+04</totfact>
</mgrwt>
</event>
<event>
 6    1  0.1198667E-001  0.3000000E+03  0.7818608E-02  0.1093470E+00
         21   -1    0    0  501  502  0.00000000000E+00  0.00000000000E+00  0.11769291286E+01  0.11769291286E+01  0.00000000000E+00 0. -1.
         13   -1    0    0    0    0 -0.00000000000E+00 -0.00000000000E+00 -0.10000000000E+04  0.10000000000E+04  0.00000000000E+00 0.  1.
    9000005    2    1    2  501    0 -0.33347773684E+02  0.70989426229E+01 -0.54623635917E+03  0.54730778432E+03  0.30301332393E+01 0.  0.
         13    1    3    3    0    0 -0.26635027018E+02  0.44462321262E+01 -0.43575466508E+03  0.43659056538E+03  0.00000000000E+00 0.  1.
          1    1    3    3  501    0 -0.67127466664E+01  0.26527104966E+01 -0.11048169409E+03  0.11071721894E+03  0.00000000000E+00 0.  1.
         -1    1    1    2    0  502  0.33347773684E+02 -0.70989426229E+01 -0.45258671170E+03  0.45386914480E+03  0.00000000000E+00 0. -1.
<mgrwt>
<rscale>  1 0.30000000E+03</rscale>
<asrwt>0</asrwt>
<pdfrwt beam="1">  1       21 0.42797513E-02 0.30000000E+03</pdfrwt>
<pdfrwt beam="2">0</pdfrwt>
<totfact> 0.37514976E+04</totfact>
</mgrwt>
</event>
<event>
 6    1  0.1198667E-001  0.3000000E+03  0.7818608E-02  0.1093470E+00
         21   -1    0    0  501  502  0.00000000000E+00  0.00000000000E+00  0.14255911877E+01  0.14255911877E+01  0.00000000000E+00 0. -1.
         13   -1    0    0    0    0 -0.00000000000E+00 -0.00000000000E+00 -0.10000000000E+04  0.10000000000E+04  0.00000000000E+00 0.  1.
    9000005    2    1    2  501    0 -0.81728314517E+01  0.36781683702E+02 -0.49066157538E+03  0.49211710531E+03  0.32827346197E+01 0.  0.
         13    1    3    3    0    0 -0.36192207809E+01  0.19444594923E+02 -0.27669759893E+03  0.27740359097E+03  0.00000000000E+00 0.  1.
          1    1    3    3  501    0 -0.45536106708E+01  0.17337088779E+02 -0.21396397646E+03  0.21471351434E+03  0.00000000000E+00 0.  1.
         -1    1    1    2    0  502  0.81728314517E+01 -0.36781683702E+02 -0.50791283343E+03  0.50930848588E+03  0.00000000000E+00 0. -1.
<mgrwt>
<rscale>  1 0.30000000E+03</rscale>
<asrwt>0</asrwt>
<pdfrwt beam="1">  1       21 0.51839789E-02 0.30000000E+03</pdfrwt>
<pdfrwt beam="2">0</pdfrwt>
<totfact> 0.27082258E+04</totfact>
</mgrwt>
</event>
<event>
 6    1  0.1198667E-001  0.3000000E+03  0.7818608E-02  0.1093470E+00
         21   -1    0    0  501  502  0.00000000000E+00  0.00000000000E+00  0.53341353249E+01  0.53341353249E+01  0.00000000000E+00 0. -1.
         13   -1    0    0    0    0 -0.00000000000E+00 -0.00000000000E+00 -0.10000000000E+04  0.10000000000E+04  0.00000000000E+00 0.  1.
    9000005    2    1    2  501    0 -0.38540401965E+02  0.58796001532E+01 -0.92235963644E+03  0.92318717602E+03  0.27075358223E+01 0.  0.
         13    1    3    3    0    0 -0.22988739060E+01  0.56714228404E+00 -0.72251520476E+02  0.72290308360E+02  0.00000000000E+00 0.  1.
          1    1    3    3  501    0 -0.36241528059E+02  0.53124578691E+01 -0.85010811597E+03  0.85089686766E+03  0.00000000000E+00 0.  1.
         -3    1    1    2    0  502  0.38540401965E+02 -0.58796001532E+01 -0.72306228231E+02  0.82146959302E+02  0.00000000000E+00 0. -1.
<mgrwt>
<rscale>  1 0.30000000E+03</rscale>
<asrwt>0</asrwt>
<pdfrwt beam="1">  1       21 0.19396897E-01 0.30000000E+03</pdfrwt>
<pdfrwt beam="2">0</pdfrwt>
<totfact> 0.25433086E+03</totfact>
</mgrwt>
</event>
<event>
 6    1  0.1198667E-001  0.3000000E+03  0.7818608E-02  0.1093470E+00
         21   -1    0    0  501  502  0.00000000000E+00  0.00000000000E+00  0.10366324057E+02  0.10366324057E+02  0.00000000000E+00 0. -1.
         13   -1    0    0    0    0 -0.00000000000E+00 -0.00000000000E+00 -0.10000000000E+04  0.10000000000E+04  0.00000000000E+00 0.  1.
    9000005    2    1    2  501    0  0.84156543793E+02  0.47639302244E+02 -0.65251988054E+03  0.65965627569E+03  0.35186025244E+01 0.  0.
         13    1    3    3    0    0  0.47981769855E+02  0.25154989821E+02 -0.36559343001E+03  0.36958568670E+03  0.00000000000E+00 0.  1.
          1    1    3    3  501    0  0.36174773939E+02  0.22484312423E+02 -0.28692645054E+03  0.29007058898E+03  0.00000000000E+00 0.  1.
         -1    1    1    2    0  502 -0.84156543793E+02 -0.47639302244E+02 -0.33711379540E+03  0.35071004837E+03  0.00000000000E+00 0. -1.
<mgrwt>
<rscale>  1 0.30000000E+03</rscale>
<asrwt>0</asrwt>
<pdfrwt beam="1">  1       21 0.37695803E-01 0.30000000E+03</pdfrwt>
<pdfrwt beam="2">0</pdfrwt>
<totfact> 0.68322309E+02</totfact>
</mgrwt>
</event>
<event>
 6    1  0.1198667E-001  0.3000000E+03  0.7818608E-02  0.1093470E+00
         21   -1    0    0  501  502  0.00000000000E+00  0.00000000000E+00  0.23973820775E+01  0.23973820775E+01  0.00000000000E+00 0. -1.
         13   -1    0    0    0    0 -0.00000000000E+00 -0.00000000000E+00 -0.10000000000E+04  0.10000000000E+04  0.00000000000E+00 0.  1.
    9000005    2    1    2  501    0 -0.31777834824E+02 -0.36481115976E+02 -0.57200117862E+03  0.57405489324E+03  0.36013190263E+01 0.  0.
         13    1    3    3    0    0 -0.20262224324E+01 -0.15509259795E+01 -0.23577806085E+02  0.23715477826E+02  0.00000000000E+00 0.  1.
          1    1    3    3  501    0 -0.29751612391E+02 -0.34930189997E+02 -0.54842337253E+03  0.55033941541E+03  0.00000000000E+00 0.  1.
         -3    1    1    2    0  502  0.31777834824E+02  0.36481115976E+02 -0.42560143930E+03  0.42834248884E+03  0.00000000000E+00 0. -1.
<mgrwt>
<rscale>  1 0.30000000E+03</rscale>
<asrwt>0</asrwt>
<pdfrwt beam="1">  1       21 0.87177714E-02 0.30000000E+03</pdfrwt>
<pdfrwt beam="2">0</pdfrwt>
<totfact> 0.10979882E+04</totfact>
</mgrwt>
</event>
<event>
 6    1  0.1198667E-001  0.3000000E+03  0.7818608E-02  0.1093470E+00
         21   -1    0    0  501  502  0.00000000000E+00  0.00000000000E+00  0.13476282987E+01  0.13476282987E+01  0.00000000000E+00 0. -1.
         13   -1    0    0    0    0 -0.00000000000E+00 -0.00000000000E+00 -0.10000000000E+04  0.10000000000E+04  0.00000000000E+00 0.  1.
    9000005    2    1    2  501    0 -0.42747737547E+01 -0.32141830489E+02 -0.73306551338E+03  0.73378875577E+03  0.30854860284E+01 0.  0.
         13    1    3    3    0    0 -0.59131310457E+00 -0.15120707663E+02 -0.35489084748E+03  0.35521331490E+03  0.00000000000E+00 0.  1.
          3    1    3    3  501    0 -0.36834606502E+01 -0.17021122826E+02 -0.37817466590E+03  0.37857544087E+03  0.00000000000E+00 0.  1.
         -3    1    1    2    0  502  0.42747737547E+01  0.32141830489E+02 -0.26558685832E+03  0.26755887253E+03  0.00000000000E+00 0. -1.
<mgrwt>
<rscale>  1 0.30000000E+03</rscale>
<asrwt>0</asrwt>
<pdfrwt beam="1">  1       21 0.49004769E-02 0.30000000E+03</pdfrwt>
<pdfrwt beam="2">0</pdfrwt>
<totfact> 0.29808533E+04</totfact>
</mgrwt>
</event>
<event>
 6    1  0.1198667E-001  0.3000000E+03  0.7818608E-02  0.1093470E+00
         21   -1    0    0  501  502  0.00000000000E+00  0.00000000000E+00  0.15521899323E+01  0.15521899323E+01  0.00000000000E+00 0. -1.
         13   -1    0    0    0    0 -0.00000000000E+00 -0.00000000000E+00 -0.10000000000E+04  0.10000000000E+04  0.00000000000E+00 0.  1.
    9000005    2    1    2  501    0 -0.47770672967E+00 -0.33072942958E+02 -0.77027702414E+03  0.77099643679E+03  0.38423760245E+01 0.  0.
         13    1    3    3    0    0  0.81211740187E+00 -0.21634577765E+01 -0.65521791677E+02  0.65562529456E+02  0.00000000000E+00 0.  1.
          1    1    3    3  501    0 -0.12898241315E+01 -0.30909485182E+02 -0.70475523247E+03  0.70543390733E+03  0.00000000000E+00 0.  1.
         -3    1    1    2    0  502  0.47770672967E+00  0.33072942958E+02 -0.22817078592E+03  0.23055575314E+03  0.00000000000E+00 0. -1.
<mgrwt>
<rscale>  1 0.30000000E+03</rscale>
<asrwt>0</asrwt>
<pdfrwt beam="1">  1       21 0.56443389E-02 0.30000000E+03</pdfrwt>
<pdfrwt beam="2">0</pdfrwt>
<totfact> 0.23409802E+04</totfact>
</mgrwt>
</event>
<event>
 6    1  0.1198667E-001  0.3000000E+03  0.7818608E-02  0.1093470E+00
         21   -1    0    0  501  502  0.00000000000E+00  0.00000000000E+00  0.15090114583E+01  0.15090114583E+01  0.00000000000E+00 0. -1.
         13   -1    0    0    0    0 -0.00000000000E+00 -0.00000000000E+00 -0.10000000000E+04  0.10000000000E+04  0.00000000000E+00 0.  1.
    9000005    2    1    2  501    0 -0.35772188265E+02  0.12278275495E+02 -0.61000438124E+03  0.61118574856E+03  0.35026583513E+01 0.  0.
         13    1    3    3    0    0 -0.35736464358E+02  0.12354004167E+02 -0.60487039893E+03  0.60605108350E+03  0.00000000000E+00 0.  1.
          1    1    3    3  501    0 -0.35723906513E-01 -0.75728671922E-01 -0.51339823026E+01  0.51346650633E+01  0.00000000000E+00 0.  1.
         -1    1    1    2    0  502  0.35772188265E+02 -0.12278275495E+02 -0.38848660731E+03  0.39032326290E+03  0.00000000000E+00 0. -1.
<mgrwt>
<rscale>  1 0.30000000E+03</rscale>
<asrwt>0</asrwt>
<pdfrwt beam="1">  1       21 0.54873260E-02 0.30000000E+03</pdfrwt>
<pdfrwt beam="2">0</pdfrwt>
<totfact> 0.24571148E+04</totfact>
</mgrwt>
</event>
<event>
 6    1  0.1198667E-001  0.3000000E+03  0.7818608E-02  0.1093470E+00
         21   -1    0    0  501  502  0.00000000000E+00  0.00000000000E+00  0.15835957419E+01  0.15835957419E+01  0.00000000000E+00 0. -1.
         13   -1    0    0    0    0 -0.00000000000E+00 -0.00000000000E+00 -0.10000000000E+04  0.10000000000E+04  0.00000000000E+00 0.  1.
    9000005    2    1    2  501    0 -0.28123903563E+02  0.15788786820E+02 -0.79198070480E+03  0.79264356188E+03  0.31842845212E+01 0.  0.
         13    1    3    3    0    0 -0.18310480325E+02  0.94133729601E+01 -0.47159453551E+03  0.47204373866E+03  0.00000000000E+00 0.  1.
          1    1    3    3  501    0 -0.98134232378E+01  0.63754138598E+01 -0.32038616929E+03  0.32059982322E+03  0.00000000000E+00 0.  1.
         -1    1    1    2    0  502  0.28123903563E+02 -0.15788786820E+02 -0.20643569946E+03  0.20894003387E+03  0.00000000000E+00 0. -1.
<mgrwt>
<rscale>  1 0.30000000E+03</rscale>
<asrwt>0</asrwt>
<pdfrwt beam="1">  1       21 0.57585421E-02 0.30000000E+03</pdfrwt>
<pdfrwt beam="2">0</pdfrwt>
<totfact> 0.22617177E+04</totfact>
</mgrwt>
</event>
<event>
 6    1  0.1198667E-001  0.3000000E+03  0.7818608E-02  0.1093470E+00
         21   -1    0    0  501  502  0.00000000000E+00  0.00000000000E+00  0.15998998940E+01  0.15998998940E+01  0.00000000000E+00 0. -1.
         13   -1    0    0    0    0 -0.00000000000E+00 -0.00000000000E+00 -0.10000000000E+04  0.10000000000E+04  0.00000000000E+00 0.  1.
    9000005    2    1    2  501    0  0.36533733742E+02 -0.74793186214E+01 -0.32151859633E+03  0.32369192379E+03  0.34058529273E+01 0.  0.
         13    1    3    3    0    0  0.11474460804E+02 -0.18051264850E+01 -0.87705898684E+02  0.88471726537E+02  0.00000000000E+00 0.  1.
          1    1    3    3  501    0  0.25059272938E+02 -0.56741921363E+01 -0.23381269765E+03  0.23522019726E+03  0.00000000000E+00 0.  1.
         -3    1    1    2    0  502 -0.36533733742E+02  0.74793186214E+01 -0.67688150377E+03  0.67790797610E+03  0.00000000000E+00 0. -1.
<mgrwt>
<rscale>  1 0.30000000E+03</rscale>
<asrwt>0</asrwt>
<pdfrwt beam="1">  1       21 0.58178301E-02 0.30000000E+03</pdfrwt>
<pdfrwt beam="2">0</pdfrwt>
<totfact> 0.22221780E+04</totfact>
</mgrwt>
</event>
<event>
 6    1  0.1198667E-001  0.3000000E+03  0.7818608E-02  0.1093470E+00
         21   -1    0    0  501  502  0.00000000000E+00  0.00000000000E+00  0.76750988424E+01  0.76750988424E+01  0.00000000000E+00 0. -1.
         13   -1    0    0    0    0 -0.00000000000E+00 -0.00000000000E+00 -0.10000000000E+04  0.10000000000E+04  0.00000000000E+00 0.  1.
    9000005    2    1    2  501    0 -0.45549633143E+02 -0.24848365672E+02 -0.90207737751E+03  0.90357502257E+03  0.34664153189E+01 0.  0.
         13    1    3    3    0    0 -0.28150435551E+02 -0.16511253089E+02 -0.54342234747E+03  0.54440142930E+03  0.00000000000E+00 0.  1.
          3    1    3    3  501    0 -0.17399197592E+02 -0.83371125832E+01 -0.35865503004E+03  0.35917359327E+03  0.00000000000E+00 0.  1.
         -1    1    1    2    0  502  0.45549633143E+02  0.24848365672E+02 -0.90247523647E+02  0.10410007628E+03  0.00000000000E+00 0. -1.
<mgrwt>
<rscale>  1 0.30000000E+03</rscale>
<asrwt>0</asrwt>
<pdfrwt beam="1">  1       21 0.27909509E-01 0.30000000E+03</pdfrwt>
<pdfrwt beam="2">0</pdfrwt>
<totfact> 0.12554299E+03</totfact>
</mgrwt>
</event>
<event>
 6    1  0.1198667E-001  0.3000000E+03  0.7818608E-02  0.1093470E+00
         21   -1    0    0  501  502  0.00000000000E+00  0.00000000000E+00  0.11844212458E+01  0.11844212458E+01  0.00000000000E+00 0. -1.
         13   -1    0    0    0    0 -0.00000000000E+00 -0.00000000000E+00 -0.10000000000E+04  0.10000000000E+04  0.00000000000E+00 0.  1.
    9000005    2    1    2  501    0  0.25804423910E+02 -0.18511942881E+02 -0.30981407190E+03  0.31145140277E+03  0.29422474704E+01 0.  0.
         13    1    3    3    0    0  0.16966685035E+02 -0.10926227266E+02 -0.20595627023E+03  0.20694259129E+03  0.00000000000E+00 0.  1.
          1    1    3    3  501    0  0.88377388756E+01 -0.75857156149E+01 -0.10385780167E+03  0.10450881148E+03  0.00000000000E+00 0.  1.
         -1    1    1    2    0  502 -0.25804423910E+02  0.18511942881E+02 -0.68900150686E+03  0.68973301847E+03  0.00000000000E+00 0. -1.
<mgrwt>
<rscale>  1 0.30000000E+03</rscale>
<asrwt>0</asrwt>
<pdfrwt beam="1">  1       21 0.43069954E-02 0.30000000E+03</pdfrwt>
<pdfrwt beam="2">0</pdfrwt>
<totfact> 0.37114566E+04</totfact>
</mgrwt>
</event>
<event>
 6    1  0.1198667E-001  0.3000000E+03  0.7818608E-02  0.1093470E+00
         21   -1    0    0  501  502  0.00000000000E+00  0.00000000000E+00  0.10408860378E+01  0.10408860378E+01  0.00000000000E+00 0. -1.
         13   -1    0    0    0    0 -0.00000000000E+00 -0.00000000000E+00 -0.10000000000E+04  0.10000000000E+04  0.00000000000E+00 0.  1.
    9000005    2    1    2  501    0 -0.28637153103E+01  0.31079503914E+02 -0.62195788975E+03  0.62274991405E+03  0.34208770509E+01 0.  0.
         13    1    3    3    0    0 -0.80380404747E-01  0.15219946169E+02 -0.32390544470E+03  0.32426284142E+03  0.00000000000E+00 0.  1.
          1    1    3    3  501    0 -0.27833349055E+01  0.15859557746E+02 -0.29805244505E+03  0.29848707263E+03  0.00000000000E+00 0.  1.
         -3    1    1    2    0  502  0.28637153103E+01 -0.31079503914E+02 -0.37700122421E+03  0.37829097198E+03  0.00000000000E+00 0. -1.
<mgrwt>
<rscale>  1 0.30000000E+03</rscale>
<asrwt>0</asrwt>
<pdfrwt beam="1">  1       21 0.37850481E-02 0.30000000E+03</pdfrwt>
<pdfrwt beam="2">0</pdfrwt>
<totfact> 0.46140678E+04</totfact>
</mgrwt>
</event>
<event>
 6    1  0.1198667E-001  0.3000000E+03  0.7818608E-02  0.1093470E+00
         21   -1    0    0  501  502  0.00000000000E+00  0.00000000000E+00  0.19657579619E+01  0.19657579619E+01  0.00000000000E+00 0. -1.
         13   -1    0    0    0    0 -0.00000000000E+00 -0.00000000000E+00 -0.10000000000E+04  0.10000000000E+04  0.00000000000E+00 0.  1.
    9000005    2    1    2  501    0  0.10842181469E+02 -0.34842571271E+02 -0.78233347146E+03  0.78320017543E+03  0.50295683466E+01 0.  0.
         13    1    3    3    0    0  0.56947578211E+01 -0.15773972925E+02 -0.30893668868E+03  0.30939154174E+03  0.00000000000E+00 0.  1.
          3    1    3    3  501    0  0.51474236481E+01 -0.19068598345E+02 -0.47339678279E+03  0.47380863370E+03  0.00000000000E+00 0.  1.
         -1    1    1    2    0  502 -0.10842181469E+02  0.34842571271E+02 -0.21570077058E+03  0.21876558253E+03  0.00000000000E+00 0. -1.
<mgrwt>
<rscale>  1 0.30000000E+03</rscale>
<asrwt>0</asrwt>
<pdfrwt beam="1">  1       21 0.71482258E-02 0.30000000E+03</pdfrwt>
<pdfrwt beam="2">0</pdfrwt>
<totfact> 0.15556986E+04</totfact>
</mgrwt>
</event>
<event>
 6    1  0.1198667E-001  0.3000000E+03  0.7818608E-02  0.1093470E+00
         21   -1    0    0  501  502  0.00000000000E+00  0.00000000000E+00  0.10909892078E+01  0.10909892078E+01  0.00000000000E+00 0. -1.
         13   -1    0    0    0    0 -0.00000000000E+00 -0.00000000000E+00 -0.10000000000E+04  0.10000000000E+04  0.00000000000E+00 0.  1.
    9000005    2    1    2  501    0 -0.30074083277E+02 -0.96255632049E+01 -0.37114149090E+03  0.37252980605E+03  0.59454326842E+01 0.  0.
         13    1    3    3    0    0 -0.24791094439E+02 -0.10000157830E+02 -0.32009724951E+03  0.32121153569E+03  0.00000000000E+00 0.  1.
          3    1    3    3  501    0 -0.52829888383E+01  0.37459462529E+00 -0.51044241398E+02  0.51318270354E+02  0.00000000000E+00 0.  1.
         -1    1    1    2    0  502  0.30074083277E+02  0.96255632049E+01 -0.62776751989E+03  0.62856118316E+03  0.00000000000E+00 0. -1.
<mgrwt>
<rscale>  1 0.30000000E+03</rscale>
<asrwt>0</asrwt>
<pdfrwt beam="1">  1       21 0.39672418E-02 0.30000000E+03</pdfrwt>
<pdfrwt beam="2">0</pdfrwt>
<totfact> 0.42633534E+04</totfact>
</mgrwt>
</event>
<event>
 6    1  0.1198667E-001  0.3000000E+03  0.7818608E-02  0.1093470E+00
         21   -1    0    0  501  502  0.00000000000E+00  0.00000000000E+00  0.13125950260E+01  0.13125950260E+01  0.00000000000E+00 0. -1.
         13   -1    0    0    0    0 -0.00000000000E+00 -0.00000000000E+00 -0.10000000000E+04  0.10000000000E+04  0.00000000000E+00 0.  1.
    9000005    2    1    2  501    0  0.13144744881E+02 -0.27028017698E+02 -0.77801181397E+03  0.77859974285E+03  0.34465683421E+01 0.  0.
         13    1    3    3    0    0  0.11662484622E+02 -0.21117491305E+02 -0.60567858129E+03  0.60615881237E+03  0.00000000000E+00 0.  1.
          1    1    3    3  501    0  0.14822602589E+01 -0.59105263925E+01 -0.17233323269E+03  0.17244093048E+03  0.00000000000E+00 0.  1.
         -3    1    1    2    0  502 -0.13144744881E+02  0.27028017698E+02 -0.22067559100E+03  0.22271285217E+03  0.00000000000E+00 0. -1.
<mgrwt>
<rscale>  1 0.30000000E+03</rscale>
<asrwt>0</asrwt>
<pdfrwt beam="1">  1       21 0.47730829E-02 0.30000000E+03</pdfrwt>
<pdfrwt beam="2">0</pdfrwt>
<totfact> 0.31175403E+04</totfact>
</mgrwt>
</event>
<event>
 6    1  0.1198667E-001  0.3000000E+03  0.7818608E-02  0.1093470E+00
         21   -1    0    0  501  502  0.00000000000E+00  0.00000000000E+00  0.24524686673E+01  0.24524686673E+01  0.00000000000E+00 0. -1.
         13   -1    0    0    0    0 -0.00000000000E+00 -0.00000000000E+00 -0.10000000000E+04  0.10000000000E+04  0.00000000000E+00 0.  1.
    9000005    2    1    2  501    0 -0.14557024694E+02 -0.46018811288E+02 -0.38953776974E+03  0.39252992592E+03  0.32296637346E+01 0.  0.
         13    1    3    3    0    0 -0.10963230825E+02 -0.34010140428E+02 -0.27658032743E+03  0.27887911288E+03  0.00000000000E+00 0.  1.
          3    1    3    3  501    0 -0.35937938687E+01 -0.12008670860E+02 -0.11295744232E+03  0.11365081304E+03  0.00000000000E+00 0.  1.
         -3    1    1    2    0  502  0.14557024694E+02  0.46018811288E+02 -0.60800976159E+03  0.60992254275E+03  0.00000000000E+00 0. -1.
<mgrwt>
<rscale>  1 0.30000000E+03</rscale>
<asrwt>0</asrwt>
<pdfrwt beam="1">  1       21 0.89180867E-02 0.30000000E+03</pdfrwt>
<pdfrwt beam="2">0</pdfrwt>
<totfact> 0.10547498E+04</totfact>
</mgrwt>
</event>
<event>
 6    1  0.1198667E-001  0.3000000E+03  0.7818608E-02  0.1093470E+00
         21   -1    0    0  501  502  0.00000000000E+00  0.00000000000E+00  0.17303815679E+01  0.17303815679E+01  0.00000000000E+00 0. -1.
         13   -1    0    0    0    0 -0.00000000000E+00 -0.00000000000E+00 -0.10000000000E+04  0.10000000000E+04  0.00000000000E+00 0.  1.
    9000005    2    1    2  501    0  0.34621137328E+02  0.33427634725E+01 -0.77322298002E+03  0.77401172472E+03  0.32520686211E+01 0.  0.
         13    1    3    3    0    0  0.30165319201E+02  0.39946691847E+01 -0.67079359892E+03  0.67148339980E+03  0.00000000000E+00 0.  1.
          1    1    3    3  501    0  0.44558181267E+01 -0.65190571223E+00 -0.10242938110E+03  0.10252832491E+03  0.00000000000E+00 0.  1.
         -1    1    1    2    0  502 -0.34621137328E+02 -0.33427634725E+01 -0.22504663841E+03  0.22771865685E+03  0.00000000000E+00 0. -1.
<mgrwt>
<rscale>  1 0.30000000E+03</rscale>
<asrwt>0</asrwt>
<pdfrwt beam="1">  1       21 0.62923099E-02 0.30000000E+03</pdfrwt>
<pdfrwt beam="2">0</pdfrwt>
<totfact> 0.19410344E+04</totfact>
</mgrwt>
</event>
<event>
 6    1  0.1198667E-001  0.3000000E+03  0.7818608E-02  0.1093470E+00
         21   -1    0    0  501  502  0.00000000000E+00  0.00000000000E+00  0.32232150748E+01  0.32232150748E+01  0.00000000000E+00 0. -1.
         13   -1    0    0    0    0 -0.00000000000E+00 -0.00000000000E+00 -0.10000000000E+04  0.10000000000E+04  0.00000000000E+00 0.  1.
    9000005    2    1    2  501    0  0.30556437431E+02 -0.25117147625E+02 -0.85796946960E+03  0.85889013584E+03  0.40109483080E+01 0.  0.
         13    1    3    3    0    0  0.26622877310E+01 -0.28076724439E+01 -0.63059304036E+02  0.63177896657E+02  0.00000000000E+00 0.  1.
          1    1    3    3  501    0  0.27894149700E+02 -0.22309475181E+02 -0.79491016556E+03  0.79571223918E+03  0.00000000000E+00 0.  1.
         -3    1    1    2    0  502 -0.30556437431E+02  0.25117147625E+02 -0.13880731532E+03  0.14433307923E+03  0.00000000000E+00 0. -1.
<mgrwt>
<rscale>  1 0.30000000E+03</rscale>
<asrwt>0</asrwt>
<pdfrwt beam="1">  1       21 0.11720807E-01 0.30000000E+03</pdfrwt>
<pdfrwt beam="2">0</pdfrwt>
<totfact> 0.64672618E+03</totfact>
</mgrwt>
</event>
<event>
 6    1  0.1198667E-001  0.3000000E+03  0.7818608E-02  0.1093470E+00
         21   -1    0    0  501  502  0.00000000000E+00  0.00000000000E+00  0.11182503900E+01  0.11182503900E+01  0.00000000000E+00 0. -1.
         13   -1    0    0    0    0 -0.00000000000E+00 -0.00000000000E+00 -0.10000000000E+04  0.10000000000E+04  0.00000000000E+00 0.  1.
    9000005    2    1    2  501    0 -0.11470464165E+02  0.30857072896E+02 -0.57779590993E+03  0.57874754251E+03  0.41077894104E+01 0.  0.
         13    1    3    3    0    0 -0.94389398979E+01  0.28621578904E+02 -0.53023272682E+03  0.53108853589E+03  0.00000000000E+00 0.  1.
          1    1    3    3  501    0 -0.20315242675E+01  0.22354939921E+01 -0.47563183117E+02  0.47659006625E+02  0.00000000000E+00 0.  1.
         -1    1    1    2    0  502  0.11470464165E+02 -0.30857072896E+02 -0.42108583968E+03  0.42237070788E+03  0.00000000000E+00 0. -1.
<mgrwt>
<rscale>  1 0.30000000E+03</rscale>
<asrwt>0</asrwt>
<pdfrwt beam="1">  1       21 0.40663736E-02 0.30000000E+03</pdfrwt>
<pdfrwt beam="2">0</pdfrwt>
<totfact> 0.40897521E+04</totfact>
</mgrwt>
</event>
<event>
 6    1  0.1198667E-001  0.3000000E+03  0.7818608E-02  0.1093470E+00
         21   -1    0    0  501  502  0.00000000000E+00  0.00000000000E+00  0.21889985283E+01  0.21889985283E+01  0.00000000000E+00 0. -1.
         13   -1    0    0    0    0 -0.00000000000E+00 -0.00000000000E+00 -0.10000000000E+04  0.10000000000E+04  0.00000000000E+00 0.  1.
    9000005    2    1    2  501    0  0.16873799130E+02  0.32906050096E+02 -0.80546754790E+03  0.80632287751E+03  0.33284905602E+01 0.  0.
         13    1    3    3    0    0  0.28053616290E+01  0.85967991158E+01 -0.19673860744E+03  0.19694632433E+03  0.00000000000E+00 0.  1.
          3    1    3    3  501    0  0.14068437501E+02  0.24309250981E+02 -0.60872894046E+03  0.60937655318E+03  0.00000000000E+00 0.  1.
         -1    1    1    2    0  502 -0.16873799130E+02 -0.32906050096E+02 -0.19234345357E+03  0.19586612102E+03  0.00000000000E+00 0. -1.
<mgrwt>
<rscale>  1 0.30000000E+03</rscale>
<asrwt>0</asrwt>
<pdfrwt beam="1">  1       21 0.79600114E-02 0.30000000E+03</pdfrwt>
<pdfrwt beam="2">0</pdfrwt>
<totfact> 0.12886782E+04</totfact>
</mgrwt>
</event>
<event>
 6    1  0.1198667E-001  0.3000000E+03  0.7818608E-02  0.1093470E+00
         21   -1    0    0  501  502  0.00000000000E+00  0.00000000000E+00  0.11385454865E+01  0.11385454865E+01  0.00000000000E+00 0. -1.
         13   -1    0    0    0    0 -0.00000000000E+00 -0.00000000000E+00 -0.10000000000E+04  0.10000000000E+04  0.00000000000E+00 0.  1.
    9000005    2    1    2  501    0  0.27740862184E+02 -0.16985453326E+02 -0.61388521590E+03  0.61479056069E+03  0.73698136596E+01 0.  0.
         13    1    3    3    0    0  0.14258364409E+02 -0.12913162377E+02 -0.36751561544E+03  0.36801872006E+03  0.00000000000E+00 0.  1.
          3    1    3    3  501    0  0.13482497775E+02 -0.40722909488E+01 -0.24636960045E+03  0.24677184063E+03  0.00000000000E+00 0.  1.
         -1    1    1    2    0  502 -0.27740862184E+02  0.16985453326E+02 -0.38497623862E+03  0.38634798480E+03  0.00000000000E+00 0. -1.
<mgrwt>
<rscale>  1 0.30000000E+03</rscale>
<asrwt>0</asrwt>
<pdfrwt beam="1">  1       21 0.41401741E-02 0.30000000E+03</pdfrwt>
<pdfrwt beam="2">0</pdfrwt>
<totfact> 0.39675697E+04</totfact>
</mgrwt>
</event>
<event>
 6    1  0.1198667E-001  0.3000000E+03  0.7818608E-02  0.1093470E+00
         21   -1    0    0  501  502  0.00000000000E+00  0.00000000000E+00  0.24213639460E+01  0.24213639460E+01  0.00000000000E+00 0. -1.
         13   -1    0    0    0    0 -0.00000000000E+00 -0.00000000000E+00 -0.10000000000E+04  0.10000000000E+04  0.00000000000E+00 0.  1.
    9000005    2    1    2  501    0  0.15703032450E+02 -0.34528603361E+02 -0.81753381365E+03  0.81842422333E+03  0.42264883565E+01 0.  0.
         13    1    3    3    0    0  0.10907980334E+02 -0.20121512132E+02 -0.51923114518E+03  0.51973535709E+03  0.00000000000E+00 0.  1.
          3    1    3    3  501    0  0.47950521159E+01 -0.14407091228E+02 -0.29830266847E+03  0.29868886625E+03  0.00000000000E+00 0.  1.
         -1    1    1    2    0  502 -0.15703032450E+02  0.34528603361E+02 -0.18004482241E+03  0.18399714061E+03  0.00000000000E+00 0. -1.
<mgrwt>
<rscale>  1 0.30000000E+03</rscale>
<asrwt>0</asrwt>
<pdfrwt beam="1">  1       21 0.88049784E-02 0.30000000E+03</pdfrwt>
<pdfrwt beam="2">0</pdfrwt>
<totfact> 0.10788398E+04</totfact>
</mgrwt>
</event>
<event>
 6    1  0.1198667E-001  0.3000000E+03  0.7818608E-02  0.1093470E+00
         21   -1    0    0  501  502  0.00000000000E+00  0.00000000000E+00  0.20740299008E+01  0.20740299008E+01  0.00000000000E+00 0. -1.
         13   -1    0    0    0    0 -0.00000000000E+00 -0.00000000000E+00 -0.10000000000E+04  0.10000000000E+04  0.00000000000E+00 0.  1.
    9000005    2    1    2  501    0 -0.36650370175E+02 -0.26329835563E+02 -0.43908208292E+03  0.44141102941E+03  0.37565242234E+01 0.  0.
         13    1    3    3    0    0 -0.30909313920E+02 -0.20766404090E+02 -0.35309040306E+03  0.35504853465E+03  0.00000000000E+00 0.  1.
          3    1    3    3  501    0 -0.57410562556E+01 -0.55634314729E+01 -0.85991679858E+02  0.86362494761E+02  0.00000000000E+00 0.  1.
         -1    1    1    2    0  502  0.36650370175E+02  0.26329835563E+02 -0.55884388718E+03  0.56066300049E+03  0.00000000000E+00 0. -1.
<mgrwt>
<rscale>  1 0.30000000E+03</rscale>
<asrwt>0</asrwt>
<pdfrwt beam="1">  1       21 0.75419428E-02 0.30000000E+03</pdfrwt>
<pdfrwt beam="2">0</pdfrwt>
<totfact> 0.14165454E+04</totfact>
</mgrwt>
</event>
<event>
 6    1  0.1198667E-001  0.3000000E+03  0.7818608E-02  0.1093470E+00
         21   -1    0    0  501  502  0.00000000000E+00  0.00000000000E+00  0.16283610483E+01  0.16283610483E+01  0.00000000000E+00 0. -1.
         13   -1    0    0    0    0 -0.00000000000E+00 -0.00000000000E+00 -0.10000000000E+04  0.10000000000E+04  0.00000000000E+00 0.  1.
    9000005    2    1    2  501    0 -0.15609246103E+02 -0.36380608559E+02 -0.40717343089E+03  0.40910619398E+03  0.32369573972E+01 0.  0.
         13    1    3    3    0    0 -0.35763462012E+01 -0.80686101149E+01 -0.10537217974E+03  0.10574114140E+03  0.00000000000E+00 0.  1.
          3    1    3    3  501    0 -0.12032899902E+02 -0.28311998444E+02 -0.30180125114E+03  0.30336505258E+03  0.00000000000E+00 0.  1.
         -3    1    1    2    0  502  0.15609246103E+02  0.36380608559E+02 -0.59119820807E+03  0.59252216706E+03  0.00000000000E+00 0. -1.
<mgrwt>
<rscale>  1 0.30000000E+03</rscale>
<asrwt>0</asrwt>
<pdfrwt beam="1">  1       21 0.59213254E-02 0.30000000E+03</pdfrwt>
<pdfrwt beam="2">0</pdfrwt>
<totfact> 0.21556713E+04</totfact>
</mgrwt>
</event>
<event>
 6    1  0.1198667E-001  0.3000000E+03  0.7818608E-02  0.1093470E+00
         21   -1    0    0  501  502  0.00000000000E+00  0.00000000000E+00  0.41113739518E+01  0.41113739518E+01  0.00000000000E+00 0. -1.
         13   -1    0    0    0    0 -0.00000000000E+00 -0.00000000000E+00 -0.10000000000E+04  0.10000000000E+04  0.00000000000E+00 0.  1.
    9000005    2    1    2  501    0 -0.16717487533E+01 -0.56840377670E+02 -0.26733144449E+03  0.27333836537E+03  0.37599854060E+01 0.  0.
         13    1    3    3    0    0 -0.13259034715E+01 -0.50795431236E+02 -0.24394251681E+03  0.24917842074E+03  0.00000000000E+00 0.  1.
          3    1    3    3  501    0 -0.34584528188E+00 -0.60449464338E+01 -0.23388927679E+02  0.24159944626E+02  0.00000000000E+00 0.  1.
         -3    1    1    2    0  502  0.16717487533E+01  0.56840377670E+02 -0.72855718156E+03  0.73077300859E+03  0.00000000000E+00 0. -1.
<mgrwt>
<rscale>  1 0.30000000E+03</rscale>
<asrwt>0</asrwt>
<pdfrwt beam="1">  1       21 0.14950482E-01 0.30000000E+03</pdfrwt>
<pdfrwt beam="2">0</pdfrwt>
<totfact> 0.41433116E+03</totfact>
</mgrwt>
</event>
<event>
 6    1  0.1198667E-001  0.3000000E+03  0.7818608E-02  0.1093470E+00
         21   -1    0    0  501  502  0.00000000000E+00  0.00000000000E+00  0.12386426703E+01  0.12386426703E+01  0.00000000000E+00 0. -1.
         13   -1    0    0    0    0 -0.00000000000E+00 -0.00000000000E+00 -0.10000000000E+04  0.10000000000E+04  0.00000000000E+00 0.  1.
    9000005    2    1    2  501    0  0.29799656137E+02 -0.10881720835E+02 -0.71477945285E+03  0.71549023335E+03  0.31900557937E+01 0.  0.
         13    1    3    3    0    0  0.18546125480E+02 -0.57600157670E+01 -0.46384841890E+03  0.46425477086E+03  0.00000000000E+00 0.  1.
          3    1    3    3  501    0  0.11253530656E+02 -0.51217050676E+01 -0.25093103395E+03  0.25123546249E+03  0.00000000000E+00 0.  1.
         -1    1    1    2    0  502 -0.29799656137E+02  0.10881720835E+02 -0.28398190448E+03  0.28574840932E+03  0.00000000000E+00 0. -1.
<mgrwt>
<rscale>  1 0.30000000E+03</rscale>
<asrwt>0</asrwt>
<pdfrwt beam="1">  1       21 0.45041647E-02 0.30000000E+03</pdfrwt>
<pdfrwt beam="2">0</pdfrwt>
<totfact> 0.34404139E+04</totfact>
</mgrwt>
</event>
<event>
 6    1  0.1198667E-001  0.3000000E+03  0.7818608E-02  0.1093470E+00
         21   -1    0    0  501  502  0.00000000000E+00  0.00000000000E+00  0.91656022047E+00  0.91656022047E+00  0.00000000000E+00 0. -1.
         13   -1    0    0    0    0 -0.00000000000E+00 -0.00000000000E+00 -0.10000000000E+04  0.10000000000E+04  0.00000000000E+00 0.  1.
    9000005    2    1    2  501    0 -0.93650622791E+01 -0.28517450648E+02 -0.44783698503E+03  0.44885351740E+03  0.32504663627E+01 0.  0.
         13    1    3    3    0    0 -0.46072297938E+01 -0.15969916828E+02 -0.22527139533E+03  0.22588374524E+03  0.00000000000E+00 0.  1.
          3    1    3    3  501    0 -0.47578324853E+01 -0.12547533820E+02 -0.22256558970E+03  0.22296977216E+03  0.00000000000E+00 0.  1.
         -3    1    1    2    0  502  0.93650622791E+01  0.28517450648E+02 -0.55124645475E+03  0.55206304282E+03  0.00000000000E+00 0. -1.
<mgrwt>
<rscale>  1 0.30000000E+03</rscale>
<asrwt>0</asrwt>
<pdfrwt beam="1">  1       21 0.33329533E-02 0.30000000E+03</pdfrwt>
<pdfrwt beam="2">0</pdfrwt>
<totfact> 0.57098992E+04</totfact>
</mgrwt>
</event>
<event>
 6    1  0.1198667E-001  0.3000000E+03  0.7818608E-02  0.1093470E+00
         21   -1    0    0  501  502  0.00000000000E+00  0.00000000000E+00  0.74587979346E+01  0.74587979346E+01  0.00000000000E+00 0. -1.
         13   -1    0    0    0    0 -0.00000000000E+00 -0.00000000000E+00 -0.10000000000E+04  0.10000000000E+04  0.00000000000E+00 0.  1.
    9000005    2    1    2  501    0 -0.33301773698E+01 -0.36394473924E+02 -0.95265475502E+03  0.95336095628E+03  0.32222491704E+01 0.  0.
         13    1    3    3    0    0 -0.98355438108E+00 -0.26004401640E+02 -0.68757088095E+03  0.68806316034E+03  0.00000000000E+00 0.  1.
          3    1    3    3  501    0 -0.23466229888E+01 -0.10390072284E+02 -0.26508387407E+03  0.26529779594E+03  0.00000000000E+00 0.  1.
         -3    1    1    2    0  502  0.33301773698E+01  0.36394473924E+02 -0.39886447048E+02  0.54097841654E+02  0.00000000000E+00 0. -1.
<mgrwt>
<rscale>  1 0.30000000E+03</rscale>
<asrwt>0</asrwt>
<pdfrwt beam="1">  1       21 0.27122959E-01 0.30000000E+03</pdfrwt>
<pdfrwt beam="2">0</pdfrwt>
<totfact> 0.13284992E+03</totfact>
</mgrwt>
</event>
<event>
 6    1  0.1198667E-001  0.3000000E+03  0.7818608E-02  0.1093470E+00
         21   -1    0    0  501  502  0.00000000000E+00  0.00000000000E+00  0.15467431117E+01  0.15467431117E+01  0.00000000000E+00 0. -1.
         13   -1    0    0    0    0 -0.00000000000E+00 -0.00000000000E+00 -0.10000000000E+04  0.10000000000E+04  0.00000000000E+00 0.  1.
    9000005    2    1    2  501    0 -0.10926463717E+02 -0.30356246222E+02 -0.21748922502E+03  0.21991658225E+03  0.45662736916E+01 0.  0.
         13    1    3    3    0    0  0.12026608223E+00  0.63567036920E-01 -0.26415163492E+01  0.26450166959E+01  0.00000000000E+00 0.  1.
          1    1    3    3  501    0 -0.11046729799E+02 -0.30419813259E+02 -0.21484770867E+03  0.21727156555E+03  0.00000000000E+00 0.  1.
         -1    1    1    2    0  502  0.10926463717E+02  0.30356246222E+02 -0.78096403187E+03  0.78163016086E+03  0.00000000000E+00 0. -1.
<mgrwt>
<rscale>  1 0.30000000E+03</rscale>
<asrwt>0</asrwt>
<pdfrwt beam="1">  1       21 0.56245323E-02 0.30000000E+03</pdfrwt>
<pdfrwt beam="2">0</pdfrwt>
<totfact> 0.23551598E+04</totfact>
</mgrwt>
</event>
<event>
 6    1  0.1198667E-001  0.3000000E+03  0.7818608E-02  0.1093470E+00
         21   -1    0    0  501  502  0.00000000000E+00  0.00000000000E+00  0.14841944322E+01  0.14841944322E+01  0.00000000000E+00 0. -1.
         13   -1    0    0    0    0 -0.00000000000E+00 -0.00000000000E+00 -0.10000000000E+04  0.10000000000E+04  0.00000000000E+00 0.  1.
    9000005    2    1    2  501    0 -0.27839584901E+02  0.20282419142E+02 -0.72259335248E+03  0.72342013862E+03  0.30207460642E+01 0.  0.
         13    1    3    3    0    0 -0.21795445924E+02  0.17342654649E+02 -0.58528173428E+03  0.58594412500E+03  0.00000000000E+00 0.  1.
          3    1    3    3  501    0 -0.60441389770E+01  0.29397644930E+01 -0.13731161819E+03  0.13747601362E+03  0.00000000000E+00 0.  1.
         -3    1    1    2    0  502  0.27839584901E+02 -0.20282419142E+02 -0.27592245309E+03  0.27806405581E+03  0.00000000000E+00 0. -1.
<mgrwt>
<rscale>  1 0.30000000E+03</rscale>
<asrwt>0</asrwt>
<pdfrwt beam="1">  1       21 0.53970820E-02 0.30000000E+03</pdfrwt>
<pdfrwt beam="2">0</pdfrwt>
<totfact> 0.25279278E+04</totfact>
</mgrwt>
</event>
<event>
 6    1  0.1198667E-001  0.3000000E+03  0.7818608E-02  0.1093470E+00
         21   -1    0    0  501  502  0.00000000000E+00  0.00000000000E+00  0.16756088974E+01  0.16756088974E+01  0.00000000000E+00 0. -1.
         13   -1    0    0    0    0 -0.00000000000E+00 -0.00000000000E+00 -0.10000000000E+04  0.10000000000E+04  0.00000000000E+00 0.  1.
    9000005    2    1    2  501    0 -0.25046292675E+02 -0.23073520076E+02 -0.77547945159E+03  0.77624364317E+03  0.51097571244E+01 0.  0.
         13    1    3    3    0    0 -0.10979786328E+02 -0.67601463297E+01 -0.29345912773E+03  0.29374225936E+03  0.00000000000E+00 0.  1.
          1    1    3    3  501    0 -0.14066506347E+02 -0.16313373746E+02 -0.48202032386E+03  0.48250138381E+03  0.00000000000E+00 0.  1.
         -1    1    1    2    0  502  0.25046292675E+02  0.23073520076E+02 -0.22284493952E+03  0.22543196573E+03  0.00000000000E+00 0. -1.
<mgrwt>
<rscale>  1 0.30000000E+03</rscale>
<asrwt>0</asrwt>
<pdfrwt beam="1">  1       21 0.60931361E-02 0.30000000E+03</pdfrwt>
<pdfrwt beam="2">0</pdfrwt>
<totfact> 0.20519087E+04</totfact>
</mgrwt>
</event>
<event>
 6    1  0.1198667E-001  0.3000000E+03  0.7818608E-02  0.1093470E+00
         21   -1    0    0  501  502  0.00000000000E+00  0.00000000000E+00  0.30395352503E+01  0.30395352503E+01  0.00000000000E+00 0. -1.
         13   -1    0    0    0    0 -0.00000000000E+00 -0.00000000000E+00 -0.10000000000E+04  0.10000000000E+04  0.00000000000E+00 0.  1.
    9000005    2    1    2  501    0  0.36031899628E+02 -0.38394588306E+02 -0.63725453493E+03  0.63950026894E+03  0.97370161512E+01 0.  0.
         13    1    3    3    0    0  0.12029730919E+02 -0.91107632091E+01 -0.14167533080E+03  0.14247673420E+03  0.00000000000E+00 0.  1.
          1    1    3    3  501    0  0.24002168709E+02 -0.29283825097E+02 -0.49557920414E+03  0.49702353474E+03  0.00000000000E+00 0.  1.
         -3    1    1    2    0  502 -0.36031899628E+02  0.38394588306E+02 -0.35970592982E+03  0.36353926631E+03  0.00000000000E+00 0. -1.
<mgrwt>
<rscale>  1 0.30000000E+03</rscale>
<asrwt>0</asrwt>
<pdfrwt beam="1">  1       21 0.11052879E-01 0.30000000E+03</pdfrwt>
<pdfrwt beam="2">0</pdfrwt>
<totfact> 0.71897087E+03</totfact>
</mgrwt>
</event>
<event>
 6    1  0.1198667E-001  0.3000000E+03  0.7818608E-02  0.1093470E+00
         21   -1    0    0  501  502  0.00000000000E+00  0.00000000000E+00  0.13495244033E+01  0.13495244033E+01  0.00000000000E+00 0. -1.
         13   -1    0    0    0    0 -0.00000000000E+00 -0.00000000000E+00 -0.10000000000E+04  0.10000000000E+04  0.00000000000E+00 0.  1.
    9000005    2    1    2  501    0  0.34687936410E+02  0.51461581070E+01 -0.35584840260E+03  0.35759161888E+03  0.37342180176E+01 0.  0.
         13    1    3    3    0    0  0.31525948225E+02  0.57434735875E+01 -0.32198834039E+03  0.32357899228E+03  0.00000000000E+00 0.  1.
          1    1    3    3  501    0  0.31619881854E+01 -0.59731548044E+00 -0.33860062212E+02  0.34012626598E+02  0.00000000000E+00 0.  1.
         -3    1    1    2    0  502 -0.34687936410E+02 -0.51461581070E+01 -0.64280207300E+03  0.64375790552E+03  0.00000000000E+00 0. -1.
<mgrwt>
<rscale>  1 0.30000000E+03</rscale>
<asrwt>0</asrwt>
<pdfrwt beam="1">  1       21 0.49073718E-02 0.30000000E+03</pdfrwt>
<pdfrwt beam="2">0</pdfrwt>
<totfact> 0.29737237E+04</totfact>
</mgrwt>
</event>
<event>
 6    1  0.1198667E-001  0.3000000E+03  0.7818608E-02  0.1093470E+00
         21   -1    0    0  501  502  0.00000000000E+00  0.00000000000E+00  0.71120307771E+01  0.71120307771E+01  0.00000000000E+00 0. -1.
         13   -1    0    0    0    0 -0.00000000000E+00 -0.00000000000E+00 -0.10000000000E+04  0.10000000000E+04  0.00000000000E+00 0.  1.
    9000005    2    1    2  501    0  0.49938148629E+02  0.20639181983E+02 -0.88299998545E+03  0.88465729016E+03  0.31228529486E+01 0.  0.
         13    1    3    3    0    0  0.11844554478E+02  0.62049844984E+01 -0.22799739567E+03  0.22838915853E+03  0.00000000000E+00 0.  1.
          1    1    3    3  501    0  0.38093594152E+02  0.14434197484E+02 -0.65500258978E+03  0.65626813163E+03  0.00000000000E+00 0.  1.
         -1    1    1    2    0  502 -0.49938148629E+02 -0.20639181983E+02 -0.10988798377E+03  0.12245474061E+03  0.00000000000E+00 0. -1.
<mgrwt>
<rscale>  1 0.30000000E+03</rscale>
<asrwt>0</asrwt>
<pdfrwt beam="1">  1       21 0.25861985E-01 0.30000000E+03</pdfrwt>
<pdfrwt beam="2">0</pdfrwt>
<totfact> 0.14592177E+03</totfact>
</mgrwt>
</event>
<event>
 6    1  0.1198667E-001  0.3000000E+03  0.7818608E-02  0.1093470E+00
         21   -1    0    0  501  502  0.00000000000E+00  0.00000000000E+00  0.15676042883E+01  0.15676042883E+01  0.00000000000E+00 0. -1.
         13   -1    0    0    0    0 -0.00000000000E+00 -0.00000000000E+00 -0.10000000000E+04  0.10000000000E+04  0.00000000000E+00 0.  1.
    9000005    2    1    2  501    0  0.32381423568E+02 -0.13062886615E+01 -0.78577497496E+03  0.78645497894E+03  0.43427696058E+01 0.  0.
         13    1    3    3    0    0  0.73107710463E+01 -0.36284624549E-01 -0.13758579902E+03  0.13777989977E+03  0.00000000000E+00 0.  1.
          3    1    3    3  501    0  0.25070652522E+02 -0.12700040370E+01 -0.64818917594E+03  0.64867507917E+03  0.00000000000E+00 0.  1.
         -1    1    1    2    0  502 -0.32381423568E+02  0.13062886615E+01 -0.21265742075E+03  0.21511262535E+03  0.00000000000E+00 0. -1.
<mgrwt>
<rscale>  1 0.30000000E+03</rscale>
<asrwt>0</asrwt>
<pdfrwt beam="1">  1       21 0.57003913E-02 0.30000000E+03</pdfrwt>
<pdfrwt beam="2">0</pdfrwt>
<totfact> 0.23015544E+04</totfact>
</mgrwt>
</event>
<event>
 6    1  0.1198667E-001  0.3000000E+03  0.7818608E-02  0.1093470E+00
         21   -1    0    0  501  502  0.00000000000E+00  0.00000000000E+00  0.34896648634E+01  0.34896648634E+01  0.00000000000E+00 0. -1.
         13   -1    0    0    0    0 -0.00000000000E+00 -0.00000000000E+00 -0.10000000000E+04  0.10000000000E+04  0.00000000000E+00 0.  1.
    9000005    2    1    2  501    0 -0.27706866480E+02 -0.30008129361E+02 -0.86060440897E+03  0.86157920350E+03  0.32583558396E+01 0.  0.
         13    1    3    3    0    0 -0.11280922385E+02 -0.10137912561E+02 -0.30427217102E+03  0.30464994755E+03  0.00000000000E+00 0.  1.
          1    1    3    3  501    0 -0.16425944094E+02 -0.19870216800E+02 -0.55633223795E+03  0.55692925596E+03  0.00000000000E+00 0.  1.
         -1    1    1    2    0  502  0.27706866480E+02  0.30008129361E+02 -0.13590592616E+03  0.14191046136E+03  0.00000000000E+00 0. -1.
<mgrwt>
<rscale>  1 0.30000000E+03</rscale>
<asrwt>0</asrwt>
<pdfrwt beam="1">  1       21 0.12689717E-01 0.30000000E+03</pdfrwt>
<pdfrwt beam="2">0</pdfrwt>
<totfact> 0.55979086E+03</totfact>
</mgrwt>
</event>
<event>
 6    1  0.1198667E-001  0.3000000E+03  0.7818608E-02  0.1093470E+00
         21   -1    0    0  501  502  0.00000000000E+00  0.00000000000E+00  0.14789366269E+01  0.14789366269E+01  0.00000000000E+00 0. -1.
         13   -1    0    0    0    0 -0.00000000000E+00 -0.00000000000E+00 -0.10000000000E+04  0.10000000000E+04  0.00000000000E+00 0.  1.
    9000005    2    1    2  501    0 -0.54863010314E+01  0.36057771670E+02 -0.65543422087E+03  0.65645887359E+03  0.37379720774E+01 0.  0.
         13    1    3    3    0    0 -0.55789124789E+01  0.25445055421E+02 -0.46811177570E+03  0.46883601575E+03  0.00000000000E+00 0.  1.
          1    1    3    3  501    0  0.92611447581E-01  0.10612716249E+02 -0.18732244516E+03  0.18762285784E+03  0.00000000000E+00 0.  1.
         -3    1    1    2    0  502  0.54863010314E+01 -0.36057771670E+02 -0.34308684251E+03  0.34502006304E+03  0.00000000000E+00 0. -1.
<mgrwt>
<rscale>  1 0.30000000E+03</rscale>
<asrwt>0</asrwt>
<pdfrwt beam="1">  1       21 0.53779627E-02 0.30000000E+03</pdfrwt>
<pdfrwt beam="2">0</pdfrwt>
<totfact> 0.25433347E+04</totfact>
</mgrwt>
</event>
<event>
 6    1  0.1198667E-001  0.3000000E+03  0.7818608E-02  0.1093470E+00
         21   -1    0    0  501  502  0.00000000000E+00  0.00000000000E+00  0.27002290908E+01  0.27002290908E+01  0.00000000000E+00 0. -1.
         13   -1    0    0    0    0 -0.00000000000E+00 -0.00000000000E+00 -0.10000000000E+04  0.10000000000E+04  0.00000000000E+00 0.  1.
    9000005    2    1    2  501    0 -0.79608632295E+01  0.31464479960E+02 -0.89008516083E+03  0.89068075999E+03  0.26895816690E+01 0.  0.
         13    1    3    3    0    0 -0.10742490015E+01  0.90323752447E+01 -0.24118926564E+03  0.24136072521E+03  0.00000000000E+00 0.  1.
          3    1    3    3  501    0 -0.68866142280E+01  0.22432104715E+02 -0.64889589519E+03  0.64932003479E+03  0.00000000000E+00 0.  1.
         -1    1    1    2    0  502  0.79608632295E+01 -0.31464479960E+02 -0.10721461008E+03  0.11201946910E+03  0.00000000000E+00 0. -1.
<mgrwt>
<rscale>  1 0.30000000E+03</rscale>
<asrwt>0</asrwt>
<pdfrwt beam="1">  1       21 0.98190356E-02 0.30000000E+03</pdfrwt>
<pdfrwt beam="2">0</pdfrwt>
<totfact> 0.88884100E+03</totfact>
</mgrwt>
</event>
<event>
 6    1  0.1198667E-001  0.3000000E+03  0.7818608E-02  0.1093470E+00
         21   -1    0    0  501  502  0.00000000000E+00  0.00000000000E+00  0.30858222662E+01  0.30858222662E+01  0.00000000000E+00 0. -1.
         13   -1    0    0    0    0 -0.00000000000E+00 -0.00000000000E+00 -0.10000000000E+04  0.10000000000E+04  0.00000000000E+00 0.  1.
    9000005    2    1    2  501    0  0.18561532978E+02 -0.41663737226E+02 -0.78243919010E+03  0.78381448846E+03  0.85830424737E+01 0.  0.
         13    1    3    3    0    0  0.16909834363E+01 -0.47026551486E+01 -0.49952120117E+02  0.50201481000E+02  0.00000000000E+00 0.  1.
          1    1    3    3  501    0  0.16870549542E+02 -0.36961082078E+02 -0.73248706998E+03  0.73361300746E+03  0.00000000000E+00 0.  1.
         -1    1    1    2    0  502 -0.18561532978E+02  0.41663737226E+02 -0.21447498764E+03  0.21927133381E+03  0.00000000000E+00 0. -1.
<mgrwt>
<rscale>  1 0.30000000E+03</rscale>
<asrwt>0</asrwt>
<pdfrwt beam="1">  1       21 0.11221196E-01 0.30000000E+03</pdfrwt>
<pdfrwt beam="2">0</pdfrwt>
<totfact> 0.69966390E+03</totfact>
</mgrwt>
</event>
<event>
 6    1  0.1198667E-001  0.3000000E+03  0.7818608E-02  0.1093470E+00
         21   -1    0    0  501  502  0.00000000000E+00  0.00000000000E+00  0.85688286915E+01  0.85688286915E+01  0.00000000000E+00 0. -1.
         13   -1    0    0    0    0 -0.00000000000E+00 -0.00000000000E+00 -0.10000000000E+04  0.10000000000E+04  0.00000000000E+00 0.  1.
    9000005    2    1    2  501    0  0.29703292544E+02 -0.47828683192E+02 -0.89594623868E+03  0.89772100109E+03  0.36694248582E+01 0.  0.
         13    1    3    3    0    0  0.22908429608E+02 -0.38916729136E+02 -0.73317763267E+03  0.73456704868E+03  0.00000000000E+00 0.  1.
          3    1    3    3  501    0  0.67948629358E+01 -0.89119540566E+01 -0.16276860601E+03  0.16315395241E+03  0.00000000000E+00 0.  1.
         -1    1    1    2    0  502 -0.29703292544E+02  0.47828683192E+02 -0.95484932633E+02  0.11084782760E+03  0.00000000000E+00 0. -1.
<mgrwt>
<rscale>  1 0.30000000E+03</rscale>
<asrwt>0</asrwt>
<pdfrwt beam="1">  1       21 0.31159443E-01 0.30000000E+03</pdfrwt>
<pdfrwt beam="2">0</pdfrwt>
<totfact> 0.10076331E+03</totfact>
</mgrwt>
</event>
<event>
 6    1  0.1198667E-001  0.3000000E+03  0.7818608E-02  0.1093470E+00
         21   -1    0    0  501  502  0.00000000000E+00  0.00000000000E+00  0.11641935716E+01  0.11641935716E+01  0.00000000000E+00 0. -1.
         13   -1    0    0    0    0 -0.00000000000E+00 -0.00000000000E+00 -0.10000000000E+04  0.10000000000E+04  0.00000000000E+00 0.  1.
    9000005    2    1    2  501    0  0.22213372352E+02 -0.23675103156E+02 -0.65088399248E+03  0.65170116370E+03  0.32389309418E+01 0.  0.
         13    1    3    3    0    0  0.12526523360E+02 -0.14982794722E+02 -0.41277798730E+03  0.41323971823E+03  0.00000000000E+00 0.  1.
          1    1    3    3  501    0  0.96868489920E+01 -0.86923084334E+01 -0.23810600519E+03  0.23846144547E+03  0.00000000000E+00 0.  1.
         -3    1    1    2    0  502 -0.22213372352E+02  0.23675103156E+02 -0.34795181394E+03  0.34946302987E+03  0.00000000000E+00 0. -1.
<mgrwt>
<rscale>  1 0.30000000E+03</rscale>
<asrwt>0</asrwt>
<pdfrwt beam="1">  1       21 0.42334401E-02 0.30000000E+03</pdfrwt>
<pdfrwt beam="2">0</pdfrwt>
<totfact> 0.38211181E+04</totfact>
</mgrwt>
</event>
<event>
 6    1  0.1198667E-001  0.3000000E+03  0.7818608E-02  0.1093470E+00
         21   -1    0    0  501  502  0.00000000000E+00  0.00000000000E+00  0.24446996051E+01  0.24446996051E+01  0.00000000000E+00 0. -1.
         13   -1    0    0    0    0 -0.00000000000E+00 -0.00000000000E+00 -0.10000000000E+04  0.10000000000E+04  0.00000000000E+00 0.  1.
    9000005    2    1    2  501    0 -0.17838140502E+02 -0.26346193630E+02 -0.88226473299E+03  0.88284438143E+03  0.32896150400E+01 0.  0.
         13    1    3    3    0    0 -0.12995249720E+02 -0.19465094928E+02 -0.68665934030E+03  0.68705808784E+03  0.00000000000E+00 0.  1.
          3    1    3    3  501    0 -0.48428907821E+01 -0.68810987018E+01 -0.19560539269E+03  0.19578629359E+03  0.00000000000E+00 0.  1.
         -1    1    1    2    0  502  0.17838140502E+02  0.26346193630E+02 -0.11529056741E+03  0.11960031818E+03  0.00000000000E+00 0. -1.
<mgrwt>
<rscale>  1 0.30000000E+03</rscale>
<asrwt>0</asrwt>
<pdfrwt beam="1">  1       21 0.88898355E-02 0.30000000E+03</pdfrwt>
<pdfrwt beam="2">0</pdfrwt>
<totfact> 0.10606898E+04</totfact>
</mgrwt>
</event>
<event>
 6    1  0.1198667E-001  0.3000000E+03  0.7818608E-02  0.1093470E+00
         21   -1    0    0  501  502  0.00000000000E+00  0.00000000000E+00  0.12966958063E+01  0.12966958063E+01  0.00000000000E+00 0. -1.
         13   -1    0    0    0    0 -0.00000000000E+00 -0.00000000000E+00 -0.10000000000E+04  0.10000000000E+04  0.00000000000E+00 0.  1.
    9000005    2    1    2  501    0  0.25883181063E+02  0.18620244097E+02 -0.72947657958E+03  0.73018844842E+03  0.47368243478E+01 0.  0.
         13    1    3    3    0    0  0.12304245344E+02  0.75365369031E+01 -0.28236215984E+03  0.28273058404E+03  0.00000000000E+00 0.  1.
          3    1    3    3  501    0  0.13578935719E+02  0.11083707193E+02 -0.44711441974E+03  0.44745786438E+03  0.00000000000E+00 0.  1.
         -3    1    1    2    0  502 -0.25883181063E+02 -0.18620244097E+02 -0.26922672461E+03  0.27110824738E+03  0.00000000000E+00 0. -1.
<mgrwt>
<rscale>  1 0.30000000E+03</rscale>
<asrwt>0</asrwt>
<pdfrwt beam="1">  1       21 0.47152674E-02 0.30000000E+03</pdfrwt>
<pdfrwt beam="2">0</pdfrwt>
<totfact> 0.31828335E+04</totfact>
</mgrwt>
</event>
<event>
 6    1  0.1198667E-001  0.3000000E+03  0.7818608E-02  0.1093470E+00
         21   -1    0    0  501  502  0.00000000000E+00  0.00000000000E+00  0.13196931214E+01  0.13196931214E+01  0.00000000000E+00 0. -1.
         13   -1    0    0    0    0 -0.00000000000E+00 -0.00000000000E+00 -0.10000000000E+04  0.10000000000E+04  0.00000000000E+00 0.  1.
    9000005    2    1    2  501    0 -0.33383174146E+02 -0.21448149193E+00 -0.30723908892E+03  0.30907303173E+03  0.39747783319E+01 0.  0.
         13    1    3    3    0    0 -0.22726594887E+01 -0.97717816255E+00 -0.19649152828E+02  0.19804268862E+02  0.00000000000E+00 0.  1.
          3    1    3    3  501    0 -0.31110514657E+02  0.76269667062E+00 -0.28758993610E+03  0.28926876287E+03  0.00000000000E+00 0.  1.
         -1    1    1    2    0  502  0.33383174146E+02  0.21448149193E+00 -0.69144121795E+03  0.69224666139E+03  0.00000000000E+00 0. -1.
<mgrwt>
<rscale>  1 0.30000000E+03</rscale>
<asrwt>0</asrwt>
<pdfrwt beam="1">  1       21 0.47988942E-02 0.30000000E+03</pdfrwt>
<pdfrwt beam="2">0</pdfrwt>
<totfact> 0.30890650E+04</totfact>
</mgrwt>
</event>
<event>
 6    1  0.1198667E-001  0.3000000E+03  0.7818608E-02  0.1093470E+00
         21   -1    0    0  501  502  0.00000000000E+00  0.00000000000E+00  0.21905730135E+01  0.21905730135E+01  0.00000000000E+00 0. -1.
         13   -1    0    0    0    0 -0.00000000000E+00 -0.00000000000E+00 -0.10000000000E+04  0.10000000000E+04  0.00000000000E+00 0.  1.
    9000005    2    1    2  501    0  0.15354867753E+02 -0.26971502368E+02 -0.87367698027E+03  0.87423707274E+03  0.39698363589E+01 0.  0.
         13    1    3    3    0    0  0.53994198433E+01 -0.75173636488E+01 -0.30480686235E+03  0.30494735255E+03  0.00000000000E+00 0.  1.
          1    1    3    3  501    0  0.99554479095E+01 -0.19454138719E+02 -0.56887011792E+03  0.56928972019E+03  0.00000000000E+00 0.  1.
         -1    1    1    2    0  502 -0.15354867753E+02  0.26971502368E+02 -0.12413244672E+03  0.12795350027E+03  0.00000000000E+00 0. -1.
<mgrwt>
<rscale>  1 0.30000000E+03</rscale>
<asrwt>0</asrwt>
<pdfrwt beam="1">  1       21 0.79657368E-02 0.30000000E+03</pdfrwt>
<pdfrwt beam="2">0</pdfrwt>
<totfact> 0.12870522E+04</totfact>
</mgrwt>
</event>
<event>
 6    1  0.1198667E-001  0.3000000E+03  0.7818608E-02  0.1093470E+00
         21   -1    0    0  501  502  0.00000000000E+00  0.00000000000E+00  0.25969238241E+01  0.25969238241E+01  0.00000000000E+00 0. -1.
         13   -1    0    0    0    0 -0.00000000000E+00 -0.00000000000E+00 -0.10000000000E+04  0.10000000000E+04  0.00000000000E+00 0.  1.
    9000005    2    1    2  501    0  0.38510191414E+02  0.22608548014E+02 -0.73926830108E+03  0.74062794971E+03  0.42376431700E+01 0.  0.
         13    1    3    3    0    0  0.19039711122E+02  0.11065170956E+02 -0.32965700025E+03  0.33039171664E+03  0.00000000000E+00 0.  1.
          3    1    3    3  501    0  0.19470480293E+02  0.11543377058E+02 -0.40961130082E+03  0.41023623307E+03  0.00000000000E+00 0.  1.
         -1    1    1    2    0  502 -0.38510191414E+02 -0.22608548014E+02 -0.25813477510E+03  0.26196897412E+03  0.00000000000E+00 0. -1.
<mgrwt>
<rscale>  1 0.30000000E+03</rscale>
<asrwt>0</asrwt>
<pdfrwt beam="1">  1       21 0.94433793E-02 0.30000000E+03</pdfrwt>
<pdfrwt beam="2">0</pdfrwt>
<totfact> 0.95286209E+03</totfact>
</mgrwt>
</event>
<event>
 6    1  0.1198667E-001  0.3000000E+03  0.7818608E-02  0.1093470E+00
         21   -1    0    0  501  502  0.00000000000E+00  0.00000000000E+00  0.13965927962E+01  0.13965927962E+01  0.00000000000E+00 0. -1.
         13   -1    0    0    0    0 -0.00000000000E+00 -0.00000000000E+00 -0.10000000000E+04  0.10000000000E+04  0.00000000000E+00 0.  1.
    9000005    2    1    2  501    0  0.31844988727E+02 -0.10039896069E+02 -0.27796342400E+03  0.27998347384E+03  0.34896586860E+01 0.  0.
         13    1    3    3    0    0  0.17181249802E+02 -0.39047488252E+01 -0.13794884989E+03  0.13906950634E+03  0.00000000000E+00 0.  1.
          1    1    3    3  501    0  0.14663738925E+02 -0.61351472443E+01 -0.14001457412E+03  0.14091396750E+03  0.00000000000E+00 0.  1.
         -1    1    1    2    0  502 -0.31844988727E+02  0.10039896069E+02 -0.72063998320E+03  0.72141311896E+03  0.00000000000E+00 0. -1.
<mgrwt>
<rscale>  1 0.30000000E+03</rscale>
<asrwt>0</asrwt>
<pdfrwt beam="1">  1       21 0.50785300E-02 0.30000000E+03</pdfrwt>
<pdfrwt beam="2">0</pdfrwt>
<totfact> 0.28049204E+04</totfact>
</mgrwt>
</event>
<event>
 6    1  0.1198667E-001  0.3000000E+03  0.7818608E-02  0.1093470E+00
         21   -1    0    0  501  502  0.00000000000E+00  0.00000000000E+00  0.23749376289E+01  0.23749376289E+01  0.00000000000E+00 0. -1.
         13   -1    0    0    0    0 -0.00000000000E+00 -0.00000000000E+00 -0.10000000000E+04  0.10000000000E+04  0.00000000000E+00 0.  1.
    9000005    2    1    2  501    0  0.95622132739E+01  0.37292976847E+02 -0.80452821060E+03  0.80547751203E+03  0.67954900441E+01 0.  0.
         13    1    3    3    0    0  0.87961557998E+00  0.11503903595E+01 -0.13723202643E+02  0.13799398984E+02  0.00000000000E+00 0.  1.
          1    1    3    3  501    0  0.86825976939E+01  0.36142586488E+02 -0.79080500796E+03  0.79167811304E+03  0.00000000000E+00 0.  1.
         -1    1    1    2    0  502 -0.95622132739E+01 -0.37292976847E+02 -0.19309685177E+03  0.19689742560E+03  0.00000000000E+00 0. -1.
<mgrwt>
<rscale>  1 0.30000000E+03</rscale>
<asrwt>0</asrwt>
<pdfrwt beam="1">  1       21 0.86361550E-02 0.30000000E+03</pdfrwt>
<pdfrwt beam="2">0</pdfrwt>
<totfact> 0.11163811E+04</totfact>
</mgrwt>
</event>
<event>
 6    1  0.1198667E-001  0.3000000E+03  0.7818608E-02  0.1093470E+00
         21   -1    0    0  501  502  0.00000000000E+00  0.00000000000E+00  0.58306327365E+01  0.58306327365E+01  0.00000000000E+00 0. -1.
         13   -1    0    0    0    0 -0.00000000000E+00 -0.00000000000E+00 -0.10000000000E+04  0.10000000000E+04  0.00000000000E+00 0.  1.
    9000005    2    1    2  501    0 -0.53309147477E+02  0.14637179619E+02 -0.84292592763E+03  0.84480054156E+03  0.10378984459E+02 0.  0.
         13    1    3    3    0    0 -0.49688841373E+01 -0.12940600355E+01 -0.58395399189E+02  0.58620704938E+02  0.00000000000E+00 0.  1.
          3    1    3    3  501    0 -0.48340263340E+02  0.15931239654E+02 -0.78453052844E+03  0.78617983662E+03  0.00000000000E+00 0.  1.
         -3    1    1    2    0  502  0.53309147477E+02 -0.14637179619E+02 -0.15124343963E+03  0.16103009118E+03  0.00000000000E+00 0. -1.
<mgrwt>
<rscale>  1 0.30000000E+03</rscale>
<asrwt>0</asrwt>
<pdfrwt beam="1">  1       21 0.21202346E-01 0.30000000E+03</pdfrwt>
<pdfrwt beam="2">0</pdfrwt>
<totfact> 0.21456011E+03</totfact>
</mgrwt>
</event>
<event>
 6    1  0.1198667E-001  0.3000000E+03  0.7818608E-02  0.1093470E+00
         21   -1    0    0  501  502  0.00000000000E+00  0.00000000000E+00  0.33799057061E+01  0.33799057061E+01  0.00000000000E+00 0. -1.
         13   -1    0    0    0    0 -0.00000000000E+00 -0.00000000000E+00 -0.10000000000E+04  0.10000000000E+04  0.00000000000E+00 0.  1.
    9000005    2    1    2  501    0 -0.18795850354E+02 -0.41995359772E+02 -0.80479631156E+03  0.80611546934E+03  0.28552712901E+01 0.  0.
         13    1    3    3    0    0 -0.11114928173E+02 -0.24408537500E+02 -0.49330057726E+03  0.49402912653E+03  0.00000000000E+00 0.  1.
          1    1    3    3  501    0 -0.76809221806E+01 -0.17586822272E+02 -0.31149573430E+03  0.31208634281E+03  0.00000000000E+00 0.  1.
         -1    1    1    2    0  502  0.18795850354E+02  0.41995359772E+02 -0.19182378273E+03  0.19726443637E+03  0.00000000000E+00 0. -1.
<mgrwt>
<rscale>  1 0.30000000E+03</rscale>
<asrwt>0</asrwt>
<pdfrwt beam="1">  1       21 0.12290592E-01 0.30000000E+03</pdfrwt>
<pdfrwt beam="2">0</pdfrwt>
<totfact> 0.59334019E+03</totfact>
</mgrwt>
</event>
<event>
 6    1  0.1198667E-001  0.3000000E+03  0.7818608E-02  0.1093470E+00
         21   -1    0    0  501  502  0.00000000000E+00  0.00000000000E+00  0.15577905604E+01  0.15577905604E+01  0.00000000000E+00 0. -1.
         13   -1    0    0    0    0 -0.00000000000E+00 -0.00000000000E+00 -0.10000000000E+04  0.10000000000E+04  0.00000000000E+00 0.  1.
    9000005    2    1    2  501    0 -0.29806085884E+02 -0.54024556091E+01 -0.18090950070E+03  0.18346408007E+03  0.36375748185E+01 0.  0.
         13    1    3    3    0    0 -0.28304348846E+02 -0.43605532496E+01 -0.16749817197E+03  0.16992877390E+03  0.00000000000E+00 0.  1.
          1    1    3    3  501    0 -0.15017370381E+01 -0.10419023595E+01 -0.13411328731E+02  0.13535306166E+02  0.00000000000E+00 0.  1.
         -1    1    1    2    0  502  0.29806085884E+02  0.54024556091E+01 -0.81753270874E+03  0.81809371049E+03  0.00000000000E+00 0. -1.
<mgrwt>
<rscale>  1 0.30000000E+03</rscale>
<asrwt>0</asrwt>
<pdfrwt beam="1">  1       21 0.56647049E-02 0.30000000E+03</pdfrwt>
<pdfrwt beam="2">0</pdfrwt>
<totfact> 0.23265363E+04</totfact>
</mgrwt>
</event>
<event>
 6    1  0.1198667E-001  0.3000000E+03  0.7818608E-02  0.1093470E+00
         21   -1    0    0  501  502  0.00000000000E+00  0.00000000000E+00  0.16616984387E+01  0.16616984387E+01  0.00000000000E+00 0. -1.
         13   -1    0    0    0    0 -0.00000000000E+00 -0.00000000000E+00 -0.10000000000E+04  0.10000000000E+04  0.00000000000E+00 0.  1.
    9000005    2    1    2  501    0  0.21410027317E+02 -0.24011492556E+02 -0.80613115202E+03  0.80678089031E+03  0.36096617408E+01 0.  0.
         13    1    3    3    0    0  0.69191699738E+01 -0.54170771113E+01 -0.20974080410E+03  0.20992480688E+03  0.00000000000E+00 0.  1.
          3    1    3    3  501    0  0.14490857343E+02 -0.18594415445E+02 -0.59639034792E+03  0.59685608343E+03  0.00000000000E+00 0.  1.
         -3    1    1    2    0  502 -0.21410027317E+02  0.24011492556E+02 -0.19220714954E+03  0.19488080813E+03  0.00000000000E+00 0. -1.
<mgrwt>
<rscale>  1 0.30000000E+03</rscale>
<asrwt>0</asrwt>
<pdfrwt beam="1">  1       21 0.60425525E-02 0.30000000E+03</pdfrwt>
<pdfrwt beam="2">0</pdfrwt>
<totfact> 0.20816364E+04</totfact>
</mgrwt>
</event>
<event>
 6    1  0.1198667E-001  0.3000000E+03  0.7818608E-02  0.1093470E+00
         21   -1    0    0  501  502  0.00000000000E+00  0.00000000000E+00  0.33196336081E+01  0.33196336081E+01  0.00000000000E+00 0. -1.
         13   -1    0    0    0    0 -0.00000000000E+00 -0.00000000000E+00 -0.10000000000E+04  0.10000000000E+04  0.00000000000E+00 0.  1.
    9000005    2    1    2  501    0 -0.34688696947E+02 -0.99510469329E+01 -0.88912088606E+03  0.88986756955E+03  0.51002223955E+01 0.  0.
         13    1    3    3    0    0 -0.14506901502E+02 -0.23201129995E+01 -0.40422612091E+03  0.40449300357E+03  0.00000000000E+00 0.  1.
          3    1    3    3  501    0 -0.20181795445E+02 -0.76309339334E+01 -0.48489476516E+03  0.48537456598E+03  0.00000000000E+00 0.  1.
         -1    1    1    2    0  502  0.34688696947E+02  0.99510469329E+01 -0.10755948033E+03  0.11345206406E+03  0.00000000000E+00 0. -1.
<mgrwt>
<rscale>  1 0.30000000E+03</rscale>
<asrwt>0</asrwt>
<pdfrwt beam="1">  1       21 0.12071420E-01 0.30000000E+03</pdfrwt>
<pdfrwt beam="2">0</pdfrwt>
<totfact> 0.61307130E+03</totfact>
</mgrwt>
</event>
<event>
 6    1  0.1198667E-001  0.3000000E+03  0.7818608E-02  0.1093470E+00
         21   -1    0    0  501  502  0.00000000000E+00  0.00000000000E+00  0.13092146609E+01  0.13092146609E+01  0.00000000000E+00 0. -1.
         13   -1    0    0    0    0 -0.00000000000E+00 -0.00000000000E+00 -0.10000000000E+04  0.10000000000E+04  0.00000000000E+00 0.  1.
    9000005    2    1    2  501    0 -0.30413389620E+02 -0.17206410594E+02 -0.62414336434E+03  0.62513531151E+03  0.42642250310E+01 0.  0.
         13    1    3    3    0    0 -0.18844534607E+02 -0.90060058729E+01 -0.34433097983E+03  0.34496383621E+03  0.00000000000E+00 0.  1.
          3    1    3    3  501    0 -0.11568855013E+02 -0.82004047211E+01 -0.27981238451E+03  0.28017147530E+03  0.00000000000E+00 0.  1.
         -3    1    1    2    0  502  0.30413389620E+02  0.17206410594E+02 -0.37454742100E+03  0.37617390315E+03  0.00000000000E+00 0. -1.
<mgrwt>
<rscale>  1 0.30000000E+03</rscale>
<asrwt>0</asrwt>
<pdfrwt beam="1">  1       21 0.47607906E-02 0.30000000E+03</pdfrwt>
<pdfrwt beam="2">0</pdfrwt>
<totfact> 0.31312458E+04</totfact>
</mgrwt>
</event>
<event>
 6    1  0.1198667E-001  0.3000000E+03  0.7818608E-02  0.1093470E+00
         21   -1    0    0  501  502  0.00000000000E+00  0.00000000000E+00  0.26857822843E+01  0.26857822843E+01  0.00000000000E+00 0. -1.
         13   -1    0    0    0    0 -0.00000000000E+00 -0.00000000000E+00 -0.10000000000E+04  0.10000000000E+04  0.00000000000E+00 0.  1.
    9000005    2    1    2  501    0  0.34190460305E+02  0.25627548724E+01 -0.87272791785E+03  0.87346774406E+03  0.10785454535E+02 0.  0.
         13    1    3    3    0    0  0.88847387805E+01  0.84650770509E+00 -0.36242858051E+03  0.36253845469E+03  0.00000000000E+00 0.  1.
          1    1    3    3  501    0  0.25305721525E+02  0.17162471673E+01 -0.51029933734E+03  0.51092928937E+03  0.00000000000E+00 0.  1.
         -1    1    1    2    0  502 -0.34190460305E+02 -0.25627548724E+01 -0.12458629987E+03  0.12921803823E+03  0.00000000000E+00 0. -1.
<mgrwt>
<rscale>  1 0.30000000E+03</rscale>
<asrwt>0</asrwt>
<pdfrwt beam="1">  1       21 0.97665016E-02 0.30000000E+03</pdfrwt>
<pdfrwt beam="2">0</pdfrwt>
<totfact> 0.89739179E+03</totfact>
</mgrwt>
</event>
<event>
 6    1  0.1198667E-001  0.3000000E+03  0.7818608E-02  0.1093470E+00
         21   -1    0    0  501  502  0.00000000000E+00  0.00000000000E+00  0.20224018694E+01  0.20224018694E+01  0.00000000000E+00 0. -1.
         13   -1    0    0    0    0 -0.00000000000E+00 -0.00000000000E+00 -0.10000000000E+04  0.10000000000E+04  0.00000000000E+00 0.  1.
    9000005    2    1    2  501    0 -0.16215773038E+01 -0.34575828863E+02 -0.81845111787E+03  0.81918948752E+03  0.33266600570E+01 0.  0.
         13    1    3    3    0    0  0.27788515697E+00 -0.18901274770E+02 -0.41799713233E+03  0.41842435164E+03  0.00000000000E+00 0.  1.
          1    1    3    3  501    0 -0.18994624608E+01 -0.15674554093E+02 -0.40045398554E+03  0.40076513589E+03  0.00000000000E+00 0.  1.
         -1    1    1    2    0  502  0.16215773038E+01  0.34575828863E+02 -0.17952648026E+03  0.18283291435E+03  0.00000000000E+00 0. -1.
<mgrwt>
<rscale>  1 0.30000000E+03</rscale>
<asrwt>0</asrwt>
<pdfrwt beam="1">  1       21 0.73542041E-02 0.30000000E+03</pdfrwt>
<pdfrwt beam="2">0</pdfrwt>
<totfact> 0.14804316E+04</totfact>
</mgrwt>
</event>
<event>
 6    1  0.1198667E-001  0.3000000E+03  0.7818608E-02  0.1093470E+00
         21   -1    0    0  501  502  0.00000000000E+00  0.00000000000E+00  0.45787743586E+01  0.45787743586E+01  0.00000000000E+00 0. -1.
         13   -1    0    0    0    0 -0.00000000000E+00 -0.00000000000E+00 -0.10000000000E+04  0.10000000000E+04  0.00000000000E+00 0.  1.
    9000005    2    1    2  501    0  0.23790683549E+02  0.27616364732E+02 -0.92083348336E+03  0.92156075509E+03  0.33557442189E+01 0.  0.
         13    1    3    3    0    0  0.29270549283E+01  0.48865516962E+01 -0.16286508027E+03  0.16296466000E+03  0.00000000000E+00 0.  1.
          1    1    3    3  501    0  0.20863628621E+02  0.22729813036E+02 -0.75796840309E+03  0.75859609509E+03  0.00000000000E+00 0.  1.
         -3    1    1    2    0  502 -0.23790683549E+02 -0.27616364732E+02 -0.74587742280E+02  0.83018019268E+02  0.00000000000E+00 0. -1.
<mgrwt>
<rscale>  1 0.30000000E+03</rscale>
<asrwt>0</asrwt>
<pdfrwt beam="1">  1       21 0.16650124E-01 0.30000000E+03</pdfrwt>
<pdfrwt beam="2">0</pdfrwt>
<totfact> 0.33909429E+03</totfact>
</mgrwt>
</event>
<event>
 6    1  0.1198667E-001  0.3000000E+03  0.7818608E-02  0.1093470E+00
         21   -1    0    0  501  502  0.00000000000E+00  0.00000000000E+00  0.25574318946E+01  0.25574318946E+01  0.00000000000E+00 0. -1.
         13   -1    0    0    0    0 -0.00000000000E+00 -0.00000000000E+00 -0.10000000000E+04  0.10000000000E+04  0.00000000000E+00 0.  1.
    9000005    2    1    2  501    0 -0.67501038864E+01 -0.49593844280E+02 -0.43094238756E+03  0.43385050575E+03  0.31315564904E+01 0.  0.
         13    1    3    3    0    0 -0.54131677020E+01 -0.38782512618E+02 -0.34780950647E+03  0.35000691202E+03  0.00000000000E+00 0.  1.
          1    1    3    3  501    0 -0.13369361844E+01 -0.10811331661E+02 -0.83132881092E+02  0.83843593728E+02  0.00000000000E+00 0.  1.
         -1    1    1    2    0  502  0.67501038864E+01  0.49593844280E+02 -0.56650018054E+03  0.56870692615E+03  0.00000000000E+00 0. -1.
<mgrwt>
<rscale>  1 0.30000000E+03</rscale>
<asrwt>0</asrwt>
<pdfrwt beam="1">  1       21 0.92997720E-02 0.30000000E+03</pdfrwt>
<pdfrwt beam="2">0</pdfrwt>
<totfact> 0.97919177E+03</totfact>
</mgrwt>
</event>
<event>
 6    1  0.1198667E-001  0.3000000E+03  0.7818608E-02  0.1093470E+00
         21   -1    0    0  501  502  0.00000000000E+00  0.00000000000E+00  0.44849826671E+01  0.44849826671E+01  0.00000000000E+00 0. -1.
         13   -1    0    0    0    0 -0.00000000000E+00 -0.00000000000E+00 -0.10000000000E+04  0.10000000000E+04  0.00000000000E+00 0.  1.
    9000005    2    1    2  501    0 -0.42698532417E+02 -0.42799991710E+02 -0.28258251003E+03  0.28899370814E+03  0.30796763584E+01 0.  0.
         13    1    3    3    0    0 -0.42025199099E+02 -0.42576932874E+02 -0.27949579254E+03  0.28582653939E+03  0.00000000000E+00 0.  1.
          1    1    3    3  501    0 -0.67333331834E+00 -0.22305883602E+00 -0.30867174927E+01  0.31671687486E+01  0.00000000000E+00 0.  1.
         -3    1    1    2    0  502  0.42698532417E+02  0.42799991710E+02 -0.71293250730E+03  0.71549127453E+03  0.00000000000E+00 0. -1.
<mgrwt>
<rscale>  1 0.30000000E+03</rscale>
<asrwt>0</asrwt>
<pdfrwt beam="1">  1       21 0.16309062E-01 0.30000000E+03</pdfrwt>
<pdfrwt beam="2">0</pdfrwt>
<totfact> 0.35246146E+03</totfact>
</mgrwt>
</event>
<event>
 6    1  0.1198667E-001  0.3000000E+03  0.7818608E-02  0.1093470E+00
         21   -1    0    0  501  502  0.00000000000E+00  0.00000000000E+00  0.10520918954E+01  0.10520918954E+01  0.00000000000E+00 0. -1.
         13   -1    0    0    0    0 -0.00000000000E+00 -0.00000000000E+00 -0.10000000000E+04  0.10000000000E+04  0.00000000000E+00 0.  1.
    9000005    2    1    2  501    0  0.10282902425E+02  0.30147764589E+02 -0.41887202857E+03  0.42010230765E+03  0.41888883980E+01 0.  0.
         13    1    3    3    0    0  0.38856478227E+01  0.16200879476E+02 -0.23633399526E+03  0.23692050158E+03  0.00000000000E+00 0.  1.
          3    1    3    3  501    0  0.63972546022E+01  0.13946885114E+02 -0.18253803331E+03  0.18318180607E+03  0.00000000000E+00 0.  1.
         -3    1    1    2    0  502 -0.10282902425E+02 -0.30147764589E+02 -0.58007587953E+03  0.58094978424E+03  0.00000000000E+00 0. -1.
<mgrwt>
<rscale>  1 0.30000000E+03</rscale>
<asrwt>0</asrwt>
<pdfrwt beam="1">  1       21 0.38257968E-02 0.30000000E+03</pdfrwt>
<pdfrwt beam="2">0</pdfrwt>
<totfact> 0.45317928E+04</totfact>
</mgrwt>
</event>
<event>
 6    1  0.1198667E-001  0.3000000E+03  0.7818608E-02  0.1093470E+00
         21   -1    0    0  501  502  0.00000000000E+00  0.00000000000E+00  0.98872277341E+01  0.98872277341E+01  0.00000000000E+00 0. -1.
         13   -1    0    0    0    0 -0.00000000000E+00 -0.00000000000E+00 -0.10000000000E+04  0.10000000000E+04  0.00000000000E+00 0.  1.
    9000005    2    1    2  501    0 -0.47695131202E+02  0.12838200866E+02 -0.93327139438E+03  0.93458392646E+03  0.34605058411E+01 0.  0.
         13    1    3    3    0    0 -0.31019061628E+02  0.86094356517E+01 -0.57678476771E+03  0.57768241520E+03  0.00000000000E+00 0.  1.
          1    1    3    3  501    0 -0.16676069573E+02  0.42287652142E+01 -0.35648662667E+03  0.35690151126E+03  0.00000000000E+00 0.  1.
         -1    1    1    2    0  502  0.47695131202E+02 -0.12838200866E+02 -0.56841377888E+02  0.75303301269E+02  0.00000000000E+00 0. -1.
<mgrwt>
<rscale>  1 0.30000000E+03</rscale>
<asrwt>0</asrwt>
<pdfrwt beam="1">  1       21 0.35953631E-01 0.30000000E+03</pdfrwt>
<pdfrwt beam="2">0</pdfrwt>
<totfact> 0.75314845E+02</totfact>
</mgrwt>
</event>
<event>
 6    1  0.1198667E-001  0.3000000E+03  0.7818608E-02  0.1093470E+00
         21   -1    0    0  501  502  0.00000000000E+00  0.00000000000E+00  0.67857403079E+01  0.67857403079E+01  0.00000000000E+00 0. -1.
         13   -1    0    0    0    0 -0.00000000000E+00 -0.00000000000E+00 -0.10000000000E+04  0.10000000000E+04  0.00000000000E+00 0.  1.
    9000005    2    1    2  501    0  0.45679375826E+01  0.39063954398E+02 -0.93889362740E+03  0.93972166886E+03  0.29517385073E+01 0.  0.
         13    1    3    3    0    0  0.87261995269E+00  0.69141322922E+01 -0.19491913614E+03  0.19504367799E+03  0.00000000000E+00 0.  1.
          3    1    3    3  501    0  0.36953176299E+01  0.32149822106E+02 -0.74397449126E+03  0.74467799087E+03  0.00000000000E+00 0.  1.
         -1    1    1    2    0  502 -0.45679375826E+01 -0.39063954398E+02 -0.54320632293E+02  0.67064071452E+02  0.00000000000E+00 0. -1.
<mgrwt>
<rscale>  1 0.30000000E+03</rscale>
<asrwt>0</asrwt>
<pdfrwt beam="1">  1       21 0.24675471E-01 0.30000000E+03</pdfrwt>
<pdfrwt beam="2">0</pdfrwt>
<totfact> 0.15999557E+03</totfact>
</mgrwt>
</event>
<event>
 6    1  0.1198667E-001  0.3000000E+03  0.7818608E-02  0.1093470E+00
         21   -1    0    0  501  502  0.00000000000E+00  0.00000000000E+00  0.16415544711E+01  0.16415544711E+01  0.00000000000E+00 0. -1.
         13   -1    0    0    0    0 -0.00000000000E+00 -0.00000000000E+00 -0.10000000000E+04  0.10000000000E+04  0.00000000000E+00 0.  1.
    9000005    2    1    2  501    0  0.35733204260E+02 -0.16305294758E+02 -0.39629713475E+03  0.39830040183E+03  0.70047533347E+01 0.  0.
         13    1    3    3    0    0  0.26305004352E+02 -0.89470500350E+01 -0.26046929595E+03  0.26194705017E+03  0.00000000000E+00 0.  1.
          3    1    3    3  501    0  0.94281999086E+01 -0.73582447230E+01 -0.13582783879E+03  0.13635335166E+03  0.00000000000E+00 0.  1.
         -3    1    1    2    0  502 -0.35733204260E+02  0.16305294758E+02 -0.60206131078E+03  0.60334115264E+03  0.00000000000E+00 0. -1.
<mgrwt>
<rscale>  1 0.30000000E+03</rscale>
<asrwt>0</asrwt>
<pdfrwt beam="1">  1       21 0.59693016E-02 0.30000000E+03</pdfrwt>
<pdfrwt beam="2">0</pdfrwt>
<totfact> 0.21258886E+04</totfact>
</mgrwt>
</event>
<event>
 6    1  0.1198667E-001  0.3000000E+03  0.7818608E-02  0.1093470E+00
         21   -1    0    0  501  502  0.00000000000E+00  0.00000000000E+00  0.99820300670E+00  0.99820300670E+00  0.00000000000E+00 0. -1.
         13   -1    0    0    0    0 -0.00000000000E+00 -0.00000000000E+00 -0.10000000000E+04  0.10000000000E+04  0.00000000000E+00 0.  1.
    9000005    2    1    2  501    0 -0.13547365483E+02 -0.27939334818E+02 -0.58423277658E+03  0.58506854810E+03  0.36236992526E+01 0.  0.
         13    1    3    3    0    0 -0.13006404735E+02 -0.25002546338E+02 -0.51360836721E+03  0.51438103460E+03  0.00000000000E+00 0.  1.
          1    1    3    3  501    0 -0.54096074844E+00 -0.29367884797E+01 -0.70624409378E+02  0.70687513502E+02  0.00000000000E+00 0.  1.
         -3    1    1    2    0  502  0.13547365483E+02  0.27939334818E+02 -0.41476902041E+03  0.41592965491E+03  0.00000000000E+00 0. -1.
<mgrwt>
<rscale>  1 0.30000000E+03</rscale>
<asrwt>0</asrwt>
<pdfrwt beam="1">  1       21 0.36298368E-02 0.30000000E+03</pdfrwt>
<pdfrwt beam="2">0</pdfrwt>
<totfact> 0.49500311E+04</totfact>
</mgrwt>
</event>
<event>
 6    1  0.1198667E-001  0.3000000E+03  0.7818608E-02  0.1093470E+00
         21   -1    0    0  501  502  0.00000000000E+00  0.00000000000E+00  0.22911862188E+02  0.22911862188E+02  0.00000000000E+00 0. -1.
         13   -1    0    0    0    0 -0.00000000000E+00 -0.00000000000E+00 -0.10000000000E+04  0.10000000000E+04  0.00000000000E+00 0.  1.
    9000005    2    1    2  501    0  0.44271454166E+02  0.11583462343E+03 -0.78179164215E+03  0.79157154391E+03  0.31170126582E+01 0.  0.
         13    1    3    3    0    0  0.22166555016E+02  0.61549327638E+02 -0.40658270695E+03  0.41181206088E+03  0.00000000000E+00 0.  1.
          1    1    3    3  501    0  0.22104899150E+02  0.54285295792E+02 -0.37520893519E+03  0.37975948304E+03  0.00000000000E+00 0.  1.
         -1    1    1    2    0  502 -0.44271454166E+02 -0.11583462343E+03 -0.19529649567E+03  0.23134031827E+03  0.00000000000E+00 0. -1.
<mgrwt>
<rscale>  1 0.30000000E+03</rscale>
<asrwt>0</asrwt>
<pdfrwt beam="1">  1       21 0.83316038E-01 0.30000000E+03</pdfrwt>
<pdfrwt beam="2">0</pdfrwt>
<totfact> 0.11663107E+02</totfact>
</mgrwt>
</event>
<event>
 6    1  0.1198667E-001  0.3000000E+03  0.7818608E-02  0.1093470E+00
         21   -1    0    0  501  502  0.00000000000E+00  0.00000000000E+00  0.31097256752E+01  0.31097256752E+01  0.00000000000E+00 0. -1.
         13   -1    0    0    0    0 -0.00000000000E+00 -0.00000000000E+00 -0.10000000000E+04  0.10000000000E+04  0.00000000000E+00 0.  1.
    9000005    2    1    2  501    0 -0.13326791225E+02 -0.41191930356E+02 -0.81431339685E+03  0.81546992532E+03  0.32422696755E+01 0.  0.
         13    1    3    3    0    0 -0.11140867384E+02 -0.34284917116E+02 -0.69930721362E+03  0.70023578421E+03  0.00000000000E+00 0.  1.
          1    1    3    3  501    0 -0.21859238413E+01 -0.69070132401E+01 -0.11500618324E+03  0.11523414111E+03  0.00000000000E+00 0.  1.
         -3    1    1    2    0  502  0.13326791225E+02  0.41191930356E+02 -0.18257687747E+03  0.18763980036E+03  0.00000000000E+00 0. -1.
<mgrwt>
<rscale>  1 0.30000000E+03</rscale>
<asrwt>0</asrwt>
<pdfrwt beam="1">  1       21 0.11308117E-01 0.30000000E+03</pdfrwt>
<pdfrwt beam="2">0</pdfrwt>
<totfact> 0.68999737E+03</totfact>
</mgrwt>
</event>
<event>
 6    1  0.1198667E-001  0.3000000E+03  0.7818608E-02  0.1093470E+00
         21   -1    0    0  501  502  0.00000000000E+00  0.00000000000E+00  0.15800765125E+02  0.15800765125E+02  0.00000000000E+00 0. -1.
         13   -1    0    0    0    0 -0.00000000000E+00 -0.00000000000E+00 -0.10000000000E+04  0.10000000000E+04  0.00000000000E+00 0.  1.
    9000005    2    1    2  501    0  0.23292454291E+02  0.34769252419E+02 -0.97101471401E+03  0.97192285575E+03  0.36087890331E+01 0.  0.
         13    1    3    3    0    0  0.47153469957E+01  0.84350826358E+01 -0.25568587356E+03  0.25586842528E+03  0.00000000000E+00 0.  1.
          1    1    3    3  501    0  0.18577107295E+02  0.26334169783E+02 -0.71532884045E+03  0.71605443047E+03  0.00000000000E+00 0.  1.
         -1    1    1    2    0  502 -0.23292454291E+02 -0.34769252419E+02 -0.13184520861E+02  0.43877909374E+02  0.00000000000E+00 0. -1.
<mgrwt>
<rscale>  1 0.30000000E+03</rscale>
<asrwt>0</asrwt>
<pdfrwt beam="1">  1       21 0.57457449E-01 0.30000000E+03</pdfrwt>
<pdfrwt beam="2">0</pdfrwt>
<totfact> 0.27667294E+02</totfact>
</mgrwt>
</event>
<event>
 6    1  0.1198667E-001  0.3000000E+03  0.7818608E-02  0.1093470E+00
         21   -1    0    0  501  502  0.00000000000E+00  0.00000000000E+00  0.97666975690E+00  0.97666975690E+00  0.00000000000E+00 0. -1.
         13   -1    0    0    0    0 -0.00000000000E+00 -0.00000000000E+00 -0.10000000000E+04  0.10000000000E+04  0.00000000000E+00 0.  1.
    9000005    2    1    2  501    0  0.19431003006E+02  0.23312827944E+02 -0.61513410111E+03  0.61588967690E+03  0.30132933471E+01 0.  0.
         13    1    3    3    0    0  0.42478199349E+01  0.37545212304E+01 -0.13160116647E+03  0.13172322278E+03  0.00000000000E+00 0.  1.
          1    1    3    3  501    0  0.15183183071E+02  0.19558306714E+02 -0.48353293464E+03  0.48416645411E+03  0.00000000000E+00 0.  1.
         -3    1    1    2    0  502 -0.19431003006E+02 -0.23312827944E+02 -0.38388922913E+03  0.38508699286E+03  0.00000000000E+00 0. -1.
<mgrwt>
<rscale>  1 0.30000000E+03</rscale>
<asrwt>0</asrwt>
<pdfrwt beam="1">  1       21 0.35515339E-02 0.30000000E+03</pdfrwt>
<pdfrwt beam="2">0</pdfrwt>
<totfact> 0.51343958E+04</totfact>
</mgrwt>
</event>
<event>
 6    1  0.1198667E-001  0.3000000E+03  0.7818608E-02  0.1093470E+00
         21   -1    0    0  501  502  0.00000000000E+00  0.00000000000E+00  0.25009467183E+01  0.25009467183E+01  0.00000000000E+00 0. -1.
         13   -1    0    0    0    0 -0.00000000000E+00 -0.00000000000E+00 -0.10000000000E+04  0.10000000000E+04  0.00000000000E+00 0.  1.
    9000005    2    1    2  501    0  0.12727331074E+02 -0.33357363328E+02 -0.84947747295E+03  0.85023444715E+03  0.34553494894E+01 0.  0.
         13    1    3    3    0    0  0.61928052502E+00 -0.40913922682E+00 -0.22705421531E+02  0.22717549827E+02  0.00000000000E+00 0.  1.
          3    1    3    3  501    0  0.12108050549E+02 -0.32948224101E+02 -0.82677205142E+03  0.82751689733E+03  0.00000000000E+00 0.  1.
         -3    1    1    2    0  502 -0.12727331074E+02  0.33357363328E+02 -0.14802158034E+03  0.15226649956E+03  0.00000000000E+00 0. -1.
<mgrwt>
<rscale>  1 0.30000000E+03</rscale>
<asrwt>0</asrwt>
<pdfrwt beam="1">  1       21 0.90943709E-02 0.30000000E+03</pdfrwt>
<pdfrwt beam="2">0</pdfrwt>
<totfact> 0.10187970E+04</totfact>
</mgrwt>
</event>
<event>
 6    1  0.1198667E-001  0.3000000E+03  0.7818608E-02  0.1093470E+00
         21   -1    0    0  501  502  0.00000000000E+00  0.00000000000E+00  0.19786560386E+01  0.19786560386E+01  0.00000000000E+00 0. -1.
         13   -1    0    0    0    0 -0.00000000000E+00 -0.00000000000E+00 -0.10000000000E+04  0.10000000000E+04  0.00000000000E+00 0.  1.
    9000005    2    1    2  501    0  0.19473167175E+02  0.39914248227E+02 -0.50330623628E+03  0.50527412695E+03  0.35248309227E+01 0.  0.
         13    1    3    3    0    0  0.43880497552E+01  0.10411633842E+02 -0.11269620549E+03  0.11326116648E+03  0.00000000000E+00 0.  1.
          1    1    3    3  501    0  0.15085117420E+02  0.29502614385E+02 -0.39061003078E+03  0.39201296047E+03  0.00000000000E+00 0.  1.
         -1    1    1    2    0  502 -0.19473167175E+02 -0.39914248227E+02 -0.49471510768E+03  0.49670452909E+03  0.00000000000E+00 0. -1.
<mgrwt>
<rscale>  1 0.30000000E+03</rscale>
<asrwt>0</asrwt>
<pdfrwt beam="1">  1       21 0.71951280E-02 0.30000000E+03</pdfrwt>
<pdfrwt beam="2">0</pdfrwt>
<totfact> 0.15380565E+04</totfact>
</mgrwt>
</event>
<event>
 6    1  0.1198667E-001  0.3000000E+03  0.7818608E-02  0.1093470E+00
         21   -1    0    0  501  502  0.00000000000E+00  0.00000000000E+00  0.10169530533E+01  0.10169530533E+01  0.00000000000E+00 0. -1.
         13   -1    0    0    0    0 -0.00000000000E+00 -0.00000000000E+00 -0.10000000000E+04  0.10000000000E+04  0.00000000000E+00 0.  1.
    9000005    2    1    2  501    0  0.22146612789E+02  0.22146940171E+02 -0.57598199936E+03  0.57685796673E+03  0.53750143604E+01 0.  0.
         13    1    3    3    0    0  0.11868102481E+02  0.96686485674E+01 -0.32004825842E+03  0.32041414192E+03  0.00000000000E+00 0.  1.
          3    1    3    3  501    0  0.10278510308E+02  0.12478291604E+02 -0.25593374094E+03  0.25644382482E+03  0.00000000000E+00 0.  1.
         -3    1    1    2    0  502 -0.22146612789E+02 -0.22146940171E+02 -0.42300104759E+03  0.42415898632E+03  0.00000000000E+00 0. -1.
<mgrwt>
<rscale>  1 0.30000000E+03</rscale>
<asrwt>0</asrwt>
<pdfrwt beam="1">  1       21 0.36980189E-02 0.30000000E+03</pdfrwt>
<pdfrwt beam="2">0</pdfrwt>
<totfact> 0.47978549E+04</totfact>
</mgrwt>
</event>
<event>
 6    1  0.1198667E-001  0.3000000E+03  0.7818608E-02  0.1093470E+00
         21   -1    0    0  501  502  0.00000000000E+00  0.00000000000E+00  0.14609769314E+01  0.14609769314E+01  0.00000000000E+00 0. -1.
         13   -1    0    0    0    0 -0.00000000000E+00 -0.00000000000E+00 -0.10000000000E+04  0.10000000000E+04  0.00000000000E+00 0.  1.
    9000005    2    1    2  501    0 -0.31654847047E+02 -0.90166609217E+01 -0.74860783175E+03  0.74937184605E+03  0.78197427014E+01 0.  0.
         13    1    3    3    0    0 -0.30937476645E+02 -0.99788471245E+01 -0.70733518856E+03  0.70808175646E+03  0.00000000000E+00 0.  1.
          1    1    3    3  501    0 -0.71737040232E+00  0.96218620279E+00 -0.41272643190E+02  0.41290089591E+02  0.00000000000E+00 0.  1.
         -3    1    1    2    0  502  0.31654847047E+02  0.90166609217E+01 -0.24993119132E+03  0.25208913088E+03  0.00000000000E+00 0. -1.
<mgrwt>
<rscale>  1 0.30000000E+03</rscale>
<asrwt>0</asrwt>
<pdfrwt beam="1">  1       21 0.53126546E-02 0.30000000E+03</pdfrwt>
<pdfrwt beam="2">0</pdfrwt>
<totfact> 0.25970711E+04</totfact>
</mgrwt>
</event>
<event>
 6    1  0.1198667E-001  0.3000000E+03  0.7818608E-02  0.1093470E+00
         21   -1    0    0  501  502  0.00000000000E+00  0.00000000000E+00  0.11907412214E+02  0.11907412214E+02  0.00000000000E+00 0. -1.
         13   -1    0    0    0    0 -0.00000000000E+00 -0.00000000000E+00 -0.10000000000E+04  0.10000000000E+04  0.00000000000E+00 0.  1.
    9000005    2    1    2  501    0 -0.96248843789E+01  0.32633593918E+02 -0.97476914655E+03  0.97536833809E+03  0.33039417433E+01 0.  0.
         13    1    3    3    0    0 -0.63999433244E+00  0.73730235006E+00 -0.19233187279E+02  0.19257951615E+02  0.00000000000E+00 0.  1.
          1    1    3    3  501    0 -0.89848900465E+01  0.31896291568E+02 -0.95553595927E+03  0.95611038648E+03  0.00000000000E+00 0.  1.
         -3    1    1    2    0  502  0.96248843789E+01 -0.32633593918E+02 -0.13323441233E+02  0.36539074121E+02  0.00000000000E+00 0. -1.
<mgrwt>
<rscale>  1 0.30000000E+03</rscale>
<asrwt>0</asrwt>
<pdfrwt beam="1">  1       21 0.43299772E-01 0.30000000E+03</pdfrwt>
<pdfrwt beam="2">0</pdfrwt>
<totfact> 0.51122799E+02</totfact>
</mgrwt>
</event>
<event>
 6    1  0.1198667E-001  0.3000000E+03  0.7818608E-02  0.1093470E+00
         21   -1    0    0  501  502  0.00000000000E+00  0.00000000000E+00  0.13727637891E+01  0.13727637891E+01  0.00000000000E+00 0. -1.
         13   -1    0    0    0    0 -0.00000000000E+00 -0.00000000000E+00 -0.10000000000E+04  0.10000000000E+04  0.00000000000E+00 0.  1.
    9000005    2    1    2  501    0 -0.32224123372E+02  0.12995020731E+02 -0.33199614700E+03  0.33383679188E+03  0.42775341707E+01 0.  0.
         13    1    3    3    0    0 -0.13478521725E+02  0.43183462841E+01 -0.11790375760E+03  0.11875021987E+03  0.00000000000E+00 0.  1.
          3    1    3    3  501    0 -0.18745601647E+02  0.86766744474E+01 -0.21409238940E+03  0.21508657201E+03  0.00000000000E+00 0.  1.
         -3    1    1    2    0  502  0.32224123372E+02 -0.12995020731E+02 -0.66663108921E+03  0.66753597191E+03  0.00000000000E+00 0. -1.
<mgrwt>
<rscale>  1 0.30000000E+03</rscale>
<asrwt>0</asrwt>
<pdfrwt beam="1">  1       21 0.49918789E-02 0.30000000E+03</pdfrwt>
<pdfrwt beam="2">0</pdfrwt>
<totfact> 0.28884584E+04</totfact>
</mgrwt>
</event>
<event>
 6    1  0.1198667E-001  0.3000000E+03  0.7818608E-02  0.1093470E+00
         21   -1    0    0  501  502  0.00000000000E+00  0.00000000000E+00  0.78041853497E+01  0.78041853497E+01  0.00000000000E+00 0. -1.
         13   -1    0    0    0    0 -0.00000000000E+00 -0.00000000000E+00 -0.10000000000E+04  0.10000000000E+04  0.00000000000E+00 0.  1.
    9000005    2    1    2  501    0 -0.65292673726E+01  0.47635330296E+02 -0.91879468986E+03  0.92005749798E+03  0.32189188810E+01 0.  0.
         13    1    3    3    0    0 -0.33110857598E+01  0.34120578924E+02 -0.64335317680E+03  0.64426585141E+03  0.00000000000E+00 0.  1.
          1    1    3    3  501    0 -0.32181816128E+01  0.13514751372E+02 -0.27544151307E+03  0.27579164657E+03  0.00000000000E+00 0.  1.
         -1    1    1    2    0  502  0.65292673726E+01 -0.47635330296E+02 -0.73401124787E+02  0.87746687372E+02  0.00000000000E+00 0. -1.
<mgrwt>
<rscale>  1 0.30000000E+03</rscale>
<asrwt>0</asrwt>
<pdfrwt beam="1">  1       21 0.28378916E-01 0.30000000E+03</pdfrwt>
<pdfrwt beam="2">0</pdfrwt>
<totfact> 0.12145673E+03</totfact>
</mgrwt>
</event>
<event>
 6    1  0.1198667E-001  0.3000000E+03  0.7818608E-02  0.1093470E+00
         21   -1    0    0  501  502  0.00000000000E+00  0.00000000000E+00  0.16513987013E+01  0.16513987013E+01  0.00000000000E+00 0. -1.
         13   -1    0    0    0    0 -0.00000000000E+00 -0.00000000000E+00 -0.10000000000E+04  0.10000000000E+04  0.00000000000E+00 0.  1.
    9000005    2    1    2  501    0 -0.18344698626E+02  0.29521028417E+02 -0.75761970810E+03  0.75842636071E+03  0.38604957817E+01 0.  0.
         13    1    3    3    0    0 -0.10295312417E+02  0.14964396292E+02 -0.35771999149E+03  0.35818084668E+03  0.00000000000E+00 0.  1.
          3    1    3    3  501    0 -0.80493862094E+01  0.14556632125E+02 -0.39989971661E+03  0.40024551403E+03  0.00000000000E+00 0.  1.
         -1    1    1    2    0  502  0.18344698626E+02 -0.29521028417E+02 -0.24072889320E+03  0.24322503799E+03  0.00000000000E+00 0. -1.
<mgrwt>
<rscale>  1 0.30000000E+03</rscale>
<asrwt>0</asrwt>
<pdfrwt beam="1">  1       21 0.60050988E-02 0.30000000E+03</pdfrwt>
<pdfrwt beam="2">0</pdfrwt>
<totfact> 0.21040818E+04</totfact>
</mgrwt>
</event>
<event>
 6    1  0.1198667E-001  0.3000000E+03  0.7818608E-02  0.1093470E+00
         21   -1    0    0  501  502  0.00000000000E+00  0.00000000000E+00  0.11295421458E+01  0.11295421458E+01  0.00000000000E+00 0. -1.
         13   -1    0    0    0    0 -0.00000000000E+00 -0.00000000000E+00 -0.10000000000E+04  0.10000000000E+04  0.00000000000E+00 0.  1.
    9000005    2    1    2  501    0 -0.29424260211E+02  0.12972261438E+02 -0.64182944857E+03  0.64264335138E+03  0.33718498287E+01 0.  0.
         13    1    3    3    0    0 -0.12208251202E+02  0.37999942869E+01 -0.26997059424E+03  0.27027320087E+03  0.00000000000E+00 0.  1.
          1    1    3    3  501    0 -0.17216009009E+02  0.91722671514E+01 -0.37185885433E+03  0.37237015051E+03  0.00000000000E+00 0.  1.
         -1    1    1    2    0  502  0.29424260211E+02 -0.12972261438E+02 -0.35704100928E+03  0.35848619076E+03  0.00000000000E+00 0. -1.
<mgrwt>
<rscale>  1 0.30000000E+03</rscale>
<asrwt>0</asrwt>
<pdfrwt beam="1">  1       21 0.41074346E-02 0.30000000E+03</pdfrwt>
<pdfrwt beam="2">0</pdfrwt>
<totfact> 0.40210600E+04</totfact>
</mgrwt>
</event>
<event>
 6    1  0.1198667E-001  0.3000000E+03  0.7818608E-02  0.1093470E+00
         21   -1    0    0  501  502  0.00000000000E+00  0.00000000000E+00  0.20158158361E+01  0.20158158361E+01  0.00000000000E+00 0. -1.
         13   -1    0    0    0    0 -0.00000000000E+00 -0.00000000000E+00 -0.10000000000E+04  0.10000000000E+04  0.00000000000E+00 0.  1.
    9000005    2    1    2  501    0  0.80364808438E+01  0.43421209159E+02 -0.58684024380E+03  0.58850725955E+03  0.30555462709E+01 0.  0.
         13    1    3    3    0    0 -0.25775520914E+00  0.80801526610E+00 -0.12260365223E+02  0.12289665651E+02  0.00000000000E+00 0.  1.
          1    1    3    3  501    0  0.82942360529E+01  0.42613193893E+02 -0.57457987858E+03  0.57621759390E+03  0.00000000000E+00 0.  1.
         -3    1    1    2    0  502 -0.80364808438E+01 -0.43421209159E+02 -0.41114394036E+03  0.41350855629E+03  0.00000000000E+00 0. -1.
<mgrwt>
<rscale>  1 0.30000000E+03</rscale>
<asrwt>0</asrwt>
<pdfrwt beam="1">  1       21 0.73302549E-02 0.30000000E+03</pdfrwt>
<pdfrwt beam="2">0</pdfrwt>
<totfact> 0.14888955E+04</totfact>
</mgrwt>
</event>
<event>
 6    1  0.1198667E-001  0.3000000E+03  0.7818608E-02  0.1093470E+00
         21   -1    0    0  501  502  0.00000000000E+00  0.00000000000E+00  0.13662706152E+01  0.13662706152E+01  0.00000000000E+00 0. -1.
         13   -1    0    0    0    0 -0.00000000000E+00 -0.00000000000E+00 -0.10000000000E+04  0.10000000000E+04  0.00000000000E+00 0.  1.
    9000005    2    1    2  501    0  0.24612141973E+02  0.21573745447E+02 -0.73066624243E+03  0.73140746248E+03  0.35403840163E+01 0.  0.
         13    1    3    3    0    0  0.15754767481E+02  0.12840511242E+02 -0.48700956842E+03  0.48743349409E+03  0.00000000000E+00 0.  1.
          3    1    3    3  501    0  0.88573744929E+01  0.87332342044E+01 -0.24365667401E+03  0.24397396839E+03  0.00000000000E+00 0.  1.
         -3    1    1    2    0  502 -0.24612141973E+02 -0.21573745447E+02 -0.26796748695E+03  0.26995880813E+03  0.00000000000E+00 0. -1.
<mgrwt>
<rscale>  1 0.30000000E+03</rscale>
<asrwt>0</asrwt>
<pdfrwt beam="1">  1       21 0.49682673E-02 0.30000000E+03</pdfrwt>
<pdfrwt beam="2">0</pdfrwt>
<totfact> 0.29118943E+04</totfact>
</mgrwt>
</event>
<event>
 6    1  0.1198667E-001  0.3000000E+03  0.7818608E-02  0.1093470E+00
         21   -1    0    0  501  502  0.00000000000E+00  0.00000000000E+00  0.15503610548E+01  0.15503610548E+01  0.00000000000E+00 0. -1.
         13   -1    0    0    0    0 -0.00000000000E+00 -0.00000000000E+00 -0.10000000000E+04  0.10000000000E+04  0.00000000000E+00 0.  1.
    9000005    2    1    2  501    0  0.29908512224E+02  0.22404476117E+02 -0.65466820108E+03  0.65574383035E+03  0.36108019450E+01 0.  0.
         13    1    3    3    0    0  0.28053114409E+02  0.20565663857E+02 -0.62169045094E+03  0.62266278237E+03  0.00000000000E+00 0.  1.
          3    1    3    3  501    0  0.18553978156E+01  0.18388122598E+01 -0.32977750140E+02  0.33081047986E+02  0.00000000000E+00 0.  1.
         -1    1    1    2    0  502 -0.29908512224E+02 -0.22404476117E+02 -0.34378143787E+03  0.34580653070E+03  0.00000000000E+00 0. -1.
<mgrwt>
<rscale>  1 0.30000000E+03</rscale>
<asrwt>0</asrwt>
<pdfrwt beam="1">  1       21 0.56376885E-02 0.30000000E+03</pdfrwt>
<pdfrwt beam="2">0</pdfrwt>
<totfact> 0.23457266E+04</totfact>
</mgrwt>
</event>
<event>
 6    1  0.1198667E-001  0.3000000E+03  0.7818608E-02  0.1093470E+00
         21   -1    0    0  501  502  0.00000000000E+00  0.00000000000E+00  0.40483280861E+01  0.40483280861E+01  0.00000000000E+00 0. -1.
         13   -1    0    0    0    0 -0.00000000000E+00 -0.00000000000E+00 -0.10000000000E+04  0.10000000000E+04  0.00000000000E+00 0.  1.
    9000005    2    1    2  501    0  0.23404855170E+01 -0.57753969386E+02 -0.70718724804E+03  0.70955572827E+03  0.38116762084E+01 0.  0.
         13    1    3    3    0    0 -0.86130216826E+00 -0.23359001209E+02 -0.29134537263E+03  0.29228156106E+03  0.00000000000E+00 0.  1.
          3    1    3    3  501    0  0.32017876853E+01 -0.34394968176E+02 -0.41584187541E+03  0.41727416721E+03  0.00000000000E+00 0.  1.
         -3    1    1    2    0  502 -0.23404855170E+01  0.57753969386E+02 -0.28876442387E+03  0.29449259982E+03  0.00000000000E+00 0. -1.
<mgrwt>
<rscale>  1 0.30000000E+03</rscale>
<asrwt>0</asrwt>
<pdfrwt beam="1">  1       21 0.14721224E-01 0.30000000E+03</pdfrwt>
<pdfrwt beam="2">0</pdfrwt>
<totfact> 0.42633736E+03</totfact>
</mgrwt>
</event>
<event>
 6    1  0.1198667E-001  0.3000000E+03  0.7818608E-02  0.1093470E+00
         21   -1    0    0  501  502  0.00000000000E+00  0.00000000000E+00  0.11401287469E+01  0.11401287469E+01  0.00000000000E+00 0. -1.
         13   -1    0    0    0    0 -0.00000000000E+00 -0.00000000000E+00 -0.10000000000E+04  0.10000000000E+04  0.00000000000E+00 0.  1.
    9000005    2    1    2  501    0 -0.32428667269E+02  0.79400286520E+01 -0.43771282435E+03  0.43900075922E+03  0.38062429954E+01 0.  0.
         13    1    3    3    0    0 -0.84832520838E+01  0.36592771970E+01 -0.13015523284E+03  0.13048272112E+03  0.00000000000E+00 0.  1.
          3    1    3    3  501    0 -0.23945415185E+02  0.42807514550E+01 -0.30755759151E+03  0.30851803810E+03  0.00000000000E+00 0.  1.
         -1    1    1    2    0  502  0.32428667269E+02 -0.79400286520E+01 -0.56114704691E+03  0.56213936952E+03  0.00000000000E+00 0. -1.
<mgrwt>
<rscale>  1 0.30000000E+03</rscale>
<asrwt>0</asrwt>
<pdfrwt beam="1">  1       21 0.41459315E-02 0.30000000E+03</pdfrwt>
<pdfrwt beam="2">0</pdfrwt>
<totfact> 0.39582780E+04</totfact>
</mgrwt>
</event>
<event>
 6    1  0.1198667E-001  0.3000000E+03  0.7818608E-02  0.1093470E+00
         21   -1    0    0  501  502  0.00000000000E+00  0.00000000000E+00  0.62204433067E+01  0.62204433067E+01  0.00000000000E+00 0. -1.
         13   -1    0    0    0    0 -0.00000000000E+00 -0.00000000000E+00 -0.10000000000E+04  0.10000000000E+04  0.00000000000E+00 0.  1.
    9000005    2    1    2  501    0 -0.14238875686E+02 -0.58166959776E+02 -0.82419478077E+03  0.82637290505E+03  0.30001283006E+01 0.  0.
         13    1    3    3    0    0 -0.11710884580E+02 -0.48665686802E+02 -0.67312143347E+03  0.67497996866E+03  0.00000000000E+00 0.  1.
          3    1    3    3  501    0 -0.25279911064E+01 -0.95012729739E+01 -0.15107334730E+03  0.15139293640E+03  0.00000000000E+00 0.  1.
         -3    1    1    2    0  502  0.14238875686E+02  0.58166959776E+02 -0.16958477592E+03  0.17984753825E+03  0.00000000000E+00 0. -1.
<mgrwt>
<rscale>  1 0.30000000E+03</rscale>
<asrwt>0</asrwt>
<pdfrwt beam="1">  1       21 0.22619842E-01 0.30000000E+03</pdfrwt>
<pdfrwt beam="2">0</pdfrwt>
<totfact> 0.18943350E+03</totfact>
</mgrwt>
</event>
<event>
 6    1  0.1198667E-001  0.3000000E+03  0.7818608E-02  0.1093470E+00
         21   -1    0    0  501  502  0.00000000000E+00  0.00000000000E+00  0.19764899126E+01  0.19764899126E+01  0.00000000000E+00 0. -1.
         13   -1    0    0    0    0 -0.00000000000E+00 -0.00000000000E+00 -0.10000000000E+04  0.10000000000E+04  0.00000000000E+00 0.  1.
    9000005    2    1    2  501    0 -0.11591714526E+02  0.41046079813E+02 -0.36217805954E+03  0.36470214907E+03  0.39448968201E+01 0.  0.
         13    1    3    3    0    0 -0.11127542916E+02  0.40491282552E+02 -0.35146689798E+03  0.35396658960E+03  0.00000000000E+00 0.  1.
          3    1    3    3  501    0 -0.46417161014E+00  0.55479726141E+00 -0.10711161562E+02  0.10735559477E+02  0.00000000000E+00 0.  1.
         -3    1    1    2    0  502  0.11591714526E+02 -0.41046079813E+02 -0.63584545054E+03  0.63727434084E+03  0.00000000000E+00 0. -1.
<mgrwt>
<rscale>  1 0.30000000E+03</rscale>
<asrwt>0</asrwt>
<pdfrwt beam="1">  1       21 0.71872512E-02 0.30000000E+03</pdfrwt>
<pdfrwt beam="2">0</pdfrwt>
<totfact> 0.15409980E+04</totfact>
</mgrwt>
</event>
<event>
 6    1  0.1198667E-001  0.3000000E+03  0.7818608E-02  0.1093470E+00
         21   -1    0    0  501  502  0.00000000000E+00  0.00000000000E+00  0.84105994361E+01  0.84105994361E+01  0.00000000000E+00 0. -1.
         13   -1    0    0    0    0 -0.00000000000E+00 -0.00000000000E+00 -0.10000000000E+04  0.10000000000E+04  0.00000000000E+00 0.  1.
    9000005    2    1    2  501    0 -0.21734884142E+02  0.75636088431E+02 -0.75449112572E+03  0.75859303601E+03  0.36486206306E+01 0.  0.
         13    1    3    3    0    0 -0.35508436919E+00  0.39826965485E+01 -0.35985558607E+02  0.36207021211E+02  0.00000000000E+00 0.  1.
          1    1    3    3  501    0 -0.21379799772E+02  0.71653391882E+02 -0.71850556711E+03  0.72238601480E+03  0.00000000000E+00 0.  1.
         -3    1    1    2    0  502  0.21734884142E+02 -0.75636088431E+02 -0.23709827485E+03  0.24981756343E+03  0.00000000000E+00 0. -1.
<mgrwt>
<rscale>  1 0.30000000E+03</rscale>
<asrwt>0</asrwt>
<pdfrwt beam="1">  1       21 0.30584062E-01 0.30000000E+03</pdfrwt>
<pdfrwt beam="2">0</pdfrwt>
<totfact> 0.10460819E+03</totfact>
</mgrwt>
</event>
<event>
 6    1  0.1198667E-001  0.3000000E+03  0.7818608E-02  0.1093470E+00
         21   -1    0    0  501  502  0.00000000000E+00  0.00000000000E+00  0.12610802150E+01  0.12610802150E+01  0.00000000000E+00 0. -1.
         13   -1    0    0    0    0 -0.00000000000E+00 -0.00000000000E+00 -0.10000000000E+04  0.10000000000E+04  0.00000000000E+00 0.  1.
    9000005    2    1    2  501    0 -0.29426499429E+02  0.11946002068E+02 -0.72189239824E+03  0.72259887911E+03  0.34466821373E+01 0.  0.
         13    1    3    3    0    0 -0.10630353152E+02  0.48126500224E+01 -0.23002716878E+03  0.23032295670E+03  0.00000000000E+00 0.  1.
          3    1    3    3  501    0 -0.18796146277E+02  0.71333520453E+01 -0.49186522946E+03  0.49227592241E+03  0.00000000000E+00 0.  1.
         -3    1    1    2    0  502  0.29426499429E+02 -0.11946002068E+02 -0.27684652154E+03  0.27866220110E+03  0.00000000000E+00 0. -1.
<mgrwt>
<rscale>  1 0.30000000E+03</rscale>
<asrwt>0</asrwt>
<pdfrwt beam="1">  1       21 0.45857559E-02 0.30000000E+03</pdfrwt>
<pdfrwt beam="2">0</pdfrwt>
<totfact> 0.33371148E+04</totfact>
</mgrwt>
</event>
<event>
 6    1  0.1198667E-001  0.3000000E+03  0.7818608E-02  0.1093470E+00
         21   -1    0    0  501  502  0.00000000000E+00  0.00000000000E+00  0.20991352860E+01  0.20991352860E+01  0.00000000000E+00 0. -1.
         13   -1    0    0    0    0 -0.00000000000E+00 -0.00000000000E+00 -0.10000000000E+04  0.10000000000E+04  0.00000000000E+00 0.  1.
    9000005    2    1    2  501    0 -0.19398009062E+02  0.40276489168E+02 -0.60677245099E+03  0.60842425121E+03  0.29637538189E+01 0.  0.
         13    1    3    3    0    0 -0.64624614423E+01  0.16332003883E+02 -0.22851118265E+03  0.22918520536E+03  0.00000000000E+00 0.  1.
          3    1    3    3  501    0 -0.12935547619E+02  0.23944485285E+02 -0.37826126834E+03  0.37923904584E+03  0.00000000000E+00 0.  1.
         -1    1    1    2    0  502  0.19398009062E+02 -0.40276489168E+02 -0.39112841372E+03  0.39367488408E+03  0.00000000000E+00 0. -1.
<mgrwt>
<rscale>  1 0.30000000E+03</rscale>
<asrwt>0</asrwt>
<pdfrwt beam="1">  1       21 0.76332353E-02 0.30000000E+03</pdfrwt>
<pdfrwt beam="2">0</pdfrwt>
<totfact> 0.13870012E+04</totfact>
</mgrwt>
</event>
<event>
 6    1  0.1198667E-001  0.3000000E+03  0.7818608E-02  0.1093470E+00
         21   -1    0    0  501  502  0.00000000000E+00  0.00000000000E+00  0.21750967511E+01  0.21750967511E+01  0.00000000000E+00 0. -1.
         13   -1    0    0    0    0 -0.00000000000E+00 -0.00000000000E+00 -0.10000000000E+04  0.10000000000E+04  0.00000000000E+00 0.  1.
    9000005    2    1    2  501    0 -0.32235375139E+02  0.30840882699E+02 -0.64304544581E+03  0.64460168768E+03  0.36892985181E+01 0.  0.
         13    1    3    3    0    0 -0.24443841351E+02  0.25085386517E+02 -0.51618693542E+03  0.51737387864E+03  0.00000000000E+00 0.  1.
          1    1    3    3  501    0 -0.77915337881E+01  0.57554961819E+01 -0.12685851039E+03  0.12722780904E+03  0.00000000000E+00 0.  1.
         -3    1    1    2    0  502  0.32235375139E+02 -0.30840882699E+02 -0.35477945743E+03  0.35757340907E+03  0.00000000000E+00 0. -1.
<mgrwt>
<rscale>  1 0.30000000E+03</rscale>
<asrwt>0</asrwt>
<pdfrwt beam="1">  1       21 0.79094594E-02 0.30000000E+03</pdfrwt>
<pdfrwt beam="2">0</pdfrwt>
<totfact> 0.13031733E+04</totfact>
</mgrwt>
</event>
<event>
 6    1  0.1198667E-001  0.3000000E+03  0.7818608E-02  0.1093470E+00
         21   -1    0    0  501  502  0.00000000000E+00  0.00000000000E+00  0.24841746439E+01  0.24841746439E+01  0.00000000000E+00 0. -1.
         13   -1    0    0    0    0 -0.00000000000E+00 -0.00000000000E+00 -0.10000000000E+04  0.10000000000E+04  0.00000000000E+00 0.  1.
    9000005    2    1    2  501    0  0.43588021476E+02  0.20349493491E+02 -0.62767631842E+03  0.62952938061E+03  0.39576312896E+01 0.  0.
         13    1    3    3    0    0  0.28128142680E+02  0.12676642338E+02 -0.37776912820E+03  0.37902691711E+03  0.00000000000E+00 0.  1.
          3    1    3    3  501    0  0.15459878796E+02  0.76728511529E+01 -0.24990719022E+03  0.25050246350E+03  0.00000000000E+00 0.  1.
         -1    1    1    2    0  502 -0.43588021476E+02 -0.20349493491E+02 -0.36983950694E+03  0.37295479404E+03  0.00000000000E+00 0. -1.
<mgrwt>
<rscale>  1 0.30000000E+03</rscale>
<asrwt>0</asrwt>
<pdfrwt beam="1">  1       21 0.90333814E-02 0.30000000E+03</pdfrwt>
<pdfrwt beam="2">0</pdfrwt>
<totfact> 0.10310231E+04</totfact>
</mgrwt>
</event>
<event>
 6    1  0.1198667E-001  0.3000000E+03  0.7818608E-02  0.1093470E+00
         21   -1    0    0  501  502  0.00000000000E+00  0.00000000000E+00  0.62042606780E+01  0.62042606780E+01  0.00000000000E+00 0. -1.
         13   -1    0    0    0    0 -0.00000000000E+00 -0.00000000000E+00 -0.10000000000E+04  0.10000000000E+04  0.00000000000E+00 0.  1.
    9000005    2    1    2  501    0 -0.24791223172E+02 -0.23623466035E+02 -0.94993797322E+03  0.95056096331E+03  0.33643903380E+01 0.  0.
         13    1    3    3    0    0 -0.11876230478E+02 -0.13559852751E+02 -0.48584730782E+03  0.48618157202E+03  0.00000000000E+00 0.  1.
          1    1    3    3  501    0 -0.12914992694E+02 -0.10063613284E+02 -0.46409066540E+03  0.46437939129E+03  0.00000000000E+00 0.  1.
         -3    1    1    2    0  502  0.24791223172E+02  0.23623466035E+02 -0.43857766105E+02  0.55643297365E+02  0.00000000000E+00 0. -1.
<mgrwt>
<rscale>  1 0.30000000E+03</rscale>
<asrwt>0</asrwt>
<pdfrwt beam="1">  1       21 0.22560995E-01 0.30000000E+03</pdfrwt>
<pdfrwt beam="2">0</pdfrwt>
<totfact> 0.19038870E+03</totfact>
</mgrwt>
</event>
<event>
 6    1  0.1198667E-001  0.3000000E+03  0.7818608E-02  0.1093470E+00
         21   -1    0    0  501  502  0.00000000000E+00  0.00000000000E+00  0.10071565319E+01  0.10071565319E+01  0.00000000000E+00 0. -1.
         13   -1    0    0    0    0 -0.00000000000E+00 -0.00000000000E+00 -0.10000000000E+04  0.10000000000E+04  0.00000000000E+00 0.  1.
    9000005    2    1    2  501    0 -0.24648701794E+02  0.19049049721E+02 -0.41059587485E+03  0.41178613053E+03  0.29017345610E+01 0.  0.
         13    1    3    3    0    0 -0.21403849006E+02  0.17691009370E+02 -0.36499315678E+03  0.36604794913E+03  0.00000000000E+00 0.  1.
          1    1    3    3  501    0 -0.32448527876E+01  0.13580403505E+01 -0.45602718068E+02  0.45738181407E+02  0.00000000000E+00 0.  1.
         -3    1    1    2    0  502  0.24648701794E+02 -0.19049049721E+02 -0.58839696862E+03  0.58922102600E+03  0.00000000000E+00 0. -1.
<mgrwt>
<rscale>  1 0.30000000E+03</rscale>
<asrwt>0</asrwt>
<pdfrwt beam="1">  1       21 0.36623951E-02 0.30000000E+03</pdfrwt>
<pdfrwt beam="2">0</pdfrwt>
<totfact> 0.48764292E+04</totfact>
</mgrwt>
</event>
<event>
 6    1  0.1198667E-001  0.3000000E+03  0.7818608E-02  0.1093470E+00
         21   -1    0    0  501  502  0.00000000000E+00  0.00000000000E+00  0.31515719825E+01  0.31515719825E+01  0.00000000000E+00 0. -1.
         13   -1    0    0    0    0 -0.00000000000E+00 -0.00000000000E+00 -0.10000000000E+04  0.10000000000E+04  0.00000000000E+00 0.  1.
    9000005    2    1    2  501    0  0.55214820064E+02  0.26039607991E+01 -0.58405841340E+03  0.58667701918E+03  0.31996250545E+01 0.  0.
         13    1    3    3    0    0  0.41239546416E+02  0.57171848143E+00 -0.43242922508E+03  0.43439159955E+03  0.00000000000E+00 0.  1.
          1    1    3    3  501    0  0.13975273649E+02  0.20322423176E+01 -0.15162918832E+03  0.15228541963E+03  0.00000000000E+00 0.  1.
         -3    1    1    2    0  502 -0.55214820064E+02 -0.26039607991E+01 -0.41279001461E+03  0.41647455280E+03  0.00000000000E+00 0. -1.
<mgrwt>
<rscale>  1 0.30000000E+03</rscale>
<asrwt>0</asrwt>
<pdfrwt beam="1">  1       21 0.11460286E-01 0.30000000E+03</pdfrwt>
<pdfrwt beam="2">0</pdfrwt>
<totfact> 0.67355095E+03</totfact>
</mgrwt>
</event>
<event>
 6    1  0.1198667E-001  0.3000000E+03  0.7818608E-02  0.1093470E+00
         21   -1    0    0  501  502  0.00000000000E+00  0.00000000000E+00  0.28496699846E+01  0.28496699846E+01  0.00000000000E+00 0. -1.
         13   -1    0    0    0    0 -0.00000000000E+00 -0.00000000000E+00 -0.10000000000E+04  0.10000000000E+04  0.00000000000E+00 0.  1.
    9000005    2    1    2  501    0 -0.35982995257E+01 -0.30450010759E+02 -0.90892962839E+03  0.90945243711E+03  0.32426951317E+01 0.  0.
         13    1    3    3    0    0 -0.35836087112E+00 -0.47940076633E+01 -0.18022760601E+03  0.18029171057E+03  0.00000000000E+00 0.  1.
          1    1    3    3  501    0 -0.32399386546E+01 -0.25656003096E+02 -0.72870202238E+03  0.72916072654E+03  0.00000000000E+00 0.  1.
         -3    1    1    2    0  502  0.35982995257E+01  0.30450010759E+02 -0.88220701622E+02  0.93397232879E+02  0.00000000000E+00 0. -1.
<mgrwt>
<rscale>  1 0.30000000E+03</rscale>
<asrwt>0</asrwt>
<pdfrwt beam="1">  1       21 0.10362458E-01 0.30000000E+03</pdfrwt>
<pdfrwt beam="2">0</pdfrwt>
<totfact> 0.80723451E+03</totfact>
</mgrwt>
</event>
<event>
 6    1  0.1198667E-001  0.3000000E+03  0.7818608E-02  0.1093470E+00
         21   -1    0    0  501  502  0.00000000000E+00  0.00000000000E+00  0.22601984978E+01  0.22601984978E+01  0.00000000000E+00 0. -1.
         13   -1    0    0    0    0 -0.00000000000E+00 -0.00000000000E+00 -0.10000000000E+04  0.10000000000E+04  0.00000000000E+00 0.  1.
    9000005    2    1    2  501    0  0.41198731465E+02 -0.21917996114E+02 -0.44735130908E+03  0.44989688815E+03  0.10309326030E+02 0.  0.
         13    1    3    3    0    0  0.33547577942E+02 -0.20298799480E+02 -0.39838359290E+03  0.40030859138E+03  0.00000000000E+00 0.  1.
          1    1    3    3  501    0  0.76511535227E+01 -0.16191966341E+01 -0.48967716185E+02  0.49588296768E+02  0.00000000000E+00 0.  1.
         -3    1    1    2    0  502 -0.41198731465E+02  0.21917996114E+02 -0.55038849242E+03  0.55236331035E+03  0.00000000000E+00 0. -1.
<mgrwt>
<rscale>  1 0.30000000E+03</rscale>
<asrwt>0</asrwt>
<pdfrwt beam="1">  1       21 0.82189210E-02 0.30000000E+03</pdfrwt>
<pdfrwt beam="2">0</pdfrwt>
<totfact> 0.12181810E+04</totfact>
</mgrwt>
</event>
<event>
 6    1  0.1198667E-001  0.3000000E+03  0.7818608E-02  0.1093470E+00
         21   -1    0    0  501  502  0.00000000000E+00  0.00000000000E+00  0.33071506235E+01  0.33071506235E+01  0.00000000000E+00 0. -1.
         13   -1    0    0    0    0 -0.00000000000E+00 -0.00000000000E+00 -0.10000000000E+04  0.10000000000E+04  0.00000000000E+00 0.  1.
    9000005    2    1    2  501    0 -0.28907856066E+02  0.11570684116E+02 -0.91999046426E+03  0.92052550558E+03  0.38996440521E+01 0.  0.
         13    1    3    3    0    0 -0.27154423712E+02  0.97528991809E+01 -0.84281217164E+03  0.84330589849E+03  0.00000000000E+00 0.  1.
          3    1    3    3  501    0 -0.17534323537E+01  0.18177849352E+01 -0.77178292621E+02  0.77219607089E+02  0.00000000000E+00 0.  1.
         -1    1    1    2    0  502  0.28907856066E+02 -0.11570684116E+02 -0.76702385115E+02  0.82781645040E+02  0.00000000000E+00 0. -1.
<mgrwt>
<rscale>  1 0.30000000E+03</rscale>
<asrwt>0</asrwt>
<pdfrwt beam="1">  1       21 0.12026028E-01 0.30000000E+03</pdfrwt>
<pdfrwt beam="2">0</pdfrwt>
<totfact> 0.61727961E+03</totfact>
</mgrwt>
</event>
<event>
 6    1  0.1198667E-001  0.3000000E+03  0.7818608E-02  0.1093470E+00
         21   -1    0    0  501  502  0.00000000000E+00  0.00000000000E+00  0.39193806681E+01  0.39193806681E+01  0.00000000000E+00 0. -1.
         13   -1    0    0    0    0 -0.00000000000E+00 -0.00000000000E+00 -0.10000000000E+04  0.10000000000E+04  0.00000000000E+00 0.  1.
    9000005    2    1    2  501    0  0.23180046543E+02 -0.38755500475E+02 -0.84549166079E+03  0.84670507531E+03  0.37460264642E+01 0.  0.
         13    1    3    3    0    0  0.18973911835E+02 -0.30616344559E+02 -0.64646524340E+03  0.64746789945E+03  0.00000000000E+00 0.  1.
          1    1    3    3  501    0  0.42061347075E+01 -0.81391559156E+01 -0.19902641738E+03  0.19923717586E+03  0.00000000000E+00 0.  1.
         -3    1    1    2    0  502 -0.23180046543E+02  0.38755500475E+02 -0.15058895855E+03  0.15721430536E+03  0.00000000000E+00 0. -1.
<mgrwt>
<rscale>  1 0.30000000E+03</rscale>
<asrwt>0</asrwt>
<pdfrwt beam="1">  1       21 0.14252323E-01 0.30000000E+03</pdfrwt>
<pdfrwt beam="2">0</pdfrwt>
<totfact> 0.45255536E+03</totfact>
</mgrwt>
</event>
<event>
 6    1  0.1198667E-001  0.3000000E+03  0.7818608E-02  0.1093470E+00
         21   -1    0    0  501  502  0.00000000000E+00  0.00000000000E+00  0.10469924963E+01  0.10469924963E+01  0.00000000000E+00 0. -1.
         13   -1    0    0    0    0 -0.00000000000E+00 -0.00000000000E+00 -0.10000000000E+04  0.10000000000E+04  0.00000000000E+00 0.  1.
    9000005    2    1    2  501    0 -0.29832948329E+02 -0.94069616926E+01 -0.38844664009E+03  0.38973976991E+03  0.52726006362E+01 0.  0.
         13    1    3    3    0    0 -0.82437348229E+01 -0.48470793516E+01 -0.10415811076E+03  0.10459620155E+03  0.00000000000E+00 0.  1.
          3    1    3    3  501    0 -0.21589213506E+02 -0.45598823410E+01 -0.28428852933E+03  0.28514356836E+03  0.00000000000E+00 0.  1.
         -1    1    1    2    0  502  0.29832948329E+02  0.94069616926E+01 -0.61050636741E+03  0.61130722259E+03  0.00000000000E+00 0. -1.
<mgrwt>
<rscale>  1 0.30000000E+03</rscale>
<asrwt>0</asrwt>
<pdfrwt beam="1">  1       21 0.38072535E-02 0.30000000E+03</pdfrwt>
<pdfrwt beam="2">0</pdfrwt>
<totfact> 0.45689451E+04</totfact>
</mgrwt>
</event>
<event>
 6    1  0.1198667E-001  0.3000000E+03  0.7818608E-02  0.1093470E+00
         21   -1    0    0  501  502  0.00000000000E+00  0.00000000000E+00  0.16704801495E+01  0.16704801495E+01  0.00000000000E+00 0. -1.
         13   -1    0    0    0    0 -0.00000000000E+00 -0.00000000000E+00 -0.10000000000E+04  0.10000000000E+04  0.00000000000E+00 0.  1.
    9000005    2    1    2  501    0 -0.38377721683E+02 -0.13566737758E+02 -0.47109214592E+03  0.47286413151E+03  0.39712748337E+01 0.  0.
         13    1    3    3    0    0 -0.28134966809E+02 -0.85152469688E+01 -0.32538707140E+03  0.32671215469E+03  0.00000000000E+00 0.  1.
          1    1    3    3  501    0 -0.10242754874E+02 -0.50514907896E+01 -0.14570507452E+03  0.14615197682E+03  0.00000000000E+00 0.  1.
         -3    1    1    2    0  502  0.38377721683E+02  0.13566737758E+02 -0.52723737393E+03  0.52880634864E+03  0.00000000000E+00 0. -1.
<mgrwt>
<rscale>  1 0.30000000E+03</rscale>
<asrwt>0</asrwt>
<pdfrwt beam="1">  1       21 0.60744861E-02 0.30000000E+03</pdfrwt>
<pdfrwt beam="2">0</pdfrwt>
<totfact> 0.20627919E+04</totfact>
</mgrwt>
</event>
<event>
 6    1  0.1198667E-001  0.3000000E+03  0.7818608E-02  0.1093470E+00
         21   -1    0    0  501  502  0.00000000000E+00  0.00000000000E+00  0.15580975308E+01  0.15580975308E+01  0.00000000000E+00 0. -1.
         13   -1    0    0    0    0 -0.00000000000E+00 -0.00000000000E+00 -0.10000000000E+04  0.10000000000E+04  0.00000000000E+00 0.  1.
    9000005    2    1    2  501    0  0.34952137493E+02 -0.14145484475E+02 -0.64500035384E+03  0.64611094964E+03  0.34865662814E+01 0.  0.
         13    1    3    3    0    0  0.51478122535E+01 -0.34578529133E+01 -0.10863721576E+03  0.10881406787E+03  0.00000000000E+00 0.  1.
          1    1    3    3  501    0  0.29804325239E+02 -0.10687631562E+02 -0.53636313808E+03  0.53729688177E+03  0.00000000000E+00 0.  1.
         -1    1    1    2    0  502 -0.34952137493E+02  0.14145484475E+02 -0.35344154863E+03  0.35544714789E+03  0.00000000000E+00 0. -1.
<mgrwt>
<rscale>  1 0.30000000E+03</rscale>
<asrwt>0</asrwt>
<pdfrwt beam="1">  1       21 0.56658212E-02 0.30000000E+03</pdfrwt>
<pdfrwt beam="2">0</pdfrwt>
<totfact> 0.23257486E+04</totfact>
</mgrwt>
</event>
<event>
 6    1  0.1198667E-001  0.3000000E+03  0.7818608E-02  0.1093470E+00
         21   -1    0    0  501  502  0.00000000000E+00  0.00000000000E+00  0.19991835557E+01  0.19991835557E+01  0.00000000000E+00 0. -1.
         13   -1    0    0    0    0 -0.00000000000E+00 -0.00000000000E+00 -0.10000000000E+04  0.10000000000E+04  0.00000000000E+00 0.  1.
    9000005    2    1    2  501    0  0.20736061416E+02  0.25473269225E+02 -0.83868087483E+03  0.83932861005E+03  0.28344591076E+01 0.  0.
         13    1    3    3    0    0  0.17830562427E+02  0.22804149919E+02 -0.75511298237E+03  0.75566763485E+03  0.00000000000E+00 0.  1.
          3    1    3    3  501    0  0.29054989891E+01  0.26691193058E+01 -0.83567892453E+02  0.83660975199E+02  0.00000000000E+00 0.  1.
         -1    1    1    2    0  502 -0.20736061416E+02 -0.25473269225E+02 -0.15931994162E+03  0.16267057351E+03  0.00000000000E+00 0. -1.
<mgrwt>
<rscale>  1 0.30000000E+03</rscale>
<asrwt>0</asrwt>
<pdfrwt beam="1">  1       21 0.72697737E-02 0.30000000E+03</pdfrwt>
<pdfrwt beam="2">0</pdfrwt>
<totfact> 0.15105998E+04</totfact>
</mgrwt>
</event>
<event>
 6    1  0.1198667E-001  0.3000000E+03  0.7818608E-02  0.1093470E+00
         21   -1    0    0  501  502  0.00000000000E+00  0.00000000000E+00  0.17106890873E+01  0.17106890873E+01  0.00000000000E+00 0. -1.
         13   -1    0    0    0    0 -0.00000000000E+00 -0.00000000000E+00 -0.10000000000E+04  0.10000000000E+04  0.00000000000E+00 0.  1.
    9000005    2    1    2  501    0  0.39705458515E+02  0.38434521781E+01 -0.37208116142E+03  0.37423324562E+03  0.38517383294E+01 0.  0.
         13    1    3    3    0    0  0.24519584862E+02  0.41736650339E+01 -0.23591392767E+03  0.23722143830E+03  0.00000000000E+00 0.  1.
          3    1    3    3  501    0  0.15185873654E+02 -0.33021285580E+00 -0.13616723375E+03  0.13701180732E+03  0.00000000000E+00 0.  1.
         -3    1    1    2    0  502 -0.39705458515E+02 -0.38434521781E+01 -0.62620814950E+03  0.62747744346E+03  0.00000000000E+00 0. -1.
<mgrwt>
<rscale>  1 0.30000000E+03</rscale>
<asrwt>0</asrwt>
<pdfrwt beam="1">  1       21 0.62207007E-02 0.30000000E+03</pdfrwt>
<pdfrwt beam="2">0</pdfrwt>
<totfact> 0.19798029E+04</totfact>
</mgrwt>
</event>
<event>
 6    1  0.1198667E-001  0.3000000E+03  0.7818608E-02  0.1093470E+00
         21   -1    0    0  501  502  0.00000000000E+00  0.00000000000E+00  0.17256309892E+01  0.17256309892E+01  0.00000000000E+00 0. -1.
         13   -1    0    0    0    0 -0.00000000000E+00 -0.00000000000E+00 -0.10000000000E+04  0.10000000000E+04  0.00000000000E+00 0.  1.
    9000005    2    1    2  501    0 -0.34064974986E+02 -0.18491029915E+01 -0.78430266458E+03  0.78505137779E+03  0.33398202295E+01 0.  0.
         13    1    3    3    0    0 -0.26903372768E+02 -0.28214084153E+01 -0.61899780761E+03  0.61958860354E+03  0.00000000000E+00 0.  1.
          3    1    3    3  501    0 -0.71616022177E+01  0.97230542384E+00 -0.16530485697E+03  0.16546277424E+03  0.00000000000E+00 0.  1.
         -3    1    1    2    0  502  0.34064974986E+02  0.18491029915E+01 -0.21397170443E+03  0.21667425320E+03  0.00000000000E+00 0. -1.
<mgrwt>
<rscale>  1 0.30000000E+03</rscale>
<asrwt>0</asrwt>
<pdfrwt beam="1">  1       21 0.62750350E-02 0.30000000E+03</pdfrwt>
<pdfrwt beam="2">0</pdfrwt>
<totfact> 0.19502785E+04</totfact>
</mgrwt>
</event>
<event>
 6    1  0.1198667E-001  0.3000000E+03  0.7818608E-02  0.1093470E+00
         21   -1    0    0  501  502  0.00000000000E+00  0.00000000000E+00  0.21015543538E+01  0.21015543538E+01  0.00000000000E+00 0. -1.
         13   -1    0    0    0    0 -0.00000000000E+00 -0.00000000000E+00 -0.10000000000E+04  0.10000000000E+04  0.00000000000E+00 0.  1.
    9000005    2    1    2  501    0 -0.35539103889E+02 -0.11268632888E+02 -0.79008285423E+03  0.79096811307E+03  0.31031200030E+01 0.  0.
         13    1    3    3    0    0 -0.34425140576E+02 -0.10365384835E+02 -0.76493672880E+03  0.76578112445E+03  0.00000000000E+00 0.  1.
          3    1    3    3  501    0 -0.11139633133E+01 -0.90324805302E+00 -0.25146125432E+02  0.25186988616E+02  0.00000000000E+00 0.  1.
         -3    1    1    2    0  502  0.35539103889E+02  0.11268632888E+02 -0.20781559142E+03  0.21113344128E+03  0.00000000000E+00 0. -1.
<mgrwt>
<rscale>  1 0.30000000E+03</rscale>
<asrwt>0</asrwt>
<pdfrwt beam="1">  1       21 0.76420319E-02 0.30000000E+03</pdfrwt>
<pdfrwt beam="2">0</pdfrwt>
<totfact> 0.13842048E+04</totfact>
</mgrwt>
</event>
<event>
 6    1  0.1198667E-001  0.3000000E+03  0.7818608E-02  0.1093470E+00
         21   -1    0    0  501  502  0.00000000000E+00  0.00000000000E+00  0.12763783255E+01  0.12763783255E+01  0.00000000000E+00 0. -1.
         13   -1    0    0    0    0 -0.00000000000E+00 -0.00000000000E+00 -0.10000000000E+04  0.10000000000E+04  0.00000000000E+00 0.  1.
    9000005    2    1    2  501    0  0.95221736134E+01 -0.33708357507E+02 -0.58524208406E+03  0.58631384133E+03  0.53570917360E+01 0.  0.
         13    1    3    3    0    0  0.66389030730E+00 -0.11578013176E+02 -0.19277148533E+03  0.19312000594E+03  0.00000000000E+00 0.  1.
          1    1    3    3  501    0  0.88582833061E+01 -0.22130344331E+02 -0.39247059873E+03  0.39319383539E+03  0.00000000000E+00 0.  1.
         -1    1    1    2    0  502 -0.95221736134E+01  0.33708357507E+02 -0.41348153762E+03  0.41496253699E+03  0.00000000000E+00 0. -1.
<mgrwt>
<rscale>  1 0.30000000E+03</rscale>
<asrwt>0</asrwt>
<pdfrwt beam="1">  1       21 0.46413855E-02 0.30000000E+03</pdfrwt>
<pdfrwt beam="2">0</pdfrwt>
<totfact> 0.32694395E+04</totfact>
</mgrwt>
</event>
<event>
 6    1  0.1198667E-001  0.3000000E+03  0.7818608E-02  0.1093470E+00
         21   -1    0    0  501  502  0.00000000000E+00  0.00000000000E+00  0.41432386433E+01  0.41432386433E+01  0.00000000000E+00 0. -1.
         13   -1    0    0    0    0 -0.00000000000E+00 -0.00000000000E+00 -0.10000000000E+04  0.10000000000E+04  0.00000000000E+00 0.  1.
    9000005    2    1    2  501    0  0.29389600675E+02  0.18963807041E+02 -0.91935322625E+03  0.92002329161E+03  0.30212381498E+01 0.  0.
         13    1    3    3    0    0  0.26999572936E+02  0.18043307353E+02 -0.86596903333E+03  0.86657769678E+03  0.00000000000E+00 0.  1.
          1    1    3    3  501    0  0.23900277390E+01  0.92049968786E+00 -0.53384192924E+02  0.53445594827E+02  0.00000000000E+00 0.  1.
         -1    1    1    2    0  502 -0.29389600675E+02 -0.18963807041E+02 -0.76503535107E+02  0.84119947036E+02  0.00000000000E+00 0. -1.
<mgrwt>
<rscale>  1 0.30000000E+03</rscale>
<asrwt>0</asrwt>
<pdfrwt beam="1">  1       21 0.15066354E-01 0.30000000E+03</pdfrwt>
<pdfrwt beam="2">0</pdfrwt>
<totfact> 0.40845217E+03</totfact>
</mgrwt>
</event>
<event>
 6    1  0.1198667E-001  0.3000000E+03  0.7818608E-02  0.1093470E+00
         21   -1    0    0  501  502  0.00000000000E+00  0.00000000000E+00  0.12336480147E+01  0.12336480147E+01  0.00000000000E+00 0. -1.
         13   -1    0    0    0    0 -0.00000000000E+00 -0.00000000000E+00 -0.10000000000E+04  0.10000000000E+04  0.00000000000E+00 0.  1.
    9000005    2    1    2  501    0  0.32897782936E+02  0.10314405104E+02 -0.58992715858E+03  0.59094333965E+03  0.33655861682E+01 0.  0.
         13    1    3    3    0    0  0.64128584597E+01  0.11839051929E+01 -0.94484671807E+02  0.94709448270E+02  0.00000000000E+00 0.  1.
          1    1    3    3  501    0  0.26484924476E+02  0.91304999115E+01 -0.49544248677E+03  0.49623389138E+03  0.00000000000E+00 0.  1.
         -1    1    1    2    0  502 -0.32897782936E+02 -0.10314405104E+02 -0.40883919340E+03  0.41029030836E+03  0.00000000000E+00 0. -1.
<mgrwt>
<rscale>  1 0.30000000E+03</rscale>
<asrwt>0</asrwt>
<pdfrwt beam="1">  1       21 0.44860022E-02 0.30000000E+03</pdfrwt>
<pdfrwt beam="2">0</pdfrwt>
<totfact> 0.34640816E+04</totfact>
</mgrwt>
</event>
<event>
 6    1  0.1198667E-001  0.3000000E+03  0.7818608E-02  0.1093470E+00
         21   -1    0    0  501  502  0.00000000000E+00  0.00000000000E+00  0.26115863483E+01  0.26115863483E+01  0.00000000000E+00 0. -1.
         13   -1    0    0    0    0 -0.00000000000E+00 -0.00000000000E+00 -0.10000000000E+04  0.10000000000E+04  0.00000000000E+00 0.  1.
    9000005    2    1    2  501    0  0.50114817221E+02  0.54202234159E+01 -0.57710215482E+03  0.57931333087E+03  0.40205099964E+01 0.  0.
         13    1    3    3    0    0  0.30246968463E+01  0.11508454095E+01 -0.43618560904E+02  0.43738450950E+02  0.00000000000E+00 0.  1.
          1    1    3    3  501    0  0.47090120375E+02  0.42693780065E+01 -0.53348359391E+03  0.53557487992E+03  0.00000000000E+00 0.  1.
         -1    1    1    2    0  502 -0.50114817221E+02 -0.54202234159E+01 -0.42028625884E+03  0.42329825548E+03  0.00000000000E+00 0. -1.
<mgrwt>
<rscale>  1 0.30000000E+03</rscale>
<asrwt>0</asrwt>
<pdfrwt beam="1">  1       21 0.94966977E-02 0.30000000E+03</pdfrwt>
<pdfrwt beam="2">0</pdfrwt>
<totfact> 0.94335645E+03</totfact>
</mgrwt>
</event>
<event>
 6    1  0.1198667E-001  0.3000000E+03  0.7818608E-02  0.1093470E+00
         21   -1    0    0  501  502  0.00000000000E+00  0.00000000000E+00  0.62163970948E+01  0.62163970948E+01  0.00000000000E+00 0. -1.
         13   -1    0    0    0    0 -0.00000000000E+00 -0.00000000000E+00 -0.10000000000E+04  0.10000000000E+04  0.00000000000E+00 0.  1.
    9000005    2    1    2  501    0 -0.62410749895E+02  0.37811987208E+02 -0.68627318818E+03  0.69016655412E+03  0.58425622942E+01 0.  0.
         13    1    3    3    0    0 -0.20624831522E+02  0.15676483637E+02 -0.24890303584E+03  0.25024759152E+03  0.00000000000E+00 0.  1.
          3    1    3    3  501    0 -0.41785918373E+02  0.22135503571E+02 -0.43737015234E+03  0.43991896260E+03  0.00000000000E+00 0.  1.
         -1    1    1    2    0  502  0.62410749895E+02 -0.37811987208E+02 -0.30751041473E+03  0.31604984298E+03  0.00000000000E+00 0. -1.
<mgrwt>
<rscale>  1 0.30000000E+03</rscale>
<asrwt>0</asrwt>
<pdfrwt beam="1">  1       21 0.22605128E-01 0.30000000E+03</pdfrwt>
<pdfrwt beam="2">0</pdfrwt>
<totfact> 0.18967167E+03</totfact>
</mgrwt>
</event>
<event>
 6    1  0.1198667E-001  0.3000000E+03  0.7818608E-02  0.1093470E+00
         21   -1    0    0  501  502  0.00000000000E+00  0.00000000000E+00  0.14298347215E+01  0.14298347215E+01  0.00000000000E+00 0. -1.
         13   -1    0    0    0    0 -0.00000000000E+00 -0.00000000000E+00 -0.10000000000E+04  0.10000000000E+04  0.00000000000E+00 0.  1.
    9000005    2    1    2  501    0 -0.29299280452E+02 -0.11699277637E+02 -0.77404663411E+03  0.77470061962E+03  0.41877595642E+01 0.  0.
         13    1    3    3    0    0 -0.53676226459E+01 -0.28286151884E+01 -0.18938679334E+03  0.18948395692E+03  0.00000000000E+00 0.  1.
          1    1    3    3  501    0 -0.23931657806E+02 -0.88706624483E+01 -0.58465984076E+03  0.58521666270E+03  0.00000000000E+00 0.  1.
         -1    1    1    2    0  502  0.29299280452E+02  0.11699277637E+02 -0.22452353117E+03  0.22672921511E+03  0.00000000000E+00 0. -1.
<mgrwt>
<rscale>  1 0.30000000E+03</rscale>
<asrwt>0</asrwt>
<pdfrwt beam="1">  1       21 0.51994100E-02 0.30000000E+03</pdfrwt>
<pdfrwt beam="2">0</pdfrwt>
<totfact> 0.26945106E+04</totfact>
</mgrwt>
</event>
<event>
 6    1  0.1198667E-001  0.3000000E+03  0.7818608E-02  0.1093470E+00
         21   -1    0    0  501  502  0.00000000000E+00  0.00000000000E+00  0.14103828819E+01  0.14103828819E+01  0.00000000000E+00 0. -1.
         13   -1    0    0    0    0 -0.00000000000E+00 -0.00000000000E+00 -0.10000000000E+04  0.10000000000E+04  0.00000000000E+00 0.  1.
    9000005    2    1    2  501    0 -0.30877884223E+02  0.15048543317E+02 -0.29997157937E+03  0.30194840032E+03  0.31600051684E+01 0.  0.
         13    1    3    3    0    0 -0.28675799905E+01  0.24079769827E+01 -0.29531710414E+02  0.29768158965E+02  0.00000000000E+00 0.  1.
          3    1    3    3  501    0 -0.28010304233E+02  0.12640566334E+02 -0.27043986896E+03  0.27218024135E+03  0.00000000000E+00 0.  1.
         -1    1    1    2    0  502  0.30877884223E+02 -0.15048543317E+02 -0.69861803775E+03  0.69946198257E+03  0.00000000000E+00 0. -1.
<mgrwt>
<rscale>  1 0.30000000E+03</rscale>
<asrwt>0</asrwt>
<pdfrwt beam="1">  1       21 0.51286758E-02 0.30000000E+03</pdfrwt>
<pdfrwt beam="2">0</pdfrwt>
<totfact> 0.27582802E+04</totfact>
</mgrwt>
</event>
<event>
 6    1  0.1198667E-001  0.3000000E+03  0.7818608E-02  0.1093470E+00
         21   -1    0    0  501  502  0.00000000000E+00  0.00000000000E+00  0.25447370052E+01  0.25447370052E+01  0.00000000000E+00 0. -1.
         13   -1    0    0    0    0 -0.00000000000E+00 -0.00000000000E+00 -0.10000000000E+04  0.10000000000E+04  0.00000000000E+00 0.  1.
    9000005    2    1    2  501    0 -0.27796105137E+02 -0.40325463885E+02 -0.61580481696E+03  0.61776450173E+03  0.43174657776E+01 0.  0.
         13    1    3    3    0    0 -0.17016427949E+02 -0.24939289310E+02 -0.40537175396E+03  0.40649450905E+03  0.00000000000E+00 0.  1.
          3    1    3    3  501    0 -0.10779677189E+02 -0.15386174575E+02 -0.21043306299E+03  0.21126999269E+03  0.00000000000E+00 0.  1.
         -3    1    1    2    0  502  0.27796105137E+02  0.40325463885E+02 -0.38165044604E+03  0.38478023527E+03  0.00000000000E+00 0. -1.
<mgrwt>
<rscale>  1 0.30000000E+03</rscale>
<asrwt>0</asrwt>
<pdfrwt beam="1">  1       21 0.92536086E-02 0.30000000E+03</pdfrwt>
<pdfrwt beam="2">0</pdfrwt>
<totfact> 0.98788828E+03</totfact>
</mgrwt>
</event>
<event>
 6    1  0.1198667E-001  0.3000000E+03  0.7818608E-02  0.1093470E+00
         21   -1    0    0  501  502  0.00000000000E+00  0.00000000000E+00  0.36312745330E+01  0.36312745330E+01  0.00000000000E+00 0. -1.
         13   -1    0    0    0    0 -0.00000000000E+00 -0.00000000000E+00 -0.10000000000E+04  0.10000000000E+04  0.00000000000E+00 0.  1.
    9000005    2    1    2  501    0  0.34259159769E+02  0.10404506443E+02 -0.90171909278E+03  0.90243593496E+03  0.33690727285E+01 0.  0.
         13    1    3    3    0    0  0.47684731829E+01  0.52163373274E+00 -0.13982930242E+03  0.13991155869E+03  0.00000000000E+00 0.  1.
          3    1    3    3  501    0  0.29490686586E+02  0.98828727106E+01 -0.76188979036E+03  0.76252437628E+03  0.00000000000E+00 0.  1.
         -1    1    1    2    0  502 -0.34259159769E+02 -0.10404506443E+02 -0.94649632688E+02  0.10119533957E+03  0.00000000000E+00 0. -1.
<mgrwt>
<rscale>  1 0.30000000E+03</rscale>
<asrwt>0</asrwt>
<pdfrwt beam="1">  1       21 0.13204663E-01 0.30000000E+03</pdfrwt>
<pdfrwt beam="2">0</pdfrwt>
<totfact> 0.52058006E+03</totfact>
</mgrwt>
</event>
<event>
 6    1  0.1198667E-001  0.3000000E+03  0.7818608E-02  0.1093470E+00
         21   -1    0    0  501  502  0.00000000000E+00  0.00000000000E+00  0.21957182600E+01  0.21957182600E+01  0.00000000000E+00 0. -1.
         13   -1    0    0    0    0 -0.00000000000E+00 -0.00000000000E+00 -0.10000000000E+04  0.10000000000E+04  0.00000000000E+00 0.  1.
    9000005    2    1    2  501    0  0.31526186828E+02  0.12480267565E+02 -0.84452970571E+03  0.84521561382E+03  0.30581817088E+01 0.  0.
         13    1    3    3    0    0  0.13619728974E+02  0.40099273900E+01 -0.33313826027E+03  0.33344066487E+03  0.00000000000E+00 0.  1.
          1    1    3    3  501    0  0.17906457854E+02  0.84703401749E+01 -0.51139144545E+03  0.51177494895E+03  0.00000000000E+00 0.  1.
         -3    1    1    2    0  502 -0.31526186828E+02 -0.12480267565E+02 -0.15327457603E+03  0.15698010444E+03  0.00000000000E+00 0. -1.
<mgrwt>
<rscale>  1 0.30000000E+03</rscale>
<asrwt>0</asrwt>
<pdfrwt beam="1">  1       21 0.79844469E-02 0.30000000E+03</pdfrwt>
<pdfrwt beam="2">0</pdfrwt>
<totfact> 0.12817604E+04</totfact>
</mgrwt>
</event>
<event>
 6    1  0.1198667E-001  0.3000000E+03  0.7818608E-02  0.1093470E+00
         21   -1    0    0  501  502  0.00000000000E+00  0.00000000000E+00  0.13189550687E+01  0.13189550687E+01  0.00000000000E+00 0. -1.
         13   -1    0    0    0    0 -0.00000000000E+00 -0.00000000000E+00 -0.10000000000E+04  0.10000000000E+04  0.00000000000E+00 0.  1.
    9000005    2    1    2  501    0 -0.24745255114E+02 -0.17393539454E+02 -0.77570119991E+03  0.77629701358E+03  0.31367000063E+01 0.  0.
         13    1    3    3    0    0 -0.13285671205E+02 -0.10627342128E+02 -0.40573878400E+03  0.40609532169E+03  0.00000000000E+00 0.  1.
          1    1    3    3  501    0 -0.11459583909E+02 -0.67661973262E+01 -0.36996241591E+03  0.37020169189E+03  0.00000000000E+00 0.  1.
         -3    1    1    2    0  502  0.24745255114E+02  0.17393539454E+02 -0.22297984502E+03  0.22502194149E+03  0.00000000000E+00 0. -1.
<mgrwt>
<rscale>  1 0.30000000E+03</rscale>
<asrwt>0</asrwt>
<pdfrwt beam="1">  1       21 0.47962104E-02 0.30000000E+03</pdfrwt>
<pdfrwt beam="2">0</pdfrwt>
<totfact> 0.30920069E+04</totfact>
</mgrwt>
</event>
<event>
 6    1  0.1198667E-001  0.3000000E+03  0.7818608E-02  0.1093470E+00
         21   -1    0    0  501  502  0.00000000000E+00  0.00000000000E+00  0.13399825738E+01  0.13399825738E+01  0.00000000000E+00 0. -1.
         13   -1    0    0    0    0 -0.00000000000E+00 -0.00000000000E+00 -0.10000000000E+04  0.10000000000E+04  0.00000000000E+00 0.  1.
    9000005    2    1    2  501    0 -0.86844706744E+01  0.35452968373E+02 -0.47893891945E+03  0.48033868442E+03  0.32295801754E+01 0.  0.
         13    1    3    3    0    0 -0.72027297916E+01  0.23223052124E+02 -0.32313640695E+03  0.32404988345E+03  0.00000000000E+00 0.  1.
          1    1    3    3  501    0 -0.14817408827E+01  0.12229916250E+02 -0.15580251250E+03  0.15628880097E+03  0.00000000000E+00 0.  1.
         -3    1    1    2    0  502  0.86844706744E+01 -0.35452968373E+02 -0.51972109797E+03  0.52100129815E+03  0.00000000000E+00 0. -1.
<mgrwt>
<rscale>  1 0.30000000E+03</rscale>
<asrwt>0</asrwt>
<pdfrwt beam="1">  1       21 0.48726742E-02 0.30000000E+03</pdfrwt>
<pdfrwt beam="2">0</pdfrwt>
<totfact> 0.30098746E+04</totfact>
</mgrwt>
</event>
<event>
 6    1  0.1198667E-001  0.3000000E+03  0.7818608E-02  0.1093470E+00
         21   -1    0    0  501  502  0.00000000000E+00  0.00000000000E+00  0.48123888578E+01  0.48123888578E+01  0.00000000000E+00 0. -1.
         13   -1    0    0    0    0 -0.00000000000E+00 -0.00000000000E+00 -0.10000000000E+04  0.10000000000E+04  0.00000000000E+00 0.  1.
    9000005    2    1    2  501    0  0.29244410862E+02 -0.32498892043E+02 -0.88758985516E+03  0.88867156639E+03  0.31604397858E+01 0.  0.
         13    1    3    3    0    0  0.11724757307E+02 -0.11483493604E+02 -0.35596167814E+03  0.35633980533E+03  0.00000000000E+00 0.  1.
          3    1    3    3  501    0  0.17519653556E+02 -0.21015398440E+02 -0.53162817702E+03  0.53233176106E+03  0.00000000000E+00 0.  1.
         -3    1    1    2    0  502 -0.29244410862E+02  0.32498892043E+02 -0.10759775598E+03  0.11614082247E+03  0.00000000000E+00 0. -1.
<mgrwt>
<rscale>  1 0.30000000E+03</rscale>
<asrwt>0</asrwt>
<pdfrwt beam="1">  1       21 0.17499633E-01 0.30000000E+03</pdfrwt>
<pdfrwt beam="2">0</pdfrwt>
<totfact> 0.30890663E+03</totfact>
</mgrwt>
</event>
<event>
 6    1  0.1198667E-001  0.3000000E+03  0.7818608E-02  0.1093470E+00
         21   -1    0    0  501  502  0.00000000000E+00  0.00000000000E+00  0.29944804068E+01  0.29944804068E+01  0.00000000000E+00 0. -1.
         13   -1    0    0    0    0 -0.00000000000E+00 -0.00000000000E+00 -0.10000000000E+04  0.10000000000E+04  0.00000000000E+00 0.  1.
    9000005    2    1    2  501    0  0.31798243949E+02 -0.13158207733E+02 -0.88762167688E+03  0.88832499102E+03  0.80487054346E+01 0.  0.
         13    1    3    3    0    0  0.31347388403E+02 -0.13754189083E+02 -0.88028577674E+03  0.88095112533E+03  0.00000000000E+00 0.  1.
          1    1    3    3  501    0  0.45085554604E+00  0.59598135012E+00 -0.73359001340E+01  0.73738656937E+01  0.00000000000E+00 0.  1.
         -3    1    1    2    0  502 -0.31798243949E+02  0.13158207733E+02 -0.10938384272E+03  0.11466948939E+03  0.00000000000E+00 0. -1.
<mgrwt>
<rscale>  1 0.30000000E+03</rscale>
<asrwt>0</asrwt>
<pdfrwt beam="1">  1       21 0.10889043E-01 0.30000000E+03</pdfrwt>
<pdfrwt beam="2">0</pdfrwt>
<totfact> 0.73854560E+03</totfact>
</mgrwt>
</event>
<event>
 6    1  0.1198667E-001  0.3000000E+03  0.7818608E-02  0.1093470E+00
         21   -1    0    0  501  502  0.00000000000E+00  0.00000000000E+00  0.96366732627E+00  0.96366732627E+00  0.00000000000E+00 0. -1.
         13   -1    0    0    0    0 -0.00000000000E+00 -0.00000000000E+00 -0.10000000000E+04  0.10000000000E+04  0.00000000000E+00 0.  1.
    9000005    2    1    2  501    0  0.28976023673E+02  0.97880622680E+01 -0.57451324566E+03  0.57534028038E+03  0.39436878847E+01 0.  0.
         13    1    3    3    0    0  0.17910797873E+02  0.56560802673E+01 -0.31652820122E+03  0.31708498876E+03  0.00000000000E+00 0.  1.
          1    1    3    3  501    0  0.11065225800E+02  0.41319820007E+01 -0.25798504444E+03  0.25825529162E+03  0.00000000000E+00 0.  1.
         -1    1    1    2    0  502 -0.28976023673E+02 -0.97880622680E+01 -0.42452308701E+03  0.42562338695E+03  0.00000000000E+00 0. -1.
<mgrwt>
<rscale>  1 0.30000000E+03</rscale>
<asrwt>0</asrwt>
<pdfrwt beam="1">  1       21 0.35042522E-02 0.30000000E+03</pdfrwt>
<pdfrwt beam="2">0</pdfrwt>
<totfact> 0.52509936E+04</totfact>
</mgrwt>
</event>
<event>
 6    1  0.1198667E-001  0.3000000E+03  0.7818608E-02  0.1093470E+00
         21   -1    0    0  501  502  0.00000000000E+00  0.00000000000E+00  0.15987802872E+01  0.15987802872E+01  0.00000000000E+00 0. -1.
         13   -1    0    0    0    0 -0.00000000000E+00 -0.00000000000E+00 -0.10000000000E+04  0.10000000000E+04  0.00000000000E+00 0.  1.
    9000005    2    1    2  501    0  0.16520073367E+02  0.36224606135E+02 -0.52571971850E+03  0.52724349519E+03  0.43983955672E+01 0.  0.
         13    1    3    3    0    0  0.22288502745E+01  0.45462627797E+01 -0.88535708486E+02  0.88680369620E+02  0.00000000000E+00 0.  1.
          3    1    3    3  501    0  0.14291223092E+02  0.31678343355E+02 -0.43718401002E+03  0.43856312557E+03  0.00000000000E+00 0.  1.
         -3    1    1    2    0  502 -0.16520073367E+02 -0.36224606135E+02 -0.47268150121E+03  0.47435528510E+03  0.00000000000E+00 0. -1.
<mgrwt>
<rscale>  1 0.30000000E+03</rscale>
<asrwt>0</asrwt>
<pdfrwt beam="1">  1       21 0.58137588E-02 0.30000000E+03</pdfrwt>
<pdfrwt beam="2">0</pdfrwt>
<totfact> 0.22248593E+04</totfact>
</mgrwt>
</event>
<event>
 6    1  0.1198667E-001  0.3000000E+03  0.7818608E-02  0.1093470E+00
         21   -1    0    0  501  502  0.00000000000E+00  0.00000000000E+00  0.12514601656E+02  0.12514601656E+02  0.00000000000E+00 0. -1.
         13   -1    0    0    0    0 -0.00000000000E+00 -0.00000000000E+00 -0.10000000000E+04  0.10000000000E+04  0.00000000000E+00 0.  1.
    9000005    2    1    2  501    0 -0.51805868121E+02 -0.18734798156E+02 -0.93433547394E+03  0.93596556445E+03  0.37308618302E+01 0.  0.
         13    1    3    3    0    0 -0.12183523325E+02 -0.58946444673E+01 -0.21612188095E+03  0.21654526663E+03  0.00000000000E+00 0.  1.
          3    1    3    3  501    0 -0.39622344796E+02 -0.12840153688E+02 -0.71821359299E+03  0.71942029782E+03  0.00000000000E+00 0.  1.
         -1    1    1    2    0  502  0.51805868121E+02  0.18734798156E+02 -0.53149924401E+02  0.76549037208E+02  0.00000000000E+00 0. -1.
<mgrwt>
<rscale>  1 0.30000000E+03</rscale>
<asrwt>0</asrwt>
<pdfrwt beam="1">  1       21 0.45507738E-01 0.30000000E+03</pdfrwt>
<pdfrwt beam="2">0</pdfrwt>
<totfact> 0.45996698E+02</totfact>
</mgrwt>
</event>
<event>
 6    1  0.1198667E-001  0.3000000E+03  0.7818608E-02  0.1093470E+00
         21   -1    0    0  501  502  0.00000000000E+00  0.00000000000E+00  0.52467952322E+01  0.52467952322E+01  0.00000000000E+00 0. -1.
         13   -1    0    0    0    0 -0.00000000000E+00 -0.00000000000E+00 -0.10000000000E+04  0.10000000000E+04  0.00000000000E+00 0.  1.
    9000005    2    1    2  501    0 -0.20451939914E+02 -0.31328430732E+02 -0.92771926781E+03  0.92847895612E+03  0.32217491539E+01 0.  0.
         13    1    3    3    0    0 -0.88190495730E+01 -0.10767216253E+02 -0.35430710887E+03  0.35458036604E+03  0.00000000000E+00 0.  1.
          1    1    3    3  501    0 -0.11632890341E+02 -0.20561214479E+02 -0.57341215894E+03  0.57389859008E+03  0.00000000000E+00 0.  1.
         -1    1    1    2    0  502  0.20451939914E+02  0.31328430732E+02 -0.67033936956E+02  0.76767839114E+02  0.00000000000E+00 0. -1.
<mgrwt>
<rscale>  1 0.30000000E+03</rscale>
<asrwt>0</asrwt>
<pdfrwt beam="1">  1       21 0.19079296E-01 0.30000000E+03</pdfrwt>
<pdfrwt beam="2">0</pdfrwt>
<totfact> 0.26242854E+03</totfact>
</mgrwt>
</event>
<event>
 6    1  0.1198667E-001  0.3000000E+03  0.7818608E-02  0.1093470E+00
         21   -1    0    0  501  502  0.00000000000E+00  0.00000000000E+00  0.11563906966E+01  0.11563906966E+01  0.00000000000E+00 0. -1.
         13   -1    0    0    0    0 -0.00000000000E+00 -0.00000000000E+00 -0.10000000000E+04  0.10000000000E+04  0.00000000000E+00 0.  1.
    9000005    2    1    2  501    0 -0.30306612995E+02 -0.43090388781E+01 -0.71506030861E+03  0.71572685411E+03  0.40775149491E+01 0.  0.
         13    1    3    3    0    0 -0.24714093038E+02 -0.19628860459E+01 -0.56268248143E+03  0.56322838549E+03  0.00000000000E+00 0.  1.
          1    1    3    3  501    0 -0.55925199567E+01 -0.23461528322E+01 -0.15237782719E+03  0.15249846862E+03  0.00000000000E+00 0.  1.
         -3    1    1    2    0  502  0.30306612995E+02  0.43090388781E+01 -0.28378330069E+03  0.28542953659E+03  0.00000000000E+00 0. -1.
<mgrwt>
<rscale>  1 0.30000000E+03</rscale>
<asrwt>0</asrwt>
<pdfrwt beam="1">  1       21 0.42050659E-02 0.30000000E+03</pdfrwt>
<pdfrwt beam="2">0</pdfrwt>
<totfact> 0.38647705E+04</totfact>
</mgrwt>
</event>
<event>
 6    1  0.1198667E-001  0.3000000E+03  0.7818608E-02  0.1093470E+00
         21   -1    0    0  501  502  0.00000000000E+00  0.00000000000E+00  0.13737895803E+01  0.13737895803E+01  0.00000000000E+00 0. -1.
         13   -1    0    0    0    0 -0.00000000000E+00 -0.00000000000E+00 -0.10000000000E+04  0.10000000000E+04  0.00000000000E+00 0.  1.
    9000005    2    1    2  501    0 -0.45593634598E+01 -0.33712503091E+02 -0.69628806667E+03  0.69712771512E+03  0.35579121017E+01 0.  0.
         13    1    3    3    0    0 -0.23479637516E+01 -0.25397633161E+02 -0.49711447416E+03  0.49776837297E+03  0.00000000000E+00 0.  1.
          1    1    3    3  501    0 -0.22113997083E+01 -0.83148699302E+01 -0.19917359251E+03  0.19935934215E+03  0.00000000000E+00 0.  1.
         -1    1    1    2    0  502  0.45593634598E+01  0.33712503091E+02 -0.30233814375E+03  0.30424607446E+03  0.00000000000E+00 0. -1.
<mgrwt>
<rscale>  1 0.30000000E+03</rscale>
<asrwt>0</asrwt>
<pdfrwt beam="1">  1       21 0.49956090E-02 0.30000000E+03</pdfrwt>
<pdfrwt beam="2">0</pdfrwt>
<totfact> 0.28847829E+04</totfact>
</mgrwt>
</event>
<event>
 6    1  0.1198667E-001  0.3000000E+03  0.7818608E-02  0.1093470E+00
         21   -1    0    0  501  502  0.00000000000E+00  0.00000000000E+00  0.41954512188E+01  0.41954512188E+01  0.00000000000E+00 0. -1.
         13   -1    0    0    0    0 -0.00000000000E+00 -0.00000000000E+00 -0.10000000000E+04  0.10000000000E+04  0.00000000000E+00 0.  1.
    9000005    2    1    2  501    0  0.39518640088E+02 -0.24598333582E+02 -0.84620871433E+03  0.84752473087E+03  0.78854485718E+01 0.  0.
         13    1    3    3    0    0  0.13190470276E+02 -0.93186833325E+01 -0.23141769569E+03  0.23198055144E+03  0.00000000000E+00 0.  1.
          3    1    3    3  501    0  0.26328169812E+02 -0.15279650250E+02 -0.61479101863E+03  0.61554417943E+03  0.00000000000E+00 0.  1.
         -3    1    1    2    0  502 -0.39518640088E+02  0.24598333582E+02 -0.14959583446E+03  0.15667072035E+03  0.00000000000E+00 0. -1.
<mgrwt>
<rscale>  1 0.30000000E+03</rscale>
<asrwt>0</asrwt>
<pdfrwt beam="1">  1       21 0.15256218E-01 0.30000000E+03</pdfrwt>
<pdfrwt beam="2">0</pdfrwt>
<totfact> 0.39908149E+03</totfact>
</mgrwt>
</event>
<event>
 6    1  0.1198667E-001  0.3000000E+03  0.7818608E-02  0.1093470E+00
         21   -1    0    0  501  502  0.00000000000E+00  0.00000000000E+00  0.31476204358E+01  0.31476204358E+01  0.00000000000E+00 0. -1.
         13   -1    0    0    0    0 -0.00000000000E+00 -0.00000000000E+00 -0.10000000000E+04  0.10000000000E+04  0.00000000000E+00 0.  1.
    9000005    2    1    2  501    0 -0.36985708084E+01  0.32542428777E+02 -0.90555979919E+03  0.90615780484E+03  0.32754050305E+01 0.  0.
         13    1    3    3    0    0 -0.71613925657E+00  0.15484850808E+02 -0.39308306123E+03  0.39338859476E+03  0.00000000000E+00 0.  1.
          1    1    3    3  501    0 -0.29824315518E+01  0.17057577968E+02 -0.51247673795E+03  0.51276921008E+03  0.00000000000E+00 0.  1.
         -1    1    1    2    0  502  0.36985708084E+01 -0.32542428777E+02 -0.91292580376E+02  0.96989815591E+02  0.00000000000E+00 0. -1.
<mgrwt>
<rscale>  1 0.30000000E+03</rscale>
<asrwt>0</asrwt>
<pdfrwt beam="1">  1       21 0.11445917E-01 0.30000000E+03</pdfrwt>
<pdfrwt beam="2">0</pdfrwt>
<totfact> 0.67507871E+03</totfact>
</mgrwt>
</event>
<event>
 6    1  0.1198667E-001  0.3000000E+03  0.7818608E-02  0.1093470E+00
         21   -1    0    0  501  502  0.00000000000E+00  0.00000000000E+00  0.20777232592E+01  0.20777232592E+01  0.00000000000E+00 0. -1.
         13   -1    0    0    0    0 -0.00000000000E+00 -0.00000000000E+00 -0.10000000000E+04  0.10000000000E+04  0.00000000000E+00 0.  1.
    9000005    2    1    2  501    0  0.39888166593E+02 -0.95405930622E+01 -0.71678358003E+03  0.71796321195E+03  0.32224769775E+01 0.  0.
         13    1    3    3    0    0  0.13228156805E+02 -0.16162742410E+01 -0.23360290878E+03  0.23398272471E+03  0.00000000000E+00 0.  1.
          1    1    3    3  501    0  0.26660009788E+02 -0.79243188211E+01 -0.48318067126E+03  0.48398048724E+03  0.00000000000E+00 0.  1.
         -3    1    1    2    0  502 -0.39888166593E+02  0.95405930622E+01 -0.28113869671E+03  0.28411451131E+03  0.00000000000E+00 0. -1.
<mgrwt>
<rscale>  1 0.30000000E+03</rscale>
<asrwt>0</asrwt>
<pdfrwt beam="1">  1       21 0.75553732E-02 0.30000000E+03</pdfrwt>
<pdfrwt beam="2">0</pdfrwt>
<totfact> 0.14121383E+04</totfact>
</mgrwt>
</event>
<event>
 6    1  0.1198667E-001  0.3000000E+03  0.7818608E-02  0.1093470E+00
         21   -1    0    0  501  502  0.00000000000E+00  0.00000000000E+00  0.85064700963E+01  0.85064700963E+01  0.00000000000E+00 0. -1.
         13   -1    0    0    0    0 -0.00000000000E+00 -0.00000000000E+00 -0.10000000000E+04  0.10000000000E+04  0.00000000000E+00 0.  1.
    9000005    2    1    2  501    0  0.81677620870E+02  0.15425681568E+02 -0.71404382798E+03  0.71887304230E+03  0.32676073780E+01 0.  0.
         13    1    3    3    0    0  0.47827600044E+02  0.10384142137E+02 -0.42801263924E+03  0.43080172828E+03  0.00000000000E+00 0.  1.
          3    1    3    3  501    0  0.33850020826E+02  0.50415394310E+01 -0.28603118874E+03  0.28807131402E+03  0.00000000000E+00 0.  1.
         -3    1    1    2    0  502 -0.81677620870E+02 -0.15425681568E+02 -0.27744970192E+03  0.28963342780E+03  0.00000000000E+00 0. -1.
<mgrwt>
<rscale>  1 0.30000000E+03</rscale>
<asrwt>0</asrwt>
<pdfrwt beam="1">  1       21 0.30932684E-01 0.30000000E+03</pdfrwt>
<pdfrwt beam="2">0</pdfrwt>
<totfact> 0.10225427E+03</totfact>
</mgrwt>
</event>
<event>
 6    1  0.1198667E-001  0.3000000E+03  0.7818608E-02  0.1093470E+00
         21   -1    0    0  501  502  0.00000000000E+00  0.00000000000E+00  0.11545727278E+02  0.11545727278E+02  0.00000000000E+00 0. -1.
         13   -1    0    0    0    0 -0.00000000000E+00 -0.00000000000E+00 -0.10000000000E+04  0.10000000000E+04  0.00000000000E+00 0.  1.
    9000005    2    1    2  501    0  0.98558283830E+02  0.83694389016E+01 -0.69159157967E+03  0.69863800710E+03  0.35169700216E+01 0.  0.
         13    1    3    3    0    0  0.92394419510E+02  0.84151118926E+01 -0.65276535868E+03  0.65932553140E+03  0.00000000000E+00 0.  1.
          1    1    3    3  501    0  0.61638643201E+01 -0.45672991037E-01 -0.38826220996E+02  0.39312475707E+02  0.00000000000E+00 0.  1.
         -1    1    1    2    0  502 -0.98558283830E+02 -0.83694389016E+01 -0.29686269305E+03  0.31290772017E+03  0.00000000000E+00 0. -1.
<mgrwt>
<rscale>  1 0.30000000E+03</rscale>
<asrwt>0</asrwt>
<pdfrwt beam="1">  1       21 0.41984551E-01 0.30000000E+03</pdfrwt>
<pdfrwt beam="2">0</pdfrwt>
<totfact> 0.54566615E+02</totfact>
</mgrwt>
</event>
<event>
 6    1  0.1198667E-001  0.3000000E+03  0.7818608E-02  0.1093470E+00
         21   -1    0    0  501  502  0.00000000000E+00  0.00000000000E+00  0.17052679467E+01  0.17052679467E+01  0.00000000000E+00 0. -1.
         13   -1    0    0    0    0 -0.00000000000E+00 -0.00000000000E+00 -0.10000000000E+04  0.10000000000E+04  0.00000000000E+00 0.  1.
    9000005    2    1    2  501    0  0.15217204001E+01 -0.40275374160E+02 -0.39622478242E+03  0.39828779583E+03  0.38299754127E+01 0.  0.
         13    1    3    3    0    0  0.26028440042E+01 -0.21307870525E+02 -0.21660430518E+03  0.21766539726E+03  0.00000000000E+00 0.  1.
          1    1    3    3  501    0 -0.10811236040E+01 -0.18967503634E+02 -0.17962047724E+03  0.18062239857E+03  0.00000000000E+00 0.  1.
         -3    1    1    2    0  502 -0.15217204001E+01  0.40275374160E+02 -0.60206994964E+03  0.60341747211E+03  0.00000000000E+00 0. -1.
<mgrwt>
<rscale>  1 0.30000000E+03</rscale>
<asrwt>0</asrwt>
<pdfrwt beam="1">  1       21 0.62009874E-02 0.30000000E+03</pdfrwt>
<pdfrwt beam="2">0</pdfrwt>
<totfact> 0.19906865E+04</totfact>
</mgrwt>
</event>
<event>
 6    1  0.1198667E-001  0.3000000E+03  0.7818608E-02  0.1093470E+00
         21   -1    0    0  501  502  0.00000000000E+00  0.00000000000E+00  0.16550887422E+01  0.16550887422E+01  0.00000000000E+00 0. -1.
         13   -1    0    0    0    0 -0.00000000000E+00 -0.00000000000E+00 -0.10000000000E+04  0.10000000000E+04  0.00000000000E+00 0.  1.
    9000005    2    1    2  501    0  0.75964615257E+01  0.39861476929E+02 -0.51788452457E+03  0.51948413696E+03  0.35699003684E+01 0.  0.
         13    1    3    3    0    0  0.68489509010E+01  0.38812847654E+02 -0.49727028528E+03  0.49882971232E+03  0.00000000000E+00 0.  1.
          3    1    3    3  501    0  0.74751062478E+00  0.10486292746E+01 -0.20614239297E+02  0.20654424642E+02  0.00000000000E+00 0.  1.
         -1    1    1    2    0  502 -0.75964615257E+01 -0.39861476929E+02 -0.48046038668E+03  0.48217095178E+03  0.00000000000E+00 0. -1.
<mgrwt>
<rscale>  1 0.30000000E+03</rscale>
<asrwt>0</asrwt>
<pdfrwt beam="1">  1       21 0.60185172E-02 0.30000000E+03</pdfrwt>
<pdfrwt beam="2">0</pdfrwt>
<totfact> 0.20959972E+04</totfact>
</mgrwt>
</event>
<event>
 6    1  0.1198667E-001  0.3000000E+03  0.7818608E-02  0.1093470E+00
         21   -1    0    0  501  502  0.00000000000E+00  0.00000000000E+00  0.25097808109E+01  0.25097808109E+01  0.00000000000E+00 0. -1.
         13   -1    0    0    0    0 -0.00000000000E+00 -0.00000000000E+00 -0.10000000000E+04  0.10000000000E+04  0.00000000000E+00 0.  1.
    9000005    2    1    2  501    0 -0.40865353124E+02 -0.23482497526E+02 -0.66747995490E+03  0.66915084616E+03  0.34583155103E+01 0.  0.
         13    1    3    3    0    0 -0.13627847580E+02 -0.59845576501E+01 -0.21197965132E+03  0.21250154289E+03  0.00000000000E+00 0.  1.
          3    1    3    3  501    0 -0.27237505544E+02 -0.17497939876E+02 -0.45550030358E+03  0.45664930326E+03  0.00000000000E+00 0.  1.
         -1    1    1    2    0  502  0.40865353124E+02  0.23482497526E+02 -0.33001026429E+03  0.33335893466E+03  0.00000000000E+00 0. -1.
<mgrwt>
<rscale>  1 0.30000000E+03</rscale>
<asrwt>0</asrwt>
<pdfrwt beam="1">  1       21 0.91264949E-02 0.30000000E+03</pdfrwt>
<pdfrwt beam="2">0</pdfrwt>
<totfact> 0.10124452E+04</totfact>
</mgrwt>
</event>
<event>
 6    1  0.1198667E-001  0.3000000E+03  0.7818608E-02  0.1093470E+00
         21   -1    0    0  501  502  0.00000000000E+00  0.00000000000E+00  0.34538646601E+01  0.34538646601E+01  0.00000000000E+00 0. -1.
         13   -1    0    0    0    0 -0.00000000000E+00 -0.00000000000E+00 -0.10000000000E+04  0.10000000000E+04  0.00000000000E+00 0.  1.
    9000005    2    1    2  501    0 -0.25346825591E+02 -0.32284333037E+02 -0.85720750639E+03  0.85819549744E+03  0.31722394686E+01 0.  0.
         13    1    3    3    0    0 -0.24150273601E+02 -0.29535896581E+02 -0.80104360106E+03  0.80195165422E+03  0.00000000000E+00 0.  1.
          1    1    3    3  501    0 -0.11965519907E+01 -0.27484364566E+01 -0.56163905324E+02  0.56243843227E+02  0.00000000000E+00 0.  1.
         -1    1    1    2    0  502  0.25346825591E+02  0.32284333037E+02 -0.13933862895E+03  0.14525836722E+03  0.00000000000E+00 0. -1.
<mgrwt>
<rscale>  1 0.30000000E+03</rscale>
<asrwt>0</asrwt>
<pdfrwt beam="1">  1       21 0.12559534E-01 0.30000000E+03</pdfrwt>
<pdfrwt beam="2">0</pdfrwt>
<totfact> 0.57041083E+03</totfact>
</mgrwt>
</event>
<event>
 6    1  0.1198667E-001  0.3000000E+03  0.7818608E-02  0.1093470E+00
         21   -1    0    0  501  502  0.00000000000E+00  0.00000000000E+00  0.20144617183E+01  0.20144617183E+01  0.00000000000E+00 0. -1.
         13   -1    0    0    0    0 -0.00000000000E+00 -0.00000000000E+00 -0.10000000000E+04  0.10000000000E+04  0.00000000000E+00 0.  1.
    9000005    2    1    2  501    0  0.14848989184E+02 -0.40323191747E+02 -0.63571317765E+03  0.63720257108E+03  0.70299418424E+01 0.  0.
         13    1    3    3    0    0  0.26399999258E+01 -0.16716694176E+02 -0.23398570531E+03  0.23459694745E+03  0.00000000000E+00 0.  1.
          1    1    3    3  501    0  0.12208989258E+02 -0.23606497572E+02 -0.40172747235E+03  0.40260562364E+03  0.00000000000E+00 0.  1.
         -3    1    1    2    0  502 -0.14848989184E+02  0.40323191747E+02 -0.36227236063E+03  0.36481189063E+03  0.00000000000E+00 0. -1.
<mgrwt>
<rscale>  1 0.30000000E+03</rscale>
<asrwt>0</asrwt>
<pdfrwt beam="1">  1       21 0.73253308E-02 0.30000000E+03</pdfrwt>
<pdfrwt beam="2">0</pdfrwt>
<totfact> 0.14906448E+04</totfact>
</mgrwt>
</event>
<event>
 6    1  0.1198667E-001  0.3000000E+03  0.7818608E-02  0.1093470E+00
         21   -1    0    0  501  502  0.00000000000E+00  0.00000000000E+00  0.12171192920E+02  0.12171192920E+02  0.00000000000E+00 0. -1.
         13   -1    0    0    0    0 -0.00000000000E+00 -0.00000000000E+00 -0.10000000000E+04  0.10000000000E+04  0.00000000000E+00 0.  1.
    9000005    2    1    2  501    0  0.54824844346E+02  0.20620927326E+02 -0.92275754764E+03  0.92461975086E+03  0.30340989969E+01 0.  0.
         13    1    3    3    0    0  0.51863995341E+02  0.20178693264E+02 -0.87211490540E+03  0.87388870110E+03  0.00000000000E+00 0.  1.
          1    1    3    3  501    0  0.29608490054E+01  0.44223406153E+00 -0.50642642234E+02  0.50731049765E+02  0.00000000000E+00 0.  1.
         -3    1    1    2    0  502 -0.54824844346E+02 -0.20620927326E+02 -0.65071259441E+02  0.87551442059E+02  0.00000000000E+00 0. -1.
<mgrwt>
<rscale>  1 0.30000000E+03</rscale>
<asrwt>0</asrwt>
<pdfrwt beam="1">  1       21 0.44258977E-01 0.30000000E+03</pdfrwt>
<pdfrwt beam="2">0</pdfrwt>
<totfact> 0.48801930E+02</totfact>
</mgrwt>
</event>
<event>
 6    1  0.1198667E-001  0.3000000E+03  0.7818608E-02  0.1093470E+00
         21   -1    0    0  501  502  0.00000000000E+00  0.00000000000E+00  0.49988522294E+01  0.49988522294E+01  0.00000000000E+00 0. -1.
         13   -1    0    0    0    0 -0.00000000000E+00 -0.00000000000E+00 -0.10000000000E+04  0.10000000000E+04  0.00000000000E+00 0.  1.
    9000005    2    1    2  501    0 -0.46835626241E+02  0.65761857707E+01 -0.87088533097E+03  0.87217732504E+03  0.38992963375E+01 0.  0.
         13    1    3    3    0    0 -0.25933334367E+02  0.18613516262E+01 -0.49229135837E+03  0.49297746803E+03  0.00000000000E+00 0.  1.
          3    1    3    3  501    0 -0.20902291874E+02  0.47148341445E+01 -0.37859397259E+03  0.37919985700E+03  0.00000000000E+00 0.  1.
         -3    1    1    2    0  502  0.46835626241E+02 -0.65761857707E+01 -0.12411581680E+03  0.13282152719E+03  0.00000000000E+00 0. -1.
<mgrwt>
<rscale>  1 0.30000000E+03</rscale>
<asrwt>0</asrwt>
<pdfrwt beam="1">  1       21 0.18177683E-01 0.30000000E+03</pdfrwt>
<pdfrwt beam="2">0</pdfrwt>
<totfact> 0.28758239E+03</totfact>
</mgrwt>
</event>
<event>
 6    1  0.1198667E-001  0.3000000E+03  0.7818608E-02  0.1093470E+00
         21   -1    0    0  501  502  0.00000000000E+00  0.00000000000E+00  0.30166160383E+01  0.30166160383E+01  0.00000000000E+00 0. -1.
         13   -1    0    0    0    0 -0.00000000000E+00 -0.00000000000E+00 -0.10000000000E+04  0.10000000000E+04  0.00000000000E+00 0.  1.
    9000005    2    1    2  501    0 -0.26579559266E+02 -0.28894004665E+02 -0.84899759656E+03  0.84991165286E+03  0.34003279017E+01 0.  0.
         13    1    3    3    0    0 -0.14081514614E+02 -0.14168741847E+02 -0.46428288033E+03  0.46471242211E+03  0.00000000000E+00 0.  1.
          1    1    3    3  501    0 -0.12498044652E+02 -0.14725262818E+02 -0.38471471623E+03  0.38519923075E+03  0.00000000000E+00 0.  1.
         -1    1    1    2    0  502  0.26579559266E+02  0.28894004665E+02 -0.14798578740E+03  0.15310496318E+03  0.00000000000E+00 0. -1.
<mgrwt>
<rscale>  1 0.30000000E+03</rscale>
<asrwt>0</asrwt>
<pdfrwt beam="1">  1       21 0.10969536E-01 0.30000000E+03</pdfrwt>
<pdfrwt beam="2">0</pdfrwt>
<totfact> 0.72882930E+03</totfact>
</mgrwt>
</event>
<event>
 6    1  0.1198667E-001  0.3000000E+03  0.7818608E-02  0.1093470E+00
         21   -1    0    0  501  502  0.00000000000E+00  0.00000000000E+00  0.11870946389E+01  0.11870946389E+01  0.00000000000E+00 0. -1.
         13   -1    0    0    0    0 -0.00000000000E+00 -0.00000000000E+00 -0.10000000000E+04  0.10000000000E+04  0.00000000000E+00 0.  1.
    9000005    2    1    2  501    0 -0.30576598912E+02 -0.60830583814E+01 -0.71083607704E+03  0.71152766419E+03  0.34287724315E+01 0.  0.
         13    1    3    3    0    0 -0.29253183041E+02 -0.64803188384E+01 -0.68428405388E+03  0.68493971242E+03  0.00000000000E+00 0.  1.
          1    1    3    3  501    0 -0.13234158709E+01  0.39726045693E+00 -0.26552023158E+02  0.26587951768E+02  0.00000000000E+00 0.  1.
         -1    1    1    2    0  502  0.30576598912E+02  0.60830583814E+01 -0.28797682832E+03  0.28965943045E+03  0.00000000000E+00 0. -1.
<mgrwt>
<rscale>  1 0.30000000E+03</rscale>
<asrwt>0</asrwt>
<pdfrwt beam="1">  1       21 0.43167169E-02 0.30000000E+03</pdfrwt>
<pdfrwt beam="2">0</pdfrwt>
<totfact> 0.36973292E+04</totfact>
</mgrwt>
</event>
<event>
 6    1  0.1198667E-001  0.3000000E+03  0.7818608E-02  0.1093470E+00
         21   -1    0    0  501  502  0.00000000000E+00  0.00000000000E+00  0.27176405964E+01  0.27176405964E+01  0.00000000000E+00 0. -1.
         13   -1    0    0    0    0 -0.00000000000E+00 -0.00000000000E+00 -0.10000000000E+04  0.10000000000E+04  0.00000000000E+00 0.  1.
    9000005    2    1    2  501    0 -0.17795743051E+02 -0.46214340577E+02 -0.65522791338E+03  0.65709689788E+03  0.51087803019E+00 0.  0.
         13    1    3    3    0    0 -0.86754485496E+01 -0.22951208462E+02 -0.32735940923E+03  0.32827763279E+03  0.00000000000E+00 0.  1.
          1    1    3    3  501    0 -0.91202945012E+01 -0.23263132115E+02 -0.32786850414E+03  0.32881926509E+03  0.00000000000E+00 0.  1.
         -3    1    1    2    0  502  0.17795743051E+02  0.46214340577E+02 -0.34205444603E+03  0.34562074271E+03  0.00000000000E+00 0. -1.
<mgrwt>
<rscale>  1 0.30000000E+03</rscale>
<asrwt>0</asrwt>
<pdfrwt beam="1">  1       21 0.98823503E-02 0.30000000E+03</pdfrwt>
<pdfrwt beam="2">0</pdfrwt>
<totfact> 0.87869999E+03</totfact>
</mgrwt>
</event>
<event>
 6    1  0.1198667E-001  0.3000000E+03  0.7818608E-02  0.1093470E+00
         21   -1    0    0  501  502  0.00000000000E+00  0.00000000000E+00  0.42028998932E+01  0.42028998932E+01  0.00000000000E+00 0. -1.
         13   -1    0    0    0    0 -0.00000000000E+00 -0.00000000000E+00 -0.10000000000E+04  0.10000000000E+04  0.00000000000E+00 0.  1.
    9000005    2    1    2  501    0 -0.36816273309E+02 -0.56237508231E+01 -0.90879498492E+03  0.90956446901E+03  0.34834049069E+01 0.  0.
         13    1    3    3    0    0 -0.22222962243E+02 -0.32527648254E+01 -0.58854003990E+03  0.58896843642E+03  0.00000000000E+00 0.  1.
          3    1    3    3  501    0 -0.14593311066E+02 -0.23709859977E+01 -0.32025494502E+03  0.32059603259E+03  0.00000000000E+00 0.  1.
         -1    1    1    2    0  502  0.36816273309E+02  0.56237508231E+01 -0.87002115185E+02  0.94638430885E+02  0.00000000000E+00 0. -1.
<mgrwt>
<rscale>  1 0.30000000E+03</rscale>
<asrwt>0</asrwt>
<pdfrwt beam="1">  1       21 0.15283305E-01 0.30000000E+03</pdfrwt>
<pdfrwt beam="2">0</pdfrwt>
<totfact> 0.39777050E+03</totfact>
</mgrwt>
</event>
<event>
 6    1  0.1198667E-001  0.3000000E+03  0.7818608E-02  0.1093470E+00
         21   -1    0    0  501  502  0.00000000000E+00  0.00000000000E+00  0.15567632967E+01  0.15567632967E+01  0.00000000000E+00 0. -1.
         13   -1    0    0    0    0 -0.00000000000E+00 -0.00000000000E+00 -0.10000000000E+04  0.10000000000E+04  0.00000000000E+00 0.  1.
    9000005    2    1    2  501    0 -0.33652232493E+02  0.14128986639E+02 -0.68803994229E+03  0.68901507617E+03  0.32729153741E+01 0.  0.
         13    1    3    3    0    0 -0.12795412816E+02  0.55643072084E+01 -0.23393244660E+03  0.23434818898E+03  0.00000000000E+00 0.  1.
          3    1    3    3  501    0 -0.20856819677E+02  0.85646794310E+01 -0.45410749569E+03  0.45466688719E+03  0.00000000000E+00 0.  1.
         -3    1    1    2    0  502  0.33652232493E+02 -0.14128986639E+02 -0.31040329441E+03  0.31254168713E+03  0.00000000000E+00 0. -1.
<mgrwt>
<rscale>  1 0.30000000E+03</rscale>
<asrwt>0</asrwt>
<pdfrwt beam="1">  1       21 0.56609694E-02 0.30000000E+03</pdfrwt>
<pdfrwt beam="2">0</pdfrwt>
<totfact> 0.23291753E+04</totfact>
</mgrwt>
</event>
<event>
 6    1  0.1198667E-001  0.3000000E+03  0.7818608E-02  0.1093470E+00
         21   -1    0    0  501  502  0.00000000000E+00  0.00000000000E+00  0.29677360015E+01  0.29677360015E+01  0.00000000000E+00 0. -1.
         13   -1    0    0    0    0 -0.00000000000E+00 -0.00000000000E+00 -0.10000000000E+04  0.10000000000E+04  0.00000000000E+00 0.  1.
    9000005    2    1    2  501    0 -0.16503027795E+02 -0.51850227701E+02 -0.49089420556E+03  0.49391319055E+03  0.35103722658E+01 0.  0.
         13    1    3    3    0    0 -0.75830433860E+00 -0.38511137105E+01 -0.43247554771E+02  0.43425304789E+02  0.00000000000E+00 0.  1.
          3    1    3    3  501    0 -0.15744723456E+02 -0.47999113991E+02 -0.44764665079E+03  0.45048788576E+03  0.00000000000E+00 0.  1.
         -1    1    1    2    0  502  0.16503027795E+02  0.51850227701E+02 -0.50613805844E+03  0.50905454545E+03  0.00000000000E+00 0. -1.
<mgrwt>
<rscale>  1 0.30000000E+03</rscale>
<asrwt>0</asrwt>
<pdfrwt beam="1">  1       21 0.10791790E-01 0.30000000E+03</pdfrwt>
<pdfrwt beam="2">0</pdfrwt>
<totfact> 0.75054819E+03</totfact>
</mgrwt>
</event>
<event>
 6    1  0.1198667E-001  0.3000000E+03  0.7818608E-02  0.1093470E+00
         21   -1    0    0  501  502  0.00000000000E+00  0.00000000000E+00  0.11916742223E+01  0.11916742223E+01  0.00000000000E+00 0. -1.
         13   -1    0    0    0    0 -0.00000000000E+00 -0.00000000000E+00 -0.10000000000E+04  0.10000000000E+04  0.00000000000E+00 0.  1.
    9000005    2    1    2  501    0  0.20560129085E+02  0.22692274794E+02 -0.72566582972E+03  0.72633811067E+03  0.62045426019E+01 0.  0.
         13    1    3    3    0    0  0.18235732622E+02  0.18583055675E+02 -0.65318337415E+03  0.65370206683E+03  0.00000000000E+00 0.  1.
          1    1    3    3  501    0  0.23243964636E+01  0.41092191190E+01 -0.72482455569E+02  0.72636043849E+02  0.00000000000E+00 0.  1.
         -1    1    1    2    0  502 -0.20560129085E+02 -0.22692274794E+02 -0.27314249606E+03  0.27485356355E+03  0.00000000000E+00 0. -1.
<mgrwt>
<rscale>  1 0.30000000E+03</rscale>
<asrwt>0</asrwt>
<pdfrwt beam="1">  1       21 0.43333699E-02 0.30000000E+03</pdfrwt>
<pdfrwt beam="2">0</pdfrwt>
<totfact> 0.36733216E+04</totfact>
</mgrwt>
</event>
<event>
 6    1  0.1198667E-001  0.3000000E+03  0.7818608E-02  0.1093470E+00
         21   -1    0    0  501  502  0.00000000000E+00  0.00000000000E+00  0.37937638863E+01  0.37937638863E+01  0.00000000000E+00 0. -1.
         13   -1    0    0    0    0 -0.00000000000E+00 -0.00000000000E+00 -0.10000000000E+04  0.10000000000E+04  0.00000000000E+00 0.  1.
    9000005    2    1    2  501    0 -0.25487765987E+02 -0.40371124791E+02 -0.81439266482E+03  0.81581602946E+03  0.63974593551E+01 0.  0.
         13    1    3    3    0    0 -0.62600287610E+00 -0.16860341611E+01 -0.16135224033E+02  0.16235148456E+02  0.00000000000E+00 0.  1.
          1    1    3    3  501    0 -0.24861763111E+02 -0.38685090630E+02 -0.79825744079E+03  0.79958088101E+03  0.00000000000E+00 0.  1.
         -3    1    1    2    0  502  0.25487765987E+02  0.40371124791E+02 -0.18181357129E+03  0.18797773442E+03  0.00000000000E+00 0. -1.
<mgrwt>
<rscale>  1 0.30000000E+03</rscale>
<asrwt>0</asrwt>
<pdfrwt beam="1">  1       21 0.13795534E-01 0.30000000E+03</pdfrwt>
<pdfrwt beam="2">0</pdfrwt>
<totfact> 0.48047313E+03</totfact>
</mgrwt>
</event>
<event>
 6    1  0.1198667E-001  0.3000000E+03  0.7818608E-02  0.1093470E+00
         21   -1    0    0  501  502  0.00000000000E+00  0.00000000000E+00  0.16022637062E+01  0.16022637062E+01  0.00000000000E+00 0. -1.
         13   -1    0    0    0    0 -0.00000000000E+00 -0.00000000000E+00 -0.10000000000E+04  0.10000000000E+04  0.00000000000E+00 0.  1.
    9000005    2    1    2  501    0 -0.14746287576E+02  0.30728883915E+02 -0.75974740872E+03  0.76053029073E+03  0.53367364659E+01 0.  0.
         13    1    3    3    0    0 -0.12383325590E+02  0.29104737418E+02 -0.69899532547E+03  0.69971058126E+03  0.00000000000E+00 0.  1.
          1    1    3    3  501    0 -0.23629619854E+01  0.16241464969E+01 -0.60752083248E+02  0.60819709471E+02  0.00000000000E+00 0.  1.
         -3    1    1    2    0  502  0.14746287576E+02 -0.30728883915E+02 -0.23865032757E+03  0.24107197298E+03  0.00000000000E+00 0. -1.
<mgrwt>
<rscale>  1 0.30000000E+03</rscale>
<asrwt>0</asrwt>
<pdfrwt beam="1">  1       21 0.58264258E-02 0.30000000E+03</pdfrwt>
<pdfrwt beam="2">0</pdfrwt>
<totfact> 0.22165333E+04</totfact>
</mgrwt>
</event>
<event>
 6    1  0.1198667E-001  0.3000000E+03  0.7818608E-02  0.1093470E+00
         21   -1    0    0  501  502  0.00000000000E+00  0.00000000000E+00  0.28971445156E+01  0.28971445156E+01  0.00000000000E+00 0. -1.
         13   -1    0    0    0    0 -0.00000000000E+00 -0.00000000000E+00 -0.10000000000E+04  0.10000000000E+04  0.00000000000E+00 0.  1.
    9000005    2    1    2  501    0  0.28879461855E+02  0.29141000362E+02 -0.82283136399E+03  0.82386146660E+03  0.36112826841E+01 0.  0.
         13    1    3    3    0    0  0.13448662639E+02  0.16116156288E+02 -0.42376481034E+03  0.42428435218E+03  0.00000000000E+00 0.  1.
          3    1    3    3  501    0  0.15430799217E+02  0.13024844074E+02 -0.39906655364E+03  0.39957711442E+03  0.00000000000E+00 0.  1.
         -3    1    1    2    0  502 -0.28879461855E+02 -0.29141000362E+02 -0.17427149150E+03  0.17903567792E+03  0.00000000000E+00 0. -1.
<mgrwt>
<rscale>  1 0.30000000E+03</rscale>
<asrwt>0</asrwt>
<pdfrwt beam="1">  1       21 0.10535093E-01 0.30000000E+03</pdfrwt>
<pdfrwt beam="2">0</pdfrwt>
<totfact> 0.78368494E+03</totfact>
</mgrwt>
</event>
<event>
 6    1  0.1198667E-001  0.3000000E+03  0.7818608E-02  0.1093470E+00
         21   -1    0    0  501  502  0.00000000000E+00  0.00000000000E+00  0.16023685571E+01  0.16023685571E+01  0.00000000000E+00 0. -1.
         13   -1    0    0    0    0 -0.00000000000E+00 -0.00000000000E+00 -0.10000000000E+04  0.10000000000E+04  0.00000000000E+00 0.  1.
    9000005    2    1    2  501    0  0.34364900867E+02  0.12169592370E+02 -0.70484885835E+03  0.70579850182E+03  0.32506413632E+01 0.  0.
         13    1    3    3    0    0  0.24243930495E+02  0.93112547127E+01 -0.47560870799E+03  0.47631723751E+03  0.00000000000E+00 0.  1.
          3    1    3    3  501    0  0.10120970373E+02  0.28583376573E+01 -0.22924015035E+03  0.22948126431E+03  0.00000000000E+00 0.  1.
         -3    1    1    2    0  502 -0.34364900867E+02 -0.12169592370E+02 -0.29354877310E+03  0.29580386674E+03  0.00000000000E+00 0. -1.
<mgrwt>
<rscale>  1 0.30000000E+03</rscale>
<asrwt>0</asrwt>
<pdfrwt beam="1">  1       21 0.58268070E-02 0.30000000E+03</pdfrwt>
<pdfrwt beam="2">0</pdfrwt>
<totfact> 0.22162834E+04</totfact>
</mgrwt>
</event>
<event>
 6    1  0.1198667E-001  0.3000000E+03  0.7818608E-02  0.1093470E+00
         21   -1    0    0  501  502  0.00000000000E+00  0.00000000000E+00  0.12159865721E+01  0.12159865721E+01  0.00000000000E+00 0. -1.
         13   -1    0    0    0    0 -0.00000000000E+00 -0.00000000000E+00 -0.10000000000E+04  0.10000000000E+04  0.00000000000E+00 0.  1.
    9000005    2    1    2  501    0  0.16817636209E+02  0.25679798397E+02 -0.27338779787E+03  0.27517056480E+03  0.59721665795E+01 0.  0.
         13    1    3    3    0    0  0.44383401607E+01  0.11964972349E+02 -0.11815323480E+03  0.11884042376E+03  0.00000000000E+00 0.  1.
          3    1    3    3  501    0  0.12379296048E+02  0.13714826048E+02 -0.15523456307E+03  0.15633014103E+03  0.00000000000E+00 0.  1.
         -3    1    1    2    0  502 -0.16817636209E+02 -0.25679798397E+02 -0.72539621556E+03  0.72604542178E+03  0.00000000000E+00 0. -1.
<mgrwt>
<rscale>  1 0.30000000E+03</rscale>
<asrwt>0</asrwt>
<pdfrwt beam="1">  1       21 0.44217787E-02 0.30000000E+03</pdfrwt>
<pdfrwt beam="2">0</pdfrwt>
<totfact> 0.35498200E+04</totfact>
</mgrwt>
</event>
<event>
 6    1  0.1198667E-001  0.3000000E+03  0.7818608E-02  0.1093470E+00
         21   -1    0    0  501  502  0.00000000000E+00  0.00000000000E+00  0.49372340116E+01  0.49372340116E+01  0.00000000000E+00 0. -1.
         13   -1    0    0    0    0 -0.00000000000E+00 -0.00000000000E+00 -0.10000000000E+04  0.10000000000E+04  0.00000000000E+00 0.  1.
    9000005    2    1    2  501    0  0.20772571812E+02 -0.28189769235E+02 -0.93309156614E+03  0.93375723373E+03  0.40666834014E+01 0.  0.
         13    1    3    3    0    0  0.19313023928E+02 -0.27534669372E+02 -0.89674233255E+03  0.89737281098E+03  0.00000000000E+00 0.  1.
          1    1    3    3  501    0  0.14595478846E+01 -0.65509986342E+00 -0.36349233596E+02  0.36384422751E+02  0.00000000000E+00 0.  1.
         -3    1    1    2    0  502 -0.20772571812E+02  0.28189769235E+02 -0.61971199845E+02  0.71180000277E+02  0.00000000000E+00 0. -1.
<mgrwt>
<rscale>  1 0.30000000E+03</rscale>
<asrwt>0</asrwt>
<pdfrwt beam="1">  1       21 0.17953616E-01 0.30000000E+03</pdfrwt>
<pdfrwt beam="2">0</pdfrwt>
<totfact> 0.29438213E+03</totfact>
</mgrwt>
</event>
<event>
 6    1  0.1198667E-001  0.3000000E+03  0.7818608E-02  0.1093470E+00
         21   -1    0    0  501  502  0.00000000000E+00  0.00000000000E+00  0.21363955934E+01  0.21363955934E+01  0.00000000000E+00 0. -1.
         13   -1    0    0    0    0 -0.00000000000E+00 -0.00000000000E+00 -0.10000000000E+04  0.10000000000E+04  0.00000000000E+00 0.  1.
    9000005    2    1    2  501    0  0.20518081579E+02 -0.40158105679E+02 -0.60564372564E+03  0.60733252223E+03  0.38477301220E+01 0.  0.
         13    1    3    3    0    0  0.36937585474E+01 -0.46957349554E+01 -0.72296610624E+02  0.72543047128E+02  0.00000000000E+00 0.  1.
          1    1    3    3  501    0  0.16824323032E+02 -0.35462370724E+02 -0.53334711502E+03  0.53478947510E+03  0.00000000000E+00 0.  1.
         -3    1    1    2    0  502 -0.20518081579E+02  0.40158105679E+02 -0.39221987876E+03  0.39480387336E+03  0.00000000000E+00 0. -1.
<mgrwt>
<rscale>  1 0.30000000E+03</rscale>
<asrwt>0</asrwt>
<pdfrwt beam="1">  1       21 0.77687276E-02 0.30000000E+03</pdfrwt>
<pdfrwt beam="2">0</pdfrwt>
<totfact> 0.13448753E+04</totfact>
</mgrwt>
</event>
<event>
 6    1  0.1198667E-001  0.3000000E+03  0.7818608E-02  0.1093470E+00
         21   -1    0    0  501  502  0.00000000000E+00  0.00000000000E+00  0.22415912239E+01  0.22415912239E+01  0.00000000000E+00 0. -1.
         13   -1    0    0    0    0 -0.00000000000E+00 -0.00000000000E+00 -0.10000000000E+04  0.10000000000E+04  0.00000000000E+00 0.  1.
    9000005    2    1    2  501    0 -0.20064230231E+00 -0.42747067422E+02 -0.71348055125E+03  0.71476767535E+03  0.33137104661E+01 0.  0.
         13    1    3    3    0    0  0.13764022759E+01 -0.14958753768E+02 -0.26082458001E+03  0.26125680916E+03  0.00000000000E+00 0.  1.
          1    1    3    3  501    0 -0.15770445782E+01 -0.27788313654E+02 -0.45265597125E+03  0.45351086619E+03  0.00000000000E+00 0.  1.
         -3    1    1    2    0  502  0.20064230231E+00  0.42747067422E+02 -0.28427785752E+03  0.28747391588E+03  0.00000000000E+00 0. -1.
<mgrwt>
<rscale>  1 0.30000000E+03</rscale>
<asrwt>0</asrwt>
<pdfrwt beam="1">  1       21 0.81512580E-02 0.30000000E+03</pdfrwt>
<pdfrwt beam="2">0</pdfrwt>
<totfact> 0.12360227E+04</totfact>
</mgrwt>
</event>
<event>
 6    1  0.1198667E-001  0.3000000E+03  0.7818608E-02  0.1093470E+00
         21   -1    0    0  501  502  0.00000000000E+00  0.00000000000E+00  0.12502016035E+01  0.12502016035E+01  0.00000000000E+00 0. -1.
         13   -1    0    0    0    0 -0.00000000000E+00 -0.00000000000E+00 -0.10000000000E+04  0.10000000000E+04  0.00000000000E+00 0.  1.
    9000005    2    1    2  501    0  0.32024359857E+02  0.14813256418E+02 -0.50321316095E+03  0.50445894641E+03  0.32173070582E+01 0.  0.
         13    1    3    3    0    0  0.62580267753E+01  0.16740741368E+01 -0.10034206709E+03  0.10055096146E+03  0.00000000000E+00 0.  1.
          3    1    3    3  501    0  0.25766333082E+02  0.13139182282E+02 -0.40287109386E+03  0.40390798494E+03  0.00000000000E+00 0.  1.
         -1    1    1    2    0  502 -0.32024359857E+02 -0.14813256418E+02 -0.49553663744E+03  0.49679125520E+03  0.00000000000E+00 0. -1.
<mgrwt>
<rscale>  1 0.30000000E+03</rscale>
<asrwt>0</asrwt>
<pdfrwt beam="1">  1       21 0.45461972E-02 0.30000000E+03</pdfrwt>
<pdfrwt beam="2">0</pdfrwt>
<totfact> 0.33865872E+04</totfact>
</mgrwt>
</event>
<event>
 6    1  0.1198667E-001  0.3000000E+03  0.7818608E-02  0.1093470E+00
         21   -1    0    0  501  502  0.00000000000E+00  0.00000000000E+00  0.15526486890E+01  0.15526486890E+01  0.00000000000E+00 0. -1.
         13   -1    0    0    0    0 -0.00000000000E+00 -0.00000000000E+00 -0.10000000000E+04  0.10000000000E+04  0.00000000000E+00 0.  1.
    9000005    2    1    2  501    0 -0.30702417729E+02 -0.20855284008E+02 -0.33470355285E+03  0.33677192444E+03  0.33584938986E+01 0.  0.
         13    1    3    3    0    0 -0.29167601043E+02 -0.20445045751E+02 -0.32379450124E+03  0.32574779797E+03  0.00000000000E+00 0.  1.
          1    1    3    3  501    0 -0.15348166861E+01 -0.41023825709E+00 -0.10909051603E+02  0.11024126476E+02  0.00000000000E+00 0.  1.
         -3    1    1    2    0  502  0.30702417729E+02  0.20855284008E+02 -0.66374379847E+03  0.66478072424E+03  0.00000000000E+00 0. -1.
<mgrwt>
<rscale>  1 0.30000000E+03</rscale>
<asrwt>0</asrwt>
<pdfrwt beam="1">  1       21 0.56460071E-02 0.30000000E+03</pdfrwt>
<pdfrwt beam="2">0</pdfrwt>
<totfact> 0.23397919E+04</totfact>
</mgrwt>
</event>
<event>
 6    1  0.1198667E-001  0.3000000E+03  0.7818608E-02  0.1093470E+00
         21   -1    0    0  501  502  0.00000000000E+00  0.00000000000E+00  0.17989488577E+01  0.17989488577E+01  0.00000000000E+00 0. -1.
         13   -1    0    0    0    0 -0.00000000000E+00 -0.00000000000E+00 -0.10000000000E+04  0.10000000000E+04  0.00000000000E+00 0.  1.
    9000005    2    1    2  501    0 -0.25595711808E+02  0.17383271943E+02 -0.84121370105E+03  0.84179161560E+03  0.39133947297E+01 0.  0.
         13    1    3    3    0    0 -0.77340381613E+01  0.74642452021E+01 -0.29885707066E+03  0.29905029508E+03  0.00000000000E+00 0.  1.
          3    1    3    3  501    0 -0.17861673646E+02  0.99190267406E+01 -0.54235663039E+03  0.54274132052E+03  0.00000000000E+00 0.  1.
         -3    1    1    2    0  502  0.25595711808E+02 -0.17383271943E+02 -0.15698735009E+03  0.16000733325E+03  0.00000000000E+00 0. -1.
<mgrwt>
<rscale>  1 0.30000000E+03</rscale>
<asrwt>0</asrwt>
<pdfrwt beam="1">  1       21 0.65416460E-02 0.30000000E+03</pdfrwt>
<pdfrwt beam="2">0</pdfrwt>
<totfact> 0.18148214E+04</totfact>
</mgrwt>
</event>
<event>
 6    1  0.1198667E-001  0.3000000E+03  0.7818608E-02  0.1093470E+00
         21   -1    0    0  501  502  0.00000000000E+00  0.00000000000E+00  0.15031700237E+01  0.15031700237E+01  0.00000000000E+00 0. -1.
         13   -1    0    0    0    0 -0.00000000000E+00 -0.00000000000E+00 -0.10000000000E+04  0.10000000000E+04  0.00000000000E+00 0.  1.
    9000005    2    1    2  501    0  0.13703147080E+02  0.26731504062E+02 -0.81512651498E+03  0.81568868735E+03  0.38012758782E+01 0.  0.
         13    1    3    3    0    0  0.25850214941E+01  0.38230220065E+01 -0.16270154095E+03  0.16276697841E+03  0.00000000000E+00 0.  1.
          3    1    3    3  501    0  0.11118125586E+02  0.22908482056E+02 -0.65242497403E+03  0.65292170894E+03  0.00000000000E+00 0.  1.
         -1    1    1    2    0  502 -0.13703147080E+02 -0.26731504062E+02 -0.18337031500E+03  0.18581448267E+03  0.00000000000E+00 0. -1.
<mgrwt>
<rscale>  1 0.30000000E+03</rscale>
<asrwt>0</asrwt>
<pdfrwt beam="1">  1       21 0.54660843E-02 0.30000000E+03</pdfrwt>
<pdfrwt beam="2">0</pdfrwt>
<totfact> 0.24735050E+04</totfact>
</mgrwt>
</event>
<event>
 6    1  0.1198667E-001  0.3000000E+03  0.7818608E-02  0.1093470E+00
         21   -1    0    0  501  502  0.00000000000E+00  0.00000000000E+00  0.16055600209E+01  0.16055600209E+01  0.00000000000E+00 0. -1.
         13   -1    0    0    0    0 -0.00000000000E+00 -0.00000000000E+00 -0.10000000000E+04  0.10000000000E+04  0.00000000000E+00 0.  1.
    9000005    2    1    2  501    0  0.28709201065E+01  0.36151705912E+02 -0.71093205491E+03  0.71186462254E+03  0.34155677655E+01 0.  0.
         13    1    3    3    0    0 -0.33400260188E-02  0.52068075498E+01 -0.12600989448E+03  0.12611742292E+03  0.00000000000E+00 0.  1.
          3    1    3    3  501    0  0.28742601325E+01  0.30944898362E+02 -0.58492216043E+03  0.58574719962E+03  0.00000000000E+00 0.  1.
         -3    1    1    2    0  502 -0.28709201065E+01 -0.36151705912E+02 -0.28746238507E+03  0.28974093748E+03  0.00000000000E+00 0. -1.
<mgrwt>
<rscale>  1 0.30000000E+03</rscale>
<asrwt>0</asrwt>
<pdfrwt beam="1">  1       21 0.58384124E-02 0.30000000E+03</pdfrwt>
<pdfrwt beam="2">0</pdfrwt>
<totfact> 0.22086990E+04</totfact>
</mgrwt>
</event>
<event>
 6    1  0.1198667E-001  0.3000000E+03  0.7818608E-02  0.1093470E+00
         21   -1    0    0  501  502  0.00000000000E+00  0.00000000000E+00  0.11188551414E+01  0.11188551414E+01  0.00000000000E+00 0. -1.
         13   -1    0    0    0    0 -0.00000000000E+00 -0.00000000000E+00 -0.10000000000E+04  0.10000000000E+04  0.00000000000E+00 0.  1.
    9000005    2    1    2  501    0  0.30659084595E+02 -0.84846368588E+01 -0.64999533022E+03  0.65078575624E+03  0.40252558393E+01 0.  0.
         13    1    3    3    0    0  0.23004915190E+02 -0.50131581656E+01 -0.45355415377E+03  0.45416486905E+03  0.00000000000E+00 0.  1.
          3    1    3    3  501    0  0.76541694041E+01 -0.34714786932E+01 -0.19644117644E+03  0.19662088718E+03  0.00000000000E+00 0.  1.
         -3    1    1    2    0  502 -0.30659084595E+02  0.84846368588E+01 -0.34888581464E+03  0.35033309891E+03  0.00000000000E+00 0. -1.
<mgrwt>
<rscale>  1 0.30000000E+03</rscale>
<asrwt>0</asrwt>
<pdfrwt beam="1">  1       21 0.40685727E-02 0.30000000E+03</pdfrwt>
<pdfrwt beam="2">0</pdfrwt>
<totfact> 0.40860269E+04</totfact>
</mgrwt>
</event>
<event>
 6    1  0.1198667E-001  0.3000000E+03  0.7818608E-02  0.1093470E+00
         21   -1    0    0  501  502  0.00000000000E+00  0.00000000000E+00  0.15515627028E+01  0.15515627028E+01  0.00000000000E+00 0. -1.
         13   -1    0    0    0    0 -0.00000000000E+00 -0.00000000000E+00 -0.10000000000E+04  0.10000000000E+04  0.00000000000E+00 0.  1.
    9000005    2    1    2  501    0  0.98681414464E+01  0.33789166858E+02 -0.72297094025E+03  0.72383418947E+03  0.31409227919E+01 0.  0.
         13    1    3    3    0    0  0.14008667811E+01  0.97987133751E+01 -0.20534970397E+03  0.20558812741E+03  0.00000000000E+00 0.  1.
          3    1    3    3  501    0  0.84672746653E+01  0.23990453483E+02 -0.51762123628E+03  0.51824606206E+03  0.00000000000E+00 0.  1.
         -1    1    1    2    0  502 -0.98681414464E+01 -0.33789166858E+02 -0.27547749705E+03  0.27771737323E+03  0.00000000000E+00 0. -1.
<mgrwt>
<rscale>  1 0.30000000E+03</rscale>
<asrwt>0</asrwt>
<pdfrwt beam="1">  1       21 0.56420581E-02 0.30000000E+03</pdfrwt>
<pdfrwt beam="2">0</pdfrwt>
<totfact> 0.23426064E+04</totfact>
</mgrwt>
</event>
<event>
 6    1  0.1198667E-001  0.3000000E+03  0.7818608E-02  0.1093470E+00
         21   -1    0    0  501  502  0.00000000000E+00  0.00000000000E+00  0.46921166798E+01  0.46921166798E+01  0.00000000000E+00 0. -1.
         13   -1    0    0    0    0 -0.00000000000E+00 -0.00000000000E+00 -0.10000000000E+04  0.10000000000E+04  0.00000000000E+00 0.  1.
    9000005    2    1    2  501    0  0.34157636625E+02 -0.15293584482E+02 -0.91832719569E+03  0.91909618141E+03  0.35091991893E+01 0.  0.
         13    1    3    3    0    0  0.21342226415E+02 -0.10083617179E+02 -0.61774930028E+03  0.61820010350E+03  0.00000000000E+00 0.  1.
          3    1    3    3  501    0  0.12815410210E+02 -0.52099673031E+01 -0.30057789541E+03  0.30089607792E+03  0.00000000000E+00 0.  1.
         -1    1    1    2    0  502 -0.34157636625E+02  0.15293584482E+02 -0.76980687631E+02  0.85595935267E+02  0.00000000000E+00 0. -1.
<mgrwt>
<rscale>  1 0.30000000E+03</rscale>
<asrwt>0</asrwt>
<pdfrwt beam="1">  1       21 0.17062278E-01 0.30000000E+03</pdfrwt>
<pdfrwt beam="2">0</pdfrwt>
<totfact> 0.32392558E+03</totfact>
</mgrwt>
</event>
<event>
 6    1  0.1198667E-001  0.3000000E+03  0.7818608E-02  0.1093470E+00
         21   -1    0    0  501  502  0.00000000000E+00  0.00000000000E+00  0.14777804770E+01  0.14777804770E+01  0.00000000000E+00 0. -1.
         13   -1    0    0    0    0 -0.00000000000E+00 -0.00000000000E+00 -0.10000000000E+04  0.10000000000E+04  0.00000000000E+00 0.  1.
    9000005    2    1    2  501    0  0.95994792197E+00 -0.30429805984E+02 -0.80177379378E+03  0.80238775655E+03  0.76158313751E+01 0.  0.
         13    1    3    3    0    0  0.38268179276E+01 -0.13725199992E+02 -0.40999520945E+03  0.41024272988E+03  0.00000000000E+00 0.  1.
          3    1    3    3  501    0 -0.28668700056E+01 -0.16704605991E+02 -0.39177858433E+03  0.39214502667E+03  0.00000000000E+00 0.  1.
         -3    1    1    2    0  502 -0.95994792197E+00  0.30429805984E+02 -0.19674842574E+03  0.19909002392E+03  0.00000000000E+00 0. -1.
<mgrwt>
<rscale>  1 0.30000000E+03</rscale>
<asrwt>0</asrwt>
<pdfrwt beam="1">  1       21 0.53737585E-02 0.30000000E+03</pdfrwt>
<pdfrwt beam="2">0</pdfrwt>
<totfact> 0.25467420E+04</totfact>
</mgrwt>
</event>
<event>
 6    1  0.1198667E-001  0.3000000E+03  0.7818608E-02  0.1093470E+00
         21   -1    0    0  501  502  0.00000000000E+00  0.00000000000E+00  0.22346580224E+01  0.22346580224E+01  0.00000000000E+00 0. -1.
         13   -1    0    0    0    0 -0.00000000000E+00 -0.00000000000E+00 -0.10000000000E+04  0.10000000000E+04  0.00000000000E+00 0.  1.
    9000005    2    1    2  501    0  0.17871586274E+01  0.37844245184E+02 -0.79829879185E+03  0.79920193788E+03  0.27194869249E+01 0.  0.
         13    1    3    3    0    0  0.13154313744E+01  0.66074396553E+01 -0.14731785443E+03  0.14747182393E+03  0.00000000000E+00 0.  1.
          3    1    3    3  501    0  0.47172725298E+00  0.31236805528E+02 -0.65098093741E+03  0.65173011395E+03  0.00000000000E+00 0.  1.
         -3    1    1    2    0  502 -0.17871586274E+01 -0.37844245184E+02 -0.19946655013E+03  0.20303272015E+03  0.00000000000E+00 0. -1.
<mgrwt>
<rscale>  1 0.30000000E+03</rscale>
<asrwt>0</asrwt>
<pdfrwt beam="1">  1       21 0.81260463E-02 0.30000000E+03</pdfrwt>
<pdfrwt beam="2">0</pdfrwt>
<totfact> 0.12427732E+04</totfact>
</mgrwt>
</event>
<event>
 6    1  0.1198667E-001  0.3000000E+03  0.7818608E-02  0.1093470E+00
         21   -1    0    0  501  502  0.00000000000E+00  0.00000000000E+00  0.33927944812E+01  0.33927944812E+01  0.00000000000E+00 0. -1.
         13   -1    0    0    0    0 -0.00000000000E+00 -0.00000000000E+00 -0.10000000000E+04  0.10000000000E+04  0.00000000000E+00 0.  1.
    9000005    2    1    2  501    0  0.36990879690E+02 -0.85969226271E+01 -0.87742313099E+03  0.87830452213E+03  0.10259168394E+02 0.  0.
         13    1    3    3    0    0 -0.85585801404E-02  0.82620362428E+00 -0.77995094379E+01  0.78431519907E+01  0.00000000000E+00 0.  1.
          1    1    3    3  501    0  0.36999438270E+02 -0.94231262514E+01 -0.86962362155E+03  0.87046137014E+03  0.00000000000E+00 0.  1.
         -3    1    1    2    0  502 -0.36990879690E+02  0.85969226271E+01 -0.11918407453E+03  0.12508827235E+03  0.00000000000E+00 0. -1.
<mgrwt>
<rscale>  1 0.30000000E+03</rscale>
<asrwt>0</asrwt>
<pdfrwt beam="1">  1       21 0.12337460E-01 0.30000000E+03</pdfrwt>
<pdfrwt beam="2">0</pdfrwt>
<totfact> 0.58924485E+03</totfact>
</mgrwt>
</event>
<event>
 6    1  0.1198667E-001  0.3000000E+03  0.7818608E-02  0.1093470E+00
         21   -1    0    0  501  502  0.00000000000E+00  0.00000000000E+00  0.22318075543E+01  0.22318075543E+01  0.00000000000E+00 0. -1.
         13   -1    0    0    0    0 -0.00000000000E+00 -0.00000000000E+00 -0.10000000000E+04  0.10000000000E+04  0.00000000000E+00 0.  1.
    9000005    2    1    2  501    0 -0.26651912825E+02  0.37564907228E+02 -0.60811335322E+03  0.60986419875E+03  0.33232260896E+01 0.  0.
         13    1    3    3    0    0 -0.15522451556E+02  0.22518476612E+02 -0.33977699101E+03  0.34087597731E+03  0.00000000000E+00 0.  1.
          1    1    3    3  501    0 -0.11129461269E+02  0.15046430617E+02 -0.26833636221E+03  0.26898822143E+03  0.00000000000E+00 0.  1.
         -1    1    1    2    0  502  0.26651912825E+02 -0.37564907228E+02 -0.38965483922E+03  0.39236760881E+03  0.00000000000E+00 0. -1.
<mgrwt>
<rscale>  1 0.30000000E+03</rscale>
<asrwt>0</asrwt>
<pdfrwt beam="1">  1       21 0.81156809E-02 0.30000000E+03</pdfrwt>
<pdfrwt beam="2">0</pdfrwt>
<totfact> 0.12455650E+04</totfact>
</mgrwt>
</event>
<event>
 6    1  0.1198667E-001  0.3000000E+03  0.7818608E-02  0.1093470E+00
         21   -1    0    0  501  502  0.00000000000E+00  0.00000000000E+00  0.13854199700E+01  0.13854199700E+01  0.00000000000E+00 0. -1.
         13   -1    0    0    0    0 -0.00000000000E+00 -0.00000000000E+00 -0.10000000000E+04  0.10000000000E+04  0.00000000000E+00 0.  1.
    9000005    2    1    2  501    0 -0.19866942025E+02 -0.26642037627E+02 -0.72401534627E+03  0.72478239624E+03  0.26089677054E+01 0.  0.
         13    1    3    3    0    0 -0.62843600090E+01 -0.86537282827E+01 -0.26011098316E+03  0.26033075837E+03  0.00000000000E+00 0.  1.
          3    1    3    3  501    0 -0.13582582016E+02 -0.17988309344E+02 -0.46390436311E+03  0.46445163787E+03  0.00000000000E+00 0.  1.
         -3    1    1    2    0  502  0.19866942025E+02  0.26642037627E+02 -0.27459923376E+03  0.27660302373E+03  0.00000000000E+00 0. -1.
<mgrwt>
<rscale>  1 0.30000000E+03</rscale>
<asrwt>0</asrwt>
<pdfrwt beam="1">  1       21 0.50379014E-02 0.30000000E+03</pdfrwt>
<pdfrwt beam="2">0</pdfrwt>
<totfact> 0.28436144E+04</totfact>
</mgrwt>
</event>
<event>
 6    1  0.1198667E-001  0.3000000E+03  0.7818608E-02  0.1093470E+00
         21   -1    0    0  501  502  0.00000000000E+00  0.00000000000E+00  0.19928150532E+01  0.19928150532E+01  0.00000000000E+00 0. -1.
         13   -1    0    0    0    0 -0.00000000000E+00 -0.00000000000E+00 -0.10000000000E+04  0.10000000000E+04  0.00000000000E+00 0.  1.
    9000005    2    1    2  501    0  0.15992897185E+02 -0.37109894144E+02 -0.71090750857E+03  0.71206326985E+03  0.34201652131E+01 0.  0.
         13    1    3    3    0    0  0.64299021372E+01 -0.16166067064E+02 -0.33475039601E+03  0.33520219718E+03  0.00000000000E+00 0.  1.
          1    1    3    3  501    0  0.95629950481E+01 -0.20943827080E+02 -0.37615711256E+03  0.37686107268E+03  0.00000000000E+00 0.  1.
         -1    1    1    2    0  502 -0.15992897185E+02  0.37109894144E+02 -0.28709967638E+03  0.28992954520E+03  0.00000000000E+00 0. -1.
<mgrwt>
<rscale>  1 0.30000000E+03</rscale>
<asrwt>0</asrwt>
<pdfrwt beam="1">  1       21 0.72466155E-02 0.30000000E+03</pdfrwt>
<pdfrwt beam="2">0</pdfrwt>
<totfact> 0.15190378E+04</totfact>
</mgrwt>
</event>
<event>
 6    1  0.1198667E-001  0.3000000E+03  0.7818608E-02  0.1093470E+00
         21   -1    0    0  501  502  0.00000000000E+00  0.00000000000E+00  0.21542389738E+01  0.21542389738E+01  0.00000000000E+00 0. -1.
         13   -1    0    0    0    0 -0.00000000000E+00 -0.00000000000E+00 -0.10000000000E+04  0.10000000000E+04  0.00000000000E+00 0.  1.
    9000005    2    1    2  501    0  0.29934942759E+02 -0.74535589717E+01 -0.87276361584E+03  0.87332412066E+03  0.51994480698E+01 0.  0.
         13    1    3    3    0    0  0.96751348820E+01 -0.15153466035E+01 -0.34356144784E+03  0.34370099353E+03  0.00000000000E+00 0.  1.
          3    1    3    3  501    0  0.20259807877E+02 -0.59382123682E+01 -0.52920216800E+03  0.52962312714E+03  0.00000000000E+00 0.  1.
         -1    1    1    2    0  502 -0.29934942759E+02  0.74535589717E+01 -0.12508214519E+03  0.12883011831E+03  0.00000000000E+00 0. -1.
<mgrwt>
<rscale>  1 0.30000000E+03</rscale>
<asrwt>0</asrwt>
<pdfrwt beam="1">  1       21 0.78336128E-02 0.30000000E+03</pdfrwt>
<pdfrwt beam="2">0</pdfrwt>
<totfact> 0.13253968E+04</totfact>
</mgrwt>
</event>
<event>
 6    1  0.1198667E-001  0.3000000E+03  0.7818608E-02  0.1093470E+00
         21   -1    0    0  501  502  0.00000000000E+00  0.00000000000E+00  0.17953839763E+01  0.17953839763E+01  0.00000000000E+00 0. -1.
         13   -1    0    0    0    0 -0.00000000000E+00 -0.00000000000E+00 -0.10000000000E+04  0.10000000000E+04  0.00000000000E+00 0.  1.
    9000005    2    1    2  501    0  0.17702520353E+02 -0.36249869376E+02 -0.34970355727E+03  0.35204077225E+03  0.35630185917E+01 0.  0.
         13    1    3    3    0    0  0.69360262698E+01 -0.11074567750E+02 -0.12133288960E+03  0.12203452221E+03  0.00000000000E+00 0.  1.
          3    1    3    3  501    0  0.10766494084E+02 -0.25175301626E+02 -0.22837066766E+03  0.23000625004E+03  0.00000000000E+00 0.  1.
         -3    1    1    2    0  502 -0.17702520353E+02  0.36249869376E+02 -0.64850105876E+03  0.64975461173E+03  0.00000000000E+00 0. -1.
<mgrwt>
<rscale>  1 0.30000000E+03</rscale>
<asrwt>0</asrwt>
<pdfrwt beam="1">  1       21 0.65286828E-02 0.30000000E+03</pdfrwt>
<pdfrwt beam="2">0</pdfrwt>
<totfact> 0.18210670E+04</totfact>
</mgrwt>
</event>
<event>
 6    1  0.1198667E-001  0.3000000E+03  0.7818608E-02  0.1093470E+00
         21   -1    0    0  501  502  0.00000000000E+00  0.00000000000E+00  0.75073501067E+01  0.75073501067E+01  0.00000000000E+00 0. -1.
         13   -1    0    0    0    0 -0.00000000000E+00 -0.00000000000E+00 -0.10000000000E+04  0.10000000000E+04  0.00000000000E+00 0.  1.
    9000005    2    1    2  501    0  0.38788697335E+01  0.85125798243E+02 -0.58634977898E+03  0.59252123136E+03  0.37281561109E+01 0.  0.
         13    1    3    3    0    0  0.78981255778E+00  0.58937775306E+01 -0.46768072483E+02  0.47144596946E+02  0.00000000000E+00 0.  1.
          3    1    3    3  501    0  0.30890571757E+01  0.79232020713E+02 -0.53958170650E+03  0.54537663442E+03  0.00000000000E+00 0.  1.
         -3    1    1    2    0  502 -0.38788697335E+01 -0.85125798243E+02 -0.40614287091E+03  0.41498611874E+03  0.00000000000E+00 0. -1.
<mgrwt>
<rscale>  1 0.30000000E+03</rscale>
<asrwt>0</asrwt>
<pdfrwt beam="1">  1       21 0.27299513E-01 0.30000000E+03</pdfrwt>
<pdfrwt beam="2">0</pdfrwt>
<totfact> 0.13115702E+03</totfact>
</mgrwt>
</event>
<event>
 6    1  0.1198667E-001  0.3000000E+03  0.7818608E-02  0.1093470E+00
         21   -1    0    0  501  502  0.00000000000E+00  0.00000000000E+00  0.10317856567E+01  0.10317856567E+01  0.00000000000E+00 0. -1.
         13   -1    0    0    0    0 -0.00000000000E+00 -0.00000000000E+00 -0.10000000000E+04  0.10000000000E+04  0.00000000000E+00 0.  1.
    9000005    2    1    2  501    0  0.19037325470E+01  0.31935372309E+02 -0.52539037712E+03  0.52637458292E+03  0.34148162754E+01 0.  0.
         13    1    3    3    0    0  0.73968933258E+00  0.19524274641E+02 -0.29378333717E+03  0.29443232438E+03  0.00000000000E+00 0.  1.
          1    1    3    3  501    0  0.11640432144E+01  0.12411097668E+02 -0.23160703996E+03  0.23194225855E+03  0.00000000000E+00 0.  1.
         -1    1    1    2    0  502 -0.19037325470E+01 -0.31935372309E+02 -0.47357783722E+03  0.47465720273E+03  0.00000000000E+00 0. -1.
<mgrwt>
<rscale>  1 0.30000000E+03</rscale>
<asrwt>0</asrwt>
<pdfrwt beam="1">  1       21 0.37519558E-02 0.30000000E+03</pdfrwt>
<pdfrwt beam="2">0</pdfrwt>
<totfact> 0.46826256E+04</totfact>
</mgrwt>
</event>
<event>
 6    1  0.1198667E-001  0.3000000E+03  0.7818608E-02  0.1093470E+00
         21   -1    0    0  501  502  0.00000000000E+00  0.00000000000E+00  0.15102952321E+01  0.15102952321E+01  0.00000000000E+00 0. -1.
         13   -1    0    0    0    0 -0.00000000000E+00 -0.00000000000E+00 -0.10000000000E+04  0.10000000000E+04  0.00000000000E+00 0.  1.
    9000005    2    1    2  501    0 -0.21572959438E+02  0.24956237528E+02 -0.76328588562E+03  0.76400441549E+03  0.30327101103E+01 0.  0.
         13    1    3    3    0    0 -0.24526390363E+01  0.25620138092E+01 -0.10587163944E+03  0.10593103129E+03  0.00000000000E+00 0.  1.
          1    1    3    3  501    0 -0.19120320401E+02  0.22394223718E+02 -0.65741424618E+03  0.65807338420E+03  0.00000000000E+00 0.  1.
         -1    1    1    2    0  502  0.21572959438E+02 -0.24956237528E+02 -0.23520381915E+03  0.23750587974E+03  0.00000000000E+00 0. -1.
<mgrwt>
<rscale>  1 0.30000000E+03</rscale>
<asrwt>0</asrwt>
<pdfrwt beam="1">  1       21 0.54919942E-02 0.30000000E+03</pdfrwt>
<pdfrwt beam="2">0</pdfrwt>
<totfact> 0.24535351E+04</totfact>
</mgrwt>
</event>
<event>
 6    1  0.1198667E-001  0.3000000E+03  0.7818608E-02  0.1093470E+00
         21   -1    0    0  501  502  0.00000000000E+00  0.00000000000E+00  0.10933207467E+01  0.10933207467E+01  0.00000000000E+00 0. -1.
         13   -1    0    0    0    0 -0.00000000000E+00 -0.00000000000E+00 -0.10000000000E+04  0.10000000000E+04  0.00000000000E+00 0.  1.
    9000005    2    1    2  501    0 -0.24413818170E+02 -0.21895494299E+02 -0.44786438660E+03  0.44907606062E+03  0.33693095080E+01 0.  0.
         13    1    3    3    0    0 -0.10594443961E+02 -0.10815228353E+02 -0.22511360529E+03  0.22562213255E+03  0.00000000000E+00 0.  1.
          3    1    3    3  501    0 -0.13819374209E+02 -0.11080265947E+02 -0.22275078131E+03  0.22345392807E+03  0.00000000000E+00 0.  1.
         -1    1    1    2    0  502  0.24413818170E+02  0.21895494299E+02 -0.55104229265E+03  0.55201726013E+03  0.00000000000E+00 0. -1.
<mgrwt>
<rscale>  1 0.30000000E+03</rscale>
<asrwt>0</asrwt>
<pdfrwt beam="1">  1       21 0.39757202E-02 0.30000000E+03</pdfrwt>
<pdfrwt beam="2">0</pdfrwt>
<totfact> 0.42480592E+04</totfact>
</mgrwt>
</event>
<event>
 6    1  0.1198667E-001  0.3000000E+03  0.7818608E-02  0.1093470E+00
         21   -1    0    0  501  502  0.00000000000E+00  0.00000000000E+00  0.10331117052E+01  0.10331117052E+01  0.00000000000E+00 0. -1.
         13   -1    0    0    0    0 -0.00000000000E+00 -0.00000000000E+00 -0.10000000000E+04  0.10000000000E+04  0.00000000000E+00 0.  1.
    9000005    2    1    2  501    0  0.14833644090E+02  0.27684734911E+02 -0.40183974808E+03  0.40308051900E+03  0.34985875189E+01 0.  0.
         13    1    3    3    0    0  0.47993611951E+01  0.70918018324E+01 -0.12649082345E+03  0.12678034524E+03  0.00000000000E+00 0.  1.
          1    1    3    3  501    0  0.10034282895E+02  0.20592933079E+02 -0.27534892463E+03  0.27630017376E+03  0.00000000000E+00 0.  1.
         -1    1    1    2    0  502 -0.14833644090E+02 -0.27684734911E+02 -0.59712714021E+03  0.59795259271E+03  0.00000000000E+00 0. -1.
<mgrwt>
<rscale>  1 0.30000000E+03</rscale>
<asrwt>0</asrwt>
<pdfrwt beam="1">  1       21 0.37567778E-02 0.30000000E+03</pdfrwt>
<pdfrwt beam="2">0</pdfrwt>
<totfact> 0.46725364E+04</totfact>
</mgrwt>
</event>
<event>
 6    1  0.1198667E-001  0.3000000E+03  0.7818608E-02  0.1093470E+00
         21   -1    0    0  501  502  0.00000000000E+00  0.00000000000E+00  0.40410178064E+01  0.40410178064E+01  0.00000000000E+00 0. -1.
         13   -1    0    0    0    0 -0.00000000000E+00 -0.00000000000E+00 -0.10000000000E+04  0.10000000000E+04  0.00000000000E+00 0.  1.
    9000005    2    1    2  501    0  0.36670085527E+02 -0.42138745173E+02 -0.73672351086E+03  0.73885542503E+03  0.50436721398E+01 0.  0.
         13    1    3    3    0    0  0.68123682681E+01 -0.51248169076E+01 -0.10776897686E+03  0.10810561726E+03  0.00000000000E+00 0.  1.
          1    1    3    3  501    0  0.29857717259E+02 -0.37013928265E+02 -0.62895453400E+03  0.63074980778E+03  0.00000000000E+00 0.  1.
         -1    1    1    2    0  502 -0.36670085527E+02  0.42138745173E+02 -0.25923547133E+03  0.26518559277E+03  0.00000000000E+00 0. -1.
<mgrwt>
<rscale>  1 0.30000000E+03</rscale>
<asrwt>0</asrwt>
<pdfrwt beam="1">  1       21 0.14694641E-01 0.30000000E+03</pdfrwt>
<pdfrwt beam="2">0</pdfrwt>
<totfact> 0.42776271E+03</totfact>
</mgrwt>
</event>
<event>
 6    1  0.1198667E-001  0.3000000E+03  0.7818608E-02  0.1093470E+00
         21   -1    0    0  501  502  0.00000000000E+00  0.00000000000E+00  0.13713669480E+01  0.13713669480E+01  0.00000000000E+00 0. -1.
         13   -1    0    0    0    0 -0.00000000000E+00 -0.00000000000E+00 -0.10000000000E+04  0.10000000000E+04  0.00000000000E+00 0.  1.
    9000005    2    1    2  501    0 -0.32459936496E+02  0.11569419276E+02 -0.68102753057E+03  0.68190625267E+03  0.31845098824E+01 0.  0.
         13    1    3    3    0    0 -0.20274946095E+02  0.56784371134E+01 -0.42506008434E+03  0.42558124182E+03  0.00000000000E+00 0.  1.
          3    1    3    3  501    0 -0.12184990401E+02  0.58909821624E+01 -0.25596744622E+03  0.25632501085E+03  0.00000000000E+00 0.  1.
         -3    1    1    2    0  502  0.32459936496E+02 -0.11569419276E+02 -0.31760110249E+03  0.31946511428E+03  0.00000000000E+00 0. -1.
<mgrwt>
<rscale>  1 0.30000000E+03</rscale>
<asrwt>0</asrwt>
<pdfrwt beam="1">  1       21 0.49867994E-02 0.30000000E+03</pdfrwt>
<pdfrwt beam="2">0</pdfrwt>
<totfact> 0.28934751E+04</totfact>
</mgrwt>
</event>
<event>
 6    1  0.1198667E-001  0.3000000E+03  0.7818608E-02  0.1093470E+00
         21   -1    0    0  501  502  0.00000000000E+00  0.00000000000E+00  0.98693380095E+00  0.98693380095E+00  0.00000000000E+00 0. -1.
         13   -1    0    0    0    0 -0.00000000000E+00 -0.00000000000E+00 -0.10000000000E+04  0.10000000000E+04  0.00000000000E+00 0.  1.
    9000005    2    1    2  501    0  0.59237075745E+01 -0.30356495111E+02 -0.58128347329E+03  0.58211389827E+03  0.30833628962E+01 0.  0.
         13    1    3    3    0    0  0.81811562762E+00 -0.10653242711E+01 -0.27630090569E+02  0.27662721012E+02  0.00000000000E+00 0.  1.
          1    1    3    3  501    0  0.51055919468E+01 -0.29291170840E+02 -0.55365338272E+03  0.55445117725E+03  0.00000000000E+00 0.  1.
         -3    1    1    2    0  502 -0.59237075745E+01  0.30356495111E+02 -0.41772959291E+03  0.41887303553E+03  0.00000000000E+00 0. -1.
<mgrwt>
<rscale>  1 0.30000000E+03</rscale>
<asrwt>0</asrwt>
<pdfrwt beam="1">  1       21 0.35888578E-02 0.30000000E+03</pdfrwt>
<pdfrwt beam="2">0</pdfrwt>
<totfact> 0.50451884E+04</totfact>
</mgrwt>
</event>
<event>
 6    1  0.1198667E-001  0.3000000E+03  0.7818608E-02  0.1093470E+00
         21   -1    0    0  501  502  0.00000000000E+00  0.00000000000E+00  0.28279092817E+01  0.28279092817E+01  0.00000000000E+00 0. -1.
         13   -1    0    0    0    0 -0.00000000000E+00 -0.00000000000E+00 -0.10000000000E+04  0.10000000000E+04  0.00000000000E+00 0.  1.
    9000005    2    1    2  501    0  0.32532956796E+02 -0.21339589473E+02 -0.84019112223E+03  0.84109728193E+03  0.31216078259E+01 0.  0.
         13    1    3    3    0    0  0.99063250882E+01 -0.66699473562E+01 -0.22802719259E+03  0.22833971190E+03  0.00000000000E+00 0.  1.
          1    1    3    3  501    0  0.22626631708E+02 -0.14669642117E+02 -0.61216392964E+03  0.61275757002E+03  0.00000000000E+00 0.  1.
         -3    1    1    2    0  502 -0.32532956796E+02  0.21339589473E+02 -0.15698096849E+03  0.16173062736E+03  0.00000000000E+00 0. -1.
<mgrwt>
<rscale>  1 0.30000000E+03</rscale>
<asrwt>0</asrwt>
<pdfrwt beam="1">  1       21 0.10283328E-01 0.30000000E+03</pdfrwt>
<pdfrwt beam="2">0</pdfrwt>
<totfact> 0.81838991E+03</totfact>
</mgrwt>
</event>
<event>
 6    1  0.1198667E-001  0.3000000E+03  0.7818608E-02  0.1093470E+00
         21   -1    0    0  501  502  0.00000000000E+00  0.00000000000E+00  0.47220889628E+01  0.47220889628E+01  0.00000000000E+00 0. -1.
         13   -1    0    0    0    0 -0.00000000000E+00 -0.00000000000E+00 -0.10000000000E+04  0.10000000000E+04  0.00000000000E+00 0.  1.
    9000005    2    1    2  501    0 -0.45925032179E+02  0.22074664313E+02 -0.16172504423E+03  0.16961324507E+03  0.41549472719E+01 0.  0.
         13    1    3    3    0    0 -0.21200428285E+02  0.12493022154E+02 -0.77671491555E+02  0.81476342348E+02  0.00000000000E+00 0.  1.
          3    1    3    3  501    0 -0.24724603894E+02  0.95816421596E+01 -0.84053552673E+02  0.88136902721E+02  0.00000000000E+00 0.  1.
         -3    1    1    2    0  502  0.45925032179E+02 -0.22074664313E+02 -0.83355286681E+03  0.83510884389E+03  0.00000000000E+00 0. -1.
<mgrwt>
<rscale>  1 0.30000000E+03</rscale>
<asrwt>0</asrwt>
<pdfrwt beam="1">  1       21 0.17171269E-01 0.30000000E+03</pdfrwt>
<pdfrwt beam="2">0</pdfrwt>
<totfact> 0.32008306E+03</totfact>
</mgrwt>
</event>
<event>
 6    1  0.1198667E-001  0.3000000E+03  0.7818608E-02  0.1093470E+00
         21   -1    0    0  501  502  0.00000000000E+00  0.00000000000E+00  0.13587597412E+01  0.13587597412E+01  0.00000000000E+00 0. -1.
         13   -1    0    0    0    0 -0.00000000000E+00 -0.00000000000E+00 -0.10000000000E+04  0.10000000000E+04  0.00000000000E+00 0.  1.
    9000005    2    1    2  501    0  0.18326723168E+02  0.29263735642E+02 -0.67299629548E+03  0.67388835640E+03  0.30443641469E+01 0.  0.
         13    1    3    3    0    0  0.14266659667E+01  0.25578104562E+01 -0.75535976239E+02  0.75592734283E+02  0.00000000000E+00 0.  1.
          1    1    3    3  501    0  0.16900057201E+02  0.26705925186E+02 -0.59746031924E+03  0.59829562212E+03  0.00000000000E+00 0.  1.
         -3    1    1    2    0  502 -0.18326723168E+02 -0.29263735642E+02 -0.32564494478E+03  0.32747040334E+03  0.00000000000E+00 0. -1.
<mgrwt>
<rscale>  1 0.30000000E+03</rscale>
<asrwt>0</asrwt>
<pdfrwt beam="1">  1       21 0.49409549E-02 0.30000000E+03</pdfrwt>
<pdfrwt beam="2">0</pdfrwt>
<totfact> 0.29393751E+04</totfact>
</mgrwt>
</event>
<event>
 6    1  0.1198667E-001  0.3000000E+03  0.7818608E-02  0.1093470E+00
         21   -1    0    0  501  502  0.00000000000E+00  0.00000000000E+00  0.27112558758E+01  0.27112558758E+01  0.00000000000E+00 0. -1.
         13   -1    0    0    0    0 -0.00000000000E+00 -0.00000000000E+00 -0.10000000000E+04  0.10000000000E+04  0.00000000000E+00 0.  1.
    9000005    2    1    2  501    0  0.73683680725E+01 -0.34875164457E+02 -0.86393467116E+03  0.86467546805E+03  0.31589674162E+01 0.  0.
         13    1    3    3    0    0  0.67791627074E+01 -0.29584070262E+02 -0.70892348512E+03  0.70957288703E+03  0.00000000000E+00 0.  1.
          1    1    3    3  501    0  0.58920536512E+00 -0.52910941952E+01 -0.15501118604E+03  0.15510258101E+03  0.00000000000E+00 0.  1.
         -1    1    1    2    0  502 -0.73683680725E+01  0.34875164457E+02 -0.13335407297E+03  0.13803578783E+03  0.00000000000E+00 0. -1.
<mgrwt>
<rscale>  1 0.30000000E+03</rscale>
<asrwt>0</asrwt>
<pdfrwt beam="1">  1       21 0.98591331E-02 0.30000000E+03</pdfrwt>
<pdfrwt beam="2">0</pdfrwt>
<totfact> 0.88239802E+03</totfact>
</mgrwt>
</event>
<event>
 6    1  0.1198667E-001  0.3000000E+03  0.7818608E-02  0.1093470E+00
         21   -1    0    0  501  502  0.00000000000E+00  0.00000000000E+00  0.25283089796E+01  0.25283089796E+01  0.00000000000E+00 0. -1.
         13   -1    0    0    0    0 -0.00000000000E+00 -0.00000000000E+00 -0.10000000000E+04  0.10000000000E+04  0.00000000000E+00 0.  1.
    9000005    2    1    2  501    0  0.23367151452E+02 -0.31042440578E+02 -0.81659864009E+03  0.81752907267E+03  0.32846266095E+01 0.  0.
         13    1    3    3    0    0  0.55438624010E+01 -0.57327075663E+01 -0.18672237712E+03  0.18689260142E+03  0.00000000000E+00 0.  1.
          1    1    3    3  501    0  0.17823289051E+02 -0.25309733011E+02 -0.62987626297E+03  0.63063647125E+03  0.00000000000E+00 0.  1.
         -1    1    1    2    0  502 -0.23367151452E+02  0.31042440578E+02 -0.18087305093E+03  0.18499923631E+03  0.00000000000E+00 0. -1.
<mgrwt>
<rscale>  1 0.30000000E+03</rscale>
<asrwt>0</asrwt>
<pdfrwt beam="1">  1       21 0.91938702E-02 0.30000000E+03</pdfrwt>
<pdfrwt beam="2">0</pdfrwt>
<totfact> 0.99931589E+03</totfact>
</mgrwt>
</event>
<event>
 6    1  0.1198667E-001  0.3000000E+03  0.7818608E-02  0.1093470E+00
         21   -1    0    0  501  502  0.00000000000E+00  0.00000000000E+00  0.27621324344E+01  0.27621324344E+01  0.00000000000E+00 0. -1.
         13   -1    0    0    0    0 -0.00000000000E+00 -0.00000000000E+00 -0.10000000000E+04  0.10000000000E+04  0.00000000000E+00 0.  1.
    9000005    2    1    2  501    0 -0.34323833916E+02 -0.36190961065E+02 -0.65250681595E+03  0.65444129013E+03  0.63518599609E+01 0.  0.
         13    1    3    3    0    0 -0.12650190409E+02 -0.99152599022E+01 -0.18647489193E+03  0.18716630310E+03  0.00000000000E+00 0.  1.
          3    1    3    3  501    0 -0.21673643506E+02 -0.26275701162E+02 -0.46603192402E+03  0.46727498703E+03  0.00000000000E+00 0.  1.
         -3    1    1    2    0  502  0.34323833916E+02  0.36190961065E+02 -0.34473105162E+03  0.34832084231E+03  0.00000000000E+00 0. -1.
<mgrwt>
<rscale>  1 0.30000000E+03</rscale>
<asrwt>0</asrwt>
<pdfrwt beam="1">  1       21 0.10044139E-01 0.30000000E+03</pdfrwt>
<pdfrwt beam="2">0</pdfrwt>
<totfact> 0.85357509E+03</totfact>
</mgrwt>
</event>
<event>
 6    1  0.1198667E-001  0.3000000E+03  0.7818608E-02  0.1093470E+00
         21   -1    0    0  501  502  0.00000000000E+00  0.00000000000E+00  0.11472666697E+01  0.11472666697E+01  0.00000000000E+00 0. -1.
         13   -1    0    0    0    0 -0.00000000000E+00 -0.00000000000E+00 -0.10000000000E+04  0.10000000000E+04  0.00000000000E+00 0.  1.
    9000005    2    1    2  501    0  0.36758578563E+01 -0.33445429708E+02 -0.45679790121E+03  0.45804916344E+03  0.35503359050E+01 0.  0.
         13    1    3    3    0    0  0.42101335529E+01 -0.29748773916E+02 -0.41381174798E+03  0.41490104548E+03  0.00000000000E+00 0.  1.
          1    1    3    3  501    0 -0.53427569659E+00 -0.36966557929E+01 -0.42986153224E+02  0.43148117961E+02  0.00000000000E+00 0.  1.
         -3    1    1    2    0  502 -0.36758578563E+01  0.33445429708E+02 -0.54205483212E+03  0.54309810323E+03  0.00000000000E+00 0. -1.
<mgrwt>
<rscale>  1 0.30000000E+03</rscale>
<asrwt>0</asrwt>
<pdfrwt beam="1">  1       21 0.41718876E-02 0.30000000E+03</pdfrwt>
<pdfrwt beam="2">0</pdfrwt>
<totfact> 0.39168055E+04</totfact>
</mgrwt>
</event>
<event>
 6    1  0.1198667E-001  0.3000000E+03  0.7818608E-02  0.1093470E+00
         21   -1    0    0  501  502  0.00000000000E+00  0.00000000000E+00  0.31732861459E+01  0.31732861459E+01  0.00000000000E+00 0. -1.
         13   -1    0    0    0    0 -0.00000000000E+00 -0.00000000000E+00 -0.10000000000E+04  0.10000000000E+04  0.00000000000E+00 0.  1.
    9000005    2    1    2  501    0  0.36319799845E+02 -0.42131903717E+02 -0.57522046801E+03  0.57791330483E+03  0.33129916539E+01 0.  0.
         13    1    3    3    0    0  0.13293343876E+02 -0.16001251405E+02 -0.19918483576E+03  0.20026819976E+03  0.00000000000E+00 0.  1.
          1    1    3    3  501    0  0.23026455969E+02 -0.26130652312E+02 -0.37603563225E+03  0.37764510507E+03  0.00000000000E+00 0.  1.
         -1    1    1    2    0  502 -0.36319799845E+02  0.42131903717E+02 -0.42160624584E+03  0.42525998131E+03  0.00000000000E+00 0. -1.
<mgrwt>
<rscale>  1 0.30000000E+03</rscale>
<asrwt>0</asrwt>
<pdfrwt beam="1">  1       21 0.11539247E-01 0.30000000E+03</pdfrwt>
<pdfrwt beam="2">0</pdfrwt>
<totfact> 0.66524749E+03</totfact>
</mgrwt>
</event>
<event>
 6    1  0.1198667E-001  0.3000000E+03  0.7818608E-02  0.1093470E+00
         21   -1    0    0  501  502  0.00000000000E+00  0.00000000000E+00  0.13219966059E+01  0.13219966059E+01  0.00000000000E+00 0. -1.
         13   -1    0    0    0    0 -0.00000000000E+00 -0.00000000000E+00 -0.10000000000E+04  0.10000000000E+04  0.00000000000E+00 0.  1.
    9000005    2    1    2  501    0  0.31275594287E+02 -0.15086976212E+02 -0.64527042288E+03  0.64621258020E+03  0.33167042087E+01 0.  0.
         13    1    3    3    0    0  0.15909465292E+02 -0.72468557088E+01 -0.29488696811E+03  0.29540472570E+03  0.00000000000E+00 0.  1.
          1    1    3    3  501    0  0.15366128995E+02 -0.78401205036E+01 -0.35038345477E+03  0.35080785451E+03  0.00000000000E+00 0.  1.
         -3    1    1    2    0  502 -0.31275594287E+02  0.15086976212E+02 -0.35340758052E+03  0.35510941640E+03  0.00000000000E+00 0. -1.
<mgrwt>
<rscale>  1 0.30000000E+03</rscale>
<asrwt>0</asrwt>
<pdfrwt beam="1">  1       21 0.48072705E-02 0.30000000E+03</pdfrwt>
<pdfrwt beam="2">0</pdfrwt>
<totfact> 0.30799115E+04</totfact>
</mgrwt>
</event>
<event>
 6    1  0.1198667E-001  0.3000000E+03  0.7818608E-02  0.1093470E+00
         21   -1    0    0  501  502  0.00000000000E+00  0.00000000000E+00  0.20443160733E+01  0.20443160733E+01  0.00000000000E+00 0. -1.
         13   -1    0    0    0    0 -0.00000000000E+00 -0.00000000000E+00 -0.10000000000E+04  0.10000000000E+04  0.00000000000E+00 0.  1.
    9000005    2    1    2  501    0 -0.42562979433E+02  0.15097249378E+02 -0.49953092945E+03  0.50157776371E+03  0.30934473529E+01 0.  0.
         13    1    3    3    0    0 -0.38718979648E+02  0.12954184624E+02 -0.45664638521E+03  0.45846798297E+03  0.00000000000E+00 0.  1.
          3    1    3    3  501    0 -0.38439997841E+01  0.21430647532E+01 -0.42884544237E+02  0.43109780738E+02  0.00000000000E+00 0.  1.
         -1    1    1    2    0  502  0.42562979433E+02 -0.15097249378E+02 -0.49842475448E+03  0.50046655236E+03  0.00000000000E+00 0. -1.
<mgrwt>
<rscale>  1 0.30000000E+03</rscale>
<asrwt>0</asrwt>
<pdfrwt beam="1">  1       21 0.74338923E-02 0.30000000E+03</pdfrwt>
<pdfrwt beam="2">0</pdfrwt>
<totfact> 0.14527879E+04</totfact>
</mgrwt>
</event>
<event>
 6    1  0.1198667E-001  0.3000000E+03  0.7818608E-02  0.1093470E+00
         21   -1    0    0  501  502  0.00000000000E+00  0.00000000000E+00  0.10174653882E+01  0.10174653882E+01  0.00000000000E+00 0. -1.
         13   -1    0    0    0    0 -0.00000000000E+00 -0.00000000000E+00 -0.10000000000E+04  0.10000000000E+04  0.00000000000E+00 0.  1.
    9000005    2    1    2  501    0  0.16983543522E+02  0.25786874523E+02 -0.37997365336E+03  0.38123895760E+03  0.31244032146E+01 0.  0.
         13    1    3    3    0    0  0.11028579908E+02  0.14198189844E+02 -0.22817306624E+03  0.22888024451E+03  0.00000000000E+00 0.  1.
          1    1    3    3  501    0  0.59549636146E+01  0.11588684679E+02 -0.15180058712E+03  0.15235871309E+03  0.00000000000E+00 0.  1.
         -1    1    1    2    0  502 -0.16983543522E+02 -0.25786874523E+02 -0.61900888125E+03  0.61977850779E+03  0.00000000000E+00 0. -1.
<mgrwt>
<rscale>  1 0.30000000E+03</rscale>
<asrwt>0</asrwt>
<pdfrwt beam="1">  1       21 0.36998819E-02 0.30000000E+03</pdfrwt>
<pdfrwt beam="2">0</pdfrwt>
<totfact> 0.47938006E+04</totfact>
</mgrwt>
</event>
<event>
 6    1  0.1198667E-001  0.3000000E+03  0.7818608E-02  0.1093470E+00
         21   -1    0    0  501  502  0.00000000000E+00  0.00000000000E+00  0.30702535048E+01  0.30702535048E+01  0.00000000000E+00 0. -1.
         13   -1    0    0    0    0 -0.00000000000E+00 -0.00000000000E+00 -0.10000000000E+04  0.10000000000E+04  0.00000000000E+00 0.  1.
    9000005    2    1    2  501    0 -0.40808038245E+02 -0.36038283647E+00 -0.83748353113E+03  0.83848434446E+03  0.34503815308E+01 0.  0.
         13    1    3    3    0    0 -0.25952730833E+02 -0.18713129302E+01 -0.53712787308E+03  0.53775775037E+03  0.00000000000E+00 0.  1.
          1    1    3    3  501    0 -0.14855307412E+02  0.15109300937E+01 -0.30035565805E+03  0.30072659409E+03  0.00000000000E+00 0.  1.
         -3    1    1    2    0  502  0.40808038245E+02  0.36038283647E+00 -0.15944621537E+03  0.16458590905E+03  0.00000000000E+00 0. -1.
<mgrwt>
<rscale>  1 0.30000000E+03</rscale>
<asrwt>0</asrwt>
<pdfrwt beam="1">  1       21 0.11164582E-01 0.30000000E+03</pdfrwt>
<pdfrwt beam="2">0</pdfrwt>
<totfact> 0.70606982E+03</totfact>
</mgrwt>
</event>
<event>
 6    1  0.1198667E-001  0.3000000E+03  0.7818608E-02  0.1093470E+00
         21   -1    0    0  501  502  0.00000000000E+00  0.00000000000E+00  0.11609153512E+01  0.11609153512E+01  0.00000000000E+00 0. -1.
         13   -1    0    0    0    0 -0.00000000000E+00 -0.00000000000E+00 -0.10000000000E+04  0.10000000000E+04  0.00000000000E+00 0.  1.
    9000005    2    1    2  501    0  0.92872175925E+01  0.29445895408E+02 -0.70948011875E+03  0.71015932719E+03  0.33042283004E+01 0.  0.
         13    1    3    3    0    0  0.59338829584E+01  0.19656967920E+02 -0.43524072029E+03  0.43572478924E+03  0.00000000000E+00 0.  1.
          3    1    3    3  501    0  0.33533346342E+01  0.97889274889E+01 -0.27423939846E+03  0.27443453796E+03  0.00000000000E+00 0.  1.
         -1    1    1    2    0  502 -0.92872175925E+01 -0.29445895408E+02 -0.28935896589E+03  0.29100158816E+03  0.00000000000E+00 0. -1.
<mgrwt>
<rscale>  1 0.30000000E+03</rscale>
<asrwt>0</asrwt>
<pdfrwt beam="1">  1       21 0.42215193E-02 0.30000000E+03</pdfrwt>
<pdfrwt beam="2">0</pdfrwt>
<totfact> 0.38393639E+04</totfact>
</mgrwt>
</event>
<event>
 6    1  0.1198667E-001  0.3000000E+03  0.7818608E-02  0.1093470E+00
         21   -1    0    0  501  502  0.00000000000E+00  0.00000000000E+00  0.14072185294E+01  0.14072185294E+01  0.00000000000E+00 0. -1.
         13   -1    0    0    0    0 -0.00000000000E+00 -0.00000000000E+00 -0.10000000000E+04  0.10000000000E+04  0.00000000000E+00 0.  1.
    9000005    2    1    2  501    0 -0.66680044128E+01  0.29362476510E+02 -0.20320605934E+03  0.20545077810E+03  0.32714465081E+01 0.  0.
         13    1    3    3    0    0 -0.46628533285E+01  0.21163976787E+02 -0.15566803156E+03  0.15716931050E+03  0.00000000000E+00 0.  1.
          3    1    3    3  501    0 -0.20051510843E+01  0.81984997229E+01 -0.47538027778E+02  0.48281467600E+02  0.00000000000E+00 0.  1.
         -1    1    1    2    0  502  0.66680044128E+01 -0.29362476510E+02 -0.79538672213E+03  0.79595644043E+03  0.00000000000E+00 0. -1.
<mgrwt>
<rscale>  1 0.30000000E+03</rscale>
<asrwt>0</asrwt>
<pdfrwt beam="1">  1       21 0.51171691E-02 0.30000000E+03</pdfrwt>
<pdfrwt beam="2">0</pdfrwt>
<totfact> 0.27688754E+04</totfact>
</mgrwt>
</event>
<event>
 6    1  0.1198667E-001  0.3000000E+03  0.7818608E-02  0.1093470E+00
         21   -1    0    0  501  502  0.00000000000E+00  0.00000000000E+00  0.66641611000E+01  0.66641611000E+01  0.00000000000E+00 0. -1.
         13   -1    0    0    0    0 -0.00000000000E+00 -0.00000000000E+00 -0.10000000000E+04  0.10000000000E+04  0.00000000000E+00 0.  1.
    9000005    2    1    2  501    0 -0.46531304551E+02  0.19887836707E+02 -0.89157298158E+03  0.89301396320E+03  0.32967619989E+01 0.  0.
         13    1    3    3    0    0 -0.28182532617E+02  0.13702512451E+02 -0.54233888607E+03  0.54324348255E+03  0.00000000000E+00 0.  1.
          1    1    3    3  501    0 -0.18348771934E+02  0.61853242556E+01 -0.34923409551E+03  0.34977048065E+03  0.00000000000E+00 0.  1.
         -1    1    1    2    0  502  0.46531304551E+02 -0.19887836707E+02 -0.10176285732E+03  0.11365019790E+03  0.00000000000E+00 0. -1.
<mgrwt>
<rscale>  1 0.30000000E+03</rscale>
<asrwt>0</asrwt>
<pdfrwt beam="1">  1       21 0.24233364E-01 0.30000000E+03</pdfrwt>
<pdfrwt beam="2">0</pdfrwt>
<totfact> 0.16573889E+03</totfact>
</mgrwt>
</event>
<event>
 6    1  0.1198667E-001  0.3000000E+03  0.7818608E-02  0.1093470E+00
         21   -1    0    0  501  502  0.00000000000E+00  0.00000000000E+00  0.13189296627E+01  0.13189296627E+01  0.00000000000E+00 0. -1.
         13   -1    0    0    0    0 -0.00000000000E+00 -0.00000000000E+00 -0.10000000000E+04  0.10000000000E+04  0.00000000000E+00 0.  1.
    9000005    2    1    2  501    0 -0.31255034867E+02  0.15634384702E+02 -0.63250465851E+03  0.63347864399E+03  0.34260994120E+01 0.  0.
         13    1    3    3    0    0 -0.50249273576E+01  0.21593472021E+01 -0.12269064223E+03  0.12281248457E+03  0.00000000000E+00 0.  1.
          1    1    3    3  501    0 -0.26230107510E+02  0.13475037500E+02 -0.50981401629E+03  0.51066615942E+03  0.00000000000E+00 0.  1.
         -3    1    1    2    0  502  0.31255034867E+02 -0.15634384702E+02 -0.36617641182E+03  0.36784028567E+03  0.00000000000E+00 0. -1.
<mgrwt>
<rscale>  1 0.30000000E+03</rscale>
<asrwt>0</asrwt>
<pdfrwt beam="1">  1       21 0.47961180E-02 0.30000000E+03</pdfrwt>
<pdfrwt beam="2">0</pdfrwt>
<totfact> 0.30921082E+04</totfact>
</mgrwt>
</event>
<event>
 6    1  0.1198667E-001  0.3000000E+03  0.7818608E-02  0.1093470E+00
         21   -1    0    0  501  502  0.00000000000E+00  0.00000000000E+00  0.16503965816E+01  0.16503965816E+01  0.00000000000E+00 0. -1.
         13   -1    0    0    0    0 -0.00000000000E+00 -0.00000000000E+00 -0.10000000000E+04  0.10000000000E+04  0.00000000000E+00 0.  1.
    9000005    2    1    2  501    0 -0.44899231729E+00 -0.34160875284E+02 -0.76948147362E+03  0.77024644711E+03  0.32686457316E+01 0.  0.
         13    1    3    3    0    0  0.19756848116E+00 -0.69834037764E+00 -0.28868582424E+02  0.28877703575E+02  0.00000000000E+00 0.  1.
          3    1    3    3  501    0 -0.64656079845E+00 -0.33462534906E+02 -0.74061289120E+03  0.74136874353E+03  0.00000000000E+00 0.  1.
         -1    1    1    2    0  502  0.44899231729E+00  0.34160875284E+02 -0.22886812980E+03  0.23140394947E+03  0.00000000000E+00 0. -1.
<mgrwt>
<rscale>  1 0.30000000E+03</rscale>
<asrwt>0</asrwt>
<pdfrwt beam="1">  1       21 0.60014548E-02 0.30000000E+03</pdfrwt>
<pdfrwt beam="2">0</pdfrwt>
<totfact> 0.21062857E+04</totfact>
</mgrwt>
</event>
<event>
 6    1  0.1198667E-001  0.3000000E+03  0.7818608E-02  0.1093470E+00
         21   -1    0    0  501  502  0.00000000000E+00  0.00000000000E+00  0.17259930547E+01  0.17259930547E+01  0.00000000000E+00 0. -1.
         13   -1    0    0    0    0 -0.00000000000E+00 -0.00000000000E+00 -0.10000000000E+04  0.10000000000E+04  0.00000000000E+00 0.  1.
    9000005    2    1    2  501    0  0.17297061517E+02  0.36804666937E+02 -0.59755361889E+03  0.59894739227E+03  0.37255087138E+01 0.  0.
         13    1    3    3    0    0  0.43912062453E+01  0.12225388258E+02 -0.20896170639E+03  0.20936508197E+03  0.00000000000E+00 0.  1.
          1    1    3    3  501    0  0.12905855272E+02  0.24579278679E+02 -0.38859191251E+03  0.38958231031E+03  0.00000000000E+00 0.  1.
         -3    1    1    2    0  502 -0.17297061517E+02 -0.36804666937E+02 -0.40072038805E+03  0.40277860078E+03  0.00000000000E+00 0. -1.
<mgrwt>
<rscale>  1 0.30000000E+03</rscale>
<asrwt>0</asrwt>
<pdfrwt beam="1">  1       21 0.62763516E-02 0.30000000E+03</pdfrwt>
<pdfrwt beam="2">0</pdfrwt>
<totfact> 0.19495715E+04</totfact>
</mgrwt>
</event>
<event>
 6    1  0.1198667E-001  0.3000000E+03  0.7818608E-02  0.1093470E+00
         21   -1    0    0  501  502  0.00000000000E+00  0.00000000000E+00  0.28203843606E+01  0.28203843606E+01  0.00000000000E+00 0. -1.
         13   -1    0    0    0    0 -0.00000000000E+00 -0.00000000000E+00 -0.10000000000E+04  0.10000000000E+04  0.00000000000E+00 0.  1.
    9000005    2    1    2  501    0 -0.35798329555E+02  0.14922856336E+01 -0.86854658754E+03  0.86929060030E+03  0.30373859340E+01 0.  0.
         13    1    3    3    0    0 -0.40468051824E+01  0.10984236288E+01 -0.10833652793E+03  0.10841764824E+03  0.00000000000E+00 0.  1.
          3    1    3    3  501    0 -0.31751524373E+02  0.39386200478E+00 -0.76021005962E+03  0.76087295206E+03  0.00000000000E+00 0.  1.
         -3    1    1    2    0  502  0.35798329555E+02 -0.14922856336E+01 -0.12863302809E+03  0.13352978406E+03  0.00000000000E+00 0. -1.
<mgrwt>
<rscale>  1 0.30000000E+03</rscale>
<asrwt>0</asrwt>
<pdfrwt beam="1">  1       21 0.10255965E-01 0.30000000E+03</pdfrwt>
<pdfrwt beam="2">0</pdfrwt>
<totfact> 0.82230210E+03</totfact>
</mgrwt>
</event>
<event>
 6    1  0.1198667E-001  0.3000000E+03  0.7818608E-02  0.1093470E+00
         21   -1    0    0  501  502  0.00000000000E+00  0.00000000000E+00  0.71417472383E+01  0.71417472383E+01  0.00000000000E+00 0. -1.
         13   -1    0    0    0    0 -0.00000000000E+00 -0.00000000000E+00 -0.10000000000E+04  0.10000000000E+04  0.00000000000E+00 0.  1.
    9000005    2    1    2  501    0  0.23163608096E+02  0.34241219308E+02 -0.93559605309E+03  0.93651616157E+03  0.36786525653E+01 0.  0.
         13    1    3    3    0    0  0.18251611182E+02  0.25477717581E+02 -0.67701754836E+03  0.67774257369E+03  0.00000000000E+00 0.  1.
          3    1    3    3  501    0  0.49119969144E+01  0.87635017268E+01 -0.25857850473E+03  0.25877358788E+03  0.00000000000E+00 0.  1.
         -3    1    1    2    0  502 -0.23163608096E+02 -0.34241219308E+02 -0.57262199672E+02  0.70625585668E+02  0.00000000000E+00 0. -1.
<mgrwt>
<rscale>  1 0.30000000E+03</rscale>
<asrwt>0</asrwt>
<pdfrwt beam="1">  1       21 0.25970045E-01 0.30000000E+03</pdfrwt>
<pdfrwt beam="2">0</pdfrwt>
<totfact> 0.14472960E+03</totfact>
</mgrwt>
</event>
<event>
 6    1  0.1198667E-001  0.3000000E+03  0.7818608E-02  0.1093470E+00
         21   -1    0    0  501  502  0.00000000000E+00  0.00000000000E+00  0.89650818324E+01  0.89650818324E+01  0.00000000000E+00 0. -1.
         13   -1    0    0    0    0 -0.00000000000E+00 -0.00000000000E+00 -0.10000000000E+04  0.10000000000E+04  0.00000000000E+00 0.  1.
    9000005    2    1    2  501    0 -0.44659378335E+02  0.33632063338E+02 -0.90262076442E+03  0.90435801544E+03  0.36878120861E+01 0.  0.
         13    1    3    3    0    0 -0.20312692675E+02  0.17574077076E+02 -0.42801333136E+03  0.42885529669E+03  0.00000000000E+00 0.  1.
          1    1    3    3  501    0 -0.24346685661E+02  0.16057986262E+02 -0.47460743306E+03  0.47550271875E+03  0.00000000000E+00 0.  1.
         -1    1    1    2    0  502  0.44659378335E+02 -0.33632063338E+02 -0.88414153743E+02  0.10460706640E+03  0.00000000000E+00 0. -1.
<mgrwt>
<rscale>  1 0.30000000E+03</rscale>
<asrwt>0</asrwt>
<pdfrwt beam="1">  1       21 0.32600366E-01 0.30000000E+03</pdfrwt>
<pdfrwt beam="2">0</pdfrwt>
<totfact> 0.91969328E+02</totfact>
</mgrwt>
</event>
<event>
 6    1  0.1198667E-001  0.3000000E+03  0.7818608E-02  0.1093470E+00
         21   -1    0    0  501  502  0.00000000000E+00  0.00000000000E+00  0.10631633652E+01  0.10631633652E+01  0.00000000000E+00 0. -1.
         13   -1    0    0    0    0 -0.00000000000E+00 -0.00000000000E+00 -0.10000000000E+04  0.10000000000E+04  0.00000000000E+00 0.  1.
    9000005    2    1    2  501    0 -0.25764567747E+02 -0.19367527792E+02 -0.56880687546E+03  0.56972721821E+03  0.29878944367E+01 0.  0.
         13    1    3    3    0    0 -0.19204912246E+02 -0.15969098773E+02 -0.43436260383E+03  0.43508012179E+03  0.00000000000E+00 0.  1.
          1    1    3    3  501    0 -0.65596555009E+01 -0.33984290183E+01 -0.13444427163E+03  0.13464709642E+03  0.00000000000E+00 0.  1.
         -3    1    1    2    0  502  0.25764567747E+02  0.19367527792E+02 -0.43012996117E+03  0.43133594516E+03  0.00000000000E+00 0. -1.
<mgrwt>
<rscale>  1 0.30000000E+03</rscale>
<asrwt>0</asrwt>
<pdfrwt beam="1">  1       21 0.38660568E-02 0.30000000E+03</pdfrwt>
<pdfrwt beam="2">0</pdfrwt>
<totfact> 0.44527447E+04</totfact>
</mgrwt>
</event>
<event>
 6    1  0.1198667E-001  0.3000000E+03  0.7818608E-02  0.1093470E+00
         21   -1    0    0  501  502  0.00000000000E+00  0.00000000000E+00  0.10575306874E+01  0.10575306874E+01  0.00000000000E+00 0. -1.
         13   -1    0    0    0    0 -0.00000000000E+00 -0.00000000000E+00 -0.10000000000E+04  0.10000000000E+04  0.00000000000E+00 0.  1.
    9000005    2    1    2  501    0  0.19619912330E+02 -0.24056213614E+02 -0.64484727108E+03  0.64560422604E+03  0.36292269567E+01 0.  0.
         13    1    3    3    0    0  0.10762820940E+02 -0.13373037723E+02 -0.31891949643E+03  0.31938115420E+03  0.00000000000E+00 0.  1.
          3    1    3    3  501    0  0.88570913900E+01 -0.10683175891E+02 -0.32592777464E+03  0.32622307184E+03  0.00000000000E+00 0.  1.
         -1    1    1    2    0  502 -0.19619912330E+02  0.24056213614E+02 -0.35409519824E+03  0.35545330465E+03  0.00000000000E+00 0. -1.
<mgrwt>
<rscale>  1 0.30000000E+03</rscale>
<asrwt>0</asrwt>
<pdfrwt beam="1">  1       21 0.38455742E-02 0.30000000E+03</pdfrwt>
<pdfrwt beam="2">0</pdfrwt>
<totfact> 0.44926880E+04</totfact>
</mgrwt>
</event>
<event>
 6    1  0.1198667E-001  0.3000000E+03  0.7818608E-02  0.1093470E+00
         21   -1    0    0  501  502  0.00000000000E+00  0.00000000000E+00  0.21238891467E+01  0.21238891467E+01  0.00000000000E+00 0. -1.
         13   -1    0    0    0    0 -0.00000000000E+00 -0.00000000000E+00 -0.10000000000E+04  0.10000000000E+04  0.00000000000E+00 0.  1.
    9000005    2    1    2  501    0  0.17513747154E+02  0.25354817490E+02 -0.87124699118E+03  0.87179917139E+03  0.35885213940E+01 0.  0.
         13    1    3    3    0    0  0.32852456704E+01  0.26729215515E+01 -0.11052202047E+03  0.11060313901E+03  0.00000000000E+00 0.  1.
          1    1    3    3  501    0  0.14228501484E+02  0.22681895938E+02 -0.76072497070E+03  0.76119603238E+03  0.00000000000E+00 0.  1.
         -3    1    1    2    0  502 -0.17513747154E+02 -0.25354817490E+02 -0.12662911968E+03  0.13032471776E+03  0.00000000000E+00 0. -1.
<mgrwt>
<rscale>  1 0.30000000E+03</rscale>
<asrwt>0</asrwt>
<pdfrwt beam="1">  1       21 0.77232495E-02 0.30000000E+03</pdfrwt>
<pdfrwt beam="2">0</pdfrwt>
<totfact> 0.13587922E+04</totfact>
</mgrwt>
</event>
<event>
 6    1  0.1198667E-001  0.3000000E+03  0.7818608E-02  0.1093470E+00
         21   -1    0    0  501  502  0.00000000000E+00  0.00000000000E+00  0.15777518522E+01  0.15777518522E+01  0.00000000000E+00 0. -1.
         13   -1    0    0    0    0 -0.00000000000E+00 -0.00000000000E+00 -0.10000000000E+04  0.10000000000E+04  0.00000000000E+00 0.  1.
    9000005    2    1    2  501    0 -0.30593178819E+02 -0.95527219282E+01 -0.79320256536E+03  0.79387046915E+03  0.57284377235E+01 0.  0.
         13    1    3    3    0    0 -0.86459596463E+01 -0.19162859164E+01 -0.16398311467E+03  0.16422206510E+03  0.00000000000E+00 0.  1.
          3    1    3    3  501    0 -0.21947219172E+02 -0.76364360118E+01 -0.62921945070E+03  0.62964840405E+03  0.00000000000E+00 0.  1.
         -1    1    1    2    0  502  0.30593178819E+02  0.95527219282E+01 -0.20521968278E+03  0.20770728270E+03  0.00000000000E+00 0. -1.
<mgrwt>
<rscale>  1 0.30000000E+03</rscale>
<asrwt>0</asrwt>
<pdfrwt beam="1">  1       21 0.57372916E-02 0.30000000E+03</pdfrwt>
<pdfrwt beam="2">0</pdfrwt>
<totfact> 0.22761523E+04</totfact>
</mgrwt>
</event>
<event>
 6    1  0.1198667E-001  0.3000000E+03  0.7818608E-02  0.1093470E+00
         21   -1    0    0  501  502  0.00000000000E+00  0.00000000000E+00  0.11289778148E+01  0.11289778148E+01  0.00000000000E+00 0. -1.
         13   -1    0    0    0    0 -0.00000000000E+00 -0.00000000000E+00 -0.10000000000E+04  0.10000000000E+04  0.00000000000E+00 0.  1.
    9000005    2    1    2  501    0  0.31484443176E+02 -0.72715777320E+01 -0.63441418923E+03  0.63524248026E+03  0.27384715265E+01 0.  0.
         13    1    3    3    0    0  0.21540328639E+02 -0.57525381730E+01 -0.45652804672E+03  0.45707213314E+03  0.00000000000E+00 0.  1.
          3    1    3    3  501    0  0.99441145375E+01 -0.15190395590E+01 -0.17788614251E+03  0.17817034712E+03  0.00000000000E+00 0.  1.
         -3    1    1    2    0  502 -0.31484443176E+02  0.72715777320E+01 -0.36445683296E+03  0.36588649756E+03  0.00000000000E+00 0. -1.
<mgrwt>
<rscale>  1 0.30000000E+03</rscale>
<asrwt>0</asrwt>
<pdfrwt beam="1">  1       21 0.41053825E-02 0.30000000E+03</pdfrwt>
<pdfrwt beam="2">0</pdfrwt>
<totfact> 0.40244502E+04</totfact>
</mgrwt>
</event>
<event>
 6    1  0.1198667E-001  0.3000000E+03  0.7818608E-02  0.1093470E+00
         21   -1    0    0  501  502  0.00000000000E+00  0.00000000000E+00  0.16936381983E+01  0.16936381983E+01  0.00000000000E+00 0. -1.
         13   -1    0    0    0    0 -0.00000000000E+00 -0.00000000000E+00 -0.10000000000E+04  0.10000000000E+04  0.00000000000E+00 0.  1.
    9000005    2    1    2  501    0 -0.26014001726E+02  0.23377166419E+02 -0.76234585924E+03  0.76315521579E+03  0.33843895216E+01 0.  0.
         13    1    3    3    0    0 -0.25746286679E+01  0.17456635459E+01 -0.51154955836E+02  0.51249444491E+02  0.00000000000E+00 0.  1.
          3    1    3    3  501    0 -0.23439373058E+02  0.21631502873E+02 -0.71119090340E+03  0.71190577130E+03  0.00000000000E+00 0.  1.
         -1    1    1    2    0  502  0.26014001726E+02 -0.23377166419E+02 -0.23596050256E+03  0.23853842241E+03  0.00000000000E+00 0. -1.
<mgrwt>
<rscale>  1 0.30000000E+03</rscale>
<asrwt>0</asrwt>
<pdfrwt beam="1">  1       21 0.61586973E-02 0.30000000E+03</pdfrwt>
<pdfrwt beam="2">0</pdfrwt>
<totfact> 0.20143502E+04</totfact>
</mgrwt>
</event>
<event>
 6    1  0.1198667E-001  0.3000000E+03  0.7818608E-02  0.1093470E+00
         21   -1    0    0  501  502  0.00000000000E+00  0.00000000000E+00  0.51318371230E+01  0.51318371230E+01  0.00000000000E+00 0. -1.
         13   -1    0    0    0    0 -0.00000000000E+00 -0.00000000000E+00 -0.10000000000E+04  0.10000000000E+04  0.00000000000E+00 0.  1.
    9000005    2    1    2  501    0  0.18117477680E+02  0.60313136918E+02 -0.73651752494E+03  0.73921649420E+03  0.41283486824E+01 0.  0.
         13    1    3    3    0    0  0.10904176511E+02  0.42815772678E+02 -0.51853863789E+03  0.52041753472E+03  0.00000000000E+00 0.  1.
          3    1    3    3  501    0  0.72133011695E+01  0.17497364240E+02 -0.21797888705E+03  0.21879895948E+03  0.00000000000E+00 0.  1.
         -3    1    1    2    0  502 -0.18117477680E+02 -0.60313136918E+02 -0.25835063794E+03  0.26591534293E+03  0.00000000000E+00 0. -1.
<mgrwt>
<rscale>  1 0.30000000E+03</rscale>
<asrwt>0</asrwt>
<pdfrwt beam="1">  1       21 0.18661265E-01 0.30000000E+03</pdfrwt>
<pdfrwt beam="2">0</pdfrwt>
<totfact> 0.27367263E+03</totfact>
</mgrwt>
</event>
<event>
 6    1  0.1198667E-001  0.3000000E+03  0.7818608E-02  0.1093470E+00
         21   -1    0    0  501  502  0.00000000000E+00  0.00000000000E+00  0.26777188992E+01  0.26777188992E+01  0.00000000000E+00 0. -1.
         13   -1    0    0    0    0 -0.00000000000E+00 -0.00000000000E+00 -0.10000000000E+04  0.10000000000E+04  0.00000000000E+00 0.  1.
    9000005    2    1    2  501    0 -0.33258278989E+02 -0.27415856734E+02 -0.77444118320E+03  0.77566730917E+03  0.65487376576E+01 0.  0.
         13    1    3    3    0    0 -0.26328501585E+02 -0.24657412660E+02 -0.65704325666E+03  0.65803268849E+03  0.00000000000E+00 0.  1.
          1    1    3    3  501    0 -0.69297774041E+01 -0.27584440736E+01 -0.11739792654E+03  0.11763462069E+03  0.00000000000E+00 0.  1.
         -1    1    1    2    0  502  0.33258278989E+02  0.27415856734E+02 -0.22288109790E+03  0.22701040973E+03  0.00000000000E+00 0. -1.
<mgrwt>
<rscale>  1 0.30000000E+03</rscale>
<asrwt>0</asrwt>
<pdfrwt beam="1">  1       21 0.97371802E-02 0.30000000E+03</pdfrwt>
<pdfrwt beam="2">0</pdfrwt>
<totfact> 0.90221920E+03</totfact>
</mgrwt>
</event>
<event>
 6    1  0.1198667E-001  0.3000000E+03  0.7818608E-02  0.1093470E+00
         21   -1    0    0  501  502  0.00000000000E+00  0.00000000000E+00  0.17825752187E+01  0.17825752187E+01  0.00000000000E+00 0. -1.
         13   -1    0    0    0    0 -0.00000000000E+00 -0.00000000000E+00 -0.10000000000E+04  0.10000000000E+04  0.00000000000E+00 0.  1.
    9000005    2    1    2  501    0  0.24306899923E+02  0.33731859383E+02 -0.58347550772E+03  0.58496184458E+03  0.28333347080E+01 0.  0.
         13    1    3    3    0    0  0.18249293864E+02  0.26256154877E+02 -0.46287730593E+03  0.46398041202E+03  0.00000000000E+00 0.  1.
          3    1    3    3  501    0  0.60576060586E+01  0.74757045063E+01 -0.12059820178E+03  0.12098143255E+03  0.00000000000E+00 0.  1.
         -1    1    1    2    0  502 -0.24306899923E+02 -0.33731859383E+02 -0.41474191706E+03  0.41682073064E+03  0.00000000000E+00 0. -1.
<mgrwt>
<rscale>  1 0.30000000E+03</rscale>
<asrwt>0</asrwt>
<pdfrwt beam="1">  1       21 0.64821054E-02 0.30000000E+03</pdfrwt>
<pdfrwt beam="2">0</pdfrwt>
<totfact> 0.18437835E+04</totfact>
</mgrwt>
</event>
<event>
 6    1  0.1198667E-001  0.3000000E+03  0.7818608E-02  0.1093470E+00
         21   -1    0    0  501  502  0.00000000000E+00  0.00000000000E+00  0.22992687791E+01  0.22992687791E+01  0.00000000000E+00 0. -1.
         13   -1    0    0    0    0 -0.00000000000E+00 -0.00000000000E+00 -0.10000000000E+04  0.10000000000E+04  0.00000000000E+00 0.  1.
    9000005    2    1    2  501    0  0.29390691225E+02 -0.35305696053E+02 -0.64086926241E+03  0.64252294655E+03  0.34670497992E+01 0.  0.
         13    1    3    3    0    0  0.60139191262E+01 -0.54729479484E+01 -0.10377607867E+03  0.10409416356E+03  0.00000000000E+00 0.  1.
          3    1    3    3  501    0  0.23376772099E+02 -0.29832748104E+02 -0.53709318374E+03  0.53842878299E+03  0.00000000000E+00 0.  1.
         -1    1    1    2    0  502 -0.29390691225E+02  0.35305696053E+02 -0.35683146881E+03  0.35977632223E+03  0.00000000000E+00 0. -1.
<mgrwt>
<rscale>  1 0.30000000E+03</rscale>
<asrwt>0</asrwt>
<pdfrwt beam="1">  1       21 0.83609950E-02 0.30000000E+03</pdfrwt>
<pdfrwt beam="2">0</pdfrwt>
<totfact> 0.11819786E+04</totfact>
</mgrwt>
</event>
<event>
 6    1  0.1198667E-001  0.3000000E+03  0.7818608E-02  0.1093470E+00
         21   -1    0    0  501  502  0.00000000000E+00  0.00000000000E+00  0.18176389335E+01  0.18176389335E+01  0.00000000000E+00 0. -1.
         13   -1    0    0    0    0 -0.00000000000E+00 -0.00000000000E+00 -0.10000000000E+04  0.10000000000E+04  0.00000000000E+00 0.  1.
    9000005    2    1    2  501    0 -0.21839990023E+02 -0.26895395257E+02 -0.79025780397E+03  0.79102634667E+03  0.38648338579E+01 0.  0.
         13    1    3    3    0    0 -0.22932386472E+01 -0.48589831444E+01 -0.11023466153E+03  0.11036552570E+03  0.00000000000E+00 0.  1.
          1    1    3    3  501    0 -0.19546751376E+02 -0.22036412113E+02 -0.68002314245E+03  0.68066082097E+03  0.00000000000E+00 0.  1.
         -3    1    1    2    0  502  0.21839990023E+02  0.26895395257E+02 -0.20792455709E+03  0.21079129226E+03  0.00000000000E+00 0. -1.
<mgrwt>
<rscale>  1 0.30000000E+03</rscale>
<asrwt>0</asrwt>
<pdfrwt beam="1">  1       21 0.66096101E-02 0.30000000E+03</pdfrwt>
<pdfrwt beam="2">0</pdfrwt>
<totfact> 0.17826110E+04</totfact>
</mgrwt>
</event>
<event>
 6    1  0.1198667E-001  0.3000000E+03  0.7818608E-02  0.1093470E+00
         21   -1    0    0  501  502  0.00000000000E+00  0.00000000000E+00  0.99852660472E+00  0.99852660472E+00  0.00000000000E+00 0. -1.
         13   -1    0    0    0    0 -0.00000000000E+00 -0.00000000000E+00 -0.10000000000E+04  0.10000000000E+04  0.00000000000E+00 0.  1.
    9000005    2    1    2  501    0 -0.30005890123E+02  0.44256936520E+01 -0.36672778141E+03  0.36799776690E+03  0.36263730115E+01 0.  0.
         13    1    3    3    0    0 -0.58639387989E+01  0.23426703171E+01 -0.76483261850E+02  0.76743489793E+02  0.00000000000E+00 0.  1.
          3    1    3    3  501    0 -0.24141951324E+02  0.20830233349E+01 -0.29024451956E+03  0.29125427711E+03  0.00000000000E+00 0.  1.
         -3    1    1    2    0  502  0.30005890123E+02 -0.44256936520E+01 -0.63227369199E+03  0.63300075970E+03  0.00000000000E+00 0. -1.
<mgrwt>
<rscale>  1 0.30000000E+03</rscale>
<asrwt>0</asrwt>
<pdfrwt beam="1">  1       21 0.36310135E-02 0.30000000E+03</pdfrwt>
<pdfrwt beam="2">0</pdfrwt>
<totfact> 0.49473405E+04</totfact>
</mgrwt>
</event>
<event>
 6    1  0.1198667E-001  0.3000000E+03  0.7818608E-02  0.1093470E+00
         21   -1    0    0  501  502  0.00000000000E+00  0.00000000000E+00  0.20680913647E+01  0.20680913647E+01  0.00000000000E+00 0. -1.
         13   -1    0    0    0    0 -0.00000000000E+00 -0.00000000000E+00 -0.10000000000E+04  0.10000000000E+04  0.00000000000E+00 0.  1.
    9000005    2    1    2  501    0  0.52164410422E+01 -0.34752352200E+02 -0.81629185385E+03  0.81705985711E+03  0.44138638317E+01 0.  0.
         13    1    3    3    0    0  0.96309596247E+00 -0.17440561657E+02 -0.36986228841E+03  0.37027451050E+03  0.00000000000E+00 0.  1.
          1    1    3    3  501    0  0.42533450797E+01 -0.17311790543E+02 -0.44642956544E+03  0.44678534660E+03  0.00000000000E+00 0.  1.
         -3    1    1    2    0  502 -0.52164410422E+01  0.34752352200E+02 -0.18164005479E+03  0.18500823426E+03  0.00000000000E+00 0. -1.
<mgrwt>
<rscale>  1 0.30000000E+03</rscale>
<asrwt>0</asrwt>
<pdfrwt beam="1">  1       21 0.75203481E-02 0.30000000E+03</pdfrwt>
<pdfrwt beam="2">0</pdfrwt>
<totfact> 0.14236762E+04</totfact>
</mgrwt>
</event>
<event>
 6    1  0.1198667E-001  0.3000000E+03  0.7818608E-02  0.1093470E+00
         21   -1    0    0  501  502  0.00000000000E+00  0.00000000000E+00  0.16813368378E+01  0.16813368378E+01  0.00000000000E+00 0. -1.
         13   -1    0    0    0    0 -0.00000000000E+00 -0.00000000000E+00 -0.10000000000E+04  0.10000000000E+04  0.00000000000E+00 0.  1.
    9000005    2    1    2  501    0  0.17296259263E+02 -0.27102023825E+02 -0.80949377281E+03  0.81013886245E+03  0.33358575976E+01 0.  0.
         13    1    3    3    0    0  0.33627110556E+01 -0.69756726026E+01 -0.22319119013E+03  0.22332549158E+03  0.00000000000E+00 0.  1.
          3    1    3    3  501    0  0.13933548207E+02 -0.20126351222E+02 -0.58630258268E+03  0.58681337087E+03  0.00000000000E+00 0.  1.
         -1    1    1    2    0  502 -0.17296259263E+02  0.27102023825E+02 -0.18882489035E+03  0.19154247439E+03  0.00000000000E+00 0. -1.
<mgrwt>
<rscale>  1 0.30000000E+03</rscale>
<asrwt>0</asrwt>
<pdfrwt beam="1">  1       21 0.61139650E-02 0.30000000E+03</pdfrwt>
<pdfrwt beam="2">0</pdfrwt>
<totfact> 0.20398592E+04</totfact>
</mgrwt>
</event>
<event>
 6    1  0.1198667E-001  0.3000000E+03  0.7818608E-02  0.1093470E+00
         21   -1    0    0  501  502  0.00000000000E+00  0.00000000000E+00  0.18836337008E+01  0.18836337008E+01  0.00000000000E+00 0. -1.
         13   -1    0    0    0    0 -0.00000000000E+00 -0.00000000000E+00 -0.10000000000E+04  0.10000000000E+04  0.00000000000E+00 0.  1.
    9000005    2    1    2  501    0 -0.15659161706E+02  0.36825402080E+02 -0.69116869679E+03  0.69233849741E+03  0.41361807202E+01 0.  0.
         13    1    3    3    0    0 -0.15326752200E+02  0.33296503764E+02 -0.62214301116E+03  0.62322186485E+03  0.00000000000E+00 0.  1.
          1    1    3    3  501    0 -0.33240950577E+00  0.35288983168E+01 -0.69025685631E+02  0.69116632558E+02  0.00000000000E+00 0.  1.
         -3    1    1    2    0  502  0.15659161706E+02 -0.36825402080E+02 -0.30694766951E+03  0.30954513629E+03  0.00000000000E+00 0. -1.
<mgrwt>
<rscale>  1 0.30000000E+03</rscale>
<asrwt>0</asrwt>
<pdfrwt beam="1">  1       21 0.68495915E-02 0.30000000E+03</pdfrwt>
<pdfrwt beam="2">0</pdfrwt>
<totfact> 0.16756368E+04</totfact>
</mgrwt>
</event>
<event>
 6    1  0.1198667E-001  0.3000000E+03  0.7818608E-02  0.1093470E+00
         21   -1    0    0  501  502  0.00000000000E+00  0.00000000000E+00  0.20724737651E+01  0.20724737651E+01  0.00000000000E+00 0. -1.
         13   -1    0    0    0    0 -0.00000000000E+00 -0.00000000000E+00 -0.10000000000E+04  0.10000000000E+04  0.00000000000E+00 0.  1.
    9000005    2    1    2  501    0 -0.39472093456E+02  0.36512795568E+01 -0.74454549264E+03  0.74560837696E+03  0.35331529635E+01 0.  0.
         13    1    3    3    0    0 -0.38126461193E+02  0.37668070823E+01 -0.72821973347E+03  0.72922684817E+03  0.00000000000E+00 0.  1.
          1    1    3    3  501    0 -0.13456322630E+01 -0.11552752548E+00 -0.16325759174E+02  0.16381528787E+02  0.00000000000E+00 0.  1.
         -3    1    1    2    0  502  0.39472093456E+02 -0.36512795568E+01 -0.25338203359E+03  0.25646409681E+03  0.00000000000E+00 0. -1.
<mgrwt>
<rscale>  1 0.30000000E+03</rscale>
<asrwt>0</asrwt>
<pdfrwt beam="1">  1       21 0.75362841E-02 0.30000000E+03</pdfrwt>
<pdfrwt beam="2">0</pdfrwt>
<totfact> 0.14184086E+04</totfact>
</mgrwt>
</event>
<event>
 6    1  0.1198667E-001  0.3000000E+03  0.7818608E-02  0.1093470E+00
         21   -1    0    0  501  502  0.00000000000E+00  0.00000000000E+00  0.15085472459E+01  0.15085472459E+01  0.00000000000E+00 0. -1.
         13   -1    0    0    0    0 -0.00000000000E+00 -0.00000000000E+00 -0.10000000000E+04  0.10000000000E+04  0.00000000000E+00 0.  1.
    9000005    2    1    2  501    0 -0.26877991880E+01  0.32549808976E+02 -0.76922187213E+03  0.76992431866E+03  0.38017859812E+01 0.  0.
         13    1    3    3    0    0 -0.61272640682E+00  0.12891221099E+01 -0.22258054937E+02  0.22303772753E+02  0.00000000000E+00 0.  1.
          3    1    3    3  501    0 -0.20750727812E+01  0.31260686866E+02 -0.74696381719E+03  0.74762054591E+03  0.00000000000E+00 0.  1.
         -3    1    1    2    0  502  0.26877991880E+01 -0.32549808976E+02 -0.22926958063E+03  0.23158422859E+03  0.00000000000E+00 0. -1.
<mgrwt>
<rscale>  1 0.30000000E+03</rscale>
<asrwt>0</asrwt>
<pdfrwt beam="1">  1       21 0.54856379E-02 0.30000000E+03</pdfrwt>
<pdfrwt beam="2">0</pdfrwt>
<totfact> 0.24584112E+04</totfact>
</mgrwt>
</event>
<event>
 6    1  0.1198667E-001  0.3000000E+03  0.7818608E-02  0.1093470E+00
         21   -1    0    0  501  502  0.00000000000E+00  0.00000000000E+00  0.17864937864E+01  0.17864937864E+01  0.00000000000E+00 0. -1.
         13   -1    0    0    0    0 -0.00000000000E+00 -0.00000000000E+00 -0.10000000000E+04  0.10000000000E+04  0.00000000000E+00 0.  1.
    9000005    2    1    2  501    0  0.54619119569E+01 -0.41020063133E+02 -0.59849692505E+03  0.59993350659E+03  0.30273706594E+01 0.  0.
         13    1    3    3    0    0  0.40416034946E+01 -0.19193574915E+02 -0.27806390464E+03  0.27875484380E+03  0.00000000000E+00 0.  1.
          1    1    3    3  501    0  0.14203084623E+01 -0.21826488218E+02 -0.32043302041E+03  0.32117866279E+03  0.00000000000E+00 0.  1.
         -3    1    1    2    0  502 -0.54619119569E+01  0.41020063133E+02 -0.39971658116E+03  0.40185298720E+03  0.00000000000E+00 0. -1.
<mgrwt>
<rscale>  1 0.30000000E+03</rscale>
<asrwt>0</asrwt>
<pdfrwt beam="1">  1       21 0.64963547E-02 0.30000000E+03</pdfrwt>
<pdfrwt beam="2">0</pdfrwt>
<totfact> 0.18367876E+04</totfact>
</mgrwt>
</event>
<event>
 6    1  0.1198667E-001  0.3000000E+03  0.7818608E-02  0.1093470E+00
         21   -1    0    0  501  502  0.00000000000E+00  0.00000000000E+00  0.13020360329E+01  0.13020360329E+01  0.00000000000E+00 0. -1.
         13   -1    0    0    0    0 -0.00000000000E+00 -0.00000000000E+00 -0.10000000000E+04  0.10000000000E+04  0.00000000000E+00 0.  1.
    9000005    2    1    2  501    0  0.51079555908E+01  0.34833438157E+02 -0.53349251476E+03  0.53476632508E+03  0.11013605600E+02 0.  0.
         13    1    3    3    0    0  0.55767603061E+01  0.26039520125E+02 -0.32552290854E+03  0.32661035019E+03  0.00000000000E+00 0.  1.
          3    1    3    3  501    0 -0.46880471537E+00  0.87939180326E+01 -0.20796960621E+03  0.20815597489E+03  0.00000000000E+00 0.  1.
         -3    1    1    2    0  502 -0.51079555908E+01 -0.34833438157E+02 -0.46520544921E+03  0.46653571096E+03  0.00000000000E+00 0. -1.
<mgrwt>
<rscale>  1 0.30000000E+03</rscale>
<asrwt>0</asrwt>
<pdfrwt beam="1">  1       21 0.47346865E-02 0.30000000E+03</pdfrwt>
<pdfrwt beam="2">0</pdfrwt>
<totfact> 0.31606660E+04</totfact>
</mgrwt>
</event>
<event>
 6    1  0.1198667E-001  0.3000000E+03  0.7818608E-02  0.1093470E+00
         21   -1    0    0  501  502  0.00000000000E+00  0.00000000000E+00  0.10450289164E+01  0.10450289164E+01  0.00000000000E+00 0. -1.
         13   -1    0    0    0    0 -0.00000000000E+00 -0.00000000000E+00 -0.10000000000E+04  0.10000000000E+04  0.00000000000E+00 0.  1.
    9000005    2    1    2  501    0 -0.38426922071E+01  0.29938276353E+02 -0.32467345432E+03  0.32608826695E+03  0.31047106807E+01 0.  0.
         13    1    3    3    0    0  0.14572207717E+00  0.20727480087E+01 -0.16105628370E+02  0.16239112797E+02  0.00000000000E+00 0.  1.
          1    1    3    3  501    0 -0.39884142842E+01  0.27865528344E+02 -0.30856782595E+03  0.30984915416E+03  0.00000000000E+00 0.  1.
         -3    1    1    2    0  502  0.38426922071E+01 -0.29938276353E+02 -0.67428151676E+03  0.67495676196E+03  0.00000000000E+00 0. -1.
<mgrwt>
<rscale>  1 0.30000000E+03</rscale>
<asrwt>0</asrwt>
<pdfrwt beam="1">  1       21 0.38001132E-02 0.30000000E+03</pdfrwt>
<pdfrwt beam="2">0</pdfrwt>
<totfact> 0.45833788E+04</totfact>
</mgrwt>
</event>
<event>
 6    1  0.1198667E-001  0.3000000E+03  0.7818608E-02  0.1093470E+00
         21   -1    0    0  501  502  0.00000000000E+00  0.00000000000E+00  0.11962945239E+01  0.11962945239E+01  0.00000000000E+00 0. -1.
         13   -1    0    0    0    0 -0.00000000000E+00 -0.00000000000E+00 -0.10000000000E+04  0.10000000000E+04  0.00000000000E+00 0.  1.
    9000005    2    1    2  501    0  0.12064058385E+02  0.30624702909E+02 -0.34811425071E+03  0.34967485936E+03  0.23583444998E+01 0.  0.
         13    1    3    3    0    0  0.29424776989E+01  0.10191392108E+02 -0.11695161575E+03  0.11743169536E+03  0.00000000000E+00 0.  1.
          3    1    3    3  501    0  0.91215806857E+01  0.20433310801E+02 -0.23116263496E+03  0.23224316400E+03  0.00000000000E+00 0.  1.
         -3    1    1    2    0  502 -0.12064058385E+02 -0.30624702909E+02 -0.65068945477E+03  0.65152143516E+03  0.00000000000E+00 0. -1.
<mgrwt>
<rscale>  1 0.30000000E+03</rscale>
<asrwt>0</asrwt>
<pdfrwt beam="1">  1       21 0.43501711E-02 0.30000000E+03</pdfrwt>
<pdfrwt beam="2">0</pdfrwt>
<totfact> 0.36493445E+04</totfact>
</mgrwt>
</event>
<event>
 6    1  0.1198667E-001  0.3000000E+03  0.7818608E-02  0.1093470E+00
         21   -1    0    0  501  502  0.00000000000E+00  0.00000000000E+00  0.21122401265E+01  0.21122401265E+01  0.00000000000E+00 0. -1.
         13   -1    0    0    0    0 -0.00000000000E+00 -0.00000000000E+00 -0.10000000000E+04  0.10000000000E+04  0.00000000000E+00 0.  1.
    9000005    2    1    2  501    0 -0.42663595298E+02  0.15399552919E+02 -0.57245169410E+03  0.57426510077E+03  0.47048158057E+01 0.  0.
         13    1    3    3    0    0 -0.10622695270E+02  0.25827166046E+01 -0.15930815871E+03  0.15968281533E+03  0.00000000000E+00 0.  1.
          3    1    3    3  501    0 -0.32040900028E+02  0.12816836314E+02 -0.41314353539E+03  0.41458228544E+03  0.00000000000E+00 0.  1.
         -1    1    1    2    0  502  0.42663595298E+02 -0.15399552919E+02 -0.42543606577E+03  0.42784713935E+03  0.00000000000E+00 0. -1.
<mgrwt>
<rscale>  1 0.30000000E+03</rscale>
<asrwt>0</asrwt>
<pdfrwt beam="1">  1       21 0.76808894E-02 0.30000000E+03</pdfrwt>
<pdfrwt beam="2">0</pdfrwt>
<totfact> 0.13719558E+04</totfact>
</mgrwt>
</event>
<event>
 6    1  0.1198667E-001  0.3000000E+03  0.7818608E-02  0.1093470E+00
         21   -1    0    0  501  502  0.00000000000E+00  0.00000000000E+00  0.52507685331E+01  0.52507685331E+01  0.00000000000E+00 0. -1.
         13   -1    0    0    0    0 -0.00000000000E+00 -0.00000000000E+00 -0.10000000000E+04  0.10000000000E+04  0.00000000000E+00 0.  1.
    9000005    2    1    2  501    0 -0.68854152129E+02 -0.21441868228E+02 -0.54428705170E+03  0.54905254037E+03  0.31063580235E+01 0.  0.
         13    1    3    3    0    0 -0.34707392367E+02 -0.11701687670E+02 -0.26648548384E+03  0.26899079106E+03  0.00000000000E+00 0.  1.
          1    1    3    3  501    0 -0.34146759762E+02 -0.97401805584E+01 -0.27780156786E+03  0.28006174931E+03  0.00000000000E+00 0.  1.
         -1    1    1    2    0  502  0.68854152129E+02  0.21441868228E+02 -0.45046217977E+03  0.45619822816E+03  0.00000000000E+00 0. -1.
<mgrwt>
<rscale>  1 0.30000000E+03</rscale>
<asrwt>0</asrwt>
<pdfrwt beam="1">  1       21 0.19093744E-01 0.30000000E+03</pdfrwt>
<pdfrwt beam="2">0</pdfrwt>
<totfact> 0.26205205E+03</totfact>
</mgrwt>
</event>
<event>
 6    1  0.1198667E-001  0.3000000E+03  0.7818608E-02  0.1093470E+00
         21   -1    0    0  501  502  0.00000000000E+00  0.00000000000E+00  0.16443641449E+01  0.16443641449E+01  0.00000000000E+00 0. -1.
         13   -1    0    0    0    0 -0.00000000000E+00 -0.00000000000E+00 -0.10000000000E+04  0.10000000000E+04  0.00000000000E+00 0.  1.
    9000005    2    1    2  501    0  0.23573393737E+02 -0.26902896860E+02 -0.73377928928E+03  0.73466100526E+03  0.39085200563E+01 0.  0.
         13    1    3    3    0    0  0.11099926503E+02 -0.15062915768E+02 -0.40574653347E+03  0.40617773108E+03  0.00000000000E+00 0.  1.
          1    1    3    3  501    0  0.12473467234E+02 -0.11839981092E+02 -0.32803275581E+03  0.32848327418E+03  0.00000000000E+00 0.  1.
         -1    1    1    2    0  502 -0.23573393737E+02  0.26902896860E+02 -0.26457634658E+03  0.26698335888E+03  0.00000000000E+00 0. -1.
<mgrwt>
<rscale>  1 0.30000000E+03</rscale>
<asrwt>0</asrwt>
<pdfrwt beam="1">  1       21 0.59795186E-02 0.30000000E+03</pdfrwt>
<pdfrwt beam="2">0</pdfrwt>
<totfact> 0.21196289E+04</totfact>
</mgrwt>
</event>
<event>
 6    1  0.1198667E-001  0.3000000E+03  0.7818608E-02  0.1093470E+00
         21   -1    0    0  501  502  0.00000000000E+00  0.00000000000E+00  0.53447046226E+01  0.53447046226E+01  0.00000000000E+00 0. -1.
         13   -1    0    0    0    0 -0.00000000000E+00 -0.00000000000E+00 -0.10000000000E+04  0.10000000000E+04  0.00000000000E+00 0.  1.
    9000005    2    1    2  501    0  0.39802366428E+02 -0.52704820432E+02 -0.71256306938E+03  0.71562406255E+03  0.31055753176E+01 0.  0.
         13    1    3    3    0    0  0.30674926656E+02 -0.39873867214E+02 -0.55581364833E+03  0.55808573542E+03  0.00000000000E+00 0.  1.
          1    1    3    3  501    0  0.91274397719E+01 -0.12830953218E+02 -0.15674942105E+03  0.15753832714E+03  0.00000000000E+00 0.  1.
         -3    1    1    2    0  502 -0.39802366428E+02  0.52704820432E+02 -0.28209222600E+03  0.28972064207E+03  0.00000000000E+00 0. -1.
<mgrwt>
<rscale>  1 0.30000000E+03</rscale>
<asrwt>0</asrwt>
<pdfrwt beam="1">  1       21 0.19435331E-01 0.30000000E+03</pdfrwt>
<pdfrwt beam="2">0</pdfrwt>
<totfact> 0.25337568E+03</totfact>
</mgrwt>
</event>
<event>
 6    1  0.1198667E-001  0.3000000E+03  0.7818608E-02  0.1093470E+00
         21   -1    0    0  501  502  0.00000000000E+00  0.00000000000E+00  0.15709405863E+01  0.15709405863E+01  0.00000000000E+00 0. -1.
         13   -1    0    0    0    0 -0.00000000000E+00 -0.00000000000E+00 -0.10000000000E+04  0.10000000000E+04  0.00000000000E+00 0.  1.
    9000005    2    1    2  501    0 -0.91969414542E+01 -0.35211703669E+02 -0.30443273073E+03  0.30662104884E+03  0.35682273603E+01 0.  0.
         13    1    3    3    0    0 -0.39315051158E+01 -0.11560162121E+02 -0.11438728233E+03  0.11503714374E+03  0.00000000000E+00 0.  1.
          3    1    3    3  501    0 -0.52654363385E+01 -0.23651541548E+02 -0.19004544840E+03  0.19158390510E+03  0.00000000000E+00 0.  1.
         -1    1    1    2    0  502  0.91969414542E+01  0.35211703669E+02 -0.69399632869E+03  0.69494989174E+03  0.00000000000E+00 0. -1.
<mgrwt>
<rscale>  1 0.30000000E+03</rscale>
<asrwt>0</asrwt>
<pdfrwt beam="1">  1       21 0.57125233E-02 0.30000000E+03</pdfrwt>
<pdfrwt beam="2">0</pdfrwt>
<totfact> 0.22931550E+04</totfact>
</mgrwt>
</event>
<event>
 6    1  0.1198667E-001  0.3000000E+03  0.7818608E-02  0.1093470E+00
         21   -1    0    0  501  502  0.00000000000E+00  0.00000000000E+00  0.26698123292E+01  0.26698123292E+01  0.00000000000E+00 0. -1.
         13   -1    0    0    0    0 -0.00000000000E+00 -0.00000000000E+00 -0.10000000000E+04  0.10000000000E+04  0.00000000000E+00 0.  1.
    9000005    2    1    2  501    0  0.42057460198E+02 -0.12366463678E+02 -0.76338831808E+03  0.76465603598E+03  0.39204342278E+01 0.  0.
         13    1    3    3    0    0  0.32134125882E+02 -0.10397305439E+02 -0.61024838629E+03  0.61118229602E+03  0.00000000000E+00 0.  1.
          3    1    3    3  501    0  0.99233343157E+01 -0.19691582398E+01 -0.15313993179E+03  0.15347373996E+03  0.00000000000E+00 0.  1.
         -3    1    1    2    0  502 -0.42057460198E+02  0.12366463678E+02 -0.23394186959E+03  0.23801377635E+03  0.00000000000E+00 0. -1.
<mgrwt>
<rscale>  1 0.30000000E+03</rscale>
<asrwt>0</asrwt>
<pdfrwt beam="1">  1       21 0.97084289E-02 0.30000000E+03</pdfrwt>
<pdfrwt beam="2">0</pdfrwt>
<totfact> 0.90699142E+03</totfact>
</mgrwt>
</event>
<event>
 6    1  0.1198667E-001  0.3000000E+03  0.7818608E-02  0.1093470E+00
         21   -1    0    0  501  502  0.00000000000E+00  0.00000000000E+00  0.17131331288E+01  0.17131331288E+01  0.00000000000E+00 0. -1.
         13   -1    0    0    0    0 -0.00000000000E+00 -0.00000000000E+00 -0.10000000000E+04  0.10000000000E+04  0.00000000000E+00 0.  1.
    9000005    2    1    2  501    0  0.36904088390E+02  0.88217312012E+01 -0.69828038798E+03  0.69931666811E+03  0.29270074700E+01 0.  0.
         13    1    3    3    0    0  0.48601130797E+01  0.17153652388E+01 -0.80267269937E+02  0.80432566788E+02  0.00000000000E+00 0.  1.
          1    1    3    3  501    0  0.32043975310E+02  0.71063659624E+01 -0.61801311804E+03  0.61888410132E+03  0.00000000000E+00 0.  1.
         -1    1    1    2    0  502 -0.36904088390E+02 -0.88217312012E+01 -0.30000647889E+03  0.30239646502E+03  0.00000000000E+00 0. -1.
<mgrwt>
<rscale>  1 0.30000000E+03</rscale>
<asrwt>0</asrwt>
<pdfrwt beam="1">  1       21 0.62295882E-02 0.30000000E+03</pdfrwt>
<pdfrwt beam="2">0</pdfrwt>
<totfact> 0.19749264E+04</totfact>
</mgrwt>
</event>
<event>
 6    1  0.1198667E-001  0.3000000E+03  0.7818608E-02  0.1093470E+00
         21   -1    0    0  501  502  0.00000000000E+00  0.00000000000E+00  0.14211412619E+01  0.14211412619E+01  0.00000000000E+00 0. -1.
         13   -1    0    0    0    0 -0.00000000000E+00 -0.00000000000E+00 -0.10000000000E+04  0.10000000000E+04  0.00000000000E+00 0.  1.
    9000005    2    1    2  501    0  0.28031443283E+02  0.11788392981E+02 -0.79486091306E+03  0.79544607138E+03  0.24193679664E+01 0.  0.
         13    1    3    3    0    0  0.12249873280E+02  0.43834564896E+01 -0.36510070228E+03  0.36533244708E+03  0.00000000000E+00 0.  1.
          1    1    3    3  501    0  0.15781570003E+02  0.74049364913E+01 -0.42976021078E+03  0.43011362430E+03  0.00000000000E+00 0.  1.
         -3    1    1    2    0  502 -0.28031443283E+02 -0.11788392981E+02 -0.20371794567E+03  0.20597506988E+03  0.00000000000E+00 0. -1.
<mgrwt>
<rscale>  1 0.30000000E+03</rscale>
<asrwt>0</asrwt>
<pdfrwt beam="1">  1       21 0.51677973E-02 0.30000000E+03</pdfrwt>
<pdfrwt beam="2">0</pdfrwt>
<totfact> 0.27227247E+04</totfact>
</mgrwt>
</event>
<event>
 6    1  0.1198667E-001  0.3000000E+03  0.7818608E-02  0.1093470E+00
         21   -1    0    0  501  502  0.00000000000E+00  0.00000000000E+00  0.25072187071E+01  0.25072187071E+01  0.00000000000E+00 0. -1.
         13   -1    0    0    0    0 -0.00000000000E+00 -0.00000000000E+00 -0.10000000000E+04  0.10000000000E+04  0.00000000000E+00 0.  1.
    9000005    2    1    2  501    0 -0.27215202748E+02  0.20736776641E+02 -0.86452515231E+03  0.86520801433E+03  0.32385046914E+01 0.  0.
         13    1    3    3    0    0 -0.37327614426E+01  0.42579622003E+01 -0.15323780233E+03  0.15334238753E+03  0.00000000000E+00 0.  1.
          1    1    3    3  501    0 -0.23482441306E+02  0.16478814441E+02 -0.71128734998E+03  0.71186562680E+03  0.00000000000E+00 0.  1.
         -3    1    1    2    0  502  0.27215202748E+02 -0.20736776641E+02 -0.13296762898E+03  0.13729920438E+03  0.00000000000E+00 0. -1.
<mgrwt>
<rscale>  1 0.30000000E+03</rscale>
<asrwt>0</asrwt>
<pdfrwt beam="1">  1       21 0.91171782E-02 0.30000000E+03</pdfrwt>
<pdfrwt beam="2">0</pdfrwt>
<totfact> 0.10142812E+04</totfact>
</mgrwt>
</event>
<event>
 6    1  0.1198667E-001  0.3000000E+03  0.7818608E-02  0.1093470E+00
         21   -1    0    0  501  502  0.00000000000E+00  0.00000000000E+00  0.18976003411E+02  0.18976003411E+02  0.00000000000E+00 0. -1.
         13   -1    0    0    0    0 -0.00000000000E+00 -0.00000000000E+00 -0.10000000000E+04  0.10000000000E+04  0.00000000000E+00 0.  1.
    9000005    2    1    2  501    0 -0.53308196478E+02  0.61281914276E+02 -0.90198277719E+03  0.90564131678E+03  0.40034341921E+01 0.  0.
         13    1    3    3    0    0 -0.29484649779E+02  0.32257373593E+02 -0.46635113820E+03  0.46839434969E+03  0.00000000000E+00 0.  1.
          1    1    3    3  501    0 -0.23823546699E+02  0.29024540683E+02 -0.43563163899E+03  0.43724696709E+03  0.00000000000E+00 0.  1.
         -3    1    1    2    0  502  0.53308196478E+02 -0.61281914276E+02 -0.79041219398E+02  0.11333468663E+03  0.00000000000E+00 0. -1.
<mgrwt>
<rscale>  1 0.30000000E+03</rscale>
<asrwt>0</asrwt>
<pdfrwt beam="1">  1       21 0.69003794E-01 0.30000000E+03</pdfrwt>
<pdfrwt beam="2">0</pdfrwt>
<totfact> 0.18241391E+02</totfact>
</mgrwt>
</event>
<event>
 6    1  0.1198667E-001  0.3000000E+03  0.7818608E-02  0.1093470E+00
         21   -1    0    0  501  502  0.00000000000E+00  0.00000000000E+00  0.13834821396E+01  0.13834821396E+01  0.00000000000E+00 0. -1.
         13   -1    0    0    0    0 -0.00000000000E+00 -0.00000000000E+00 -0.10000000000E+04  0.10000000000E+04  0.00000000000E+00 0.  1.
    9000005    2    1    2  501    0 -0.23660743613E+02  0.20103046027E+02 -0.77377375525E+03  0.77440720332E+03  0.40901093483E+01 0.  0.
         13    1    3    3    0    0 -0.71650344701E+01  0.37651892638E+01 -0.19414154882E+03  0.19431020392E+03  0.00000000000E+00 0.  1.
          3    1    3    3  501    0 -0.16495709143E+02  0.16337856764E+02 -0.57963220643E+03  0.58009699940E+03  0.00000000000E+00 0.  1.
         -3    1    1    2    0  502  0.23660743613E+02 -0.20103046027E+02 -0.22484276261E+03  0.22697627882E+03  0.00000000000E+00 0. -1.
<mgrwt>
<rscale>  1 0.30000000E+03</rscale>
<asrwt>0</asrwt>
<pdfrwt beam="1">  1       21 0.50308548E-02 0.30000000E+03</pdfrwt>
<pdfrwt beam="2">0</pdfrwt>
<totfact> 0.28504101E+04</totfact>
</mgrwt>
</event>
<event>
 6    1  0.1198667E-001  0.3000000E+03  0.7818608E-02  0.1093470E+00
         21   -1    0    0  501  502  0.00000000000E+00  0.00000000000E+00  0.22808106390E+01  0.22808106390E+01  0.00000000000E+00 0. -1.
         13   -1    0    0    0    0 -0.00000000000E+00 -0.00000000000E+00 -0.10000000000E+04  0.10000000000E+04  0.00000000000E+00 0.  1.
    9000005    2    1    2  501    0 -0.27091175748E+02  0.16448083747E+02 -0.87350510259E+03  0.87408716565E+03  0.35689840054E+01 0.  0.
         13    1    3    3    0    0 -0.71307691886E+01  0.43994161496E+01 -0.19031760651E+03  0.19050195296E+03  0.00000000000E+00 0.  1.
          1    1    3    3  501    0 -0.19960406559E+02  0.12048667598E+02 -0.68318749608E+03  0.68358521269E+03  0.00000000000E+00 0.  1.
         -1    1    1    2    0  502  0.27091175748E+02 -0.16448083747E+02 -0.12421408677E+03  0.12819364499E+03  0.00000000000E+00 0. -1.
<mgrwt>
<rscale>  1 0.30000000E+03</rscale>
<asrwt>0</asrwt>
<pdfrwt beam="1">  1       21 0.82938744E-02 0.30000000E+03</pdfrwt>
<pdfrwt beam="2">0</pdfrwt>
<totfact> 0.11988737E+04</totfact>
</mgrwt>
</event>
<event>
 6    1  0.1198667E-001  0.3000000E+03  0.7818608E-02  0.1093470E+00
         21   -1    0    0  501  502  0.00000000000E+00  0.00000000000E+00  0.39603454846E+01  0.39603454846E+01  0.00000000000E+00 0. -1.
         13   -1    0    0    0    0 -0.00000000000E+00 -0.00000000000E+00 -0.10000000000E+04  0.10000000000E+04  0.00000000000E+00 0.  1.
    9000005    2    1    2  501    0 -0.44955871983E+02 -0.36731753372E+02 -0.69118888499E+03  0.69363109483E+03  0.34305757768E+01 0.  0.
         13    1    3    3    0    0 -0.22760486085E+02 -0.20199440824E+02 -0.37604344107E+03  0.37727274843E+03  0.00000000000E+00 0.  1.
          1    1    3    3  501    0 -0.22195385898E+02 -0.16532312547E+02 -0.31514544393E+03  0.31635834641E+03  0.00000000000E+00 0.  1.
         -3    1    1    2    0  502  0.44955871983E+02  0.36731753372E+02 -0.30485076952E+03  0.31032925065E+03  0.00000000000E+00 0. -1.
<mgrwt>
<rscale>  1 0.30000000E+03</rscale>
<asrwt>0</asrwt>
<pdfrwt beam="1">  1       21 0.14401287E-01 0.30000000E+03</pdfrwt>
<pdfrwt beam="2">0</pdfrwt>
<totfact> 0.44397261E+03</totfact>
</mgrwt>
</event>
<event>
 6    1  0.1198667E-001  0.3000000E+03  0.7818608E-02  0.1093470E+00
         21   -1    0    0  501  502  0.00000000000E+00  0.00000000000E+00  0.32861361642E+01  0.32861361642E+01  0.00000000000E+00 0. -1.
         13   -1    0    0    0    0 -0.00000000000E+00 -0.00000000000E+00 -0.10000000000E+04  0.10000000000E+04  0.00000000000E+00 0.  1.
    9000005    2    1    2  501    0 -0.16366468987E+02  0.25150118482E+02 -0.92570420279E+03  0.92619682609E+03  0.34496113465E+01 0.  0.
         13    1    3    3    0    0 -0.10923791879E+02  0.14098957471E+02 -0.57338361531E+03  0.57366094528E+03  0.00000000000E+00 0.  1.
          3    1    3    3  501    0 -0.54426771083E+01  0.11051161011E+02 -0.35232058748E+03  0.35253588081E+03  0.00000000000E+00 0.  1.
         -1    1    1    2    0  502  0.16366468987E+02 -0.25150118482E+02 -0.71009661044E+02  0.77089310078E+02  0.00000000000E+00 0. -1.
<mgrwt>
<rscale>  1 0.30000000E+03</rscale>
<asrwt>0</asrwt>
<pdfrwt beam="1">  1       21 0.11949611E-01 0.30000000E+03</pdfrwt>
<pdfrwt beam="2">0</pdfrwt>
<totfact> 0.62446169E+03</totfact>
</mgrwt>
</event>
<event>
 6    1  0.1198667E-001  0.3000000E+03  0.7818608E-02  0.1093470E+00
         21   -1    0    0  501  502  0.00000000000E+00  0.00000000000E+00  0.23999074859E+01  0.23999074859E+01  0.00000000000E+00 0. -1.
         13   -1    0    0    0    0 -0.00000000000E+00 -0.00000000000E+00 -0.10000000000E+04  0.10000000000E+04  0.00000000000E+00 0.  1.
    9000005    2    1    2  501    0  0.25840914421E+02  0.20888806037E+02 -0.86687801856E+03  0.86752086651E+03  0.32954046725E+01 0.  0.
         13    1    3    3    0    0  0.98531615463E+01  0.95169028586E+01 -0.32861872877E+03  0.32890412757E+03  0.00000000000E+00 0.  1.
          3    1    3    3  501    0  0.15987752875E+02  0.11371903178E+02 -0.53825928979E+03  0.53861673894E+03  0.00000000000E+00 0.  1.
         -3    1    1    2    0  502 -0.25840914421E+02 -0.20888806037E+02 -0.13072207396E+03  0.13487904098E+03  0.00000000000E+00 0. -1.
<mgrwt>
<rscale>  1 0.30000000E+03</rscale>
<asrwt>0</asrwt>
<pdfrwt beam="1">  1       21 0.87269547E-02 0.30000000E+03</pdfrwt>
<pdfrwt beam="2">0</pdfrwt>
<totfact> 0.10959476E+04</totfact>
</mgrwt>
</event>
<event>
 6    1  0.1198667E-001  0.3000000E+03  0.7818608E-02  0.1093470E+00
         21   -1    0    0  501  502  0.00000000000E+00  0.00000000000E+00  0.22885470144E+01  0.22885470144E+01  0.00000000000E+00 0. -1.
         13   -1    0    0    0    0 -0.00000000000E+00 -0.00000000000E+00 -0.10000000000E+04  0.10000000000E+04  0.00000000000E+00 0.  1.
    9000005    2    1    2  501    0  0.46209229233E+01  0.43949968571E+02 -0.68967630974E+03  0.69109953349E+03  0.34928931530E+01 0.  0.
         13    1    3    3    0    0  0.45898035274E+01  0.43654375900E+02 -0.68785397256E+03  0.68925311635E+03  0.00000000000E+00 0.  1.
          1    1    3    3  501    0  0.31119395842E-01  0.29559267183E+00 -0.18223371817E+01  0.18464171382E+01  0.00000000000E+00 0.  1.
         -1    1    1    2    0  502 -0.46209229233E+01 -0.43949968571E+02 -0.30803514324E+03  0.31118901352E+03  0.00000000000E+00 0. -1.
<mgrwt>
<rscale>  1 0.30000000E+03</rscale>
<asrwt>0</asrwt>
<pdfrwt beam="1">  1       21 0.83220067E-02 0.30000000E+03</pdfrwt>
<pdfrwt beam="2">0</pdfrwt>
<totfact> 0.11917477E+04</totfact>
</mgrwt>
</event>
<event>
 6    1  0.1198667E-001  0.3000000E+03  0.7818608E-02  0.1093470E+00
         21   -1    0    0  501  502  0.00000000000E+00  0.00000000000E+00  0.18831369625E+01  0.18831369625E+01  0.00000000000E+00 0. -1.
         13   -1    0    0    0    0 -0.00000000000E+00 -0.00000000000E+00 -0.10000000000E+04  0.10000000000E+04  0.00000000000E+00 0.  1.
    9000005    2    1    2  501    0 -0.38746562066E+02  0.18673655444E+02 -0.56054653277E+03  0.56220394095E+03  0.32945917439E+01 0.  0.
         13    1    3    3    0    0 -0.11140887429E+02  0.70400137465E+01 -0.16881249237E+03  0.16932613132E+03  0.00000000000E+00 0.  1.
          1    1    3    3  501    0 -0.27605674636E+02  0.11633641698E+02 -0.39173404040E+03  0.39287780963E+03  0.00000000000E+00 0.  1.
         -1    1    1    2    0  502  0.38746562066E+02 -0.18673655444E+02 -0.43757033026E+03  0.43967919601E+03  0.00000000000E+00 0. -1.
<mgrwt>
<rscale>  1 0.30000000E+03</rscale>
<asrwt>0</asrwt>
<pdfrwt beam="1">  1       21 0.68477852E-02 0.30000000E+03</pdfrwt>
<pdfrwt beam="2">0</pdfrwt>
<totfact> 0.16764048E+04</totfact>
</mgrwt>
</event>
<event>
 6    1  0.1198667E-001  0.3000000E+03  0.7818608E-02  0.1093470E+00
         21   -1    0    0  501  502  0.00000000000E+00  0.00000000000E+00  0.32619505437E+01  0.32619505437E+01  0.00000000000E+00 0. -1.
         13   -1    0    0    0    0 -0.00000000000E+00 -0.00000000000E+00 -0.10000000000E+04  0.10000000000E+04  0.00000000000E+00 0.  1.
    9000005    2    1    2  501    0 -0.27122027069E+02 -0.34912092571E+02 -0.81586228605E+03  0.81706178849E+03  0.20586054145E+01 0.  0.
         13    1    3    3    0    0 -0.46625220503E+01 -0.57047662625E+01 -0.12274604188E+03  0.12296696413E+03  0.00000000000E+00 0.  1.
          1    1    3    3  501    0 -0.22459505019E+02 -0.29207326308E+02 -0.69311624417E+03  0.69409482436E+03  0.00000000000E+00 0.  1.
         -3    1    1    2    0  502  0.27122027069E+02  0.34912092571E+02 -0.18087576341E+03  0.18620016205E+03  0.00000000000E+00 0. -1.
<mgrwt>
<rscale>  1 0.30000000E+03</rscale>
<asrwt>0</asrwt>
<pdfrwt beam="1">  1       21 0.11861663E-01 0.30000000E+03</pdfrwt>
<pdfrwt beam="2">0</pdfrwt>
<totfact> 0.63288256E+03</totfact>
</mgrwt>
</event>
<event>
 6    1  0.1198667E-001  0.3000000E+03  0.7818608E-02  0.1093470E+00
         21   -1    0    0  501  502  0.00000000000E+00  0.00000000000E+00  0.22693624648E+01  0.22693624648E+01  0.00000000000E+00 0. -1.
         13   -1    0    0    0    0 -0.00000000000E+00 -0.00000000000E+00 -0.10000000000E+04  0.10000000000E+04  0.00000000000E+00 0.  1.
    9000005    2    1    2  501    0 -0.45025883277E+02  0.12171963936E+02 -0.40052611572E+03  0.40324621788E+03  0.32948429863E+01 0.  0.
         13    1    3    3    0    0 -0.38293395577E+02  0.11008051721E+02 -0.34984474680E+03  0.35210638763E+03  0.00000000000E+00 0.  1.
          3    1    3    3  501    0 -0.67324877008E+01  0.11639122154E+01 -0.50681368922E+02  0.51139830251E+02  0.00000000000E+00 0.  1.
         -1    1    1    2    0  502  0.45025883277E+02 -0.12171963936E+02 -0.59720452181E+03  0.59902314458E+03  0.00000000000E+00 0. -1.
<mgrwt>
<rscale>  1 0.30000000E+03</rscale>
<asrwt>0</asrwt>
<pdfrwt beam="1">  1       21 0.82522445E-02 0.30000000E+03</pdfrwt>
<pdfrwt beam="2">0</pdfrwt>
<totfact> 0.12095388E+04</totfact>
</mgrwt>
</event>
<event>
 6    1  0.1198667E-001  0.3000000E+03  0.7818608E-02  0.1093470E+00
         21   -1    0    0  501  502  0.00000000000E+00  0.00000000000E+00  0.15289362738E+01  0.15289362738E+01  0.00000000000E+00 0. -1.
         13   -1    0    0    0    0 -0.00000000000E+00 -0.00000000000E+00 -0.10000000000E+04  0.10000000000E+04  0.00000000000E+00 0.  1.
    9000005    2    1    2  501    0  0.24759752664E+02  0.17887569045E+02 -0.18921702144E+03  0.19169863588E+03  0.35036149255E+01 0.  0.
         13    1    3    3    0    0  0.11174879756E+02  0.78638387691E+01 -0.95580452971E+02  0.96552270237E+02  0.00000000000E+00 0.  1.
          3    1    3    3  501    0  0.13584872908E+02  0.10023730276E+02 -0.93636568470E+02  0.95146365644E+02  0.00000000000E+00 0.  1.
         -1    1    1    2    0  502 -0.24759752664E+02 -0.17887569045E+02 -0.80925404229E+03  0.80983030039E+03  0.00000000000E+00 0. -1.
<mgrwt>
<rscale>  1 0.30000000E+03</rscale>
<asrwt>0</asrwt>
<pdfrwt beam="1">  1       21 0.55597800E-02 0.30000000E+03</pdfrwt>
<pdfrwt beam="2">0</pdfrwt>
<totfact> 0.24024485E+04</totfact>
</mgrwt>
</event>
<event>
 6    1  0.1198667E-001  0.3000000E+03  0.7818608E-02  0.1093470E+00
         21   -1    0    0  501  502  0.00000000000E+00  0.00000000000E+00  0.22177008215E+01  0.22177008215E+01  0.00000000000E+00 0. -1.
         13   -1    0    0    0    0 -0.00000000000E+00 -0.00000000000E+00 -0.10000000000E+04  0.10000000000E+04  0.00000000000E+00 0.  1.
    9000005    2    1    2  501    0 -0.31606807516E+02 -0.96522929962E+00 -0.86991411329E+03  0.87049756222E+03  0.39394660939E+01 0.  0.
         13    1    3    3    0    0 -0.17638097311E+02 -0.13923425317E+01 -0.53347520174E+03  0.53376851909E+03  0.00000000000E+00 0.  1.
          1    1    3    3  501    0 -0.13968710205E+02  0.42711323205E+00 -0.33643891154E+03  0.33672904314E+03  0.00000000000E+00 0.  1.
         -3    1    1    2    0  502  0.31606807516E+02  0.96522929962E+00 -0.12786818589E+03  0.13172013860E+03  0.00000000000E+00 0. -1.
<mgrwt>
<rscale>  1 0.30000000E+03</rscale>
<asrwt>0</asrwt>
<pdfrwt beam="1">  1       21 0.80643836E-02 0.30000000E+03</pdfrwt>
<pdfrwt beam="2">0</pdfrwt>
<totfact> 0.12595241E+04</totfact>
</mgrwt>
</event>
<event>
 6    1  0.1198667E-001  0.3000000E+03  0.7818608E-02  0.1093470E+00
         21   -1    0    0  501  502  0.00000000000E+00  0.00000000000E+00  0.39865639584E+01  0.39865639584E+01  0.00000000000E+00 0. -1.
         13   -1    0    0    0    0 -0.00000000000E+00 -0.00000000000E+00 -0.10000000000E+04  0.10000000000E+04  0.00000000000E+00 0.  1.
    9000005    2    1    2  501    0 -0.18364655546E+02  0.25586920672E+02 -0.93301863719E+03  0.93355719675E+03  0.36484490183E+01 0.  0.
         13    1    3    3    0    0 -0.13160459775E+02  0.16239701747E+02 -0.58025799752E+03  0.58063436800E+03  0.00000000000E+00 0.  1.
          3    1    3    3  501    0 -0.52041957706E+01  0.93472189247E+01 -0.35276063966E+03  0.35292282875E+03  0.00000000000E+00 0.  1.
         -3    1    1    2    0  502  0.18364655546E+02 -0.25586920672E+02 -0.62994798853E+02  0.70429367208E+02  0.00000000000E+00 0. -1.
<mgrwt>
<rscale>  1 0.30000000E+03</rscale>
<asrwt>0</asrwt>
<pdfrwt beam="1">  1       21 0.14496627E-01 0.30000000E+03</pdfrwt>
<pdfrwt beam="2">0</pdfrwt>
<totfact> 0.43860584E+03</totfact>
</mgrwt>
</event>
<event>
 6    1  0.1198667E-001  0.3000000E+03  0.7818608E-02  0.1093470E+00
         21   -1    0    0  501  502  0.00000000000E+00  0.00000000000E+00  0.10996934865E+01  0.10996934865E+01  0.00000000000E+00 0. -1.
         13   -1    0    0    0    0 -0.00000000000E+00 -0.00000000000E+00 -0.10000000000E+04  0.10000000000E+04  0.00000000000E+00 0.  1.
    9000005    2    1    2  501    0  0.12251186015E+02 -0.28262670690E+02 -0.68257721425E+03  0.68328029695E+03  0.33824071930E+01 0.  0.
         13    1    3    3    0    0  0.79145768955E+01 -0.14706099902E+02 -0.38869199198E+03  0.38905060664E+03  0.00000000000E+00 0.  1.
          1    1    3    3  501    0  0.43366091198E+01 -0.13556570789E+02 -0.29388522227E+03  0.29422969031E+03  0.00000000000E+00 0.  1.
         -1    1    1    2    0  502 -0.12251186015E+02  0.28262670690E+02 -0.31632309226E+03  0.31781939653E+03  0.00000000000E+00 0. -1.
<mgrwt>
<rscale>  1 0.30000000E+03</rscale>
<asrwt>0</asrwt>
<pdfrwt beam="1">  1       21 0.39988938E-02 0.30000000E+03</pdfrwt>
<pdfrwt beam="2">0</pdfrwt>
<totfact> 0.42066912E+04</totfact>
</mgrwt>
</event>
<event>
 6    1  0.1198667E-001  0.3000000E+03  0.7818608E-02  0.1093470E+00
         21   -1    0    0  501  502  0.00000000000E+00  0.00000000000E+00  0.22651823601E+01  0.22651823601E+01  0.00000000000E+00 0. -1.
         13   -1    0    0    0    0 -0.00000000000E+00 -0.00000000000E+00 -0.10000000000E+04  0.10000000000E+04  0.00000000000E+00 0.  1.
    9000005    2    1    2  501    0  0.25370250666E+02  0.31547634655E+02 -0.76180779874E+03  0.76289003512E+03  0.33437384340E+01 0.  0.
         13    1    3    3    0    0  0.16214929312E+02  0.22251332131E+02 -0.50059647789E+03  0.50135304865E+03  0.00000000000E+00 0.  1.
          3    1    3    3  501    0  0.91553213541E+01  0.92963025247E+01 -0.26121132085E+03  0.26153698647E+03  0.00000000000E+00 0.  1.
         -3    1    1    2    0  502 -0.25370250666E+02 -0.31547634655E+02 -0.23592701890E+03  0.23937514724E+03  0.00000000000E+00 0. -1.
<mgrwt>
<rscale>  1 0.30000000E+03</rscale>
<asrwt>0</asrwt>
<pdfrwt beam="1">  1       21 0.82370441E-02 0.30000000E+03</pdfrwt>
<pdfrwt beam="2">0</pdfrwt>
<totfact> 0.12134692E+04</totfact>
</mgrwt>
</event>
<event>
 6    1  0.1198667E-001  0.3000000E+03  0.7818608E-02  0.1093470E+00
         21   -1    0    0  501  502  0.00000000000E+00  0.00000000000E+00  0.26231428821E+01  0.26231428821E+01  0.00000000000E+00 0. -1.
         13   -1    0    0    0    0 -0.00000000000E+00 -0.00000000000E+00 -0.10000000000E+04  0.10000000000E+04  0.00000000000E+00 0.  1.
    9000005    2    1    2  501    0  0.51211098051E+01 -0.41761664973E+02 -0.78375197767E+03  0.78489429420E+03  0.46506072277E+01 0.  0.
         13    1    3    3    0    0  0.55738928738E+00 -0.28418287284E+01 -0.79736135989E+02  0.79788708824E+02  0.00000000000E+00 0.  1.
          3    1    3    3  501    0  0.45637205177E+01 -0.38919836245E+02 -0.70401584168E+03  0.70510558538E+03  0.00000000000E+00 0.  1.
         -1    1    1    2    0  502 -0.51211098051E+01  0.41761664973E+02 -0.21362487945E+03  0.21772884868E+03  0.00000000000E+00 0. -1.
<mgrwt>
<rscale>  1 0.30000000E+03</rscale>
<asrwt>0</asrwt>
<pdfrwt beam="1">  1       21 0.95387215E-02 0.30000000E+03</pdfrwt>
<pdfrwt beam="2">0</pdfrwt>
<totfact> 0.93596423E+03</totfact>
</mgrwt>
</event>
<event>
 6    1  0.1198667E-001  0.3000000E+03  0.7818608E-02  0.1093470E+00
         21   -1    0    0  501  502  0.00000000000E+00  0.00000000000E+00  0.27149364114E+01  0.27149364114E+01  0.00000000000E+00 0. -1.
         13   -1    0    0    0    0 -0.00000000000E+00 -0.00000000000E+00 -0.10000000000E+04  0.10000000000E+04  0.00000000000E+00 0.  1.
    9000005    2    1    2  501    0 -0.33388932708E+02  0.24061771797E+02 -0.80554919645E+03  0.80661181956E+03  0.43965749897E+01 0.  0.
         13    1    3    3    0    0 -0.31017478901E+02  0.23263085080E+02 -0.74021846115E+03  0.74123317880E+03  0.00000000000E+00 0.  1.
          1    1    3    3  501    0 -0.23714538077E+01  0.79868671686E+00 -0.65330735293E+02  0.65378640759E+02  0.00000000000E+00 0.  1.
         -1    1    1    2    0  502  0.33388932708E+02 -0.24061771797E+02 -0.19173586714E+03  0.19610311685E+03  0.00000000000E+00 0. -1.
<mgrwt>
<rscale>  1 0.30000000E+03</rscale>
<asrwt>0</asrwt>
<pdfrwt beam="1">  1       21 0.98725169E-02 0.30000000E+03</pdfrwt>
<pdfrwt beam="2">0</pdfrwt>
<totfact> 0.88026335E+03</totfact>
</mgrwt>
</event>
<event>
 6    1  0.1198667E-001  0.3000000E+03  0.7818608E-02  0.1093470E+00
         21   -1    0    0  501  502  0.00000000000E+00  0.00000000000E+00  0.95666119968E+00  0.95666119968E+00  0.00000000000E+00 0. -1.
         13   -1    0    0    0    0 -0.00000000000E+00 -0.00000000000E+00 -0.10000000000E+04  0.10000000000E+04  0.00000000000E+00 0.  1.
    9000005    2    1    2  501    0  0.17478888809E+02 -0.24603246228E+02 -0.60420961484E+03  0.60497118059E+03  0.31685009001E+01 0.  0.
         13    1    3    3    0    0  0.13145338845E+01 -0.19726165861E+01 -0.67370981921E+02  0.67412672552E+02  0.00000000000E+00 0.  1.
          1    1    3    3  501    0  0.16164354924E+02 -0.22630629642E+02 -0.53683863292E+03  0.53755850804E+03  0.00000000000E+00 0.  1.
         -1    1    1    2    0  502 -0.17478888809E+02  0.24603246228E+02 -0.39483372396E+03  0.39598548061E+03  0.00000000000E+00 0. -1.
<mgrwt>
<rscale>  1 0.30000000E+03</rscale>
<asrwt>0</asrwt>
<pdfrwt beam="1">  1       21 0.34787753E-02 0.30000000E+03</pdfrwt>
<pdfrwt beam="2">0</pdfrwt>
<totfact> 0.53155339E+04</totfact>
</mgrwt>
</event>
<event>
 6    1  0.1198667E-001  0.3000000E+03  0.7818608E-02  0.1093470E+00
         21   -1    0    0  501  502  0.00000000000E+00  0.00000000000E+00  0.15465992605E+01  0.15465992605E+01  0.00000000000E+00 0. -1.
         13   -1    0    0    0    0 -0.00000000000E+00 -0.00000000000E+00 -0.10000000000E+04  0.10000000000E+04  0.00000000000E+00 0.  1.
    9000005    2    1    2  501    0 -0.20709596361E+02 -0.32087718745E+02 -0.61584540488E+03  0.61703731774E+03  0.33135634943E+01 0.  0.
         13    1    3    3    0    0 -0.17151676968E+02 -0.24332615628E+02 -0.46796078036E+03  0.46890675849E+03  0.00000000000E+00 0.  1.
          1    1    3    3  501    0 -0.35579193922E+01 -0.77551031173E+01 -0.14788462452E+03  0.14813055925E+03  0.00000000000E+00 0.  1.
         -3    1    1    2    0  502  0.20709596361E+02  0.32087718745E+02 -0.38260799586E+03  0.38450928152E+03  0.00000000000E+00 0. -1.
<mgrwt>
<rscale>  1 0.30000000E+03</rscale>
<asrwt>0</asrwt>
<pdfrwt beam="1">  1       21 0.56240092E-02 0.30000000E+03</pdfrwt>
<pdfrwt beam="2">0</pdfrwt>
<totfact> 0.23555361E+04</totfact>
</mgrwt>
</event>
<event>
 6    1  0.1198667E-001  0.3000000E+03  0.7818608E-02  0.1093470E+00
         21   -1    0    0  501  502  0.00000000000E+00  0.00000000000E+00  0.59842904323E+01  0.59842904323E+01  0.00000000000E+00 0. -1.
         13   -1    0    0    0    0 -0.00000000000E+00 -0.00000000000E+00 -0.10000000000E+04  0.10000000000E+04  0.00000000000E+00 0.  1.
    9000005    2    1    2  501    0 -0.60137964268E+01 -0.33336641805E+02 -0.94919181653E+03  0.94979996147E+03  0.27138163682E+01 0.  0.
         13    1    3    3    0    0 -0.36217805603E+01 -0.19661379647E+02 -0.59689345306E+03  0.59722816532E+03  0.00000000000E+00 0.  1.
          3    1    3    3  501    0 -0.23920158665E+01 -0.13675262159E+02 -0.35229836347E+03  0.35257179615E+03  0.00000000000E+00 0.  1.
         -3    1    1    2    0  502  0.60137964268E+01  0.33336641805E+02 -0.44823893037E+02  0.56184328965E+02  0.00000000000E+00 0. -1.
<mgrwt>
<rscale>  1 0.30000000E+03</rscale>
<asrwt>0</asrwt>
<pdfrwt beam="1">  1       21 0.21761102E-01 0.30000000E+03</pdfrwt>
<pdfrwt beam="2">0</pdfrwt>
<totfact> 0.20410287E+03</totfact>
</mgrwt>
</event>
<event>
 6    1  0.1198667E-001  0.3000000E+03  0.7818608E-02  0.1093470E+00
         21   -1    0    0  501  502  0.00000000000E+00  0.00000000000E+00  0.63913593227E+01  0.63913593227E+01  0.00000000000E+00 0. -1.
         13   -1    0    0    0    0 -0.00000000000E+00 -0.00000000000E+00 -0.10000000000E+04  0.10000000000E+04  0.00000000000E+00 0.  1.
    9000005    2    1    2  501    0  0.50557997433E+02 -0.21670598743E+02 -0.86185491918E+03  0.86361611958E+03  0.36296466980E+01 0.  0.
         13    1    3    3    0    0  0.46020640025E+02 -0.20635846025E+02 -0.79736624504E+03  0.79895974002E+03  0.00000000000E+00 0.  1.
          1    1    3    3  501    0  0.45373574079E+01 -0.10347527187E+01 -0.64488674142E+02  0.64656379562E+02  0.00000000000E+00 0.  1.
         -3    1    1    2    0  502 -0.50557997433E+02  0.21670598743E+02 -0.13175372150E+03  0.14277523974E+03  0.00000000000E+00 0. -1.
<mgrwt>
<rscale>  1 0.30000000E+03</rscale>
<asrwt>0</asrwt>
<pdfrwt beam="1">  1       21 0.23241356E-01 0.30000000E+03</pdfrwt>
<pdfrwt beam="2">0</pdfrwt>
<totfact> 0.17975767E+03</totfact>
</mgrwt>
</event>
<event>
 6    1  0.1198667E-001  0.3000000E+03  0.7818608E-02  0.1093470E+00
         21   -1    0    0  501  502  0.00000000000E+00  0.00000000000E+00  0.55340605731E+01  0.55340605731E+01  0.00000000000E+00 0. -1.
         13   -1    0    0    0    0 -0.00000000000E+00 -0.00000000000E+00 -0.10000000000E+04  0.10000000000E+04  0.00000000000E+00 0.  1.
    9000005    2    1    2  501    0 -0.14134039789E+02  0.33957082896E+02 -0.93420649336E+03  0.93493621783E+03  0.33323589437E+01 0.  0.
         13    1    3    3    0    0 -0.89707617725E+01  0.17880919823E+02 -0.48436649106E+03  0.48477943389E+03  0.00000000000E+00 0.  1.
          3    1    3    3  501    0 -0.51632780165E+01  0.16076163072E+02 -0.44984000231E+03  0.45015678395E+03  0.00000000000E+00 0.  1.
         -1    1    1    2    0  502  0.14134039789E+02 -0.33957082896E+02 -0.60259446065E+02  0.70597842740E+02  0.00000000000E+00 0. -1.
<mgrwt>
<rscale>  1 0.30000000E+03</rscale>
<asrwt>0</asrwt>
<pdfrwt beam="1">  1       21 0.20123899E-01 0.30000000E+03</pdfrwt>
<pdfrwt beam="2">0</pdfrwt>
<totfact> 0.23710917E+03</totfact>
</mgrwt>
</event>
<event>
 6    1  0.1198667E-001  0.3000000E+03  0.7818608E-02  0.1093470E+00
         21   -1    0    0  501  502  0.00000000000E+00  0.00000000000E+00  0.19974789361E+01  0.19974789361E+01  0.00000000000E+00 0. -1.
         13   -1    0    0    0    0 -0.00000000000E+00 -0.00000000000E+00 -0.10000000000E+04  0.10000000000E+04  0.00000000000E+00 0.  1.
    9000005    2    1    2  501    0  0.69166258169E+01  0.32416379357E+02 -0.83469214753E+03  0.83535732931E+03  0.34964441974E+01 0.  0.
         13    1    3    3    0    0  0.37216316898E+00  0.57809814404E+01 -0.12161219569E+03  0.12175008991E+03  0.00000000000E+00 0.  1.
          1    1    3    3  501    0  0.65444626479E+01  0.26635397916E+02 -0.71307995184E+03  0.71360723941E+03  0.00000000000E+00 0.  1.
         -3    1    1    2    0  502 -0.69166258169E+01 -0.32416379357E+02 -0.16331037353E+03  0.16664014962E+03  0.00000000000E+00 0. -1.
<mgrwt>
<rscale>  1 0.30000000E+03</rscale>
<asrwt>0</asrwt>
<pdfrwt beam="1">  1       21 0.72635751E-02 0.30000000E+03</pdfrwt>
<pdfrwt beam="2">0</pdfrwt>
<totfact> 0.15128514E+04</totfact>
</mgrwt>
</event>
<event>
 6    1  0.1198667E-001  0.3000000E+03  0.7818608E-02  0.1093470E+00
         21   -1    0    0  501  502  0.00000000000E+00  0.00000000000E+00  0.15146092230E+01  0.15146092230E+01  0.00000000000E+00 0. -1.
         13   -1    0    0    0    0 -0.00000000000E+00 -0.00000000000E+00 -0.10000000000E+04  0.10000000000E+04  0.00000000000E+00 0.  1.
    9000005    2    1    2  501    0  0.30480223267E+02 -0.56092892354E+01 -0.80126547071E+03  0.80187442036E+03  0.39652675856E+01 0.  0.
         13    1    3    3    0    0  0.27064478908E+01  0.62532647447E+00 -0.73870718437E+02  0.73922925644E+02  0.00000000000E+00 0.  1.
          1    1    3    3  501    0  0.27773775376E+02 -0.62346157099E+01 -0.72739475227E+03  0.72795149472E+03  0.00000000000E+00 0.  1.
         -3    1    1    2    0  502 -0.30480223267E+02  0.56092892354E+01 -0.19721992007E+03  0.19964018886E+03  0.00000000000E+00 0. -1.
<mgrwt>
<rscale>  1 0.30000000E+03</rscale>
<asrwt>0</asrwt>
<pdfrwt beam="1">  1       21 0.55076815E-02 0.30000000E+03</pdfrwt>
<pdfrwt beam="2">0</pdfrwt>
<totfact> 0.24415647E+04</totfact>
</mgrwt>
</event>
<event>
 6    1  0.1198667E-001  0.3000000E+03  0.7818608E-02  0.1093470E+00
         21   -1    0    0  501  502  0.00000000000E+00  0.00000000000E+00  0.15636237563E+01  0.15636237563E+01  0.00000000000E+00 0. -1.
         13   -1    0    0    0    0 -0.00000000000E+00 -0.00000000000E+00 -0.10000000000E+04  0.10000000000E+04  0.00000000000E+00 0.  1.
    9000005    2    1    2  501    0 -0.34064405798E+02 -0.18957008327E+02 -0.57809313543E+03  0.57941650248E+03  0.34724924080E+01 0.  0.
         13    1    3    3    0    0 -0.32607293079E+02 -0.18366486961E+02 -0.54297048328E+03  0.54425867849E+03  0.00000000000E+00 0.  1.
          1    1    3    3  501    0 -0.14571127194E+01 -0.59052136582E+00 -0.35122652156E+02  0.35157823986E+02  0.00000000000E+00 0.  1.
         -3    1    1    2    0  502  0.34064405798E+02  0.18957008327E+02 -0.42034324081E+03  0.42214712128E+03  0.00000000000E+00 0. -1.
<mgrwt>
<rscale>  1 0.30000000E+03</rscale>
<asrwt>0</asrwt>
<pdfrwt beam="1">  1       21 0.56859166E-02 0.30000000E+03</pdfrwt>
<pdfrwt beam="2">0</pdfrwt>
<totfact> 0.23116375E+04</totfact>
</mgrwt>
</event>
<event>
 6    1  0.1198667E-001  0.3000000E+03  0.7818608E-02  0.1093470E+00
         21   -1    0    0  501  502  0.00000000000E+00  0.00000000000E+00  0.60387778078E+01  0.60387778078E+01  0.00000000000E+00 0. -1.
         13   -1    0    0    0    0 -0.00000000000E+00 -0.00000000000E+00 -0.10000000000E+04  0.10000000000E+04  0.00000000000E+00 0.  1.
    9000005    2    1    2  501    0  0.15968521506E+02 -0.32473609409E+02 -0.94185652620E+03  0.94260039564E+03  0.96052556373E+01 0.  0.
         13    1    3    3    0    0  0.63387331291E+01 -0.65744697677E+01 -0.16491224155E+03  0.16516491941E+03  0.00000000000E+00 0.  1.
          3    1    3    3  501    0  0.96297883766E+01 -0.25899139642E+02 -0.77694428465E+03  0.77743547623E+03  0.00000000000E+00 0.  1.
         -1    1    1    2    0  502 -0.15968521506E+02  0.32473609409E+02 -0.52104695994E+02  0.63438382166E+02  0.00000000000E+00 0. -1.
<mgrwt>
<rscale>  1 0.30000000E+03</rscale>
<asrwt>0</asrwt>
<pdfrwt beam="1">  1       21 0.21959238E-01 0.30000000E+03</pdfrwt>
<pdfrwt beam="2">0</pdfrwt>
<totfact> 0.20057416E+03</totfact>
</mgrwt>
</event>
<event>
 6    1  0.1198667E-001  0.3000000E+03  0.7818608E-02  0.1093470E+00
         21   -1    0    0  501  502  0.00000000000E+00  0.00000000000E+00  0.98806078985E+00  0.98806078985E+00  0.00000000000E+00 0. -1.
         13   -1    0    0    0    0 -0.00000000000E+00 -0.00000000000E+00 -0.10000000000E+04  0.10000000000E+04  0.00000000000E+00 0.  1.
    9000005    2    1    2  501    0  0.19459483140E+02 -0.23416642082E+02 -0.61498592343E+03  0.61575697247E+03  0.46853516909E+01 0.  0.
         13    1    3    3    0    0  0.14231320583E+02 -0.17766666361E+02 -0.41619181925E+03  0.41681388572E+03  0.00000000000E+00 0.  1.
          1    1    3    3  501    0  0.52281625573E+01 -0.56499757216E+01 -0.19879410418E+03  0.19894308675E+03  0.00000000000E+00 0.  1.
         -1    1    1    2    0  502 -0.19459483140E+02  0.23416642082E+02 -0.38402601578E+03  0.38523108832E+03  0.00000000000E+00 0. -1.
<mgrwt>
<rscale>  1 0.30000000E+03</rscale>
<asrwt>0</asrwt>
<pdfrwt beam="1">  1       21 0.35929559E-02 0.30000000E+03</pdfrwt>
<pdfrwt beam="2">0</pdfrwt>
<totfact> 0.50355427E+04</totfact>
</mgrwt>
</event>
<event>
 6    1  0.1198667E-001  0.3000000E+03  0.7818608E-02  0.1093470E+00
         21   -1    0    0  501  502  0.00000000000E+00  0.00000000000E+00  0.16500261817E+01  0.16500261817E+01  0.00000000000E+00 0. -1.
         13   -1    0    0    0    0 -0.00000000000E+00 -0.00000000000E+00 -0.10000000000E+04  0.10000000000E+04  0.00000000000E+00 0.  1.
    9000005    2    1    2  501    0 -0.78852215556E+00 -0.39192757752E+02 -0.62424086492E+03  0.62549271948E+03  0.52716841683E+01 0.  0.
         13    1    3    3    0    0 -0.23912366197E+01 -0.34686002374E+02 -0.54668185994E+03  0.54778635686E+03  0.00000000000E+00 0.  1.
          1    1    3    3  501    0  0.16027144641E+01 -0.45067553776E+01 -0.77559004985E+02  0.77706362622E+02  0.00000000000E+00 0.  1.
         -3    1    1    2    0  502  0.78852215556E+00  0.39192757752E+02 -0.37410910890E+03  0.37615730670E+03  0.00000000000E+00 0. -1.
<mgrwt>
<rscale>  1 0.30000000E+03</rscale>
<asrwt>0</asrwt>
<pdfrwt beam="1">  1       21 0.60001079E-02 0.30000000E+03</pdfrwt>
<pdfrwt beam="2">0</pdfrwt>
<totfact> 0.21071012E+04</totfact>
</mgrwt>
</event>
<event>
 6    1  0.1198667E-001  0.3000000E+03  0.7818608E-02  0.1093470E+00
         21   -1    0    0  501  502  0.00000000000E+00  0.00000000000E+00  0.15177822718E+01  0.15177822718E+01  0.00000000000E+00 0. -1.
         13   -1    0    0    0    0 -0.00000000000E+00 -0.00000000000E+00 -0.10000000000E+04  0.10000000000E+04  0.00000000000E+00 0.  1.
    9000005    2    1    2  501    0  0.18329722084E+02 -0.34289108471E+02 -0.49464781850E+03  0.49618539312E+03  0.34290430279E+01 0.  0.
         13    1    3    3    0    0  0.15098314272E+02 -0.30175186119E+02 -0.41840863089E+03  0.41976693933E+03  0.00000000000E+00 0.  1.
          1    1    3    3  501    0  0.32314078123E+01 -0.41139223519E+01 -0.76239187608E+02  0.76418453797E+02  0.00000000000E+00 0.  1.
         -3    1    1    2    0  502 -0.18329722084E+02  0.34289108471E+02 -0.50383439923E+03  0.50533238915E+03  0.00000000000E+00 0. -1.
<mgrwt>
<rscale>  1 0.30000000E+03</rscale>
<asrwt>0</asrwt>
<pdfrwt beam="1">  1       21 0.55192199E-02 0.30000000E+03</pdfrwt>
<pdfrwt beam="2">0</pdfrwt>
<totfact> 0.24328174E+04</totfact>
</mgrwt>
</event>
<event>
 6    1  0.1198667E-001  0.3000000E+03  0.7818608E-02  0.1093470E+00
         21   -1    0    0  501  502  0.00000000000E+00  0.00000000000E+00  0.32026165619E+01  0.32026165619E+01  0.00000000000E+00 0. -1.
         13   -1    0    0    0    0 -0.00000000000E+00 -0.00000000000E+00 -0.10000000000E+04  0.10000000000E+04  0.00000000000E+00 0.  1.
    9000005    2    1    2  501    0 -0.15029247246E+02 -0.43992499921E+02 -0.78411824673E+03  0.78550182760E+03  0.32369726634E+01 0.  0.
         13    1    3    3    0    0 -0.27362056119E+01 -0.12356236965E+02 -0.20779685689E+03  0.20818188477E+03  0.00000000000E+00 0.  1.
          1    1    3    3  501    0 -0.12293041634E+02 -0.31636262956E+02 -0.57632138983E+03  0.57731994283E+03  0.00000000000E+00 0.  1.
         -1    1    1    2    0  502  0.15029247246E+02  0.43992499921E+02 -0.21267913671E+03  0.21770078896E+03  0.00000000000E+00 0. -1.
<mgrwt>
<rscale>  1 0.30000000E+03</rscale>
<asrwt>0</asrwt>
<pdfrwt beam="1">  1       21 0.11645903E-01 0.30000000E+03</pdfrwt>
<pdfrwt beam="2">0</pdfrwt>
<totfact> 0.65427269E+03</totfact>
</mgrwt>
</event>
<event>
 6    1  0.1198667E-001  0.3000000E+03  0.7818608E-02  0.1093470E+00
         21   -1    0    0  501  502  0.00000000000E+00  0.00000000000E+00  0.20176665332E+01  0.20176665332E+01  0.00000000000E+00 0. -1.
         13   -1    0    0    0    0 -0.00000000000E+00 -0.00000000000E+00 -0.10000000000E+04  0.10000000000E+04  0.00000000000E+00 0.  1.
    9000005    2    1    2  501    0  0.22727010426E+02 -0.35894996043E+02 -0.34137210265E+03  0.34403441222E+03  0.44493347616E+01 0.  0.
         13    1    3    3    0    0  0.30047894336E+01 -0.54701663754E+01 -0.39004477191E+02  0.39500642028E+02  0.00000000000E+00 0.  1.
          1    1    3    3  501    0  0.19722220992E+02 -0.30424829668E+02 -0.30236762546E+03  0.30453377020E+03  0.00000000000E+00 0.  1.
         -3    1    1    2    0  502 -0.22727010426E+02  0.35894996043E+02 -0.65661023081E+03  0.65798325431E+03  0.00000000000E+00 0. -1.
<mgrwt>
<rscale>  1 0.30000000E+03</rscale>
<asrwt>0</asrwt>
<pdfrwt beam="1">  1       21 0.73369847E-02 0.30000000E+03</pdfrwt>
<pdfrwt beam="2">0</pdfrwt>
<totfact> 0.14865098E+04</totfact>
</mgrwt>
</event>
<event>
 6    1  0.1198667E-001  0.3000000E+03  0.7818608E-02  0.1093470E+00
         21   -1    0    0  501  502  0.00000000000E+00  0.00000000000E+00  0.11088329601E+01  0.11088329601E+01  0.00000000000E+00 0. -1.
         13   -1    0    0    0    0 -0.00000000000E+00 -0.00000000000E+00 -0.10000000000E+04  0.10000000000E+04  0.00000000000E+00 0.  1.
    9000005    2    1    2  501    0  0.21795699147E+02 -0.24989120198E+02 -0.51375100062E+03  0.51483680034E+03  0.41631384883E+01 0.  0.
         13    1    3    3    0    0  0.76341868579E+01 -0.59026257102E+01 -0.14537028028E+03  0.14569021995E+03  0.00000000000E+00 0.  1.
          1    1    3    3  501    0  0.14161512289E+02 -0.19086494488E+02 -0.36838072033E+03  0.36914658039E+03  0.00000000000E+00 0.  1.
         -3    1    1    2    0  502 -0.21795699147E+02  0.24989120198E+02 -0.48514016642E+03  0.48627203262E+03  0.00000000000E+00 0. -1.
<mgrwt>
<rscale>  1 0.30000000E+03</rscale>
<asrwt>0</asrwt>
<pdfrwt beam="1">  1       21 0.40321284E-02 0.30000000E+03</pdfrwt>
<pdfrwt beam="2">0</pdfrwt>
<totfact> 0.41484536E+04</totfact>
</mgrwt>
</event>
<event>
 6    1  0.1198667E-001  0.3000000E+03  0.7818608E-02  0.1093470E+00
         21   -1    0    0  501  502  0.00000000000E+00  0.00000000000E+00  0.55158004394E+01  0.55158004394E+01  0.00000000000E+00 0. -1.
         13   -1    0    0    0    0 -0.00000000000E+00 -0.00000000000E+00 -0.10000000000E+04  0.10000000000E+04  0.00000000000E+00 0.  1.
    9000005    2    1    2  501    0 -0.46625874809E+02 -0.16427098424E+02 -0.87236105681E+03  0.87376647877E+03  0.31975340818E+01 0.  0.
         13    1    3    3    0    0 -0.14363562842E+02 -0.51799928315E+01 -0.29612567867E+03  0.29651907498E+03  0.00000000000E+00 0.  1.
          1    1    3    3  501    0 -0.32262311967E+02 -0.11247105593E+02 -0.57623537814E+03  0.57724740378E+03  0.00000000000E+00 0.  1.
         -1    1    1    2    0  502  0.46625874809E+02  0.16427098424E+02 -0.12212314276E+03  0.13174932167E+03  0.00000000000E+00 0. -1.
<mgrwt>
<rscale>  1 0.30000000E+03</rscale>
<asrwt>0</asrwt>
<pdfrwt beam="1">  1       21 0.20057498E-01 0.30000000E+03</pdfrwt>
<pdfrwt beam="2">0</pdfrwt>
<totfact> 0.23861068E+03</totfact>
</mgrwt>
</event>
<event>
 6    1  0.1198667E-001  0.3000000E+03  0.7818608E-02  0.1093470E+00
         21   -1    0    0  501  502  0.00000000000E+00  0.00000000000E+00  0.47928845703E+01  0.47928845703E+01  0.00000000000E+00 0. -1.
         13   -1    0    0    0    0 -0.00000000000E+00 -0.00000000000E+00 -0.10000000000E+04  0.10000000000E+04  0.00000000000E+00 0.  1.
    9000005    2    1    2  501    0 -0.49659685195E+02  0.31365674035E+02 -0.76332944699E+03  0.76559183323E+03  0.30200372244E+01 0.  0.
         13    1    3    3    0    0 -0.29066310866E+02  0.17263481985E+02 -0.42378945920E+03  0.42513572417E+03  0.00000000000E+00 0.  1.
          1    1    3    3  501    0 -0.20593374330E+02  0.14102192050E+02 -0.33953998779E+03  0.34045610906E+03  0.00000000000E+00 0.  1.
         -3    1    1    2    0  502  0.49659685195E+02 -0.31365674035E+02 -0.23187766844E+03  0.23920105134E+03  0.00000000000E+00 0. -1.
<mgrwt>
<rscale>  1 0.30000000E+03</rscale>
<asrwt>0</asrwt>
<pdfrwt beam="1">  1       21 0.17428708E-01 0.30000000E+03</pdfrwt>
<pdfrwt beam="2">0</pdfrwt>
<totfact> 0.31127115E+03</totfact>
</mgrwt>
</event>
<event>
 6    1  0.1198667E-001  0.3000000E+03  0.7818608E-02  0.1093470E+00
         21   -1    0    0  501  502  0.00000000000E+00  0.00000000000E+00  0.12744211686E+01  0.12744211686E+01  0.00000000000E+00 0. -1.
         13   -1    0    0    0    0 -0.00000000000E+00 -0.00000000000E+00 -0.10000000000E+04  0.10000000000E+04  0.00000000000E+00 0.  1.
    9000005    2    1    2  501    0  0.24969184805E+02 -0.25292663431E+02 -0.46625542476E+03  0.46761943526E+03  0.32613029835E+01 0.  0.
         13    1    3    3    0    0  0.23240832946E+02 -0.24205760130E+02 -0.44632872294E+03  0.44758840922E+03  0.00000000000E+00 0.  1.
          1    1    3    3  501    0  0.17283518590E+01 -0.10869033006E+01 -0.19926701816E+02  0.20031026039E+02  0.00000000000E+00 0.  1.
         -1    1    1    2    0  502 -0.24969184805E+02  0.25292663431E+02 -0.53247015407E+03  0.53365498591E+03  0.00000000000E+00 0. -1.
<mgrwt>
<rscale>  1 0.30000000E+03</rscale>
<asrwt>0</asrwt>
<pdfrwt beam="1">  1       21 0.46342686E-02 0.30000000E+03</pdfrwt>
<pdfrwt beam="2">0</pdfrwt>
<totfact> 0.32779768E+04</totfact>
</mgrwt>
</event>
<event>
 6    1  0.1198667E-001  0.3000000E+03  0.7818608E-02  0.1093470E+00
         21   -1    0    0  501  502  0.00000000000E+00  0.00000000000E+00  0.26185146551E+01  0.26185146551E+01  0.00000000000E+00 0. -1.
         13   -1    0    0    0    0 -0.00000000000E+00 -0.00000000000E+00 -0.10000000000E+04  0.10000000000E+04  0.00000000000E+00 0.  1.
    9000005    2    1    2  501    0 -0.27211524148E+02 -0.35751690146E+02 -0.73810663880E+03  0.73947958473E+03  0.31615798576E+01 0.  0.
         13    1    3    3    0    0 -0.11538251397E+02 -0.13720437556E+02 -0.31553572141E+03  0.31604457460E+03  0.00000000000E+00 0.  1.
          3    1    3    3  501    0 -0.15673272751E+02 -0.22031252590E+02 -0.42257091740E+03  0.42343501013E+03  0.00000000000E+00 0.  1.
         -1    1    1    2    0  502  0.27211524148E+02  0.35751690146E+02 -0.25927484654E+03  0.26313892993E+03  0.00000000000E+00 0. -1.
<mgrwt>
<rscale>  1 0.30000000E+03</rscale>
<asrwt>0</asrwt>
<pdfrwt beam="1">  1       21 0.95218916E-02 0.30000000E+03</pdfrwt>
<pdfrwt beam="2">0</pdfrwt>
<totfact> 0.93891425E+03</totfact>
</mgrwt>
</event>
<event>
 6    1  0.1198667E-001  0.3000000E+03  0.7818608E-02  0.1093470E+00
         21   -1    0    0  501  502  0.00000000000E+00  0.00000000000E+00  0.11488856679E+01  0.11488856679E+01  0.00000000000E+00 0. -1.
         13   -1    0    0    0    0 -0.00000000000E+00 -0.00000000000E+00 -0.10000000000E+04  0.10000000000E+04  0.00000000000E+00 0.  1.
    9000005    2    1    2  501    0 -0.13121562127E+01 -0.33657528560E+02 -0.54515857171E+03  0.54620770902E+03  0.32314233384E+01 0.  0.
         13    1    3    3    0    0  0.10164437122E+01 -0.10943438175E+02 -0.16984554080E+03  0.17020076300E+03  0.00000000000E+00 0.  1.
          1    1    3    3  501    0 -0.23285999249E+01 -0.22714090384E+02 -0.37531303091E+03  0.37600694602E+03  0.00000000000E+00 0.  1.
         -3    1    1    2    0  502  0.13121562127E+01  0.33657528560E+02 -0.45369254262E+03  0.45494117665E+03  0.00000000000E+00 0. -1.
<mgrwt>
<rscale>  1 0.30000000E+03</rscale>
<asrwt>0</asrwt>
<pdfrwt beam="1">  1       21 0.41777749E-02 0.30000000E+03</pdfrwt>
<pdfrwt beam="2">0</pdfrwt>
<totfact> 0.39074929E+04</totfact>
</mgrwt>
</event>
<event>
 6    1  0.1198667E-001  0.3000000E+03  0.7818608E-02  0.1093470E+00
         21   -1    0    0  501  502  0.00000000000E+00  0.00000000000E+00  0.11383943710E+01  0.11383943710E+01  0.00000000000E+00 0. -1.
         13   -1    0    0    0    0 -0.00000000000E+00 -0.00000000000E+00 -0.10000000000E+04  0.10000000000E+04  0.00000000000E+00 0.  1.
    9000005    2    1    2  501    0  0.31457293426E+02  0.60408245475E+01 -0.65472719595E+03  0.65551642632E+03  0.28339361933E+01 0.  0.
         13    1    3    3    0    0  0.65992264632E+01  0.88761340001E+00 -0.15958600661E+03  0.15972486079E+03  0.00000000000E+00 0.  1.
          1    1    3    3  501    0  0.24858066963E+02  0.51532111475E+01 -0.49514118934E+03  0.49579156553E+03  0.00000000000E+00 0.  1.
         -3    1    1    2    0  502 -0.31457293426E+02 -0.60408245475E+01 -0.34413440968E+03  0.34562196805E+03  0.00000000000E+00 0. -1.
<mgrwt>
<rscale>  1 0.30000000E+03</rscale>
<asrwt>0</asrwt>
<pdfrwt beam="1">  1       21 0.41396246E-02 0.30000000E+03</pdfrwt>
<pdfrwt beam="2">0</pdfrwt>
<totfact> 0.39684584E+04</totfact>
</mgrwt>
</event>
<event>
 6    1  0.1198667E-001  0.3000000E+03  0.7818608E-02  0.1093470E+00
         21   -1    0    0  501  502  0.00000000000E+00  0.00000000000E+00  0.13063856021E+01  0.13063856021E+01  0.00000000000E+00 0. -1.
         13   -1    0    0    0    0 -0.00000000000E+00 -0.00000000000E+00 -0.10000000000E+04  0.10000000000E+04  0.00000000000E+00 0.  1.
    9000005    2    1    2  501    0 -0.61868764512E+00 -0.34500625163E+02 -0.64537851036E+03  0.64631027484E+03  0.35880113192E+01 0.  0.
         13    1    3    3    0    0 -0.21290473414E+01 -0.20653328522E+02 -0.38593627097E+03  0.38649437004E+03  0.00000000000E+00 0.  1.
          3    1    3    3  501    0  0.15103596963E+01 -0.13847296641E+02 -0.25944223939E+03  0.25981590480E+03  0.00000000000E+00 0.  1.
         -3    1    1    2    0  502  0.61868764512E+00  0.34500625163E+02 -0.35331510404E+03  0.35499611076E+03  0.00000000000E+00 0. -1.
<mgrwt>
<rscale>  1 0.30000000E+03</rscale>
<asrwt>0</asrwt>
<pdfrwt beam="1">  1       21 0.47505031E-02 0.30000000E+03</pdfrwt>
<pdfrwt beam="2">0</pdfrwt>
<totfact> 0.31427888E+04</totfact>
</mgrwt>
</event>
<event>
 6    1  0.1198667E-001  0.3000000E+03  0.7818608E-02  0.1093470E+00
         21   -1    0    0  501  502  0.00000000000E+00  0.00000000000E+00  0.12364963858E+01  0.12364963858E+01  0.00000000000E+00 0. -1.
         13   -1    0    0    0    0 -0.00000000000E+00 -0.00000000000E+00 -0.10000000000E+04  0.10000000000E+04  0.00000000000E+00 0.  1.
    9000005    2    1    2  501    0  0.22191820823E+01 -0.32746198156E+02 -0.67681414153E+03  0.67761846535E+03  0.34877142003E+01 0.  0.
         13    1    3    3    0    0  0.13606746168E+00 -0.16432061117E+02 -0.36794343651E+03  0.36831020026E+03  0.00000000000E+00 0.  1.
          1    1    3    3  501    0  0.20831146206E+01 -0.16314137039E+02 -0.30887070502E+03  0.30930826509E+03  0.00000000000E+00 0.  1.
         -3    1    1    2    0  502 -0.22191820823E+01  0.32746198156E+02 -0.32194936208E+03  0.32361803103E+03  0.00000000000E+00 0. -1.
<mgrwt>
<rscale>  1 0.30000000E+03</rscale>
<asrwt>0</asrwt>
<pdfrwt beam="1">  1       21 0.44963600E-02 0.30000000E+03</pdfrwt>
<pdfrwt beam="2">0</pdfrwt>
<totfact> 0.34505537E+04</totfact>
</mgrwt>
</event>
<event>
 6    1  0.1198667E-001  0.3000000E+03  0.7818608E-02  0.1093470E+00
         21   -1    0    0  501  502  0.00000000000E+00  0.00000000000E+00  0.16763325975E+01  0.16763325975E+01  0.00000000000E+00 0. -1.
         13   -1    0    0    0    0 -0.00000000000E+00 -0.00000000000E+00 -0.10000000000E+04  0.10000000000E+04  0.00000000000E+00 0.  1.
    9000005    2    1    2  501    0  0.40424224002E+02  0.42817371561E+01 -0.54711317835E+03  0.54863841300E+03  0.43390251662E+01 0.  0.
         13    1    3    3    0    0  0.44538127761E+01  0.12741704227E+01 -0.48674534276E+02  0.48894480726E+02  0.00000000000E+00 0.  1.
          3    1    3    3  501    0  0.35970411226E+02  0.30075667334E+01 -0.49843864407E+03  0.49974393228E+03  0.00000000000E+00 0.  1.
         -3    1    1    2    0  502 -0.40424224002E+02 -0.42817371561E+01 -0.45121048905E+03  0.45303791959E+03  0.00000000000E+00 0. -1.
<mgrwt>
<rscale>  1 0.30000000E+03</rscale>
<asrwt>0</asrwt>
<pdfrwt beam="1">  1       21 0.60957678E-02 0.30000000E+03</pdfrwt>
<pdfrwt beam="2">0</pdfrwt>
<totfact> 0.20503802E+04</totfact>
</mgrwt>
</event>
<event>
 6    1  0.1198667E-001  0.3000000E+03  0.7818608E-02  0.1093470E+00
         21   -1    0    0  501  502  0.00000000000E+00  0.00000000000E+00  0.21141384144E+01  0.21141384144E+01  0.00000000000E+00 0. -1.
         13   -1    0    0    0    0 -0.00000000000E+00 -0.00000000000E+00 -0.10000000000E+04  0.10000000000E+04  0.00000000000E+00 0.  1.
    9000005    2    1    2  501    0 -0.19903882850E+02  0.36589363143E+02 -0.71055037043E+03  0.71177531820E+03  0.27071439252E+01 0.  0.
         13    1    3    3    0    0 -0.46292900077E+00  0.99647905351E+00 -0.27553635195E+02  0.27575534196E+02  0.00000000000E+00 0.  1.
          3    1    3    3  501    0 -0.19440953849E+02  0.35592884089E+02 -0.68299673523E+03  0.68419978400E+03  0.00000000000E+00 0.  1.
         -3    1    1    2    0  502  0.19903882850E+02 -0.36589363143E+02 -0.28733549116E+03  0.29033882022E+03  0.00000000000E+00 0. -1.
<mgrwt>
<rscale>  1 0.30000000E+03</rscale>
<asrwt>0</asrwt>
<pdfrwt beam="1">  1       21 0.76877923E-02 0.30000000E+03</pdfrwt>
<pdfrwt beam="2">0</pdfrwt>
<totfact> 0.13697973E+04</totfact>
</mgrwt>
</event>
<event>
 6    1  0.1198667E-001  0.3000000E+03  0.7818608E-02  0.1093470E+00
         21   -1    0    0  501  502  0.00000000000E+00  0.00000000000E+00  0.16586221734E+01  0.16586221734E+01  0.00000000000E+00 0. -1.
         13   -1    0    0    0    0 -0.00000000000E+00 -0.00000000000E+00 -0.10000000000E+04  0.10000000000E+04  0.00000000000E+00 0.  1.
    9000005    2    1    2  501    0 -0.90060502918E+00  0.36860767710E+02 -0.71055723982E+03  0.71152203817E+03  0.35344679558E+01 0.  0.
         13    1    3    3    0    0  0.72752039380E+00  0.29018203640E+02 -0.56097931025E+03  0.56172980334E+03  0.00000000000E+00 0.  1.
          3    1    3    3  501    0 -0.16281254230E+01  0.78425640701E+01 -0.14957792957E+03  0.14979223483E+03  0.00000000000E+00 0.  1.
         -3    1    1    2    0  502  0.90060502918E+00 -0.36860767710E+02 -0.28778413801E+03  0.29013658400E+03  0.00000000000E+00 0. -1.
<mgrwt>
<rscale>  1 0.30000000E+03</rscale>
<asrwt>0</asrwt>
<pdfrwt beam="1">  1       21 0.60313661E-02 0.30000000E+03</pdfrwt>
<pdfrwt beam="2">0</pdfrwt>
<totfact> 0.20883011E+04</totfact>
</mgrwt>
</event>
<event>
 6    1  0.1198667E-001  0.3000000E+03  0.7818608E-02  0.1093470E+00
         21   -1    0    0  501  502  0.00000000000E+00  0.00000000000E+00  0.12278991506E+01  0.12278991506E+01  0.00000000000E+00 0. -1.
         13   -1    0    0    0    0 -0.00000000000E+00 -0.00000000000E+00 -0.10000000000E+04  0.10000000000E+04  0.00000000000E+00 0.  1.
    9000005    2    1    2  501    0  0.23525880339E+01 -0.31768458487E+02 -0.70345254127E+03  0.70419522099E+03  0.55373117098E+01 0.  0.
         13    1    3    3    0    0 -0.17513866045E+01 -0.67126247690E+01 -0.14542792911E+03  0.14559330085E+03  0.00000000000E+00 0.  1.
          3    1    3    3  501    0  0.41039746384E+01 -0.25055833718E+02 -0.55802461215E+03  0.55860192014E+03  0.00000000000E+00 0.  1.
         -3    1    1    2    0  502 -0.23525880339E+01  0.31768458487E+02 -0.29531955958E+03  0.29703267816E+03  0.00000000000E+00 0. -1.
<mgrwt>
<rscale>  1 0.30000000E+03</rscale>
<asrwt>0</asrwt>
<pdfrwt beam="1">  1       21 0.44650972E-02 0.30000000E+03</pdfrwt>
<pdfrwt beam="2">0</pdfrwt>
<totfact> 0.34916355E+04</totfact>
</mgrwt>
</event>
<event>
 6    1  0.1198667E-001  0.3000000E+03  0.7818608E-02  0.1093470E+00
         21   -1    0    0  501  502  0.00000000000E+00  0.00000000000E+00  0.90279552035E+01  0.90279552035E+01  0.00000000000E+00 0. -1.
         13   -1    0    0    0    0 -0.00000000000E+00 -0.00000000000E+00 -0.10000000000E+04  0.10000000000E+04  0.00000000000E+00 0.  1.
    9000005    2    1    2  501    0  0.14002342575E+02 -0.84975895564E+02 -0.70840920428E+03  0.71363207293E+03  0.31884759114E+01 0.  0.
         13    1    3    3    0    0  0.12333833158E+02 -0.79255446260E+02 -0.66242888193E+03  0.66726724243E+03  0.00000000000E+00 0.  1.
          3    1    3    3  501    0  0.16685094164E+01 -0.57204493035E+01 -0.45980322352E+02  0.46364830503E+02  0.00000000000E+00 0.  1.
         -1    1    1    2    0  502 -0.14002342575E+02  0.84975895564E+02 -0.28256284051E+03  0.29539588227E+03  0.00000000000E+00 0. -1.
<mgrwt>
<rscale>  1 0.30000000E+03</rscale>
<asrwt>0</asrwt>
<pdfrwt beam="1">  1       21 0.32828997E-01 0.30000000E+03</pdfrwt>
<pdfrwt beam="2">0</pdfrwt>
<totfact> 0.90673940E+02</totfact>
</mgrwt>
</event>
<event>
 6    1  0.1198667E-001  0.3000000E+03  0.7818608E-02  0.1093470E+00
         21   -1    0    0  501  502  0.00000000000E+00  0.00000000000E+00  0.12879553616E+01  0.12879553616E+01  0.00000000000E+00 0. -1.
         13   -1    0    0    0    0 -0.00000000000E+00 -0.00000000000E+00 -0.10000000000E+04  0.10000000000E+04  0.00000000000E+00 0.  1.
    9000005    2    1    2  501    0  0.14054399990E+02  0.26553099885E+02 -0.77279384038E+03  0.77338089472E+03  0.22572824973E+01 0.  0.
         13    1    3    3    0    0  0.13858286432E+02  0.26454851575E+02 -0.76234907474E+03  0.76293382612E+03  0.00000000000E+00 0.  1.
          1    1    3    3  501    0  0.19611355830E+00  0.98248309321E-01 -0.10444765632E+02  0.10447068601E+02  0.00000000000E+00 0.  1.
         -1    1    1    2    0  502 -0.14054399990E+02 -0.26553099885E+02 -0.22591820426E+03  0.22790706064E+03  0.00000000000E+00 0. -1.
<mgrwt>
<rscale>  1 0.30000000E+03</rscale>
<asrwt>0</asrwt>
<pdfrwt beam="1">  1       21 0.46834839E-02 0.30000000E+03</pdfrwt>
<pdfrwt beam="2">0</pdfrwt>
<totfact> 0.32196448E+04</totfact>
</mgrwt>
</event>
<event>
 6    1  0.1198667E-001  0.3000000E+03  0.7818608E-02  0.1093470E+00
         21   -1    0    0  501  502  0.00000000000E+00  0.00000000000E+00  0.17726311953E+01  0.17726311953E+01  0.00000000000E+00 0. -1.
         13   -1    0    0    0    0 -0.00000000000E+00 -0.00000000000E+00 -0.10000000000E+04  0.10000000000E+04  0.00000000000E+00 0.  1.
    9000005    2    1    2  501    0  0.11863513868E+02  0.33915924939E+02 -0.75888122168E+03  0.75974451078E+03  0.44699132062E+01 0.  0.
         13    1    3    3    0    0  0.46843372246E+01  0.19962048912E+02 -0.42048001966E+03  0.42097965906E+03  0.00000000000E+00 0.  1.
          1    1    3    3  501    0  0.71791766438E+01  0.13953876027E+02 -0.33840120202E+03  0.33876485172E+03  0.00000000000E+00 0.  1.
         -1    1    1    2    0  502 -0.11863513868E+02 -0.33915924939E+02 -0.23934614713E+03  0.24202812041E+03  0.00000000000E+00 0. -1.
<mgrwt>
<rscale>  1 0.30000000E+03</rscale>
<asrwt>0</asrwt>
<pdfrwt beam="1">  1       21 0.64459452E-02 0.30000000E+03</pdfrwt>
<pdfrwt beam="2">0</pdfrwt>
<totfact> 0.18617225E+04</totfact>
</mgrwt>
</event>
<event>
 6    1  0.1198667E-001  0.3000000E+03  0.7818608E-02  0.1093470E+00
         21   -1    0    0  501  502  0.00000000000E+00  0.00000000000E+00  0.12177993225E+01  0.12177993225E+01  0.00000000000E+00 0. -1.
         13   -1    0    0    0    0 -0.00000000000E+00 -0.00000000000E+00 -0.10000000000E+04  0.10000000000E+04  0.00000000000E+00 0.  1.
    9000005    2    1    2  501    0 -0.26905134294E+02  0.20902373457E+02 -0.60351097225E+03  0.60448093502E+03  0.33032891265E+01 0.  0.
         13    1    3    3    0    0 -0.18943212594E+02  0.13184100461E+02 -0.42426367279E+03  0.42489096232E+03  0.00000000000E+00 0.  1.
          1    1    3    3  501    0 -0.79619216994E+01  0.77182729954E+01 -0.17924729945E+03  0.17958997271E+03  0.00000000000E+00 0.  1.
         -3    1    1    2    0  502  0.26905134294E+02 -0.20902373457E+02 -0.39527122843E+03  0.39673686430E+03  0.00000000000E+00 0. -1.
<mgrwt>
<rscale>  1 0.30000000E+03</rscale>
<asrwt>0</asrwt>
<pdfrwt beam="1">  1       21 0.44283705E-02 0.30000000E+03</pdfrwt>
<pdfrwt beam="2">0</pdfrwt>
<totfact> 0.35408697E+04</totfact>
</mgrwt>
</event>
<event>
 6    1  0.1198667E-001  0.3000000E+03  0.7818608E-02  0.1093470E+00
         21   -1    0    0  501  502  0.00000000000E+00  0.00000000000E+00  0.10619673890E+01  0.10619673890E+01  0.00000000000E+00 0. -1.
         13   -1    0    0    0    0 -0.00000000000E+00 -0.00000000000E+00 -0.10000000000E+04  0.10000000000E+04  0.00000000000E+00 0.  1.
    9000005    2    1    2  501    0 -0.15387684646E+02  0.26238972701E+02 -0.67671021729E+03  0.67740160606E+03  0.33095596038E+01 0.  0.
         13    1    3    3    0    0 -0.11887976858E+02  0.17428406146E+02 -0.47825642928E+03  0.47872151140E+03  0.00000000000E+00 0.  1.
          1    1    3    3  501    0 -0.34997077879E+01  0.88105665549E+01 -0.19845378801E+03  0.19868009466E+03  0.00000000000E+00 0.  1.
         -3    1    1    2    0  502  0.15387684646E+02 -0.26238972701E+02 -0.32222781532E+03  0.32366036133E+03  0.00000000000E+00 0. -1.
<mgrwt>
<rscale>  1 0.30000000E+03</rscale>
<asrwt>0</asrwt>
<pdfrwt beam="1">  1       21 0.38617077E-02 0.30000000E+03</pdfrwt>
<pdfrwt beam="2">0</pdfrwt>
<totfact> 0.44611791E+04</totfact>
</mgrwt>
</event>
<event>
 6    1  0.1198667E-001  0.3000000E+03  0.7818608E-02  0.1093470E+00
         21   -1    0    0  501  502  0.00000000000E+00  0.00000000000E+00  0.30613843145E+01  0.30613843145E+01  0.00000000000E+00 0. -1.
         13   -1    0    0    0    0 -0.00000000000E+00 -0.00000000000E+00 -0.10000000000E+04  0.10000000000E+04  0.00000000000E+00 0.  1.
    9000005    2    1    2  501    0 -0.23133595085E+02 -0.36674164416E+02 -0.80976157366E+03  0.81092756996E+03  0.30919228618E+01 0.  0.
         13    1    3    3    0    0 -0.11980174151E+01 -0.21786656271E+01 -0.34930493125E+02  0.35018868908E+02  0.00000000000E+00 0.  1.
          1    1    3    3  501    0 -0.21935577670E+02 -0.34495498789E+02 -0.77483108053E+03  0.77590870105E+03  0.00000000000E+00 0.  1.
         -1    1    1    2    0  502  0.23133595085E+02  0.36674164416E+02 -0.18717704203E+03  0.19213381436E+03  0.00000000000E+00 0. -1.
<mgrwt>
<rscale>  1 0.30000000E+03</rscale>
<asrwt>0</asrwt>
<pdfrwt beam="1">  1       21 0.11132330E-01 0.30000000E+03</pdfrwt>
<pdfrwt beam="2">0</pdfrwt>
<totfact> 0.70975868E+03</totfact>
</mgrwt>
</event>
<event>
 6    1  0.1198667E-001  0.3000000E+03  0.7818608E-02  0.1093470E+00
         21   -1    0    0  501  502  0.00000000000E+00  0.00000000000E+00  0.51626952965E+01  0.51626952965E+01  0.00000000000E+00 0. -1.
         13   -1    0    0    0    0 -0.00000000000E+00 -0.00000000000E+00 -0.10000000000E+04  0.10000000000E+04  0.00000000000E+00 0.  1.
    9000005    2    1    2  501    0  0.36954117491E+02 -0.50434413565E+01 -0.92694451134E+03  0.92769996561E+03  0.31711170846E+01 0.  0.
         13    1    3    3    0    0  0.21619149928E+02 -0.36552226987E+01 -0.50946450934E+03  0.50993610833E+03  0.00000000000E+00 0.  1.
          3    1    3    3  501    0  0.15334967563E+02 -0.13882186578E+01 -0.41748000200E+03  0.41776385728E+03  0.00000000000E+00 0.  1.
         -1    1    1    2    0  502 -0.36954117491E+02  0.50434413565E+01 -0.67892793364E+02  0.77462729691E+02  0.00000000000E+00 0. -1.
<mgrwt>
<rscale>  1 0.30000000E+03</rscale>
<asrwt>0</asrwt>
<pdfrwt beam="1">  1       21 0.18773477E-01 0.30000000E+03</pdfrwt>
<pdfrwt beam="2">0</pdfrwt>
<totfact> 0.27058623E+03</totfact>
</mgrwt>
</event>
<event>
 6    1  0.1198667E-001  0.3000000E+03  0.7818608E-02  0.1093470E+00
         21   -1    0    0  501  502  0.00000000000E+00  0.00000000000E+00  0.91090936128E+00  0.91090936128E+00  0.00000000000E+00 0. -1.
         13   -1    0    0    0    0 -0.00000000000E+00 -0.00000000000E+00 -0.10000000000E+04  0.10000000000E+04  0.00000000000E+00 0.  1.
    9000005    2    1    2  501    0 -0.88482409549E+01 -0.28715917324E+02 -0.47085204208E+03  0.47181992026E+03  0.30816147650E+01 0.  0.
         13    1    3    3    0    0 -0.33170664297E+01 -0.97822083394E+01 -0.14013990063E+03  0.14052005650E+03  0.00000000000E+00 0.  1.
          1    1    3    3  501    0 -0.55311745252E+01 -0.18933708985E+02 -0.33071214145E+03  0.33129986376E+03  0.00000000000E+00 0.  1.
         -3    1    1    2    0  502  0.88482409549E+01  0.28715917324E+02 -0.52823704856E+03  0.52909098910E+03  0.00000000000E+00 0. -1.
<mgrwt>
<rscale>  1 0.30000000E+03</rscale>
<asrwt>0</asrwt>
<pdfrwt beam="1">  1       21 0.33124047E-02 0.30000000E+03</pdfrwt>
<pdfrwt beam="2">0</pdfrwt>
<totfact> 0.57691295E+04</totfact>
</mgrwt>
</event>
<event>
 6    1  0.1198667E-001  0.3000000E+03  0.7818608E-02  0.1093470E+00
         21   -1    0    0  501  502  0.00000000000E+00  0.00000000000E+00  0.91356087510E+01  0.91356087510E+01  0.00000000000E+00 0. -1.
         13   -1    0    0    0    0 -0.00000000000E+00 -0.00000000000E+00 -0.10000000000E+04  0.10000000000E+04  0.00000000000E+00 0.  1.
    9000005    2    1    2  501    0  0.78311793506E+01 -0.55203937768E+02 -0.90521410714E+03  0.90693593515E+03  0.33776614063E+01 0.  0.
         13    1    3    3    0    0  0.17495198122E+00 -0.82839407802E+01 -0.14572772585E+03  0.14596309247E+03  0.00000000000E+00 0.  1.
          3    1    3    3  501    0  0.76562273694E+01 -0.46919996988E+02 -0.75948638129E+03  0.76097284268E+03  0.00000000000E+00 0.  1.
         -3    1    1    2    0  502 -0.78311793506E+01  0.55203937768E+02 -0.85650284113E+02  0.10219967360E+03  0.00000000000E+00 0. -1.
<mgrwt>
<rscale>  1 0.30000000E+03</rscale>
<asrwt>0</asrwt>
<pdfrwt beam="1">  1       21 0.33220466E-01 0.30000000E+03</pdfrwt>
<pdfrwt beam="2">0</pdfrwt>
<totfact> 0.88515407E+02</totfact>
</mgrwt>
</event>
<event>
 6    1  0.1198667E-001  0.3000000E+03  0.7818608E-02  0.1093470E+00
         21   -1    0    0  501  502  0.00000000000E+00  0.00000000000E+00  0.34173935659E+01  0.34173935659E+01  0.00000000000E+00 0. -1.
         13   -1    0    0    0    0 -0.00000000000E+00 -0.00000000000E+00 -0.10000000000E+04  0.10000000000E+04  0.00000000000E+00 0.  1.
    9000005    2    1    2  501    0 -0.36733073011E+02  0.17632901543E+02 -0.13949040847E+03  0.14535721288E+03  0.33026369975E+01 0.  0.
         13    1    3    3    0    0 -0.33127959629E+01  0.25727654524E+01 -0.12754913666E+02  0.13426896953E+02  0.00000000000E+00 0.  1.
          3    1    3    3  501    0 -0.33420277048E+02  0.15060136091E+02 -0.12673549480E+03  0.13193031592E+03  0.00000000000E+00 0.  1.
         -1    1    1    2    0  502  0.36733073011E+02 -0.17632901543E+02 -0.85709219797E+03  0.85806018069E+03  0.00000000000E+00 0. -1.
<mgrwt>
<rscale>  1 0.30000000E+03</rscale>
<asrwt>0</asrwt>
<pdfrwt beam="1">  1       21 0.12426912E-01 0.30000000E+03</pdfrwt>
<pdfrwt beam="2">0</pdfrwt>
<totfact> 0.58154672E+03</totfact>
</mgrwt>
</event>
<event>
 6    1  0.1198667E-001  0.3000000E+03  0.7818608E-02  0.1093470E+00
         21   -1    0    0  501  502  0.00000000000E+00  0.00000000000E+00  0.15787487226E+01  0.15787487226E+01  0.00000000000E+00 0. -1.
         13   -1    0    0    0    0 -0.00000000000E+00 -0.00000000000E+00 -0.10000000000E+04  0.10000000000E+04  0.00000000000E+00 0.  1.
    9000005    2    1    2  501    0  0.38142565375E+02 -0.89055483852E+01 -0.56594228055E+03  0.56732971394E+03  0.61786182391E+01 0.  0.
         13    1    3    3    0    0  0.28280778687E+02 -0.39045435439E+01 -0.41995480467E+03  0.42092408563E+03  0.00000000000E+00 0.  1.
          3    1    3    3  501    0  0.98617866879E+01 -0.50010048413E+01 -0.14598747589E+03  0.14640562831E+03  0.00000000000E+00 0.  1.
         -1    1    1    2    0  502 -0.38142565375E+02  0.89055483852E+01 -0.43247897073E+03  0.43424903478E+03  0.00000000000E+00 0. -1.
<mgrwt>
<rscale>  1 0.30000000E+03</rscale>
<asrwt>0</asrwt>
<pdfrwt beam="1">  1       21 0.57409166E-02 0.30000000E+03</pdfrwt>
<pdfrwt beam="2">0</pdfrwt>
<totfact> 0.22736800E+04</totfact>
</mgrwt>
</event>
<event>
 6    1  0.1198667E-001  0.3000000E+03  0.7818608E-02  0.1093470E+00
         21   -1    0    0  501  502  0.00000000000E+00  0.00000000000E+00  0.29359630704E+01  0.29359630704E+01  0.00000000000E+00 0. -1.
         13   -1    0    0    0    0 -0.00000000000E+00 -0.00000000000E+00 -0.10000000000E+04  0.10000000000E+04  0.00000000000E+00 0.  1.
    9000005    2    1    2  501    0  0.28640831459E+02  0.33398703680E+02 -0.79084836748E+03  0.79207896660E+03  0.34897492063E+01 0.  0.
         13    1    3    3    0    0  0.26263722826E+01  0.42479792782E+01 -0.10484222861E+03  0.10496111689E+03  0.00000000000E+00 0.  1.
          1    1    3    3  501    0  0.26014459176E+02  0.29150724402E+02 -0.68600613888E+03  0.68711784971E+03  0.00000000000E+00 0.  1.
         -3    1    1    2    0  502 -0.28640831459E+02 -0.33398703680E+02 -0.20621566945E+03  0.21085699647E+03  0.00000000000E+00 0. -1.
<mgrwt>
<rscale>  1 0.30000000E+03</rscale>
<asrwt>0</asrwt>
<pdfrwt beam="1">  1       21 0.10676252E-01 0.30000000E+03</pdfrwt>
<pdfrwt beam="2">0</pdfrwt>
<totfact> 0.76519497E+03</totfact>
</mgrwt>
</event>
<event>
 6    1  0.1198667E-001  0.3000000E+03  0.7818608E-02  0.1093470E+00
         21   -1    0    0  501  502  0.00000000000E+00  0.00000000000E+00  0.11680575907E+01  0.11680575907E+01  0.00000000000E+00 0. -1.
         13   -1    0    0    0    0 -0.00000000000E+00 -0.00000000000E+00 -0.10000000000E+04  0.10000000000E+04  0.00000000000E+00 0.  1.
    9000005    2    1    2  501    0 -0.70975716969E+01 -0.29547172630E+02 -0.72705491745E+03  0.72769747008E+03  0.33680924826E+01 0.  0.
         13    1    3    3    0    0 -0.22408856592E+01 -0.14196641609E+02 -0.37252898512E+03  0.37280613052E+03  0.00000000000E+00 0.  1.
          1    1    3    3  501    0 -0.48566860377E+01 -0.15350531022E+02 -0.35452593233E+03  0.35489133956E+03  0.00000000000E+00 0.  1.
         -3    1    1    2    0  502  0.70975716969E+01  0.29547172630E+02 -0.27177702496E+03  0.27347058751E+03  0.00000000000E+00 0. -1.
<mgrwt>
<rscale>  1 0.30000000E+03</rscale>
<asrwt>0</asrwt>
<pdfrwt beam="1">  1       21 0.42474911E-02 0.30000000E+03</pdfrwt>
<pdfrwt beam="2">0</pdfrwt>
<totfact> 0.37997843E+04</totfact>
</mgrwt>
</event>
<event>
 6    1  0.1198667E-001  0.3000000E+03  0.7818608E-02  0.1093470E+00
         21   -1    0    0  501  502  0.00000000000E+00  0.00000000000E+00  0.18859326494E+01  0.18859326494E+01  0.00000000000E+00 0. -1.
         13   -1    0    0    0    0 -0.00000000000E+00 -0.00000000000E+00 -0.10000000000E+04  0.10000000000E+04  0.00000000000E+00 0.  1.
    9000005    2    1    2  501    0  0.26920177438E+02  0.32293361136E+02 -0.62252798238E+03  0.62395410765E+03  0.31752914449E+01 0.  0.
         13    1    3    3    0    0  0.11260365483E+02  0.14719994333E+02 -0.25408592832E+03  0.25476093310E+03  0.00000000000E+00 0.  1.
          3    1    3    3  501    0  0.15659811955E+02  0.17573366803E+02 -0.36844205406E+03  0.36919317454E+03  0.00000000000E+00 0.  1.
         -1    1    1    2    0  502 -0.26920177438E+02 -0.32293361136E+02 -0.37558608497E+03  0.37793182500E+03  0.00000000000E+00 0. -1.
<mgrwt>
<rscale>  1 0.30000000E+03</rscale>
<asrwt>0</asrwt>
<pdfrwt beam="1">  1       21 0.68579514E-02 0.30000000E+03</pdfrwt>
<pdfrwt beam="2">0</pdfrwt>
<totfact> 0.16720894E+04</totfact>
</mgrwt>
</event>
<event>
 6    1  0.1198667E-001  0.3000000E+03  0.7818608E-02  0.1093470E+00
         21   -1    0    0  501  502  0.00000000000E+00  0.00000000000E+00  0.17338273946E+01  0.17338273946E+01  0.00000000000E+00 0. -1.
         13   -1    0    0    0    0 -0.00000000000E+00 -0.00000000000E+00 -0.10000000000E+04  0.10000000000E+04  0.00000000000E+00 0.  1.
    9000005    2    1    2  501    0 -0.29689403993E+02  0.22775013654E+02 -0.28171788964E+03  0.28420919103E+03  0.31197710602E+01 0.  0.
         13    1    3    3    0    0 -0.26727828539E+02  0.20347709175E+02 -0.24499312740E+03  0.24728533834E+03  0.00000000000E+00 0.  1.
          3    1    3    3  501    0 -0.29615754543E+01  0.24273044795E+01 -0.36724762238E+02  0.36923852692E+02  0.00000000000E+00 0.  1.
         -3    1    1    2    0  502  0.29689403993E+02 -0.22775013654E+02 -0.71654828297E+03  0.71752463636E+03  0.00000000000E+00 0. -1.
<mgrwt>
<rscale>  1 0.30000000E+03</rscale>
<asrwt>0</asrwt>
<pdfrwt beam="1">  1       21 0.63048402E-02 0.30000000E+03</pdfrwt>
<pdfrwt beam="2">0</pdfrwt>
<totfact> 0.19343717E+04</totfact>
</mgrwt>
</event>
<event>
 6    1  0.1198667E-001  0.3000000E+03  0.7818608E-02  0.1093470E+00
         21   -1    0    0  501  502  0.00000000000E+00  0.00000000000E+00  0.68929883006E+01  0.68929883006E+01  0.00000000000E+00 0. -1.
         13   -1    0    0    0    0 -0.00000000000E+00 -0.00000000000E+00 -0.10000000000E+04  0.10000000000E+04  0.00000000000E+00 0.  1.
    9000005    2    1    2  501    0  0.13686150713E+02  0.39614102050E+02 -0.62418255114E+02  0.75261006541E+02  0.34048100600E+01 0.  0.
         13    1    3    3    0    0  0.44889926520E+01  0.14309708313E+02 -0.19565586890E+02  0.24652200660E+02  0.00000000000E+00 0.  1.
          1    1    3    3  501    0  0.91971580609E+01  0.25304393737E+02 -0.42852668224E+02  0.50608805881E+02  0.00000000000E+00 0.  1.
         -3    1    1    2    0  502 -0.13686150713E+02 -0.39614102050E+02 -0.93068875659E+03  0.93163198176E+03  0.00000000000E+00 0. -1.
<mgrwt>
<rscale>  1 0.30000000E+03</rscale>
<asrwt>0</asrwt>
<pdfrwt beam="1">  1       21 0.25065465E-01 0.30000000E+03</pdfrwt>
<pdfrwt beam="2">0</pdfrwt>
<totfact> 0.15516337E+03</totfact>
</mgrwt>
</event>
<event>
 6    1  0.1198667E-001  0.3000000E+03  0.7818608E-02  0.1093470E+00
         21   -1    0    0  501  502  0.00000000000E+00  0.00000000000E+00  0.12838020790E+02  0.12838020790E+02  0.00000000000E+00 0. -1.
         13   -1    0    0    0    0 -0.00000000000E+00 -0.00000000000E+00 -0.10000000000E+04  0.10000000000E+04  0.00000000000E+00 0.  1.
    9000005    2    1    2  501    0 -0.31670560503E+02  0.22259692664E+02 -0.96951890473E+03  0.97029631893E+03  0.30857058409E+01 0.  0.
         13    1    3    3    0    0 -0.27038718738E+02  0.18423796494E+02 -0.79192204023E+03  0.79259765732E+03  0.00000000000E+00 0.  1.
          3    1    3    3  501    0 -0.46318417646E+01  0.38358961696E+01 -0.17759686450E+03  0.17769866161E+03  0.00000000000E+00 0.  1.
         -1    1    1    2    0  502  0.31670560503E+02 -0.22259692664E+02 -0.17643074480E+02  0.42541701860E+02  0.00000000000E+00 0. -1.
<mgrwt>
<rscale>  1 0.30000000E+03</rscale>
<asrwt>0</asrwt>
<pdfrwt beam="1">  1       21 0.46683810E-01 0.30000000E+03</pdfrwt>
<pdfrwt beam="2">0</pdfrwt>
<totfact> 0.43556800E+02</totfact>
</mgrwt>
</event>
<event>
 6    1  0.1198667E-001  0.3000000E+03  0.7818608E-02  0.1093470E+00
         21   -1    0    0  501  502  0.00000000000E+00  0.00000000000E+00  0.27362263146E+02  0.27362263146E+02  0.00000000000E+00 0. -1.
         13   -1    0    0    0    0 -0.00000000000E+00 -0.00000000000E+00 -0.10000000000E+04  0.10000000000E+04  0.00000000000E+00 0.  1.
    9000005    2    1    2  501    0  0.32308417726E+02 -0.27795596884E+02 -0.98265233652E+03  0.98358188776E+03  0.33595243727E+01 0.  0.
         13    1    3    3    0    0  0.21047254904E+02 -0.19789301604E+02 -0.68549658811E+03  0.68610507629E+03  0.00000000000E+00 0.  1.
          3    1    3    3  501    0  0.11261162822E+02 -0.80062952798E+01 -0.29715574841E+03  0.29747681148E+03  0.00000000000E+00 0.  1.
         -3    1    1    2    0  502 -0.32308417726E+02  0.27795596884E+02  0.10014599667E+02  0.43780375382E+02  0.00000000000E+00 0. -1.
<mgrwt>
<rscale>  1 0.30000000E+03</rscale>
<asrwt>0</asrwt>
<pdfrwt beam="1">  1       21 0.99499349E-01 0.30000000E+03</pdfrwt>
<pdfrwt beam="2">0</pdfrwt>
<totfact> 0.74659535E+01</totfact>
</mgrwt>
</event>
<event>
 6    1  0.1198667E-001  0.3000000E+03  0.7818608E-02  0.1093470E+00
         21   -1    0    0  501  502  0.00000000000E+00  0.00000000000E+00  0.39869885464E+01  0.39869885464E+01  0.00000000000E+00 0. -1.
         13   -1    0    0    0    0 -0.00000000000E+00 -0.00000000000E+00 -0.10000000000E+04  0.10000000000E+04  0.00000000000E+00 0.  1.
    9000005    2    1    2  501    0  0.17815605963E+02  0.60410055144E+02 -0.52641685840E+03  0.53018606248E+03  0.39725888774E+01 0.  0.
         13    1    3    3    0    0  0.58304257733E+00  0.76793335668E+00 -0.11463573741E+02  0.11504050730E+02  0.00000000000E+00 0.  1.
          1    1    3    3  501    0  0.17232563386E+02  0.59642121787E+02 -0.51495328466E+03  0.51868201175E+03  0.00000000000E+00 0.  1.
         -1    1    1    2    0  502 -0.17815605963E+02 -0.60410055144E+02 -0.46959615305E+03  0.47380092606E+03  0.00000000000E+00 0. -1.
<mgrwt>
<rscale>  1 0.30000000E+03</rscale>
<asrwt>0</asrwt>
<pdfrwt beam="1">  1       21 0.14498171E-01 0.30000000E+03</pdfrwt>
<pdfrwt beam="2">0</pdfrwt>
<totfact> 0.43851972E+03</totfact>
</mgrwt>
</event>
<event>
 6    1  0.1198667E-001  0.3000000E+03  0.7818608E-02  0.1093470E+00
         21   -1    0    0  501  502  0.00000000000E+00  0.00000000000E+00  0.36376974239E+01  0.36376974239E+01  0.00000000000E+00 0. -1.
         13   -1    0    0    0    0 -0.00000000000E+00 -0.00000000000E+00 -0.10000000000E+04  0.10000000000E+04  0.00000000000E+00 0.  1.
    9000005    2    1    2  501    0  0.51107686641E+02  0.31586798251E+02 -0.45782836515E+03  0.46176269042E+03  0.28720844466E+01 0.  0.
         13    1    3    3    0    0  0.41920316890E+02  0.26852236604E+02 -0.38455224295E+03  0.38776124502E+03  0.00000000000E+00 0.  1.
          3    1    3    3  501    0  0.91873697507E+01  0.47345616471E+01 -0.73276122198E+02  0.74001445400E+02  0.00000000000E+00 0.  1.
         -1    1    1    2    0  502 -0.51107686641E+02 -0.31586798251E+02 -0.53853393742E+03  0.54187500700E+03  0.00000000000E+00 0. -1.
<mgrwt>
<rscale>  1 0.30000000E+03</rscale>
<asrwt>0</asrwt>
<pdfrwt beam="1">  1       21 0.13228019E-01 0.30000000E+03</pdfrwt>
<pdfrwt beam="2">0</pdfrwt>
<totfact> 0.51890072E+03</totfact>
</mgrwt>
</event>
<event>
 6    1  0.1198667E-001  0.3000000E+03  0.7818608E-02  0.1093470E+00
         21   -1    0    0  501  502  0.00000000000E+00  0.00000000000E+00  0.14288564801E+01  0.14288564801E+01  0.00000000000E+00 0. -1.
         13   -1    0    0    0    0 -0.00000000000E+00 -0.00000000000E+00 -0.10000000000E+04  0.10000000000E+04  0.00000000000E+00 0.  1.
    9000005    2    1    2  501    0  0.33666468432E+02  0.57697860745E+01 -0.71254189502E+03  0.71336731353E+03  0.32016135978E+01 0.  0.
         13    1    3    3    0    0  0.18660480326E+02  0.40163337452E+01 -0.36897355076E+03  0.36946694794E+03  0.00000000000E+00 0.  1.
          1    1    3    3  501    0  0.15005988106E+02  0.17534523293E+01 -0.34356834426E+03  0.34390036559E+03  0.00000000000E+00 0.  1.
         -3    1    1    2    0  502 -0.33666468432E+02 -0.57697860745E+01 -0.28602924850E+03  0.28806154295E+03  0.00000000000E+00 0. -1.
<mgrwt>
<rscale>  1 0.30000000E+03</rscale>
<asrwt>0</asrwt>
<pdfrwt beam="1">  1       21 0.51958527E-02 0.30000000E+03</pdfrwt>
<pdfrwt beam="2">0</pdfrwt>
<totfact> 0.26976627E+04</totfact>
</mgrwt>
</event>
<event>
 6    1  0.1198667E-001  0.3000000E+03  0.7818608E-02  0.1093470E+00
         21   -1    0    0  501  502  0.00000000000E+00  0.00000000000E+00  0.11589614025E+01  0.11589614025E+01  0.00000000000E+00 0. -1.
         13   -1    0    0    0    0 -0.00000000000E+00 -0.00000000000E+00 -0.10000000000E+04  0.10000000000E+04  0.00000000000E+00 0.  1.
    9000005    2    1    2  501    0 -0.85725752408E+01 -0.30269345226E+02 -0.68799353076E+03  0.68872353538E+03  0.39099243694E+01 0.  0.
         13    1    3    3    0    0 -0.21888000148E+01 -0.14096344278E+02 -0.32927924926E+03  0.32958810926E+03  0.00000000000E+00 0.  1.
          1    1    3    3  501    0 -0.63837752260E+01 -0.16173000948E+02 -0.35871428150E+03  0.35913542612E+03  0.00000000000E+00 0.  1.
         -1    1    1    2    0  502  0.85725752408E+01  0.30269345226E+02 -0.31084750784E+03  0.31243542603E+03  0.00000000000E+00 0. -1.
<mgrwt>
<rscale>  1 0.30000000E+03</rscale>
<asrwt>0</asrwt>
<pdfrwt beam="1">  1       21 0.42144140E-02 0.30000000E+03</pdfrwt>
<pdfrwt beam="2">0</pdfrwt>
<totfact> 0.38503037E+04</totfact>
</mgrwt>
</event>
<event>
 6    1  0.1198667E-001  0.3000000E+03  0.7818608E-02  0.1093470E+00
         21   -1    0    0  501  502  0.00000000000E+00  0.00000000000E+00  0.11444922980E+01  0.11444922980E+01  0.00000000000E+00 0. -1.
         13   -1    0    0    0    0 -0.00000000000E+00 -0.00000000000E+00 -0.10000000000E+04  0.10000000000E+04  0.00000000000E+00 0.  1.
    9000005    2    1    2  501    0  0.31612023482E+02 -0.30770742475E+01 -0.66983958726E+03  0.67059908797E+03  0.30456063549E+01 0.  0.
         13    1    3    3    0    0  0.23644237050E+02 -0.31804936150E+01 -0.52203891981E+03  0.52258377250E+03  0.00000000000E+00 0.  1.
          3    1    3    3  501    0  0.79677864317E+01  0.10341936742E+00 -0.14780066745E+03  0.14801531548E+03  0.00000000000E+00 0.  1.
         -1    1    1    2    0  502 -0.31612023482E+02  0.30770742475E+01 -0.32901592044E+03  0.33054540433E+03  0.00000000000E+00 0. -1.
<mgrwt>
<rscale>  1 0.30000000E+03</rscale>
<asrwt>0</asrwt>
<pdfrwt beam="1">  1       21 0.41617990E-02 0.30000000E+03</pdfrwt>
<pdfrwt beam="2">0</pdfrwt>
<totfact> 0.39328443E+04</totfact>
</mgrwt>
</event>
<event>
 6    1  0.1198667E-001  0.3000000E+03  0.7818608E-02  0.1093470E+00
         21   -1    0    0  501  502  0.00000000000E+00  0.00000000000E+00  0.96774096614E+00  0.96774096614E+00  0.00000000000E+00 0. -1.
         13   -1    0    0    0    0 -0.00000000000E+00 -0.00000000000E+00 -0.10000000000E+04  0.10000000000E+04  0.00000000000E+00 0.  1.
    9000005    2    1    2  501    0 -0.67341289334E+01 -0.30037114444E+02 -0.56412031005E+03  0.56496776379E+03  0.30451870395E+01 0.  0.
         13    1    3    3    0    0 -0.46780389739E+01 -0.14044872351E+02 -0.27541834325E+03  0.27581589201E+03  0.00000000000E+00 0.  1.
          3    1    3    3  501    0 -0.20560899595E+01 -0.15992242093E+02 -0.28870196681E+03  0.28915187178E+03  0.00000000000E+00 0.  1.
         -3    1    1    2    0  502  0.67341289334E+01  0.30037114444E+02 -0.43491194898E+03  0.43599997718E+03  0.00000000000E+00 0. -1.
<mgrwt>
<rscale>  1 0.30000000E+03</rscale>
<asrwt>0</asrwt>
<pdfrwt beam="1">  1       21 0.35190655E-02 0.30000000E+03</pdfrwt>
<pdfrwt beam="2">0</pdfrwt>
<totfact> 0.52140252E+04</totfact>
</mgrwt>
</event>
<event>
 6    1  0.1198667E-001  0.3000000E+03  0.7818608E-02  0.1093470E+00
         21   -1    0    0  501  502  0.00000000000E+00  0.00000000000E+00  0.14271823873E+01  0.14271823873E+01  0.00000000000E+00 0. -1.
         13   -1    0    0    0    0 -0.00000000000E+00 -0.00000000000E+00 -0.10000000000E+04  0.10000000000E+04  0.00000000000E+00 0.  1.
    9000005    2    1    2  501    0  0.30414610716E+01 -0.31040547052E+02 -0.78114843961E+03  0.78177717397E+03  0.31462664494E+01 0.  0.
         13    1    3    3    0    0  0.35708989150E+01 -0.28209267502E+02 -0.71897858980E+03  0.71954063588E+03  0.00000000000E+00 0.  1.
          1    1    3    3  501    0 -0.52943784343E+00 -0.28312795495E+01 -0.62169849810E+02  0.62236538093E+02  0.00000000000E+00 0.  1.
         -1    1    1    2    0  502 -0.30414610716E+01  0.31040547052E+02 -0.21742437801E+03  0.21965000842E+03  0.00000000000E+00 0. -1.
<mgrwt>
<rscale>  1 0.30000000E+03</rscale>
<asrwt>0</asrwt>
<pdfrwt beam="1">  1       21 0.51897651E-02 0.30000000E+03</pdfrwt>
<pdfrwt beam="2">0</pdfrwt>
<totfact> 0.27030703E+04</totfact>
</mgrwt>
</event>
<event>
 6    1  0.1198667E-001  0.3000000E+03  0.7818608E-02  0.1093470E+00
         21   -1    0    0  501  502  0.00000000000E+00  0.00000000000E+00  0.17228271383E+01  0.17228271383E+01  0.00000000000E+00 0. -1.
         13   -1    0    0    0    0 -0.00000000000E+00 -0.00000000000E+00 -0.10000000000E+04  0.10000000000E+04  0.00000000000E+00 0.  1.
    9000005    2    1    2  501    0  0.29950377344E+02  0.19154983263E+02 -0.75672549724E+03  0.75756887882E+03  0.36317333202E+01 0.  0.
         13    1    3    3    0    0  0.68871626313E+01  0.60514970365E+01 -0.17854713552E+03  0.17878236274E+03  0.00000000000E+00 0.  1.
          1    1    3    3  501    0  0.23063214713E+02  0.13103486227E+02 -0.57817836173E+03  0.57878651608E+03  0.00000000000E+00 0.  1.
         -3    1    1    2    0  502 -0.29950377344E+02 -0.19154983263E+02 -0.24155167562E+03  0.24415394832E+03  0.00000000000E+00 0. -1.
<mgrwt>
<rscale>  1 0.30000000E+03</rscale>
<asrwt>0</asrwt>
<pdfrwt beam="1">  1       21 0.62648392E-02 0.30000000E+03</pdfrwt>
<pdfrwt beam="2">0</pdfrwt>
<totfact> 0.19557665E+04</totfact>
</mgrwt>
</event>
<event>
 6    1  0.1198667E-001  0.3000000E+03  0.7818608E-02  0.1093470E+00
         21   -1    0    0  501  502  0.00000000000E+00  0.00000000000E+00  0.25436376937E+01  0.25436376937E+01  0.00000000000E+00 0. -1.
         13   -1    0    0    0    0 -0.00000000000E+00 -0.00000000000E+00 -0.10000000000E+04  0.10000000000E+04  0.00000000000E+00 0.  1.
    9000005    2    1    2  501    0 -0.17888658060E+01 -0.49030220735E+02 -0.61296272052E+03  0.61493233348E+03  0.33638394741E+01 0.  0.
         13    1    3    3    0    0 -0.49817595203E+00 -0.43348381492E+02 -0.54088555903E+03  0.54262004969E+03  0.00000000000E+00 0.  1.
          1    1    3    3  501    0 -0.12906898539E+01 -0.56818392430E+01 -0.72077161491E+02  0.72312283784E+02  0.00000000000E+00 0.  1.
         -3    1    1    2    0  502  0.17888658060E+01  0.49030220735E+02 -0.38449364178E+03  0.38761130422E+03  0.00000000000E+00 0. -1.
<mgrwt>
<rscale>  1 0.30000000E+03</rscale>
<asrwt>0</asrwt>
<pdfrwt beam="1">  1       21 0.92496111E-02 0.30000000E+03</pdfrwt>
<pdfrwt beam="2">0</pdfrwt>
<totfact> 0.98864682E+03</totfact>
</mgrwt>
</event>
<event>
 6    1  0.1198667E-001  0.3000000E+03  0.7818608E-02  0.1093470E+00
         21   -1    0    0  501  502  0.00000000000E+00  0.00000000000E+00  0.26337806414E+01  0.26337806414E+01  0.00000000000E+00 0. -1.
         13   -1    0    0    0    0 -0.00000000000E+00 -0.00000000000E+00 -0.10000000000E+04  0.10000000000E+04  0.00000000000E+00 0.  1.
    9000005    2    1    2  501    0  0.15903257744E+02  0.43819134317E+02 -0.70770681709E+03  0.70924734697E+03  0.31352975752E+01 0.  0.
         13    1    3    3    0    0  0.37009938978E+01  0.72289551921E+01 -0.13278867411E+03  0.13303678860E+03  0.00000000000E+00 0.  1.
          3    1    3    3  501    0  0.12202263846E+02  0.36590179125E+02 -0.57491814298E+03  0.57621055837E+03  0.00000000000E+00 0.  1.
         -3    1    1    2    0  502 -0.15903257744E+02 -0.43819134317E+02 -0.28965940227E+03  0.29338643367E+03  0.00000000000E+00 0. -1.
<mgrwt>
<rscale>  1 0.30000000E+03</rscale>
<asrwt>0</asrwt>
<pdfrwt beam="1">  1       21 0.95774043E-02 0.30000000E+03</pdfrwt>
<pdfrwt beam="2">0</pdfrwt>
<totfact> 0.92923667E+03</totfact>
</mgrwt>
</event>
<event>
 6    1  0.1198667E-001  0.3000000E+03  0.7818608E-02  0.1093470E+00
         21   -1    0    0  501  502  0.00000000000E+00  0.00000000000E+00  0.15008730922E+01  0.15008730922E+01  0.00000000000E+00 0. -1.
         13   -1    0    0    0    0 -0.00000000000E+00 -0.00000000000E+00 -0.10000000000E+04  0.10000000000E+04  0.00000000000E+00 0.  1.
    9000005    2    1    2  501    0  0.22817771275E+02 -0.20939727126E+02 -0.79953002709E+03  0.80013596666E+03  0.31903094484E+01 0.  0.
         13    1    3    3    0    0  0.89174303751E+01 -0.66841624383E+01 -0.26026989402E+03  0.26050838052E+03  0.00000000000E+00 0.  1.
          3    1    3    3  501    0  0.13900340900E+02 -0.14255564688E+02 -0.53926013307E+03  0.53962758614E+03  0.00000000000E+00 0.  1.
         -3    1    1    2    0  502 -0.22817771275E+02  0.20939727126E+02 -0.19896909982E+03  0.20136490643E+03  0.00000000000E+00 0. -1.
<mgrwt>
<rscale>  1 0.30000000E+03</rscale>
<asrwt>0</asrwt>
<pdfrwt beam="1">  1       21 0.54577318E-02 0.30000000E+03</pdfrwt>
<pdfrwt beam="2">0</pdfrwt>
<totfact> 0.24799961E+04</totfact>
</mgrwt>
</event>
<event>
 6    1  0.1198667E-001  0.3000000E+03  0.7818608E-02  0.1093470E+00
         21   -1    0    0  501  502  0.00000000000E+00  0.00000000000E+00  0.40124576955E+01  0.40124576955E+01  0.00000000000E+00 0. -1.
         13   -1    0    0    0    0 -0.00000000000E+00 -0.00000000000E+00 -0.10000000000E+04  0.10000000000E+04  0.00000000000E+00 0.  1.
    9000005    2    1    2  501    0 -0.16384244119E+02 -0.55737459201E+02 -0.69277445959E+03  0.69528396639E+03  0.10403568981E+02 0.  0.
         13    1    3    3    0    0 -0.10996087501E+02 -0.35860309503E+02 -0.50259546437E+03  0.50399313145E+03  0.00000000000E+00 0.  1.
          1    1    3    3  501    0 -0.53881566185E+01 -0.19877149698E+02 -0.19017899521E+03  0.19129083494E+03  0.00000000000E+00 0.  1.
         -1    1    1    2    0  502  0.16384244119E+02  0.55737459201E+02 -0.30321308272E+03  0.30872849131E+03  0.00000000000E+00 0. -1.
<mgrwt>
<rscale>  1 0.30000000E+03</rscale>
<asrwt>0</asrwt>
<pdfrwt beam="1">  1       21 0.14590786E-01 0.30000000E+03</pdfrwt>
<pdfrwt beam="2">0</pdfrwt>
<totfact> 0.43339953E+03</totfact>
</mgrwt>
</event>
<event>
 6    1  0.1198667E-001  0.3000000E+03  0.7818608E-02  0.1093470E+00
         21   -1    0    0  501  502  0.00000000000E+00  0.00000000000E+00  0.12339163701E+01  0.12339163701E+01  0.00000000000E+00 0. -1.
         13   -1    0    0    0    0 -0.00000000000E+00 -0.00000000000E+00 -0.10000000000E+04  0.10000000000E+04  0.00000000000E+00 0.  1.
    9000005    2    1    2  501    0  0.77431136117E+01 -0.32448664615E+02 -0.65384289530E+03  0.65470126641E+03  0.32163418998E+01 0.  0.
         13    1    3    3    0    0  0.48268878576E+01 -0.13417293607E+02 -0.28155421328E+03  0.28191505393E+03  0.00000000000E+00 0.  1.
          1    1    3    3  501    0  0.29162257541E+01 -0.19031371008E+02 -0.37228868202E+03  0.37278621248E+03  0.00000000000E+00 0.  1.
         -1    1    1    2    0  502 -0.77431136117E+01  0.32448664615E+02 -0.34492318833E+03  0.34653264996E+03  0.00000000000E+00 0. -1.
<mgrwt>
<rscale>  1 0.30000000E+03</rscale>
<asrwt>0</asrwt>
<pdfrwt beam="1">  1       21 0.44869781E-02 0.30000000E+03</pdfrwt>
<pdfrwt beam="2">0</pdfrwt>
<totfact> 0.34628036E+04</totfact>
</mgrwt>
</event>
<event>
 6    1  0.1198667E-001  0.3000000E+03  0.7818608E-02  0.1093470E+00
         21   -1    0    0  501  502  0.00000000000E+00  0.00000000000E+00  0.76259936670E+01  0.76259936670E+01  0.00000000000E+00 0. -1.
         13   -1    0    0    0    0 -0.00000000000E+00 -0.00000000000E+00 -0.10000000000E+04  0.10000000000E+04  0.00000000000E+00 0.  1.
    9000005    2    1    2  501    0 -0.52111293767E+02  0.35735738873E+02 -0.84384187580E+03  0.84621216597E+03  0.36453412179E+01 0.  0.
         13    1    3    3    0    0 -0.34240993008E+02  0.24708746725E+02 -0.58180866895E+03  0.58333891952E+03  0.00000000000E+00 0.  1.
          1    1    3    3  501    0 -0.17870300759E+02  0.11026992147E+02 -0.26203320685E+03  0.26287324645E+03  0.00000000000E+00 0.  1.
         -1    1    1    2    0  502  0.52111293767E+02 -0.35735738873E+02 -0.14853213053E+03  0.16141382770E+03  0.00000000000E+00 0. -1.
<mgrwt>
<rscale>  1 0.30000000E+03</rscale>
<asrwt>0</asrwt>
<pdfrwt beam="1">  1       21 0.27730945E-01 0.30000000E+03</pdfrwt>
<pdfrwt beam="2">0</pdfrwt>
<totfact> 0.12714974E+03</totfact>
</mgrwt>
</event>
<event>
 6    1  0.1198667E-001  0.3000000E+03  0.7818608E-02  0.1093470E+00
         21   -1    0    0  501  502  0.00000000000E+00  0.00000000000E+00  0.13742413731E+01  0.13742413731E+01  0.00000000000E+00 0. -1.
         13   -1    0    0    0    0 -0.00000000000E+00 -0.00000000000E+00 -0.10000000000E+04  0.10000000000E+04  0.00000000000E+00 0.  1.
    9000005    2    1    2  501    0 -0.12432605194E+02  0.27359370946E+02 -0.79124044910E+03  0.79182288380E+03  0.43504226219E+01 0.  0.
         13    1    3    3    0    0 -0.41864049105E+00  0.46524801293E+01 -0.12669729272E+03  0.12678337751E+03  0.00000000000E+00 0.  1.
          3    1    3    3  501    0 -0.12013964703E+02  0.22706890817E+02 -0.66454315638E+03  0.66503950630E+03  0.00000000000E+00 0.  1.
         -1    1    1    2    0  502  0.12432605194E+02 -0.27359370946E+02 -0.20738530953E+03  0.20955135757E+03  0.00000000000E+00 0. -1.
<mgrwt>
<rscale>  1 0.30000000E+03</rscale>
<asrwt>0</asrwt>
<pdfrwt beam="1">  1       21 0.49972519E-02 0.30000000E+03</pdfrwt>
<pdfrwt beam="2">0</pdfrwt>
<totfact> 0.28831664E+04</totfact>
</mgrwt>
</event>
<event>
 6    1  0.1198667E-001  0.3000000E+03  0.7818608E-02  0.1093470E+00
         21   -1    0    0  501  502  0.00000000000E+00  0.00000000000E+00  0.12940604029E+01  0.12940604029E+01  0.00000000000E+00 0. -1.
         13   -1    0    0    0    0 -0.00000000000E+00 -0.00000000000E+00 -0.10000000000E+04  0.10000000000E+04  0.00000000000E+00 0.  1.
    9000005    2    1    2  501    0 -0.30799543985E+02  0.17586734856E+02 -0.57790756553E+03  0.57900366652E+03  0.31916121649E+01 0.  0.
         13    1    3    3    0    0 -0.70354177659E+01  0.55755256428E+01 -0.15049945833E+03  0.15076694116E+03  0.00000000000E+00 0.  1.
          3    1    3    3  501    0 -0.23764126220E+02  0.12011209213E+02 -0.42740810721E+03  0.42823672536E+03  0.00000000000E+00 0.  1.
         -3    1    1    2    0  502  0.30799543985E+02 -0.17586734856E+02 -0.42079837406E+03  0.42229039388E+03  0.00000000000E+00 0. -1.
<mgrwt>
<rscale>  1 0.30000000E+03</rscale>
<asrwt>0</asrwt>
<pdfrwt beam="1">  1       21 0.47056841E-02 0.30000000E+03</pdfrwt>
<pdfrwt beam="2">0</pdfrwt>
<totfact> 0.31938631E+04</totfact>
</mgrwt>
</event>
<event>
 6    1  0.1198667E-001  0.3000000E+03  0.7818608E-02  0.1093470E+00
         21   -1    0    0  501  502  0.00000000000E+00  0.00000000000E+00  0.15269086533E+01  0.15269086533E+01  0.00000000000E+00 0. -1.
         13   -1    0    0    0    0 -0.00000000000E+00 -0.00000000000E+00 -0.10000000000E+04  0.10000000000E+04  0.00000000000E+00 0.  1.
    9000005    2    1    2  501    0  0.59977774257E+01 -0.37215623212E+02 -0.61643688490E+03  0.61763546699E+03  0.76263408848E+01 0.  0.
         13    1    3    3    0    0  0.64277694401E+01 -0.18915564956E+02 -0.29203137946E+03  0.29271392418E+03  0.00000000000E+00 0.  1.
          1    1    3    3  501    0 -0.42999201438E+00 -0.18300058256E+02 -0.32440550543E+03  0.32492154281E+03  0.00000000000E+00 0.  1.
         -1    1    1    2    0  502 -0.59977774257E+01  0.37215623212E+02 -0.38203620645E+03  0.38389144167E+03  0.00000000000E+00 0. -1.
<mgrwt>
<rscale>  1 0.30000000E+03</rscale>
<asrwt>0</asrwt>
<pdfrwt beam="1">  1       21 0.55524068E-02 0.30000000E+03</pdfrwt>
<pdfrwt beam="2">0</pdfrwt>
<totfact> 0.24079256E+04</totfact>
</mgrwt>
</event>
<event>
 6    1  0.1198667E-001  0.3000000E+03  0.7818608E-02  0.1093470E+00
         21   -1    0    0  501  502  0.00000000000E+00  0.00000000000E+00  0.13204700371E+01  0.13204700371E+01  0.00000000000E+00 0. -1.
         13   -1    0    0    0    0 -0.00000000000E+00 -0.00000000000E+00 -0.10000000000E+04  0.10000000000E+04  0.00000000000E+00 0.  1.
    9000005    2    1    2  501    0 -0.26147359208E+02  0.22039988986E+02 -0.66601883489E+03  0.66690667912E+03  0.37396150441E+01 0.  0.
         13    1    3    3    0    0 -0.36829880819E+01  0.37859961317E+01 -0.12936285708E+03  0.12947064130E+03  0.00000000000E+00 0.  1.
          3    1    3    3  501    0 -0.22464371126E+02  0.18253992854E+02 -0.53665597781E+03  0.53743603782E+03  0.00000000000E+00 0.  1.
         -1    1    1    2    0  502  0.26147359208E+02 -0.22039988986E+02 -0.33266069507E+03  0.33441379092E+03  0.00000000000E+00 0. -1.
<mgrwt>
<rscale>  1 0.30000000E+03</rscale>
<asrwt>0</asrwt>
<pdfrwt beam="1">  1       21 0.48017194E-02 0.30000000E+03</pdfrwt>
<pdfrwt beam="2">0</pdfrwt>
<totfact> 0.30859730E+04</totfact>
</mgrwt>
</event>
<event>
 6    1  0.1198667E-001  0.3000000E+03  0.7818608E-02  0.1093470E+00
         21   -1    0    0  501  502  0.00000000000E+00  0.00000000000E+00  0.13922719669E+01  0.13922719669E+01  0.00000000000E+00 0. -1.
         13   -1    0    0    0    0 -0.00000000000E+00 -0.00000000000E+00 -0.10000000000E+04  0.10000000000E+04  0.00000000000E+00 0.  1.
    9000005    2    1    2  501    0 -0.20543003896E+02  0.22569055682E+02 -0.78641187717E+03  0.78701303694E+03  0.38082134589E+01 0.  0.
         13    1    3    3    0    0 -0.61208394090E+01  0.78919088269E+01 -0.21757597180E+03  0.21780507433E+03  0.00000000000E+00 0.  1.
          3    1    3    3  501    0 -0.14422164487E+02  0.14677146855E+02 -0.56883590537E+03  0.56920796262E+03  0.00000000000E+00 0.  1.
         -1    1    1    2    0  502  0.20543003896E+02 -0.22569055682E+02 -0.21219585087E+03  0.21437923502E+03  0.00000000000E+00 0. -1.
<mgrwt>
<rscale>  1 0.30000000E+03</rscale>
<asrwt>0</asrwt>
<pdfrwt beam="1">  1       21 0.50628178E-02 0.30000000E+03</pdfrwt>
<pdfrwt beam="2">0</pdfrwt>
<totfact> 0.28197867E+04</totfact>
</mgrwt>
</event>
<event>
 6    1  0.1198667E-001  0.3000000E+03  0.7818608E-02  0.1093470E+00
         21   -1    0    0  501  502  0.00000000000E+00  0.00000000000E+00  0.12720003004E+01  0.12720003004E+01  0.00000000000E+00 0. -1.
         13   -1    0    0    0    0 -0.00000000000E+00 -0.00000000000E+00 -0.10000000000E+04  0.10000000000E+04  0.00000000000E+00 0.  1.
    9000005    2    1    2  501    0  0.29710208541E+02  0.13999658228E+02 -0.31029400892E+03  0.31205501953E+03  0.41564792673E+01 0.  0.
         13    1    3    3    0    0  0.20973165162E+02  0.86497911361E+01 -0.19836022912E+03  0.19965338224E+03  0.00000000000E+00 0.  1.
          3    1    3    3  501    0  0.87370433795E+01  0.53498670921E+01 -0.11193377980E+03  0.11240163728E+03  0.00000000000E+00 0.  1.
         -3    1    1    2    0  502 -0.29710208541E+02 -0.13999658228E+02 -0.68843399078E+03  0.68921698077E+03  0.00000000000E+00 0. -1.
<mgrwt>
<rscale>  1 0.30000000E+03</rscale>
<asrwt>0</asrwt>
<pdfrwt beam="1">  1       21 0.46254654E-02 0.30000000E+03</pdfrwt>
<pdfrwt beam="2">0</pdfrwt>
<totfact> 0.32885853E+04</totfact>
</mgrwt>
</event>
<event>
 6    1  0.1198667E-001  0.3000000E+03  0.7818608E-02  0.1093470E+00
         21   -1    0    0  501  502  0.00000000000E+00  0.00000000000E+00  0.20519838188E+01  0.20519838188E+01  0.00000000000E+00 0. -1.
         13   -1    0    0    0    0 -0.00000000000E+00 -0.00000000000E+00 -0.10000000000E+04  0.10000000000E+04  0.00000000000E+00 0.  1.
    9000005    2    1    2  501    0  0.79168664762E+01 -0.38704490501E+02 -0.25602238723E+03  0.25907529963E+03  0.34400223138E+01 0.  0.
         13    1    3    3    0    0  0.59789154614E+01 -0.25955242139E+02 -0.18185217073E+03  0.18379236661E+03  0.00000000000E+00 0.  1.
          1    1    3    3  501    0  0.19379510148E+01 -0.12749248362E+02 -0.74170216499E+02  0.75282933016E+02  0.00000000000E+00 0.  1.
         -1    1    1    2    0  502 -0.79168664762E+01  0.38704490501E+02 -0.74192562895E+03  0.74297668419E+03  0.00000000000E+00 0. -1.
<mgrwt>
<rscale>  1 0.30000000E+03</rscale>
<asrwt>0</asrwt>
<pdfrwt beam="1">  1       21 0.74617751E-02 0.30000000E+03</pdfrwt>
<pdfrwt beam="2">0</pdfrwt>
<totfact> 0.14432997E+04</totfact>
</mgrwt>
</event>
<event>
 6    1  0.1198667E-001  0.3000000E+03  0.7818608E-02  0.1093470E+00
         21   -1    0    0  501  502  0.00000000000E+00  0.00000000000E+00  0.51408454325E+01  0.51408454325E+01  0.00000000000E+00 0. -1.
         13   -1    0    0    0    0 -0.00000000000E+00 -0.00000000000E+00 -0.10000000000E+04  0.10000000000E+04  0.00000000000E+00 0.  1.
    9000005    2    1    2  501    0 -0.38562563961E+02  0.34757492372E+02 -0.84393469742E+03  0.84553712875E+03  0.34796495628E+01 0.  0.
         13    1    3    3    0    0 -0.11407902736E+02  0.87033466079E+01 -0.24992563924E+03  0.25033719987E+03  0.00000000000E+00 0.  1.
          3    1    3    3  501    0 -0.27154661225E+02  0.26054145764E+02 -0.59400905818E+03  0.59519992888E+03  0.00000000000E+00 0.  1.
         -1    1    1    2    0  502  0.38562563961E+02 -0.34757492372E+02 -0.15092445714E+03  0.15960371668E+03  0.00000000000E+00 0. -1.
<mgrwt>
<rscale>  1 0.30000000E+03</rscale>
<asrwt>0</asrwt>
<pdfrwt beam="1">  1       21 0.18694023E-01 0.30000000E+03</pdfrwt>
<pdfrwt beam="2">0</pdfrwt>
<totfact> 0.27276633E+03</totfact>
</mgrwt>
</event>
<event>
 6    1  0.1198667E-001  0.3000000E+03  0.7818608E-02  0.1093470E+00
         21   -1    0    0  501  502  0.00000000000E+00  0.00000000000E+00  0.13917224020E+01  0.13917224020E+01  0.00000000000E+00 0. -1.
         13   -1    0    0    0    0 -0.00000000000E+00 -0.00000000000E+00 -0.10000000000E+04  0.10000000000E+04  0.00000000000E+00 0.  1.
    9000005    2    1    2  501    0  0.34557596848E+01  0.37026645891E+02 -0.52505482340E+03  0.52638036594E+03  0.32874450921E+01 0.  0.
         13    1    3    3    0    0  0.46932745290E+00  0.69752826208E+01 -0.11791735645E+03  0.11812441657E+03  0.00000000000E+00 0.  1.
          3    1    3    3  501    0  0.29864322319E+01  0.30051363270E+02 -0.40713746695E+03  0.40825594938E+03  0.00000000000E+00 0.  1.
         -3    1    1    2    0  502 -0.34557596848E+01 -0.37026645891E+02 -0.47355345420E+03  0.47501135646E+03  0.00000000000E+00 0. -1.
<mgrwt>
<rscale>  1 0.30000000E+03</rscale>
<asrwt>0</asrwt>
<pdfrwt beam="1">  1       21 0.50608194E-02 0.30000000E+03</pdfrwt>
<pdfrwt beam="2">0</pdfrwt>
<totfact> 0.28216863E+04</totfact>
</mgrwt>
</event>
<event>
 6    1  0.1198667E-001  0.3000000E+03  0.7818608E-02  0.1093470E+00
         21   -1    0    0  501  502  0.00000000000E+00  0.00000000000E+00  0.29876840441E+01  0.29876840441E+01  0.00000000000E+00 0. -1.
         13   -1    0    0    0    0 -0.00000000000E+00 -0.00000000000E+00 -0.10000000000E+04  0.10000000000E+04  0.00000000000E+00 0.  1.
    9000005    2    1    2  501    0  0.27717380497E+02  0.43943708924E+02 -0.65210686560E+03  0.65419107795E+03  0.48269633092E+01 0.  0.
         13    1    3    3    0    0  0.21621480996E+02  0.37607537339E+02 -0.54594014522E+03  0.54766089642E+03  0.00000000000E+00 0.  1.
          3    1    3    3  501    0  0.60958995013E+01  0.63361715848E+01 -0.10616672038E+03  0.10653018153E+03  0.00000000000E+00 0.  1.
         -1    1    1    2    0  502 -0.27717380497E+02 -0.43943708924E+02 -0.34490545036E+03  0.34879660609E+03  0.00000000000E+00 0. -1.
<mgrwt>
<rscale>  1 0.30000000E+03</rscale>
<asrwt>0</asrwt>
<pdfrwt beam="1">  1       21 0.10864329E-01 0.30000000E+03</pdfrwt>
<pdfrwt beam="2">0</pdfrwt>
<totfact> 0.74156810E+03</totfact>
</mgrwt>
</event>
<event>
 6    1  0.1198667E-001  0.3000000E+03  0.7818608E-02  0.1093470E+00
         21   -1    0    0  501  502  0.00000000000E+00  0.00000000000E+00  0.33141022926E+01  0.33141022926E+01  0.00000000000E+00 0. -1.
         13   -1    0    0    0    0 -0.00000000000E+00 -0.00000000000E+00 -0.10000000000E+04  0.10000000000E+04  0.00000000000E+00 0.  1.
    9000005    2    1    2  501    0  0.27143524871E+02  0.16984657160E+02 -0.91514031990E+03  0.91570742001E+03  0.36089369987E+01 0.  0.
         13    1    3    3    0    0  0.14710770538E+02  0.10846650142E+02 -0.48819109688E+03  0.48853311419E+03  0.00000000000E+00 0.  1.
          3    1    3    3  501    0  0.12432754333E+02  0.61380070175E+01 -0.42694922302E+03  0.42717430582E+03  0.00000000000E+00 0.  1.
         -1    1    1    2    0  502 -0.27143524871E+02 -0.16984657160E+02 -0.81545577803E+02  0.87606682282E+02  0.00000000000E+00 0. -1.
<mgrwt>
<rscale>  1 0.30000000E+03</rscale>
<asrwt>0</asrwt>
<pdfrwt beam="1">  1       21 0.12051306E-01 0.30000000E+03</pdfrwt>
<pdfrwt beam="2">0</pdfrwt>
<totfact> 0.61493076E+03</totfact>
</mgrwt>
</event>
<event>
 6    1  0.1198667E-001  0.3000000E+03  0.7818608E-02  0.1093470E+00
         21   -1    0    0  501  502  0.00000000000E+00  0.00000000000E+00  0.12951282627E+01  0.12951282627E+01  0.00000000000E+00 0. -1.
         13   -1    0    0    0    0 -0.00000000000E+00 -0.00000000000E+00 -0.10000000000E+04  0.10000000000E+04  0.00000000000E+00 0.  1.
    9000005    2    1    2  501    0  0.24735726846E+02 -0.23148041439E+02 -0.66656907581E+03  0.66743606378E+03  0.29796635234E+01 0.  0.
         13    1    3    3    0    0  0.13879461745E+02 -0.14910113918E+02 -0.40727231068E+03  0.40778141939E+03  0.00000000000E+00 0.  1.
          1    1    3    3  501    0  0.10856265101E+02 -0.82379275209E+01 -0.25929676513E+03  0.25965464438E+03  0.00000000000E+00 0.  1.
         -3    1    1    2    0  502 -0.24735726846E+02  0.23148041439E+02 -0.33213579592E+03  0.33385906448E+03  0.00000000000E+00 0. -1.
<mgrwt>
<rscale>  1 0.30000000E+03</rscale>
<asrwt>0</asrwt>
<pdfrwt beam="1">  1       21 0.47095673E-02 0.30000000E+03</pdfrwt>
<pdfrwt beam="2">0</pdfrwt>
<totfact> 0.31893867E+04</totfact>
</mgrwt>
</event>
<event>
 6    1  0.1198667E-001  0.3000000E+03  0.7818608E-02  0.1093470E+00
         21   -1    0    0  501  502  0.00000000000E+00  0.00000000000E+00  0.15703340924E+01  0.15703340924E+01  0.00000000000E+00 0. -1.
         13   -1    0    0    0    0 -0.00000000000E+00 -0.00000000000E+00 -0.10000000000E+04  0.10000000000E+04  0.00000000000E+00 0.  1.
    9000005    2    1    2  501    0 -0.28644372225E+02 -0.26941812025E+02 -0.55378027986E+03  0.55518548017E+03  0.34579963299E+01 0.  0.
         13    1    3    3    0    0 -0.20018364064E+02 -0.20923960952E+02 -0.40690283279E+03  0.40793193350E+03  0.00000000000E+00 0.  1.
          1    1    3    3  501    0 -0.86260081609E+01 -0.60178510730E+01 -0.14687744707E+03  0.14725354667E+03  0.00000000000E+00 0.  1.
         -3    1    1    2    0  502  0.28644372225E+02  0.26941812025E+02 -0.44464938605E+03  0.44638485392E+03  0.00000000000E+00 0. -1.
<mgrwt>
<rscale>  1 0.30000000E+03</rscale>
<asrwt>0</asrwt>
<pdfrwt beam="1">  1       21 0.57103178E-02 0.30000000E+03</pdfrwt>
<pdfrwt beam="2">0</pdfrwt>
<totfact> 0.22946784E+04</totfact>
</mgrwt>
</event>
<event>
 6    1  0.1198667E-001  0.3000000E+03  0.7818608E-02  0.1093470E+00
         21   -1    0    0  501  502  0.00000000000E+00  0.00000000000E+00  0.56479309240E+01  0.56479309240E+01  0.00000000000E+00 0. -1.
         13   -1    0    0    0    0 -0.00000000000E+00 -0.00000000000E+00 -0.10000000000E+04  0.10000000000E+04  0.00000000000E+00 0.  1.
    9000005    2    1    2  501    0  0.31961710107E+02 -0.84559840541E+01 -0.94869625822E+03  0.94927854522E+03  0.34801554920E+01 0.  0.
         13    1    3    3    0    0  0.19166164153E+02 -0.32987025357E+01 -0.55696466773E+03  0.55730410404E+03  0.00000000000E+00 0.  1.
          3    1    3    3  501    0  0.12795545954E+02 -0.51572815183E+01 -0.39173159049E+03  0.39197444118E+03  0.00000000000E+00 0.  1.
         -1    1    1    2    0  502 -0.31961710107E+02  0.84559840541E+01 -0.45655810855E+02  0.56369385700E+02  0.00000000000E+00 0. -1.
<mgrwt>
<rscale>  1 0.30000000E+03</rscale>
<asrwt>0</asrwt>
<pdfrwt beam="1">  1       21 0.20537974E-01 0.30000000E+03</pdfrwt>
<pdfrwt beam="2">0</pdfrwt>
<totfact> 0.22805426E+03</totfact>
</mgrwt>
</event>
<event>
 6    1  0.1198667E-001  0.3000000E+03  0.7818608E-02  0.1093470E+00
         21   -1    0    0  501  502  0.00000000000E+00  0.00000000000E+00  0.36176123831E+01  0.36176123831E+01  0.00000000000E+00 0. -1.
         13   -1    0    0    0    0 -0.00000000000E+00 -0.00000000000E+00 -0.10000000000E+04  0.10000000000E+04  0.00000000000E+00 0.  1.
    9000005    2    1    2  501    0  0.15553600427E+02  0.30997243598E+02 -0.90803009774E+03  0.90870254128E+03  0.43481629912E+01 0.  0.
         13    1    3    3    0    0  0.63957754602E+01  0.83100694856E+01 -0.27279342642E+03  0.27299490233E+03  0.00000000000E+00 0.  1.
          3    1    3    3  501    0  0.91578249664E+01  0.22687174113E+02 -0.63523667132E+03  0.63570763895E+03  0.00000000000E+00 0.  1.
         -1    1    1    2    0  502 -0.15553600427E+02 -0.30997243598E+02 -0.88352289875E+02  0.94915071106E+02  0.00000000000E+00 0. -1.
<mgrwt>
<rscale>  1 0.30000000E+03</rscale>
<asrwt>0</asrwt>
<pdfrwt beam="1">  1       21 0.13154982E-01 0.30000000E+03</pdfrwt>
<pdfrwt beam="2">0</pdfrwt>
<totfact> 0.52417951E+03</totfact>
</mgrwt>
</event>
<event>
 6    1  0.1198667E-001  0.3000000E+03  0.7818608E-02  0.1093470E+00
         21   -1    0    0  501  502  0.00000000000E+00  0.00000000000E+00  0.10610556770E+01  0.10610556770E+01  0.00000000000E+00 0. -1.
         13   -1    0    0    0    0 -0.00000000000E+00 -0.00000000000E+00 -0.10000000000E+04  0.10000000000E+04  0.00000000000E+00 0.  1.
    9000005    2    1    2  501    0  0.28192471257E+02 -0.10821223527E+02 -0.68487642095E+03  0.68555006870E+03  0.33571432023E+01 0.  0.
         13    1    3    3    0    0  0.67090744946E+01 -0.40208101812E+01 -0.16384628071E+03  0.16403286956E+03  0.00000000000E+00 0.  1.
          1    1    3    3  501    0  0.21483396762E+02 -0.68004133461E+01 -0.52103014024E+03  0.52151719914E+03  0.00000000000E+00 0.  1.
         -3    1    1    2    0  502 -0.28192471257E+02  0.10821223527E+02 -0.31406252337E+03  0.31551098698E+03  0.00000000000E+00 0. -1.
<mgrwt>
<rscale>  1 0.30000000E+03</rscale>
<asrwt>0</asrwt>
<pdfrwt beam="1">  1       21 0.38583924E-02 0.30000000E+03</pdfrwt>
<pdfrwt beam="2">0</pdfrwt>
<totfact> 0.44676256E+04</totfact>
</mgrwt>
</event>
<event>
 6    1  0.1198667E-001  0.3000000E+03  0.7818608E-02  0.1093470E+00
         21   -1    0    0  501  502  0.00000000000E+00  0.00000000000E+00  0.12693542375E+01  0.12693542375E+01  0.00000000000E+00 0. -1.
         13   -1    0    0    0    0 -0.00000000000E+00 -0.00000000000E+00 -0.10000000000E+04  0.10000000000E+04  0.00000000000E+00 0.  1.
    9000005    2    1    2  501    0  0.21664006858E+01  0.32358929670E+02 -0.70508949386E+03  0.70584268023E+03  0.33017069660E+01 0.  0.
         13    1    3    3    0    0  0.23489376650E+01  0.20621576314E+02 -0.47697410038E+03  0.47742544899E+03  0.00000000000E+00 0.  1.
          1    1    3    3  501    0 -0.18253697915E+00  0.11737353356E+02 -0.22811539348E+03  0.22841723124E+03  0.00000000000E+00 0.  1.
         -1    1    1    2    0  502 -0.21664006858E+01 -0.32358929670E+02 -0.29364115190E+03  0.29542667400E+03  0.00000000000E+00 0. -1.
<mgrwt>
<rscale>  1 0.30000000E+03</rscale>
<asrwt>0</asrwt>
<pdfrwt beam="1">  1       21 0.46158433E-02 0.30000000E+03</pdfrwt>
<pdfrwt beam="2">0</pdfrwt>
<totfact> 0.33002425E+04</totfact>
</mgrwt>
</event>
<event>
 6    1  0.1198667E-001  0.3000000E+03  0.7818608E-02  0.1093470E+00
         21   -1    0    0  501  502  0.00000000000E+00  0.00000000000E+00  0.11403395764E+02  0.11403395764E+02  0.00000000000E+00 0. -1.
         13   -1    0    0    0    0 -0.00000000000E+00 -0.00000000000E+00 -0.10000000000E+04  0.10000000000E+04  0.00000000000E+00 0.  1.
    9000005    2    1    2  501    0 -0.35146408615E+02  0.12492354154E+02 -0.96813186114E+03  0.96885771842E+03  0.38274061645E+01 0.  0.
         13    1    3    3    0    0 -0.14841115890E+02  0.66448491185E+01 -0.45731263853E+03  0.45760164128E+03  0.00000000000E+00 0.  1.
          3    1    3    3  501    0 -0.20305292725E+02  0.58475050355E+01 -0.51081922261E+03  0.51125607714E+03  0.00000000000E+00 0.  1.
         -3    1    1    2    0  502  0.35146408615E+02 -0.12492354154E+02 -0.20464743101E+02  0.42545677348E+02  0.00000000000E+00 0. -1.
<mgrwt>
<rscale>  1 0.30000000E+03</rscale>
<asrwt>0</asrwt>
<pdfrwt beam="1">  1       21 0.41466981E-01 0.30000000E+03</pdfrwt>
<pdfrwt beam="2">0</pdfrwt>
<totfact> 0.56010982E+02</totfact>
</mgrwt>
</event>
<event>
 6    1  0.1198667E-001  0.3000000E+03  0.7818608E-02  0.1093470E+00
         21   -1    0    0  501  502  0.00000000000E+00  0.00000000000E+00  0.94810479862E+01  0.94810479862E+01  0.00000000000E+00 0. -1.
         13   -1    0    0    0    0 -0.00000000000E+00 -0.00000000000E+00 -0.10000000000E+04  0.10000000000E+04  0.00000000000E+00 0.  1.
    9000005    2    1    2  501    0  0.81606044955E+02 -0.48452368076E+02 -0.60759405036E+03  0.61497039053E+03  0.32973689412E+01 0.  0.
         13    1    3    3    0    0  0.68292332238E+02 -0.40625414379E+02 -0.51634874469E+03  0.52242730889E+03  0.00000000000E+00 0.  1.
          1    1    3    3  501    0  0.13313712717E+02 -0.78269536972E+01 -0.91245305679E+02  0.92543081637E+02  0.00000000000E+00 0.  1.
         -3    1    1    2    0  502 -0.81606044955E+02  0.48452368076E+02 -0.38292490165E+03  0.39451065746E+03  0.00000000000E+00 0. -1.
<mgrwt>
<rscale>  1 0.30000000E+03</rscale>
<asrwt>0</asrwt>
<pdfrwt beam="1">  1       21 0.34476611E-01 0.30000000E+03</pdfrwt>
<pdfrwt beam="2">0</pdfrwt>
<totfact> 0.82067921E+02</totfact>
</mgrwt>
</event>
<event>
 6    1  0.1198667E-001  0.3000000E+03  0.7818608E-02  0.1093470E+00
         21   -1    0    0  501  502  0.00000000000E+00  0.00000000000E+00  0.40110264773E+01  0.40110264773E+01  0.00000000000E+00 0. -1.
         13   -1    0    0    0    0 -0.00000000000E+00 -0.00000000000E+00 -0.10000000000E+04  0.10000000000E+04  0.00000000000E+00 0.  1.
    9000005    2    1    2  501    0  0.29843771764E+02  0.16251657329E+02 -0.92156588212E+03  0.92219682470E+03  0.29225527062E+01 0.  0.
         13    1    3    3    0    0  0.40138720392E+01  0.16402161541E+01 -0.14241822803E+03  0.14248422072E+03  0.00000000000E+00 0.  1.
          3    1    3    3  501    0  0.25829899725E+02  0.14611441175E+02 -0.77914765408E+03  0.77971260398E+03  0.00000000000E+00 0.  1.
         -1    1    1    2    0  502 -0.29843771764E+02 -0.16251657329E+02 -0.74423091404E+02  0.81814201782E+02  0.00000000000E+00 0. -1.
<mgrwt>
<rscale>  1 0.30000000E+03</rscale>
<asrwt>0</asrwt>
<pdfrwt beam="1">  1       21 0.14585582E-01 0.30000000E+03</pdfrwt>
<pdfrwt beam="2">0</pdfrwt>
<totfact> 0.43368490E+03</totfact>
</mgrwt>
</event>
<event>
 6    1  0.1198667E-001  0.3000000E+03  0.7818608E-02  0.1093470E+00
         21   -1    0    0  501  502  0.00000000000E+00  0.00000000000E+00  0.15065799626E+01  0.15065799626E+01  0.00000000000E+00 0. -1.
         13   -1    0    0    0    0 -0.00000000000E+00 -0.00000000000E+00 -0.10000000000E+04  0.10000000000E+04  0.00000000000E+00 0.  1.
    9000005    2    1    2  501    0 -0.36846342227E+02 -0.72627988775E+01 -0.62348329841E+03  0.62462066552E+03  0.30250973319E+01 0.  0.
         13    1    3    3    0    0 -0.29843850129E+02 -0.69465932641E+01 -0.51611920251E+03  0.51702798933E+03  0.00000000000E+00 0.  1.
          1    1    3    3  501    0 -0.70024920987E+01 -0.31620561337E+00 -0.10736409590E+03  0.10759267619E+03  0.00000000000E+00 0.  1.
         -3    1    1    2    0  502  0.36846342227E+02  0.72627988775E+01 -0.37501012163E+03  0.37688591444E+03  0.00000000000E+00 0. -1.
<mgrwt>
<rscale>  1 0.30000000E+03</rscale>
<asrwt>0</asrwt>
<pdfrwt beam="1">  1       21 0.54784841E-02 0.30000000E+03</pdfrwt>
<pdfrwt beam="2">0</pdfrwt>
<totfact> 0.24639168E+04</totfact>
</mgrwt>
</event>
<event>
 6    1  0.1198667E-001  0.3000000E+03  0.7818608E-02  0.1093470E+00
         21   -1    0    0  501  502  0.00000000000E+00  0.00000000000E+00  0.20282737809E+01  0.20282737809E+01  0.00000000000E+00 0. -1.
         13   -1    0    0    0    0 -0.00000000000E+00 -0.00000000000E+00 -0.10000000000E+04  0.10000000000E+04  0.00000000000E+00 0.  1.
    9000005    2    1    2  501    0 -0.36204746049E+02  0.25821616158E+02 -0.57353355505E+03  0.57526686427E+03  0.36995767050E+01 0.  0.
         13    1    3    3    0    0 -0.35807154239E+02  0.25929799613E+02 -0.56864254242E+03  0.57035852572E+03  0.00000000000E+00 0.  1.
          3    1    3    3  501    0 -0.39759181037E+00 -0.10818345485E+00 -0.48910126238E+01  0.49083385573E+01  0.00000000000E+00 0.  1.
         -1    1    1    2    0  502  0.36204746049E+02 -0.25821616158E+02 -0.42443817117E+03  0.42676140951E+03  0.00000000000E+00 0. -1.
<mgrwt>
<rscale>  1 0.30000000E+03</rscale>
<asrwt>0</asrwt>
<pdfrwt beam="1">  1       21 0.73755566E-02 0.30000000E+03</pdfrwt>
<pdfrwt beam="2">0</pdfrwt>
<totfact> 0.14729469E+04</totfact>
</mgrwt>
</event>
<event>
 6    1  0.1198667E-001  0.3000000E+03  0.7818608E-02  0.1093470E+00
         21   -1    0    0  501  502  0.00000000000E+00  0.00000000000E+00  0.37955187264E+01  0.37955187264E+01  0.00000000000E+00 0. -1.
         13   -1    0    0    0    0 -0.00000000000E+00 -0.00000000000E+00 -0.10000000000E+04  0.10000000000E+04  0.00000000000E+00 0.  1.
    9000005    2    1    2  501    0  0.28636805612E+01  0.33666811073E+02 -0.91772478337E+03  0.91835128067E+03  0.29397042875E+01 0.  0.
         13    1    3    3    0    0 -0.37700765669E+00  0.23785806628E+01 -0.53335597613E+02  0.53389940564E+02  0.00000000000E+00 0.  1.
          1    1    3    3  501    0  0.32406882179E+01  0.31288230410E+02 -0.86438918575E+03  0.86496134010E+03  0.00000000000E+00 0.  1.
         -3    1    1    2    0  502 -0.28636805612E+01 -0.33666811073E+02 -0.78479697907E+02  0.85444238061E+02  0.00000000000E+00 0. -1.
<mgrwt>
<rscale>  1 0.30000000E+03</rscale>
<asrwt>0</asrwt>
<pdfrwt beam="1">  1       21 0.13801915E-01 0.30000000E+03</pdfrwt>
<pdfrwt beam="2">0</pdfrwt>
<totfact> 0.48006559E+03</totfact>
</mgrwt>
</event>
<event>
 6    1  0.1198667E-001  0.3000000E+03  0.7818608E-02  0.1093470E+00
         21   -1    0    0  501  502  0.00000000000E+00  0.00000000000E+00  0.12541469145E+01  0.12541469145E+01  0.00000000000E+00 0. -1.
         13   -1    0    0    0    0 -0.00000000000E+00 -0.00000000000E+00 -0.10000000000E+04  0.10000000000E+04  0.00000000000E+00 0.  1.
    9000005    2    1    2  501    0 -0.26424695863E+02  0.20744330317E+02 -0.65560329437E+03  0.65647101595E+03  0.31501443950E+01 0.  0.
         13    1    3    3    0    0 -0.82666597483E+00  0.14118767666E+01 -0.38040118732E+02  0.38075286023E+02  0.00000000000E+00 0.  1.
          3    1    3    3  501    0 -0.25598029888E+02  0.19332453550E+02 -0.61756317564E+03  0.61839572993E+03  0.00000000000E+00 0.  1.
         -3    1    1    2    0  502  0.26424695863E+02 -0.20744330317E+02 -0.34314255872E+03  0.34478313096E+03  0.00000000000E+00 0. -1.
<mgrwt>
<rscale>  1 0.30000000E+03</rscale>
<asrwt>0</asrwt>
<pdfrwt beam="1">  1       21 0.45605439E-02 0.30000000E+03</pdfrwt>
<pdfrwt beam="2">0</pdfrwt>
<totfact> 0.33685129E+04</totfact>
</mgrwt>
</event>
<event>
 6    1  0.1198667E-001  0.3000000E+03  0.7818608E-02  0.1093470E+00
         21   -1    0    0  501  502  0.00000000000E+00  0.00000000000E+00  0.14951486312E+01  0.14951486312E+01  0.00000000000E+00 0. -1.
         13   -1    0    0    0    0 -0.00000000000E+00 -0.00000000000E+00 -0.10000000000E+04  0.10000000000E+04  0.00000000000E+00 0.  1.
    9000005    2    1    2  501    0  0.33172542735E+02  0.10671626739E+02 -0.71476660404E+03  0.71562508338E+03  0.36960120097E+01 0.  0.
         13    1    3    3    0    0  0.24480200832E+02  0.66851368116E+01 -0.54262874745E+03  0.54322180447E+03  0.00000000000E+00 0.  1.
          1    1    3    3  501    0  0.86923419039E+01  0.39864899272E+01 -0.17213785659E+03  0.17240327891E+03  0.00000000000E+00 0.  1.
         -1    1    1    2    0  502 -0.33172542735E+02 -0.10671626739E+02 -0.28373824733E+03  0.28587006525E+03  0.00000000000E+00 0. -1.
<mgrwt>
<rscale>  1 0.30000000E+03</rscale>
<asrwt>0</asrwt>
<pdfrwt beam="1">  1       21 0.54369156E-02 0.30000000E+03</pdfrwt>
<pdfrwt beam="2">0</pdfrwt>
<totfact> 0.24962880E+04</totfact>
</mgrwt>
</event>
<event>
 6    1  0.1198667E-001  0.3000000E+03  0.7818608E-02  0.1093470E+00
         21   -1    0    0  501  502  0.00000000000E+00  0.00000000000E+00  0.15886543013E+01  0.15886543013E+01  0.00000000000E+00 0. -1.
         13   -1    0    0    0    0 -0.00000000000E+00 -0.00000000000E+00 -0.10000000000E+04  0.10000000000E+04  0.00000000000E+00 0.  1.
    9000005    2    1    2  501    0 -0.23607024546E+02  0.29217784011E+02 -0.66492623261E+03  0.66599471639E+03  0.33312065564E+01 0.  0.
         13    1    3    3    0    0 -0.88397033920E+01  0.12777270660E+02 -0.25414760409E+03  0.25462208009E+03  0.00000000000E+00 0.  1.
          1    1    3    3  501    0 -0.14767321154E+02  0.16440513351E+02 -0.41077862851E+03  0.41137263630E+03  0.00000000000E+00 0.  1.
         -1    1    1    2    0  502  0.23607024546E+02 -0.29217784011E+02 -0.33348511309E+03  0.33559393791E+03  0.00000000000E+00 0. -1.
<mgrwt>
<rscale>  1 0.30000000E+03</rscale>
<asrwt>0</asrwt>
<pdfrwt beam="1">  1       21 0.57769369E-02 0.30000000E+03</pdfrwt>
<pdfrwt beam="2">0</pdfrwt>
<totfact> 0.22493357E+04</totfact>
</mgrwt>
</event>
<event>
 6    1  0.1198667E-001  0.3000000E+03  0.7818608E-02  0.1093470E+00
         21   -1    0    0  501  502  0.00000000000E+00  0.00000000000E+00  0.70250742848E+01  0.70250742848E+01  0.00000000000E+00 0. -1.
         13   -1    0    0    0    0 -0.00000000000E+00 -0.00000000000E+00 -0.10000000000E+04  0.10000000000E+04  0.00000000000E+00 0.  1.
    9000005    2    1    2  501    0  0.70181474202E+02 -0.24713632357E+02 -0.72810426495E+03  0.73190206565E+03  0.29343007502E+01 0.  0.
         13    1    3    3    0    0  0.44999455560E+01 -0.22452721824E+01 -0.53165469775E+02  0.53402789567E+02  0.00000000000E+00 0.  1.
          1    1    3    3  501    0  0.65681528646E+02 -0.22468360174E+02 -0.67493879518E+03  0.67849927608E+03  0.00000000000E+00 0.  1.
         -1    1    1    2    0  502 -0.70181474202E+02  0.24713632357E+02 -0.26487066077E+03  0.27512300863E+03  0.00000000000E+00 0. -1.
<mgrwt>
<rscale>  1 0.30000000E+03</rscale>
<asrwt>0</asrwt>
<pdfrwt beam="1">  1       21 0.25545779E-01 0.30000000E+03</pdfrwt>
<pdfrwt beam="2">0</pdfrwt>
<totfact> 0.14949378E+03</totfact>
</mgrwt>
</event>
<event>
 6    1  0.1198667E-001  0.3000000E+03  0.7818608E-02  0.1093470E+00
         21   -1    0    0  501  502  0.00000000000E+00  0.00000000000E+00  0.12402547653E+01  0.12402547653E+01  0.00000000000E+00 0. -1.
         13   -1    0    0    0    0 -0.00000000000E+00 -0.00000000000E+00 -0.10000000000E+04  0.10000000000E+04  0.00000000000E+00 0.  1.
    9000005    2    1    2  501    0 -0.15185205923E+02  0.26608835048E+02 -0.74516226958E+03  0.74579887159E+03  0.32447301182E+01 0.  0.
         13    1    3    3    0    0 -0.14620087482E+02  0.23844727895E+02 -0.68370986391E+03  0.68428173731E+03  0.00000000000E+00 0.  1.
          3    1    3    3  501    0 -0.56511844114E+00  0.27641071534E+01 -0.61452405670E+02  0.61517134278E+02  0.00000000000E+00 0.  1.
         -3    1    1    2    0  502  0.15185205923E+02 -0.26608835048E+02 -0.25359747565E+03  0.25544138318E+03  0.00000000000E+00 0. -1.
<mgrwt>
<rscale>  1 0.30000000E+03</rscale>
<asrwt>0</asrwt>
<pdfrwt beam="1">  1       21 0.45100268E-02 0.30000000E+03</pdfrwt>
<pdfrwt beam="2">0</pdfrwt>
<totfact> 0.34328281E+04</totfact>
</mgrwt>
</event>
<event>
 6    1  0.1198667E-001  0.3000000E+03  0.7818608E-02  0.1093470E+00
         21   -1    0    0  501  502  0.00000000000E+00  0.00000000000E+00  0.17924704187E+01  0.17924704187E+01  0.00000000000E+00 0. -1.
         13   -1    0    0    0    0 -0.00000000000E+00 -0.00000000000E+00 -0.10000000000E+04  0.10000000000E+04  0.00000000000E+00 0.  1.
    9000005    2    1    2  501    0  0.86433176813E+01  0.35358105424E+02 -0.75392946376E+03  0.75481741904E+03  0.38467139492E+01 0.  0.
         13    1    3    3    0    0  0.44971501803E+01  0.25113128523E+02 -0.51012934977E+03  0.51076692050E+03  0.00000000000E+00 0.  1.
          1    1    3    3  501    0  0.41461675011E+01  0.10244976902E+02 -0.24380011399E+03  0.24405049854E+03  0.00000000000E+00 0.  1.
         -1    1    1    2    0  502 -0.86433176813E+01 -0.35358105424E+02 -0.24427806582E+03  0.24697505138E+03  0.00000000000E+00 0. -1.
<mgrwt>
<rscale>  1 0.30000000E+03</rscale>
<asrwt>0</asrwt>
<pdfrwt beam="1">  1       21 0.65180880E-02 0.30000000E+03</pdfrwt>
<pdfrwt beam="2">0</pdfrwt>
<totfact> 0.18261961E+04</totfact>
</mgrwt>
</event>
<event>
 6    1  0.1198667E-001  0.3000000E+03  0.7818608E-02  0.1093470E+00
         21   -1    0    0  501  502  0.00000000000E+00  0.00000000000E+00  0.18759952577E+01  0.18759952577E+01  0.00000000000E+00 0. -1.
         13   -1    0    0    0    0 -0.00000000000E+00 -0.00000000000E+00 -0.10000000000E+04  0.10000000000E+04  0.00000000000E+00 0.  1.
    9000005    2    1    2  501    0  0.32559564674E+02  0.58530298011E+01 -0.82205099739E+03  0.82272218668E+03  0.30936931405E+01 0.  0.
         13    1    3    3    0    0  0.31688433077E+02  0.61918759599E+01 -0.79690016062E+03  0.79755398696E+03  0.00000000000E+00 0.  1.
          1    1    3    3  501    0  0.87113159692E+00 -0.33884615880E+00 -0.25150836765E+02  0.25168199716E+02  0.00000000000E+00 0.  1.
         -3    1    1    2    0  502 -0.32559564674E+02 -0.58530298011E+01 -0.17607300736E+03  0.17915380858E+03  0.00000000000E+00 0. -1.
<mgrwt>
<rscale>  1 0.30000000E+03</rscale>
<asrwt>0</asrwt>
<pdfrwt beam="1">  1       21 0.68218153E-02 0.30000000E+03</pdfrwt>
<pdfrwt beam="2">0</pdfrwt>
<totfact> 0.16875065E+04</totfact>
</mgrwt>
</event>
<event>
 6    1  0.1198667E-001  0.3000000E+03  0.7818608E-02  0.1093470E+00
         21   -1    0    0  501  502  0.00000000000E+00  0.00000000000E+00  0.10677323299E+01  0.10677323299E+01  0.00000000000E+00 0. -1.
         13   -1    0    0    0    0 -0.00000000000E+00 -0.00000000000E+00 -0.10000000000E+04  0.10000000000E+04  0.00000000000E+00 0.  1.
    9000005    2    1    2  501    0 -0.22899973093E+02  0.22308315481E+02 -0.42242465796E+03  0.42367437095E+03  0.59423264363E+01 0.  0.
         13    1    3    3    0    0 -0.15655832995E+02  0.16594918424E+02 -0.26533806215E+03  0.26631707352E+03  0.00000000000E+00 0.  1.
          3    1    3    3  501    0 -0.72441400976E+01  0.57133970573E+01 -0.15708659581E+03  0.15735729743E+03  0.00000000000E+00 0.  1.
         -1    1    1    2    0  502  0.22899973093E+02 -0.22308315481E+02 -0.57650760971E+03  0.57739336138E+03  0.00000000000E+00 0. -1.
<mgrwt>
<rscale>  1 0.30000000E+03</rscale>
<asrwt>0</asrwt>
<pdfrwt beam="1">  1       21 0.38826712E-02 0.30000000E+03</pdfrwt>
<pdfrwt beam="2">0</pdfrwt>
<totfact> 0.44207523E+04</totfact>
</mgrwt>
</event>
<event>
 6    1  0.1198667E-001  0.3000000E+03  0.7818608E-02  0.1093470E+00
         21   -1    0    0  501  502  0.00000000000E+00  0.00000000000E+00  0.24325725148E+01  0.24325725148E+01  0.00000000000E+00 0. -1.
         13   -1    0    0    0    0 -0.00000000000E+00 -0.00000000000E+00 -0.10000000000E+04  0.10000000000E+04  0.00000000000E+00 0.  1.
    9000005    2    1    2  501    0 -0.41458148679E+02 -0.91418481026E+01 -0.75287944591E+03  0.75408894001E+03  0.45075372684E+01 0.  0.
         13    1    3    3    0    0 -0.13728362615E+02 -0.13779702339E+01 -0.26855020791E+03  0.26890440850E+03  0.00000000000E+00 0.  1.
          3    1    3    3  501    0 -0.27729786064E+02 -0.77638778686E+01 -0.48432923800E+03  0.48518453151E+03  0.00000000000E+00 0.  1.
         -3    1    1    2    0  502  0.41458148679E+02  0.91418481026E+01 -0.24468798158E+03  0.24834363251E+03  0.00000000000E+00 0. -1.
<mgrwt>
<rscale>  1 0.30000000E+03</rscale>
<asrwt>0</asrwt>
<pdfrwt beam="1">  1       21 0.88457369E-02 0.30000000E+03</pdfrwt>
<pdfrwt beam="2">0</pdfrwt>
<totfact> 0.10700637E+04</totfact>
</mgrwt>
</event>
<event>
 6    1  0.1198667E-001  0.3000000E+03  0.7818608E-02  0.1093470E+00
         21   -1    0    0  501  502  0.00000000000E+00  0.00000000000E+00  0.12839815725E+01  0.12839815725E+01  0.00000000000E+00 0. -1.
         13   -1    0    0    0    0 -0.00000000000E+00 -0.00000000000E+00 -0.10000000000E+04  0.10000000000E+04  0.00000000000E+00 0.  1.
    9000005    2    1    2  501    0 -0.16549908227E+02  0.30427760431E+02 -0.62446581792E+03  0.62543432992E+03  0.32856087869E+01 0.  0.
         13    1    3    3    0    0 -0.16484005681E+02  0.30276942977E+02 -0.61385240464E+03  0.61481964055E+03  0.00000000000E+00 0.  1.
          1    1    3    3  501    0 -0.65902545738E-01  0.15081745398E+00 -0.10613413284E+02  0.10614689378E+02  0.00000000000E+00 0.  1.
         -1    1    1    2    0  502  0.16549908227E+02 -0.30427760431E+02 -0.37425020051E+03  0.37584965165E+03  0.00000000000E+00 0. -1.
<mgrwt>
<rscale>  1 0.30000000E+03</rscale>
<asrwt>0</asrwt>
<pdfrwt beam="1">  1       21 0.46690337E-02 0.30000000E+03</pdfrwt>
<pdfrwt beam="2">0</pdfrwt>
<totfact> 0.32366019E+04</totfact>
</mgrwt>
</event>
<event>
 6    1  0.1198667E-001  0.3000000E+03  0.7818608E-02  0.1093470E+00
         21   -1    0    0  501  502  0.00000000000E+00  0.00000000000E+00  0.12976507457E+02  0.12976507457E+02  0.00000000000E+00 0. -1.
         13   -1    0    0    0    0 -0.00000000000E+00 -0.00000000000E+00 -0.10000000000E+04  0.10000000000E+04  0.00000000000E+00 0.  1.
    9000005    2    1    2  501    0  0.46148333550E+02 -0.50363800332E+02 -0.88365736627E+02  0.11172629617E+03  0.28426700828E+01 0.  0.
         13    1    3    3    0    0  0.27063995196E+01 -0.38854644291E+01 -0.67107863574E+01  0.82131653901E+01  0.00000000000E+00 0.  1.
          3    1    3    3  501    0  0.43441934031E+02 -0.46478335903E+02 -0.81654950270E+02  0.10351313078E+03  0.00000000000E+00 0.  1.
         -3    1    1    2    0  502 -0.46148333550E+02  0.50363800332E+02 -0.89865775592E+03  0.90125021128E+03  0.00000000000E+00 0. -1.
<mgrwt>
<rscale>  1 0.30000000E+03</rscale>
<asrwt>0</asrwt>
<pdfrwt beam="1">  1       21 0.47187399E-01 0.30000000E+03</pdfrwt>
<pdfrwt beam="2">0</pdfrwt>
<totfact> 0.42566995E+02</totfact>
</mgrwt>
</event>
<event>
 6    1  0.1198667E-001  0.3000000E+03  0.7818608E-02  0.1093470E+00
         21   -1    0    0  501  502  0.00000000000E+00  0.00000000000E+00  0.25072084212E+01  0.25072084212E+01  0.00000000000E+00 0. -1.
         13   -1    0    0    0    0 -0.00000000000E+00 -0.00000000000E+00 -0.10000000000E+04  0.10000000000E+04  0.00000000000E+00 0.  1.
    9000005    2    1    2  501    0  0.45196330438E+02  0.62362979270E+01 -0.70187082683E+03  0.70338525045E+03  0.68229980645E+01 0.  0.
         13    1    3    3    0    0  0.15698674773E+02  0.44348314018E+01 -0.28694259966E+03  0.28740593526E+03  0.00000000000E+00 0.  1.
          1    1    3    3  501    0  0.29497655665E+02  0.18014665252E+01 -0.41492822717E+03  0.41597931520E+03  0.00000000000E+00 0.  1.
         -1    1    1    2    0  502 -0.45196330438E+02 -0.62362979270E+01 -0.29562196475E+03  0.29912195797E+03  0.00000000000E+00 0. -1.
<mgrwt>
<rscale>  1 0.30000000E+03</rscale>
<asrwt>0</asrwt>
<pdfrwt beam="1">  1       21 0.91171408E-02 0.30000000E+03</pdfrwt>
<pdfrwt beam="2">0</pdfrwt>
<totfact> 0.10142886E+04</totfact>
</mgrwt>
</event>
<event>
 6    1  0.1198667E-001  0.3000000E+03  0.7818608E-02  0.1093470E+00
         21   -1    0    0  501  502  0.00000000000E+00  0.00000000000E+00  0.78982536681E+01  0.78982536681E+01  0.00000000000E+00 0. -1.
         13   -1    0    0    0    0 -0.00000000000E+00 -0.00000000000E+00 -0.10000000000E+04  0.10000000000E+04  0.00000000000E+00 0.  1.
    9000005    2    1    2  501    0  0.55204514742E+02  0.69464349833E+02 -0.52185583584E+03  0.52935457679E+03  0.31496384817E+01 0.  0.
         13    1    3    3    0    0  0.14282410810E+02  0.19109151047E+02 -0.13322488095E+03  0.13534406458E+03  0.00000000000E+00 0.  1.
          1    1    3    3  501    0  0.40922103932E+02  0.50355198786E+02 -0.38863095490E+03  0.39401051222E+03  0.00000000000E+00 0.  1.
         -1    1    1    2    0  502 -0.55204514742E+02 -0.69464349833E+02 -0.47024591049E+03  0.47854367688E+03  0.00000000000E+00 0. -1.
<mgrwt>
<rscale>  1 0.30000000E+03</rscale>
<asrwt>0</asrwt>
<pdfrwt beam="1">  1       21 0.28720983E-01 0.30000000E+03</pdfrwt>
<pdfrwt beam="2">0</pdfrwt>
<totfact> 0.11859886E+03</totfact>
</mgrwt>
</event>
<event>
 6    1  0.1198667E-001  0.3000000E+03  0.7818608E-02  0.1093470E+00
         21   -1    0    0  501  502  0.00000000000E+00  0.00000000000E+00  0.10609862181E+02  0.10609862181E+02  0.00000000000E+00 0. -1.
         13   -1    0    0    0    0 -0.00000000000E+00 -0.00000000000E+00 -0.10000000000E+04  0.10000000000E+04  0.00000000000E+00 0.  1.
    9000005    2    1    2  501    0  0.98619111306E+02 -0.17641895988E+02 -0.61174859495E+03  0.61990524164E+03  0.30330816575E+01 0.  0.
         13    1    3    3    0    0  0.95993428842E+02 -0.17661852347E+02 -0.59558787878E+03  0.60353260124E+03  0.00000000000E+00 0.  1.
          3    1    3    3  501    0  0.26256824641E+01  0.19956358628E-01 -0.16160716166E+02  0.16372640400E+02  0.00000000000E+00 0.  1.
         -1    1    1    2    0  502 -0.98619111306E+02  0.17641895988E+02 -0.37764154287E+03  0.39070462054E+03  0.00000000000E+00 0. -1.
<mgrwt>
<rscale>  1 0.30000000E+03</rscale>
<asrwt>0</asrwt>
<pdfrwt beam="1">  1       21 0.38581398E-01 0.30000000E+03</pdfrwt>
<pdfrwt beam="2">0</pdfrwt>
<totfact> 0.65115357E+02</totfact>
</mgrwt>
</event>
<event>
 6    1  0.1198667E-001  0.3000000E+03  0.7818608E-02  0.1093470E+00
         21   -1    0    0  501  502  0.00000000000E+00  0.00000000000E+00  0.11164406610E+01  0.11164406610E+01  0.00000000000E+00 0. -1.
         13   -1    0    0    0    0 -0.00000000000E+00 -0.00000000000E+00 -0.10000000000E+04  0.10000000000E+04  0.00000000000E+00 0.  1.
    9000005    2    1    2  501    0 -0.43225063366E+01 -0.32423798579E+02 -0.53964601174E+03  0.54071540689E+03  0.92383160213E+01 0.  0.
         13    1    3    3    0    0 -0.41889621634E+01 -0.33055100929E+02 -0.53188755921E+03  0.53293016686E+03  0.00000000000E+00 0.  1.
          3    1    3    3  501    0 -0.13354417312E+00  0.63130234943E+00 -0.77584525321E+01  0.77852400345E+01  0.00000000000E+00 0.  1.
         -3    1    1    2    0  502  0.43225063366E+01  0.32423798579E+02 -0.45923754760E+03  0.46040103377E+03  0.00000000000E+00 0. -1.
<mgrwt>
<rscale>  1 0.30000000E+03</rscale>
<asrwt>0</asrwt>
<pdfrwt beam="1">  1       21 0.40597928E-02 0.30000000E+03</pdfrwt>
<pdfrwt beam="2">0</pdfrwt>
<totfact> 0.41009315E+04</totfact>
</mgrwt>
</event>
<event>
 6    1  0.1198667E-001  0.3000000E+03  0.7818608E-02  0.1093470E+00
         21   -1    0    0  501  502  0.00000000000E+00  0.00000000000E+00  0.16403079507E+01  0.16403079507E+01  0.00000000000E+00 0. -1.
         13   -1    0    0    0    0 -0.00000000000E+00 -0.00000000000E+00 -0.10000000000E+04  0.10000000000E+04  0.00000000000E+00 0.  1.
    9000005    2    1    2  501    0 -0.40223793716E+02 -0.13123334822E+01 -0.54835499983E+03  0.54983957885E+03  0.32681534707E+01 0.  0.
         13    1    3    3    0    0 -0.51302946534E+01  0.27567210103E+00 -0.84694403706E+02  0.84850090969E+02  0.00000000000E+00 0.  1.
          3    1    3    3  501    0 -0.35093499062E+02 -0.15880055832E+01 -0.46366059613E+03  0.46498948788E+03  0.00000000000E+00 0.  1.
         -3    1    1    2    0  502  0.40223793716E+02  0.13123334822E+01 -0.45000469221E+03  0.45180072910E+03  0.00000000000E+00 0. -1.
<mgrwt>
<rscale>  1 0.30000000E+03</rscale>
<asrwt>0</asrwt>
<pdfrwt beam="1">  1       21 0.59647688E-02 0.30000000E+03</pdfrwt>
<pdfrwt beam="2">0</pdfrwt>
<totfact> 0.21286750E+04</totfact>
</mgrwt>
</event>
<event>
 6    1  0.1198667E-001  0.3000000E+03  0.7818608E-02  0.1093470E+00
         21   -1    0    0  501  502  0.00000000000E+00  0.00000000000E+00  0.15686376935E+01  0.15686376935E+01  0.00000000000E+00 0. -1.
         13   -1    0    0    0    0 -0.00000000000E+00 -0.00000000000E+00 -0.10000000000E+04  0.10000000000E+04  0.00000000000E+00 0.  1.
    9000005    2    1    2  501    0  0.14570038237E+02  0.35867744853E+02 -0.40003670725E+03  0.40192295537E+03  0.37301161830E+01 0.  0.
         13    1    3    3    0    0  0.12501772590E+02  0.27870106916E+02 -0.30335888581E+03  0.30489285130E+03  0.00000000000E+00 0.  1.
          3    1    3    3  501    0  0.20682656473E+01  0.79976379370E+01 -0.96677821446E+02  0.97030104065E+02  0.00000000000E+00 0.  1.
         -1    1    1    2    0  502 -0.14570038237E+02 -0.35867744853E+02 -0.59839465505E+03  0.59964568232E+03  0.00000000000E+00 0. -1.
<mgrwt>
<rscale>  1 0.30000000E+03</rscale>
<asrwt>0</asrwt>
<pdfrwt beam="1">  1       21 0.57041491E-02 0.30000000E+03</pdfrwt>
<pdfrwt beam="2">0</pdfrwt>
<totfact> 0.22989477E+04</totfact>
</mgrwt>
</event>
<event>
 6    1  0.1198667E-001  0.3000000E+03  0.7818608E-02  0.1093470E+00
         21   -1    0    0  501  502  0.00000000000E+00  0.00000000000E+00  0.28390683588E+01  0.28390683588E+01  0.00000000000E+00 0. -1.
         13   -1    0    0    0    0 -0.00000000000E+00 -0.00000000000E+00 -0.10000000000E+04  0.10000000000E+04  0.00000000000E+00 0.  1.
    9000005    2    1    2  501    0  0.18758157820E+02 -0.23458227170E+02 -0.91212351404E+03  0.91265304229E+03  0.80071105804E+01 0.  0.
         13    1    3    3    0    0  0.18064279797E+02 -0.18396322097E+02 -0.79540725986E+03  0.79582501338E+03  0.00000000000E+00 0.  1.
          1    1    3    3  501    0  0.69387802337E+00 -0.50619050733E+01 -0.11671625418E+03  0.11682802891E+03  0.00000000000E+00 0.  1.
         -3    1    1    2    0  502 -0.18758157820E+02  0.23458227170E+02 -0.85037417600E+02  0.90186026073E+02  0.00000000000E+00 0. -1.
<mgrwt>
<rscale>  1 0.30000000E+03</rscale>
<asrwt>0</asrwt>
<pdfrwt beam="1">  1       21 0.10323907E-01 0.30000000E+03</pdfrwt>
<pdfrwt beam="2">0</pdfrwt>
<totfact> 0.81264024E+03</totfact>
</mgrwt>
</event>
<event>
 6    1  0.1198667E-001  0.3000000E+03  0.7818608E-02  0.1093470E+00
         21   -1    0    0  501  502  0.00000000000E+00  0.00000000000E+00  0.19009062745E+01  0.19009062745E+01  0.00000000000E+00 0. -1.
         13   -1    0    0    0    0 -0.00000000000E+00 -0.00000000000E+00 -0.10000000000E+04  0.10000000000E+04  0.00000000000E+00 0.  1.
    9000005    2    1    2  501    0 -0.41579698064E+02  0.36672471037E+01 -0.64087146161E+03  0.64224287266E+03  0.41661962855E+01 0.  0.
         13    1    3    3    0    0 -0.11378940819E+02  0.26572411890E+01 -0.16556872231E+03  0.16598055017E+03  0.00000000000E+00 0.  1.
          1    1    3    3  501    0 -0.30200757246E+02  0.10100059147E+01 -0.47530273930E+03  0.47626232250E+03  0.00000000000E+00 0.  1.
         -3    1    1    2    0  502  0.41579698064E+02 -0.36672471037E+01 -0.35722763212E+03  0.35965803361E+03  0.00000000000E+00 0. -1.
<mgrwt>
<rscale>  1 0.30000000E+03</rscale>
<asrwt>0</asrwt>
<pdfrwt beam="1">  1       21 0.69124010E-02 0.30000000E+03</pdfrwt>
<pdfrwt beam="2">0</pdfrwt>
<totfact> 0.16492633E+04</totfact>
</mgrwt>
</event>
<event>
 6    1  0.1198667E-001  0.3000000E+03  0.7818608E-02  0.1093470E+00
         21   -1    0    0  501  502  0.00000000000E+00  0.00000000000E+00  0.14132634853E+01  0.14132634853E+01  0.00000000000E+00 0. -1.
         13   -1    0    0    0    0 -0.00000000000E+00 -0.00000000000E+00 -0.10000000000E+04  0.10000000000E+04  0.00000000000E+00 0.  1.
    9000005    2    1    2  501    0  0.35014028234E+02 -0.12666612205E+02 -0.54719985193E+03  0.54849324316E+03  0.55438795075E+01 0.  0.
         13    1    3    3    0    0  0.94951534694E+01 -0.17074477604E+01 -0.11640739149E+03  0.11680648146E+03  0.00000000000E+00 0.  1.
          1    1    3    3  501    0  0.25518874765E+02 -0.10959164445E+02 -0.43079246044E+03  0.43168676170E+03  0.00000000000E+00 0.  1.
         -3    1    1    2    0  502 -0.35014028234E+02  0.12666612205E+02 -0.45138688459E+03  0.45292002033E+03  0.00000000000E+00 0. -1.
<mgrwt>
<rscale>  1 0.30000000E+03</rscale>
<asrwt>0</asrwt>
<pdfrwt beam="1">  1       21 0.51391508E-02 0.30000000E+03</pdfrwt>
<pdfrwt beam="2">0</pdfrwt>
<totfact> 0.27486897E+04</totfact>
</mgrwt>
</event>
<event>
 6    1  0.1198667E-001  0.3000000E+03  0.7818608E-02  0.1093470E+00
         21   -1    0    0  501  502  0.00000000000E+00  0.00000000000E+00  0.23841400625E+01  0.23841400625E+01  0.00000000000E+00 0. -1.
         13   -1    0    0    0    0 -0.00000000000E+00 -0.00000000000E+00 -0.10000000000E+04  0.10000000000E+04  0.00000000000E+00 0.  1.
    9000005    2    1    2  501    0  0.32545002472E+02 -0.20583830705E+02 -0.80662506699E+03  0.80754996888E+03  0.31752570645E+01 0.  0.
         13    1    3    3    0    0  0.11687207018E+02 -0.84690530623E+01 -0.27653740326E+03  0.27691379718E+03  0.00000000000E+00 0.  1.
          1    1    3    3  501    0  0.20857795455E+02 -0.12114777643E+02 -0.53008766373E+03  0.53063617170E+03  0.00000000000E+00 0.  1.
         -1    1    1    2    0  502 -0.32545002472E+02  0.20583830705E+02 -0.19099079294E+03  0.19483417119E+03  0.00000000000E+00 0. -1.
<mgrwt>
<rscale>  1 0.30000000E+03</rscale>
<asrwt>0</asrwt>
<pdfrwt beam="1">  1       21 0.86696185E-02 0.30000000E+03</pdfrwt>
<pdfrwt beam="2">0</pdfrwt>
<totfact> 0.11087835E+04</totfact>
</mgrwt>
</event>
<event>
 6    1  0.1198667E-001  0.3000000E+03  0.7818608E-02  0.1093470E+00
         21   -1    0    0  501  502  0.00000000000E+00  0.00000000000E+00  0.16612930300E+01  0.16612930300E+01  0.00000000000E+00 0. -1.
         13   -1    0    0    0    0 -0.00000000000E+00 -0.00000000000E+00 -0.10000000000E+04  0.10000000000E+04  0.00000000000E+00 0.  1.
    9000005    2    1    2  501    0  0.10071753896E+02 -0.29129991320E+02 -0.82642238615E+03  0.82700386265E+03  0.33811087163E+01 0.  0.
         13    1    3    3    0    0  0.81030167007E+01 -0.26548080245E+02 -0.74327024851E+03  0.74378835818E+03  0.00000000000E+00 0.  1.
          3    1    3    3  501    0  0.19687371951E+01 -0.25819110743E+01 -0.83152137642E+02  0.83215504477E+02  0.00000000000E+00 0.  1.
         -1    1    1    2    0  502 -0.10071753896E+02  0.29129991320E+02 -0.17191632082E+03  0.17465743038E+03  0.00000000000E+00 0. -1.
<mgrwt>
<rscale>  1 0.30000000E+03</rscale>
<asrwt>0</asrwt>
<pdfrwt beam="1">  1       21 0.60410783E-02 0.30000000E+03</pdfrwt>
<pdfrwt beam="2">0</pdfrwt>
<totfact> 0.20825128E+04</totfact>
</mgrwt>
</event>
<event>
 6    1  0.1198667E-001  0.3000000E+03  0.7818608E-02  0.1093470E+00
         21   -1    0    0  501  502  0.00000000000E+00  0.00000000000E+00  0.52713986258E+01  0.52713986258E+01  0.00000000000E+00 0. -1.
         13   -1    0    0    0    0 -0.00000000000E+00 -0.00000000000E+00 -0.10000000000E+04  0.10000000000E+04  0.00000000000E+00 0.  1.
    9000005    2    1    2  501    0 -0.39773099921E+02  0.32965195297E+02 -0.85041383805E+03  0.85198945418E+03  0.37054712009E+01 0.  0.
         13    1    3    3    0    0 -0.18764459727E+02  0.17832827643E+02 -0.41543122655E+03  0.41623697419E+03  0.00000000000E+00 0.  1.
          1    1    3    3  501    0 -0.21008640194E+02  0.15132367654E+02 -0.43498261151E+03  0.43575248000E+03  0.00000000000E+00 0.  1.
         -3    1    1    2    0  502  0.39773099921E+02 -0.32965195297E+02 -0.14431476332E+03  0.15328194444E+03  0.00000000000E+00 0. -1.
<mgrwt>
<rscale>  1 0.30000000E+03</rscale>
<asrwt>0</asrwt>
<pdfrwt beam="1">  1       21 0.19168763E-01 0.30000000E+03</pdfrwt>
<pdfrwt beam="2">0</pdfrwt>
<totfact> 0.26010988E+03</totfact>
</mgrwt>
</event>
<event>
 6    1  0.1198667E-001  0.3000000E+03  0.7818608E-02  0.1093470E+00
         21   -1    0    0  501  502  0.00000000000E+00  0.00000000000E+00  0.12621481453E+01  0.12621481453E+01  0.00000000000E+00 0. -1.
         13   -1    0    0    0    0 -0.00000000000E+00 -0.00000000000E+00 -0.10000000000E+04  0.10000000000E+04  0.00000000000E+00 0.  1.
    9000005    2    1    2  501    0  0.31287457979E+02  0.71825061077E+01 -0.71223288608E+03  0.71296440477E+03  0.34734761853E+01 0.  0.
         13    1    3    3    0    0  0.12035760604E+02  0.21589159598E+01 -0.30687824519E+03  0.30712176384E+03  0.00000000000E+00 0.  1.
          1    1    3    3  501    0  0.19251697375E+02  0.50235901479E+01 -0.40535464088E+03  0.40584264093E+03  0.00000000000E+00 0.  1.
         -3    1    1    2    0  502 -0.31287457979E+02 -0.71825061077E+01 -0.28650496578E+03  0.28829774338E+03  0.00000000000E+00 0. -1.
<mgrwt>
<rscale>  1 0.30000000E+03</rscale>
<asrwt>0</asrwt>
<pdfrwt beam="1">  1       21 0.45896393E-02 0.30000000E+03</pdfrwt>
<pdfrwt beam="2">0</pdfrwt>
<totfact> 0.33323194E+04</totfact>
</mgrwt>
</event>
<event>
 6    1  0.1198667E-001  0.3000000E+03  0.7818608E-02  0.1093470E+00
         21   -1    0    0  501  502  0.00000000000E+00  0.00000000000E+00  0.18274881229E+01  0.18274881229E+01  0.00000000000E+00 0. -1.
         13   -1    0    0    0    0 -0.00000000000E+00 -0.00000000000E+00 -0.10000000000E+04  0.10000000000E+04  0.00000000000E+00 0.  1.
    9000005    2    1    2  501    0 -0.31967313650E+02  0.50481975870E+01 -0.82603977039E+03  0.82667876808E+03  0.29478614775E+01 0.  0.
         13    1    3    3    0    0 -0.95343268033E+01  0.52989620981E+00 -0.26769894520E+03  0.26786920211E+03  0.00000000000E+00 0.  1.
          3    1    3    3  501    0 -0.22432986847E+02  0.45183013772E+01 -0.55834082518E+03  0.55880956596E+03  0.00000000000E+00 0.  1.
         -1    1    1    2    0  502  0.31967313650E+02 -0.50481975870E+01 -0.17213274149E+03  0.17514872005E+03  0.00000000000E+00 0. -1.
<mgrwt>
<rscale>  1 0.30000000E+03</rscale>
<asrwt>0</asrwt>
<pdfrwt beam="1">  1       21 0.66454254E-02 0.30000000E+03</pdfrwt>
<pdfrwt beam="2">0</pdfrwt>
<totfact> 0.17659900E+04</totfact>
</mgrwt>
</event>
<event>
 6    1  0.1198667E-001  0.3000000E+03  0.7818608E-02  0.1093470E+00
         21   -1    0    0  501  502  0.00000000000E+00  0.00000000000E+00  0.21836469631E+02  0.21836469631E+02  0.00000000000E+00 0. -1.
         13   -1    0    0    0    0 -0.00000000000E+00 -0.00000000000E+00 -0.10000000000E+04  0.10000000000E+04  0.00000000000E+00 0.  1.
    9000005    2    1    2  501    0  0.44459002622E+02  0.86982294009E+01 -0.97538954429E+03  0.97644971928E+03  0.41266280932E+01 0.  0.
         13    1    3    3    0    0  0.70129197938E+01  0.39939056481E+00 -0.12795711282E+03  0.12814976894E+03  0.00000000000E+00 0.  1.
          1    1    3    3  501    0  0.37446082828E+02  0.82988388361E+01 -0.84743243147E+03  0.84829995034E+03  0.00000000000E+00 0.  1.
         -3    1    1    2    0  502 -0.44459002622E+02 -0.86982294009E+01 -0.27739860796E+01  0.45386750353E+02  0.00000000000E+00 0. -1.
<mgrwt>
<rscale>  1 0.30000000E+03</rscale>
<asrwt>0</asrwt>
<pdfrwt beam="1">  1       21 0.79405512E-01 0.30000000E+03</pdfrwt>
<pdfrwt beam="2">0</pdfrwt>
<totfact> 0.13102385E+02</totfact>
</mgrwt>
</event>
<event>
 6    1  0.1198667E-001  0.3000000E+03  0.7818608E-02  0.1093470E+00
         21   -1    0    0  501  502  0.00000000000E+00  0.00000000000E+00  0.63420277248E+01  0.63420277248E+01  0.00000000000E+00 0. -1.
         13   -1    0    0    0    0 -0.00000000000E+00 -0.00000000000E+00 -0.10000000000E+04  0.10000000000E+04  0.00000000000E+00 0.  1.
    9000005    2    1    2  501    0  0.61315534711E+02  0.50665195362E+02 -0.51356460807E+03  0.51970438515E+03  0.41814426711E+01 0.  0.
         13    1    3    3    0    0  0.48145136953E+02  0.40336611812E+02 -0.39434885607E+03  0.39931944198E+03  0.00000000000E+00 0.  1.
          3    1    3    3  501    0  0.13170397758E+02  0.10328583550E+02 -0.11921575201E+03  0.12038494317E+03  0.00000000000E+00 0.  1.
         -1    1    1    2    0  502 -0.61315534711E+02 -0.50665195362E+02 -0.48009336420E+03  0.48663764257E+03  0.00000000000E+00 0. -1.
<mgrwt>
<rscale>  1 0.30000000E+03</rscale>
<asrwt>0</asrwt>
<pdfrwt beam="1">  1       21 0.23061968E-01 0.30000000E+03</pdfrwt>
<pdfrwt beam="2">0</pdfrwt>
<totfact> 0.18247516E+03</totfact>
</mgrwt>
</event>
<event>
 6    1  0.1198667E-001  0.3000000E+03  0.7818608E-02  0.1093470E+00
         21   -1    0    0  501  502  0.00000000000E+00  0.00000000000E+00  0.32223409709E+02  0.32223409709E+02  0.00000000000E+00 0. -1.
         13   -1    0    0    0    0 -0.00000000000E+00 -0.00000000000E+00 -0.10000000000E+04  0.10000000000E+04  0.00000000000E+00 0.  1.
    9000005    2    1    2  501    0 -0.17329057290E+02 -0.26559341561E+02 -0.99187866538E+03  0.99239120070E+03  0.33635628017E+01 0.  0.
         13    1    3    3    0    0 -0.15557147898E+02 -0.24479154319E+02 -0.87495476943E+03  0.87543537877E+03  0.00000000000E+00 0.  1.
          1    1    3    3  501    0 -0.17719093915E+01 -0.20801872422E+01 -0.11692389594E+03  0.11695582193E+03  0.00000000000E+00 0.  1.
         -3    1    1    2    0  502  0.17329057290E+02  0.26559341561E+02  0.24102075086E+02  0.39832209004E+02  0.00000000000E+00 0. -1.
<mgrwt>
<rscale>  1 0.30000000E+03</rscale>
<asrwt>0</asrwt>
<pdfrwt beam="1">  1       21 0.11717628E+00 0.30000000E+03</pdfrwt>
<pdfrwt beam="2">0</pdfrwt>
<totfact> 0.48445963E+01</totfact>
</mgrwt>
</event>
<event>
 6    1  0.1198667E-001  0.3000000E+03  0.7818608E-02  0.1093470E+00
         21   -1    0    0  501  502  0.00000000000E+00  0.00000000000E+00  0.11787483630E+01  0.11787483630E+01  0.00000000000E+00 0. -1.
         13   -1    0    0    0    0 -0.00000000000E+00 -0.00000000000E+00 -0.10000000000E+04  0.10000000000E+04  0.00000000000E+00 0.  1.
    9000005    2    1    2  501    0 -0.27597004919E+02  0.14654002524E+02 -0.70522603959E+03  0.70592549604E+03  0.32717843557E+01 0.  0.
         13    1    3    3    0    0 -0.86869576154E+01  0.44366560080E+01 -0.25547805186E+03  0.25566419798E+03  0.00000000000E+00 0.  1.
          1    1    3    3  501    0 -0.18910047304E+02  0.10217346516E+02 -0.44974798773E+03  0.45026129806E+03  0.00000000000E+00 0.  1.
         -1    1    1    2    0  502  0.27597004919E+02 -0.14654002524E+02 -0.29359521204E+03  0.29525325232E+03  0.00000000000E+00 0. -1.
<mgrwt>
<rscale>  1 0.30000000E+03</rscale>
<asrwt>0</asrwt>
<pdfrwt beam="1">  1       21 0.42863667E-02 0.30000000E+03</pdfrwt>
<pdfrwt beam="2">0</pdfrwt>
<totfact> 0.37417134E+04</totfact>
</mgrwt>
</event>
<event>
 6    1  0.1198667E-001  0.3000000E+03  0.7818608E-02  0.1093470E+00
         21   -1    0    0  501  502  0.00000000000E+00  0.00000000000E+00  0.28142936541E+01  0.28142936541E+01  0.00000000000E+00 0. -1.
         13   -1    0    0    0    0 -0.00000000000E+00 -0.00000000000E+00 -0.10000000000E+04  0.10000000000E+04  0.00000000000E+00 0.  1.
    9000005    2    1    2  501    0 -0.17793300705E+02 -0.46815085356E+02 -0.66301533377E+03  0.66491180524E+03  0.31815358771E+01 0.  0.
         13    1    3    3    0    0 -0.89152775062E+01 -0.27673625797E+02 -0.39041300247E+03  0.39149409221E+03  0.00000000000E+00 0.  1.
          1    1    3    3  501    0 -0.88780231991E+01 -0.19141459559E+02 -0.27260233130E+03  0.27341771303E+03  0.00000000000E+00 0.  1.
         -3    1    1    2    0  502  0.17793300705E+02  0.46815085356E+02 -0.33417037258E+03  0.33790248841E+03  0.00000000000E+00 0. -1.
<mgrwt>
<rscale>  1 0.30000000E+03</rscale>
<asrwt>0</asrwt>
<pdfrwt beam="1">  1       21 0.10233817E-01 0.30000000E+03</pdfrwt>
<pdfrwt beam="2">0</pdfrwt>
<totfact> 0.82548954E+03</totfact>
</mgrwt>
</event>
<event>
 6    1  0.1198667E-001  0.3000000E+03  0.7818608E-02  0.1093470E+00
         21   -1    0    0  501  502  0.00000000000E+00  0.00000000000E+00  0.27143061040E+01  0.27143061040E+01  0.00000000000E+00 0. -1.
         13   -1    0    0    0    0 -0.00000000000E+00 -0.00000000000E+00 -0.10000000000E+04  0.10000000000E+04  0.00000000000E+00 0.  1.
    9000005    2    1    2  501    0 -0.32165302392E+02  0.40803874882E+02 -0.52841611278E+03  0.53097470952E+03  0.33152718826E+01 0.  0.
         13    1    3    3    0    0 -0.40878137815E+01  0.54887031818E+01 -0.59065437712E+02  0.59460592128E+02  0.00000000000E+00 0.  1.
          3    1    3    3  501    0 -0.28077488611E+02  0.35315171700E+02 -0.46935067507E+03  0.47151411740E+03  0.00000000000E+00 0.  1.
         -3    1    1    2    0  502  0.32165302392E+02 -0.40803874882E+02 -0.46886958112E+03  0.47173959658E+03  0.00000000000E+00 0. -1.
<mgrwt>
<rscale>  1 0.30000000E+03</rscale>
<asrwt>0</asrwt>
<pdfrwt beam="1">  1       21 0.98702248E-02 0.30000000E+03</pdfrwt>
<pdfrwt beam="2">0</pdfrwt>
<totfact> 0.88062836E+03</totfact>
</mgrwt>
</event>
<event>
 6    1  0.1198667E-001  0.3000000E+03  0.7818608E-02  0.1093470E+00
         21   -1    0    0  501  502  0.00000000000E+00  0.00000000000E+00  0.12194598962E+01  0.12194598962E+01  0.00000000000E+00 0. -1.
         13   -1    0    0    0    0 -0.00000000000E+00 -0.00000000000E+00 -0.10000000000E+04  0.10000000000E+04  0.00000000000E+00 0.  1.
    9000005    2    1    2  501    0 -0.43087150231E+01  0.31799253792E+02 -0.69526529669E+03  0.69601254557E+03  0.31421720185E+01 0.  0.
         13    1    3    3    0    0 -0.44707734337E+00  0.66536658488E+01 -0.17188148882E+03  0.17201080590E+03  0.00000000000E+00 0.  1.
          1    1    3    3  501    0 -0.38616376798E+01  0.25145587943E+02 -0.52338380787E+03  0.52400173967E+03  0.00000000000E+00 0.  1.
         -1    1    1    2    0  502  0.43087150231E+01 -0.31799253792E+02 -0.30351524341E+03  0.30520691432E+03  0.00000000000E+00 0. -1.
<mgrwt>
<rscale>  1 0.30000000E+03</rscale>
<asrwt>0</asrwt>
<pdfrwt beam="1">  1       21 0.44344090E-02 0.30000000E+03</pdfrwt>
<pdfrwt beam="2">0</pdfrwt>
<totfact> 0.35327015E+04</totfact>
</mgrwt>
</event>
<event>
 6    1  0.1198667E-001  0.3000000E+03  0.7818608E-02  0.1093470E+00
         21   -1    0    0  501  502  0.00000000000E+00  0.00000000000E+00  0.13560654856E+01  0.13560654856E+01  0.00000000000E+00 0. -1.
         13   -1    0    0    0    0 -0.00000000000E+00 -0.00000000000E+00 -0.10000000000E+04  0.10000000000E+04  0.00000000000E+00 0.  1.
    9000005    2    1    2  501    0  0.24081207649E+02  0.26446635838E+02 -0.38653365538E+03  0.38820166166E+03  0.35964239269E+01 0.  0.
         13    1    3    3    0    0  0.20902178513E+01  0.19886532501E+01 -0.22268376653E+02  0.22454495122E+02  0.00000000000E+00 0.  1.
          1    1    3    3  501    0  0.21990989797E+02  0.24457982588E+02 -0.36426527873E+03  0.36574716654E+03  0.00000000000E+00 0.  1.
         -1    1    1    2    0  502 -0.24081207649E+02 -0.26446635838E+02 -0.61211027913E+03  0.61315440383E+03  0.00000000000E+00 0. -1.
<mgrwt>
<rscale>  1 0.30000000E+03</rscale>
<asrwt>0</asrwt>
<pdfrwt beam="1">  1       21 0.49311576E-02 0.30000000E+03</pdfrwt>
<pdfrwt beam="2">0</pdfrwt>
<totfact> 0.29493316E+04</totfact>
</mgrwt>
</event>
<event>
 6    1  0.1198667E-001  0.3000000E+03  0.7818608E-02  0.1093470E+00
         21   -1    0    0  501  502  0.00000000000E+00  0.00000000000E+00  0.19730460083E+01  0.19730460083E+01  0.00000000000E+00 0. -1.
         13   -1    0    0    0    0 -0.00000000000E+00 -0.00000000000E+00 -0.10000000000E+04  0.10000000000E+04  0.00000000000E+00 0.  1.
    9000005    2    1    2  501    0  0.12666503905E+02 -0.40715209784E+02 -0.36151006650E+03  0.36402954013E+03  0.31319767162E+01 0.  0.
         13    1    3    3    0    0  0.79007840971E+01 -0.20675811873E+02 -0.18132754891E+03  0.18267345615E+03  0.00000000000E+00 0.  1.
          3    1    3    3  501    0  0.47657198078E+01 -0.20039397911E+02 -0.18018251759E+03  0.18135608399E+03  0.00000000000E+00 0.  1.
         -1    1    1    2    0  502 -0.12666503905E+02  0.40715209784E+02 -0.63651688749E+03  0.63794350587E+03  0.00000000000E+00 0. -1.
<mgrwt>
<rscale>  1 0.30000000E+03</rscale>
<asrwt>0</asrwt>
<pdfrwt beam="1">  1       21 0.71747279E-02 0.30000000E+03</pdfrwt>
<pdfrwt beam="2">0</pdfrwt>
<totfact> 0.15456923E+04</totfact>
</mgrwt>
</event>
<event>
 6    1  0.1198667E-001  0.3000000E+03  0.7818608E-02  0.1093470E+00
         21   -1    0    0  501  502  0.00000000000E+00  0.00000000000E+00  0.29239249883E+01  0.29239249883E+01  0.00000000000E+00 0. -1.
         13   -1    0    0    0    0 -0.00000000000E+00 -0.00000000000E+00 -0.10000000000E+04  0.10000000000E+04  0.00000000000E+00 0.  1.
    9000005    2    1    2  501    0 -0.31563789450E+02  0.10968757900E+02 -0.89263075173E+03  0.89326348540E+03  0.36618258024E+01 0.  0.
         13    1    3    3    0    0 -0.67234921432E+00 -0.18189037870E+00 -0.29294903469E+02  0.29303182537E+02  0.00000000000E+00 0.  1.
          3    1    3    3  501    0 -0.30891440236E+02  0.11150648278E+02 -0.86333584826E+03  0.86396030287E+03  0.00000000000E+00 0.  1.
         -1    1    1    2    0  502  0.31563789450E+02 -0.10968757900E+02 -0.10444532328E+03  0.10966043958E+03  0.00000000000E+00 0. -1.
<mgrwt>
<rscale>  1 0.30000000E+03</rscale>
<asrwt>0</asrwt>
<pdfrwt beam="1">  1       21 0.10632477E-01 0.30000000E+03</pdfrwt>
<pdfrwt beam="2">0</pdfrwt>
<totfact> 0.77085757E+03</totfact>
</mgrwt>
</event>
<event>
 6    1  0.1198667E-001  0.3000000E+03  0.7818608E-02  0.1093470E+00
         21   -1    0    0  501  502  0.00000000000E+00  0.00000000000E+00  0.42025661880E+01  0.42025661880E+01  0.00000000000E+00 0. -1.
         13   -1    0    0    0    0 -0.00000000000E+00 -0.00000000000E+00 -0.10000000000E+04  0.10000000000E+04  0.00000000000E+00 0.  1.
    9000005    2    1    2  501    0  0.79881108125E+01  0.31540833224E+02 -0.93212131487E+03  0.93269534838E+03  0.34399396961E+01 0.  0.
         13    1    3    3    0    0  0.73543644157E+01  0.23570460969E+02 -0.68611720642E+03  0.68656134048E+03  0.00000000000E+00 0.  1.
          3    1    3    3  501    0  0.63374639678E+00  0.79703722543E+01 -0.24600410845E+03  0.24613400789E+03  0.00000000000E+00 0.  1.
         -3    1    1    2    0  502 -0.79881108125E+01 -0.31540833224E+02 -0.63676118947E+02  0.71507217810E+02  0.00000000000E+00 0. -1.
<mgrwt>
<rscale>  1 0.30000000E+03</rscale>
<asrwt>0</asrwt>
<pdfrwt beam="1">  1       21 0.15282091E-01 0.30000000E+03</pdfrwt>
<pdfrwt beam="2">0</pdfrwt>
<totfact> 0.39782910E+03</totfact>
</mgrwt>
</event>
<event>
 6    1  0.1198667E-001  0.3000000E+03  0.7818608E-02  0.1093470E+00
         21   -1    0    0  501  502  0.00000000000E+00  0.00000000000E+00  0.28611859172E+01  0.28611859172E+01  0.00000000000E+00 0. -1.
         13   -1    0    0    0    0 -0.00000000000E+00 -0.00000000000E+00 -0.10000000000E+04  0.10000000000E+04  0.00000000000E+00 0.  1.
    9000005    2    1    2  501    0 -0.21169068682E+02  0.23661506292E+02 -0.90166281716E+03  0.90224477405E+03  0.64652996947E+01 0.  0.
         13    1    3    3    0    0 -0.11560889157E+02  0.17531844619E+02 -0.57841912943E+03  0.57880023240E+03  0.00000000000E+00 0.  1.
          1    1    3    3  501    0 -0.96081795251E+01  0.61296616735E+01 -0.32324368773E+03  0.32344454165E+03  0.00000000000E+00 0.  1.
         -1    1    1    2    0  502  0.21169068682E+02 -0.23661506292E+02 -0.95475996919E+02  0.10061641187E+03  0.00000000000E+00 0. -1.
<mgrwt>
<rscale>  1 0.30000000E+03</rscale>
<asrwt>0</asrwt>
<pdfrwt beam="1">  1       21 0.10404334E-01 0.30000000E+03</pdfrwt>
<pdfrwt beam="2">0</pdfrwt>
<totfact> 0.80142429E+03</totfact>
</mgrwt>
</event>
<event>
 6    1  0.1198667E-001  0.3000000E+03  0.7818608E-02  0.1093470E+00
         21   -1    0    0  501  502  0.00000000000E+00  0.00000000000E+00  0.23748561070E+01  0.23748561070E+01  0.00000000000E+00 0. -1.
         13   -1    0    0    0    0 -0.00000000000E+00 -0.00000000000E+00 -0.10000000000E+04  0.10000000000E+04  0.00000000000E+00 0.  1.
    9000005    2    1    2  501    0 -0.11106361539E+02 -0.36185007933E+02 -0.18445171569E+03  0.18832096943E+03  0.31058079964E+01 0.  0.
         13    1    3    3    0    0 -0.27618482841E+01 -0.52450446979E+01 -0.27692149718E+02  0.28319488975E+02  0.00000000000E+00 0.  1.
          1    1    3    3  501    0 -0.83445132550E+01 -0.30939963235E+02 -0.15675956597E+03  0.16000148046E+03  0.00000000000E+00 0.  1.
         -3    1    1    2    0  502  0.11106361539E+02  0.36185007933E+02 -0.81317342821E+03  0.81405388667E+03  0.00000000000E+00 0. -1.
<mgrwt>
<rscale>  1 0.30000000E+03</rscale>
<asrwt>0</asrwt>
<pdfrwt beam="1">  1       21 0.86358586E-02 0.30000000E+03</pdfrwt>
<pdfrwt beam="2">0</pdfrwt>
<totfact> 0.11164487E+04</totfact>
</mgrwt>
</event>
<event>
 6    1  0.1198667E-001  0.3000000E+03  0.7818608E-02  0.1093470E+00
         21   -1    0    0  501  502  0.00000000000E+00  0.00000000000E+00  0.13234872595E+02  0.13234872595E+02  0.00000000000E+00 0. -1.
         13   -1    0    0    0    0 -0.00000000000E+00 -0.00000000000E+00 -0.10000000000E+04  0.10000000000E+04  0.00000000000E+00 0.  1.
    9000005    2    1    2  501    0 -0.50706242772E+02 -0.50092280098E+01 -0.94758656356E+03  0.94896065314E+03  0.31321486996E+01 0.  0.
         13    1    3    3    0    0 -0.19928834018E+02 -0.13779878025E+01 -0.39797210652E+03  0.39847315448E+03  0.00000000000E+00 0.  1.
          3    1    3    3  501    0 -0.30777408754E+02 -0.36312402073E+01 -0.54961445704E+03  0.55048749866E+03  0.00000000000E+00 0.  1.
         -1    1    1    2    0  502  0.50706242772E+02  0.50092280098E+01 -0.39178563849E+02  0.64274219455E+02  0.00000000000E+00 0. -1.
<mgrwt>
<rscale>  1 0.30000000E+03</rscale>
<asrwt>0</asrwt>
<pdfrwt beam="1">  1       21 0.48126911E-01 0.30000000E+03</pdfrwt>
<pdfrwt beam="2">0</pdfrwt>
<totfact> 0.40802040E+02</totfact>
</mgrwt>
</event>
<event>
 6    1  0.1198667E-001  0.3000000E+03  0.7818608E-02  0.1093470E+00
         21   -1    0    0  501  502  0.00000000000E+00  0.00000000000E+00  0.63013641631E+01  0.63013641631E+01  0.00000000000E+00 0. -1.
         13   -1    0    0    0    0 -0.00000000000E+00 -0.00000000000E+00 -0.10000000000E+04  0.10000000000E+04  0.00000000000E+00 0.  1.
    9000005    2    1    2  501    0  0.69374955939E+02  0.24051462909E+02 -0.68763675713E+03  0.69155506796E+03  0.35699968226E+01 0.  0.
         13    1    3    3    0    0  0.30482849133E+02  0.92057216836E+01 -0.28665462355E+03  0.28841779177E+03  0.00000000000E+00 0.  1.
          1    1    3    3  501    0  0.38892106806E+02  0.14845741225E+02 -0.40098213358E+03  0.40313727619E+03  0.00000000000E+00 0.  1.
         -3    1    1    2    0  502 -0.69374955939E+02 -0.24051462909E+02 -0.30606187871E+03  0.31474629621E+03  0.00000000000E+00 0. -1.
<mgrwt>
<rscale>  1 0.30000000E+03</rscale>
<asrwt>0</asrwt>
<pdfrwt beam="1">  1       21 0.22914100E-01 0.30000000E+03</pdfrwt>
<pdfrwt beam="2">0</pdfrwt>
<totfact> 0.18476031E+03</totfact>
</mgrwt>
</event>
<event>
 6    1  0.1198667E-001  0.3000000E+03  0.7818608E-02  0.1093470E+00
         21   -1    0    0  501  502  0.00000000000E+00  0.00000000000E+00  0.11736408417E+01  0.11736408417E+01  0.00000000000E+00 0. -1.
         13   -1    0    0    0    0 -0.00000000000E+00 -0.00000000000E+00 -0.10000000000E+04  0.10000000000E+04  0.00000000000E+00 0.  1.
    9000005    2    1    2  501    0  0.33420641720E+02 -0.20391472950E+01 -0.60139125492E+03  0.60233061471E+03  0.31033055617E+01 0.  0.
         13    1    3    3    0    0  0.30156289874E+02 -0.26007643295E+01 -0.53202577249E+03  0.53288609326E+03  0.00000000000E+00 0.  1.
          1    1    3    3  501    0  0.32643518459E+01  0.56161703454E+00 -0.69365482430E+02  0.69444521449E+02  0.00000000000E+00 0.  1.
         -3    1    1    2    0  502 -0.33420641720E+02  0.20391472950E+01 -0.39743510424E+03  0.39884302613E+03  0.00000000000E+00 0. -1.
<mgrwt>
<rscale>  1 0.30000000E+03</rscale>
<asrwt>0</asrwt>
<pdfrwt beam="1">  1       21 0.42677939E-02 0.30000000E+03</pdfrwt>
<pdfrwt beam="2">0</pdfrwt>
<totfact> 0.37692836E+04</totfact>
</mgrwt>
</event>
<event>
 6    1  0.1198667E-001  0.3000000E+03  0.7818608E-02  0.1093470E+00
         21   -1    0    0  501  502  0.00000000000E+00  0.00000000000E+00  0.48255155986E+01  0.48255155986E+01  0.00000000000E+00 0. -1.
         13   -1    0    0    0    0 -0.00000000000E+00 -0.00000000000E+00 -0.10000000000E+04  0.10000000000E+04  0.00000000000E+00 0.  1.
    9000005    2    1    2  501    0  0.41649522972E+02 -0.29441644859E+01 -0.89906261240E+03  0.90003599891E+03  0.28048973728E+01 0.  0.
         13    1    3    3    0    0  0.13623436377E+01  0.38295647153E+00 -0.27369047420E+02  0.27405608779E+02  0.00000000000E+00 0.  1.
          1    1    3    3  501    0  0.40287179334E+02 -0.33271209574E+01 -0.87169356498E+03  0.87263039013E+03  0.00000000000E+00 0.  1.
         -3    1    1    2    0  502 -0.41649522972E+02  0.29441644859E+01 -0.96111872001E+02  0.10478951669E+03  0.00000000000E+00 0. -1.
<mgrwt>
<rscale>  1 0.30000000E+03</rscale>
<asrwt>0</asrwt>
<pdfrwt beam="1">  1       21 0.17547366E-01 0.30000000E+03</pdfrwt>
<pdfrwt beam="2">0</pdfrwt>
<totfact> 0.30733021E+03</totfact>
</mgrwt>
</event>
<event>
 6    1  0.1198667E-001  0.3000000E+03  0.7818608E-02  0.1093470E+00
         21   -1    0    0  501  502  0.00000000000E+00  0.00000000000E+00  0.16581880820E+01  0.16581880820E+01  0.00000000000E+00 0. -1.
         13   -1    0    0    0    0 -0.00000000000E+00 -0.00000000000E+00 -0.10000000000E+04  0.10000000000E+04  0.00000000000E+00 0.  1.
    9000005    2    1    2  501    0  0.37088596185E+02 -0.65641484477E+01 -0.31076310491E+03  0.31304862502E+03  0.26612479875E+01 0.  0.
         13    1    3    3    0    0  0.14009843883E+01 -0.80039613783E-01 -0.82141455463E+01  0.83331477037E+01  0.00000000000E+00 0.  1.
          3    1    3    3  501    0  0.35687611797E+02 -0.64841088339E+01 -0.30254895937E+03  0.30471547732E+03  0.00000000000E+00 0.  1.
         -3    1    1    2    0  502 -0.37088596185E+02  0.65641484477E+01 -0.68757870700E+03  0.68860956306E+03  0.00000000000E+00 0. -1.
<mgrwt>
<rscale>  1 0.30000000E+03</rscale>
<asrwt>0</asrwt>
<pdfrwt beam="1">  1       21 0.60297876E-02 0.30000000E+03</pdfrwt>
<pdfrwt beam="2">0</pdfrwt>
<totfact> 0.20892442E+04</totfact>
</mgrwt>
</event>
<event>
 6    1  0.1198667E-001  0.3000000E+03  0.7818608E-02  0.1093470E+00
         21   -1    0    0  501  502  0.00000000000E+00  0.00000000000E+00  0.21204443645E+01  0.21204443645E+01  0.00000000000E+00 0. -1.
         13   -1    0    0    0    0 -0.00000000000E+00 -0.00000000000E+00 -0.10000000000E+04  0.10000000000E+04  0.00000000000E+00 0.  1.
    9000005    2    1    2  501    0  0.97148471787E+01 -0.44083567610E+02 -0.59540961077E+03  0.59712686947E+03  0.31866051108E+01 0.  0.
         13    1    3    3    0    0  0.52885552161E+01 -0.16977711852E+02 -0.23893837402E+03  0.23959916129E+03  0.00000000000E+00 0.  1.
          1    1    3    3  501    0  0.44262919626E+01 -0.27105855758E+02 -0.35647123676E+03  0.35752770817E+03  0.00000000000E+00 0.  1.
         -3    1    1    2    0  502 -0.97148471787E+01  0.44083567610E+02 -0.40246994486E+03  0.40499357490E+03  0.00000000000E+00 0. -1.
<mgrwt>
<rscale>  1 0.30000000E+03</rscale>
<asrwt>0</asrwt>
<pdfrwt beam="1">  1       21 0.77107230E-02 0.30000000E+03</pdfrwt>
<pdfrwt beam="2">0</pdfrwt>
<totfact> 0.13626645E+04</totfact>
</mgrwt>
</event>
<event>
 6    1  0.1198667E-001  0.3000000E+03  0.7818608E-02  0.1093470E+00
         21   -1    0    0  501  502  0.00000000000E+00  0.00000000000E+00  0.28979033272E+01  0.28979033272E+01  0.00000000000E+00 0. -1.
         13   -1    0    0    0    0 -0.00000000000E+00 -0.00000000000E+00 -0.10000000000E+04  0.10000000000E+04  0.00000000000E+00 0.  1.
    9000005    2    1    2  501    0 -0.20477616535E+01 -0.36743288598E+02 -0.86430031926E+03  0.86509160932E+03  0.37667032125E+01 0.  0.
         13    1    3    3    0    0  0.64753327873E+00 -0.20516258125E+01 -0.41224366399E+02  0.41280465753E+02  0.00000000000E+00 0.  1.
          1    1    3    3  501    0 -0.26952949322E+01 -0.34691662785E+02 -0.82307595286E+03  0.82381114357E+03  0.00000000000E+00 0.  1.
         -3    1    1    2    0  502  0.20477616535E+01  0.36743288598E+02 -0.13280177741E+03  0.13780629401E+03  0.00000000000E+00 0. -1.
<mgrwt>
<rscale>  1 0.30000000E+03</rscale>
<asrwt>0</asrwt>
<pdfrwt beam="1">  1       21 0.10537853E-01 0.30000000E+03</pdfrwt>
<pdfrwt beam="2">0</pdfrwt>
<totfact> 0.78331704E+03</totfact>
</mgrwt>
</event>
<event>
 6    1  0.1198667E-001  0.3000000E+03  0.7818608E-02  0.1093470E+00
         21   -1    0    0  501  502  0.00000000000E+00  0.00000000000E+00  0.98772199975E+00  0.98772199975E+00  0.00000000000E+00 0. -1.
         13   -1    0    0    0    0 -0.00000000000E+00 -0.00000000000E+00 -0.10000000000E+04  0.10000000000E+04  0.00000000000E+00 0.  1.
    9000005    2    1    2  501    0 -0.75634047909E+01  0.30097645253E+02 -0.57228855684E+03  0.57313703830E+03  0.29663174346E+01 0.  0.
         13    1    3    3    0    0 -0.45943629220E+01  0.15348342428E+02 -0.27119933075E+03  0.27167214945E+03  0.00000000000E+00 0.  1.
          1    1    3    3  501    0 -0.29690418689E+01  0.14749302825E+02 -0.30108922609E+03  0.30146488885E+03  0.00000000000E+00 0.  1.
         -1    1    1    2    0  502  0.75634047909E+01 -0.30097645253E+02 -0.42672372116E+03  0.42785068370E+03  0.00000000000E+00 0. -1.
<mgrwt>
<rscale>  1 0.30000000E+03</rscale>
<asrwt>0</asrwt>
<pdfrwt beam="1">  1       21 0.35917239E-02 0.30000000E+03</pdfrwt>
<pdfrwt beam="2">0</pdfrwt>
<totfact> 0.50384393E+04</totfact>
</mgrwt>
</event>
<event>
 6    1  0.1198667E-001  0.3000000E+03  0.7818608E-02  0.1093470E+00
         21   -1    0    0  501  502  0.00000000000E+00  0.00000000000E+00  0.17961596512E+01  0.17961596512E+01  0.00000000000E+00 0. -1.
         13   -1    0    0    0    0 -0.00000000000E+00 -0.00000000000E+00 -0.10000000000E+04  0.10000000000E+04  0.00000000000E+00 0.  1.
    9000005    2    1    2  501    0  0.30049580114E+02  0.18803704454E+02 -0.22675503482E+03  0.22953337011E+03  0.33414980541E+01 0.  0.
         13    1    3    3    0    0  0.12049226299E+02  0.56338337675E+01 -0.84874992824E+02  0.85910932624E+02  0.00000000000E+00 0.  1.
          1    1    3    3  501    0  0.18000353815E+02  0.13169870686E+02 -0.14188004200E+03  0.14362243748E+03  0.00000000000E+00 0.  1.
         -1    1    1    2    0  502 -0.30049580114E+02 -0.18803704454E+02 -0.77144880553E+03  0.77226278954E+03  0.00000000000E+00 0. -1.
<mgrwt>
<rscale>  1 0.30000000E+03</rscale>
<asrwt>0</asrwt>
<pdfrwt beam="1">  1       21 0.65315034E-02 0.30000000E+03</pdfrwt>
<pdfrwt beam="2">0</pdfrwt>
<totfact> 0.18197052E+04</totfact>
</mgrwt>
</event>
<event>
 6    1  0.1198667E-001  0.3000000E+03  0.7818608E-02  0.1093470E+00
         21   -1    0    0  501  502  0.00000000000E+00  0.00000000000E+00  0.12108318919E+01  0.12108318919E+01  0.00000000000E+00 0. -1.
         13   -1    0    0    0    0 -0.00000000000E+00 -0.00000000000E+00 -0.10000000000E+04  0.10000000000E+04  0.00000000000E+00 0.  1.
    9000005    2    1    2  501    0  0.21665216261E+02 -0.23928193029E+02 -0.68464389606E+03  0.68541154125E+03  0.31267322756E+01 0.  0.
         13    1    3    3    0    0  0.13860365097E+02 -0.13048722856E+02 -0.39634025216E+03  0.39679714512E+03  0.00000000000E+00 0.  1.
          3    1    3    3  501    0  0.78048511638E+01 -0.10879470173E+02 -0.28830364390E+03  0.28861439614E+03  0.00000000000E+00 0.  1.
         -1    1    1    2    0  502 -0.21665216261E+02  0.23928193029E+02 -0.31414527205E+03  0.31579929064E+03  0.00000000000E+00 0. -1.
<mgrwt>
<rscale>  1 0.30000000E+03</rscale>
<asrwt>0</asrwt>
<pdfrwt beam="1">  1       21 0.44030343E-02 0.30000000E+03</pdfrwt>
<pdfrwt beam="2">0</pdfrwt>
<totfact> 0.35754625E+04</totfact>
</mgrwt>
</event>
<event>
 6    1  0.1198667E-001  0.3000000E+03  0.7818608E-02  0.1093470E+00
         21   -1    0    0  501  502  0.00000000000E+00  0.00000000000E+00  0.28978521850E+01  0.28978521850E+01  0.00000000000E+00 0. -1.
         13   -1    0    0    0    0 -0.00000000000E+00 -0.00000000000E+00 -0.10000000000E+04  0.10000000000E+04  0.00000000000E+00 0.  1.
    9000005    2    1    2  501    0 -0.47333883451E+02  0.22804362105E+02 -0.60610811455E+03  0.60838946254E+03  0.31868714254E+01 0.  0.
         13    1    3    3    0    0 -0.12896045157E+02  0.72760701015E+01 -0.18326938773E+03  0.18386657569E+03  0.00000000000E+00 0.  1.
          3    1    3    3  501    0 -0.34437838294E+02  0.15528292004E+02 -0.42283872682E+03  0.42452288684E+03  0.00000000000E+00 0.  1.
         -1    1    1    2    0  502  0.47333883451E+02 -0.22804362105E+02 -0.39099403327E+03  0.39450838965E+03  0.00000000000E+00 0. -1.
<mgrwt>
<rscale>  1 0.30000000E+03</rscale>
<asrwt>0</asrwt>
<pdfrwt beam="1">  1       21 0.10537667E-01 0.30000000E+03</pdfrwt>
<pdfrwt beam="2">0</pdfrwt>
<totfact> 0.78334183E+03</totfact>
</mgrwt>
</event>
<event>
 6    1  0.1198667E-001  0.3000000E+03  0.7818608E-02  0.1093470E+00
         21   -1    0    0  501  502  0.00000000000E+00  0.00000000000E+00  0.99027513269E+01  0.99027513269E+01  0.00000000000E+00 0. -1.
         13   -1    0    0    0    0 -0.00000000000E+00 -0.00000000000E+00 -0.10000000000E+04  0.10000000000E+04  0.00000000000E+00 0.  1.
    9000005    2    1    2  501    0 -0.29239947139E+02  0.94714748755E+02 -0.53800350576E+03  0.54706950865E+03  0.33788977889E+01 0.  0.
         13    1    3    3    0    0 -0.20250472265E+02  0.65998048098E+02 -0.36601882236E+03  0.37247228393E+03  0.00000000000E+00 0.  1.
          1    1    3    3  501    0 -0.89894748736E+01  0.28716700657E+02 -0.17198468340E+03  0.17459722472E+03  0.00000000000E+00 0.  1.
         -3    1    1    2    0  502  0.29239947139E+02 -0.94714748755E+02 -0.45209374292E+03  0.46283324267E+03  0.00000000000E+00 0. -1.
<mgrwt>
<rscale>  1 0.30000000E+03</rscale>
<asrwt>0</asrwt>
<pdfrwt beam="1">  1       21 0.36010081E-01 0.30000000E+03</pdfrwt>
<pdfrwt beam="2">0</pdfrwt>
<totfact> 0.75072702E+02</totfact>
</mgrwt>
</event>
<event>
 6    1  0.1198667E-001  0.3000000E+03  0.7818608E-02  0.1093470E+00
         21   -1    0    0  501  502  0.00000000000E+00  0.00000000000E+00  0.17387751745E+01  0.17387751745E+01  0.00000000000E+00 0. -1.
         13   -1    0    0    0    0 -0.00000000000E+00 -0.00000000000E+00 -0.10000000000E+04  0.10000000000E+04  0.00000000000E+00 0.  1.
    9000005    2    1    2  501    0 -0.38157849500E+02  0.12096245878E+02 -0.63752050126E+03  0.63878394289E+03  0.31930423844E+01 0.  0.
         13    1    3    3    0    0 -0.78165832859E+01  0.33245474304E+01 -0.11951207313E+03  0.11981355188E+03  0.00000000000E+00 0.  1.
          1    1    3    3  501    0 -0.30341266214E+02  0.87716984478E+01 -0.51800842813E+03  0.51897039100E+03  0.00000000000E+00 0.  1.
         -3    1    1    2    0  502  0.38157849500E+02 -0.12096245878E+02 -0.36074072357E+03  0.36295483229E+03  0.00000000000E+00 0. -1.
<mgrwt>
<rscale>  1 0.30000000E+03</rscale>
<asrwt>0</asrwt>
<pdfrwt beam="1">  1       21 0.63228321E-02 0.30000000E+03</pdfrwt>
<pdfrwt beam="2">0</pdfrwt>
<totfact> 0.19248665E+04</totfact>
</mgrwt>
</event>
<event>
 6    1  0.1198667E-001  0.3000000E+03  0.7818608E-02  0.1093470E+00
         21   -1    0    0  501  502  0.00000000000E+00  0.00000000000E+00  0.76912764511E+01  0.76912764511E+01  0.00000000000E+00 0. -1.
         13   -1    0    0    0    0 -0.00000000000E+00 -0.00000000000E+00 -0.10000000000E+04  0.10000000000E+04  0.00000000000E+00 0.  1.
    9000005    2    1    2  501    0  0.66796878068E+01 -0.70737843066E+02 -0.20123956072E+03  0.21343761354E+03  0.31294413940E+01 0.  0.
         13    1    3    3    0    0  0.15032617239E+01 -0.17725056238E+02 -0.54515105919E+02  0.57343998708E+02  0.00000000000E+00 0.  1.
          3    1    3    3  501    0  0.51764260829E+01 -0.53012786828E+02 -0.14672445480E+03  0.15609361483E+03  0.00000000000E+00 0.  1.
         -3    1    1    2    0  502 -0.66796878068E+01  0.70737843066E+02 -0.79106916283E+03  0.79425366292E+03  0.00000000000E+00 0. -1.
<mgrwt>
<rscale>  1 0.30000000E+03</rscale>
<asrwt>0</asrwt>
<pdfrwt beam="1">  1       21 0.27968337E-01 0.30000000E+03</pdfrwt>
<pdfrwt beam="2">0</pdfrwt>
<totfact> 0.12502008E+03</totfact>
</mgrwt>
</event>
<event>
 6    1  0.1198667E-001  0.3000000E+03  0.7818608E-02  0.1093470E+00
         21   -1    0    0  501  502  0.00000000000E+00  0.00000000000E+00  0.13714874855E+01  0.13714874855E+01  0.00000000000E+00 0. -1.
         13   -1    0    0    0    0 -0.00000000000E+00 -0.00000000000E+00 -0.10000000000E+04  0.10000000000E+04  0.00000000000E+00 0.  1.
    9000005    2    1    2  501    0 -0.25864606373E+00  0.33563023160E+02 -0.69954978473E+03  0.70041529660E+03  0.92272947693E+01 0.  0.
         13    1    3    3    0    0  0.14280236680E+01  0.10540872631E+02 -0.14747677225E+03  0.14785989179E+03  0.00000000000E+00 0.  1.
          3    1    3    3  501    0 -0.16866697317E+01  0.23022150528E+02 -0.55207301249E+03  0.55255540481E+03  0.00000000000E+00 0.  1.
         -3    1    1    2    0  502  0.25864606373E+00 -0.33563023160E+02 -0.29907872778E+03  0.30095619089E+03  0.00000000000E+00 0. -1.
<mgrwt>
<rscale>  1 0.30000000E+03</rscale>
<asrwt>0</asrwt>
<pdfrwt beam="1">  1       21 0.49872377E-02 0.30000000E+03</pdfrwt>
<pdfrwt beam="2">0</pdfrwt>
<totfact> 0.28930417E+04</totfact>
</mgrwt>
</event>
<event>
 6    1  0.1198667E-001  0.3000000E+03  0.7818608E-02  0.1093470E+00
         21   -1    0    0  501  502  0.00000000000E+00  0.00000000000E+00  0.15216381480E+01  0.15216381480E+01  0.00000000000E+00 0. -1.
         13   -1    0    0    0    0 -0.00000000000E+00 -0.00000000000E+00 -0.10000000000E+04  0.10000000000E+04  0.00000000000E+00 0.  1.
    9000005    2    1    2  501    0  0.12521476441E+02 -0.34896103477E+02 -0.65276703598E+03  0.65382802842E+03  0.34295880533E+01 0.  0.
         13    1    3    3    0    0  0.12413290517E+02 -0.31966805654E+02 -0.60514786355E+03  0.60611872039E+03  0.00000000000E+00 0.  1.
          1    1    3    3  501    0  0.10818592374E+00 -0.29292978230E+01 -0.47619172430E+02  0.47709308032E+02  0.00000000000E+00 0.  1.
         -1    1    1    2    0  502 -0.12521476441E+02  0.34896103477E+02 -0.34571132587E+03  0.34769360973E+03  0.00000000000E+00 0. -1.
<mgrwt>
<rscale>  1 0.30000000E+03</rscale>
<asrwt>0</asrwt>
<pdfrwt beam="1">  1       21 0.55332413E-02 0.30000000E+03</pdfrwt>
<pdfrwt beam="2">0</pdfrwt>
<totfact> 0.24222526E+04</totfact>
</mgrwt>
</event>
<event>
 6    1  0.1198667E-001  0.3000000E+03  0.7818608E-02  0.1093470E+00
         21   -1    0    0  501  502  0.00000000000E+00  0.00000000000E+00  0.11152016049E+01  0.11152016049E+01  0.00000000000E+00 0. -1.
         13   -1    0    0    0    0 -0.00000000000E+00 -0.00000000000E+00 -0.10000000000E+04  0.10000000000E+04  0.00000000000E+00 0.  1.
    9000005    2    1    2  501    0  0.29736753154E+02  0.93806033315E+01 -0.67538382352E+03  0.67611496937E+03  0.39840341129E+01 0.  0.
         13    1    3    3    0    0  0.27536961672E+02  0.75090352764E+01 -0.61640086456E+03  0.61706133868E+03  0.00000000000E+00 0.  1.
          1    1    3    3  501    0  0.21997914824E+01  0.18715680551E+01 -0.58982958966E+02  0.59053630692E+02  0.00000000000E+00 0.  1.
         -1    1    1    2    0  502 -0.29736753154E+02 -0.93806033315E+01 -0.32350097487E+03  0.32500023223E+03  0.00000000000E+00 0. -1.
<mgrwt>
<rscale>  1 0.30000000E+03</rscale>
<asrwt>0</asrwt>
<pdfrwt beam="1">  1       21 0.40552871E-02 0.30000000E+03</pdfrwt>
<pdfrwt beam="2">0</pdfrwt>
<totfact> 0.41086132E+04</totfact>
</mgrwt>
</event>
<event>
 6    1  0.1198667E-001  0.3000000E+03  0.7818608E-02  0.1093470E+00
         21   -1    0    0  501  502  0.00000000000E+00  0.00000000000E+00  0.22299270998E+01  0.22299270998E+01  0.00000000000E+00 0. -1.
         13   -1    0    0    0    0 -0.00000000000E+00 -0.00000000000E+00 -0.10000000000E+04  0.10000000000E+04  0.00000000000E+00 0.  1.
    9000005    2    1    2  501    0 -0.22021489251E+02 -0.40974910459E+02 -0.58266678869E+03  0.58452832806E+03  0.29816756393E+01 0.  0.
         13    1    3    3    0    0 -0.13087210418E+02 -0.25683099437E+02 -0.34434309879E+03  0.34554748785E+03  0.00000000000E+00 0.  1.
          3    1    3    3  501    0 -0.89342788333E+01 -0.15291811022E+02 -0.23832368990E+03  0.23898084022E+03  0.00000000000E+00 0.  1.
         -1    1    1    2    0  502  0.22021489251E+02  0.40974910459E+02 -0.41510328421E+03  0.41770159904E+03  0.00000000000E+00 0. -1.
<mgrwt>
<rscale>  1 0.30000000E+03</rscale>
<asrwt>0</asrwt>
<pdfrwt beam="1">  1       21 0.81088429E-02 0.30000000E+03</pdfrwt>
<pdfrwt beam="2">0</pdfrwt>
<totfact> 0.12474120E+04</totfact>
</mgrwt>
</event>
<event>
 6    1  0.1198667E-001  0.3000000E+03  0.7818608E-02  0.1093470E+00
         21   -1    0    0  501  502  0.00000000000E+00  0.00000000000E+00  0.18433325615E+02  0.18433325615E+02  0.00000000000E+00 0. -1.
         13   -1    0    0    0    0 -0.00000000000E+00 -0.00000000000E+00 -0.10000000000E+04  0.10000000000E+04  0.00000000000E+00 0.  1.
    9000005    2    1    2  501    0 -0.83132181274E+01 -0.54978876080E+02 -0.95532132399E+03  0.95694670245E+03  0.40463382218E+01 0.  0.
         13    1    3    3    0    0 -0.36922744663E+01 -0.21368114670E+02 -0.40599691012E+03  0.40657560213E+03  0.00000000000E+00 0.  1.
          3    1    3    3  501    0 -0.46209436611E+01 -0.33610761410E+02 -0.54932441387E+03  0.55037110032E+03  0.00000000000E+00 0.  1.
         -1    1    1    2    0  502  0.83132181274E+01  0.54978876080E+02 -0.26245350398E+02  0.61486623165E+02  0.00000000000E+00 0. -1.
<mgrwt>
<rscale>  1 0.30000000E+03</rscale>
<asrwt>0</asrwt>
<pdfrwt beam="1">  1       21 0.67030416E-01 0.30000000E+03</pdfrwt>
<pdfrwt beam="2">0</pdfrwt>
<totfact> 0.19511754E+02</totfact>
</mgrwt>
</event>
<event>
 6    1  0.1198667E-001  0.3000000E+03  0.7818608E-02  0.1093470E+00
         21   -1    0    0  501  502  0.00000000000E+00  0.00000000000E+00  0.14076132799E+01  0.14076132799E+01  0.00000000000E+00 0. -1.
         13   -1    0    0    0    0 -0.00000000000E+00 -0.00000000000E+00 -0.10000000000E+04  0.10000000000E+04  0.00000000000E+00 0.  1.
    9000005    2    1    2  501    0  0.30662841000E+02 -0.19902127421E+02 -0.39086870308E+03  0.39258548806E+03  0.29526086329E+01 0.  0.
         13    1    3    3    0    0  0.16612766957E+02 -0.95952953261E+01 -0.19315466482E+03  0.19410507016E+03  0.00000000000E+00 0.  1.
          1    1    3    3  501    0  0.14050074043E+02 -0.10306832095E+02 -0.19771403825E+03  0.19848041790E+03  0.00000000000E+00 0.  1.
         -1    1    1    2    0  502 -0.30662841000E+02  0.19902127421E+02 -0.60772368364E+03  0.60882212522E+03  0.00000000000E+00 0. -1.
<mgrwt>
<rscale>  1 0.30000000E+03</rscale>
<asrwt>0</asrwt>
<pdfrwt beam="1">  1       21 0.51186045E-02 0.30000000E+03</pdfrwt>
<pdfrwt beam="2">0</pdfrwt>
<totfact> 0.27675502E+04</totfact>
</mgrwt>
</event>
<event>
 6    1  0.1198667E-001  0.3000000E+03  0.7818608E-02  0.1093470E+00
         21   -1    0    0  501  502  0.00000000000E+00  0.00000000000E+00  0.10825436500E+01  0.10825436500E+01  0.00000000000E+00 0. -1.
         13   -1    0    0    0    0 -0.00000000000E+00 -0.00000000000E+00 -0.10000000000E+04  0.10000000000E+04  0.00000000000E+00 0.  1.
    9000005    2    1    2  501    0  0.46181245592E+01 -0.31232569668E+02 -0.63684823681E+03  0.63763939786E+03  0.33947745832E+01 0.  0.
         13    1    3    3    0    0  0.23225857885E+00 -0.11695028088E+02 -0.24904420695E+03  0.24931876111E+03  0.00000000000E+00 0.  1.
          1    1    3    3  501    0  0.43858659804E+01 -0.19537541580E+02 -0.38780402986E+03  0.38832063675E+03  0.00000000000E+00 0.  1.
         -3    1    1    2    0  502 -0.46181245592E+01  0.31232569668E+02 -0.36206921954E+03  0.36344314579E+03  0.00000000000E+00 0. -1.
<mgrwt>
<rscale>  1 0.30000000E+03</rscale>
<asrwt>0</asrwt>
<pdfrwt beam="1">  1       21 0.39365307E-02 0.30000000E+03</pdfrwt>
<pdfrwt beam="2">0</pdfrwt>
<totfact> 0.43194815E+04</totfact>
</mgrwt>
</event>
<event>
 6    1  0.1198667E-001  0.3000000E+03  0.7818608E-02  0.1093470E+00
         21   -1    0    0  501  502  0.00000000000E+00  0.00000000000E+00  0.16245950924E+01  0.16245950924E+01  0.00000000000E+00 0. -1.
         13   -1    0    0    0    0 -0.00000000000E+00 -0.00000000000E+00 -0.10000000000E+04  0.10000000000E+04  0.00000000000E+00 0.  1.
    9000005    2    1    2  501    0  0.19640804199E+02 -0.34941452668E+02 -0.53294726913E+03  0.53447363890E+03  0.47552807238E+01 0.  0.
         13    1    3    3    0    0  0.11534888041E+02 -0.21564681515E+02 -0.29431401162E+03  0.29532833688E+03  0.00000000000E+00 0.  1.
          3    1    3    3  501    0  0.81059161574E+01 -0.13376771153E+02 -0.23863325752E+03  0.23914530201E+03  0.00000000000E+00 0.  1.
         -3    1    1    2    0  502 -0.19640804199E+02  0.34941452668E+02 -0.46542813577E+03  0.46715095620E+03  0.00000000000E+00 0. -1.
<mgrwt>
<rscale>  1 0.30000000E+03</rscale>
<asrwt>0</asrwt>
<pdfrwt beam="1">  1       21 0.59076310E-02 0.30000000E+03</pdfrwt>
<pdfrwt beam="2">0</pdfrwt>
<totfact> 0.21642919E+04</totfact>
</mgrwt>
</event>
<event>
 6    1  0.1198667E-001  0.3000000E+03  0.7818608E-02  0.1093470E+00
         21   -1    0    0  501  502  0.00000000000E+00  0.00000000000E+00  0.22594527050E+01  0.22594527050E+01  0.00000000000E+00 0. -1.
         13   -1    0    0    0    0 -0.00000000000E+00 -0.00000000000E+00 -0.10000000000E+04  0.10000000000E+04  0.00000000000E+00 0.  1.
    9000005    2    1    2  501    0  0.37222052230E+02  0.18299975420E+02 -0.74305981359E+03  0.74422331881E+03  0.31766999297E+01 0.  0.
         13    1    3    3    0    0  0.34306993403E+02  0.17243441150E+02 -0.69974789269E+03  0.70080055607E+03  0.00000000000E+00 0.  1.
          1    1    3    3  501    0  0.29150588273E+01  0.10565342693E+01 -0.43311920897E+02  0.43422762745E+02  0.00000000000E+00 0.  1.
         -1    1    1    2    0  502 -0.37222052230E+02 -0.18299975420E+02 -0.25468073371E+03  0.25803613389E+03  0.00000000000E+00 0. -1.
<mgrwt>
<rscale>  1 0.30000000E+03</rscale>
<asrwt>0</asrwt>
<pdfrwt beam="1">  1       21 0.82162090E-02 0.30000000E+03</pdfrwt>
<pdfrwt beam="2">0</pdfrwt>
<totfact> 0.12188885E+04</totfact>
</mgrwt>
</event>
<event>
 6    1  0.1198667E-001  0.3000000E+03  0.7818608E-02  0.1093470E+00
         21   -1    0    0  501  502  0.00000000000E+00  0.00000000000E+00  0.53402504338E+01  0.53402504338E+01  0.00000000000E+00 0. -1.
         13   -1    0    0    0    0 -0.00000000000E+00 -0.00000000000E+00 -0.10000000000E+04  0.10000000000E+04  0.00000000000E+00 0.  1.
    9000005    2    1    2  501    0 -0.63296644038E+01  0.54581366281E+02 -0.82859185164E+03  0.83041816229E+03  0.32676401494E+01 0.  0.
         13    1    3    3    0    0 -0.13279669244E+01  0.11628369125E+02 -0.15713220397E+03  0.15756748392E+03  0.00000000000E+00 0.  1.
          3    1    3    3  501    0 -0.50016974794E+01  0.42952997156E+02 -0.67145964766E+03  0.67285067837E+03  0.00000000000E+00 0.  1.
         -1    1    1    2    0  502  0.63296644038E+01 -0.54581366281E+02 -0.16606789793E+03  0.17492208814E+03  0.00000000000E+00 0. -1.
<mgrwt>
<rscale>  1 0.30000000E+03</rscale>
<asrwt>0</asrwt>
<pdfrwt beam="1">  1       21 0.19419133E-01 0.30000000E+03</pdfrwt>
<pdfrwt beam="2">0</pdfrwt>
<totfact> 0.25377758E+03</totfact>
</mgrwt>
</event>
<event>
 6    1  0.1198667E-001  0.3000000E+03  0.7818608E-02  0.1093470E+00
         21   -1    0    0  501  502  0.00000000000E+00  0.00000000000E+00  0.15982616491E+01  0.15982616491E+01  0.00000000000E+00 0. -1.
         13   -1    0    0    0    0 -0.00000000000E+00 -0.00000000000E+00 -0.10000000000E+04  0.10000000000E+04  0.00000000000E+00 0.  1.
    9000005    2    1    2  501    0  0.36490539563E+02 -0.16138346853E+02 -0.50172538278E+03  0.50332182442E+03  0.35346135225E+01 0.  0.
         13    1    3    3    0    0  0.24356284446E+01 -0.18384564715E+00 -0.32875263378E+02  0.32965876711E+02  0.00000000000E+00 0.  1.
          1    1    3    3  501    0  0.34054911118E+02 -0.15954501206E+02 -0.46885011940E+03  0.47035594770E+03  0.00000000000E+00 0.  1.
         -3    1    1    2    0  502 -0.36490539563E+02  0.16138346853E+02 -0.49667635557E+03  0.49827643723E+03  0.00000000000E+00 0. -1.
<mgrwt>
<rscale>  1 0.30000000E+03</rscale>
<asrwt>0</asrwt>
<pdfrwt beam="1">  1       21 0.58118728E-02 0.30000000E+03</pdfrwt>
<pdfrwt beam="2">0</pdfrwt>
<totfact> 0.22261031E+04</totfact>
</mgrwt>
</event>
<event>
 6    1  0.1198667E-001  0.3000000E+03  0.7818608E-02  0.1093470E+00
         21   -1    0    0  501  502  0.00000000000E+00  0.00000000000E+00  0.31199132968E+01  0.31199132968E+01  0.00000000000E+00 0. -1.
         13   -1    0    0    0    0 -0.00000000000E+00 -0.00000000000E+00 -0.10000000000E+04  0.10000000000E+04  0.00000000000E+00 0.  1.
    9000005    2    1    2  501    0 -0.16574669662E+02  0.46085562796E+02 -0.73926869119E+03  0.74089438084E+03  0.27725471289E+01 0.  0.
         13    1    3    3    0    0 -0.14781874332E+02  0.43098619823E+02 -0.68991898186E+03  0.69142186570E+03  0.00000000000E+00 0.  1.
          1    1    3    3  501    0 -0.17927953304E+01  0.29869429730E+01 -0.49349709327E+02  0.49472515138E+02  0.00000000000E+00 0.  1.
         -1    1    1    2    0  502  0.16574669662E+02 -0.46085562796E+02 -0.25761139551E+03  0.26222553245E+03  0.00000000000E+00 0. -1.
<mgrwt>
<rscale>  1 0.30000000E+03</rscale>
<asrwt>0</asrwt>
<pdfrwt beam="1">  1       21 0.11345163E-01 0.30000000E+03</pdfrwt>
<pdfrwt beam="2">0</pdfrwt>
<totfact> 0.68593838E+03</totfact>
</mgrwt>
</event>
<event>
 6    1  0.1198667E-001  0.3000000E+03  0.7818608E-02  0.1093470E+00
         21   -1    0    0  501  502  0.00000000000E+00  0.00000000000E+00  0.23783774083E+01  0.23783774083E+01  0.00000000000E+00 0. -1.
         13   -1    0    0    0    0 -0.00000000000E+00 -0.00000000000E+00 -0.10000000000E+04  0.10000000000E+04  0.00000000000E+00 0.  1.
    9000005    2    1    2  501    0 -0.39521385990E+02 -0.18758712164E+02 -0.71188756378E+03  0.71331474843E+03  0.10963468058E+02 0.  0.
         13    1    3    3    0    0 -0.33201958892E+02 -0.12241275356E+02 -0.60910819247E+03  0.61013523831E+03  0.00000000000E+00 0.  1.
          3    1    3    3  501    0 -0.63194270977E+01 -0.65174368088E+01 -0.10277937131E+03  0.10317951012E+03  0.00000000000E+00 0.  1.
         -3    1    1    2    0  502  0.39521385990E+02  0.18758712164E+02 -0.28573405882E+03  0.28906362898E+03  0.00000000000E+00 0. -1.
<mgrwt>
<rscale>  1 0.30000000E+03</rscale>
<asrwt>0</asrwt>
<pdfrwt beam="1">  1       21 0.86486634E-02 0.30000000E+03</pdfrwt>
<pdfrwt beam="2">0</pdfrwt>
<totfact> 0.11135319E+04</totfact>
</mgrwt>
</event>
<event>
 6    1  0.1198667E-001  0.3000000E+03  0.7818608E-02  0.1093470E+00
         21   -1    0    0  501  502  0.00000000000E+00  0.00000000000E+00  0.22514786752E+01  0.22514786752E+01  0.00000000000E+00 0. -1.
         13   -1    0    0    0    0 -0.00000000000E+00 -0.00000000000E+00 -0.10000000000E+04  0.10000000000E+04  0.00000000000E+00 0.  1.
    9000005    2    1    2  501    0  0.31827026554E+02 -0.12213469614E+02 -0.84708538429E+03  0.84777976825E+03  0.38417084655E+01 0.  0.
         13    1    3    3    0    0  0.32993150775E+01 -0.80766314742E-01 -0.85853122375E+02  0.85916532895E+02  0.00000000000E+00 0.  1.
          3    1    3    3  501    0  0.28527711476E+02 -0.12132703299E+02 -0.76123226191E+03  0.76186323536E+03  0.00000000000E+00 0.  1.
         -3    1    1    2    0  502 -0.31827026554E+02  0.12213469614E+02 -0.15066313704E+03  0.15447171042E+03  0.00000000000E+00 0. -1.
<mgrwt>
<rscale>  1 0.30000000E+03</rscale>
<asrwt>0</asrwt>
<pdfrwt beam="1">  1       21 0.81872124E-02 0.30000000E+03</pdfrwt>
<pdfrwt beam="2">0</pdfrwt>
<totfact> 0.12264926E+04</totfact>
</mgrwt>
</event>
<event>
 6    1  0.1198667E-001  0.3000000E+03  0.7818608E-02  0.1093470E+00
         21   -1    0    0  501  502  0.00000000000E+00  0.00000000000E+00  0.35494728623E+01  0.35494728623E+01  0.00000000000E+00 0. -1.
         13   -1    0    0    0    0 -0.00000000000E+00 -0.00000000000E+00 -0.10000000000E+04  0.10000000000E+04  0.00000000000E+00 0.  1.
    9000005    2    1    2  501    0 -0.34955636155E+02  0.40290877435E+02 -0.72109872915E+03  0.72307868301E+03  0.37620929038E+01 0.  0.
         13    1    3    3    0    0 -0.19034778269E+01  0.27462932307E+01 -0.57854237632E+02  0.57950652855E+02  0.00000000000E+00 0.  1.
          3    1    3    3  501    0 -0.33052158328E+02  0.37544584204E+02 -0.66324449151E+03  0.66512803015E+03  0.00000000000E+00 0.  1.
         -3    1    1    2    0  502  0.34955636155E+02 -0.40290877435E+02 -0.27535179799E+03  0.28047078985E+03  0.00000000000E+00 0. -1.
<mgrwt>
<rscale>  1 0.30000000E+03</rscale>
<asrwt>0</asrwt>
<pdfrwt beam="1">  1       21 0.12907201E-01 0.30000000E+03</pdfrwt>
<pdfrwt beam="2">0</pdfrwt>
<totfact> 0.54270429E+03</totfact>
</mgrwt>
</event>
<event>
 6    1  0.1198667E-001  0.3000000E+03  0.7818608E-02  0.1093470E+00
         21   -1    0    0  501  502  0.00000000000E+00  0.00000000000E+00  0.14051794337E+01  0.14051794337E+01  0.00000000000E+00 0. -1.
         13   -1    0    0    0    0 -0.00000000000E+00 -0.00000000000E+00 -0.10000000000E+04  0.10000000000E+04  0.00000000000E+00 0.  1.
    9000005    2    1    2  501    0  0.22262894480E+01  0.33110937655E+02 -0.73098382702E+03  0.73174440285E+03  0.33504015648E+01 0.  0.
         13    1    3    3    0    0  0.91589177889E+00  0.25445393493E+02 -0.53278507529E+03  0.53339314146E+03  0.00000000000E+00 0.  1.
          3    1    3    3  501    0  0.13103976691E+01  0.76655441626E+01 -0.19819875172E+03  0.19835126139E+03  0.00000000000E+00 0.  1.
         -1    1    1    2    0  502 -0.22262894480E+01 -0.33110937655E+02 -0.26761099355E+03  0.26966077658E+03  0.00000000000E+00 0. -1.
<mgrwt>
<rscale>  1 0.30000000E+03</rscale>
<asrwt>0</asrwt>
<pdfrwt beam="1">  1       21 0.51097542E-02 0.30000000E+03</pdfrwt>
<pdfrwt beam="2">0</pdfrwt>
<totfact> 0.27757365E+04</totfact>
</mgrwt>
</event>
<event>
 6    1  0.1198667E-001  0.3000000E+03  0.7818608E-02  0.1093470E+00
         21   -1    0    0  501  502  0.00000000000E+00  0.00000000000E+00  0.19429436880E+02  0.19429436880E+02  0.00000000000E+00 0. -1.
         13   -1    0    0    0    0 -0.00000000000E+00 -0.00000000000E+00 -0.10000000000E+04  0.10000000000E+04  0.00000000000E+00 0.  1.
    9000005    2    1    2  501    0 -0.73282997598E+02  0.11233674217E+03 -0.62868329057E+03  0.64284665188E+03  0.43813932785E+01 0.  0.
         13    1    3    3    0    0 -0.10872010009E+02  0.13996614391E+02 -0.84312354771E+02  0.86154970739E+02  0.00000000000E+00 0.  1.
          1    1    3    3  501    0 -0.62410987589E+02  0.98340127783E+02 -0.54437093580E+03  0.55669168114E+03  0.00000000000E+00 0.  1.
         -1    1    1    2    0  502  0.73282997598E+02 -0.11233674217E+03 -0.35188727255E+03  0.37658278500E+03  0.00000000000E+00 0. -1.
<mgrwt>
<rscale>  1 0.30000000E+03</rscale>
<asrwt>0</asrwt>
<pdfrwt beam="1">  1       21 0.70652647E-01 0.30000000E+03</pdfrwt>
<pdfrwt beam="2">0</pdfrwt>
<totfact> 0.17263410E+02</totfact>
</mgrwt>
</event>
<event>
 6    1  0.1198667E-001  0.3000000E+03  0.7818608E-02  0.1093470E+00
         21   -1    0    0  501  502  0.00000000000E+00  0.00000000000E+00  0.10434080077E+01  0.10434080077E+01  0.00000000000E+00 0. -1.
         13   -1    0    0    0    0 -0.00000000000E+00 -0.00000000000E+00 -0.10000000000E+04  0.10000000000E+04  0.00000000000E+00 0.  1.
    9000005    2    1    2  501    0 -0.22511433540E+02  0.20648709872E+02 -0.34320559320E+03  0.34458129465E+03  0.36132476068E+01 0.  0.
         13    1    3    3    0    0 -0.52325564932E+01  0.66984933708E+01 -0.86227956492E+02  0.86645888199E+02  0.00000000000E+00 0.  1.
          1    1    3    3  501    0 -0.17278877047E+02  0.13950216501E+02 -0.25697763671E+03  0.25793540645E+03  0.00000000000E+00 0.  1.
         -3    1    1    2    0  502  0.22511433540E+02 -0.20648709872E+02 -0.65575099879E+03  0.65646211336E+03  0.00000000000E+00 0. -1.
<mgrwt>
<rscale>  1 0.30000000E+03</rscale>
<asrwt>0</asrwt>
<pdfrwt beam="1">  1       21 0.37942189E-02 0.30000000E+03</pdfrwt>
<pdfrwt beam="2">0</pdfrwt>
<totfact> 0.45953476E+04</totfact>
</mgrwt>
</event>
<event>
 6    1  0.1198667E-001  0.3000000E+03  0.7818608E-02  0.1093470E+00
         21   -1    0    0  501  502  0.00000000000E+00  0.00000000000E+00  0.17481623284E+01  0.17481623284E+01  0.00000000000E+00 0. -1.
         13   -1    0    0    0    0 -0.00000000000E+00 -0.00000000000E+00 -0.10000000000E+04  0.10000000000E+04  0.00000000000E+00 0.  1.
    9000005    2    1    2  501    0 -0.21520163016E+02 -0.22402499600E+02 -0.83200964445E+03  0.83262851175E+03  0.80746960951E+01 0.  0.
         13    1    3    3    0    0 -0.61550715571E+01 -0.42058486462E+01 -0.29012039406E+03  0.29021615586E+03  0.00000000000E+00 0.  1.
          1    1    3    3  501    0 -0.15365091459E+02 -0.18196650954E+02 -0.54188925039E+03  0.54241235589E+03  0.00000000000E+00 0.  1.
         -1    1    1    2    0  502  0.21520163016E+02  0.22402499600E+02 -0.16624219322E+03  0.16911965058E+03  0.00000000000E+00 0. -1.
<mgrwt>
<rscale>  1 0.30000000E+03</rscale>
<asrwt>0</asrwt>
<pdfrwt beam="1">  1       21 0.63569673E-02 0.30000000E+03</pdfrwt>
<pdfrwt beam="2">0</pdfrwt>
<totfact> 0.19070306E+04</totfact>
</mgrwt>
</event>
<event>
 6    1  0.1198667E-001  0.3000000E+03  0.7818608E-02  0.1093470E+00
         21   -1    0    0  501  502  0.00000000000E+00  0.00000000000E+00  0.62846817867E+01  0.62846817867E+01  0.00000000000E+00 0. -1.
         13   -1    0    0    0    0 -0.00000000000E+00 -0.00000000000E+00 -0.10000000000E+04  0.10000000000E+04  0.00000000000E+00 0.  1.
    9000005    2    1    2  501    0 -0.24854933811E+02  0.41429829327E+02 -0.89571071159E+03  0.89701848659E+03  0.32074817176E+01 0.  0.
         13    1    3    3    0    0 -0.67745933691E+01  0.90111968709E+01 -0.19636848679E+03  0.19669183864E+03  0.00000000000E+00 0.  1.
          3    1    3    3  501    0 -0.18080340442E+02  0.32418632456E+02 -0.69934222480E+03  0.70032664795E+03  0.00000000000E+00 0.  1.
         -3    1    1    2    0  502  0.24854933811E+02 -0.41429829327E+02 -0.98004606622E+02  0.10926619519E+03  0.00000000000E+00 0. -1.
<mgrwt>
<rscale>  1 0.30000000E+03</rscale>
<asrwt>0</asrwt>
<pdfrwt beam="1">  1       21 0.22853437E-01 0.30000000E+03</pdfrwt>
<pdfrwt beam="2">0</pdfrwt>
<totfact> 0.18570986E+03</totfact>
</mgrwt>
</event>
<event>
 6    1  0.1198667E-001  0.3000000E+03  0.7818608E-02  0.1093470E+00
         21   -1    0    0  501  502  0.00000000000E+00  0.00000000000E+00  0.46503367490E+01  0.46503367490E+01  0.00000000000E+00 0. -1.
         13   -1    0    0    0    0 -0.00000000000E+00 -0.00000000000E+00 -0.10000000000E+04  0.10000000000E+04  0.00000000000E+00 0.  1.
    9000005    2    1    2  501    0 -0.41505792653E+02 -0.62782412921E+01 -0.89346528454E+03  0.89445698956E+03  0.33082280780E+01 0.  0.
         13    1    3    3    0    0 -0.29113786549E+02 -0.48849265886E+01 -0.59662817366E+03  0.59735806069E+03  0.00000000000E+00 0.  1.
          3    1    3    3  501    0 -0.12392006104E+02 -0.13933147035E+01 -0.29683711088E+03  0.29709892887E+03  0.00000000000E+00 0.  1.
         -3    1    1    2    0  502  0.41505792653E+02  0.62782412921E+01 -0.10188437872E+03  0.11019334718E+03  0.00000000000E+00 0. -1.
<mgrwt>
<rscale>  1 0.30000000E+03</rscale>
<asrwt>0</asrwt>
<pdfrwt beam="1">  1       21 0.16910351E-01 0.30000000E+03</pdfrwt>
<pdfrwt beam="2">0</pdfrwt>
<totfact> 0.32939729E+03</totfact>
</mgrwt>
</event>
<event>
 6    1  0.1198667E-001  0.3000000E+03  0.7818608E-02  0.1093470E+00
         21   -1    0    0  501  502  0.00000000000E+00  0.00000000000E+00  0.29678481572E+01  0.29678481572E+01  0.00000000000E+00 0. -1.
         13   -1    0    0    0    0 -0.00000000000E+00 -0.00000000000E+00 -0.10000000000E+04  0.10000000000E+04  0.00000000000E+00 0.  1.
    9000005    2    1    2  501    0 -0.70085068044E+01  0.52887356328E+02 -0.59821561965E+03  0.60059884093E+03  0.32937070180E+01 0.  0.
         13    1    3    3    0    0 -0.58014234028E+01  0.35308120928E+02 -0.41274417815E+03  0.41429225978E+03  0.00000000000E+00 0.  1.
          3    1    3    3  501    0 -0.12070834016E+01  0.17579235400E+02 -0.18547144150E+03  0.18630658115E+03  0.00000000000E+00 0.  1.
         -1    1    1    2    0  502  0.70085068044E+01 -0.52887356328E+02 -0.39881653219E+03  0.40236900722E+03  0.00000000000E+00 0. -1.
<mgrwt>
<rscale>  1 0.30000000E+03</rscale>
<asrwt>0</asrwt>
<pdfrwt beam="1">  1       21 0.10792198E-01 0.30000000E+03</pdfrwt>
<pdfrwt beam="2">0</pdfrwt>
<totfact> 0.75049724E+03</totfact>
</mgrwt>
</event>
<event>
 6    1  0.1198667E-001  0.3000000E+03  0.7818608E-02  0.1093470E+00
         21   -1    0    0  501  502  0.00000000000E+00  0.00000000000E+00  0.13525494627E+01  0.13525494627E+01  0.00000000000E+00 0. -1.
         13   -1    0    0    0    0 -0.00000000000E+00 -0.00000000000E+00 -0.10000000000E+04  0.10000000000E+04  0.00000000000E+00 0.  1.
    9000005    2    1    2  501    0  0.25218036081E+02 -0.26240160307E+02 -0.43546146216E+03  0.43699189096E+03  0.32760318895E+01 0.  0.
         13    1    3    3    0    0  0.86363722853E+01 -0.86413992311E+01 -0.16501766975E+03  0.16546930845E+03  0.00000000000E+00 0.  1.
          1    1    3    3  501    0  0.16581663796E+02 -0.17598761076E+02 -0.27044379240E+03  0.27152258251E+03  0.00000000000E+00 0.  1.
         -1    1    1    2    0  502 -0.25218036081E+02  0.26240160307E+02 -0.56318598838E+03  0.56436065850E+03  0.00000000000E+00 0. -1.
<mgrwt>
<rscale>  1 0.30000000E+03</rscale>
<asrwt>0</asrwt>
<pdfrwt beam="1">  1       21 0.49183721E-02 0.30000000E+03</pdfrwt>
<pdfrwt beam="2">0</pdfrwt>
<totfact> 0.29624041E+04</totfact>
</mgrwt>
</event>
<event>
 6    1  0.1198667E-001  0.3000000E+03  0.7818608E-02  0.1093470E+00
         21   -1    0    0  501  502  0.00000000000E+00  0.00000000000E+00  0.35295396848E+01  0.35295396848E+01  0.00000000000E+00 0. -1.
         13   -1    0    0    0    0 -0.00000000000E+00 -0.00000000000E+00 -0.10000000000E+04  0.10000000000E+04  0.00000000000E+00 0.  1.
    9000005    2    1    2  501    0 -0.20785325540E+02  0.32779675526E+02 -0.87739547324E+03  0.87828821491E+03  0.77996855716E+01 0.  0.
         13    1    3    3    0    0 -0.12955248924E+02  0.25313991290E+02 -0.68329900799E+03  0.68389046707E+03  0.00000000000E+00 0.  1.
          3    1    3    3  501    0 -0.78300766156E+01  0.74656842364E+01 -0.19409646525E+03  0.19439774783E+03  0.00000000000E+00 0.  1.
         -1    1    1    2    0  502  0.20785325540E+02 -0.32779675526E+02 -0.11907498707E+03  0.12524132478E+03  0.00000000000E+00 0. -1.
<mgrwt>
<rscale>  1 0.30000000E+03</rscale>
<asrwt>0</asrwt>
<pdfrwt beam="1">  1       21 0.12834717E-01 0.30000000E+03</pdfrwt>
<pdfrwt beam="2">0</pdfrwt>
<totfact> 0.54831041E+03</totfact>
</mgrwt>
</event>
<event>
 6    1  0.1198667E-001  0.3000000E+03  0.7818608E-02  0.1093470E+00
         21   -1    0    0  501  502  0.00000000000E+00  0.00000000000E+00  0.14419554820E+01  0.14419554820E+01  0.00000000000E+00 0. -1.
         13   -1    0    0    0    0 -0.00000000000E+00 -0.00000000000E+00 -0.10000000000E+04  0.10000000000E+04  0.00000000000E+00 0.  1.
    9000005    2    1    2  501    0  0.70913898527E+01  0.35910867618E+02 -0.37000977941E+03  0.37182874105E+03  0.30818152157E+01 0.  0.
         13    1    3    3    0    0  0.67620259229E+01  0.28223025215E+02 -0.29699213292E+03  0.29840675455E+03  0.00000000000E+00 0.  1.
          3    1    3    3  501    0  0.32936392981E+00  0.76878424038E+01 -0.73017646495E+02  0.73421986497E+02  0.00000000000E+00 0.  1.
         -3    1    1    2    0  502 -0.70913898527E+01 -0.35910867618E+02 -0.62854826511E+03  0.62961321443E+03  0.00000000000E+00 0. -1.
<mgrwt>
<rscale>  1 0.30000000E+03</rscale>
<asrwt>0</asrwt>
<pdfrwt beam="1">  1       21 0.52434855E-02 0.30000000E+03</pdfrwt>
<pdfrwt beam="2">0</pdfrwt>
<totfact> 0.26559237E+04</totfact>
</mgrwt>
</event>
<event>
 6    1  0.1198667E-001  0.3000000E+03  0.7818608E-02  0.1093470E+00
         21   -1    0    0  501  502  0.00000000000E+00  0.00000000000E+00  0.12040231001E+01  0.12040231001E+01  0.00000000000E+00 0. -1.
         13   -1    0    0    0    0 -0.00000000000E+00 -0.00000000000E+00 -0.10000000000E+04  0.10000000000E+04  0.00000000000E+00 0.  1.
    9000005    2    1    2  501    0 -0.68037733893E+01  0.30206336350E+02 -0.72414267708E+03  0.72481091684E+03  0.30877676011E+01 0.  0.
         13    1    3    3    0    0 -0.68782724602E+01  0.25767846982E+02 -0.61511699752E+03  0.61569490270E+03  0.00000000000E+00 0.  1.
          1    1    3    3  501    0  0.74499070884E-01  0.44384893684E+01 -0.10902567957E+03  0.10911601414E+03  0.00000000000E+00 0.  1.
         -3    1    1    2    0  502  0.68037733893E+01 -0.30206336350E+02 -0.27465329981E+03  0.27639310626E+03  0.00000000000E+00 0. -1.
<mgrwt>
<rscale>  1 0.30000000E+03</rscale>
<asrwt>0</asrwt>
<pdfrwt beam="1">  1       21 0.43782751E-02 0.30000000E+03</pdfrwt>
<pdfrwt beam="2">0</pdfrwt>
<totfact> 0.36097751E+04</totfact>
</mgrwt>
</event>
<event>
 6    1  0.1198667E-001  0.3000000E+03  0.7818608E-02  0.1093470E+00
         21   -1    0    0  501  502  0.00000000000E+00  0.00000000000E+00  0.45804159063E+01  0.45804159063E+01  0.00000000000E+00 0. -1.
         13   -1    0    0    0    0 -0.00000000000E+00 -0.00000000000E+00 -0.10000000000E+04  0.10000000000E+04  0.00000000000E+00 0.  1.
    9000005    2    1    2  501    0 -0.30590146282E+02  0.59624598922E+02 -0.56613670227E+03  0.57009837660E+03  0.32470767671E+01 0.  0.
         13    1    3    3    0    0 -0.91635035398E+01  0.21199416173E+02 -0.19285866138E+03  0.19423657821E+03  0.00000000000E+00 0.  1.
          3    1    3    3  501    0 -0.21426642742E+02  0.38425182750E+02 -0.37327804088E+03  0.37586179840E+03  0.00000000000E+00 0.  1.
         -1    1    1    2    0  502  0.30590146282E+02 -0.59624598922E+02 -0.42928288183E+03  0.43448203930E+03  0.00000000000E+00 0. -1.
<mgrwt>
<rscale>  1 0.30000000E+03</rscale>
<asrwt>0</asrwt>
<pdfrwt beam="1">  1       21 0.16656093E-01 0.30000000E+03</pdfrwt>
<pdfrwt beam="2">0</pdfrwt>
<totfact> 0.33886711E+03</totfact>
</mgrwt>
</event>
<event>
 6    1  0.1198667E-001  0.3000000E+03  0.7818608E-02  0.1093470E+00
         21   -1    0    0  501  502  0.00000000000E+00  0.00000000000E+00  0.12973289262E+01  0.12973289262E+01  0.00000000000E+00 0. -1.
         13   -1    0    0    0    0 -0.00000000000E+00 -0.00000000000E+00 -0.10000000000E+04  0.10000000000E+04  0.00000000000E+00 0.  1.
    9000005    2    1    2  501    0 -0.14807455529E+02  0.28371066578E+02 -0.72762101362E+03  0.72833314966E+03  0.35579860733E+01 0.  0.
         13    1    3    3    0    0 -0.58971342999E+01  0.81422781138E+01 -0.21054774730E+03  0.21078763431E+03  0.00000000000E+00 0.  1.
          3    1    3    3  501    0 -0.89103212296E+01  0.20228788464E+02 -0.51707326633E+03  0.51754551535E+03  0.00000000000E+00 0.  1.
         -1    1    1    2    0  502  0.14807455529E+02 -0.28371066578E+02 -0.27108165745E+03  0.27296417927E+03  0.00000000000E+00 0. -1.
<mgrwt>
<rscale>  1 0.30000000E+03</rscale>
<asrwt>0</asrwt>
<pdfrwt beam="1">  1       21 0.47175697E-02 0.30000000E+03</pdfrwt>
<pdfrwt beam="2">0</pdfrwt>
<totfact> 0.31801927E+04</totfact>
</mgrwt>
</event>
<event>
 6    1  0.1198667E-001  0.3000000E+03  0.7818608E-02  0.1093470E+00
         21   -1    0    0  501  502  0.00000000000E+00  0.00000000000E+00  0.19492211936E+01  0.19492211936E+01  0.00000000000E+00 0. -1.
         13   -1    0    0    0    0 -0.00000000000E+00 -0.00000000000E+00 -0.10000000000E+04  0.10000000000E+04  0.00000000000E+00 0.  1.
    9000005    2    1    2  501    0  0.26039542370E+02  0.23999713339E+02 -0.79406438372E+03  0.79491180094E+03  0.96167439965E+01 0.  0.
         13    1    3    3    0    0  0.19030691358E+02  0.21642390477E+02 -0.67787627178E+03  0.67848861459E+03  0.00000000000E+00 0.  1.
          1    1    3    3  501    0  0.70088510124E+01  0.23573228623E+01 -0.11618811194E+03  0.11642318635E+03  0.00000000000E+00 0.  1.
         -3    1    1    2    0  502 -0.26039542370E+02 -0.23999713339E+02 -0.20398639508E+03  0.20703742025E+03  0.00000000000E+00 0. -1.
<mgrwt>
<rscale>  1 0.30000000E+03</rscale>
<asrwt>0</asrwt>
<pdfrwt beam="1">  1       21 0.70880920E-02 0.30000000E+03</pdfrwt>
<pdfrwt beam="2">0</pdfrwt>
<totfact> 0.15787725E+04</totfact>
</mgrwt>
</event>
<event>
 6    1  0.1198667E-001  0.3000000E+03  0.7818608E-02  0.1093470E+00
         21   -1    0    0  501  502  0.00000000000E+00  0.00000000000E+00  0.26602702799E+01  0.26602702799E+01  0.00000000000E+00 0. -1.
         13   -1    0    0    0    0 -0.00000000000E+00 -0.00000000000E+00 -0.10000000000E+04  0.10000000000E+04  0.00000000000E+00 0.  1.
    9000005    2    1    2  501    0  0.12726408352E+02 -0.41832576972E+02 -0.76395916379E+03  0.76521887852E+03  0.37950155746E+01 0.  0.
         13    1    3    3    0    0  0.52020978931E+01 -0.22141076804E+02 -0.41737772465E+03  0.41799695470E+03  0.00000000000E+00 0.  1.
          3    1    3    3  501    0  0.75243104592E+01 -0.19691500168E+02 -0.34658143914E+03  0.34722192382E+03  0.00000000000E+00 0.  1.
         -1    1    1    2    0  502 -0.12726408352E+02  0.41832576972E+02 -0.23338056593E+03  0.23744139176E+03  0.00000000000E+00 0. -1.
<mgrwt>
<rscale>  1 0.30000000E+03</rscale>
<asrwt>0</asrwt>
<pdfrwt beam="1">  1       21 0.96737305E-02 0.30000000E+03</pdfrwt>
<pdfrwt beam="2">0</pdfrwt>
<totfact> 0.91280243E+03</totfact>
</mgrwt>
</event>
<event>
 6    1  0.1198667E-001  0.3000000E+03  0.7818608E-02  0.1093470E+00
         21   -1    0    0  501  502  0.00000000000E+00  0.00000000000E+00  0.25329555216E+01  0.25329555216E+01  0.00000000000E+00 0. -1.
         13   -1    0    0    0    0 -0.00000000000E+00 -0.00000000000E+00 -0.10000000000E+04  0.10000000000E+04  0.00000000000E+00 0.  1.
    9000005    2    1    2  501    0 -0.19038580030E+02 -0.45881185107E+02 -0.57630764789E+03  0.57845420338E+03  0.33480926581E+01 0.  0.
         13    1    3    3    0    0 -0.68585386529E+01 -0.20507934207E+02 -0.24282610824E+03  0.24378706643E+03  0.00000000000E+00 0.  1.
          3    1    3    3  501    0 -0.12180041377E+02 -0.25373250900E+02 -0.33348153965E+03  0.33466713695E+03  0.00000000000E+00 0.  1.
         -1    1    1    2    0  502  0.19038580030E+02  0.45881185107E+02 -0.42115939659E+03  0.42407875214E+03  0.00000000000E+00 0. -1.
<mgrwt>
<rscale>  1 0.30000000E+03</rscale>
<asrwt>0</asrwt>
<pdfrwt beam="1">  1       21 0.92107668E-02 0.30000000E+03</pdfrwt>
<pdfrwt beam="2">0</pdfrwt>
<totfact> 0.99606356E+03</totfact>
</mgrwt>
</event>
<event>
 6    1  0.1198667E-001  0.3000000E+03  0.7818608E-02  0.1093470E+00
         21   -1    0    0  501  502  0.00000000000E+00  0.00000000000E+00  0.12316893709E+02  0.12316893709E+02  0.00000000000E+00 0. -1.
         13   -1    0    0    0    0 -0.00000000000E+00 -0.00000000000E+00 -0.10000000000E+04  0.10000000000E+04  0.00000000000E+00 0.  1.
    9000005    2    1    2  501    0  0.14622285209E+02  0.10614922471E+03 -0.62520889855E+03  0.63433670850E+03  0.39273143826E+01 0.  0.
         13    1    3    3    0    0  0.95042797872E+01  0.59479455985E+02 -0.35991440829E+03  0.36491987931E+03  0.00000000000E+00 0.  1.
          3    1    3    3  501    0  0.51180054220E+01  0.46669768723E+02 -0.26529449026E+03  0.26941682919E+03  0.00000000000E+00 0.  1.
         -3    1    1    2    0  502 -0.14622285209E+02 -0.10614922471E+03 -0.36247420774E+03  0.37798018521E+03  0.00000000000E+00 0. -1.
<mgrwt>
<rscale>  1 0.30000000E+03</rscale>
<asrwt>0</asrwt>
<pdfrwt beam="1">  1       21 0.44788799E-01 0.30000000E+03</pdfrwt>
<pdfrwt beam="2">0</pdfrwt>
<totfact> 0.47583196E+02</totfact>
</mgrwt>
</event>
<event>
 6    1  0.1198667E-001  0.3000000E+03  0.7818608E-02  0.1093470E+00
         21   -1    0    0  501  502  0.00000000000E+00  0.00000000000E+00  0.11034615382E+01  0.11034615382E+01  0.00000000000E+00 0. -1.
         13   -1    0    0    0    0 -0.00000000000E+00 -0.00000000000E+00 -0.10000000000E+04  0.10000000000E+04  0.00000000000E+00 0.  1.
    9000005    2    1    2  501    0 -0.30224198150E+02 -0.92006771338E+01 -0.65131060179E+03  0.65208463972E+03  0.32745590584E+01 0.  0.
         13    1    3    3    0    0 -0.27987155806E+02 -0.75983385531E+01 -0.59948319675E+03  0.60018423740E+03  0.00000000000E+00 0.  1.
          3    1    3    3  501    0 -0.22370423441E+01 -0.16023385806E+01 -0.51827405044E+02  0.51900402320E+02  0.00000000000E+00 0.  1.
         -3    1    1    2    0  502  0.30224198150E+02  0.92006771338E+01 -0.34758593667E+03  0.34901882182E+03  0.00000000000E+00 0. -1.
<mgrwt>
<rscale>  1 0.30000000E+03</rscale>
<asrwt>0</asrwt>
<pdfrwt beam="1">  1       21 0.40125959E-02 0.30000000E+03</pdfrwt>
<pdfrwt beam="2">0</pdfrwt>
<totfact> 0.41825269E+04</totfact>
</mgrwt>
</event>
<event>
 6    1  0.1198667E-001  0.3000000E+03  0.7818608E-02  0.1093470E+00
         21   -1    0    0  501  502  0.00000000000E+00  0.00000000000E+00  0.31474620590E+01  0.31474620590E+01  0.00000000000E+00 0. -1.
         13   -1    0    0    0    0 -0.00000000000E+00 -0.00000000000E+00 -0.10000000000E+04  0.10000000000E+04  0.00000000000E+00 0.  1.
    9000005    2    1    2  501    0  0.20389638578E+02 -0.28332140575E+02 -0.89097070712E+03  0.89166019979E+03  0.32654843279E+01 0.  0.
         13    1    3    3    0    0  0.14639025297E+02 -0.22632475015E+02 -0.69298421540E+03  0.69350822114E+03  0.00000000000E+00 0.  1.
          3    1    3    3  501    0  0.57506132806E+01 -0.56996655591E+01 -0.19798649172E+03  0.19815197865E+03  0.00000000000E+00 0.  1.
         -3    1    1    2    0  502 -0.20389638578E+02  0.28332140575E+02 -0.10588183082E+03  0.11148726227E+03  0.00000000000E+00 0. -1.
<mgrwt>
<rscale>  1 0.30000000E+03</rscale>
<asrwt>0</asrwt>
<pdfrwt beam="1">  1       21 0.11445341E-01 0.30000000E+03</pdfrwt>
<pdfrwt beam="2">0</pdfrwt>
<totfact> 0.67514005E+03</totfact>
</mgrwt>
</event>
<event>
 6    1  0.1198667E-001  0.3000000E+03  0.7818608E-02  0.1093470E+00
         21   -1    0    0  501  502  0.00000000000E+00  0.00000000000E+00  0.95513867129E+00  0.95513867129E+00  0.00000000000E+00 0. -1.
         13   -1    0    0    0    0 -0.00000000000E+00 -0.00000000000E+00 -0.10000000000E+04  0.10000000000E+04  0.00000000000E+00 0.  1.
    9000005    2    1    2  501    0 -0.15229150218E+01  0.30296724030E+02 -0.58908795725E+03  0.58987744047E+03  0.32500216406E+01 0.  0.
         13    1    3    3    0    0 -0.10121384230E+01  0.18711533880E+02 -0.39362367204E+03  0.39406946229E+03  0.00000000000E+00 0.  1.
          3    1    3    3  501    0 -0.51077659875E+00  0.11585190150E+02 -0.19546428521E+03  0.19580797817E+03  0.00000000000E+00 0.  1.
         -3    1    1    2    0  502  0.15229150218E+01 -0.30296724030E+02 -0.40995690408E+03  0.41107769820E+03  0.00000000000E+00 0. -1.
<mgrwt>
<rscale>  1 0.30000000E+03</rscale>
<asrwt>0</asrwt>
<pdfrwt beam="1">  1       21 0.34732389E-02 0.30000000E+03</pdfrwt>
<pdfrwt beam="2">0</pdfrwt>
<totfact> 0.53297226E+04</totfact>
</mgrwt>
</event>
<event>
 6    1  0.1198667E-001  0.3000000E+03  0.7818608E-02  0.1093470E+00
         21   -1    0    0  501  502  0.00000000000E+00  0.00000000000E+00  0.30854855592E+01  0.30854855592E+01  0.00000000000E+00 0. -1.
         13   -1    0    0    0    0 -0.00000000000E+00 -0.00000000000E+00 -0.10000000000E+04  0.10000000000E+04  0.00000000000E+00 0.  1.
    9000005    2    1    2  501    0  0.10206145665E+02 -0.37463662754E+02 -0.85688387718E+03  0.85777109946E+03  0.36862797308E+01 0.  0.
         13    1    3    3    0    0  0.23874254740E+01 -0.10969119512E+02 -0.28351458822E+03  0.28373674967E+03  0.00000000000E+00 0.  1.
          1    1    3    3  501    0  0.78187201908E+01 -0.26494543242E+02 -0.57336928896E+03  0.57403434979E+03  0.00000000000E+00 0.  1.
         -1    1    1    2    0  502 -0.10206145665E+02  0.37463662754E+02 -0.14003063726E+03  0.14531438610E+03  0.00000000000E+00 0. -1.
<mgrwt>
<rscale>  1 0.30000000E+03</rscale>
<asrwt>0</asrwt>
<pdfrwt beam="1">  1       21 0.11219971E-01 0.30000000E+03</pdfrwt>
<pdfrwt beam="2">0</pdfrwt>
<totfact> 0.69980152E+03</totfact>
</mgrwt>
</event>
<event>
 6    1  0.1198667E-001  0.3000000E+03  0.7818608E-02  0.1093470E+00
         21   -1    0    0  501  502  0.00000000000E+00  0.00000000000E+00  0.11241167197E+01  0.11241167197E+01  0.00000000000E+00 0. -1.
         13   -1    0    0    0    0 -0.00000000000E+00 -0.00000000000E+00 -0.10000000000E+04  0.10000000000E+04  0.00000000000E+00 0.  1.
    9000005    2    1    2  501    0 -0.19802226470E+02 -0.24619434347E+02 -0.66400906275E+03  0.66477008863E+03  0.36042476451E+01 0.  0.
         13    1    3    3    0    0 -0.42590414882E+01 -0.41448740712E+01 -0.10131052750E+03  0.10148469046E+03  0.00000000000E+00 0.  1.
          3    1    3    3  501    0 -0.15543184982E+02 -0.20474560275E+02 -0.56269853525E+03  0.56328539817E+03  0.00000000000E+00 0.  1.
         -1    1    1    2    0  502  0.19802226470E+02  0.24619434347E+02 -0.33486682053E+03  0.33635402809E+03  0.00000000000E+00 0. -1.
<mgrwt>
<rscale>  1 0.30000000E+03</rscale>
<asrwt>0</asrwt>
<pdfrwt beam="1">  1       21 0.40877058E-02 0.30000000E+03</pdfrwt>
<pdfrwt beam="2">0</pdfrwt>
<totfact> 0.40538384E+04</totfact>
</mgrwt>
</event>
<event>
 6    1  0.1198667E-001  0.3000000E+03  0.7818608E-02  0.1093470E+00
         21   -1    0    0  501  502  0.00000000000E+00  0.00000000000E+00  0.99137142443E+00  0.99137142443E+00  0.00000000000E+00 0. -1.
         13   -1    0    0    0    0 -0.00000000000E+00 -0.00000000000E+00 -0.10000000000E+04  0.10000000000E+04  0.00000000000E+00 0.  1.
    9000005    2    1    2  501    0 -0.11634804992E+02  0.27731337313E+02 -0.63890567151E+03  0.63963485018E+03  0.52809776136E+01 0.  0.
         13    1    3    3    0    0 -0.19234476053E+01  0.10421238232E+02 -0.19983379414E+03  0.20011458502E+03  0.00000000000E+00 0.  1.
          3    1    3    3  501    0 -0.97113573865E+01  0.17310099081E+02 -0.43907187737E+03  0.43952026516E+03  0.00000000000E+00 0.  1.
         -1    1    1    2    0  502  0.11634804992E+02 -0.27731337313E+02 -0.36010295707E+03  0.36135652124E+03  0.00000000000E+00 0. -1.
<mgrwt>
<rscale>  1 0.30000000E+03</rscale>
<asrwt>0</asrwt>
<pdfrwt beam="1">  1       21 0.36049946E-02 0.30000000E+03</pdfrwt>
<pdfrwt beam="2">0</pdfrwt>
<totfact> 0.50073753E+04</totfact>
</mgrwt>
</event>
<event>
 6    1  0.1198667E-001  0.3000000E+03  0.7818608E-02  0.1093470E+00
         21   -1    0    0  501  502  0.00000000000E+00  0.00000000000E+00  0.16237677681E+01  0.16237677681E+01  0.00000000000E+00 0. -1.
         13   -1    0    0    0    0 -0.00000000000E+00 -0.00000000000E+00 -0.10000000000E+04  0.10000000000E+04  0.00000000000E+00 0.  1.
    9000005    2    1    2  501    0  0.12221629694E+02 -0.29294046335E+02 -0.80712840111E+03  0.80775978892E+03  0.34801360226E+01 0.  0.
         13    1    3    3    0    0  0.16646388657E+01 -0.17463708298E+01 -0.54296694224E+02  0.54350269892E+02  0.00000000000E+00 0.  1.
          1    1    3    3  501    0  0.10556990828E+02 -0.27547675505E+02 -0.75283170688E+03  0.75340951903E+03  0.00000000000E+00 0.  1.
         -3    1    1    2    0  502 -0.12221629694E+02  0.29294046335E+02 -0.19124783112E+03  0.19386397884E+03  0.00000000000E+00 0. -1.
<mgrwt>
<rscale>  1 0.30000000E+03</rscale>
<asrwt>0</asrwt>
<pdfrwt beam="1">  1       21 0.59046225E-02 0.30000000E+03</pdfrwt>
<pdfrwt beam="2">0</pdfrwt>
<totfact> 0.21661929E+04</totfact>
</mgrwt>
</event>
<event>
 6    1  0.1198667E-001  0.3000000E+03  0.7818608E-02  0.1093470E+00
         21   -1    0    0  501  502  0.00000000000E+00  0.00000000000E+00  0.28626284829E+01  0.28626284829E+01  0.00000000000E+00 0. -1.
         13   -1    0    0    0    0 -0.00000000000E+00 -0.00000000000E+00 -0.10000000000E+04  0.10000000000E+04  0.00000000000E+00 0.  1.
    9000005    2    1    2  501    0 -0.52582499921E+02  0.91862956957E+01 -0.52540163181E+03  0.52811646953E+03  0.32898860461E+01 0.  0.
         13    1    3    3    0    0 -0.23872182365E+02  0.56203659192E+01 -0.23312061509E+03  0.23440710480E+03  0.00000000000E+00 0.  1.
          1    1    3    3  501    0 -0.28710317556E+02  0.35659297765E+01 -0.29228101673E+03  0.29370936473E+03  0.00000000000E+00 0.  1.
         -1    1    1    2    0  502  0.52582499921E+02 -0.91862956957E+01 -0.47173573970E+03  0.47474615895E+03  0.00000000000E+00 0. -1.
<mgrwt>
<rscale>  1 0.30000000E+03</rscale>
<asrwt>0</asrwt>
<pdfrwt beam="1">  1       21 0.10409580E-01 0.30000000E+03</pdfrwt>
<pdfrwt beam="2">0</pdfrwt>
<totfact> 0.80070094E+03</totfact>
</mgrwt>
</event>
<event>
 6    1  0.1198667E-001  0.3000000E+03  0.7818608E-02  0.1093470E+00
         21   -1    0    0  501  502  0.00000000000E+00  0.00000000000E+00  0.30304127122E+01  0.30304127122E+01  0.00000000000E+00 0. -1.
         13   -1    0    0    0    0 -0.00000000000E+00 -0.00000000000E+00 -0.10000000000E+04  0.10000000000E+04  0.00000000000E+00 0.  1.
    9000005    2    1    2  501    0  0.11313712843E+02 -0.33705940391E+02 -0.88123800758E+03  0.88196064333E+03  0.31717295540E+01 0.  0.
         13    1    3    3    0    0  0.10500087043E+02 -0.32790338038E+02 -0.85769525505E+03  0.85838604872E+03  0.00000000000E+00 0.  1.
          3    1    3    3  501    0  0.81362579953E+00 -0.91560235261E+00 -0.23542752532E+02  0.23574594618E+02  0.00000000000E+00 0.  1.
         -1    1    1    2    0  502 -0.11313712843E+02  0.33705940391E+02 -0.11573157971E+03  0.12106976938E+03  0.00000000000E+00 0. -1.
<mgrwt>
<rscale>  1 0.30000000E+03</rscale>
<asrwt>0</asrwt>
<pdfrwt beam="1">  1       21 0.11019706E-01 0.30000000E+03</pdfrwt>
<pdfrwt beam="2">0</pdfrwt>
<totfact> 0.72287059E+03</totfact>
</mgrwt>
</event>
<event>
 6    1  0.1198667E-001  0.3000000E+03  0.7818608E-02  0.1093470E+00
         21   -1    0    0  501  502  0.00000000000E+00  0.00000000000E+00  0.12937318072E+01  0.12937318072E+01  0.00000000000E+00 0. -1.
         13   -1    0    0    0    0 -0.00000000000E+00 -0.00000000000E+00 -0.10000000000E+04  0.10000000000E+04  0.00000000000E+00 0.  1.
    9000005    2    1    2  501    0 -0.43283738099E+01 -0.35153452621E+02 -0.42120287085E+03  0.42270521309E+03  0.36522196838E+01 0.  0.
         13    1    3    3    0    0  0.41739681857E+00 -0.89995976820E+01 -0.10112205769E+03  0.10152259615E+03  0.00000000000E+00 0.  1.
          3    1    3    3  501    0 -0.47457706285E+01 -0.26153854939E+02 -0.32008081316E+03  0.32118261694E+03  0.00000000000E+00 0.  1.
         -3    1    1    2    0  502  0.43283738099E+01  0.35153452621E+02 -0.57750339734E+03  0.57858851872E+03  0.00000000000E+00 0. -1.
<mgrwt>
<rscale>  1 0.30000000E+03</rscale>
<asrwt>0</asrwt>
<pdfrwt beam="1">  1       21 0.47044892E-02 0.30000000E+03</pdfrwt>
<pdfrwt beam="2">0</pdfrwt>
<totfact> 0.31952425E+04</totfact>
</mgrwt>
</event>
<event>
 6    1  0.1198667E-001  0.3000000E+03  0.7818608E-02  0.1093470E+00
         21   -1    0    0  501  502  0.00000000000E+00  0.00000000000E+00  0.12167751466E+01  0.12167751466E+01  0.00000000000E+00 0. -1.
         13   -1    0    0    0    0 -0.00000000000E+00 -0.00000000000E+00 -0.10000000000E+04  0.10000000000E+04  0.00000000000E+00 0.  1.
    9000005    2    1    2  501    0 -0.28368900575E+02  0.10829081777E+02 -0.74474250535E+03  0.74536769717E+03  0.30888813811E+01 0.  0.
         13    1    3    3    0    0 -0.18765228996E+02  0.85726423892E+01 -0.51808442024E+03  0.51849502458E+03  0.00000000000E+00 0.  1.
          3    1    3    3  501    0 -0.96036715787E+01  0.22564393877E+01 -0.22665808511E+03  0.22687267259E+03  0.00000000000E+00 0.  1.
         -3    1    1    2    0  502  0.28368900575E+02 -0.10829081777E+02 -0.25404071951E+03  0.25584907797E+03  0.00000000000E+00 0. -1.
<mgrwt>
<rscale>  1 0.30000000E+03</rscale>
<asrwt>0</asrwt>
<pdfrwt beam="1">  1       21 0.44246462E-02 0.30000000E+03</pdfrwt>
<pdfrwt beam="2">0</pdfrwt>
<totfact> 0.35459222E+04</totfact>
</mgrwt>
</event>
<event>
 6    1  0.1198667E-001  0.3000000E+03  0.7818608E-02  0.1093470E+00
         21   -1    0    0  501  502  0.00000000000E+00  0.00000000000E+00  0.22378742404E+01  0.22378742404E+01  0.00000000000E+00 0. -1.
         13   -1    0    0    0    0 -0.00000000000E+00 -0.00000000000E+00 -0.10000000000E+04  0.10000000000E+04  0.00000000000E+00 0.  1.
    9000005    2    1    2  501    0 -0.24480169270E+02  0.40144534273E+02 -0.55009885868E+03  0.55211204405E+03  0.28447382530E+01 0.  0.
         13    1    3    3    0    0 -0.12670594473E+02  0.21836854816E+02 -0.27990381803E+03  0.28104010308E+03  0.00000000000E+00 0.  1.
          3    1    3    3  501    0 -0.11809574797E+02  0.18307679456E+02 -0.27019504065E+03  0.27107194096E+03  0.00000000000E+00 0.  1.
         -3    1    1    2    0  502  0.24480169270E+02 -0.40144534273E+02 -0.44766326708E+03  0.45012583019E+03  0.00000000000E+00 0. -1.
<mgrwt>
<rscale>  1 0.30000000E+03</rscale>
<asrwt>0</asrwt>
<pdfrwt beam="1">  1       21 0.81377417E-02 0.30000000E+03</pdfrwt>
<pdfrwt beam="2">0</pdfrwt>
<totfact> 0.12396347E+04</totfact>
</mgrwt>
</event>
<event>
 6    1  0.1198667E-001  0.3000000E+03  0.7818608E-02  0.1093470E+00
         21   -1    0    0  501  502  0.00000000000E+00  0.00000000000E+00  0.11134637665E+01  0.11134637665E+01  0.00000000000E+00 0. -1.
         13   -1    0    0    0    0 -0.00000000000E+00 -0.00000000000E+00 -0.10000000000E+04  0.10000000000E+04  0.00000000000E+00 0.  1.
    9000005    2    1    2  501    0 -0.56871889593E+00 -0.31629640743E+02 -0.65492565942E+03  0.65570089539E+03  0.39098891172E+01 0.  0.
         13    1    3    3    0    0  0.14483579247E+01 -0.14887911599E+02 -0.32705204341E+03  0.32739393206E+03  0.00000000000E+00 0.  1.
          3    1    3    3  501    0 -0.20170768206E+01 -0.16741729144E+02 -0.32787361601E+03  0.32830696333E+03  0.00000000000E+00 0.  1.
         -1    1    1    2    0  502  0.56871889593E+00  0.31629640743E+02 -0.34396087681E+03  0.34541256838E+03  0.00000000000E+00 0. -1.
<mgrwt>
<rscale>  1 0.30000000E+03</rscale>
<asrwt>0</asrwt>
<pdfrwt beam="1">  1       21 0.40489677E-02 0.30000000E+03</pdfrwt>
<pdfrwt beam="2">0</pdfrwt>
<totfact> 0.41194251E+04</totfact>
</mgrwt>
</event>
<event>
 6    1  0.1198667E-001  0.3000000E+03  0.7818608E-02  0.1093470E+00
         21   -1    0    0  501  502  0.00000000000E+00  0.00000000000E+00  0.17662174372E+01  0.17662174372E+01  0.00000000000E+00 0. -1.
         13   -1    0    0    0    0 -0.00000000000E+00 -0.00000000000E+00 -0.10000000000E+04  0.10000000000E+04  0.00000000000E+00 0.  1.
    9000005    2    1    2  501    0 -0.37651524622E+02 -0.18089219648E+02 -0.54659527609E+03  0.54820012776E+03  0.34823930069E+01 0.  0.
         13    1    3    3    0    0 -0.24727558807E+02 -0.11402931797E+02 -0.33473550335E+03  0.33584123663E+03  0.00000000000E+00 0.  1.
          1    1    3    3  501    0 -0.12923965815E+02 -0.66862878508E+01 -0.21185977274E+03  0.21235889113E+03  0.00000000000E+00 0.  1.
         -1    1    1    2    0  502  0.37651524622E+02  0.18089219648E+02 -0.45163850648E+03  0.45356608968E+03  0.00000000000E+00 0. -1.
<mgrwt>
<rscale>  1 0.30000000E+03</rscale>
<asrwt>0</asrwt>
<pdfrwt beam="1">  1       21 0.64226224E-02 0.30000000E+03</pdfrwt>
<pdfrwt beam="2">0</pdfrwt>
<totfact> 0.18734363E+04</totfact>
</mgrwt>
</event>
<event>
 6    1  0.1198667E-001  0.3000000E+03  0.7818608E-02  0.1093470E+00
         21   -1    0    0  501  502  0.00000000000E+00  0.00000000000E+00  0.95065916771E+00  0.95065916771E+00  0.00000000000E+00 0. -1.
         13   -1    0    0    0    0 -0.00000000000E+00 -0.00000000000E+00 -0.10000000000E+04  0.10000000000E+04  0.00000000000E+00 0.  1.
    9000005    2    1    2  501    0 -0.28158607622E+01  0.30416448093E+02 -0.44849348464E+03  0.44954804749E+03  0.37352166967E+01 0.  0.
         13    1    3    3    0    0 -0.20830263702E+01  0.18373842641E+02 -0.29684091249E+03  0.29741631499E+03  0.00000000000E+00 0.  1.
          3    1    3    3  501    0 -0.73283439204E+00  0.12042605452E+02 -0.15165257215E+03  0.15213173249E+03  0.00000000000E+00 0.  1.
         -1    1    1    2    0  502  0.28158607622E+01 -0.30416448093E+02 -0.55055585619E+03  0.55140261168E+03  0.00000000000E+00 0. -1.
<mgrwt>
<rscale>  1 0.30000000E+03</rscale>
<asrwt>0</asrwt>
<pdfrwt beam="1">  1       21 0.34569497E-02 0.30000000E+03</pdfrwt>
<pdfrwt beam="2">0</pdfrwt>
<totfact> 0.53718110E+04</totfact>
</mgrwt>
</event>
<event>
 6    1  0.1198667E-001  0.3000000E+03  0.7818608E-02  0.1093470E+00
         21   -1    0    0  501  502  0.00000000000E+00  0.00000000000E+00  0.56737088974E+01  0.56737088974E+01  0.00000000000E+00 0. -1.
         13   -1    0    0    0    0 -0.00000000000E+00 -0.00000000000E+00 -0.10000000000E+04  0.10000000000E+04  0.00000000000E+00 0.  1.
    9000005    2    1    2  501    0  0.36592511442E+02  0.31896863448E+02 -0.88078640394E+03  0.88219201888E+03  0.11029371155E+02 0.  0.
         13    1    3    3    0    0  0.14354608708E+02  0.13102873920E+02 -0.45240547828E+03  0.45282276542E+03  0.00000000000E+00 0.  1.
          3    1    3    3  501    0  0.22237902734E+02  0.18793989528E+02 -0.42838092565E+03  0.42936925347E+03  0.00000000000E+00 0.  1.
         -1    1    1    2    0  502 -0.36592511442E+02 -0.31896863448E+02 -0.11353988717E+03  0.12348169002E+03  0.00000000000E+00 0. -1.
<mgrwt>
<rscale>  1 0.30000000E+03</rscale>
<asrwt>0</asrwt>
<pdfrwt beam="1">  1       21 0.20631712E-01 0.30000000E+03</pdfrwt>
<pdfrwt beam="2">0</pdfrwt>
<totfact> 0.22607557E+03</totfact>
</mgrwt>
</event>
<event>
 6    1  0.1198667E-001  0.3000000E+03  0.7818608E-02  0.1093470E+00
         21   -1    0    0  501  502  0.00000000000E+00  0.00000000000E+00  0.37103015311E+01  0.37103015311E+01  0.00000000000E+00 0. -1.
         13   -1    0    0    0    0 -0.00000000000E+00 -0.00000000000E+00 -0.10000000000E+04  0.10000000000E+04  0.00000000000E+00 0.  1.
    9000005    2    1    2  501    0 -0.11259992957E+02  0.53341579575E+02 -0.72148661162E+03  0.72355168914E+03  0.34647601987E+01 0.  0.
         13    1    3    3    0    0 -0.57394747713E+01  0.33390229124E+02 -0.46212338727E+03  0.46336365204E+03  0.00000000000E+00 0.  1.
          1    1    3    3  501    0 -0.55205181856E+01  0.19951350451E+02 -0.25936322435E+03  0.26018803710E+03  0.00000000000E+00 0.  1.
         -1    1    1    2    0  502  0.11259992957E+02 -0.53341579575E+02 -0.27480308685E+03  0.28015861239E+03  0.00000000000E+00 0. -1.
<mgrwt>
<rscale>  1 0.30000000E+03</rscale>
<asrwt>0</asrwt>
<pdfrwt beam="1">  1       21 0.13492034E-01 0.30000000E+03</pdfrwt>
<pdfrwt beam="2">0</pdfrwt>
<totfact> 0.50047084E+03</totfact>
</mgrwt>
</event>
<event>
 6    1  0.1198667E-001  0.3000000E+03  0.7818608E-02  0.1093470E+00
         21   -1    0    0  501  502  0.00000000000E+00  0.00000000000E+00  0.21846637457E+01  0.21846637457E+01  0.00000000000E+00 0. -1.
         13   -1    0    0    0    0 -0.00000000000E+00 -0.00000000000E+00 -0.10000000000E+04  0.10000000000E+04  0.00000000000E+00 0.  1.
    9000005    2    1    2  501    0  0.26918811890E+02 -0.14354669117E+02 -0.87823590745E+03  0.87877510678E+03  0.40865866103E+01 0.  0.
         13    1    3    3    0    0  0.34011282229E+01 -0.25585991850E+01 -0.16267472125E+03  0.16273038756E+03  0.00000000000E+00 0.  1.
          1    1    3    3  501    0  0.23517683667E+02 -0.11796069932E+02 -0.71556118621E+03  0.71604471922E+03  0.00000000000E+00 0.  1.
         -1    1    1    2    0  502 -0.26918811890E+02  0.14354669117E+02 -0.11957942880E+03  0.12340955697E+03  0.00000000000E+00 0. -1.
<mgrwt>
<rscale>  1 0.30000000E+03</rscale>
<asrwt>0</asrwt>
<pdfrwt beam="1">  1       21 0.79442486E-02 0.30000000E+03</pdfrwt>
<pdfrwt beam="2">0</pdfrwt>
<totfact> 0.12931713E+04</totfact>
</mgrwt>
</event>
<event>
 6    1  0.1198667E-001  0.3000000E+03  0.7818608E-02  0.1093470E+00
         21   -1    0    0  501  502  0.00000000000E+00  0.00000000000E+00  0.72098406106E+01  0.72098406106E+01  0.00000000000E+00 0. -1.
         13   -1    0    0    0    0 -0.00000000000E+00 -0.00000000000E+00 -0.10000000000E+04  0.10000000000E+04  0.00000000000E+00 0.  1.
    9000005    2    1    2  501    0  0.16703665347E+02  0.27040606244E+02 -0.96334436952E+03  0.96388246632E+03  0.51795525148E+01 0.  0.
         13    1    3    3    0    0  0.37996680589E+00  0.11024384175E+00 -0.36167840176E+01  0.36383588482E+01  0.00000000000E+00 0.  1.
          1    1    3    3  501    0  0.16323698541E+02  0.26930362403E+02 -0.95972758551E+03  0.96024410747E+03  0.00000000000E+00 0.  1.
         -1    1    1    2    0  502 -0.16703665347E+02 -0.27040606244E+02 -0.29445789866E+02  0.43327374290E+02  0.00000000000E+00 0. -1.
<mgrwt>
<rscale>  1 0.30000000E+03</rscale>
<asrwt>0</asrwt>
<pdfrwt beam="1">  1       21 0.26217658E-01 0.30000000E+03</pdfrwt>
<pdfrwt beam="2">0</pdfrwt>
<totfact> 0.14205100E+03</totfact>
</mgrwt>
</event>
<event>
 6    1  0.1198667E-001  0.3000000E+03  0.7818608E-02  0.1093470E+00
         21   -1    0    0  501  502  0.00000000000E+00  0.00000000000E+00  0.12482334813E+01  0.12482334813E+01  0.00000000000E+00 0. -1.
         13   -1    0    0    0    0 -0.00000000000E+00 -0.00000000000E+00 -0.10000000000E+04  0.10000000000E+04  0.00000000000E+00 0.  1.
    9000005    2    1    2  501    0  0.25005229150E+02  0.23609508866E+02 -0.39122999103E+03  0.39275388011E+03  0.34690150116E+01 0.  0.
         13    1    3    3    0    0  0.11411562673E+02  0.10525719056E+02 -0.15728358663E+03  0.15804790776E+03  0.00000000000E+00 0.  1.
          1    1    3    3  501    0  0.13593666477E+02  0.13083789809E+02 -0.23394640440E+03  0.23470597235E+03  0.00000000000E+00 0.  1.
         -1    1    1    2    0  502 -0.25005229150E+02 -0.23609508866E+02 -0.60752177549E+03  0.60849435337E+03  0.00000000000E+00 0. -1.
<mgrwt>
<rscale>  1 0.30000000E+03</rscale>
<asrwt>0</asrwt>
<pdfrwt beam="1">  1       21 0.45390404E-02 0.30000000E+03</pdfrwt>
<pdfrwt beam="2">0</pdfrwt>
<totfact> 0.33956602E+04</totfact>
</mgrwt>
</event>
<event>
 6    1  0.1198667E-001  0.3000000E+03  0.7818608E-02  0.1093470E+00
         21   -1    0    0  501  502  0.00000000000E+00  0.00000000000E+00  0.22109867153E+01  0.22109867153E+01  0.00000000000E+00 0. -1.
         13   -1    0    0    0    0 -0.00000000000E+00 -0.00000000000E+00 -0.10000000000E+04  0.10000000000E+04  0.00000000000E+00 0.  1.
    9000005    2    1    2  501    0 -0.91094279327E+01 -0.40143881228E+02 -0.74021993660E+03  0.74137321694E+03  0.37655515063E+01 0.  0.
         13    1    3    3    0    0 -0.39486507551E+01 -0.16173532139E+02 -0.33271227027E+03  0.33312854842E+03  0.00000000000E+00 0.  1.
          1    1    3    3  501    0 -0.51607771776E+01 -0.23970349089E+02 -0.40750766633E+03  0.40824466852E+03  0.00000000000E+00 0.  1.
         -3    1    1    2    0  502  0.91094279327E+01  0.40143881228E+02 -0.25756907669E+03  0.26083776978E+03  0.00000000000E+00 0. -1.
<mgrwt>
<rscale>  1 0.30000000E+03</rscale>
<asrwt>0</asrwt>
<pdfrwt beam="1">  1       21 0.80399686E-02 0.30000000E+03</pdfrwt>
<pdfrwt beam="2">0</pdfrwt>
<totfact> 0.12662524E+04</totfact>
</mgrwt>
</event>
<event>
 6    1  0.1198667E-001  0.3000000E+03  0.7818608E-02  0.1093470E+00
         21   -1    0    0  501  502  0.00000000000E+00  0.00000000000E+00  0.27133834662E+01  0.27133834662E+01  0.00000000000E+00 0. -1.
         13   -1    0    0    0    0 -0.00000000000E+00 -0.00000000000E+00 -0.10000000000E+04  0.10000000000E+04  0.00000000000E+00 0.  1.
    9000005    2    1    2  501    0  0.10167216207E+02  0.45724772790E+02 -0.71730495918E+03  0.71884042669E+03  0.33207609177E+01 0.  0.
         13    1    3    3    0    0  0.15220479159E+01  0.13713897280E+02 -0.21464989687E+03  0.21509292372E+03  0.00000000000E+00 0.  1.
          1    1    3    3  501    0  0.86451682913E+01  0.32010875510E+02 -0.50265506231E+03  0.50374750297E+03  0.00000000000E+00 0.  1.
         -3    1    1    2    0  502 -0.10167216207E+02 -0.45724772790E+02 -0.27998165735E+03  0.28387295677E+03  0.00000000000E+00 0. -1.
<mgrwt>
<rscale>  1 0.30000000E+03</rscale>
<asrwt>0</asrwt>
<pdfrwt beam="1">  1       21 0.98668698E-02 0.30000000E+03</pdfrwt>
<pdfrwt beam="2">0</pdfrwt>
<totfact> 0.88116308E+03</totfact>
</mgrwt>
</event>
<event>
 6    1  0.1198667E-001  0.3000000E+03  0.7818608E-02  0.1093470E+00
         21   -1    0    0  501  502  0.00000000000E+00  0.00000000000E+00  0.91300233176E+00  0.91300233176E+00  0.00000000000E+00 0. -1.
         13   -1    0    0    0    0 -0.00000000000E+00 -0.00000000000E+00 -0.10000000000E+04  0.10000000000E+04  0.00000000000E+00 0.  1.
    9000005    2    1    2  501    0  0.30050302480E+02  0.12933037999E+01 -0.45786477604E+03  0.45885563775E+03  0.19104560608E+01 0.  0.
         13    1    3    3    0    0  0.98856595110E+01  0.10262349797E+01 -0.16150842965E+03  0.16181394337E+03  0.00000000000E+00 0.  1.
          3    1    3    3  501    0  0.20164642969E+02  0.26706882022E+00 -0.29635634639E+03  0.29704169437E+03  0.00000000000E+00 0.  1.
         -3    1    1    2    0  502 -0.30050302480E+02 -0.12933037999E+01 -0.54122222163E+03  0.54205736458E+03  0.00000000000E+00 0. -1.
<mgrwt>
<rscale>  1 0.30000000E+03</rscale>
<asrwt>0</asrwt>
<pdfrwt beam="1">  1       21 0.33200155E-02 0.30000000E+03</pdfrwt>
<pdfrwt beam="2">0</pdfrwt>
<totfact> 0.57470802E+04</totfact>
</mgrwt>
</event>
<event>
 6    1  0.1198667E-001  0.3000000E+03  0.7818608E-02  0.1093470E+00
         21   -1    0    0  501  502  0.00000000000E+00  0.00000000000E+00  0.11344713776E+01  0.11344713776E+01  0.00000000000E+00 0. -1.
         13   -1    0    0    0    0 -0.00000000000E+00 -0.00000000000E+00 -0.10000000000E+04  0.10000000000E+04  0.00000000000E+00 0.  1.
    9000005    2    1    2  501    0  0.21220085541E+02  0.24413988140E+02 -0.63257440602E+03  0.63341783953E+03  0.46309203820E+01 0.  0.
         13    1    3    3    0    0  0.10029831343E+01  0.70449131127E+00 -0.46106992221E+02  0.46123280617E+02  0.00000000000E+00 0.  1.
          3    1    3    3  501    0  0.20217102406E+02  0.23709496829E+02 -0.58646741380E+03  0.58729455891E+03  0.00000000000E+00 0.  1.
         -3    1    1    2    0  502 -0.21220085541E+02 -0.24413988140E+02 -0.36629112260E+03  0.36771663185E+03  0.00000000000E+00 0. -1.
<mgrwt>
<rscale>  1 0.30000000E+03</rscale>
<asrwt>0</asrwt>
<pdfrwt beam="1">  1       21 0.41253592E-02 0.30000000E+03</pdfrwt>
<pdfrwt beam="2">0</pdfrwt>
<totfact> 0.39916364E+04</totfact>
</mgrwt>
</event>
<event>
 6    1  0.1198667E-001  0.3000000E+03  0.7818608E-02  0.1093470E+00
         21   -1    0    0  501  502  0.00000000000E+00  0.00000000000E+00  0.27139175666E+02  0.27139175666E+02  0.00000000000E+00 0. -1.
         13   -1    0    0    0    0 -0.00000000000E+00 -0.00000000000E+00 -0.10000000000E+04  0.10000000000E+04  0.00000000000E+00 0.  1.
    9000005    2    1    2  501    0 -0.45691748652E+02 -0.12834399465E+02 -0.97822260089E+03  0.97937719966E+03  0.27900927499E+01 0.  0.
         13    1    3    3    0    0 -0.36331478510E+02 -0.94285220900E+01 -0.79013617037E+03  0.79102720629E+03  0.00000000000E+00 0.  1.
          1    1    3    3  501    0 -0.93602701419E+01 -0.34058773750E+01 -0.18808643052E+03  0.18834999337E+03  0.00000000000E+00 0.  1.
         -1    1    1    2    0  502  0.45691748652E+02  0.12834399465E+02  0.53617765537E+01  0.47761976009E+02  0.00000000000E+00 0. -1.
<mgrwt>
<rscale>  1 0.30000000E+03</rscale>
<asrwt>0</asrwt>
<pdfrwt beam="1">  1       21 0.98688120E-01 0.30000000E+03</pdfrwt>
<pdfrwt beam="2">0</pdfrwt>
<totfact> 0.76244303E+01</totfact>
</mgrwt>
</event>
<event>
 6    1  0.1198667E-001  0.3000000E+03  0.7818608E-02  0.1093470E+00
         21   -1    0    0  501  502  0.00000000000E+00  0.00000000000E+00  0.18494232538E+01  0.18494232538E+01  0.00000000000E+00 0. -1.
         13   -1    0    0    0    0 -0.00000000000E+00 -0.00000000000E+00 -0.10000000000E+04  0.10000000000E+04  0.00000000000E+00 0.  1.
    9000005    2    1    2  501    0 -0.14124961927E+02  0.31306672102E+02 -0.79982782468E+03  0.80057464527E+03  0.39485744606E+01 0.  0.
         13    1    3    3    0    0 -0.11450133345E+02  0.27297761116E+02 -0.71136266518E+03  0.71197831057E+03  0.00000000000E+00 0.  1.
          3    1    3    3  501    0 -0.26748285823E+01  0.40089109856E+01 -0.88465159502E+02  0.88596334693E+02  0.00000000000E+00 0.  1.
         -1    1    1    2    0  502  0.14124961927E+02 -0.31306672102E+02 -0.19832275207E+03  0.20127477799E+03  0.00000000000E+00 0. -1.
<mgrwt>
<rscale>  1 0.30000000E+03</rscale>
<asrwt>0</asrwt>
<pdfrwt beam="1">  1       21 0.67251896E-02 0.30000000E+03</pdfrwt>
<pdfrwt beam="2">0</pdfrwt>
<totfact> 0.17298194E+04</totfact>
</mgrwt>
</event>
<event>
 6    1  0.1198667E-001  0.3000000E+03  0.7818608E-02  0.1093470E+00
         21   -1    0    0  501  502  0.00000000000E+00  0.00000000000E+00  0.12294213139E+01  0.12294213139E+01  0.00000000000E+00 0. -1.
         13   -1    0    0    0    0 -0.00000000000E+00 -0.00000000000E+00 -0.10000000000E+04  0.10000000000E+04  0.00000000000E+00 0.  1.
    9000005    2    1    2  501    0 -0.20887317201E+02  0.22467985355E+02 -0.73997348245E+03  0.74062046635E+03  0.41024462674E+01 0.  0.
         13    1    3    3    0    0 -0.10610355526E+00 -0.17085837992E+00 -0.73485501188E+01  0.73513018846E+01  0.00000000000E+00 0.  1.
          1    1    3    3  501    0 -0.20781213646E+02  0.22638843735E+02 -0.73262493233E+03  0.73326916447E+03  0.00000000000E+00 0.  1.
         -1    1    1    2    0  502  0.20887317201E+02 -0.22467985355E+02 -0.25879709624E+03  0.26060895496E+03  0.00000000000E+00 0. -1.
<mgrwt>
<rscale>  1 0.30000000E+03</rscale>
<asrwt>0</asrwt>
<pdfrwt beam="1">  1       21 0.44706324E-02 0.30000000E+03</pdfrwt>
<pdfrwt beam="2">0</pdfrwt>
<totfact> 0.34843071E+04</totfact>
</mgrwt>
</event>
<event>
 6    1  0.1198667E-001  0.3000000E+03  0.7818608E-02  0.1093470E+00
         21   -1    0    0  501  502  0.00000000000E+00  0.00000000000E+00  0.22921527925E+01  0.22921527925E+01  0.00000000000E+00 0. -1.
         13   -1    0    0    0    0 -0.00000000000E+00 -0.00000000000E+00 -0.10000000000E+04  0.10000000000E+04  0.00000000000E+00 0.  1.
    9000005    2    1    2  501    0  0.23113660249E+02 -0.36313032912E+02 -0.71740932939E+03  0.71870770903E+03  0.34274602913E+01 0.  0.
         13    1    3    3    0    0  0.10669924702E+02 -0.18288505240E+02 -0.32761167928E+03  0.32829518595E+03  0.00000000000E+00 0.  1.
          3    1    3    3  501    0  0.12443735547E+02 -0.18024527673E+02 -0.38979765010E+03  0.39041252308E+03  0.00000000000E+00 0.  1.
         -3    1    1    2    0  502 -0.23113660249E+02  0.36313032912E+02 -0.28029851782E+03  0.28358444376E+03  0.00000000000E+00 0. -1.
<mgrwt>
<rscale>  1 0.30000000E+03</rscale>
<asrwt>0</asrwt>
<pdfrwt beam="1">  1       21 0.83351186E-02 0.30000000E+03</pdfrwt>
<pdfrwt beam="2">0</pdfrwt>
<totfact> 0.11884486E+04</totfact>
</mgrwt>
</event>
<event>
 6    1  0.1198667E-001  0.3000000E+03  0.7818608E-02  0.1093470E+00
         21   -1    0    0  501  502  0.00000000000E+00  0.00000000000E+00  0.20080338743E+01  0.20080338743E+01  0.00000000000E+00 0. -1.
         13   -1    0    0    0    0 -0.00000000000E+00 -0.00000000000E+00 -0.10000000000E+04  0.10000000000E+04  0.00000000000E+00 0.  1.
    9000005    2    1    2  501    0 -0.21878051489E+02 -0.23833064324E+02 -0.84512450215E+03  0.84575463189E+03  0.43369484680E+01 0.  0.
         13    1    3    3    0    0 -0.20911410123E+02 -0.21869938970E+02 -0.80732278006E+03  0.80788962891E+03  0.00000000000E+00 0.  1.
          1    1    3    3  501    0 -0.96664136589E+00 -0.19631253546E+01 -0.37801722095E+02  0.37865002972E+02  0.00000000000E+00 0.  1.
         -3    1    1    2    0  502  0.21878051489E+02  0.23833064324E+02 -0.15286746397E+03  0.15625340199E+03  0.00000000000E+00 0. -1.
<mgrwt>
<rscale>  1 0.30000000E+03</rscale>
<asrwt>0</asrwt>
<pdfrwt beam="1">  1       21 0.73019568E-02 0.30000000E+03</pdfrwt>
<pdfrwt beam="2">0</pdfrwt>
<totfact> 0.14989913E+04</totfact>
</mgrwt>
</event>
<event>
 6    1  0.1198667E-001  0.3000000E+03  0.7818608E-02  0.1093470E+00
         21   -1    0    0  501  502  0.00000000000E+00  0.00000000000E+00  0.10547636254E+01  0.10547636254E+01  0.00000000000E+00 0. -1.
         13   -1    0    0    0    0 -0.00000000000E+00 -0.00000000000E+00 -0.10000000000E+04  0.10000000000E+04  0.00000000000E+00 0.  1.
    9000005    2    1    2  501    0  0.85641745933E+01 -0.31253093659E+02 -0.48045081520E+03  0.48154868499E+03  0.24595202199E+01 0.  0.
         13    1    3    3    0    0  0.44271488126E+01 -0.15172355352E+02 -0.25213789865E+03  0.25263277687E+03  0.00000000000E+00 0.  1.
          3    1    3    3  501    0  0.41370257807E+01 -0.16080738307E+02 -0.22831291654E+03  0.22891590811E+03  0.00000000000E+00 0.  1.
         -3    1    1    2    0  502 -0.85641745933E+01  0.31253093659E+02 -0.51849442118E+03  0.51950607864E+03  0.00000000000E+00 0. -1.
<mgrwt>
<rscale>  1 0.30000000E+03</rscale>
<asrwt>0</asrwt>
<pdfrwt beam="1">  1       21 0.38355122E-02 0.30000000E+03</pdfrwt>
<pdfrwt beam="2">0</pdfrwt>
<totfact> 0.45125166E+04</totfact>
</mgrwt>
</event>
<event>
 6    1  0.1198667E-001  0.3000000E+03  0.7818608E-02  0.1093470E+00
         21   -1    0    0  501  502  0.00000000000E+00  0.00000000000E+00  0.13071568426E+01  0.13071568426E+01  0.00000000000E+00 0. -1.
         13   -1    0    0    0    0 -0.00000000000E+00 -0.00000000000E+00 -0.10000000000E+04  0.10000000000E+04  0.00000000000E+00 0.  1.
    9000005    2    1    2  501    0 -0.45546591740E+01  0.29808200501E+02 -0.77347607952E+03  0.77408069632E+03  0.51385885061E+01 0.  0.
         13    1    3    3    0    0 -0.24703040973E+01  0.48997015034E+01 -0.16575581894E+03  0.16584661887E+03  0.00000000000E+00 0.  1.
          1    1    3    3  501    0 -0.20843550767E+01  0.24908498997E+02 -0.60772026057E+03  0.60823407745E+03  0.00000000000E+00 0.  1.
         -3    1    1    2    0  502  0.45546591740E+01 -0.29808200501E+02 -0.22521676364E+03  0.22722646052E+03  0.00000000000E+00 0. -1.
<mgrwt>
<rscale>  1 0.30000000E+03</rscale>
<asrwt>0</asrwt>
<pdfrwt beam="1">  1       21 0.47533076E-02 0.30000000E+03</pdfrwt>
<pdfrwt beam="2">0</pdfrwt>
<totfact> 0.31396354E+04</totfact>
</mgrwt>
</event>
<event>
 6    1  0.1198667E-001  0.3000000E+03  0.7818608E-02  0.1093470E+00
         21   -1    0    0  501  502  0.00000000000E+00  0.00000000000E+00  0.11415718642E+01  0.11415718642E+01  0.00000000000E+00 0. -1.
         13   -1    0    0    0    0 -0.00000000000E+00 -0.00000000000E+00 -0.10000000000E+04  0.10000000000E+04  0.00000000000E+00 0.  1.
    9000005    2    1    2  501    0 -0.14355810516E+01  0.33420862041E+02 -0.46304310759E+03  0.46428304987E+03  0.55512153625E+01 0.  0.
         13    1    3    3    0    0 -0.18145679187E+01  0.96149615318E+01 -0.16542642273E+03  0.16571554387E+03  0.00000000000E+00 0.  1.
          1    1    3    3  501    0  0.37898686718E+00  0.23805900509E+02 -0.29761668486E+03  0.29856750599E+03  0.00000000000E+00 0.  1.
         -1    1    1    2    0  502  0.14355810516E+01 -0.33420862041E+02 -0.53581532054E+03  0.53685852200E+03  0.00000000000E+00 0. -1.
<mgrwt>
<rscale>  1 0.30000000E+03</rscale>
<asrwt>0</asrwt>
<pdfrwt beam="1">  1       21 0.41511792E-02 0.30000000E+03</pdfrwt>
<pdfrwt beam="2">0</pdfrwt>
<totfact> 0.39498383E+04</totfact>
</mgrwt>
</event>
<event>
 6    1  0.1198667E-001  0.3000000E+03  0.7818608E-02  0.1093470E+00
         21   -1    0    0  501  502  0.00000000000E+00  0.00000000000E+00  0.12038069930E+01  0.12038069930E+01  0.00000000000E+00 0. -1.
         13   -1    0    0    0    0 -0.00000000000E+00 -0.00000000000E+00 -0.10000000000E+04  0.10000000000E+04  0.00000000000E+00 0.  1.
    9000005    2    1    2  501    0  0.16143675873E+02  0.30538207607E+02 -0.47322282701E+03  0.47449652259E+03  0.37290152897E+01 0.  0.
         13    1    3    3    0    0  0.14484176791E+02  0.28844408578E+02 -0.43077438312E+03  0.43198189828E+03  0.00000000000E+00 0.  1.
          1    1    3    3  501    0  0.16594990820E+01  0.16937990287E+01 -0.42448443887E+02  0.42514624317E+02  0.00000000000E+00 0.  1.
         -3    1    1    2    0  502 -0.16143675873E+02 -0.30538207607E+02 -0.52557336600E+03  0.52670728440E+03  0.00000000000E+00 0. -1.
<mgrwt>
<rscale>  1 0.30000000E+03</rscale>
<asrwt>0</asrwt>
<pdfrwt beam="1">  1       21 0.43774892E-02 0.30000000E+03</pdfrwt>
<pdfrwt beam="2">0</pdfrwt>
<totfact> 0.36108725E+04</totfact>
</mgrwt>
</event>
<event>
 6    1  0.1198667E-001  0.3000000E+03  0.7818608E-02  0.1093470E+00
         21   -1    0    0  501  502  0.00000000000E+00  0.00000000000E+00  0.78179799145E+01  0.78179799145E+01  0.00000000000E+00 0. -1.
         13   -1    0    0    0    0 -0.00000000000E+00 -0.00000000000E+00 -0.10000000000E+04  0.10000000000E+04  0.00000000000E+00 0.  1.
    9000005    2    1    2  501    0  0.60955766970E+02  0.63915927842E+02 -0.51330705045E+03  0.52086614667E+03  0.40698088503E+01 0.  0.
         13    1    3    3    0    0  0.35575989049E+02  0.40119390672E+02 -0.31378419976E+03  0.31833275126E+03  0.00000000000E+00 0.  1.
          1    1    3    3  501    0  0.25379777921E+02  0.23796537171E+02 -0.19952285069E+03  0.20253339541E+03  0.00000000000E+00 0.  1.
         -3    1    1    2    0  502 -0.60955766970E+02 -0.63915927842E+02 -0.47887496963E+03  0.48695183324E+03  0.00000000000E+00 0. -1.
<mgrwt>
<rscale>  1 0.30000000E+03</rscale>
<asrwt>0</asrwt>
<pdfrwt beam="1">  1       21 0.28429078E-01 0.30000000E+03</pdfrwt>
<pdfrwt beam="2">0</pdfrwt>
<totfact> 0.12103147E+03</totfact>
</mgrwt>
</event>
<event>
 6    1  0.1198667E-001  0.3000000E+03  0.7818608E-02  0.1093470E+00
         21   -1    0    0  501  502  0.00000000000E+00  0.00000000000E+00  0.32286041790E+01  0.32286041790E+01  0.00000000000E+00 0. -1.
         13   -1    0    0    0    0 -0.00000000000E+00 -0.00000000000E+00 -0.10000000000E+04  0.10000000000E+04  0.00000000000E+00 0.  1.
    9000005    2    1    2  501    0 -0.36835447601E+02 -0.40770750844E+02 -0.62516370731E+03  0.62758065931E+03  0.29527406267E+01 0.  0.
         13    1    3    3    0    0 -0.23198854042E+02 -0.27756076062E+02 -0.41264090107E+03  0.41422349019E+03  0.00000000000E+00 0.  1.
          3    1    3    3  501    0 -0.13636593559E+02 -0.13014674782E+02 -0.21252280624E+03  0.21335716913E+03  0.00000000000E+00 0.  1.
         -1    1    1    2    0  502  0.36835447601E+02  0.40770750844E+02 -0.37160768851E+03  0.37564794487E+03  0.00000000000E+00 0. -1.
<mgrwt>
<rscale>  1 0.30000000E+03</rscale>
<asrwt>0</asrwt>
<pdfrwt beam="1">  1       21 0.11740404E-01 0.30000000E+03</pdfrwt>
<pdfrwt beam="2">0</pdfrwt>
<totfact> 0.64477328E+03</totfact>
</mgrwt>
</event>
<event>
 6    1  0.1198667E-001  0.3000000E+03  0.7818608E-02  0.1093470E+00
         21   -1    0    0  501  502  0.00000000000E+00  0.00000000000E+00  0.29098712206E+01  0.29098712206E+01  0.00000000000E+00 0. -1.
         13   -1    0    0    0    0 -0.00000000000E+00 -0.00000000000E+00 -0.10000000000E+04  0.10000000000E+04  0.00000000000E+00 0.  1.
    9000005    2    1    2  501    0  0.17102372026E+02  0.37675066106E+02 -0.81790490863E+03  0.81900977646E+03  0.98322241594E+01 0.  0.
         13    1    3    3    0    0  0.94386654882E+01  0.21321613021E+02 -0.36428457458E+03  0.36503006844E+03  0.00000000000E+00 0.  1.
          1    1    3    3  501    0  0.76637065378E+01  0.16353453085E+02 -0.45362033405E+03  0.45397970802E+03  0.00000000000E+00 0.  1.
         -1    1    1    2    0  502 -0.17102372026E+02 -0.37675066106E+02 -0.17918522015E+03  0.18390009477E+03  0.00000000000E+00 0. -1.
<mgrwt>
<rscale>  1 0.30000000E+03</rscale>
<asrwt>0</asrwt>
<pdfrwt beam="1">  1       21 0.10581372E-01 0.30000000E+03</pdfrwt>
<pdfrwt beam="2">0</pdfrwt>
<totfact> 0.77754904E+03</totfact>
</mgrwt>
</event>
<event>
 6    1  0.1198667E-001  0.3000000E+03  0.7818608E-02  0.1093470E+00
         21   -1    0    0  501  502  0.00000000000E+00  0.00000000000E+00  0.23478960046E+01  0.23478960046E+01  0.00000000000E+00 0. -1.
         13   -1    0    0    0    0 -0.00000000000E+00 -0.00000000000E+00 -0.10000000000E+04  0.10000000000E+04  0.00000000000E+00 0.  1.
    9000005    2    1    2  501    0 -0.93272302040E+01  0.29836065335E+02 -0.88151509224E+03  0.88207739456E+03  0.38058023035E+01 0.  0.
         13    1    3    3    0    0 -0.74348420432E+01  0.24452293218E+02 -0.75759358397E+03  0.75802455764E+03  0.00000000000E+00 0.  1.
          1    1    3    3  501    0 -0.18923881607E+01  0.53837721170E+01 -0.12392150828E+03  0.12405283692E+03  0.00000000000E+00 0.  1.
         -3    1    1    2    0  502  0.93272302040E+01 -0.29836065335E+02 -0.11613701175E+03  0.12027050144E+03  0.00000000000E+00 0. -1.
<mgrwt>
<rscale>  1 0.30000000E+03</rscale>
<asrwt>0</asrwt>
<pdfrwt beam="1">  1       21 0.85378217E-02 0.30000000E+03</pdfrwt>
<pdfrwt beam="2">0</pdfrwt>
<totfact> 0.11391712E+04</totfact>
</mgrwt>
</event>
<event>
 6    1  0.1198667E-001  0.3000000E+03  0.7818608E-02  0.1093470E+00
         21   -1    0    0  501  502  0.00000000000E+00  0.00000000000E+00  0.18719075966E+01  0.18719075966E+01  0.00000000000E+00 0. -1.
         13   -1    0    0    0    0 -0.00000000000E+00 -0.00000000000E+00 -0.10000000000E+04  0.10000000000E+04  0.00000000000E+00 0.  1.
    9000005    2    1    2  501    0 -0.33997961273E+02  0.24772918685E+02 -0.39053929954E+03  0.39282864141E+03  0.48824336164E+01 0.  0.
         13    1    3    3    0    0 -0.10302931608E+02  0.49622513146E+01 -0.11190886008E+03  0.11249163215E+03  0.00000000000E+00 0.  1.
          3    1    3    3  501    0 -0.23695029665E+02  0.19810667370E+02 -0.27863043945E+03  0.28033700926E+03  0.00000000000E+00 0.  1.
         -1    1    1    2    0  502  0.33997961273E+02 -0.24772918685E+02 -0.60758879287E+03  0.60904326619E+03  0.00000000000E+00 0. -1.
<mgrwt>
<rscale>  1 0.30000000E+03</rscale>
<asrwt>0</asrwt>
<pdfrwt beam="1">  1       21 0.68069511E-02 0.30000000E+03</pdfrwt>
<pdfrwt beam="2">0</pdfrwt>
<totfact> 0.16939116E+04</totfact>
</mgrwt>
</event>
<event>
 6    1  0.1198667E-001  0.3000000E+03  0.7818608E-02  0.1093470E+00
         21   -1    0    0  501  502  0.00000000000E+00  0.00000000000E+00  0.20135629319E+01  0.20135629319E+01  0.00000000000E+00 0. -1.
         13   -1    0    0    0    0 -0.00000000000E+00 -0.00000000000E+00 -0.10000000000E+04  0.10000000000E+04  0.00000000000E+00 0.  1.
    9000005    2    1    2  501    0  0.31457988377E+02  0.24531033068E+02 -0.72720361745E+03  0.72830804231E+03  0.40158002423E+01 0.  0.
         13    1    3    3    0    0  0.10945388523E+02  0.80037086327E+01 -0.28195200618E+03  0.28227786784E+03  0.00000000000E+00 0.  1.
          1    1    3    3  501    0  0.20512599854E+02  0.16527324435E+02 -0.44525161127E+03  0.44603017448E+03  0.00000000000E+00 0.  1.
         -3    1    1    2    0  502 -0.31457988377E+02 -0.24531033068E+02 -0.27078281962E+03  0.27370552062E+03  0.00000000000E+00 0. -1.
<mgrwt>
<rscale>  1 0.30000000E+03</rscale>
<asrwt>0</asrwt>
<pdfrwt beam="1">  1       21 0.73220625E-02 0.30000000E+03</pdfrwt>
<pdfrwt beam="2">0</pdfrwt>
<totfact> 0.14918076E+04</totfact>
</mgrwt>
</event>
<event>
 6    1  0.1198667E-001  0.3000000E+03  0.7818608E-02  0.1093470E+00
         21   -1    0    0  501  502  0.00000000000E+00  0.00000000000E+00  0.11390992065E+01  0.11390992065E+01  0.00000000000E+00 0. -1.
         13   -1    0    0    0    0 -0.00000000000E+00 -0.00000000000E+00 -0.10000000000E+04  0.10000000000E+04  0.00000000000E+00 0.  1.
    9000005    2    1    2  501    0  0.96460423796E+01  0.28915563035E+02 -0.71276399592E+03  0.71342292848E+03  0.32565444855E+01 0.  0.
         13    1    3    3    0    0  0.47517979843E+01  0.10149012252E+02 -0.24079593420E+03  0.24105655760E+03  0.00000000000E+00 0.  1.
          1    1    3    3  501    0  0.48942443952E+01  0.18766550783E+02 -0.47196806171E+03  0.47236637087E+03  0.00000000000E+00 0.  1.
         -1    1    1    2    0  502 -0.96460423796E+01 -0.28915563035E+02 -0.28609690488E+03  0.28771617073E+03  0.00000000000E+00 0. -1.
<mgrwt>
<rscale>  1 0.30000000E+03</rscale>
<asrwt>0</asrwt>
<pdfrwt beam="1">  1       21 0.41421877E-02 0.30000000E+03</pdfrwt>
<pdfrwt beam="2">0</pdfrwt>
<totfact> 0.39643163E+04</totfact>
</mgrwt>
</event>
<event>
 6    1  0.1198667E-001  0.3000000E+03  0.7818608E-02  0.1093470E+00
         21   -1    0    0  501  502  0.00000000000E+00  0.00000000000E+00  0.48395163306E+01  0.48395163306E+01  0.00000000000E+00 0. -1.
         13   -1    0    0    0    0 -0.00000000000E+00 -0.00000000000E+00 -0.10000000000E+04  0.10000000000E+04  0.00000000000E+00 0.  1.
    9000005    2    1    2  501    0 -0.35596803321E+01 -0.37794462783E+02 -0.91855065384E+03  0.91934004985E+03  0.31194320341E+01 0.  0.
         13    1    3    3    0    0 -0.12363838776E+01 -0.16691656967E+02 -0.44177614464E+03  0.44209309204E+03  0.00000000000E+00 0.  1.
          3    1    3    3  501    0 -0.23232964545E+01 -0.21102805816E+02 -0.47677450920E+03  0.47724695781E+03  0.00000000000E+00 0.  1.
         -3    1    1    2    0  502  0.35596803321E+01  0.37794462783E+02 -0.76609829831E+02  0.85499466477E+02  0.00000000000E+00 0. -1.
<mgrwt>
<rscale>  1 0.30000000E+03</rscale>
<asrwt>0</asrwt>
<pdfrwt beam="1">  1       21 0.17598278E-01 0.30000000E+03</pdfrwt>
<pdfrwt beam="2">0</pdfrwt>
<totfact> 0.30566191E+03</totfact>
</mgrwt>
</event>
<event>
 6    1  0.1198667E-001  0.3000000E+03  0.7818608E-02  0.1093470E+00
         21   -1    0    0  501  502  0.00000000000E+00  0.00000000000E+00  0.24707398589E+01  0.24707398589E+01  0.00000000000E+00 0. -1.
         13   -1    0    0    0    0 -0.00000000000E+00 -0.00000000000E+00 -0.10000000000E+04  0.10000000000E+04  0.00000000000E+00 0.  1.
    9000005    2    1    2  501    0 -0.24829409161E+02 -0.25332239803E+02 -0.84853337487E+03  0.84931070669E+03  0.78464193384E+01 0.  0.
         13    1    3    3    0    0 -0.24098623585E+01 -0.53909215311E+01 -0.97942081971E+02  0.98119931168E+02  0.00000000000E+00 0.  1.
          3    1    3    3  501    0 -0.22419546802E+02 -0.19941318272E+02 -0.75059129290E+03  0.75119077552E+03  0.00000000000E+00 0.  1.
         -3    1    1    2    0  502  0.24829409161E+02  0.25332239803E+02 -0.14899588527E+03  0.15316003317E+03  0.00000000000E+00 0. -1.
<mgrwt>
<rscale>  1 0.30000000E+03</rscale>
<asrwt>0</asrwt>
<pdfrwt beam="1">  1       21 0.89845275E-02 0.30000000E+03</pdfrwt>
<pdfrwt beam="2">0</pdfrwt>
<totfact> 0.10409772E+04</totfact>
</mgrwt>
</event>
<event>
 6    1  0.1198667E-001  0.3000000E+03  0.7818608E-02  0.1093470E+00
         21   -1    0    0  501  502  0.00000000000E+00  0.00000000000E+00  0.11274965036E+01  0.11274965036E+01  0.00000000000E+00 0. -1.
         13   -1    0    0    0    0 -0.00000000000E+00 -0.00000000000E+00 -0.10000000000E+04  0.10000000000E+04  0.00000000000E+00 0.  1.
    9000005    2    1    2  501    0  0.32323516858E+02 -0.82571164474E+01 -0.52788191923E+03  0.52895684919E+03  0.47997858377E+01 0.  0.
         13    1    3    3    0    0  0.25674480716E+02 -0.46804433453E+01 -0.42182200031E+03  0.42262854312E+03  0.00000000000E+00 0.  1.
          1    1    3    3  501    0  0.66490361421E+01 -0.35766731021E+01 -0.10605991892E+03  0.10632830608E+03  0.00000000000E+00 0.  1.
         -1    1    1    2    0  502 -0.32323516858E+02  0.82571164474E+01 -0.47099058427E+03  0.47217064731E+03  0.00000000000E+00 0. -1.
<mgrwt>
<rscale>  1 0.30000000E+03</rscale>
<asrwt>0</asrwt>
<pdfrwt beam="1">  1       21 0.40999959E-02 0.30000000E+03</pdfrwt>
<pdfrwt beam="2">0</pdfrwt>
<totfact> 0.40333703E+04</totfact>
</mgrwt>
</event>
<event>
 6    1  0.1198667E-001  0.3000000E+03  0.7818608E-02  0.1093470E+00
         21   -1    0    0  501  502  0.00000000000E+00  0.00000000000E+00  0.26518686361E+01  0.26518686361E+01  0.00000000000E+00 0. -1.
         13   -1    0    0    0    0 -0.00000000000E+00 -0.00000000000E+00 -0.10000000000E+04  0.10000000000E+04  0.00000000000E+00 0.  1.
    9000005    2    1    2  501    0  0.11025420546E+02 -0.49678562010E+02 -0.54357991055E+03  0.54603921261E+03  0.94964800649E+01 0.  0.
         13    1    3    3    0    0  0.10084314762E+02 -0.42381252724E+02 -0.49387456708E+03  0.49579224680E+03  0.00000000000E+00 0.  1.
          1    1    3    3  501    0  0.94110578424E+00 -0.72973092863E+01 -0.49705343477E+02  0.50246965810E+02  0.00000000000E+00 0.  1.
         -3    1    1    2    0  502 -0.11025420546E+02  0.49678562010E+02 -0.45376822081E+03  0.45661265602E+03  0.00000000000E+00 0. -1.
<mgrwt>
<rscale>  1 0.30000000E+03</rscale>
<asrwt>0</asrwt>
<pdfrwt beam="1">  1       21 0.96431790E-02 0.30000000E+03</pdfrwt>
<pdfrwt beam="2">0</pdfrwt>
<totfact> 0.91796629E+03</totfact>
</mgrwt>
</event>
<event>
 6    1  0.1198667E-001  0.3000000E+03  0.7818608E-02  0.1093470E+00
         21   -1    0    0  501  502  0.00000000000E+00  0.00000000000E+00  0.17085377553E+01  0.17085377553E+01  0.00000000000E+00 0. -1.
         13   -1    0    0    0    0 -0.00000000000E+00 -0.00000000000E+00 -0.10000000000E+04  0.10000000000E+04  0.00000000000E+00 0.  1.
    9000005    2    1    2  501    0  0.17764359889E+02  0.35689453040E+02 -0.62933638919E+03  0.63060591654E+03  0.31971354584E+01 0.  0.
         13    1    3    3    0    0  0.26076000831E+01  0.70571323520E+01 -0.10430952077E+03  0.10458048966E+03  0.00000000000E+00 0.  1.
          1    1    3    3  501    0  0.15156759806E+02  0.28632320687E+02 -0.52502686842E+03  0.52602542687E+03  0.00000000000E+00 0.  1.
         -1    1    1    2    0  502 -0.17764359889E+02 -0.35689453040E+02 -0.36895507306E+03  0.37110262122E+03  0.00000000000E+00 0. -1.
<mgrwt>
<rscale>  1 0.30000000E+03</rscale>
<asrwt>0</asrwt>
<pdfrwt beam="1">  1       21 0.62128777E-02 0.30000000E+03</pdfrwt>
<pdfrwt beam="2">0</pdfrwt>
<totfact> 0.19841109E+04</totfact>
</mgrwt>
</event>
<event>
 6    1  0.1198667E-001  0.3000000E+03  0.7818608E-02  0.1093470E+00
         21   -1    0    0  501  502  0.00000000000E+00  0.00000000000E+00  0.38289750290E+01  0.38289750290E+01  0.00000000000E+00 0. -1.
         13   -1    0    0    0    0 -0.00000000000E+00 -0.00000000000E+00 -0.10000000000E+04  0.10000000000E+04  0.00000000000E+00 0.  1.
    9000005    2    1    2  501    0 -0.32076719908E+02  0.17233052048E+01 -0.92702138304E+03  0.92758227858E+03  0.28901855003E+01 0.  0.
         13    1    3    3    0    0 -0.17607765553E+02 -0.12162157902E-01 -0.53793095612E+03  0.53821905123E+03  0.00000000000E+00 0.  1.
          1    1    3    3  501    0 -0.14468954355E+02  0.17354673627E+01 -0.38909042693E+03  0.38936322735E+03  0.00000000000E+00 0.  1.
         -1    1    1    2    0  502  0.32076719908E+02 -0.17233052048E+01 -0.69149641928E+02  0.76246696451E+02  0.00000000000E+00 0. -1.
<mgrwt>
<rscale>  1 0.30000000E+03</rscale>
<asrwt>0</asrwt>
<pdfrwt beam="1">  1       21 0.13923575E-01 0.30000000E+03</pdfrwt>
<pdfrwt beam="2">0</pdfrwt>
<totfact> 0.47239373E+03</totfact>
</mgrwt>
</event>
<event>
 6    1  0.1198667E-001  0.3000000E+03  0.7818608E-02  0.1093470E+00
         21   -1    0    0  501  502  0.00000000000E+00  0.00000000000E+00  0.32642599367E+01  0.32642599367E+01  0.00000000000E+00 0. -1.
         13   -1    0    0    0    0 -0.00000000000E+00 -0.00000000000E+00 -0.10000000000E+04  0.10000000000E+04  0.00000000000E+00 0.  1.
    9000005    2    1    2  501    0 -0.27716652222E+02 -0.31497158326E+02 -0.83868114372E+03  0.83973585501E+03  0.31561944346E+01 0.  0.
         13    1    3    3    0    0 -0.24176145181E+02 -0.25747170449E+02 -0.70776837950E+03  0.70864905405E+03  0.00000000000E+00 0.  1.
          3    1    3    3  501    0 -0.35405070411E+01 -0.57499878769E+01 -0.13091276421E+03  0.13108680095E+03  0.00000000000E+00 0.  1.
         -1    1    1    2    0  502  0.27716652222E+02  0.31497158326E+02 -0.15805459635E+03  0.16352840493E+03  0.00000000000E+00 0. -1.
<mgrwt>
<rscale>  1 0.30000000E+03</rscale>
<asrwt>0</asrwt>
<pdfrwt beam="1">  1       21 0.11870061E-01 0.30000000E+03</pdfrwt>
<pdfrwt beam="2">0</pdfrwt>
<totfact> 0.63207120E+03</totfact>
</mgrwt>
</event>
<event>
 6    1  0.1198667E-001  0.3000000E+03  0.7818608E-02  0.1093470E+00
         21   -1    0    0  501  502  0.00000000000E+00  0.00000000000E+00  0.70942545237E+01  0.70942545237E+01  0.00000000000E+00 0. -1.
         13   -1    0    0    0    0 -0.00000000000E+00 -0.00000000000E+00 -0.10000000000E+04  0.10000000000E+04  0.00000000000E+00 0.  1.
    9000005    2    1    2  501    0  0.34111706125E+02  0.47479334193E+01 -0.95596062874E+03  0.95658590851E+03  0.31185393713E+01 0.  0.
         13    1    3    3    0    0  0.23586112546E+02  0.32181357919E+01 -0.69909602333E+03  0.69950118724E+03  0.00000000000E+00 0.  1.
          3    1    3    3  501    0  0.10525593579E+02  0.15297976274E+01 -0.25686460541E+03  0.25708472128E+03  0.00000000000E+00 0.  1.
         -1    1    1    2    0  502 -0.34111706125E+02 -0.47479334193E+01 -0.36945116732E+02  0.50508346011E+02  0.00000000000E+00 0. -1.
<mgrwt>
<rscale>  1 0.30000000E+03</rscale>
<asrwt>0</asrwt>
<pdfrwt beam="1">  1       21 0.25797344E-01 0.30000000E+03</pdfrwt>
<pdfrwt beam="2">0</pdfrwt>
<totfact> 0.14664180E+03</totfact>
</mgrwt>
</event>
<event>
 6    1  0.1198667E-001  0.3000000E+03  0.7818608E-02  0.1093470E+00
         21   -1    0    0  501  502  0.00000000000E+00  0.00000000000E+00  0.33305337883E+01  0.33305337883E+01  0.00000000000E+00 0. -1.
         13   -1    0    0    0    0 -0.00000000000E+00 -0.00000000000E+00 -0.10000000000E+04  0.10000000000E+04  0.00000000000E+00 0.  1.
    9000005    2    1    2  501    0  0.32659460909E+02  0.14783467938E+02 -0.89134169819E+03  0.89206899494E+03  0.34463726351E+01 0.  0.
         13    1    3    3    0    0  0.27891732982E+02  0.12699442006E+02 -0.72892289386E+03  0.72956686451E+03  0.00000000000E+00 0.  1.
          3    1    3    3  501    0  0.47677279263E+01  0.20840259325E+01 -0.16241880433E+03  0.16250213043E+03  0.00000000000E+00 0.  1.
         -3    1    1    2    0  502 -0.32659460909E+02 -0.14783467938E+02 -0.10532776802E+03  0.11126153885E+03  0.00000000000E+00 0. -1.
<mgrwt>
<rscale>  1 0.30000000E+03</rscale>
<asrwt>0</asrwt>
<pdfrwt beam="1">  1       21 0.12111057E-01 0.30000000E+03</pdfrwt>
<pdfrwt beam="2">0</pdfrwt>
<totfact> 0.60943134E+03</totfact>
</mgrwt>
</event>
<event>
 6    1  0.1198667E-001  0.3000000E+03  0.7818608E-02  0.1093470E+00
         21   -1    0    0  501  502  0.00000000000E+00  0.00000000000E+00  0.62512317453E+01  0.62512317453E+01  0.00000000000E+00 0. -1.
         13   -1    0    0    0    0 -0.00000000000E+00 -0.00000000000E+00 -0.10000000000E+04  0.10000000000E+04  0.00000000000E+00 0.  1.
    9000005    2    1    2  501    0 -0.28968060766E+01  0.30069814353E+02 -0.96178201737E+03  0.96226875361E+03  0.48908098181E+01 0.  0.
         13    1    3    3    0    0 -0.35831773893E+01  0.27209685453E+02 -0.82899651315E+03  0.82945067662E+03  0.00000000000E+00 0.  1.
          1    1    3    3  501    0  0.68637131270E+00  0.28601289002E+01 -0.13278550422E+03  0.13281807699E+03  0.00000000000E+00 0.  1.
         -3    1    1    2    0  502  0.28968060766E+01 -0.30069814353E+02 -0.31966750886E+02  0.43982478135E+02  0.00000000000E+00 0. -1.
<mgrwt>
<rscale>  1 0.30000000E+03</rscale>
<asrwt>0</asrwt>
<pdfrwt beam="1">  1       21 0.22731800E-01 0.30000000E+03</pdfrwt>
<pdfrwt beam="2">0</pdfrwt>
<totfact> 0.18763537E+03</totfact>
</mgrwt>
</event>
<event>
 6    1  0.1198667E-001  0.3000000E+03  0.7818608E-02  0.1093470E+00
         21   -1    0    0  501  502  0.00000000000E+00  0.00000000000E+00  0.10923676277E+01  0.10923676277E+01  0.00000000000E+00 0. -1.
         13   -1    0    0    0    0 -0.00000000000E+00 -0.00000000000E+00 -0.10000000000E+04  0.10000000000E+04  0.00000000000E+00 0.  1.
    9000005    2    1    2  501    0  0.26680652870E+02 -0.17768447806E+02 -0.61774021060E+03  0.61857938956E+03  0.31493511374E+01 0.  0.
         13    1    3    3    0    0  0.21118554071E+02 -0.14546812870E+02 -0.51534840175E+03  0.51598602527E+03  0.00000000000E+00 0.  1.
          3    1    3    3  501    0  0.55620987998E+01 -0.32216349360E+01 -0.10239180885E+03  0.10259336428E+03  0.00000000000E+00 0.  1.
         -3    1    1    2    0  502 -0.26680652870E+02  0.17768447806E+02 -0.38116742177E+03  0.38251297807E+03  0.00000000000E+00 0. -1.
<mgrwt>
<rscale>  1 0.30000000E+03</rscale>
<asrwt>0</asrwt>
<pdfrwt beam="1">  1       21 0.39722543E-02 0.30000000E+03</pdfrwt>
<pdfrwt beam="2">0</pdfrwt>
<totfact> 0.42543010E+04</totfact>
</mgrwt>
</event>
<event>
 6    1  0.1198667E-001  0.3000000E+03  0.7818608E-02  0.1093470E+00
         21   -1    0    0  501  502  0.00000000000E+00  0.00000000000E+00  0.27496257974E+01  0.27496257974E+01  0.00000000000E+00 0. -1.
         13   -1    0    0    0    0 -0.00000000000E+00 -0.00000000000E+00 -0.10000000000E+04  0.10000000000E+04  0.00000000000E+00 0.  1.
    9000005    2    1    2  501    0  0.46321085124E+02  0.24317300254E+02 -0.48099893100E+03  0.48385413860E+03  0.42286882669E+01 0.  0.
         13    1    3    3    0    0  0.17981443661E+02  0.10686764296E+02 -0.17620790511E+03  0.17744510439E+03  0.00000000000E+00 0.  1.
          3    1    3    3  501    0  0.28339641463E+02  0.13630535958E+02 -0.30479102588E+03  0.30640903421E+03  0.00000000000E+00 0.  1.
         -3    1    1    2    0  502 -0.46321085124E+02 -0.24317300254E+02 -0.51625144321E+03  0.51889548720E+03  0.00000000000E+00 0. -1.
<mgrwt>
<rscale>  1 0.30000000E+03</rscale>
<asrwt>0</asrwt>
<pdfrwt beam="1">  1       21 0.99986603E-02 0.30000000E+03</pdfrwt>
<pdfrwt beam="2">0</pdfrwt>
<totfact> 0.86052574E+03</totfact>
</mgrwt>
</event>
<event>
 6    1  0.1198667E-001  0.3000000E+03  0.7818608E-02  0.1093470E+00
         21   -1    0    0  501  502  0.00000000000E+00  0.00000000000E+00  0.22261469615E+01  0.22261469615E+01  0.00000000000E+00 0. -1.
         13   -1    0    0    0    0 -0.00000000000E+00 -0.00000000000E+00 -0.10000000000E+04  0.10000000000E+04  0.00000000000E+00 0.  1.
    9000005    2    1    2  501    0  0.98653106034E+01  0.41890585324E+02 -0.29521879097E+03  0.29835416945E+03  0.29883762480E+01 0.  0.
         13    1    3    3    0    0  0.13308119954E+01  0.30421609181E+01 -0.26642145103E+02  0.26848271812E+02  0.00000000000E+00 0.  1.
          3    1    3    3  501    0  0.85344986081E+01  0.38848424406E+02 -0.26857664587E+03  0.27150589764E+03  0.00000000000E+00 0.  1.
         -1    1    1    2    0  502 -0.98653106034E+01 -0.41890585324E+02 -0.70255506207E+03  0.70387197751E+03  0.00000000000E+00 0. -1.
<mgrwt>
<rscale>  1 0.30000000E+03</rscale>
<asrwt>0</asrwt>
<pdfrwt beam="1">  1       21 0.80950969E-02 0.30000000E+03</pdfrwt>
<pdfrwt beam="2">0</pdfrwt>
<totfact> 0.12511377E+04</totfact>
</mgrwt>
</event>
<event>
 6    1  0.1198667E-001  0.3000000E+03  0.7818608E-02  0.1093470E+00
         21   -1    0    0  501  502  0.00000000000E+00  0.00000000000E+00  0.35357994872E+01  0.35357994872E+01  0.00000000000E+00 0. -1.
         13   -1    0    0    0    0 -0.00000000000E+00 -0.00000000000E+00 -0.10000000000E+04  0.10000000000E+04  0.00000000000E+00 0.  1.
    9000005    2    1    2  501    0  0.54672575578E+01 -0.48497421969E+02 -0.78458032202E+03  0.78610381286E+03  0.33214532156E+01 0.  0.
         13    1    3    3    0    0  0.53864351226E+01 -0.46806990829E+02 -0.76549128956E+03  0.76693990799E+03  0.00000000000E+00 0.  1.
          3    1    3    3  501    0  0.80822435257E-01 -0.16904311404E+01 -0.19089032465E+02  0.19163904877E+02  0.00000000000E+00 0.  1.
         -3    1    1    2    0  502 -0.54672575578E+01  0.48497421969E+02 -0.21188387849E+03  0.21743198662E+03  0.00000000000E+00 0. -1.
<mgrwt>
<rscale>  1 0.30000000E+03</rscale>
<asrwt>0</asrwt>
<pdfrwt beam="1">  1       21 0.12857480E-01 0.30000000E+03</pdfrwt>
<pdfrwt beam="2">0</pdfrwt>
<totfact> 0.54654048E+03</totfact>
</mgrwt>
</event>
<event>
 6    1  0.1198667E-001  0.3000000E+03  0.7818608E-02  0.1093470E+00
         21   -1    0    0  501  502  0.00000000000E+00  0.00000000000E+00  0.32389864295E+01  0.32389864295E+01  0.00000000000E+00 0. -1.
         13   -1    0    0    0    0 -0.00000000000E+00 -0.00000000000E+00 -0.10000000000E+04  0.10000000000E+04  0.00000000000E+00 0.  1.
    9000005    2    1    2  501    0 -0.37614256956E+02 -0.32290554492E+02 -0.74440731942E+03  0.74606220056E+03  0.30062719682E+01 0.  0.
         13    1    3    3    0    0 -0.27461846187E+02 -0.23905955395E+02 -0.56567740255E+03  0.56684792621E+03  0.00000000000E+00 0.  1.
          1    1    3    3  501    0 -0.10152410770E+02 -0.83845990976E+01 -0.17872991687E+03  0.17921427435E+03  0.00000000000E+00 0.  1.
         -1    1    1    2    0  502  0.37614256956E+02  0.32290554492E+02 -0.25235369415E+03  0.25717678587E+03  0.00000000000E+00 0. -1.
<mgrwt>
<rscale>  1 0.30000000E+03</rscale>
<asrwt>0</asrwt>
<pdfrwt beam="1">  1       21 0.11778157E-01 0.30000000E+03</pdfrwt>
<pdfrwt beam="2">0</pdfrwt>
<totfact> 0.64103568E+03</totfact>
</mgrwt>
</event>
<event>
 6    1  0.1198667E-001  0.3000000E+03  0.7818608E-02  0.1093470E+00
         21   -1    0    0  501  502  0.00000000000E+00  0.00000000000E+00  0.21650010337E+01  0.21650010337E+01  0.00000000000E+00 0. -1.
         13   -1    0    0    0    0 -0.00000000000E+00 -0.00000000000E+00 -0.10000000000E+04  0.10000000000E+04  0.00000000000E+00 0.  1.
    9000005    2    1    2  501    0  0.24750961820E+02  0.29821148228E+02 -0.22372125688E+03  0.22708178184E+03  0.36088599127E+01 0.  0.
         13    1    3    3    0    0  0.17879488523E+02  0.19361653291E+02 -0.15712387514E+03  0.15931874298E+03  0.00000000000E+00 0.  1.
          3    1    3    3  501    0  0.68714732972E+01  0.10459494937E+02 -0.66597381745E+02  0.67763038855E+02  0.00000000000E+00 0.  1.
         -1    1    1    2    0  502 -0.24750961820E+02 -0.29821148228E+02 -0.77411374208E+03  0.77508321919E+03  0.00000000000E+00 0. -1.
<mgrwt>
<rscale>  1 0.30000000E+03</rscale>
<asrwt>0</asrwt>
<pdfrwt beam="1">  1       21 0.78727476E-02 0.30000000E+03</pdfrwt>
<pdfrwt beam="2">0</pdfrwt>
<totfact> 0.13138579E+04</totfact>
</mgrwt>
</event>
<event>
 6    1  0.1198667E-001  0.3000000E+03  0.7818608E-02  0.1093470E+00
         21   -1    0    0  501  502  0.00000000000E+00  0.00000000000E+00  0.22863102952E+01  0.22863102952E+01  0.00000000000E+00 0. -1.
         13   -1    0    0    0    0 -0.00000000000E+00 -0.00000000000E+00 -0.10000000000E+04  0.10000000000E+04  0.00000000000E+00 0.  1.
    9000005    2    1    2  501    0 -0.13378752877E+02  0.28461954411E+02 -0.87600096041E+03  0.87657607862E+03  0.43433947886E+01 0.  0.
         13    1    3    3    0    0 -0.28042362590E+01  0.28509599097E+01 -0.96534144205E+02  0.96616938012E+02  0.00000000000E+00 0.  1.
          3    1    3    3  501    0 -0.10574516618E+02  0.25610994501E+02 -0.77946681621E+03  0.77995914060E+03  0.00000000000E+00 0.  1.
         -3    1    1    2    0  502  0.13378752877E+02 -0.28461954411E+02 -0.12171272929E+03  0.12571023168E+03  0.00000000000E+00 0. -1.
<mgrwt>
<rscale>  1 0.30000000E+03</rscale>
<asrwt>0</asrwt>
<pdfrwt beam="1">  1       21 0.83138732E-02 0.30000000E+03</pdfrwt>
<pdfrwt beam="2">0</pdfrwt>
<totfact> 0.11938013E+04</totfact>
</mgrwt>
</event>
<event>
 6    1  0.1198667E-001  0.3000000E+03  0.7818608E-02  0.1093470E+00
         21   -1    0    0  501  502  0.00000000000E+00  0.00000000000E+00  0.66024812800E+01  0.66024812800E+01  0.00000000000E+00 0. -1.
         13   -1    0    0    0    0 -0.00000000000E+00 -0.00000000000E+00 -0.10000000000E+04  0.10000000000E+04  0.00000000000E+00 0.  1.
    9000005    2    1    2  501    0 -0.57470271381E+01 -0.30879657596E+02 -0.96085627683E+03  0.96137512233E+03  0.32801720675E+01 0.  0.
         13    1    3    3    0    0 -0.22498240820E-01 -0.48183564129E+01 -0.12402853438E+03  0.12412209475E+03  0.00000000000E+00 0.  1.
          1    1    3    3  501    0 -0.57245288973E+01 -0.26061301183E+02 -0.83682774245E+03  0.83725302758E+03  0.00000000000E+00 0.  1.
         -3    1    1    2    0  502  0.57470271381E+01  0.30879657596E+02 -0.32541241887E+02  0.45227358951E+02  0.00000000000E+00 0. -1.
<mgrwt>
<rscale>  1 0.30000000E+03</rscale>
<asrwt>0</asrwt>
<pdfrwt beam="1">  1       21 0.24009073E-01 0.30000000E+03</pdfrwt>
<pdfrwt beam="2">0</pdfrwt>
<totfact> 0.16876660E+03</totfact>
</mgrwt>
</event>
<event>
 6    1  0.1198667E-001  0.3000000E+03  0.7818608E-02  0.1093470E+00
         21   -1    0    0  501  502  0.00000000000E+00  0.00000000000E+00  0.64317418953E+01  0.64317418953E+01  0.00000000000E+00 0. -1.
         13   -1    0    0    0    0 -0.00000000000E+00 -0.00000000000E+00 -0.10000000000E+04  0.10000000000E+04  0.00000000000E+00 0.  1.
    9000005    2    1    2  501    0 -0.45957312541E+02  0.27479972495E+02 -0.87133239233E+03  0.87298201224E+03  0.31987966531E+01 0.  0.
         13    1    3    3    0    0 -0.41594589275E+02  0.25723272383E+02 -0.78580448667E+03  0.78732489346E+03  0.00000000000E+00 0.  1.
          3    1    3    3  501    0 -0.43627232660E+01  0.17567001121E+01 -0.85527905669E+02  0.85657118780E+02  0.00000000000E+00 0.  1.
         -3    1    1    2    0  502  0.45957312541E+02 -0.27479972495E+02 -0.12223586577E+03  0.13344972965E+03  0.00000000000E+00 0. -1.
<mgrwt>
<rscale>  1 0.30000000E+03</rscale>
<asrwt>0</asrwt>
<pdfrwt beam="1">  1       21 0.23388202E-01 0.30000000E+03</pdfrwt>
<pdfrwt beam="2">0</pdfrwt>
<totfact> 0.17757669E+03</totfact>
</mgrwt>
</event>
<event>
 6    1  0.1198667E-001  0.3000000E+03  0.7818608E-02  0.1093470E+00
         21   -1    0    0  501  502  0.00000000000E+00  0.00000000000E+00  0.40592081021E+01  0.40592081021E+01  0.00000000000E+00 0. -1.
         13   -1    0    0    0    0 -0.00000000000E+00 -0.00000000000E+00 -0.10000000000E+04  0.10000000000E+04  0.00000000000E+00 0.  1.
    9000005    2    1    2  501    0 -0.31351779469E+02 -0.67307642862E+01 -0.93171292264E+03  0.93227162942E+03  0.36309147047E+01 0.  0.
         13    1    3    3    0    0 -0.92573778992E+01 -0.31144821997E+01 -0.32056348033E+03  0.32071224481E+03  0.00000000000E+00 0.  1.
          1    1    3    3  501    0 -0.22094401570E+02 -0.36162820864E+01 -0.61114944231E+03  0.61155938461E+03  0.00000000000E+00 0.  1.
         -1    1    1    2    0  502  0.31351779469E+02  0.67307642862E+01 -0.64227869257E+02  0.71787578682E+02  0.00000000000E+00 0. -1.
<mgrwt>
<rscale>  1 0.30000000E+03</rscale>
<asrwt>0</asrwt>
<pdfrwt beam="1">  1       21 0.14760788E-01 0.30000000E+03</pdfrwt>
<pdfrwt beam="2">0</pdfrwt>
<totfact> 0.42422898E+03</totfact>
</mgrwt>
</event>
<event>
 6    1  0.1198667E-001  0.3000000E+03  0.7818608E-02  0.1093470E+00
         21   -1    0    0  501  502  0.00000000000E+00  0.00000000000E+00  0.10329011521E+01  0.10329011521E+01  0.00000000000E+00 0. -1.
         13   -1    0    0    0    0 -0.00000000000E+00 -0.00000000000E+00 -0.10000000000E+04  0.10000000000E+04  0.00000000000E+00 0.  1.
    9000005    2    1    2  501    0  0.30713666348E+02  0.36516366238E+01 -0.63362418998E+03  0.63438306164E+03  0.23645345572E+01 0.  0.
         13    1    3    3    0    0  0.13156676150E+01  0.56960611923E+00 -0.35445264800E+02  0.35474247408E+02  0.00000000000E+00 0.  1.
          3    1    3    3  501    0  0.29397998733E+02  0.30820305046E+01 -0.59817892518E+03  0.59890881424E+03  0.00000000000E+00 0.  1.
         -1    1    1    2    0  502 -0.30713666348E+02 -0.36516366238E+01 -0.36534290887E+03  0.36664983951E+03  0.00000000000E+00 0. -1.
<mgrwt>
<rscale>  1 0.30000000E+03</rscale>
<asrwt>0</asrwt>
<pdfrwt beam="1">  1       21 0.37560121E-02 0.30000000E+03</pdfrwt>
<pdfrwt beam="2">0</pdfrwt>
<totfact> 0.46741361E+04</totfact>
</mgrwt>
</event>
<event>
 6    1  0.1198667E-001  0.3000000E+03  0.7818608E-02  0.1093470E+00
         21   -1    0    0  501  502  0.00000000000E+00  0.00000000000E+00  0.25471361906E+01  0.25471361906E+01  0.00000000000E+00 0. -1.
         13   -1    0    0    0    0 -0.00000000000E+00 -0.00000000000E+00 -0.10000000000E+04  0.10000000000E+04  0.00000000000E+00 0.  1.
    9000005    2    1    2  501    0 -0.13700647080E+02 -0.38905998945E+02 -0.78713381030E+03  0.78822147568E+03  0.34748987626E+01 0.  0.
         13    1    3    3    0    0 -0.13109915196E+02 -0.34462013167E+02 -0.71193189951E+03  0.71288605666E+03  0.00000000000E+00 0.  1.
          1    1    3    3  501    0 -0.59073188327E+00 -0.44439857777E+01 -0.75201910782E+02  0.75335419020E+02  0.00000000000E+00 0.  1.
         -1    1    1    2    0  502  0.13700647080E+02  0.38905998945E+02 -0.21031905351E+03  0.21432566051E+03  0.00000000000E+00 0. -1.
<mgrwt>
<rscale>  1 0.30000000E+03</rscale>
<asrwt>0</asrwt>
<pdfrwt beam="1">  1       21 0.92623330E-02 0.30000000E+03</pdfrwt>
<pdfrwt beam="2">0</pdfrwt>
<totfact> 0.98623585E+03</totfact>
</mgrwt>
</event>
<event>
 6    1  0.1198667E-001  0.3000000E+03  0.7818608E-02  0.1093470E+00
         21   -1    0    0  501  502  0.00000000000E+00  0.00000000000E+00  0.17597154294E+01  0.17597154294E+01  0.00000000000E+00 0. -1.
         13   -1    0    0    0    0 -0.00000000000E+00 -0.00000000000E+00 -0.10000000000E+04  0.10000000000E+04  0.00000000000E+00 0.  1.
    9000005    2    1    2  501    0  0.20636627855E+01  0.32096002411E+02 -0.82022441206E+03  0.82086178029E+03  0.34006049157E+01 0.  0.
         13    1    3    3    0    0  0.33668179881E+00  0.25815552619E+02 -0.64653713656E+03  0.64705241291E+03  0.00000000000E+00 0.  1.
          1    1    3    3  501    0  0.17269809867E+01  0.62804497918E+01 -0.17368727551E+03  0.17380936737E+03  0.00000000000E+00 0.  1.
         -3    1    1    2    0  502 -0.20636627855E+01 -0.32096002411E+02 -0.17801587251E+03  0.18089793514E+03  0.00000000000E+00 0. -1.
<mgrwt>
<rscale>  1 0.30000000E+03</rscale>
<asrwt>0</asrwt>
<pdfrwt beam="1">  1       21 0.63989787E-02 0.30000000E+03</pdfrwt>
<pdfrwt beam="2">0</pdfrwt>
<totfact> 0.18854281E+04</totfact>
</mgrwt>
</event>
<event>
 6    1  0.1198667E-001  0.3000000E+03  0.7818608E-02  0.1093470E+00
         21   -1    0    0  501  502  0.00000000000E+00  0.00000000000E+00  0.45482908384E+01  0.45482908384E+01  0.00000000000E+00 0. -1.
         13   -1    0    0    0    0 -0.00000000000E+00 -0.00000000000E+00 -0.10000000000E+04  0.10000000000E+04  0.00000000000E+00 0.  1.
    9000005    2    1    2  501    0  0.59127787170E+02 -0.28361924258E+02 -0.61401697425E+03  0.61751734768E+03  0.32149740563E+01 0.  0.
         13    1    3    3    0    0  0.49214494410E+02 -0.24242956237E+02 -0.52295895340E+03  0.52582873098E+03  0.00000000000E+00 0.  1.
          1    1    3    3  501    0  0.99132927596E+01 -0.41189680211E+01 -0.91058020852E+02  0.91688616700E+02  0.00000000000E+00 0.  1.
         -3    1    1    2    0  502 -0.59127787170E+02  0.28361924258E+02 -0.38143473491E+03  0.38703094316E+03  0.00000000000E+00 0. -1.
<mgrwt>
<rscale>  1 0.30000000E+03</rscale>
<asrwt>0</asrwt>
<pdfrwt beam="1">  1       21 0.16539274E-01 0.30000000E+03</pdfrwt>
<pdfrwt beam="2">0</pdfrwt>
<totfact> 0.34335457E+03</totfact>
</mgrwt>
</event>
<event>
 6    1  0.1198667E-001  0.3000000E+03  0.7818608E-02  0.1093470E+00
         21   -1    0    0  501  502  0.00000000000E+00  0.00000000000E+00  0.22384890096E+01  0.22384890096E+01  0.00000000000E+00 0. -1.
         13   -1    0    0    0    0 -0.00000000000E+00 -0.00000000000E+00 -0.10000000000E+04  0.10000000000E+04  0.00000000000E+00 0.  1.
    9000005    2    1    2  501    0  0.31080602645E+02  0.26681576277E+01 -0.87540076936E+03  0.87596389134E+03  0.36206350073E+01 0.  0.
         13    1    3    3    0    0  0.11730098197E+02  0.15095299379E+01 -0.37997804747E+03  0.38016205813E+03  0.00000000000E+00 0.  1.
          1    1    3    3  501    0  0.19350504448E+02  0.11586276898E+01 -0.49542272189E+03  0.49580183320E+03  0.00000000000E+00 0.  1.
         -1    1    1    2    0  502 -0.31080602645E+02 -0.26681576277E+01 -0.12236074163E+03  0.12627459767E+03  0.00000000000E+00 0. -1.
<mgrwt>
<rscale>  1 0.30000000E+03</rscale>
<asrwt>0</asrwt>
<pdfrwt beam="1">  1       21 0.81399772E-02 0.30000000E+03</pdfrwt>
<pdfrwt beam="2">0</pdfrwt>
<totfact> 0.12390362E+04</totfact>
</mgrwt>
</event>
<event>
 6    1  0.1198667E-001  0.3000000E+03  0.7818608E-02  0.1093470E+00
         21   -1    0    0  501  502  0.00000000000E+00  0.00000000000E+00  0.13458018113E+02  0.13458018113E+02  0.00000000000E+00 0. -1.
         13   -1    0    0    0    0 -0.00000000000E+00 -0.00000000000E+00 -0.10000000000E+04  0.10000000000E+04  0.00000000000E+00 0.  1.
    9000005    2    1    2  501    0  0.20222487071E+02 -0.71515107385E+02 -0.88230931550E+03  0.88544314277E+03  0.40584834008E+01 0.  0.
         13    1    3    3    0    0  0.19510506401E+02 -0.65980494152E+02 -0.80753165538E+03  0.81045756206E+03  0.00000000000E+00 0.  1.
          1    1    3    3  501    0  0.71198067049E+00 -0.55346132336E+01 -0.74777660128E+02  0.74985580709E+02  0.00000000000E+00 0.  1.
         -1    1    1    2    0  502 -0.20222487071E+02  0.71515107385E+02 -0.10423266638E+03  0.12801487534E+03  0.00000000000E+00 0. -1.
<mgrwt>
<rscale>  1 0.30000000E+03</rscale>
<asrwt>0</asrwt>
<pdfrwt beam="1">  1       21 0.48938351E-01 0.30000000E+03</pdfrwt>
<pdfrwt beam="2">0</pdfrwt>
<totfact> 0.39357963E+02</totfact>
</mgrwt>
</event>
<event>
 6    1  0.1198667E-001  0.3000000E+03  0.7818608E-02  0.1093470E+00
         21   -1    0    0  501  502  0.00000000000E+00  0.00000000000E+00  0.74659467550E+01  0.74659467550E+01  0.00000000000E+00 0. -1.
         13   -1    0    0    0    0 -0.00000000000E+00 -0.00000000000E+00 -0.10000000000E+04  0.10000000000E+04  0.00000000000E+00 0.  1.
    9000005    2    1    2  501    0 -0.94127409811E+01  0.72141409073E+02 -0.76784669223E+03  0.77129356735E+03  0.34988091030E+01 0.  0.
         13    1    3    3    0    0 -0.21344853015E+01  0.16004916113E+02 -0.18630263011E+03  0.18700102500E+03  0.00000000000E+00 0.  1.
          1    1    3    3  501    0 -0.72782556796E+01  0.56136492960E+02 -0.58154406212E+03  0.58429254234E+03  0.00000000000E+00 0.  1.
         -1    1    1    2    0  502  0.94127409811E+01 -0.72141409073E+02 -0.22468736101E+03  0.23617237941E+03  0.00000000000E+00 0. -1.
<mgrwt>
<rscale>  1 0.30000000E+03</rscale>
<asrwt>0</asrwt>
<pdfrwt beam="1">  1       21 0.27148955E-01 0.30000000E+03</pdfrwt>
<pdfrwt beam="2">0</pdfrwt>
<totfact> 0.13259867E+03</totfact>
</mgrwt>
</event>
<event>
 6    1  0.1198667E-001  0.3000000E+03  0.7818608E-02  0.1093470E+00
         21   -1    0    0  501  502  0.00000000000E+00  0.00000000000E+00  0.29916409637E+01  0.29916409637E+01  0.00000000000E+00 0. -1.
         13   -1    0    0    0    0 -0.00000000000E+00 -0.00000000000E+00 -0.10000000000E+04  0.10000000000E+04  0.00000000000E+00 0.  1.
    9000005    2    1    2  501    0  0.48026951524E+02 -0.23011035136E+01 -0.73716272304E+03  0.73873487625E+03  0.29075763248E+01 0.  0.
         13    1    3    3    0    0  0.22102681507E+02  0.38818950463E+00 -0.33980594544E+03  0.34052424257E+03  0.00000000000E+00 0.  1.
          1    1    3    3  501    0  0.25924270016E+02 -0.26892930183E+01 -0.39735677760E+03  0.39821063368E+03  0.00000000000E+00 0.  1.
         -1    1    1    2    0  502 -0.48026951524E+02  0.23011035136E+01 -0.25984563599E+03  0.26425676471E+03  0.00000000000E+00 0. -1.
<mgrwt>
<rscale>  1 0.30000000E+03</rscale>
<asrwt>0</asrwt>
<pdfrwt beam="1">  1       21 0.10878717E-01 0.30000000E+03</pdfrwt>
<pdfrwt beam="2">0</pdfrwt>
<totfact> 0.73980610E+03</totfact>
</mgrwt>
</event>
<event>
 6    1  0.1198667E-001  0.3000000E+03  0.7818608E-02  0.1093470E+00
         21   -1    0    0  501  502  0.00000000000E+00  0.00000000000E+00  0.26293813335E+01  0.26293813335E+01  0.00000000000E+00 0. -1.
         13   -1    0    0    0    0 -0.00000000000E+00 -0.00000000000E+00 -0.10000000000E+04  0.10000000000E+04  0.00000000000E+00 0.  1.
    9000005    2    1    2  501    0  0.41446843767E+02 -0.72230024448E+01 -0.78491036244E+03  0.78604366367E+03  0.32173744323E+01 0.  0.
         13    1    3    3    0    0  0.18068959404E+02 -0.23389797305E+01 -0.36560795371E+03  0.36606165319E+03  0.00000000000E+00 0.  1.
          3    1    3    3  501    0  0.23377884363E+02 -0.48840227143E+01 -0.41930240873E+03  0.41998201048E+03  0.00000000000E+00 0.  1.
         -3    1    1    2    0  502 -0.41446843767E+02  0.72230024448E+01 -0.21246025623E+03  0.21658571767E+03  0.00000000000E+00 0. -1.
<mgrwt>
<rscale>  1 0.30000000E+03</rscale>
<asrwt>0</asrwt>
<pdfrwt beam="1">  1       21 0.95614068E-02 0.30000000E+03</pdfrwt>
<pdfrwt beam="2">0</pdfrwt>
<totfact> 0.93200989E+03</totfact>
</mgrwt>
</event>
<event>
 6    1  0.1198667E-001  0.3000000E+03  0.7818608E-02  0.1093470E+00
         21   -1    0    0  501  502  0.00000000000E+00  0.00000000000E+00  0.14660316846E+01  0.14660316846E+01  0.00000000000E+00 0. -1.
         13   -1    0    0    0    0 -0.00000000000E+00 -0.00000000000E+00 -0.10000000000E+04  0.10000000000E+04  0.00000000000E+00 0.  1.
    9000005    2    1    2  501    0  0.98334993424E+01  0.36182840986E+02 -0.59163096698E+03  0.59283912583E+03  0.50132161406E+01 0.  0.
         13    1    3    3    0    0  0.41705811214E+01  0.18466021570E+02 -0.26125691256E+03  0.26194190588E+03  0.00000000000E+00 0.  1.
          1    1    3    3  501    0  0.56629182209E+01  0.17716819417E+02 -0.33037405442E+03  0.33089721995E+03  0.00000000000E+00 0.  1.
         -1    1    1    2    0  502 -0.98334993424E+01 -0.36182840986E+02 -0.40690300134E+03  0.40862690586E+03  0.00000000000E+00 0. -1.
<mgrwt>
<rscale>  1 0.30000000E+03</rscale>
<asrwt>0</asrwt>
<pdfrwt beam="1">  1       21 0.53310355E-02 0.30000000E+03</pdfrwt>
<pdfrwt beam="2">0</pdfrwt>
<totfact> 0.25817708E+04</totfact>
</mgrwt>
</event>
<event>
 6    1  0.1198667E-001  0.3000000E+03  0.7818608E-02  0.1093470E+00
         21   -1    0    0  501  502  0.00000000000E+00  0.00000000000E+00  0.10050865535E+01  0.10050865535E+01  0.00000000000E+00 0. -1.
         13   -1    0    0    0    0 -0.00000000000E+00 -0.00000000000E+00 -0.10000000000E+04  0.10000000000E+04  0.00000000000E+00 0.  1.
    9000005    2    1    2  501    0 -0.52770863811E+01 -0.31145052607E+02 -0.52078257986E+03  0.52175056342E+03  0.33605071953E+01 0.  0.
         13    1    3    3    0    0 -0.23172571548E+01 -0.58369655844E+01 -0.98833990115E+02  0.99033314850E+02  0.00000000000E+00 0.  1.
          3    1    3    3  501    0 -0.29598292263E+01 -0.25308087022E+02 -0.42194858974E+03  0.42271724858E+03  0.00000000000E+00 0.  1.
         -1    1    1    2    0  502  0.52770863811E+01  0.31145052607E+02 -0.47821233359E+03  0.47925452313E+03  0.00000000000E+00 0. -1.
<mgrwt>
<rscale>  1 0.30000000E+03</rscale>
<asrwt>0</asrwt>
<pdfrwt beam="1">  1       21 0.36548679E-02 0.30000000E+03</pdfrwt>
<pdfrwt beam="2">0</pdfrwt>
<totfact> 0.48932913E+04</totfact>
</mgrwt>
</event>
<event>
 6    1  0.1198667E-001  0.3000000E+03  0.7818608E-02  0.1093470E+00
         21   -1    0    0  501  502  0.00000000000E+00  0.00000000000E+00  0.24580599501E+01  0.24580599501E+01  0.00000000000E+00 0. -1.
         13   -1    0    0    0    0 -0.00000000000E+00 -0.00000000000E+00 -0.10000000000E+04  0.10000000000E+04  0.00000000000E+00 0.  1.
    9000005    2    1    2  501    0 -0.74413183565E+01  0.36826476725E+02 -0.82553657328E+03  0.82639724999E+03  0.31966166474E+01 0.  0.
         13    1    3    3    0    0 -0.32470183902E+01  0.18101286861E+02 -0.37015892198E+03  0.37061547085E+03  0.00000000000E+00 0.  1.
          3    1    3    3  501    0 -0.41942999663E+01  0.18725189864E+02 -0.45537765130E+03  0.45578177914E+03  0.00000000000E+00 0.  1.
         -1    1    1    2    0  502  0.74413183565E+01 -0.36826476725E+02 -0.17200536677E+03  0.17606080996E+03  0.00000000000E+00 0. -1.
<mgrwt>
<rscale>  1 0.30000000E+03</rscale>
<asrwt>0</asrwt>
<pdfrwt beam="1">  1       21 0.89384187E-02 0.30000000E+03</pdfrwt>
<pdfrwt beam="2">0</pdfrwt>
<totfact> 0.10505060E+04</totfact>
</mgrwt>
</event>
<event>
 6    1  0.1198667E-001  0.3000000E+03  0.7818608E-02  0.1093470E+00
         21   -1    0    0  501  502  0.00000000000E+00  0.00000000000E+00  0.34976573270E+01  0.34976573270E+01  0.00000000000E+00 0. -1.
         13   -1    0    0    0    0 -0.00000000000E+00 -0.00000000000E+00 -0.10000000000E+04  0.10000000000E+04  0.00000000000E+00 0.  1.
    9000005    2    1    2  501    0 -0.11153645270E+02 -0.30126192369E+02 -0.91944212422E+03  0.92000952321E+03  0.34222429164E+01 0.  0.
         13    1    3    3    0    0 -0.94535485091E+01 -0.23245117743E+02 -0.68146282496E+03  0.68192469297E+03  0.00000000000E+00 0.  1.
          3    1    3    3  501    0 -0.17000967606E+01 -0.68810746265E+01 -0.23797929926E+03  0.23808483025E+03  0.00000000000E+00 0.  1.
         -3    1    1    2    0  502  0.11153645270E+02  0.30126192369E+02 -0.77060218454E+02  0.83488134113E+02  0.00000000000E+00 0. -1.
<mgrwt>
<rscale>  1 0.30000000E+03</rscale>
<asrwt>0</asrwt>
<pdfrwt beam="1">  1       21 0.12718781E-01 0.30000000E+03</pdfrwt>
<pdfrwt beam="2">0</pdfrwt>
<totfact> 0.55746079E+03</totfact>
</mgrwt>
</event>
<event>
 6    1  0.1198667E-001  0.3000000E+03  0.7818608E-02  0.1093470E+00
         21   -1    0    0  501  502  0.00000000000E+00  0.00000000000E+00  0.17212345940E+01  0.17212345940E+01  0.00000000000E+00 0. -1.
         13   -1    0    0    0    0 -0.00000000000E+00 -0.00000000000E+00 -0.10000000000E+04  0.10000000000E+04  0.00000000000E+00 0.  1.
    9000005    2    1    2  501    0 -0.40086162565E+02  0.72093380829E+01 -0.58869653994E+03  0.59011890904E+03  0.42232313536E+01 0.  0.
         13    1    3    3    0    0 -0.27204126591E+01 -0.56570486300E+00 -0.41771217264E+02  0.41863531370E+02  0.00000000000E+00 0.  1.
          3    1    3    3  501    0 -0.37365749906E+02  0.77750429459E+01 -0.54692532268E+03  0.54825537767E+03  0.00000000000E+00 0.  1.
         -3    1    1    2    0  502  0.40086162565E+02 -0.72093380829E+01 -0.40958222547E+03  0.41160232556E+03  0.00000000000E+00 0. -1.
<mgrwt>
<rscale>  1 0.30000000E+03</rscale>
<asrwt>0</asrwt>
<pdfrwt beam="1">  1       21 0.62590481E-02 0.30000000E+03</pdfrwt>
<pdfrwt beam="2">0</pdfrwt>
<totfact> 0.19588943E+04</totfact>
</mgrwt>
</event>
<event>
 6    1  0.1198667E-001  0.3000000E+03  0.7818608E-02  0.1093470E+00
         21   -1    0    0  501  502  0.00000000000E+00  0.00000000000E+00  0.17582986747E+01  0.17582986747E+01  0.00000000000E+00 0. -1.
         13   -1    0    0    0    0 -0.00000000000E+00 -0.00000000000E+00 -0.10000000000E+04  0.10000000000E+04  0.00000000000E+00 0.  1.
    9000005    2    1    2  501    0 -0.43124259835E+01  0.35441526721E+02 -0.76103839381E+03  0.76188310627E+03  0.34251912574E+01 0.  0.
         13    1    3    3    0    0 -0.46410403747E+01  0.33954693822E+02 -0.73719010409E+03  0.73798625330E+03  0.00000000000E+00 0.  1.
          3    1    3    3  501    0  0.32861439116E+00  0.14868328986E+01 -0.23848289715E+02  0.23896852969E+02  0.00000000000E+00 0.  1.
         -3    1    1    2    0  502  0.43124259835E+01 -0.35441526721E+02 -0.23720330752E+03  0.23987519241E+03  0.00000000000E+00 0. -1.
<mgrwt>
<rscale>  1 0.30000000E+03</rscale>
<asrwt>0</asrwt>
<pdfrwt beam="1">  1       21 0.63938268E-02 0.30000000E+03</pdfrwt>
<pdfrwt beam="2">0</pdfrwt>
<totfact> 0.18880568E+04</totfact>
</mgrwt>
</event>
<event>
 6    1  0.1198667E-001  0.3000000E+03  0.7818608E-02  0.1093470E+00
         21   -1    0    0  501  502  0.00000000000E+00  0.00000000000E+00  0.24586833732E+01  0.24586833732E+01  0.00000000000E+00 0. -1.
         13   -1    0    0    0    0 -0.00000000000E+00 -0.00000000000E+00 -0.10000000000E+04  0.10000000000E+04  0.00000000000E+00 0.  1.
    9000005    2    1    2  501    0 -0.41102656386E+02  0.11213144855E+02 -0.75460045179E+03  0.75581029641E+03  0.34927570609E+01 0.  0.
         13    1    3    3    0    0 -0.40661754700E+02  0.10764578378E+02 -0.74728653027E+03  0.74846937998E+03  0.00000000000E+00 0.  1.
          3    1    3    3  501    0 -0.44090168564E+00  0.44856647764E+00 -0.73139215113E+01  0.73409164315E+01  0.00000000000E+00 0.  1.
         -1    1    1    2    0  502  0.41102656386E+02 -0.11213144855E+02 -0.24294086484E+03  0.24664838696E+03  0.00000000000E+00 0. -1.
<mgrwt>
<rscale>  1 0.30000000E+03</rscale>
<asrwt>0</asrwt>
<pdfrwt beam="1">  1       21 0.89406857E-02 0.30000000E+03</pdfrwt>
<pdfrwt beam="2">0</pdfrwt>
<totfact> 0.10500344E+04</totfact>
</mgrwt>
</event>
<event>
 6    1  0.1198667E-001  0.3000000E+03  0.7818608E-02  0.1093470E+00
         21   -1    0    0  501  502  0.00000000000E+00  0.00000000000E+00  0.15034225560E+01  0.15034225560E+01  0.00000000000E+00 0. -1.
         13   -1    0    0    0    0 -0.00000000000E+00 -0.00000000000E+00 -0.10000000000E+04  0.10000000000E+04  0.00000000000E+00 0.  1.
    9000005    2    1    2  501    0  0.34539192300E+02  0.16781584539E+02 -0.56334673275E+03  0.56466253078E+03  0.31072480116E+01 0.  0.
         13    1    3    3    0    0  0.80442050848E+00  0.95532332202E+00 -0.21184163873E+02  0.21220945643E+02  0.00000000000E+00 0.  1.
          3    1    3    3  501    0  0.33734771792E+02  0.15826261217E+02 -0.54216256887E+03  0.54344158514E+03  0.00000000000E+00 0.  1.
         -1    1    1    2    0  502 -0.34539192300E+02 -0.16781584539E+02 -0.43514984470E+03  0.43684089177E+03  0.00000000000E+00 0. -1.
<mgrwt>
<rscale>  1 0.30000000E+03</rscale>
<asrwt>0</asrwt>
<pdfrwt beam="1">  1       21 0.54670026E-02 0.30000000E+03</pdfrwt>
<pdfrwt beam="2">0</pdfrwt>
<totfact> 0.24727930E+04</totfact>
</mgrwt>
</event>
<event>
 6    1  0.1198667E-001  0.3000000E+03  0.7818608E-02  0.1093470E+00
         21   -1    0    0  501  502  0.00000000000E+00  0.00000000000E+00  0.11988693583E+01  0.11988693583E+01  0.00000000000E+00 0. -1.
         13   -1    0    0    0    0 -0.00000000000E+00 -0.00000000000E+00 -0.10000000000E+04  0.10000000000E+04  0.00000000000E+00 0.  1.
    9000005    2    1    2  501    0  0.26860312996E+02 -0.19640663630E+02 -0.63590990007E+03  0.63678526189E+03  0.26147029320E+01 0.  0.
         13    1    3    3    0    0  0.22305014722E+02 -0.17040131073E+02 -0.54924632888E+03  0.54996309834E+03  0.00000000000E+00 0.  1.
          3    1    3    3  501    0  0.45552982738E+01 -0.26005325562E+01 -0.86663571187E+02  0.86822163546E+02  0.00000000000E+00 0.  1.
         -3    1    1    2    0  502 -0.26860312996E+02  0.19640663630E+02 -0.36289123057E+03  0.36441360747E+03  0.00000000000E+00 0. -1.
<mgrwt>
<rscale>  1 0.30000000E+03</rscale>
<asrwt>0</asrwt>
<pdfrwt beam="1">  1       21 0.43595341E-02 0.30000000E+03</pdfrwt>
<pdfrwt beam="2">0</pdfrwt>
<totfact> 0.36360873E+04</totfact>
</mgrwt>
</event>
<event>
 6    1  0.1198667E-001  0.3000000E+03  0.7818608E-02  0.1093470E+00
         21   -1    0    0  501  502  0.00000000000E+00  0.00000000000E+00  0.64119379576E+01  0.64119379576E+01  0.00000000000E+00 0. -1.
         13   -1    0    0    0    0 -0.00000000000E+00 -0.00000000000E+00 -0.10000000000E+04  0.10000000000E+04  0.00000000000E+00 0.  1.
    9000005    2    1    2  501    0  0.53944972557E+02 -0.31378631406E+01 -0.12601337660E+03  0.13715608318E+03  0.35374879676E+01 0.  0.
         13    1    3    3    0    0  0.14419597309E+02 -0.21903690779E+01 -0.36019543016E+02  0.38860390919E+02  0.00000000000E+00 0.  1.
          3    1    3    3  501    0  0.39525375248E+02 -0.94749406266E+00 -0.89993833584E+02  0.98295692259E+02  0.00000000000E+00 0.  1.
         -1    1    1    2    0  502 -0.53944972557E+02  0.31378631406E+01 -0.86757468544E+03  0.86925585478E+03  0.00000000000E+00 0. -1.
<mgrwt>
<rscale>  1 0.30000000E+03</rscale>
<asrwt>0</asrwt>
<pdfrwt beam="1">  1       21 0.23316187E-01 0.30000000E+03</pdfrwt>
<pdfrwt beam="2">0</pdfrwt>
<totfact> 0.17864143E+03</totfact>
</mgrwt>
</event>
<event>
 6    1  0.1198667E-001  0.3000000E+03  0.7818608E-02  0.1093470E+00
         21   -1    0    0  501  502  0.00000000000E+00  0.00000000000E+00  0.23841807545E+01  0.23841807545E+01  0.00000000000E+00 0. -1.
         13   -1    0    0    0    0 -0.00000000000E+00 -0.00000000000E+00 -0.10000000000E+04  0.10000000000E+04  0.00000000000E+00 0.  1.
    9000005    2    1    2  501    0  0.42676026616E+02  0.14132808212E+02 -0.69356876413E+03  0.69503162872E+03  0.32178926424E+01 0.  0.
         13    1    3    3    0    0  0.34305696889E+01  0.98649041792E+00 -0.43199838978E+02  0.43347065177E+02  0.00000000000E+00 0.  1.
          1    1    3    3  501    0  0.39245456928E+02  0.13146317795E+02 -0.65036892515E+03  0.65168456355E+03  0.00000000000E+00 0.  1.
         -3    1    1    2    0  502 -0.42676026616E+02 -0.14132808212E+02 -0.30404705512E+03  0.30735255203E+03  0.00000000000E+00 0. -1.
<mgrwt>
<rscale>  1 0.30000000E+03</rscale>
<asrwt>0</asrwt>
<pdfrwt beam="1">  1       21 0.86697665E-02 0.30000000E+03</pdfrwt>
<pdfrwt beam="2">0</pdfrwt>
<totfact> 0.11087501E+04</totfact>
</mgrwt>
</event>
<event>
 6    1  0.1198667E-001  0.3000000E+03  0.7818608E-02  0.1093470E+00
         21   -1    0    0  501  502  0.00000000000E+00  0.00000000000E+00  0.19970331820E+01  0.19970331820E+01  0.00000000000E+00 0. -1.
         13   -1    0    0    0    0 -0.00000000000E+00 -0.00000000000E+00 -0.10000000000E+04  0.10000000000E+04  0.00000000000E+00 0.  1.
    9000005    2    1    2  501    0  0.22986054596E+02  0.23648491350E+02 -0.83678838364E+03  0.83744384519E+03  0.31280989629E+01 0.  0.
         13    1    3    3    0    0  0.10385776337E+01  0.21245541854E+01 -0.68071992053E+02  0.68113056576E+02  0.00000000000E+00 0.  1.
          3    1    3    3  501    0  0.21947476962E+02  0.21523937164E+02 -0.76871639159E+03  0.76933078862E+03  0.00000000000E+00 0.  1.
         -1    1    1    2    0  502 -0.22986054596E+02 -0.23648491350E+02 -0.16121458318E+03  0.16455318799E+03  0.00000000000E+00 0. -1.
<mgrwt>
<rscale>  1 0.30000000E+03</rscale>
<asrwt>0</asrwt>
<pdfrwt beam="1">  1       21 0.72619542E-02 0.30000000E+03</pdfrwt>
<pdfrwt beam="2">0</pdfrwt>
<totfact> 0.15134410E+04</totfact>
</mgrwt>
</event>
<event>
 6    1  0.1198667E-001  0.3000000E+03  0.7818608E-02  0.1093470E+00
         21   -1    0    0  501  502  0.00000000000E+00  0.00000000000E+00  0.22884420369E+01  0.22884420369E+01  0.00000000000E+00 0. -1.
         13   -1    0    0    0    0 -0.00000000000E+00 -0.00000000000E+00 -0.10000000000E+04  0.10000000000E+04  0.00000000000E+00 0.  1.
    9000005    2    1    2  501    0  0.36773257047E+02  0.13470802561E+02 -0.78632486432E+03  0.78730456076E+03  0.28185466132E+01 0.  0.
         13    1    3    3    0    0  0.27319718974E+01  0.28013522036E+00 -0.59806698806E+02  0.59869719961E+02  0.00000000000E+00 0.  1.
          3    1    3    3  501    0  0.34041285150E+02  0.13190667341E+02 -0.72651816551E+03  0.72743484080E+03  0.00000000000E+00 0.  1.
         -3    1    1    2    0  502 -0.36773257047E+02 -0.13470802561E+02 -0.21138669365E+03  0.21498388127E+03  0.00000000000E+00 0. -1.
<mgrwt>
<rscale>  1 0.30000000E+03</rscale>
<asrwt>0</asrwt>
<pdfrwt beam="1">  1       21 0.83216250E-02 0.30000000E+03</pdfrwt>
<pdfrwt beam="2">0</pdfrwt>
<totfact> 0.11918440E+04</totfact>
</mgrwt>
</event>
<event>
 6    1  0.1198667E-001  0.3000000E+03  0.7818608E-02  0.1093470E+00
         21   -1    0    0  501  502  0.00000000000E+00  0.00000000000E+00  0.58013342039E+01  0.58013342039E+01  0.00000000000E+00 0. -1.
         13   -1    0    0    0    0 -0.00000000000E+00 -0.00000000000E+00 -0.10000000000E+04  0.10000000000E+04  0.00000000000E+00 0.  1.
    9000005    2    1    2  501    0 -0.96423406346E+01 -0.75503994580E+02 -0.48809257898E+03  0.49400332811E+03  0.33308552848E+01 0.  0.
         13    1    3    3    0    0 -0.42830194282E+01 -0.36272276661E+02 -0.24476913400E+03  0.24747919361E+03  0.00000000000E+00 0.  1.
          3    1    3    3  501    0 -0.53593212064E+01 -0.39231717919E+02 -0.24332344498E+03  0.24652413450E+03  0.00000000000E+00 0.  1.
         -1    1    1    2    0  502  0.96423406346E+01  0.75503994580E+02 -0.50610608681E+03  0.51179800609E+03  0.00000000000E+00 0. -1.
<mgrwt>
<rscale>  1 0.30000000E+03</rscale>
<asrwt>0</asrwt>
<pdfrwt beam="1">  1       21 0.21095805E-01 0.30000000E+03</pdfrwt>
<pdfrwt beam="2">0</pdfrwt>
<totfact> 0.21664336E+03</totfact>
</mgrwt>
</event>
<event>
 6    1  0.1198667E-001  0.3000000E+03  0.7818608E-02  0.1093470E+00
         21   -1    0    0  501  502  0.00000000000E+00  0.00000000000E+00  0.10142754311E+01  0.10142754311E+01  0.00000000000E+00 0. -1.
         13   -1    0    0    0    0 -0.00000000000E+00 -0.00000000000E+00 -0.10000000000E+04  0.10000000000E+04  0.00000000000E+00 0.  1.
    9000005    2    1    2  501    0  0.17303199528E+02 -0.26609563336E+02 -0.51605272899E+03  0.51703933001E+03  0.34322159275E+01 0.  0.
         13    1    3    3    0    0  0.12514841340E+02 -0.17700723956E+02 -0.37311117036E+03  0.37374039430E+03  0.00000000000E+00 0.  1.
          3    1    3    3  501    0  0.47883581877E+01 -0.89088393809E+01 -0.14294155863E+03  0.14329893571E+03  0.00000000000E+00 0.  1.
         -1    1    1    2    0  502 -0.17303199528E+02  0.26609563336E+02 -0.48293299558E+03  0.48397494542E+03  0.00000000000E+00 0. -1.
<mgrwt>
<rscale>  1 0.30000000E+03</rscale>
<asrwt>0</asrwt>
<pdfrwt beam="1">  1       21 0.36882821E-02 0.30000000E+03</pdfrwt>
<pdfrwt beam="2">0</pdfrwt>
<totfact> 0.48191319E+04</totfact>
</mgrwt>
</event>
<event>
 6    1  0.1198667E-001  0.3000000E+03  0.7818608E-02  0.1093470E+00
         21   -1    0    0  501  502  0.00000000000E+00  0.00000000000E+00  0.10334230298E+01  0.10334230298E+01  0.00000000000E+00 0. -1.
         13   -1    0    0    0    0 -0.00000000000E+00 -0.00000000000E+00 -0.10000000000E+04  0.10000000000E+04  0.00000000000E+00 0.  1.
    9000005    2    1    2  501    0  0.71810553924E+01 -0.31213078003E+02 -0.49284481776E+03  0.49389926036E+03  0.38263823469E+01 0.  0.
         13    1    3    3    0    0  0.45329364818E+01 -0.13925385873E+02 -0.20337018370E+03  0.20389677659E+03  0.00000000000E+00 0.  1.
          1    1    3    3  501    0  0.26481189106E+01 -0.17287692130E+02 -0.28947463406E+03  0.29000248378E+03  0.00000000000E+00 0.  1.
         -1    1    1    2    0  502 -0.71810553924E+01  0.31213078003E+02 -0.50612175921E+03  0.50713416267E+03  0.00000000000E+00 0. -1.
<mgrwt>
<rscale>  1 0.30000000E+03</rscale>
<asrwt>0</asrwt>
<pdfrwt beam="1">  1       21 0.37579099E-02 0.30000000E+03</pdfrwt>
<pdfrwt beam="2">0</pdfrwt>
<totfact> 0.46701727E+04</totfact>
</mgrwt>
</event>
<event>
 6    1  0.1198667E-001  0.3000000E+03  0.7818608E-02  0.1093470E+00
         21   -1    0    0  501  502  0.00000000000E+00  0.00000000000E+00  0.14622658123E+01  0.14622658123E+01  0.00000000000E+00 0. -1.
         13   -1    0    0    0    0 -0.00000000000E+00 -0.00000000000E+00 -0.10000000000E+04  0.10000000000E+04  0.00000000000E+00 0.  1.
    9000005    2    1    2  501    0  0.34921062150E+02  0.14923624741E+02 -0.44856879398E+03  0.45018372429E+03  0.30376833106E+01 0.  0.
         13    1    3    3    0    0  0.25685409703E+02  0.95927543977E+01 -0.31710780143E+03  0.31829093442E+03  0.00000000000E+00 0.  1.
          3    1    3    3  501    0  0.92356524469E+01  0.53308703434E+01 -0.13146099256E+03  0.13189278987E+03  0.00000000000E+00 0.  1.
         -1    1    1    2    0  502 -0.34921062150E+02 -0.14923624741E+02 -0.54996894020E+03  0.55127854152E+03  0.00000000000E+00 0. -1.
<mgrwt>
<rscale>  1 0.30000000E+03</rscale>
<asrwt>0</asrwt>
<pdfrwt beam="1">  1       21 0.53173414E-02 0.30000000E+03</pdfrwt>
<pdfrwt beam="2">0</pdfrwt>
<totfact> 0.25931564E+04</totfact>
</mgrwt>
</event>
<event>
 6    1  0.1198667E-001  0.3000000E+03  0.7818608E-02  0.1093470E+00
         21   -1    0    0  501  502  0.00000000000E+00  0.00000000000E+00  0.11409894855E+01  0.11409894855E+01  0.00000000000E+00 0. -1.
         13   -1    0    0    0    0 -0.00000000000E+00 -0.00000000000E+00 -0.10000000000E+04  0.10000000000E+04  0.00000000000E+00 0.  1.
    9000005    2    1    2  501    0 -0.11024354692E+02  0.29916299891E+02 -0.66062440875E+03  0.66140702412E+03  0.42568435326E+01 0.  0.
         13    1    3    3    0    0 -0.17694843677E+01  0.66207631016E+01 -0.11105437818E+03  0.11126563032E+03  0.00000000000E+00 0.  1.
          1    1    3    3  501    0 -0.92548703243E+01  0.23295536790E+02 -0.54957003057E+03  0.55014139379E+03  0.00000000000E+00 0.  1.
         -3    1    1    2    0  502  0.11024354692E+02 -0.29916299891E+02 -0.33823460176E+03  0.33973396537E+03  0.00000000000E+00 0. -1.
<mgrwt>
<rscale>  1 0.30000000E+03</rscale>
<asrwt>0</asrwt>
<pdfrwt beam="1">  1       21 0.41490614E-02 0.30000000E+03</pdfrwt>
<pdfrwt beam="2">0</pdfrwt>
<totfact> 0.39532408E+04</totfact>
</mgrwt>
</event>
<event>
 6    1  0.1198667E-001  0.3000000E+03  0.7818608E-02  0.1093470E+00
         21   -1    0    0  501  502  0.00000000000E+00  0.00000000000E+00  0.66735360322E+01  0.66735360322E+01  0.00000000000E+00 0. -1.
         13   -1    0    0    0    0 -0.00000000000E+00 -0.00000000000E+00 -0.10000000000E+04  0.10000000000E+04  0.00000000000E+00 0.  1.
    9000005    2    1    2  501    0  0.42534071012E+02  0.30925070614E+02 -0.88177506417E+03  0.88334786155E+03  0.32670361834E+01 0.  0.
         13    1    3    3    0    0  0.11733508240E+02  0.10342027557E+02 -0.25702853843E+03  0.25750398505E+03  0.00000000000E+00 0.  1.
          1    1    3    3  501    0  0.30800562772E+02  0.20583043057E+02 -0.62474652574E+03  0.62584387650E+03  0.00000000000E+00 0.  1.
         -1    1    1    2    0  502 -0.42534071012E+02 -0.30925070614E+02 -0.11155139980E+03  0.12332567448E+03  0.00000000000E+00 0. -1.
<mgrwt>
<rscale>  1 0.30000000E+03</rscale>
<asrwt>0</asrwt>
<pdfrwt beam="1">  1       21 0.24267455E-01 0.30000000E+03</pdfrwt>
<pdfrwt beam="2">0</pdfrwt>
<totfact> 0.16528557E+03</totfact>
</mgrwt>
</event>
<event>
 6    1  0.1198667E-001  0.3000000E+03  0.7818608E-02  0.1093470E+00
         21   -1    0    0  501  502  0.00000000000E+00  0.00000000000E+00  0.26486843691E+01  0.26486843691E+01  0.00000000000E+00 0. -1.
         13   -1    0    0    0    0 -0.00000000000E+00 -0.00000000000E+00 -0.10000000000E+04  0.10000000000E+04  0.00000000000E+00 0.  1.
    9000005    2    1    2  501    0  0.28207796031E+02 -0.18909046602E+02 -0.87520471758E+03  0.87586925695E+03  0.32289011550E+01 0.  0.
         13    1    3    3    0    0  0.53860240982E+01 -0.38742775748E+01 -0.20575429314E+03  0.20586123586E+03  0.00000000000E+00 0.  1.
          3    1    3    3  501    0  0.22821771933E+02 -0.15034769027E+02 -0.66945042444E+03  0.67000802110E+03  0.00000000000E+00 0.  1.
         -1    1    1    2    0  502 -0.28207796031E+02  0.18909046602E+02 -0.12214659805E+03  0.12677942742E+03  0.00000000000E+00 0. -1.
<mgrwt>
<rscale>  1 0.30000000E+03</rscale>
<asrwt>0</asrwt>
<pdfrwt beam="1">  1       21 0.96315998E-02 0.30000000E+03</pdfrwt>
<pdfrwt beam="2">0</pdfrwt>
<totfact> 0.91993512E+03</totfact>
</mgrwt>
</event>
<event>
 6    1  0.1198667E-001  0.3000000E+03  0.7818608E-02  0.1093470E+00
         21   -1    0    0  501  502  0.00000000000E+00  0.00000000000E+00  0.16359331754E+01  0.16359331754E+01  0.00000000000E+00 0. -1.
         13   -1    0    0    0    0 -0.00000000000E+00 -0.00000000000E+00 -0.10000000000E+04  0.10000000000E+04  0.00000000000E+00 0.  1.
    9000005    2    1    2  501    0  0.23437412918E+02 -0.20744638872E+02 -0.81588846582E+03  0.81649545320E+03  0.33442577845E+01 0.  0.
         13    1    3    3    0    0  0.12599076976E+02 -0.99091482385E+01 -0.38099550668E+03  0.38133253739E+03  0.00000000000E+00 0.  1.
          1    1    3    3  501    0  0.10838335943E+02 -0.10835490633E+02 -0.43489295914E+03  0.43516291581E+03  0.00000000000E+00 0.  1.
         -3    1    1    2    0  502 -0.23437412918E+02  0.20744638872E+02 -0.18247560100E+03  0.18514047998E+03  0.00000000000E+00 0. -1.
<mgrwt>
<rscale>  1 0.30000000E+03</rscale>
<asrwt>0</asrwt>
<pdfrwt beam="1">  1       21 0.59488605E-02 0.30000000E+03</pdfrwt>
<pdfrwt beam="2">0</pdfrwt>
<totfact> 0.21384992E+04</totfact>
</mgrwt>
</event>
<event>
 6    1  0.1198667E-001  0.3000000E+03  0.7818608E-02  0.1093470E+00
         21   -1    0    0  501  502  0.00000000000E+00  0.00000000000E+00  0.66097538128E+01  0.66097538128E+01  0.00000000000E+00 0. -1.
         13   -1    0    0    0    0 -0.00000000000E+00 -0.00000000000E+00 -0.10000000000E+04  0.10000000000E+04  0.00000000000E+00 0.  1.
    9000005    2    1    2  501    0 -0.26812753441E+02 -0.57110484849E+02 -0.81402067356E+03  0.81646776789E+03  0.30704707936E+01 0.  0.
         13    1    3    3    0    0 -0.14579004806E+01 -0.38057327273E+01 -0.62270496642E+02  0.62403716455E+02  0.00000000000E+00 0.  1.
          3    1    3    3  501    0 -0.25354852960E+02 -0.53304752122E+02 -0.75175017692E+03  0.75406405143E+03  0.00000000000E+00 0.  1.
         -1    1    1    2    0  502  0.26812753441E+02  0.57110484849E+02 -0.17936957263E+03  0.19014198593E+03  0.00000000000E+00 0. -1.
<mgrwt>
<rscale>  1 0.30000000E+03</rscale>
<asrwt>0</asrwt>
<pdfrwt beam="1">  1       21 0.24035519E-01 0.30000000E+03</pdfrwt>
<pdfrwt beam="2">0</pdfrwt>
<totfact> 0.16840548E+03</totfact>
</mgrwt>
</event>
<event>
 6    1  0.1198667E-001  0.3000000E+03  0.7818608E-02  0.1093470E+00
         21   -1    0    0  501  502  0.00000000000E+00  0.00000000000E+00  0.16763111399E+01  0.16763111399E+01  0.00000000000E+00 0. -1.
         13   -1    0    0    0    0 -0.00000000000E+00 -0.00000000000E+00 -0.10000000000E+04  0.10000000000E+04  0.00000000000E+00 0.  1.
    9000005    2    1    2  501    0  0.13708803353E+02  0.29624526076E+02 -0.80113658154E+03  0.80180560511E+03  0.26195941583E+01 0.  0.
         13    1    3    3    0    0  0.20194792076E+00  0.13370597214E+01 -0.25451604563E+02  0.25487500593E+02  0.00000000000E+00 0.  1.
          3    1    3    3  501    0  0.13506855432E+02  0.28287466355E+02 -0.77568497698E+03  0.77631810452E+03  0.00000000000E+00 0.  1.
         -3    1    1    2    0  502 -0.13708803353E+02 -0.29624526076E+02 -0.19718710732E+03  0.19987070603E+03  0.00000000000E+00 0. -1.
<mgrwt>
<rscale>  1 0.30000000E+03</rscale>
<asrwt>0</asrwt>
<pdfrwt beam="1">  1       21 0.60956897E-02 0.30000000E+03</pdfrwt>
<pdfrwt beam="2">0</pdfrwt>
<totfact> 0.20504255E+04</totfact>
</mgrwt>
</event>
<event>
 6    1  0.1198667E-001  0.3000000E+03  0.7818608E-02  0.1093470E+00
         21   -1    0    0  501  502  0.00000000000E+00  0.00000000000E+00  0.18326992220E+01  0.18326992220E+01  0.00000000000E+00 0. -1.
         13   -1    0    0    0    0 -0.00000000000E+00 -0.00000000000E+00 -0.10000000000E+04  0.10000000000E+04  0.00000000000E+00 0.  1.
    9000005    2    1    2  501    0 -0.32250126484E+02 -0.68389749018E+01 -0.81680990001E+03  0.81750324133E+03  0.68040123276E+01 0.  0.
         13    1    3    3    0    0 -0.31931159891E+02 -0.56570881459E+01 -0.79052878145E+03  0.79119362733E+03  0.00000000000E+00 0.  1.
          3    1    3    3  501    0 -0.31896659209E+00 -0.11818867559E+01 -0.26281118560E+02  0.26309613999E+02  0.00000000000E+00 0.  1.
         -3    1    1    2    0  502  0.32250126484E+02  0.68389749018E+01 -0.18135740077E+03  0.18432945790E+03  0.00000000000E+00 0. -1.
<mgrwt>
<rscale>  1 0.30000000E+03</rscale>
<asrwt>0</asrwt>
<pdfrwt beam="1">  1       21 0.66643749E-02 0.30000000E+03</pdfrwt>
<pdfrwt beam="2">0</pdfrwt>
<totfact> 0.17572923E+04</totfact>
</mgrwt>
</event>
<event>
 6    1  0.1198667E-001  0.3000000E+03  0.7818608E-02  0.1093470E+00
         21   -1    0    0  501  502  0.00000000000E+00  0.00000000000E+00  0.29011551412E+01  0.29011551412E+01  0.00000000000E+00 0. -1.
         13   -1    0    0    0    0 -0.00000000000E+00 -0.00000000000E+00 -0.10000000000E+04  0.10000000000E+04  0.00000000000E+00 0.  1.
    9000005    2    1    2  501    0 -0.56853219315E-03 -0.51496133120E+02 -0.35397267259E+03  0.35771658839E+03  0.35570966887E+01 0.  0.
         13    1    3    3    0    0 -0.16106414968E+00 -0.52235913103E+01 -0.29186624160E+02  0.29650815801E+02  0.00000000000E+00 0.  1.
          3    1    3    3  501    0  0.16049561749E+00 -0.46272541809E+02 -0.32478604843E+03  0.32806577258E+03  0.00000000000E+00 0.  1.
         -1    1    1    2    0  502  0.56853219315E-03  0.51496133120E+02 -0.64312617227E+03  0.64518456676E+03  0.00000000000E+00 0. -1.
<mgrwt>
<rscale>  1 0.30000000E+03</rscale>
<asrwt>0</asrwt>
<pdfrwt beam="1">  1       21 0.10549677E-01 0.30000000E+03</pdfrwt>
<pdfrwt beam="2">0</pdfrwt>
<totfact> 0.78174341E+03</totfact>
</mgrwt>
</event>
<event>
 6    1  0.1198667E-001  0.3000000E+03  0.7818608E-02  0.1093470E+00
         21   -1    0    0  501  502  0.00000000000E+00  0.00000000000E+00  0.28532149038E+01  0.28532149038E+01  0.00000000000E+00 0. -1.
         13   -1    0    0    0    0 -0.00000000000E+00 -0.00000000000E+00 -0.10000000000E+04  0.10000000000E+04  0.00000000000E+00 0.  1.
    9000005    2    1    2  501    0  0.28782025179E+02  0.34628952072E+02 -0.76771333801E+03  0.76904287309E+03  0.39499372484E+01 0.  0.
         13    1    3    3    0    0  0.19271721087E+02  0.20648433596E+02 -0.46282475516E+03  0.46368578912E+03  0.00000000000E+00 0.  1.
          1    1    3    3  501    0  0.95103040919E+01  0.13980518476E+02 -0.30488858285E+03  0.30535708398E+03  0.00000000000E+00 0.  1.
         -1    1    1    2    0  502 -0.28782025179E+02 -0.34628952072E+02 -0.22943344709E+03  0.23381034181E+03  0.00000000000E+00 0. -1.
<mgrwt>
<rscale>  1 0.30000000E+03</rscale>
<asrwt>0</asrwt>
<pdfrwt beam="1">  1       21 0.10375349E-01 0.30000000E+03</pdfrwt>
<pdfrwt beam="2">0</pdfrwt>
<totfact> 0.80543916E+03</totfact>
</mgrwt>
</event>
<event>
 6    1  0.1198667E-001  0.3000000E+03  0.7818608E-02  0.1093470E+00
         21   -1    0    0  501  502  0.00000000000E+00  0.00000000000E+00  0.44295702297E+01  0.44295702297E+01  0.00000000000E+00 0. -1.
         13   -1    0    0    0    0 -0.00000000000E+00 -0.00000000000E+00 -0.10000000000E+04  0.10000000000E+04  0.00000000000E+00 0.  1.
    9000005    2    1    2  501    0  0.22355005654E+02  0.22083459215E+02 -0.94047138216E+03  0.94099984143E+03  0.26182916291E+01 0.  0.
         13    1    3    3    0    0  0.24647224630E+01  0.32968154136E+01 -0.10527060570E+03  0.10535105255E+03  0.00000000000E+00 0.  1.
          1    1    3    3  501    0  0.19890283191E+02  0.18786643801E+02 -0.83520077646E+03  0.83564878888E+03  0.00000000000E+00 0.  1.
         -1    1    1    2    0  502 -0.22355005654E+02 -0.22083459215E+02 -0.55099047609E+02  0.63429728803E+02  0.00000000000E+00 0. -1.
<mgrwt>
<rscale>  1 0.30000000E+03</rscale>
<asrwt>0</asrwt>
<pdfrwt beam="1">  1       21 0.16107562E-01 0.30000000E+03</pdfrwt>
<pdfrwt beam="2">0</pdfrwt>
<totfact> 0.36073210E+03</totfact>
</mgrwt>
</event>
<event>
 6    1  0.1198667E-001  0.3000000E+03  0.7818608E-02  0.1093470E+00
         21   -1    0    0  501  502  0.00000000000E+00  0.00000000000E+00  0.34652036474E+01  0.34652036474E+01  0.00000000000E+00 0. -1.
         13   -1    0    0    0    0 -0.00000000000E+00 -0.00000000000E+00 -0.10000000000E+04  0.10000000000E+04  0.00000000000E+00 0.  1.
    9000005    2    1    2  501    0  0.11367386198E+02  0.52245007182E+02 -0.70772247499E+03  0.70974541335E+03  0.29482051646E+01 0.  0.
         13    1    3    3    0    0  0.45464136388E+01  0.20568477197E+02 -0.29812575724E+03  0.29886903363E+03  0.00000000000E+00 0.  1.
          3    1    3    3  501    0  0.68209725590E+01  0.31676529985E+02 -0.40959671775E+03  0.41087637972E+03  0.00000000000E+00 0.  1.
         -1    1    1    2    0  502 -0.11367386198E+02 -0.52245007182E+02 -0.28881232136E+03  0.29371979030E+03  0.00000000000E+00 0. -1.
<mgrwt>
<rscale>  1 0.30000000E+03</rscale>
<asrwt>0</asrwt>
<pdfrwt beam="1">  1       21 0.12600767E-01 0.30000000E+03</pdfrwt>
<pdfrwt beam="2">0</pdfrwt>
<totfact> 0.56701441E+03</totfact>
</mgrwt>
</event>
<event>
 6    1  0.1198667E-001  0.3000000E+03  0.7818608E-02  0.1093470E+00
         21   -1    0    0  501  502  0.00000000000E+00  0.00000000000E+00  0.44995237994E+01  0.44995237994E+01  0.00000000000E+00 0. -1.
         13   -1    0    0    0    0 -0.00000000000E+00 -0.00000000000E+00 -0.10000000000E+04  0.10000000000E+04  0.00000000000E+00 0.  1.
    9000005    2    1    2  501    0  0.46996670398E+02  0.27005256485E+02 -0.79341008347E+03  0.79526640562E+03  0.33353350625E+01 0.  0.
         13    1    3    3    0    0  0.51281563466E+01  0.32452147470E+01 -0.74946341194E+02  0.75191644912E+02  0.00000000000E+00 0.  1.
          1    1    3    3  501    0  0.41868514052E+02  0.23760041738E+02 -0.71846374227E+03  0.72007476071E+03  0.00000000000E+00 0.  1.
         -3    1    1    2    0  502 -0.46996670398E+02 -0.27005256485E+02 -0.20209039273E+03  0.20923311818E+03  0.00000000000E+00 0. -1.
<mgrwt>
<rscale>  1 0.30000000E+03</rscale>
<asrwt>0</asrwt>
<pdfrwt beam="1">  1       21 0.16361939E-01 0.30000000E+03</pdfrwt>
<pdfrwt beam="2">0</pdfrwt>
<totfact> 0.35033807E+03</totfact>
</mgrwt>
</event>
<event>
 6    1  0.1198667E-001  0.3000000E+03  0.7818608E-02  0.1093470E+00
         21   -1    0    0  501  502  0.00000000000E+00  0.00000000000E+00  0.85389481684E+01  0.85389481684E+01  0.00000000000E+00 0. -1.
         13   -1    0    0    0    0 -0.00000000000E+00 -0.00000000000E+00 -0.10000000000E+04  0.10000000000E+04  0.00000000000E+00 0.  1.
    9000005    2    1    2  501    0  0.78904461262E+02  0.90123455839E+01 -0.75336835744E+03  0.75755036774E+03  0.33972488552E+01 0.  0.
         13    1    3    3    0    0  0.49856204598E+02  0.42344057462E+01 -0.46696844457E+03  0.46964145852E+03  0.00000000000E+00 0.  1.
          1    1    3    3  501    0  0.29048256665E+02  0.47779398377E+01 -0.28639991286E+03  0.28790890923E+03  0.00000000000E+00 0.  1.
         -3    1    1    2    0  502 -0.78904461262E+02 -0.90123455839E+01 -0.23809269439E+03  0.25098858042E+03  0.00000000000E+00 0. -1.
<mgrwt>
<rscale>  1 0.30000000E+03</rscale>
<asrwt>0</asrwt>
<pdfrwt beam="1">  1       21 0.31050786E-01 0.30000000E+03</pdfrwt>
<pdfrwt beam="2">0</pdfrwt>
<totfact> 0.10147387E+03</totfact>
</mgrwt>
</event>
<event>
 6    1  0.1198667E-001  0.3000000E+03  0.7818608E-02  0.1093470E+00
         21   -1    0    0  501  502  0.00000000000E+00  0.00000000000E+00  0.37758908593E+01  0.37758908593E+01  0.00000000000E+00 0. -1.
         13   -1    0    0    0    0 -0.00000000000E+00 -0.00000000000E+00 -0.10000000000E+04  0.10000000000E+04  0.00000000000E+00 0.  1.
    9000005    2    1    2  501    0 -0.31607508157E+02 -0.52604352783E+01 -0.92614529498E+03  0.92671911345E+03  0.60416106789E+01 0.  0.
         13    1    3    3    0    0 -0.15198880206E+02 -0.32364244611E+01 -0.53269125288E+03  0.53291786544E+03  0.00000000000E+00 0.  1.
          1    1    3    3  501    0 -0.16408627951E+02 -0.20240108172E+01 -0.39345404210E+03  0.39380124801E+03  0.00000000000E+00 0.  1.
         -3    1    1    2    0  502  0.31607508157E+02  0.52604352783E+01 -0.70078814157E+02  0.77056777411E+02  0.00000000000E+00 0. -1.
<mgrwt>
<rscale>  1 0.30000000E+03</rscale>
<asrwt>0</asrwt>
<pdfrwt beam="1">  1       21 0.13730541E-01 0.30000000E+03</pdfrwt>
<pdfrwt beam="2">0</pdfrwt>
<totfact> 0.48465352E+03</totfact>
</mgrwt>
</event>
<event>
 6    1  0.1198667E-001  0.3000000E+03  0.7818608E-02  0.1093470E+00
         21   -1    0    0  501  502  0.00000000000E+00  0.00000000000E+00  0.38810561170E+01  0.38810561170E+01  0.00000000000E+00 0. -1.
         13   -1    0    0    0    0 -0.00000000000E+00 -0.00000000000E+00 -0.10000000000E+04  0.10000000000E+04  0.00000000000E+00 0.  1.
    9000005    2    1    2  501    0 -0.34985699949E+02  0.45153754872E+02 -0.29914372702E+03  0.30456902727E+03  0.35301801733E+01 0.  0.
         13    1    3    3    0    0 -0.31912555073E+02  0.41443269582E+02 -0.26827768922E+03  0.27332924157E+03  0.00000000000E+00 0.  1.
          3    1    3    3  501    0 -0.30731448756E+01  0.37104852898E+01 -0.30866037800E+02  0.31239785691E+02  0.00000000000E+00 0.  1.
         -1    1    1    2    0  502  0.34985699949E+02 -0.45153754872E+02 -0.69697521686E+03  0.69931202885E+03  0.00000000000E+00 0. -1.
<mgrwt>
<rscale>  1 0.30000000E+03</rscale>
<asrwt>0</asrwt>
<pdfrwt beam="1">  1       21 0.14112961E-01 0.30000000E+03</pdfrwt>
<pdfrwt beam="2">0</pdfrwt>
<totfact> 0.46081054E+03</totfact>
</mgrwt>
</event>
<event>
 6    1  0.1198667E-001  0.3000000E+03  0.7818608E-02  0.1093470E+00
         21   -1    0    0  501  502  0.00000000000E+00  0.00000000000E+00  0.30293250647E+01  0.30293250647E+01  0.00000000000E+00 0. -1.
         13   -1    0    0    0    0 -0.00000000000E+00 -0.00000000000E+00 -0.10000000000E+04  0.10000000000E+04  0.00000000000E+00 0.  1.
    9000005    2    1    2  501    0  0.11057745200E+02  0.53073642479E+02 -0.41596369856E+03  0.41949852737E+03  0.37590817634E+01 0.  0.
         13    1    3    3    0    0  0.17279348486E+01  0.15286385801E+02 -0.11091290074E+03  0.11197468865E+03  0.00000000000E+00 0.  1.
          3    1    3    3  501    0  0.93298103509E+01  0.37787256678E+02 -0.30505079782E+03  0.30752383872E+03  0.00000000000E+00 0.  1.
         -1    1    1    2    0  502 -0.11057745200E+02 -0.53073642479E+02 -0.58100697638E+03  0.58353079769E+03  0.00000000000E+00 0. -1.
<mgrwt>
<rscale>  1 0.30000000E+03</rscale>
<asrwt>0</asrwt>
<pdfrwt beam="1">  1       21 0.11015751E-01 0.30000000E+03</pdfrwt>
<pdfrwt beam="2">0</pdfrwt>
<totfact> 0.72333767E+03</totfact>
</mgrwt>
</event>
<event>
 6    1  0.1198667E-001  0.3000000E+03  0.7818608E-02  0.1093470E+00
         21   -1    0    0  501  502  0.00000000000E+00  0.00000000000E+00  0.10044712380E+01  0.10044712380E+01  0.00000000000E+00 0. -1.
         13   -1    0    0    0    0 -0.00000000000E+00 -0.00000000000E+00 -0.10000000000E+04  0.10000000000E+04  0.00000000000E+00 0.  1.
    9000005    2    1    2  501    0  0.29772938428E+02  0.87096725578E+01 -0.40440403767E+03  0.40560433055E+03  0.31561074114E+01 0.  0.
         13    1    3    3    0    0  0.20983343039E+02  0.47879550481E+01 -0.27059935314E+03  0.27145392817E+03  0.00000000000E+00 0.  1.
          1    1    3    3  501    0  0.87895953888E+01  0.39217175097E+01 -0.13380468453E+03  0.13415040238E+03  0.00000000000E+00 0.  1.
         -3    1    1    2    0  502 -0.29772938428E+02 -0.87096725578E+01 -0.59459149109E+03  0.59540014069E+03  0.00000000000E+00 0. -1.
<mgrwt>
<rscale>  1 0.30000000E+03</rscale>
<asrwt>0</asrwt>
<pdfrwt beam="1">  1       21 0.36526304E-02 0.30000000E+03</pdfrwt>
<pdfrwt beam="2">0</pdfrwt>
<totfact> 0.48983214E+04</totfact>
</mgrwt>
</event>
<event>
 6    1  0.1198667E-001  0.3000000E+03  0.7818608E-02  0.1093470E+00
         21   -1    0    0  501  502  0.00000000000E+00  0.00000000000E+00  0.10515309292E+01  0.10515309292E+01  0.00000000000E+00 0. -1.
         13   -1    0    0    0    0 -0.00000000000E+00 -0.00000000000E+00 -0.10000000000E+04  0.10000000000E+04  0.00000000000E+00 0.  1.
    9000005    2    1    2  501    0  0.29027494748E+02  0.13979102826E+02 -0.54066295672E+03  0.54163492087E+03  0.37341625621E+01 0.  0.
         13    1    3    3    0    0  0.31620087400E+01  0.25521868169E+01 -0.82743675497E+02  0.82843393168E+02  0.00000000000E+00 0.  1.
          1    1    3    3  501    0  0.25865486008E+02  0.11426916010E+02 -0.45791928122E+03  0.45879152770E+03  0.00000000000E+00 0.  1.
         -1    1    1    2    0  502 -0.29027494748E+02 -0.13979102826E+02 -0.45828551235E+03  0.45941661006E+03  0.00000000000E+00 0. -1.
<mgrwt>
<rscale>  1 0.30000000E+03</rscale>
<asrwt>0</asrwt>
<pdfrwt beam="1">  1       21 0.38237569E-02 0.30000000E+03</pdfrwt>
<pdfrwt beam="2">0</pdfrwt>
<totfact> 0.45358565E+04</totfact>
</mgrwt>
</event>
<event>
 6    1  0.1198667E-001  0.3000000E+03  0.7818608E-02  0.1093470E+00
         21   -1    0    0  501  502  0.00000000000E+00  0.00000000000E+00  0.24126782563E+01  0.24126782563E+01  0.00000000000E+00 0. -1.
         13   -1    0    0    0    0 -0.00000000000E+00 -0.00000000000E+00 -0.10000000000E+04  0.10000000000E+04  0.00000000000E+00 0.  1.
    9000005    2    1    2  501    0 -0.36410250206E+02  0.21341119273E+02 -0.75493930426E+03  0.75612177286E+03  0.23733068467E+01 0.  0.
         13    1    3    3    0    0 -0.33589295869E+00  0.22083651712E+00 -0.40810912372E+01  0.41008411983E+01  0.00000000000E+00 0.  1.
          3    1    3    3  501    0 -0.36074357247E+02  0.21120282756E+02 -0.75085821302E+03  0.75202093166E+03  0.00000000000E+00 0.  1.
         -3    1    1    2    0  502  0.36410250206E+02 -0.21341119273E+02 -0.24264801749E+03  0.24629090540E+03  0.00000000000E+00 0. -1.
<mgrwt>
<rscale>  1 0.30000000E+03</rscale>
<asrwt>0</asrwt>
<pdfrwt beam="1">  1       21 0.87733940E-02 0.30000000E+03</pdfrwt>
<pdfrwt beam="2">0</pdfrwt>
<totfact> 0.10857159E+04</totfact>
</mgrwt>
</event>
<event>
 6    1  0.1198667E-001  0.3000000E+03  0.7818608E-02  0.1093470E+00
         21   -1    0    0  501  502  0.00000000000E+00  0.00000000000E+00  0.15874788941E+01  0.15874788941E+01  0.00000000000E+00 0. -1.
         13   -1    0    0    0    0 -0.00000000000E+00 -0.00000000000E+00 -0.10000000000E+04  0.10000000000E+04  0.00000000000E+00 0.  1.
    9000005    2    1    2  501    0 -0.20722177309E+02 -0.24445542521E+02 -0.79615731727E+03  0.79680915812E+03  0.33715627078E+01 0.  0.
         13    1    3    3    0    0 -0.12009485207E+02 -0.12587737385E+02 -0.46408946706E+03  0.46441545227E+03  0.00000000000E+00 0.  1.
          1    1    3    3  501    0 -0.87126921026E+01 -0.11857805135E+02 -0.33206785021E+03  0.33239370585E+03  0.00000000000E+00 0.  1.
         -1    1    1    2    0  502  0.20722177309E+02  0.24445542521E+02 -0.20225520383E+03  0.20477832077E+03  0.00000000000E+00 0. -1.
<mgrwt>
<rscale>  1 0.30000000E+03</rscale>
<asrwt>0</asrwt>
<pdfrwt beam="1">  1       21 0.57726627E-02 0.30000000E+03</pdfrwt>
<pdfrwt beam="2">0</pdfrwt>
<totfact> 0.22522035E+04</totfact>
</mgrwt>
</event>
<event>
 6    1  0.1198667E-001  0.3000000E+03  0.7818608E-02  0.1093470E+00
         21   -1    0    0  501  502  0.00000000000E+00  0.00000000000E+00  0.15804628155E+01  0.15804628155E+01  0.00000000000E+00 0. -1.
         13   -1    0    0    0    0 -0.00000000000E+00 -0.00000000000E+00 -0.10000000000E+04  0.10000000000E+04  0.00000000000E+00 0.  1.
    9000005    2    1    2  501    0  0.81735713046E+01  0.30065804314E+02 -0.80959053024E+03  0.81019824389E+03  0.36888877047E+01 0.  0.
         13    1    3    3    0    0  0.81932019869E+01  0.28840995198E+02 -0.79055484912E+03  0.79112318954E+03  0.00000000000E+00 0.  1.
          3    1    3    3  501    0 -0.19630682227E-01  0.12248091161E+01 -0.19035681122E+02  0.19075054351E+02  0.00000000000E+00 0.  1.
         -3    1    1    2    0  502 -0.81735713046E+01 -0.30065804314E+02 -0.18882900695E+03  0.19138221893E+03  0.00000000000E+00 0. -1.
<mgrwt>
<rscale>  1 0.30000000E+03</rscale>
<asrwt>0</asrwt>
<pdfrwt beam="1">  1       21 0.57471496E-02 0.30000000E+03</pdfrwt>
<pdfrwt beam="2">0</pdfrwt>
<totfact> 0.22694387E+04</totfact>
</mgrwt>
</event>
<event>
 6    1  0.1198667E-001  0.3000000E+03  0.7818608E-02  0.1093470E+00
         21   -1    0    0  501  502  0.00000000000E+00  0.00000000000E+00  0.16462289372E+01  0.16462289372E+01  0.00000000000E+00 0. -1.
         13   -1    0    0    0    0 -0.00000000000E+00 -0.00000000000E+00 -0.10000000000E+04  0.10000000000E+04  0.00000000000E+00 0.  1.
    9000005    2    1    2  501    0 -0.28882891422E+02  0.21495999657E+02 -0.72751262062E+03  0.72842245949E+03  0.53260594017E+01 0.  0.
         13    1    3    3    0    0 -0.41809142566E+01  0.36372783502E+01 -0.79179942630E+02  0.79373630084E+02  0.00000000000E+00 0.  1.
          3    1    3    3  501    0 -0.24701977166E+02  0.17858721307E+02 -0.64833267799E+03  0.64904882940E+03  0.00000000000E+00 0.  1.
         -3    1    1    2    0  502  0.28882891422E+02 -0.21495999657E+02 -0.27084115045E+03  0.27322376945E+03  0.00000000000E+00 0. -1.
<mgrwt>
<rscale>  1 0.30000000E+03</rscale>
<asrwt>0</asrwt>
<pdfrwt beam="1">  1       21 0.59862997E-02 0.30000000E+03</pdfrwt>
<pdfrwt beam="2">0</pdfrwt>
<totfact> 0.21154901E+04</totfact>
</mgrwt>
</event>
<event>
 6    1  0.1198667E-001  0.3000000E+03  0.7818608E-02  0.1093470E+00
         21   -1    0    0  501  502  0.00000000000E+00  0.00000000000E+00  0.16300982065E+01  0.16300982065E+01  0.00000000000E+00 0. -1.
         13   -1    0    0    0    0 -0.00000000000E+00 -0.00000000000E+00 -0.10000000000E+04  0.10000000000E+04  0.00000000000E+00 0.  1.
    9000005    2    1    2  501    0  0.32474788722E+01 -0.36991470727E+02 -0.69465211467E+03  0.69565067204E+03  0.30630149355E+01 0.  0.
         13    1    3    3    0    0  0.42971521251E+00 -0.15832878819E+01 -0.42905506070E+02  0.42936859536E+02  0.00000000000E+00 0.  1.
          1    1    3    3  501    0  0.28177636597E+01 -0.35408182845E+02 -0.65174660860E+03  0.65271381250E+03  0.00000000000E+00 0.  1.
         -3    1    1    2    0  502 -0.32474788722E+01  0.36991470727E+02 -0.30371778712E+03  0.30597942617E+03  0.00000000000E+00 0. -1.
<mgrwt>
<rscale>  1 0.30000000E+03</rscale>
<asrwt>0</asrwt>
<pdfrwt beam="1">  1       21 0.59276423E-02 0.30000000E+03</pdfrwt>
<pdfrwt beam="2">0</pdfrwt>
<totfact> 0.21517128E+04</totfact>
</mgrwt>
</event>
<event>
 6    1  0.1198667E-001  0.3000000E+03  0.7818608E-02  0.1093470E+00
         21   -1    0    0  501  502  0.00000000000E+00  0.00000000000E+00  0.12903361616E+01  0.12903361616E+01  0.00000000000E+00 0. -1.
         13   -1    0    0    0    0 -0.00000000000E+00 -0.00000000000E+00 -0.10000000000E+04  0.10000000000E+04  0.00000000000E+00 0.  1.
    9000005    2    1    2  501    0  0.18420232974E+02 -0.27451846147E+02 -0.69104406039E+03  0.69185369905E+03  0.51709432135E+01 0.  0.
         13    1    3    3    0    0  0.35664364863E+01 -0.22957189189E+01 -0.91890490087E+02  0.91988325145E+02  0.00000000000E+00 0.  1.
          3    1    3    3  501    0  0.14853796488E+02 -0.25156127228E+02 -0.59915357030E+03  0.59986537391E+03  0.00000000000E+00 0.  1.
         -1    1    1    2    0  502 -0.18420232974E+02  0.27451846147E+02 -0.30766560345E+03  0.30943663711E+03  0.00000000000E+00 0. -1.
<mgrwt>
<rscale>  1 0.30000000E+03</rscale>
<asrwt>0</asrwt>
<pdfrwt beam="1">  1       21 0.46921414E-02 0.30000000E+03</pdfrwt>
<pdfrwt beam="2">0</pdfrwt>
<totfact> 0.32095520E+04</totfact>
</mgrwt>
</event>
<event>
 6    1  0.1198667E-001  0.3000000E+03  0.7818608E-02  0.1093470E+00
         21   -1    0    0  501  502  0.00000000000E+00  0.00000000000E+00  0.16725641140E+01  0.16725641140E+01  0.00000000000E+00 0. -1.
         13   -1    0    0    0    0 -0.00000000000E+00 -0.00000000000E+00 -0.10000000000E+04  0.10000000000E+04  0.00000000000E+00 0.  1.
    9000005    2    1    2  501    0 -0.38907489706E+02  0.83829461191E+01 -0.59234061110E+03  0.59373952005E+03  0.86690004089E+01 0.  0.
         13    1    3    3    0    0 -0.22494877649E+02  0.58826161275E+00 -0.31142312921E+03  0.31223505725E+03  0.00000000000E+00 0.  1.
          1    1    3    3  501    0 -0.16412612057E+02  0.77946845064E+01 -0.28091748190E+03  0.28150446280E+03  0.00000000000E+00 0.  1.
         -3    1    1    2    0  502  0.38907489706E+02 -0.83829461191E+01 -0.40598682478E+03  0.40793304406E+03  0.00000000000E+00 0. -1.
<mgrwt>
<rscale>  1 0.30000000E+03</rscale>
<asrwt>0</asrwt>
<pdfrwt beam="1">  1       21 0.60820641E-02 0.30000000E+03</pdfrwt>
<pdfrwt beam="2">0</pdfrwt>
<totfact> 0.20583590E+04</totfact>
</mgrwt>
</event>
<event>
 6    1  0.1198667E-001  0.3000000E+03  0.7818608E-02  0.1093470E+00
         21   -1    0    0  501  502  0.00000000000E+00  0.00000000000E+00  0.16312944162E+01  0.16312944162E+01  0.00000000000E+00 0. -1.
         13   -1    0    0    0    0 -0.00000000000E+00 -0.00000000000E+00 -0.10000000000E+04  0.10000000000E+04  0.00000000000E+00 0.  1.
    9000005    2    1    2  501    0  0.22101254020E+02 -0.28802758126E+02 -0.71754167460E+03  0.71846723308E+03  0.33235384050E+01 0.  0.
         13    1    3    3    0    0  0.16859946389E+02 -0.21631644595E+02 -0.56841161771E+03  0.56907288899E+03  0.00000000000E+00 0.  1.
          3    1    3    3  501    0  0.52413076313E+01 -0.71711135309E+01 -0.14913005690E+03  0.14939434409E+03  0.00000000000E+00 0.  1.
         -1    1    1    2    0  502 -0.22101254020E+02  0.28802758126E+02 -0.28082703098E+03  0.28316406134E+03  0.00000000000E+00 0. -1.
<mgrwt>
<rscale>  1 0.30000000E+03</rscale>
<asrwt>0</asrwt>
<pdfrwt beam="1">  1       21 0.59319922E-02 0.30000000E+03</pdfrwt>
<pdfrwt beam="2">0</pdfrwt>
<totfact> 0.21489936E+04</totfact>
</mgrwt>
</event>
<event>
 6    1  0.1198667E-001  0.3000000E+03  0.7818608E-02  0.1093470E+00
         21   -1    0    0  501  502  0.00000000000E+00  0.00000000000E+00  0.94733660010E+00  0.94733660010E+00  0.00000000000E+00 0. -1.
         13   -1    0    0    0    0 -0.00000000000E+00 -0.00000000000E+00 -0.10000000000E+04  0.10000000000E+04  0.00000000000E+00 0.  1.
    9000005    2    1    2  501    0 -0.29874438487E+02 -0.59348212669E+01 -0.55803967751E+03  0.55888381413E+03  0.38899663885E+01 0.  0.
         13    1    3    3    0    0 -0.79836264558E+01 -0.28878567117E+01 -0.13423189476E+03  0.13450010996E+03  0.00000000000E+00 0.  1.
          1    1    3    3  501    0 -0.21890812032E+02 -0.30469645551E+01 -0.42380778275E+03  0.42438370417E+03  0.00000000000E+00 0.  1.
         -1    1    1    2    0  502  0.29874438487E+02  0.59348212669E+01 -0.44101298589E+03  0.44206352247E+03  0.00000000000E+00 0. -1.
<mgrwt>
<rscale>  1 0.30000000E+03</rscale>
<asrwt>0</asrwt>
<pdfrwt beam="1">  1       21 0.34448676E-02 0.30000000E+03</pdfrwt>
<pdfrwt beam="2">0</pdfrwt>
<totfact> 0.54033641E+04</totfact>
</mgrwt>
</event>
<event>
 6    1  0.1198667E-001  0.3000000E+03  0.7818608E-02  0.1093470E+00
         21   -1    0    0  501  502  0.00000000000E+00  0.00000000000E+00  0.34151393267E+01  0.34151393267E+01  0.00000000000E+00 0. -1.
         13   -1    0    0    0    0 -0.00000000000E+00 -0.00000000000E+00 -0.10000000000E+04  0.10000000000E+04  0.00000000000E+00 0.  1.
    9000005    2    1    2  501    0  0.91011190001E+01  0.57105614357E+02 -0.56865965960E+03  0.57160052717E+03  0.30777665271E+01 0.  0.
         13    1    3    3    0    0  0.16612655099E+00  0.68952774767E+01 -0.71561969704E+02  0.71893587735E+02  0.00000000000E+00 0.  1.
          3    1    3    3  501    0  0.89349924491E+01  0.50210336880E+02 -0.49709768989E+03  0.49970693943E+03  0.00000000000E+00 0.  1.
         -3    1    1    2    0  502 -0.91011190001E+01 -0.57105614357E+02 -0.42792520107E+03  0.43181461216E+03  0.00000000000E+00 0. -1.
<mgrwt>
<rscale>  1 0.30000000E+03</rscale>
<asrwt>0</asrwt>
<pdfrwt beam="1">  1       21 0.12418715E-01 0.30000000E+03</pdfrwt>
<pdfrwt beam="2">0</pdfrwt>
<totfact> 0.58224580E+03</totfact>
</mgrwt>
</event>
<event>
 6    1  0.1198667E-001  0.3000000E+03  0.7818608E-02  0.1093470E+00
         21   -1    0    0  501  502  0.00000000000E+00  0.00000000000E+00  0.51889897503E+01  0.51889897503E+01  0.00000000000E+00 0. -1.
         13   -1    0    0    0    0 -0.00000000000E+00 -0.00000000000E+00 -0.10000000000E+04  0.10000000000E+04  0.00000000000E+00 0.  1.
    9000005    2    1    2  501    0  0.56159555543E+02 -0.22220380911E+02 -0.77107058736E+03  0.77344038060E+03  0.35398657367E+01 0.  0.
         13    1    3    3    0    0  0.12720267899E+02 -0.65078165180E+01 -0.19013694598E+03  0.19067305818E+03  0.00000000000E+00 0.  1.
          1    1    3    3  501    0  0.43439287645E+02 -0.15712564393E+02 -0.58093364138E+03  0.58276732242E+03  0.00000000000E+00 0.  1.
         -3    1    1    2    0  502 -0.56159555543E+02  0.22220380911E+02 -0.22374042289E+03  0.23174860915E+03  0.00000000000E+00 0. -1.
<mgrwt>
<rscale>  1 0.30000000E+03</rscale>
<asrwt>0</asrwt>
<pdfrwt beam="1">  1       21 0.18869093E-01 0.30000000E+03</pdfrwt>
<pdfrwt beam="2">0</pdfrwt>
<totfact> 0.26799631E+03</totfact>
</mgrwt>
</event>
<event>
 6    1  0.1198667E-001  0.3000000E+03  0.7818608E-02  0.1093470E+00
         21   -1    0    0  501  502  0.00000000000E+00  0.00000000000E+00  0.28944506359E+01  0.28944506359E+01  0.00000000000E+00 0. -1.
         13   -1    0    0    0    0 -0.00000000000E+00 -0.00000000000E+00 -0.10000000000E+04  0.10000000000E+04  0.00000000000E+00 0.  1.
    9000005    2    1    2  501    0  0.86492285746E+01 -0.37391815520E+02 -0.84969107996E+03  0.85056591486E+03  0.38061963085E+01 0.  0.
         13    1    3    3    0    0  0.97660315833E-01 -0.12185267749E+01 -0.16005231763E+02  0.16051846898E+02  0.00000000000E+00 0.  1.
          1    1    3    3  501    0  0.85515682588E+01 -0.36173288745E+02 -0.83368584820E+03  0.83451406796E+03  0.00000000000E+00 0.  1.
         -3    1    1    2    0  502 -0.86492285746E+01  0.37391815520E+02 -0.14741446940E+03  0.15232853577E+03  0.00000000000E+00 0. -1.
<mgrwt>
<rscale>  1 0.30000000E+03</rscale>
<asrwt>0</asrwt>
<pdfrwt beam="1">  1       21 0.10525297E-01 0.30000000E+03</pdfrwt>
<pdfrwt beam="2">0</pdfrwt>
<totfact> 0.78499316E+03</totfact>
</mgrwt>
</event>
<event>
 6    1  0.1198667E-001  0.3000000E+03  0.7818608E-02  0.1093470E+00
         21   -1    0    0  501  502  0.00000000000E+00  0.00000000000E+00  0.11260241106E+01  0.11260241106E+01  0.00000000000E+00 0. -1.
         13   -1    0    0    0    0 -0.00000000000E+00 -0.00000000000E+00 -0.10000000000E+04  0.10000000000E+04  0.00000000000E+00 0.  1.
    9000005    2    1    2  501    0 -0.12378996532E+02 -0.31015904808E+02 -0.52227339024E+03  0.52335689143E+03  0.42090073080E+01 0.  0.
         13    1    3    3    0    0 -0.85820741282E+01 -0.24355889403E+02 -0.42336439593E+03  0.42415123846E+03  0.00000000000E+00 0.  1.
          3    1    3    3  501    0 -0.37969224034E+01 -0.66600154050E+01 -0.98908994311E+02  0.99205652967E+02  0.00000000000E+00 0.  1.
         -3    1    1    2    0  502  0.12378996532E+02  0.31015904808E+02 -0.47660058565E+03  0.47776913268E+03  0.00000000000E+00 0. -1.
<mgrwt>
<rscale>  1 0.30000000E+03</rscale>
<asrwt>0</asrwt>
<pdfrwt beam="1">  1       21 0.40946418E-02 0.30000000E+03</pdfrwt>
<pdfrwt beam="2">0</pdfrwt>
<totfact> 0.40422673E+04</totfact>
</mgrwt>
</event>
<event>
 6    1  0.1198667E-001  0.3000000E+03  0.7818608E-02  0.1093470E+00
         21   -1    0    0  501  502  0.00000000000E+00  0.00000000000E+00  0.16398918256E+01  0.16398918256E+01  0.00000000000E+00 0. -1.
         13   -1    0    0    0    0 -0.00000000000E+00 -0.00000000000E+00 -0.10000000000E+04  0.10000000000E+04  0.00000000000E+00 0.  1.
    9000005    2    1    2  501    0 -0.24757095790E+02  0.30822438340E+02 -0.60387428435E+03  0.60517803781E+03  0.36564520663E+01 0.  0.
         13    1    3    3    0    0 -0.14788642489E+02  0.20304414127E+02 -0.40243159709E+03  0.40321478584E+03  0.00000000000E+00 0.  1.
          3    1    3    3  501    0 -0.99684533009E+01  0.10518024213E+02 -0.20144268726E+03  0.20196325197E+03  0.00000000000E+00 0.  1.
         -3    1    1    2    0  502  0.24757095790E+02 -0.30822438340E+02 -0.39448582382E+03  0.39646185402E+03  0.00000000000E+00 0. -1.
<mgrwt>
<rscale>  1 0.30000000E+03</rscale>
<asrwt>0</asrwt>
<pdfrwt beam="1">  1       21 0.59632556E-02 0.30000000E+03</pdfrwt>
<pdfrwt beam="2">0</pdfrwt>
<totfact> 0.21296064E+04</totfact>
</mgrwt>
</event>
<event>
 6    1  0.1198667E-001  0.3000000E+03  0.7818608E-02  0.1093470E+00
         21   -1    0    0  501  502  0.00000000000E+00  0.00000000000E+00  0.54691614425E+01  0.54691614425E+01  0.00000000000E+00 0. -1.
         13   -1    0    0    0    0 -0.00000000000E+00 -0.00000000000E+00 -0.10000000000E+04  0.10000000000E+04  0.00000000000E+00 0.  1.
    9000005    2    1    2  501    0  0.50949326380E+02  0.28237304880E+02 -0.80687831329E+03  0.80898341263E+03  0.28931322588E+01 0.  0.
         13    1    3    3    0    0  0.30619345793E+02  0.17893301436E+02 -0.50696612168E+03  0.50820504042E+03  0.00000000000E+00 0.  1.
          3    1    3    3  501    0  0.20329980587E+02  0.10344003443E+02 -0.29991219161E+03  0.30077837221E+03  0.00000000000E+00 0.  1.
         -3    1    1    2    0  502 -0.50949326380E+02 -0.28237304880E+02 -0.18765252527E+03  0.19648574881E+03  0.00000000000E+00 0. -1.
<mgrwt>
<rscale>  1 0.30000000E+03</rscale>
<asrwt>0</asrwt>
<pdfrwt beam="1">  1       21 0.19887902E-01 0.30000000E+03</pdfrwt>
<pdfrwt beam="2">0</pdfrwt>
<totfact> 0.24250932E+03</totfact>
</mgrwt>
</event>
<event>
 6    1  0.1198667E-001  0.3000000E+03  0.7818608E-02  0.1093470E+00
         21   -1    0    0  501  502  0.00000000000E+00  0.00000000000E+00  0.32800262299E+01  0.32800262299E+01  0.00000000000E+00 0. -1.
         13   -1    0    0    0    0 -0.00000000000E+00 -0.00000000000E+00 -0.10000000000E+04  0.10000000000E+04  0.00000000000E+00 0.  1.
    9000005    2    1    2  501    0 -0.29660101040E+02 -0.21294157410E+02 -0.88478259677E+03  0.88553819381E+03  0.21181133312E+01 0.  0.
         13    1    3    3    0    0 -0.68593585848E+01 -0.46545539224E+01 -0.22244337448E+03  0.22259777745E+03  0.00000000000E+00 0.  1.
          1    1    3    3  501    0 -0.22800742455E+02 -0.16639603487E+02 -0.66233922229E+03  0.66294041636E+03  0.00000000000E+00 0.  1.
         -3    1    1    2    0  502  0.29660101040E+02  0.21294157410E+02 -0.11193737700E+03  0.11774183242E+03  0.00000000000E+00 0. -1.
<mgrwt>
<rscale>  1 0.30000000E+03</rscale>
<asrwt>0</asrwt>
<pdfrwt beam="1">  1       21 0.11927393E-01 0.30000000E+03</pdfrwt>
<pdfrwt beam="2">0</pdfrwt>
<totfact> 0.62657321E+03</totfact>
</mgrwt>
</event>
<event>
 6    1  0.1198667E-001  0.3000000E+03  0.7818608E-02  0.1093470E+00
         21   -1    0    0  501  502  0.00000000000E+00  0.00000000000E+00  0.35128377298E+01  0.35128377298E+01  0.00000000000E+00 0. -1.
         13   -1    0    0    0    0 -0.00000000000E+00 -0.00000000000E+00 -0.10000000000E+04  0.10000000000E+04  0.00000000000E+00 0.  1.
    9000005    2    1    2  501    0  0.66487515019E+01  0.51371153045E+02 -0.74192552931E+03  0.74373442016E+03  0.20482727264E+01 0.  0.
         13    1    3    3    0    0  0.36761763894E+01  0.29673416328E+02 -0.41383796458E+03  0.41491672277E+03  0.00000000000E+00 0.  1.
          3    1    3    3  501    0  0.29725751125E+01  0.21697736717E+02 -0.32808756474E+03  0.32881769739E+03  0.00000000000E+00 0.  1.
         -3    1    1    2    0  502 -0.66487515019E+01 -0.51371153045E+02 -0.25456163296E+03  0.25977841757E+03  0.00000000000E+00 0. -1.
<mgrwt>
<rscale>  1 0.30000000E+03</rscale>
<asrwt>0</asrwt>
<pdfrwt beam="1">  1       21 0.12773982E-01 0.30000000E+03</pdfrwt>
<pdfrwt beam="2">0</pdfrwt>
<totfact> 0.55307539E+03</totfact>
</mgrwt>
</event>
<event>
 6    1  0.1198667E-001  0.3000000E+03  0.7818608E-02  0.1093470E+00
         21   -1    0    0  501  502  0.00000000000E+00  0.00000000000E+00  0.20136400578E+01  0.20136400578E+01  0.00000000000E+00 0. -1.
         13   -1    0    0    0    0 -0.00000000000E+00 -0.00000000000E+00 -0.10000000000E+04  0.10000000000E+04  0.00000000000E+00 0.  1.
    9000005    2    1    2  501    0 -0.25217420066E+02 -0.20008738565E+02 -0.84731920348E+03  0.84794592790E+03  0.51182183558E+01 0.  0.
         13    1    3    3    0    0 -0.16742325634E+02 -0.15014859833E+02 -0.53659581806E+03  0.53706687055E+03  0.00000000000E+00 0.  1.
          3    1    3    3  501    0 -0.84750944320E+01 -0.49938787320E+01 -0.31072338542E+03  0.31087905735E+03  0.00000000000E+00 0.  1.
         -1    1    1    2    0  502  0.25217420066E+02  0.20008738565E+02 -0.15066715646E+03  0.15406771216E+03  0.00000000000E+00 0. -1.
<mgrwt>
<rscale>  1 0.30000000E+03</rscale>
<asrwt>0</asrwt>
<pdfrwt beam="1">  1       21 0.73223429E-02 0.30000000E+03</pdfrwt>
<pdfrwt beam="2">0</pdfrwt>
<totfact> 0.14917078E+04</totfact>
</mgrwt>
</event>
<event>
 6    1  0.1198667E-001  0.3000000E+03  0.7818608E-02  0.1093470E+00
         21   -1    0    0  501  502  0.00000000000E+00  0.00000000000E+00  0.11201461887E+01  0.11201461887E+01  0.00000000000E+00 0. -1.
         13   -1    0    0    0    0 -0.00000000000E+00 -0.00000000000E+00 -0.10000000000E+04  0.10000000000E+04  0.00000000000E+00 0.  1.
    9000005    2    1    2  501    0 -0.14686912646E+02 -0.27675902996E+02 -0.67316352410E+03  0.67390036004E+03  0.33021306925E+01 0.  0.
         13    1    3    3    0    0 -0.18243358293E+01 -0.37446170340E+01 -0.11608739239E+03  0.11616209808E+03  0.00000000000E+00 0.  1.
          1    1    3    3  501    0 -0.12862576817E+02 -0.23931285962E+02 -0.55707613171E+03  0.55773826196E+03  0.00000000000E+00 0.  1.
         -1    1    1    2    0  502  0.14686912646E+02  0.27675902996E+02 -0.32571632971E+03  0.32721978615E+03  0.00000000000E+00 0. -1.
<mgrwt>
<rscale>  1 0.30000000E+03</rscale>
<asrwt>0</asrwt>
<pdfrwt beam="1">  1       21 0.40732675E-02 0.30000000E+03</pdfrwt>
<pdfrwt beam="2">0</pdfrwt>
<totfact> 0.40780919E+04</totfact>
</mgrwt>
</event>
<event>
 6    1  0.1198667E-001  0.3000000E+03  0.7818608E-02  0.1093470E+00
         21   -1    0    0  501  502  0.00000000000E+00  0.00000000000E+00  0.24363335537E+01  0.24363335537E+01  0.00000000000E+00 0. -1.
         13   -1    0    0    0    0 -0.00000000000E+00 -0.00000000000E+00 -0.10000000000E+04  0.10000000000E+04  0.00000000000E+00 0.  1.
    9000005    2    1    2  501    0  0.33395298770E+02 -0.24337625285E+02 -0.77251606977E+03  0.77362639768E+03  0.30264089237E+01 0.  0.
         13    1    3    3    0    0  0.21966881700E+02 -0.14208644990E+02 -0.48999605893E+03  0.49069396496E+03  0.00000000000E+00 0.  1.
          3    1    3    3  501    0  0.11428417070E+02 -0.10128980295E+02 -0.28252001084E+03  0.28293243272E+03  0.00000000000E+00 0.  1.
         -3    1    1    2    0  502 -0.33395298770E+02  0.24337625285E+02 -0.22504759668E+03  0.22880993588E+03  0.00000000000E+00 0. -1.
<mgrwt>
<rscale>  1 0.30000000E+03</rscale>
<asrwt>0</asrwt>
<pdfrwt beam="1">  1       21 0.88594134E-02 0.30000000E+03</pdfrwt>
<pdfrwt beam="2">0</pdfrwt>
<totfact> 0.10671431E+04</totfact>
</mgrwt>
</event>
<event>
 6    1  0.1198667E-001  0.3000000E+03  0.7818608E-02  0.1093470E+00
         21   -1    0    0  501  502  0.00000000000E+00  0.00000000000E+00  0.95772057914E+00  0.95772057914E+00  0.00000000000E+00 0. -1.
         13   -1    0    0    0    0 -0.00000000000E+00 -0.00000000000E+00 -0.10000000000E+04  0.10000000000E+04  0.00000000000E+00 0.  1.
    9000005    2    1    2  501    0 -0.30696755939E+02 -0.28668234841E+01 -0.52760870071E+03  0.52851711200E+03  0.29811249408E+01 0.  0.
         13    1    3    3    0    0 -0.11558338374E+02 -0.92371835304E-01 -0.17969083151E+03  0.18006220772E+03  0.00000000000E+00 0.  1.
          1    1    3    3  501    0 -0.19138417565E+02 -0.27744516488E+01 -0.34791786920E+03  0.34845490428E+03  0.00000000000E+00 0.  1.
         -3    1    1    2    0  502  0.30696755939E+02  0.28668234841E+01 -0.47143357871E+03  0.47244060858E+03  0.00000000000E+00 0. -1.
<mgrwt>
<rscale>  1 0.30000000E+03</rscale>
<asrwt>0</asrwt>
<pdfrwt beam="1">  1       21 0.34826276E-02 0.30000000E+03</pdfrwt>
<pdfrwt beam="2">0</pdfrwt>
<totfact> 0.53056961E+04</totfact>
</mgrwt>
</event>
<event>
 6    1  0.1198667E-001  0.3000000E+03  0.7818608E-02  0.1093470E+00
         21   -1    0    0  501  502  0.00000000000E+00  0.00000000000E+00  0.17861139437E+01  0.17861139437E+01  0.00000000000E+00 0. -1.
         13   -1    0    0    0    0 -0.00000000000E+00 -0.00000000000E+00 -0.10000000000E+04  0.10000000000E+04  0.00000000000E+00 0.  1.
    9000005    2    1    2  501    0 -0.31879998006E+02 -0.35819829907E+01 -0.82482161381E+03  0.82545107786E+03  0.31020092177E+01 0.  0.
         13    1    3    3    0    0 -0.20684087832E+02 -0.10236901677E+01 -0.51154386904E+03  0.51196289845E+03  0.00000000000E+00 0.  1.
          1    1    3    3  501    0 -0.11195910174E+02 -0.25582928230E+01 -0.31327774477E+03  0.31348817942E+03  0.00000000000E+00 0.  1.
         -1    1    1    2    0  502  0.31879998006E+02  0.35819829907E+01 -0.17339227224E+03  0.17633503608E+03  0.00000000000E+00 0. -1.
<mgrwt>
<rscale>  1 0.30000000E+03</rscale>
<asrwt>0</asrwt>
<pdfrwt beam="1">  1       21 0.64949735E-02 0.30000000E+03</pdfrwt>
<pdfrwt beam="2">0</pdfrwt>
<totfact> 0.18374639E+04</totfact>
</mgrwt>
</event>
<event>
 6    1  0.1198667E-001  0.3000000E+03  0.7818608E-02  0.1093470E+00
         21   -1    0    0  501  502  0.00000000000E+00  0.00000000000E+00  0.13874698027E+01  0.13874698027E+01  0.00000000000E+00 0. -1.
         13   -1    0    0    0    0 -0.00000000000E+00 -0.00000000000E+00 -0.10000000000E+04  0.10000000000E+04  0.00000000000E+00 0.  1.
    9000005    2    1    2  501    0 -0.32011859780E+02  0.24899342597E+01 -0.75225713431E+03  0.75294846316E+03  0.31037258808E+01 0.  0.
         13    1    3    3    0    0 -0.17895903990E+02  0.14410074481E+01 -0.45617112637E+03  0.45652429992E+03  0.00000000000E+00 0.  1.
          1    1    3    3  501    0 -0.14115955790E+02  0.10489268116E+01 -0.29608600794E+03  0.29642416324E+03  0.00000000000E+00 0.  1.
         -3    1    1    2    0  502  0.32011859780E+02 -0.24899342597E+01 -0.24635539589E+03  0.24843900665E+03  0.00000000000E+00 0. -1.
<mgrwt>
<rscale>  1 0.30000000E+03</rscale>
<asrwt>0</asrwt>
<pdfrwt beam="1">  1       21 0.50453554E-02 0.30000000E+03</pdfrwt>
<pdfrwt beam="2">0</pdfrwt>
<totfact> 0.28364534E+04</totfact>
</mgrwt>
</event>
<event>
 6    1  0.1198667E-001  0.3000000E+03  0.7818608E-02  0.1093470E+00
         21   -1    0    0  501  502  0.00000000000E+00  0.00000000000E+00  0.16152515266E+01  0.16152515266E+01  0.00000000000E+00 0. -1.
         13   -1    0    0    0    0 -0.00000000000E+00 -0.00000000000E+00 -0.10000000000E+04  0.10000000000E+04  0.00000000000E+00 0.  1.
    9000005    2    1    2  501    0 -0.24962736870E+02  0.26831789587E+02 -0.70325664230E+03  0.70422042606E+03  0.36633820035E+01 0.  0.
         13    1    3    3    0    0 -0.21369799235E+02  0.22246374779E+02 -0.61338798660E+03  0.61416316368E+03  0.00000000000E+00 0.  1.
          3    1    3    3  501    0 -0.35929376351E+01  0.45854148083E+01 -0.89868655702E+02  0.90057262381E+02  0.00000000000E+00 0.  1.
         -1    1    1    2    0  502  0.24962736870E+02 -0.26831789587E+02 -0.29512810617E+03  0.29739482547E+03  0.00000000000E+00 0. -1.
<mgrwt>
<rscale>  1 0.30000000E+03</rscale>
<asrwt>0</asrwt>
<pdfrwt beam="1">  1       21 0.58736543E-02 0.30000000E+03</pdfrwt>
<pdfrwt beam="2">0</pdfrwt>
<totfact> 0.21859138E+04</totfact>
</mgrwt>
</event>
<event>
 6    1  0.1198667E-001  0.3000000E+03  0.7818608E-02  0.1093470E+00
         21   -1    0    0  501  502  0.00000000000E+00  0.00000000000E+00  0.90817226517E+01  0.90817226517E+01  0.00000000000E+00 0. -1.
         13   -1    0    0    0    0 -0.00000000000E+00 -0.00000000000E+00 -0.10000000000E+04  0.10000000000E+04  0.00000000000E+00 0.  1.
    9000005    2    1    2  501    0  0.54710654264E+02 -0.72072855117E+02 -0.65341313823E+03  0.65965723716E+03  0.33450234973E+01 0.  0.
         13    1    3    3    0    0  0.30361151107E+02 -0.41254033816E+02 -0.38051357602E+03  0.38394566847E+03  0.00000000000E+00 0.  1.
          3    1    3    3  501    0  0.24349503157E+02 -0.30818821301E+02 -0.27289956221E+03  0.27571156869E+03  0.00000000000E+00 0.  1.
         -1    1    1    2    0  502 -0.54710654264E+02  0.72072855117E+02 -0.33750513911E+03  0.34942448549E+03  0.00000000000E+00 0. -1.
<mgrwt>
<rscale>  1 0.30000000E+03</rscale>
<asrwt>0</asrwt>
<pdfrwt beam="1">  1       21 0.33024516E-01 0.30000000E+03</pdfrwt>
<pdfrwt beam="2">0</pdfrwt>
<totfact> 0.89586486E+02</totfact>
</mgrwt>
</event>
<event>
 6    1  0.1198667E-001  0.3000000E+03  0.7818608E-02  0.1093470E+00
         21   -1    0    0  501  502  0.00000000000E+00  0.00000000000E+00  0.17868217645E+01  0.17868217645E+01  0.00000000000E+00 0. -1.
         13   -1    0    0    0    0 -0.00000000000E+00 -0.00000000000E+00 -0.10000000000E+04  0.10000000000E+04  0.00000000000E+00 0.  1.
    9000005    2    1    2  501    0  0.63887914683E+01  0.30773013914E+02 -0.83357149004E+03  0.83417214301E+03  0.37336478764E+01 0.  0.
         13    1    3    3    0    0  0.52367138039E+00  0.11173598808E+02 -0.28683521245E+03  0.28705324008E+03  0.00000000000E+00 0.  1.
          1    1    3    3  501    0  0.58651200879E+01  0.19599415105E+02 -0.54673627760E+03  0.54711890293E+03  0.00000000000E+00 0.  1.
         -1    1    1    2    0  502 -0.63887914683E+01 -0.30773013914E+02 -0.16464168819E+03  0.16761467875E+03  0.00000000000E+00 0. -1.
<mgrwt>
<rscale>  1 0.30000000E+03</rscale>
<asrwt>0</asrwt>
<pdfrwt beam="1">  1       21 0.64975474E-02 0.30000000E+03</pdfrwt>
<pdfrwt beam="2">0</pdfrwt>
<totfact> 0.18362039E+04</totfact>
</mgrwt>
</event>
<event>
 6    1  0.1198667E-001  0.3000000E+03  0.7818608E-02  0.1093470E+00
         21   -1    0    0  501  502  0.00000000000E+00  0.00000000000E+00  0.49987104285E+01  0.49987104285E+01  0.00000000000E+00 0. -1.
         13   -1    0    0    0    0 -0.00000000000E+00 -0.00000000000E+00 -0.10000000000E+04  0.10000000000E+04  0.00000000000E+00 0.  1.
    9000005    2    1    2  501    0 -0.70530389774E+01 -0.51260292753E+02 -0.83974998229E+03  0.84135173861E+03  0.39182059823E+01 0.  0.
         13    1    3    3    0    0 -0.15830446929E+01 -0.25369644276E+02 -0.41978358974E+03  0.42055247841E+03  0.00000000000E+00 0.  1.
          3    1    3    3  501    0 -0.54699942845E+01 -0.25890648478E+02 -0.41996639255E+03  0.42079926020E+03  0.00000000000E+00 0.  1.
         -1    1    1    2    0  502  0.70530389774E+01  0.51260292753E+02 -0.15525130728E+03  0.16364697182E+03  0.00000000000E+00 0. -1.
<mgrwt>
<rscale>  1 0.30000000E+03</rscale>
<asrwt>0</asrwt>
<pdfrwt beam="1">  1       21 0.18177167E-01 0.30000000E+03</pdfrwt>
<pdfrwt beam="2">0</pdfrwt>
<totfact> 0.28759778E+03</totfact>
</mgrwt>
</event>
<event>
 6    1  0.1198667E-001  0.3000000E+03  0.7818608E-02  0.1093470E+00
         21   -1    0    0  501  502  0.00000000000E+00  0.00000000000E+00  0.33096541073E+01  0.33096541073E+01  0.00000000000E+00 0. -1.
         13   -1    0    0    0    0 -0.00000000000E+00 -0.00000000000E+00 -0.10000000000E+04  0.10000000000E+04  0.00000000000E+00 0.  1.
    9000005    2    1    2  501    0  0.34953423830E+02  0.33792511773E+02 -0.76639603761E+03  0.76793942635E+03  0.20977086174E+01 0.  0.
         13    1    3    3    0    0  0.19031166433E+02  0.17908515230E+02 -0.42739151410E+03  0.42818968523E+03  0.00000000000E+00 0.  1.
          1    1    3    3  501    0  0.15922257397E+02  0.15883996543E+02 -0.33900452351E+03  0.33974974111E+03  0.00000000000E+00 0.  1.
         -3    1    1    2    0  502 -0.34953423830E+02 -0.33792511773E+02 -0.23029430828E+03  0.23537022776E+03  0.00000000000E+00 0. -1.
<mgrwt>
<rscale>  1 0.30000000E+03</rscale>
<asrwt>0</asrwt>
<pdfrwt beam="1">  1       21 0.12035131E-01 0.30000000E+03</pdfrwt>
<pdfrwt beam="2">0</pdfrwt>
<totfact> 0.61643219E+03</totfact>
</mgrwt>
</event>
<event>
 6    1  0.1198667E-001  0.3000000E+03  0.7818608E-02  0.1093470E+00
         21   -1    0    0  501  502  0.00000000000E+00  0.00000000000E+00  0.12071395719E+01  0.12071395719E+01  0.00000000000E+00 0. -1.
         13   -1    0    0    0    0 -0.00000000000E+00 -0.00000000000E+00 -0.10000000000E+04  0.10000000000E+04  0.00000000000E+00 0.  1.
    9000005    2    1    2  501    0 -0.25431783853E+02  0.23493390401E+02 -0.47999310308E+03  0.48125338851E+03  0.35679016545E+01 0.  0.
         13    1    3    3    0    0 -0.17277590000E+02  0.14077769627E+02 -0.32158324092E+03  0.32235458668E+03  0.00000000000E+00 0.  1.
          1    1    3    3  501    0 -0.81541938532E+01  0.94156207734E+01 -0.15840986216E+03  0.15889880182E+03  0.00000000000E+00 0.  1.
         -3    1    1    2    0  502  0.25431783853E+02 -0.23493390401E+02 -0.51879975735E+03  0.51995375106E+03  0.00000000000E+00 0. -1.
<mgrwt>
<rscale>  1 0.30000000E+03</rscale>
<asrwt>0</asrwt>
<pdfrwt beam="1">  1       21 0.43896077E-02 0.30000000E+03</pdfrwt>
<pdfrwt beam="2">0</pdfrwt>
<totfact> 0.35940069E+04</totfact>
</mgrwt>
</event>
<event>
 6    1  0.1198667E-001  0.3000000E+03  0.7818608E-02  0.1093470E+00
         21   -1    0    0  501  502  0.00000000000E+00  0.00000000000E+00  0.26675779192E+01  0.26675779192E+01  0.00000000000E+00 0. -1.
         13   -1    0    0    0    0 -0.00000000000E+00 -0.00000000000E+00 -0.10000000000E+04  0.10000000000E+04  0.00000000000E+00 0.  1.
    9000005    2    1    2  501    0  0.22562111234E+02 -0.28159452245E+02 -0.85718940630E+03  0.85795383121E+03  0.30157259686E+01 0.  0.
         13    1    3    3    0    0  0.12272555740E+02 -0.14867597238E+02 -0.49274223774E+03  0.49311922892E+03  0.00000000000E+00 0.  1.
          1    1    3    3  501    0  0.10289555495E+02 -0.13291855008E+02 -0.36444716855E+03  0.36483460229E+03  0.00000000000E+00 0.  1.
         -1    1    1    2    0  502 -0.22562111234E+02  0.28159452245E+02 -0.14014301578E+03  0.14471374671E+03  0.00000000000E+00 0. -1.
<mgrwt>
<rscale>  1 0.30000000E+03</rscale>
<asrwt>0</asrwt>
<pdfrwt beam="1">  1       21 0.97003038E-02 0.30000000E+03</pdfrwt>
<pdfrwt beam="2">0</pdfrwt>
<totfact> 0.90834707E+03</totfact>
</mgrwt>
</event>
<event>
 6    1  0.1198667E-001  0.3000000E+03  0.7818608E-02  0.1093470E+00
         21   -1    0    0  501  502  0.00000000000E+00  0.00000000000E+00  0.31952238824E+01  0.31952238824E+01  0.00000000000E+00 0. -1.
         13   -1    0    0    0    0 -0.00000000000E+00 -0.00000000000E+00 -0.10000000000E+04  0.10000000000E+04  0.00000000000E+00 0.  1.
    9000005    2    1    2  501    0 -0.24831213986E+02  0.40497279314E+02 -0.76679217949E+03  0.76832842455E+03  0.10084772141E+02 0.  0.
         13    1    3    3    0    0 -0.15624846710E+02  0.28460610486E+02 -0.44711686082E+03  0.44829413270E+03  0.00000000000E+00 0.  1.
          3    1    3    3  501    0 -0.92063672767E+01  0.12036668829E+02 -0.31967531867E+03  0.32003429185E+03  0.00000000000E+00 0.  1.
         -1    1    1    2    0  502  0.24831213986E+02 -0.40497279314E+02 -0.23001259663E+03  0.23486679933E+03  0.00000000000E+00 0. -1.
<mgrwt>
<rscale>  1 0.30000000E+03</rscale>
<asrwt>0</asrwt>
<pdfrwt beam="1">  1       21 0.11619020E-01 0.30000000E+03</pdfrwt>
<pdfrwt beam="2">0</pdfrwt>
<totfact> 0.65701320E+03</totfact>
</mgrwt>
</event>
<event>
 6    1  0.1198667E-001  0.3000000E+03  0.7818608E-02  0.1093470E+00
         21   -1    0    0  501  502  0.00000000000E+00  0.00000000000E+00  0.17710316792E+01  0.17710316792E+01  0.00000000000E+00 0. -1.
         13   -1    0    0    0    0 -0.00000000000E+00 -0.00000000000E+00 -0.10000000000E+04  0.10000000000E+04  0.00000000000E+00 0.  1.
    9000005    2    1    2  501    0 -0.34399108999E+02  0.13331341202E+02 -0.73885000740E+03  0.73978158776E+03  0.40547246017E+01 0.  0.
         13    1    3    3    0    0 -0.17438356368E+02  0.72454369760E+01 -0.33860524582E+03  0.33913139803E+03  0.00000000000E+00 0.  1.
          1    1    3    3  501    0 -0.16960752632E+02  0.60859042256E+01 -0.40024476157E+03  0.40065018973E+03  0.00000000000E+00 0.  1.
         -1    1    1    2    0  502  0.34399108999E+02 -0.13331341202E+02 -0.25937896092E+03  0.26198944392E+03  0.00000000000E+00 0. -1.
<mgrwt>
<rscale>  1 0.30000000E+03</rscale>
<asrwt>0</asrwt>
<pdfrwt beam="1">  1       21 0.64401288E-02 0.30000000E+03</pdfrwt>
<pdfrwt beam="2">0</pdfrwt>
<totfact> 0.18646331E+04</totfact>
</mgrwt>
</event>
<event>
 6    1  0.1198667E-001  0.3000000E+03  0.7818608E-02  0.1093470E+00
         21   -1    0    0  501  502  0.00000000000E+00  0.00000000000E+00  0.13003752671E+01  0.13003752671E+01  0.00000000000E+00 0. -1.
         13   -1    0    0    0    0 -0.00000000000E+00 -0.00000000000E+00 -0.10000000000E+04  0.10000000000E+04  0.00000000000E+00 0.  1.
    9000005    2    1    2  501    0 -0.27892059356E+02 -0.21726056770E+02 -0.58987700086E+03  0.59095183279E+03  0.43822395501E+01 0.  0.
         13    1    3    3    0    0 -0.24650386885E+02 -0.18679526499E+02 -0.48931113007E+03  0.49028761792E+03  0.00000000000E+00 0.  1.
          3    1    3    3  501    0 -0.32416724712E+01 -0.30465302703E+01 -0.10056587079E+03  0.10066421487E+03  0.00000000000E+00 0.  1.
         -1    1    1    2    0  502  0.27892059356E+02  0.21726056770E+02 -0.40882262388E+03  0.41034854247E+03  0.00000000000E+00 0. -1.
<mgrwt>
<rscale>  1 0.30000000E+03</rscale>
<asrwt>0</asrwt>
<pdfrwt beam="1">  1       21 0.47286473E-02 0.30000000E+03</pdfrwt>
<pdfrwt beam="2">0</pdfrwt>
<totfact> 0.31675339E+04</totfact>
</mgrwt>
</event>
<event>
 6    1  0.1198667E-001  0.3000000E+03  0.7818608E-02  0.1093470E+00
         21   -1    0    0  501  502  0.00000000000E+00  0.00000000000E+00  0.16575994685E+01  0.16575994685E+01  0.00000000000E+00 0. -1.
         13   -1    0    0    0    0 -0.00000000000E+00 -0.00000000000E+00 -0.10000000000E+04  0.10000000000E+04  0.00000000000E+00 0.  1.
    9000005    2    1    2  501    0  0.26809027327E+02  0.25229507964E+02 -0.28815598626E+03  0.29051767299E+03  0.33754826039E+01 0.  0.
         13    1    3    3    0    0  0.25719708251E+02  0.24707117817E+02 -0.27423306334E+03  0.27654243452E+03  0.00000000000E+00 0.  1.
          1    1    3    3  501    0  0.10893190759E+01  0.52239014701E+00 -0.13922922923E+02  0.13975238468E+02  0.00000000000E+00 0.  1.
         -1    1    1    2    0  502 -0.26809027327E+02 -0.25229507964E+02 -0.71018641427E+03  0.71113992648E+03  0.00000000000E+00 0. -1.
<mgrwt>
<rscale>  1 0.30000000E+03</rscale>
<asrwt>0</asrwt>
<pdfrwt beam="1">  1       21 0.60276471E-02 0.30000000E+03</pdfrwt>
<pdfrwt beam="2">0</pdfrwt>
<totfact> 0.20905241E+04</totfact>
</mgrwt>
</event>
<event>
 6    1  0.1198667E-001  0.3000000E+03  0.7818608E-02  0.1093470E+00
         21   -1    0    0  501  502  0.00000000000E+00  0.00000000000E+00  0.13957405117E+01  0.13957405117E+01  0.00000000000E+00 0. -1.
         13   -1    0    0    0    0 -0.00000000000E+00 -0.00000000000E+00 -0.10000000000E+04  0.10000000000E+04  0.00000000000E+00 0.  1.
    9000005    2    1    2  501    0  0.24398134396E+02  0.24846711667E+02 -0.67908985025E+03  0.67998932217E+03  0.31345661369E+01 0.  0.
         13    1    3    3    0    0  0.10192620724E+02  0.10485090970E+02 -0.31565414317E+03  0.31599266566E+03  0.00000000000E+00 0.  1.
          3    1    3    3  501    0  0.14205513672E+02  0.14361620698E+02 -0.36343570708E+03  0.36399665651E+03  0.00000000000E+00 0.  1.
         -1    1    1    2    0  502 -0.24398134396E+02 -0.24846711667E+02 -0.31951440924E+03  0.32140641834E+03  0.00000000000E+00 0. -1.
<mgrwt>
<rscale>  1 0.30000000E+03</rscale>
<asrwt>0</asrwt>
<pdfrwt beam="1">  1       21 0.50754307E-02 0.30000000E+03</pdfrwt>
<pdfrwt beam="2">0</pdfrwt>
<totfact> 0.28078431E+04</totfact>
</mgrwt>
</event>
<event>
 6    1  0.1198667E-001  0.3000000E+03  0.7818608E-02  0.1093470E+00
         21   -1    0    0  501  502  0.00000000000E+00  0.00000000000E+00  0.33645515559E+01  0.33645515559E+01  0.00000000000E+00 0. -1.
         13   -1    0    0    0    0 -0.00000000000E+00 -0.00000000000E+00 -0.10000000000E+04  0.10000000000E+04  0.00000000000E+00 0.  1.
    9000005    2    1    2  501    0 -0.47795635925E+02 -0.29319825527E+02 -0.62539954562E+03  0.62791792349E+03  0.35002846119E+01 0.  0.
         13    1    3    3    0    0 -0.19767157423E+02 -0.13972024823E+02 -0.26145984903E+03  0.26257800869E+03  0.00000000000E+00 0.  1.
          3    1    3    3  501    0 -0.28028478502E+02 -0.15347800704E+02 -0.36393969659E+03  0.36533991480E+03  0.00000000000E+00 0.  1.
         -1    1    1    2    0  502  0.47795635925E+02  0.29319825527E+02 -0.37123590282E+03  0.37544662807E+03  0.00000000000E+00 0. -1.
<mgrwt>
<rscale>  1 0.30000000E+03</rscale>
<asrwt>0</asrwt>
<pdfrwt beam="1">  1       21 0.12234759E-01 0.30000000E+03</pdfrwt>
<pdfrwt beam="2">0</pdfrwt>
<totfact> 0.59827553E+03</totfact>
</mgrwt>
</event>
<event>
 6    1  0.1198667E-001  0.3000000E+03  0.7818608E-02  0.1093470E+00
         21   -1    0    0  501  502  0.00000000000E+00  0.00000000000E+00  0.17718089235E+01  0.17718089235E+01  0.00000000000E+00 0. -1.
         13   -1    0    0    0    0 -0.00000000000E+00 -0.00000000000E+00 -0.10000000000E+04  0.10000000000E+04  0.00000000000E+00 0.  1.
    9000005    2    1    2  501    0 -0.30107502556E+02  0.11700675272E+02 -0.81993507165E+03  0.82057632348E+03  0.29348619211E+01 0.  0.
         13    1    3    3    0    0 -0.13567771255E+02  0.52262747312E+01 -0.33248010699E+03  0.33279786645E+03  0.00000000000E+00 0.  1.
          1    1    3    3  501    0 -0.16539731301E+02  0.64744005412E+01 -0.48745496466E+03  0.48777845703E+03  0.00000000000E+00 0.  1.
         -3    1    1    2    0  502  0.30107502556E+02 -0.11700675272E+02 -0.17829311943E+03  0.18119548545E+03  0.00000000000E+00 0. -1.
<mgrwt>
<rscale>  1 0.30000000E+03</rscale>
<asrwt>0</asrwt>
<pdfrwt beam="1">  1       21 0.64429551E-02 0.30000000E+03</pdfrwt>
<pdfrwt beam="2">0</pdfrwt>
<totfact> 0.18632179E+04</totfact>
</mgrwt>
</event>
<event>
 6    1  0.1198667E-001  0.3000000E+03  0.7818608E-02  0.1093470E+00
         21   -1    0    0  501  502  0.00000000000E+00  0.00000000000E+00  0.11423271268E+01  0.11423271268E+01  0.00000000000E+00 0. -1.
         13   -1    0    0    0    0 -0.00000000000E+00 -0.00000000000E+00 -0.10000000000E+04  0.10000000000E+04  0.00000000000E+00 0.  1.
    9000005    2    1    2  501    0 -0.30100142921E+02 -0.58693227227E+01 -0.70857521609E+03  0.70924444727E+03  0.28950929109E+01 0.  0.
         13    1    3    3    0    0 -0.15651249108E+02 -0.42315599274E+01 -0.39340582267E+03  0.39373977321E+03  0.00000000000E+00 0.  1.
          3    1    3    3  501    0 -0.14448893813E+02 -0.16377627953E+01 -0.31516939342E+03  0.31550467405E+03  0.00000000000E+00 0.  1.
         -1    1    1    2    0  502  0.30100142921E+02  0.58693227227E+01 -0.29028245678E+03  0.29189787986E+03  0.00000000000E+00 0. -1.
<mgrwt>
<rscale>  1 0.30000000E+03</rscale>
<asrwt>0</asrwt>
<pdfrwt beam="1">  1       21 0.41539256E-02 0.30000000E+03</pdfrwt>
<pdfrwt beam="2">0</pdfrwt>
<totfact> 0.39454325E+04</totfact>
</mgrwt>
</event>
<event>
 6    1  0.1198667E-001  0.3000000E+03  0.7818608E-02  0.1093470E+00
         21   -1    0    0  501  502  0.00000000000E+00  0.00000000000E+00  0.26869364568E+01  0.26869364568E+01  0.00000000000E+00 0. -1.
         13   -1    0    0    0    0 -0.00000000000E+00 -0.00000000000E+00 -0.10000000000E+04  0.10000000000E+04  0.00000000000E+00 0.  1.
    9000005    2    1    2  501    0 -0.19552223384E+01  0.34866917753E+02 -0.86893405850E+03  0.86964298212E+03  0.36046487386E+01 0.  0.
         13    1    3    3    0    0 -0.11307557919E+01  0.32778402722E+02 -0.79895352034E+03  0.79962643150E+03  0.00000000000E+00 0.  1.
          3    1    3    3  501    0 -0.82446654647E+00  0.20885150310E+01 -0.69980538153E+02  0.70016550617E+02  0.00000000000E+00 0.  1.
         -3    1    1    2    0  502  0.19552223384E+01 -0.34866917753E+02 -0.12837900505E+03  0.13304395434E+03  0.00000000000E+00 0. -1.
<mgrwt>
<rscale>  1 0.30000000E+03</rscale>
<asrwt>0</asrwt>
<pdfrwt beam="1">  1       21 0.97706986E-02 0.30000000E+03</pdfrwt>
<pdfrwt beam="2">0</pdfrwt>
<totfact> 0.89670404E+03</totfact>
</mgrwt>
</event>
<event>
 6    1  0.1198667E-001  0.3000000E+03  0.7818608E-02  0.1093470E+00
         21   -1    0    0  501  502  0.00000000000E+00  0.00000000000E+00  0.10713057657E+02  0.10713057657E+02  0.00000000000E+00 0. -1.
         13   -1    0    0    0    0 -0.00000000000E+00 -0.00000000000E+00 -0.10000000000E+04  0.10000000000E+04  0.00000000000E+00 0.  1.
    9000005    2    1    2  501    0 -0.55194159186E+02 -0.26663409995E+02 -0.90181417745E+03  0.90390099261E+03  0.32956269048E+01 0.  0.
         13    1    3    3    0    0 -0.17347918878E+02 -0.76660423856E+01 -0.25903422987E+03  0.25972764724E+03  0.00000000000E+00 0.  1.
          1    1    3    3  501    0 -0.37846240309E+02 -0.18997367610E+02 -0.64277994758E+03  0.64417334538E+03  0.00000000000E+00 0.  1.
         -1    1    1    2    0  502  0.55194159186E+02  0.26663409995E+02 -0.87472764891E+02  0.10681206504E+03  0.00000000000E+00 0. -1.
<mgrwt>
<rscale>  1 0.30000000E+03</rscale>
<asrwt>0</asrwt>
<pdfrwt beam="1">  1       21 0.38956655E-01 0.30000000E+03</pdfrwt>
<pdfrwt beam="2">0</pdfrwt>
<totfact> 0.63819958E+02</totfact>
</mgrwt>
</event>
<event>
 6    1  0.1198667E-001  0.3000000E+03  0.7818608E-02  0.1093470E+00
         21   -1    0    0  501  502  0.00000000000E+00  0.00000000000E+00  0.21430935248E+01  0.21430935248E+01  0.00000000000E+00 0. -1.
         13   -1    0    0    0    0 -0.00000000000E+00 -0.00000000000E+00 -0.10000000000E+04  0.10000000000E+04  0.00000000000E+00 0.  1.
    9000005    2    1    2  501    0 -0.23677652897E+02 -0.34011574681E+02 -0.72106628642E+03  0.72226728926E+03  0.40036574737E+01 0.  0.
         13    1    3    3    0    0 -0.11973777144E+02 -0.16022354808E+02 -0.31526343682E+03  0.31589732792E+03  0.00000000000E+00 0.  1.
          1    1    3    3  501    0 -0.11703875753E+02 -0.17989219873E+02 -0.40580284959E+03  0.40636996134E+03  0.00000000000E+00 0.  1.
         -3    1    1    2    0  502  0.23677652897E+02  0.34011574681E+02 -0.27679062006E+03  0.27987580426E+03  0.00000000000E+00 0. -1.
<mgrwt>
<rscale>  1 0.30000000E+03</rscale>
<asrwt>0</asrwt>
<pdfrwt beam="1">  1       21 0.77930838E-02 0.30000000E+03</pdfrwt>
<pdfrwt beam="2">0</pdfrwt>
<totfact> 0.13375122E+04</totfact>
</mgrwt>
</event>
<event>
 6    1  0.1198667E-001  0.3000000E+03  0.7818608E-02  0.1093470E+00
         21   -1    0    0  501  502  0.00000000000E+00  0.00000000000E+00  0.12548254582E+01  0.12548254582E+01  0.00000000000E+00 0. -1.
         13   -1    0    0    0    0 -0.00000000000E+00 -0.00000000000E+00 -0.10000000000E+04  0.10000000000E+04  0.00000000000E+00 0.  1.
    9000005    2    1    2  501    0 -0.31241268627E+02  0.82698633991E+01 -0.70261445050E+03  0.70336589779E+03  0.34803183270E+01 0.  0.
         13    1    3    3    0    0 -0.10099991656E+02  0.35636866878E+01 -0.26363081244E+03  0.26384828019E+03  0.00000000000E+00 0.  1.
          3    1    3    3  501    0 -0.21141276971E+02  0.47061767113E+01 -0.43898363806E+03  0.43951761760E+03  0.00000000000E+00 0.  1.
         -1    1    1    2    0  502  0.31241268627E+02 -0.82698633991E+01 -0.29613072404E+03  0.29788892767E+03  0.00000000000E+00 0. -1.
<mgrwt>
<rscale>  1 0.30000000E+03</rscale>
<asrwt>0</asrwt>
<pdfrwt beam="1">  1       21 0.45630113E-02 0.30000000E+03</pdfrwt>
<pdfrwt beam="2">0</pdfrwt>
<totfact> 0.33654196E+04</totfact>
</mgrwt>
</event>
<event>
 6    1  0.1198667E-001  0.3000000E+03  0.7818608E-02  0.1093470E+00
         21   -1    0    0  501  502  0.00000000000E+00  0.00000000000E+00  0.10628400792E+01  0.10628400792E+01  0.00000000000E+00 0. -1.
         13   -1    0    0    0    0 -0.00000000000E+00 -0.00000000000E+00 -0.10000000000E+04  0.10000000000E+04  0.00000000000E+00 0.  1.
    9000005    2    1    2  501    0 -0.30014475684E+02 -0.67403346811E+01 -0.66251269833E+03  0.66323489686E+03  0.33394766015E+01 0.  0.
         13    1    3    3    0    0 -0.94383919975E+01 -0.31774974437E+01 -0.18958199854E+03  0.18984339310E+03  0.00000000000E+00 0.  1.
          1    1    3    3  501    0 -0.20576083687E+02 -0.35628372374E+01 -0.47293069979E+03  0.47339150376E+03  0.00000000000E+00 0.  1.
         -1    1    1    2    0  502  0.30014475684E+02  0.67403346811E+01 -0.33642446159E+03  0.33782794322E+03  0.00000000000E+00 0. -1.
<mgrwt>
<rscale>  1 0.30000000E+03</rscale>
<asrwt>0</asrwt>
<pdfrwt beam="1">  1       21 0.38648812E-02 0.30000000E+03</pdfrwt>
<pdfrwt beam="2">0</pdfrwt>
<totfact> 0.44550222E+04</totfact>
</mgrwt>
</event>
<event>
 6    1  0.1198667E-001  0.3000000E+03  0.7818608E-02  0.1093470E+00
         21   -1    0    0  501  502  0.00000000000E+00  0.00000000000E+00  0.11439481170E+01  0.11439481170E+01  0.00000000000E+00 0. -1.
         13   -1    0    0    0    0 -0.00000000000E+00 -0.00000000000E+00 -0.10000000000E+04  0.10000000000E+04  0.00000000000E+00 0.  1.
    9000005    2    1    2  501    0 -0.31281431425E+02 -0.28988011405E+01 -0.31816288234E+03  0.31972621863E+03  0.32100122928E+01 0.  0.
         13    1    3    3    0    0 -0.30331139249E+02 -0.33630845178E+01 -0.30842209917E+03  0.30992818458E+03  0.00000000000E+00 0.  1.
          1    1    3    3  501    0 -0.95029217597E+00  0.46428337724E+00 -0.97407831765E+01  0.97980340460E+01  0.00000000000E+00 0.  1.
         -1    1    1    2    0  502  0.31281431425E+02  0.28988011405E+01 -0.68069316954E+03  0.68141772949E+03  0.00000000000E+00 0. -1.
<mgrwt>
<rscale>  1 0.30000000E+03</rscale>
<asrwt>0</asrwt>
<pdfrwt beam="1">  1       21 0.41598201E-02 0.30000000E+03</pdfrwt>
<pdfrwt beam="2">0</pdfrwt>
<totfact> 0.39360022E+04</totfact>
</mgrwt>
</event>
<event>
 6    1  0.1198667E-001  0.3000000E+03  0.7818608E-02  0.1093470E+00
         21   -1    0    0  501  502  0.00000000000E+00  0.00000000000E+00  0.10559802161E+01  0.10559802161E+01  0.00000000000E+00 0. -1.
         13   -1    0    0    0    0 -0.00000000000E+00 -0.00000000000E+00 -0.10000000000E+04  0.10000000000E+04  0.00000000000E+00 0.  1.
    9000005    2    1    2  501    0  0.20722829782E+02 -0.23407784265E+02 -0.63284594442E+03  0.63362549587E+03  0.31495420360E+01 0.  0.
         13    1    3    3    0    0  0.81465972337E+01 -0.75784029271E+01 -0.20382931167E+03  0.20413276938E+03  0.00000000000E+00 0.  1.
          3    1    3    3  501    0  0.12576232548E+02 -0.15829381338E+02 -0.42901663274E+03  0.42949272649E+03  0.00000000000E+00 0.  1.
         -3    1    1    2    0  502 -0.20722829782E+02  0.23407784265E+02 -0.36609807537E+03  0.36743048434E+03  0.00000000000E+00 0. -1.
<mgrwt>
<rscale>  1 0.30000000E+03</rscale>
<asrwt>0</asrwt>
<pdfrwt beam="1">  1       21 0.38399362E-02 0.30000000E+03</pdfrwt>
<pdfrwt beam="2">0</pdfrwt>
<totfact> 0.45037817E+04</totfact>
</mgrwt>
</event>
<event>
 6    1  0.1198667E-001  0.3000000E+03  0.7818608E-02  0.1093470E+00
         21   -1    0    0  501  502  0.00000000000E+00  0.00000000000E+00  0.19433465112E+01  0.19433465112E+01  0.00000000000E+00 0. -1.
         13   -1    0    0    0    0 -0.00000000000E+00 -0.00000000000E+00 -0.10000000000E+04  0.10000000000E+04  0.00000000000E+00 0.  1.
    9000005    2    1    2  501    0 -0.15676574068E+02  0.40383256922E+02 -0.41220270298E+03  0.41449001752E+03  0.37873297705E+01 0.  0.
         13    1    3    3    0    0 -0.81899615495E+00  0.46314827317E+01 -0.52197539286E+02  0.52409011577E+02  0.00000000000E+00 0.  1.
          1    1    3    3  501    0 -0.14857577914E+02  0.35751774191E+02 -0.36000516370E+03  0.36208100595E+03  0.00000000000E+00 0.  1.
         -3    1    1    2    0  502  0.15676574068E+02 -0.40383256922E+02 -0.58585395051E+03  0.58745332899E+03  0.00000000000E+00 0. -1.
<mgrwt>
<rscale>  1 0.30000000E+03</rscale>
<asrwt>0</asrwt>
<pdfrwt beam="1">  1       21 0.70667295E-02 0.30000000E+03</pdfrwt>
<pdfrwt beam="2">0</pdfrwt>
<totfact> 0.15870952E+04</totfact>
</mgrwt>
</event>
<event>
 6    1  0.1198667E-001  0.3000000E+03  0.7818608E-02  0.1093470E+00
         21   -1    0    0  501  502  0.00000000000E+00  0.00000000000E+00  0.35404620856E+01  0.35404620856E+01  0.00000000000E+00 0. -1.
         13   -1    0    0    0    0 -0.00000000000E+00 -0.00000000000E+00 -0.10000000000E+04  0.10000000000E+04  0.00000000000E+00 0.  1.
    9000005    2    1    2  501    0  0.31768779229E+02  0.26305208523E+02 -0.13766364393E+03  0.14375467082E+03  0.35926584578E+01 0.  0.
         13    1    3    3    0    0  0.27833268706E+01  0.35692860749E+01 -0.17065696843E+02  0.17655727691E+02  0.00000000000E+00 0.  1.
          1    1    3    3  501    0  0.28985452358E+02  0.22735922448E+02 -0.12059794708E+03  0.12609894313E+03  0.00000000000E+00 0.  1.
         -1    1    1    2    0  502 -0.31768779229E+02 -0.26305208523E+02 -0.85879589399E+03  0.85978579126E+03  0.00000000000E+00 0. -1.
<mgrwt>
<rscale>  1 0.30000000E+03</rscale>
<asrwt>0</asrwt>
<pdfrwt beam="1">  1       21 0.12874435E-01 0.30000000E+03</pdfrwt>
<pdfrwt beam="2">0</pdfrwt>
<totfact> 0.54522776E+03</totfact>
</mgrwt>
</event>
<event>
 6    1  0.1198667E-001  0.3000000E+03  0.7818608E-02  0.1093470E+00
         21   -1    0    0  501  502  0.00000000000E+00  0.00000000000E+00  0.13840988759E+01  0.13840988759E+01  0.00000000000E+00 0. -1.
         13   -1    0    0    0    0 -0.00000000000E+00 -0.00000000000E+00 -0.10000000000E+04  0.10000000000E+04  0.00000000000E+00 0.  1.
    9000005    2    1    2  501    0 -0.36413364973E+02  0.74605204247E+01 -0.49361054537E+03  0.49501269185E+03  0.21452453987E+01 0.  0.
         13    1    3    3    0    0 -0.18946847438E+02  0.37414858663E+01 -0.24230011668E+03  0.24306856705E+03  0.00000000000E+00 0.  1.
          3    1    3    3  501    0 -0.17466517535E+02  0.37190345583E+01 -0.25131042869E+03  0.25194412480E+03  0.00000000000E+00 0.  1.
         -3    1    1    2    0  502  0.36413364973E+02 -0.74605204247E+01 -0.50500535575E+03  0.50637140703E+03  0.00000000000E+00 0. -1.
<mgrwt>
<rscale>  1 0.30000000E+03</rscale>
<asrwt>0</asrwt>
<pdfrwt beam="1">  1       21 0.50330974E-02 0.30000000E+03</pdfrwt>
<pdfrwt beam="2">0</pdfrwt>
<totfact> 0.28482446E+04</totfact>
</mgrwt>
</event>
<event>
 6    1  0.1198667E-001  0.3000000E+03  0.7818608E-02  0.1093470E+00
         21   -1    0    0  501  502  0.00000000000E+00  0.00000000000E+00  0.98210575562E+00  0.98210575562E+00  0.00000000000E+00 0. -1.
         13   -1    0    0    0    0 -0.00000000000E+00 -0.00000000000E+00 -0.10000000000E+04  0.10000000000E+04  0.00000000000E+00 0.  1.
    9000005    2    1    2  501    0  0.17142595482E+02  0.25875995770E+02 -0.53713763774E+03  0.53806007443E+03  0.53259818842E+01 0.  0.
         13    1    3    3    0    0  0.59998500327E+01  0.97354554932E+01 -0.24328182144E+03  0.24355045050E+03  0.00000000000E+00 0.  1.
          3    1    3    3  501    0  0.11142745450E+02  0.16140540277E+02 -0.29385581630E+03  0.29450962394E+03  0.00000000000E+00 0.  1.
         -1    1    1    2    0  502 -0.17142595482E+02 -0.25875995770E+02 -0.46188025650E+03  0.46292203132E+03  0.00000000000E+00 0. -1.
<mgrwt>
<rscale>  1 0.30000000E+03</rscale>
<asrwt>0</asrwt>
<pdfrwt beam="1">  1       21 0.35713012E-02 0.30000000E+03</pdfrwt>
<pdfrwt beam="2">0</pdfrwt>
<totfact> 0.50868428E+04</totfact>
</mgrwt>
</event>
<event>
 6    1  0.1198667E-001  0.3000000E+03  0.7818608E-02  0.1093470E+00
         21   -1    0    0  501  502  0.00000000000E+00  0.00000000000E+00  0.12187787486E+01  0.12187787486E+01  0.00000000000E+00 0. -1.
         13   -1    0    0    0    0 -0.00000000000E+00 -0.00000000000E+00 -0.10000000000E+04  0.10000000000E+04  0.00000000000E+00 0.  1.
    9000005    2    1    2  501    0  0.50127914599E+01  0.29707603619E+02 -0.75148202288E+03  0.75209117429E+03  0.28694831287E+01 0.  0.
         13    1    3    3    0    0  0.51831221321E+01  0.26328004913E+02 -0.65323229184E+03  0.65378318707E+03  0.00000000000E+00 0.  1.
          3    1    3    3  501    0 -0.17033067214E+00  0.33795987066E+01 -0.98249731042E+02  0.98307987213E+02  0.00000000000E+00 0.  1.
         -3    1    1    2    0  502 -0.50127914599E+01 -0.29707603619E+02 -0.24729919837E+03  0.24912760446E+03  0.00000000000E+00 0. -1.
<mgrwt>
<rscale>  1 0.30000000E+03</rscale>
<asrwt>0</asrwt>
<pdfrwt beam="1">  1       21 0.44319321E-02 0.30000000E+03</pdfrwt>
<pdfrwt beam="2">0</pdfrwt>
<totfact> 0.35360485E+04</totfact>
</mgrwt>
</event>
<event>
 6    1  0.1198667E-001  0.3000000E+03  0.7818608E-02  0.1093470E+00
         21   -1    0    0  501  502  0.00000000000E+00  0.00000000000E+00  0.45646962409E+01  0.45646962409E+01  0.00000000000E+00 0. -1.
         13   -1    0    0    0    0 -0.00000000000E+00 -0.00000000000E+00 -0.10000000000E+04  0.10000000000E+04  0.00000000000E+00 0.  1.
    9000005    2    1    2  501    0  0.40356315352E+02  0.25813268264E+02 -0.85177355512E+03  0.85312607822E+03  0.33104565991E+01 0.  0.
         13    1    3    3    0    0  0.21325807354E+02  0.12686871403E+02 -0.41521094494E+03  0.41595177072E+03  0.00000000000E+00 0.  1.
          3    1    3    3  501    0  0.19030507998E+02  0.13126396861E+02 -0.43656261018E+03  0.43717430750E+03  0.00000000000E+00 0.  1.
         -3    1    1    2    0  502 -0.40356315352E+02 -0.25813268264E+02 -0.14366174864E+03  0.15143861802E+03  0.00000000000E+00 0. -1.
<mgrwt>
<rscale>  1 0.30000000E+03</rscale>
<asrwt>0</asrwt>
<pdfrwt beam="1">  1       21 0.16598930E-01 0.30000000E+03</pdfrwt>
<pdfrwt beam="2">0</pdfrwt>
<totfact> 0.34105195E+03</totfact>
</mgrwt>
</event>
<event>
 6    1  0.1198667E-001  0.3000000E+03  0.7818608E-02  0.1093470E+00
         21   -1    0    0  501  502  0.00000000000E+00  0.00000000000E+00  0.39650868971E+01  0.39650868971E+01  0.00000000000E+00 0. -1.
         13   -1    0    0    0    0 -0.00000000000E+00 -0.00000000000E+00 -0.10000000000E+04  0.10000000000E+04  0.00000000000E+00 0.  1.
    9000005    2    1    2  501    0  0.34059676903E+02  0.43164248244E+02 -0.74234467042E+03  0.74438474644E+03  0.31348238455E+01 0.  0.
         13    1    3    3    0    0  0.26636105583E+01  0.30431007294E+01 -0.66303004872E+02  0.66426227789E+02  0.00000000000E+00 0.  1.
          3    1    3    3  501    0  0.31396066344E+02  0.40121147515E+02 -0.67604166555E+03  0.67795851865E+03  0.00000000000E+00 0.  1.
         -1    1    1    2    0  502 -0.34059676903E+02 -0.43164248244E+02 -0.25369024269E+03  0.25958034046E+03  0.00000000000E+00 0. -1.
<mgrwt>
<rscale>  1 0.30000000E+03</rscale>
<asrwt>0</asrwt>
<pdfrwt beam="1">  1       21 0.14418528E-01 0.30000000E+03</pdfrwt>
<pdfrwt beam="2">0</pdfrwt>
<totfact> 0.44299487E+03</totfact>
</mgrwt>
</event>
<event>
 6    1  0.1198667E-001  0.3000000E+03  0.7818608E-02  0.1093470E+00
         21   -1    0    0  501  502  0.00000000000E+00  0.00000000000E+00  0.13224903658E+02  0.13224903658E+02  0.00000000000E+00 0. -1.
         13   -1    0    0    0    0 -0.00000000000E+00 -0.00000000000E+00 -0.10000000000E+04  0.10000000000E+04  0.00000000000E+00 0.  1.
    9000005    2    1    2  501    0  0.38499233821E+02  0.22712205043E+02 -0.96005155610E+03  0.96114628169E+03  0.10254227307E+02 0.  0.
         13    1    3    3    0    0  0.32491995004E+02  0.15810016205E+02 -0.82031331596E+03  0.82110877641E+03  0.00000000000E+00 0.  1.
          3    1    3    3  501    0  0.60072388174E+01  0.69021888376E+01 -0.13973824014E+03  0.14003750528E+03  0.00000000000E+00 0.  1.
         -1    1    1    2    0  502 -0.38499233821E+02 -0.22712205043E+02 -0.26723540240E+02  0.52078621964E+02  0.00000000000E+00 0. -1.
<mgrwt>
<rscale>  1 0.30000000E+03</rscale>
<asrwt>0</asrwt>
<pdfrwt beam="1">  1       21 0.48090660E-01 0.30000000E+03</pdfrwt>
<pdfrwt beam="2">0</pdfrwt>
<totfact> 0.40868246E+02</totfact>
</mgrwt>
</event>
<event>
 6    1  0.1198667E-001  0.3000000E+03  0.7818608E-02  0.1093470E+00
         21   -1    0    0  501  502  0.00000000000E+00  0.00000000000E+00  0.10166197749E+02  0.10166197749E+02  0.00000000000E+00 0. -1.
         13   -1    0    0    0    0 -0.00000000000E+00 -0.00000000000E+00 -0.10000000000E+04  0.10000000000E+04  0.00000000000E+00 0.  1.
    9000005    2    1    2  501    0 -0.64306810258E+02  0.16479031140E+02 -0.87501808463E+03  0.87754050897E+03  0.37110820457E+01 0.  0.
         13    1    3    3    0    0 -0.42931978993E+02  0.12744114605E+02 -0.59495948647E+03  0.59664257124E+03  0.00000000000E+00 0.  1.
          1    1    3    3  501    0 -0.21374831265E+02  0.37349165342E+01 -0.28005859816E+03  0.28089793773E+03  0.00000000000E+00 0.  1.
         -3    1    1    2    0  502  0.64306810258E+02 -0.16479031140E+02 -0.11481571762E+03  0.13262568878E+03  0.00000000000E+00 0. -1.
<mgrwt>
<rscale>  1 0.30000000E+03</rscale>
<asrwt>0</asrwt>
<pdfrwt beam="1">  1       21 0.36968070E-01 0.30000000E+03</pdfrwt>
<pdfrwt beam="2">0</pdfrwt>
<totfact> 0.71126539E+02</totfact>
</mgrwt>
</event>
<event>
 6    1  0.1198667E-001  0.3000000E+03  0.7818608E-02  0.1093470E+00
         21   -1    0    0  501  502  0.00000000000E+00  0.00000000000E+00  0.17869179827E+01  0.17869179827E+01  0.00000000000E+00 0. -1.
         13   -1    0    0    0    0 -0.00000000000E+00 -0.00000000000E+00 -0.10000000000E+04  0.10000000000E+04  0.00000000000E+00 0.  1.
    9000005    2    1    2  501    0  0.37944136171E+02 -0.11448501390E+02 -0.67179660597E+03  0.67297307781E+03  0.33552959078E+01 0.  0.
         13    1    3    3    0    0  0.31056896580E+02 -0.80405669633E+01 -0.53582914321E+03  0.53678864766E+03  0.00000000000E+00 0.  1.
          3    1    3    3  501    0  0.68872395907E+01 -0.34079344264E+01 -0.13596746276E+03  0.13618443015E+03  0.00000000000E+00 0.  1.
         -1    1    1    2    0  502 -0.37944136171E+02  0.11448501390E+02 -0.32641647605E+03  0.32881384017E+03  0.00000000000E+00 0. -1.
<mgrwt>
<rscale>  1 0.30000000E+03</rscale>
<asrwt>0</asrwt>
<pdfrwt beam="1">  1       21 0.64978973E-02 0.30000000E+03</pdfrwt>
<pdfrwt beam="2">0</pdfrwt>
<totfact> 0.18360327E+04</totfact>
</mgrwt>
</event>
<event>
 6    1  0.1198667E-001  0.3000000E+03  0.7818608E-02  0.1093470E+00
         21   -1    0    0  501  502  0.00000000000E+00  0.00000000000E+00  0.16123239427E+01  0.16123239427E+01  0.00000000000E+00 0. -1.
         13   -1    0    0    0    0 -0.00000000000E+00 -0.00000000000E+00 -0.10000000000E+04  0.10000000000E+04  0.00000000000E+00 0.  1.
    9000005    2    1    2  501    0  0.11107188862E+02 -0.29076508095E+02 -0.81525486376E+03  0.81585323289E+03  0.26817478563E+01 0.  0.
         13    1    3    3    0    0  0.30723518714E+01 -0.71370827517E+01 -0.17570896540E+03  0.17588069200E+03  0.00000000000E+00 0.  1.
          3    1    3    3  501    0  0.80348369902E+01 -0.21939425343E+02 -0.63954589836E+03  0.63997254089E+03  0.00000000000E+00 0.  1.
         -1    1    1    2    0  502 -0.11107188862E+02  0.29076508095E+02 -0.18313281230E+03  0.18575909105E+03  0.00000000000E+00 0. -1.
<mgrwt>
<rscale>  1 0.30000000E+03</rscale>
<asrwt>0</asrwt>
<pdfrwt beam="1">  1       21 0.58630085E-02 0.30000000E+03</pdfrwt>
<pdfrwt beam="2">0</pdfrwt>
<totfact> 0.21927579E+04</totfact>
</mgrwt>
</event>
<event>
 6    1  0.1198667E-001  0.3000000E+03  0.7818608E-02  0.1093470E+00
         21   -1    0    0  501  502  0.00000000000E+00  0.00000000000E+00  0.13896436679E+01  0.13896436679E+01  0.00000000000E+00 0. -1.
         13   -1    0    0    0    0 -0.00000000000E+00 -0.00000000000E+00 -0.10000000000E+04  0.10000000000E+04  0.00000000000E+00 0.  1.
    9000005    2    1    2  501    0 -0.33439800137E+02 -0.85533551543E+01 -0.68727704505E+03  0.68814882444E+03  0.27726892843E+01 0.  0.
         13    1    3    3    0    0 -0.62300457375E+01 -0.26793315819E+01 -0.14105414431E+03  0.14121708082E+03  0.00000000000E+00 0.  1.
          1    1    3    3  501    0 -0.27209754400E+02 -0.58740235724E+01 -0.54622290074E+03  0.54693174362E+03  0.00000000000E+00 0.  1.
         -1    1    1    2    0  502  0.33439800137E+02  0.85533551543E+01 -0.31133331128E+03  0.31324081923E+03  0.00000000000E+00 0. -1.
<mgrwt>
<rscale>  1 0.30000000E+03</rscale>
<asrwt>0</asrwt>
<pdfrwt beam="1">  1       21 0.50532604E-02 0.30000000E+03</pdfrwt>
<pdfrwt beam="2">0</pdfrwt>
<totfact> 0.28288897E+04</totfact>
</mgrwt>
</event>
<event>
 6    1  0.1198667E-001  0.3000000E+03  0.7818608E-02  0.1093470E+00
         21   -1    0    0  501  502  0.00000000000E+00  0.00000000000E+00  0.42753658283E+01  0.42753658283E+01  0.00000000000E+00 0. -1.
         13   -1    0    0    0    0 -0.00000000000E+00 -0.00000000000E+00 -0.10000000000E+04  0.10000000000E+04  0.00000000000E+00 0.  1.
    9000005    2    1    2  501    0  0.14005498853E+02  0.48058007046E+02 -0.82074757163E+03  0.82227894154E+03  0.32179679560E+01 0.  0.
         13    1    3    3    0    0  0.13624260668E+02  0.43554635796E+02 -0.75013332307E+03  0.75152021208E+03  0.00000000000E+00 0.  1.
          1    1    3    3  501    0  0.38123818509E+00  0.45033712501E+01 -0.70614248560E+02  0.70758729460E+02  0.00000000000E+00 0.  1.
         -1    1    1    2    0  502 -0.14005498853E+02 -0.48058007046E+02 -0.17497706254E+03  0.18199642429E+03  0.00000000000E+00 0. -1.
<mgrwt>
<rscale>  1 0.30000000E+03</rscale>
<asrwt>0</asrwt>
<pdfrwt beam="1">  1       21 0.15546818E-01 0.30000000E+03</pdfrwt>
<pdfrwt beam="2">0</pdfrwt>
<totfact> 0.38533990E+03</totfact>
</mgrwt>
</event>
<event>
 6    1  0.1198667E-001  0.3000000E+03  0.7818608E-02  0.1093470E+00
         21   -1    0    0  501  502  0.00000000000E+00  0.00000000000E+00  0.18550212325E+01  0.18550212325E+01  0.00000000000E+00 0. -1.
         13   -1    0    0    0    0 -0.00000000000E+00 -0.00000000000E+00 -0.10000000000E+04  0.10000000000E+04  0.00000000000E+00 0.  1.
    9000005    2    1    2  501    0 -0.24397919002E+01 -0.32850152438E+02 -0.81982258741E+03  0.82051566985E+03  0.71975374290E+01 0.  0.
         13    1    3    3    0    0 -0.23077746846E+01 -0.12273845134E+02 -0.23553489299E+03  0.23586576460E+03  0.00000000000E+00 0.  1.
          3    1    3    3  501    0 -0.13201721555E+00 -0.20576307304E+02 -0.58428769442E+03  0.58464990525E+03  0.00000000000E+00 0.  1.
         -1    1    1    2    0  502  0.24397919002E+01  0.32850152438E+02 -0.17832239136E+03  0.18133935138E+03  0.00000000000E+00 0. -1.
<mgrwt>
<rscale>  1 0.30000000E+03</rscale>
<asrwt>0</asrwt>
<pdfrwt beam="1">  1       21 0.67455460E-02 0.30000000E+03</pdfrwt>
<pdfrwt beam="2">0</pdfrwt>
<totfact> 0.17207708E+04</totfact>
</mgrwt>
</event>
<event>
 6    1  0.1198667E-001  0.3000000E+03  0.7818608E-02  0.1093470E+00
         21   -1    0    0  501  502  0.00000000000E+00  0.00000000000E+00  0.93002556299E+00  0.93002556299E+00  0.00000000000E+00 0. -1.
         13   -1    0    0    0    0 -0.00000000000E+00 -0.00000000000E+00 -0.10000000000E+04  0.10000000000E+04  0.00000000000E+00 0.  1.
    9000005    2    1    2  501    0  0.11443485248E+02 -0.28074879648E+02 -0.54168639891E+03  0.54254275765E+03  0.30556331085E+01 0.  0.
         13    1    3    3    0    0  0.11432057675E+02 -0.27958584539E+02 -0.53275378885E+03  0.53360938328E+03  0.00000000000E+00 0.  1.
          1    1    3    3  501    0  0.11427573637E-01 -0.11629510836E+00 -0.89326100567E+01  0.89333743662E+01  0.00000000000E+00 0.  1.
         -3    1    1    2    0  502 -0.11443485248E+02  0.28074879648E+02 -0.45738357553E+03  0.45838726792E+03  0.00000000000E+00 0. -1.
<mgrwt>
<rscale>  1 0.30000000E+03</rscale>
<asrwt>0</asrwt>
<pdfrwt beam="1">  1       21 0.33819183E-02 0.30000000E+03</pdfrwt>
<pdfrwt beam="2">0</pdfrwt>
<totfact> 0.55725294E+04</totfact>
</mgrwt>
</event>
<event>
 6    1  0.1198667E-001  0.3000000E+03  0.7818608E-02  0.1093470E+00
         21   -1    0    0  501  502  0.00000000000E+00  0.00000000000E+00  0.38258029248E+01  0.38258029248E+01  0.00000000000E+00 0. -1.
         13   -1    0    0    0    0 -0.00000000000E+00 -0.00000000000E+00 -0.10000000000E+04  0.10000000000E+04  0.00000000000E+00 0.  1.
    9000005    2    1    2  501    0 -0.38279052557E+02 -0.15103901810E+02 -0.87268964196E+03  0.87366494450E+03  0.31321470093E+01 0.  0.
         13    1    3    3    0    0 -0.15574478352E+02 -0.63135805666E+01 -0.38926483710E+03  0.38962743625E+03  0.00000000000E+00 0.  1.
          3    1    3    3  501    0 -0.22704574205E+02 -0.87903212436E+01 -0.48342480486E+03  0.48403750825E+03  0.00000000000E+00 0.  1.
         -1    1    1    2    0  502  0.38279052557E+02  0.15103901810E+02 -0.12348455512E+03  0.13016085843E+03  0.00000000000E+00 0. -1.
<mgrwt>
<rscale>  1 0.30000000E+03</rscale>
<asrwt>0</asrwt>
<pdfrwt beam="1">  1       21 0.13912040E-01 0.30000000E+03</pdfrwt>
<pdfrwt beam="2">0</pdfrwt>
<totfact> 0.47311323E+03</totfact>
</mgrwt>
</event>
<event>
 6    1  0.1198667E-001  0.3000000E+03  0.7818608E-02  0.1093470E+00
         21   -1    0    0  501  502  0.00000000000E+00  0.00000000000E+00  0.26520935033E+01  0.26520935033E+01  0.00000000000E+00 0. -1.
         13   -1    0    0    0    0 -0.00000000000E+00 -0.00000000000E+00 -0.10000000000E+04  0.10000000000E+04  0.00000000000E+00 0.  1.
    9000005    2    1    2  501    0  0.80721200250E+00  0.46633058487E+02 -0.71053346552E+03  0.71207023363E+03  0.33042793017E+01 0.  0.
         13    1    3    3    0    0  0.11519781078E+01  0.85535786542E+01 -0.11957162170E+03  0.11988270717E+03  0.00000000000E+00 0.  1.
          1    1    3    3  501    0 -0.34476610533E+00  0.38079479833E+02 -0.59096184382E+03  0.59218752646E+03  0.00000000000E+00 0.  1.
         -1    1    1    2    0  502 -0.80721200250E+00 -0.46633058487E+02 -0.28681444097E+03  0.29058185987E+03  0.00000000000E+00 0. -1.
<mgrwt>
<rscale>  1 0.30000000E+03</rscale>
<asrwt>0</asrwt>
<pdfrwt beam="1">  1       21 0.96439967E-02 0.30000000E+03</pdfrwt>
<pdfrwt beam="2">0</pdfrwt>
<totfact> 0.91782750E+03</totfact>
</mgrwt>
</event>
<event>
 6    1  0.1198667E-001  0.3000000E+03  0.7818608E-02  0.1093470E+00
         21   -1    0    0  501  502  0.00000000000E+00  0.00000000000E+00  0.40190913659E+01  0.40190913659E+01  0.00000000000E+00 0. -1.
         13   -1    0    0    0    0 -0.00000000000E+00 -0.00000000000E+00 -0.10000000000E+04  0.10000000000E+04  0.00000000000E+00 0.  1.
    9000005    2    1    2  501    0  0.60081500980E+01 -0.62232985935E+02 -0.41704890232E+03  0.42172079123E+03  0.30978094895E+01 0.  0.
         13    1    3    3    0    0  0.42439438809E+01 -0.43172850317E+02 -0.27956251114E+03  0.28290829557E+03  0.00000000000E+00 0.  1.
          1    1    3    3  501    0  0.17642062172E+01 -0.19060135618E+02 -0.13748639117E+03  0.13881249566E+03  0.00000000000E+00 0.  1.
         -1    1    1    2    0  502 -0.60081500980E+01  0.62232985935E+02 -0.57893200632E+03  0.58229830014E+03  0.00000000000E+00 0. -1.
<mgrwt>
<rscale>  1 0.30000000E+03</rscale>
<asrwt>0</asrwt>
<pdfrwt beam="1">  1       21 0.14614909E-01 0.30000000E+03</pdfrwt>
<pdfrwt beam="2">0</pdfrwt>
<totfact> 0.43208049E+03</totfact>
</mgrwt>
</event>
<event>
 6    1  0.1198667E-001  0.3000000E+03  0.7818608E-02  0.1093470E+00
         21   -1    0    0  501  502  0.00000000000E+00  0.00000000000E+00  0.17696171480E+01  0.17696171480E+01  0.00000000000E+00 0. -1.
         13   -1    0    0    0    0 -0.00000000000E+00 -0.00000000000E+00 -0.10000000000E+04  0.10000000000E+04  0.00000000000E+00 0.  1.
    9000005    2    1    2  501    0 -0.71169944704E+01  0.41388722345E+02 -0.51657294655E+03  0.51828480468E+03  0.28020887405E+01 0.  0.
         13    1    3    3    0    0 -0.63153899638E+01  0.34846483178E+02 -0.44674896802E+03  0.44815042337E+03  0.00000000000E+00 0.  1.
          3    1    3    3  501    0 -0.80160450656E+00  0.65422391678E+01 -0.69823978529E+02  0.70134381303E+02  0.00000000000E+00 0.  1.
         -1    1    1    2    0  502  0.71169944704E+01 -0.41388722345E+02 -0.48165743630E+03  0.48348481247E+03  0.00000000000E+00 0. -1.
<mgrwt>
<rscale>  1 0.30000000E+03</rscale>
<asrwt>0</asrwt>
<pdfrwt beam="1">  1       21 0.64349850E-02 0.30000000E+03</pdfrwt>
<pdfrwt beam="2">0</pdfrwt>
<totfact> 0.18672131E+04</totfact>
</mgrwt>
</event>
<event>
 6    1  0.1198667E-001  0.3000000E+03  0.7818608E-02  0.1093470E+00
         21   -1    0    0  501  502  0.00000000000E+00  0.00000000000E+00  0.15073521010E+01  0.15073521010E+01  0.00000000000E+00 0. -1.
         13   -1    0    0    0    0 -0.00000000000E+00 -0.00000000000E+00 -0.10000000000E+04  0.10000000000E+04  0.00000000000E+00 0.  1.
    9000005    2    1    2  501    0 -0.14799697321E+02 -0.31643033198E+02 -0.71660573646E+03  0.71746414512E+03  0.32719132374E+01 0.  0.
         13    1    3    3    0    0 -0.14251370890E+02 -0.31375594813E+02 -0.70105826627E+03  0.70190471022E+03  0.00000000000E+00 0.  1.
          3    1    3    3  501    0 -0.54832643126E+00 -0.26743838539E+00 -0.15547470183E+02  0.15559434895E+02  0.00000000000E+00 0.  1.
         -3    1    1    2    0  502  0.14799697321E+02  0.31643033198E+02 -0.28188691144E+03  0.28404320698E+03  0.00000000000E+00 0. -1.
<mgrwt>
<rscale>  1 0.30000000E+03</rscale>
<asrwt>0</asrwt>
<pdfrwt beam="1">  1       21 0.54812919E-02 0.30000000E+03</pdfrwt>
<pdfrwt beam="2">0</pdfrwt>
<totfact> 0.24617536E+04</totfact>
</mgrwt>
</event>
<event>
 6    1  0.1198667E-001  0.3000000E+03  0.7818608E-02  0.1093470E+00
         21   -1    0    0  501  502  0.00000000000E+00  0.00000000000E+00  0.61925006115E+01  0.61925006115E+01  0.00000000000E+00 0. -1.
         13   -1    0    0    0    0 -0.00000000000E+00 -0.00000000000E+00 -0.10000000000E+04  0.10000000000E+04  0.00000000000E+00 0.  1.
    9000005    2    1    2  501    0  0.64159936119E+02  0.43366891283E+02 -0.41242608761E+03  0.41967606383E+03  0.59612198281E+01 0.  0.
         13    1    3    3    0    0  0.16590701347E+01  0.21374587191E+00 -0.69960475853E+01  0.71932525901E+01  0.00000000000E+00 0.  1.
          3    1    3    3  501    0  0.62500865984E+02  0.43153145411E+02 -0.40543004003E+03  0.41248281124E+03  0.00000000000E+00 0.  1.
         -3    1    1    2    0  502 -0.64159936119E+02 -0.43366891283E+02 -0.58138141177E+03  0.58651643679E+03  0.00000000000E+00 0. -1.
<mgrwt>
<rscale>  1 0.30000000E+03</rscale>
<asrwt>0</asrwt>
<pdfrwt beam="1">  1       21 0.22518232E-01 0.30000000E+03</pdfrwt>
<pdfrwt beam="2">0</pdfrwt>
<totfact> 0.19108728E+03</totfact>
</mgrwt>
</event>
<event>
 6    1  0.1198667E-001  0.3000000E+03  0.7818608E-02  0.1093470E+00
         21   -1    0    0  501  502  0.00000000000E+00  0.00000000000E+00  0.98237901469E+00  0.98237901469E+00  0.00000000000E+00 0. -1.
         13   -1    0    0    0    0 -0.00000000000E+00 -0.00000000000E+00 -0.10000000000E+04  0.10000000000E+04  0.00000000000E+00 0.  1.
    9000005    2    1    2  501    0 -0.26382042906E+02 -0.15496671129E+02 -0.60238725810E+03  0.60317362626E+03  0.34432097097E+01 0.  0.
         13    1    3    3    0    0 -0.15845954201E+02 -0.85989078898E+01 -0.38503614124E+03  0.38545799453E+03  0.00000000000E+00 0.  1.
          1    1    3    3  501    0 -0.10536088705E+02 -0.68977632389E+01 -0.21735111686E+03  0.21771563174E+03  0.00000000000E+00 0.  1.
         -1    1    1    2    0  502  0.26382042906E+02  0.15496671129E+02 -0.39663036288E+03  0.39780875275E+03  0.00000000000E+00 0. -1.
<mgrwt>
<rscale>  1 0.30000000E+03</rscale>
<asrwt>0</asrwt>
<pdfrwt beam="1">  1       21 0.35722949E-02 0.30000000E+03</pdfrwt>
<pdfrwt beam="2">0</pdfrwt>
<totfact> 0.50844707E+04</totfact>
</mgrwt>
</event>
<event>
 6    1  0.1198667E-001  0.3000000E+03  0.7818608E-02  0.1093470E+00
         21   -1    0    0  501  502  0.00000000000E+00  0.00000000000E+00  0.79405410324E+01  0.79405410324E+01  0.00000000000E+00 0. -1.
         13   -1    0    0    0    0 -0.00000000000E+00 -0.00000000000E+00 -0.10000000000E+04  0.10000000000E+04  0.00000000000E+00 0.  1.
    9000005    2    1    2  501    0 -0.52137483837E+02  0.60340555980E+02 -0.72072221413E+03  0.72512752798E+03  0.31815050495E+01 0.  0.
         13    1    3    3    0    0 -0.13419867928E+02  0.13671143577E+02 -0.17859048502E+03  0.17961501708E+03  0.00000000000E+00 0.  1.
          1    1    3    3  501    0 -0.38717615909E+02  0.46669412404E+02 -0.54213172911E+03  0.54551251089E+03  0.00000000000E+00 0.  1.
         -3    1    1    2    0  502  0.52137483837E+02 -0.60340555980E+02 -0.27133724484E+03  0.28281301306E+03  0.00000000000E+00 0. -1.
<mgrwt>
<rscale>  1 0.30000000E+03</rscale>
<asrwt>0</asrwt>
<pdfrwt beam="1">  1       21 0.28874756E-01 0.30000000E+03</pdfrwt>
<pdfrwt beam="2">0</pdfrwt>
<totfact> 0.11734564E+03</totfact>
</mgrwt>
</event>
<event>
 6    1  0.1198667E-001  0.3000000E+03  0.7818608E-02  0.1093470E+00
         21   -1    0    0  501  502  0.00000000000E+00  0.00000000000E+00  0.13226511519E+01  0.13226511519E+01  0.00000000000E+00 0. -1.
         13   -1    0    0    0    0 -0.00000000000E+00 -0.00000000000E+00 -0.10000000000E+04  0.10000000000E+04  0.00000000000E+00 0.  1.
    9000005    2    1    2  501    0 -0.90329435410E+01  0.29225280190E+02 -0.76935797520E+03  0.76997208124E+03  0.30985164275E+01 0.  0.
         13    1    3    3    0    0  0.70754435679E-01  0.26381581006E+01 -0.69738549029E+02  0.69788466848E+02  0.00000000000E+00 0.  1.
          1    1    3    3  501    0 -0.91036979767E+01  0.26587122089E+02 -0.69961942617E+03  0.70018361439E+03  0.00000000000E+00 0.  1.
         -1    1    1    2    0  502  0.90329435410E+01 -0.29225280190E+02 -0.22931937365E+03  0.23135056992E+03  0.00000000000E+00 0. -1.
<mgrwt>
<rscale>  1 0.30000000E+03</rscale>
<asrwt>0</asrwt>
<pdfrwt beam="1">  1       21 0.48096507E-02 0.30000000E+03</pdfrwt>
<pdfrwt beam="2">0</pdfrwt>
<totfact> 0.30773183E+04</totfact>
</mgrwt>
</event>
<event>
 6    1  0.1198667E-001  0.3000000E+03  0.7818608E-02  0.1093470E+00
         21   -1    0    0  501  502  0.00000000000E+00  0.00000000000E+00  0.13376445835E+01  0.13376445835E+01  0.00000000000E+00 0. -1.
         13   -1    0    0    0    0 -0.00000000000E+00 -0.00000000000E+00 -0.10000000000E+04  0.10000000000E+04  0.00000000000E+00 0.  1.
    9000005    2    1    2  501    0 -0.34438667340E+02 -0.32199211559E+01 -0.66113168142E+03  0.66203933101E+03  0.21414798791E+01 0.  0.
         13    1    3    3    0    0 -0.38076015190E+01 -0.60071570111E+00 -0.86543630014E+02  0.86629432554E+02  0.00000000000E+00 0.  1.
          3    1    3    3  501    0 -0.30631065820E+02 -0.26192054548E+01 -0.57458805140E+03  0.57540989846E+03  0.00000000000E+00 0.  1.
         -3    1    1    2    0  502  0.34438667340E+02  0.32199211559E+01 -0.33753067400E+03  0.33929831357E+03  0.00000000000E+00 0. -1.
<mgrwt>
<rscale>  1 0.30000000E+03</rscale>
<asrwt>0</asrwt>
<pdfrwt beam="1">  1       21 0.48641724E-02 0.30000000E+03</pdfrwt>
<pdfrwt beam="2">0</pdfrwt>
<totfact> 0.30188372E+04</totfact>
</mgrwt>
</event>
<event>
 6    1  0.1198667E-001  0.3000000E+03  0.7818608E-02  0.1093470E+00
         21   -1    0    0  501  502  0.00000000000E+00  0.00000000000E+00  0.12471727051E+01  0.12471727051E+01  0.00000000000E+00 0. -1.
         13   -1    0    0    0    0 -0.00000000000E+00 -0.00000000000E+00 -0.10000000000E+04  0.10000000000E+04  0.00000000000E+00 0.  1.
    9000005    2    1    2  501    0  0.68778797232E+01  0.31473262800E+02 -0.70351855373E+03  0.70426039221E+03  0.25442276495E+01 0.  0.
         13    1    3    3    0    0  0.43291152193E+01  0.22218078411E+02 -0.47054656370E+03  0.47109070555E+03  0.00000000000E+00 0.  1.
          1    1    3    3  501    0  0.25487645039E+01  0.92551843889E+01 -0.23297199003E+03  0.23316968666E+03  0.00000000000E+00 0.  1.
         -1    1    1    2    0  502 -0.68778797232E+01 -0.31473262800E+02 -0.29523427356E+03  0.29698678049E+03  0.00000000000E+00 0. -1.
<mgrwt>
<rscale>  1 0.30000000E+03</rscale>
<asrwt>0</asrwt>
<pdfrwt beam="1">  1       21 0.45351830E-02 0.30000000E+03</pdfrwt>
<pdfrwt beam="2">0</pdfrwt>
<totfact> 0.34005659E+04</totfact>
</mgrwt>
</event>
<event>
 6    1  0.1198667E-001  0.3000000E+03  0.7818608E-02  0.1093470E+00
         21   -1    0    0  501  502  0.00000000000E+00  0.00000000000E+00  0.12973039350E+01  0.12973039350E+01  0.00000000000E+00 0. -1.
         13   -1    0    0    0    0 -0.00000000000E+00 -0.00000000000E+00 -0.10000000000E+04  0.10000000000E+04  0.00000000000E+00 0.  1.
    9000005    2    1    2  501    0  0.27346794719E+02  0.22310800293E+02 -0.59502259644E+03  0.59607731204E+03  0.32638434339E+01 0.  0.
         13    1    3    3    0    0  0.14265671752E+02  0.10525987872E+02 -0.27522912451E+03  0.27579952282E+03  0.00000000000E+00 0.  1.
          3    1    3    3  501    0  0.13081122967E+02  0.11784812421E+02 -0.31979347193E+03  0.32027778922E+03  0.00000000000E+00 0.  1.
         -1    1    1    2    0  502 -0.27346794719E+02 -0.22310800293E+02 -0.40368009963E+03  0.40521999189E+03  0.00000000000E+00 0. -1.
<mgrwt>
<rscale>  1 0.30000000E+03</rscale>
<asrwt>0</asrwt>
<pdfrwt beam="1">  1       21 0.47174788E-02 0.30000000E+03</pdfrwt>
<pdfrwt beam="2">0</pdfrwt>
<totfact> 0.31802969E+04</totfact>
</mgrwt>
</event>
<event>
 6    1  0.1198667E-001  0.3000000E+03  0.7818608E-02  0.1093470E+00
         21   -1    0    0  501  502  0.00000000000E+00  0.00000000000E+00  0.12702839724E+01  0.12702839724E+01  0.00000000000E+00 0. -1.
         13   -1    0    0    0    0 -0.00000000000E+00 -0.00000000000E+00 -0.10000000000E+04  0.10000000000E+04  0.00000000000E+00 0.  1.
    9000005    2    1    2  501    0 -0.26996764558E+02  0.16485019446E+02 -0.72869000589E+03  0.72938423024E+03  0.34131329895E+01 0.  0.
         13    1    3    3    0    0 -0.12562292056E+02  0.96678712715E+01 -0.36506088287E+03  0.36540488108E+03  0.00000000000E+00 0.  1.
          3    1    3    3  501    0 -0.14434472502E+02  0.68171481741E+01 -0.36362912302E+03  0.36397934916E+03  0.00000000000E+00 0.  1.
         -1    1    1    2    0  502  0.26996764558E+02 -0.16485019446E+02 -0.27003971014E+03  0.27188605373E+03  0.00000000000E+00 0. -1.
<mgrwt>
<rscale>  1 0.30000000E+03</rscale>
<asrwt>0</asrwt>
<pdfrwt beam="1">  1       21 0.46192242E-02 0.30000000E+03</pdfrwt>
<pdfrwt beam="2">0</pdfrwt>
<totfact> 0.32961392E+04</totfact>
</mgrwt>
</event>
<event>
 6    1  0.1198667E-001  0.3000000E+03  0.7818608E-02  0.1093470E+00
         21   -1    0    0  501  502  0.00000000000E+00  0.00000000000E+00  0.31123184573E+01  0.31123184573E+01  0.00000000000E+00 0. -1.
         13   -1    0    0    0    0 -0.00000000000E+00 -0.00000000000E+00 -0.10000000000E+04  0.10000000000E+04  0.00000000000E+00 0.  1.
    9000005    2    1    2  501    0  0.15409949961E+02  0.49071195891E+02 -0.69204523520E+03  0.69396127783E+03  0.31935484091E+01 0.  0.
         13    1    3    3    0    0  0.11859670148E+02  0.34817859236E+02 -0.47883685971E+03  0.48024751255E+03  0.00000000000E+00 0.  1.
          3    1    3    3  501    0  0.35502798121E+01  0.14253336654E+02 -0.21320837549E+03  0.21371376528E+03  0.00000000000E+00 0.  1.
         -3    1    1    2    0  502 -0.15409949961E+02 -0.49071195891E+02 -0.30484244635E+03  0.30915104062E+03  0.00000000000E+00 0. -1.
<mgrwt>
<rscale>  1 0.30000000E+03</rscale>
<asrwt>0</asrwt>
<pdfrwt beam="1">  1       21 0.11317546E-01 0.30000000E+03</pdfrwt>
<pdfrwt beam="2">0</pdfrwt>
<totfact> 0.68896093E+03</totfact>
</mgrwt>
</event>
<event>
 6    1  0.1198667E-001  0.3000000E+03  0.7818608E-02  0.1093470E+00
         21   -1    0    0  501  502  0.00000000000E+00  0.00000000000E+00  0.99840056354E+00  0.99840056354E+00  0.00000000000E+00 0. -1.
         13   -1    0    0    0    0 -0.00000000000E+00 -0.00000000000E+00 -0.10000000000E+04  0.10000000000E+04  0.00000000000E+00 0.  1.
    9000005    2    1    2  501    0  0.31342371763E+02  0.28159631718E+00 -0.45169970484E+03  0.45279972545E+03  0.35418149860E+01 0.  0.
         13    1    3    3    0    0  0.10264677189E+02 -0.28262599117E+00 -0.12560211678E+03  0.12602116971E+03  0.00000000000E+00 0.  1.
          1    1    3    3  501    0  0.21077694574E+02  0.56422230834E+00 -0.32609758806E+03  0.32677855575E+03  0.00000000000E+00 0.  1.
         -3    1    1    2    0  502 -0.31342371763E+02 -0.28159631718E+00 -0.54730189460E+03  0.54819867511E+03  0.00000000000E+00 0. -1.
<mgrwt>
<rscale>  1 0.30000000E+03</rscale>
<asrwt>0</asrwt>
<pdfrwt beam="1">  1       21 0.36305552E-02 0.30000000E+03</pdfrwt>
<pdfrwt beam="2">0</pdfrwt>
<totfact> 0.49483882E+04</totfact>
</mgrwt>
</event>
<event>
 6    1  0.1198667E-001  0.3000000E+03  0.7818608E-02  0.1093470E+00
         21   -1    0    0  501  502  0.00000000000E+00  0.00000000000E+00  0.15907185628E+01  0.15907185628E+01  0.00000000000E+00 0. -1.
         13   -1    0    0    0    0 -0.00000000000E+00 -0.00000000000E+00 -0.10000000000E+04  0.10000000000E+04  0.00000000000E+00 0.  1.
    9000005    2    1    2  501    0 -0.57888778992E+01  0.39044470709E+02 -0.43310574191E+03  0.43491084985E+03  0.29802421303E+01 0.  0.
         13    1    3    3    0    0 -0.33115422599E+01  0.20609763828E+02 -0.24506429718E+03  0.24595169939E+03  0.00000000000E+00 0.  1.
          3    1    3    3  501    0 -0.24773356392E+01  0.18434706881E+02 -0.18804144473E+03  0.18895915046E+03  0.00000000000E+00 0.  1.
         -1    1    1    2    0  502  0.57888778992E+01 -0.39044470709E+02 -0.56530353953E+03  0.56667986871E+03  0.00000000000E+00 0. -1.
<mgrwt>
<rscale>  1 0.30000000E+03</rscale>
<asrwt>0</asrwt>
<pdfrwt beam="1">  1       21 0.57844433E-02 0.30000000E+03</pdfrwt>
<pdfrwt beam="2">0</pdfrwt>
<totfact> 0.22443127E+04</totfact>
</mgrwt>
</event>
<event>
 6    1  0.1198667E-001  0.3000000E+03  0.7818608E-02  0.1093470E+00
         21   -1    0    0  501  502  0.00000000000E+00  0.00000000000E+00  0.20399329414E+01  0.20399329414E+01  0.00000000000E+00 0. -1.
         13   -1    0    0    0    0 -0.00000000000E+00 -0.00000000000E+00 -0.10000000000E+04  0.10000000000E+04  0.00000000000E+00 0.  1.
    9000005    2    1    2  501    0  0.35365052367E+02  0.44045376692E+00 -0.81015901703E+03  0.81093756425E+03  0.33495230648E+01 0.  0.
         13    1    3    3    0    0  0.31617679290E+02  0.71831915250E+00 -0.74407150882E+03  0.74474331408E+03  0.00000000000E+00 0.  1.
          1    1    3    3  501    0  0.37473730775E+01 -0.27786538558E+00 -0.66087508215E+02  0.66194250175E+02  0.00000000000E+00 0.  1.
         -1    1    1    2    0  502 -0.35365052367E+02 -0.44045376692E+00 -0.18780105002E+03  0.19110236869E+03  0.00000000000E+00 0. -1.
<mgrwt>
<rscale>  1 0.30000000E+03</rscale>
<asrwt>0</asrwt>
<pdfrwt beam="1">  1       21 0.74179536E-02 0.30000000E+03</pdfrwt>
<pdfrwt beam="2">0</pdfrwt>
<totfact> 0.14582541E+04</totfact>
</mgrwt>
</event>
<event>
 6    1  0.1198667E-001  0.3000000E+03  0.7818608E-02  0.1093470E+00
         21   -1    0    0  501  502  0.00000000000E+00  0.00000000000E+00  0.73952093851E+01  0.73952093851E+01  0.00000000000E+00 0. -1.
         13   -1    0    0    0    0 -0.00000000000E+00 -0.00000000000E+00 -0.10000000000E+04  0.10000000000E+04  0.00000000000E+00 0.  1.
    9000005    2    1    2  501    0 -0.51032487166E+02  0.22111138664E+02 -0.88042116370E+03  0.88218185808E+03  0.31918678571E+01 0.  0.
         13    1    3    3    0    0 -0.36692557940E+02  0.14534579005E+02 -0.61223355512E+03  0.61350429812E+03  0.00000000000E+00 0.  1.
          1    1    3    3  501    0 -0.14339929226E+02  0.75765596586E+01 -0.26818760859E+03  0.26867755996E+03  0.00000000000E+00 0.  1.
         -3    1    1    2    0  502  0.51032487166E+02 -0.22111138664E+02 -0.11218362691E+03  0.12521335131E+03  0.00000000000E+00 0. -1.
<mgrwt>
<rscale>  1 0.30000000E+03</rscale>
<asrwt>0</asrwt>
<pdfrwt beam="1">  1       21 0.26891727E-01 0.30000000E+03</pdfrwt>
<pdfrwt beam="2">0</pdfrwt>
<totfact> 0.13511557E+03</totfact>
</mgrwt>
</event>
<event>
 6    1  0.1198667E-001  0.3000000E+03  0.7818608E-02  0.1093470E+00
         21   -1    0    0  501  502  0.00000000000E+00  0.00000000000E+00  0.14885901509E+01  0.14885901509E+01  0.00000000000E+00 0. -1.
         13   -1    0    0    0    0 -0.00000000000E+00 -0.00000000000E+00 -0.10000000000E+04  0.10000000000E+04  0.00000000000E+00 0.  1.
    9000005    2    1    2  501    0  0.30234781111E+02 -0.19198760795E+02 -0.68360439272E+03  0.68455142944E+03  0.35999155255E+01 0.  0.
         13    1    3    3    0    0  0.80912669956E+01 -0.53981115717E+01 -0.21736747136E+03  0.21758498528E+03  0.00000000000E+00 0.  1.
          1    1    3    3  501    0  0.22143514115E+02 -0.13800649223E+02 -0.46623692136E+03  0.46696644416E+03  0.00000000000E+00 0.  1.
         -3    1    1    2    0  502 -0.30234781111E+02  0.19198760795E+02 -0.31490701713E+03  0.31693716071E+03  0.00000000000E+00 0. -1.
<mgrwt>
<rscale>  1 0.30000000E+03</rscale>
<asrwt>0</asrwt>
<pdfrwt beam="1">  1       21 0.54130665E-02 0.30000000E+03</pdfrwt>
<pdfrwt beam="2">0</pdfrwt>
<totfact> 0.25151574E+04</totfact>
</mgrwt>
</event>
<event>
 6    1  0.1198667E-001  0.3000000E+03  0.7818608E-02  0.1093470E+00
         21   -1    0    0  501  502  0.00000000000E+00  0.00000000000E+00  0.33683373484E+01  0.33683373484E+01  0.00000000000E+00 0. -1.
         13   -1    0    0    0    0 -0.00000000000E+00 -0.00000000000E+00 -0.10000000000E+04  0.10000000000E+04  0.00000000000E+00 0.  1.
    9000005    2    1    2  501    0 -0.11087922115E+02 -0.42988843229E+02 -0.82115733480E+03  0.82236496060E+03  0.37117743735E+01 0.  0.
         13    1    3    3    0    0  0.21301855581E+00 -0.24184687006E+00 -0.78602834506E+01  0.78668877415E+01  0.00000000000E+00 0.  1.
          3    1    3    3  501    0 -0.11300940671E+02 -0.42746996359E+02 -0.81329705135E+03  0.81449807286E+03  0.00000000000E+00 0.  1.
         -3    1    1    2    0  502  0.11087922115E+02  0.42988843229E+02 -0.17547432785E+03  0.18100337674E+03  0.00000000000E+00 0. -1.
<mgrwt>
<rscale>  1 0.30000000E+03</rscale>
<asrwt>0</asrwt>
<pdfrwt beam="1">  1       21 0.12248525E-01 0.30000000E+03</pdfrwt>
<pdfrwt beam="2">0</pdfrwt>
<totfact> 0.59705287E+03</totfact>
</mgrwt>
</event>
<event>
 6    1  0.1198667E-001  0.3000000E+03  0.7818608E-02  0.1093470E+00
         21   -1    0    0  501  502  0.00000000000E+00  0.00000000000E+00  0.25784835305E+01  0.25784835305E+01  0.00000000000E+00 0. -1.
         13   -1    0    0    0    0 -0.00000000000E+00 -0.00000000000E+00 -0.10000000000E+04  0.10000000000E+04  0.00000000000E+00 0.  1.
    9000005    2    1    2  501    0  0.36659157632E+02  0.14093472913E+02 -0.81613410090E+03  0.81708550021E+03  0.33651427524E+01 0.  0.
         13    1    3    3    0    0  0.79942703242E+01  0.41913203244E+01 -0.20772436495E+03  0.20792038697E+03  0.00000000000E+00 0.  1.
          1    1    3    3  501    0  0.28664887308E+02  0.99021525886E+01 -0.60840973595E+03  0.60916511324E+03  0.00000000000E+00 0.  1.
         -1    1    1    2    0  502 -0.36659157632E+02 -0.14093472913E+02 -0.18128741557E+03  0.18549298332E+03  0.00000000000E+00 0. -1.
<mgrwt>
<rscale>  1 0.30000000E+03</rscale>
<asrwt>0</asrwt>
<pdfrwt beam="1">  1       21 0.93763235E-02 0.30000000E+03</pdfrwt>
<pdfrwt beam="2">0</pdfrwt>
<totfact> 0.96502230E+03</totfact>
</mgrwt>
</event>
<event>
 6    1  0.1198667E-001  0.3000000E+03  0.7818608E-02  0.1093470E+00
         21   -1    0    0  501  502  0.00000000000E+00  0.00000000000E+00  0.27158237667E+01  0.27158237667E+01  0.00000000000E+00 0. -1.
         13   -1    0    0    0    0 -0.00000000000E+00 -0.00000000000E+00 -0.10000000000E+04  0.10000000000E+04  0.00000000000E+00 0.  1.
    9000005    2    1    2  501    0 -0.32809107486E+02  0.63387269191E+00 -0.88792130219E+03  0.88853580123E+03  0.38460170005E+01 0.  0.
         13    1    3    3    0    0 -0.12500198912E+02  0.21012177690E+01 -0.33545364994E+03  0.33569304631E+03  0.00000000000E+00 0.  1.
          3    1    3    3  501    0 -0.20308908574E+02 -0.14673450771E+01 -0.55246765226E+03  0.55284275491E+03  0.00000000000E+00 0.  1.
         -3    1    1    2    0  502  0.32809107486E+02 -0.63387269191E+00 -0.10936287404E+03  0.11418002254E+03  0.00000000000E+00 0. -1.
<mgrwt>
<rscale>  1 0.30000000E+03</rscale>
<asrwt>0</asrwt>
<pdfrwt beam="1">  1       21 0.98757436E-02 0.30000000E+03</pdfrwt>
<pdfrwt beam="2">0</pdfrwt>
<totfact> 0.87974988E+03</totfact>
</mgrwt>
</event>
<event>
 6    1  0.1198667E-001  0.3000000E+03  0.7818608E-02  0.1093470E+00
         21   -1    0    0  501  502  0.00000000000E+00  0.00000000000E+00  0.38980736642E+01  0.38980736642E+01  0.00000000000E+00 0. -1.
         13   -1    0    0    0    0 -0.00000000000E+00 -0.00000000000E+00 -0.10000000000E+04  0.10000000000E+04  0.00000000000E+00 0.  1.
    9000005    2    1    2  501    0  0.10304452632E+02 -0.38778273519E+02 -0.88253533945E+03  0.88345179560E+03  0.29177972548E+01 0.  0.
         13    1    3    3    0    0  0.58085714823E+01 -0.21687702824E+02 -0.46176453872E+03  0.46231005308E+03  0.00000000000E+00 0.  1.
          1    1    3    3  501    0  0.44958811499E+01 -0.17090570695E+02 -0.42077080072E+03  0.42114174252E+03  0.00000000000E+00 0.  1.
         -1    1    1    2    0  502 -0.10304452632E+02  0.38778273519E+02 -0.11356658689E+03  0.12044627806E+03  0.00000000000E+00 0. -1.
<mgrwt>
<rscale>  1 0.30000000E+03</rscale>
<asrwt>0</asrwt>
<pdfrwt beam="1">  1       21 0.14174843E-01 0.30000000E+03</pdfrwt>
<pdfrwt beam="2">0</pdfrwt>
<totfact> 0.45711746E+03</totfact>
</mgrwt>
</event>
<event>
 6    1  0.1198667E-001  0.3000000E+03  0.7818608E-02  0.1093470E+00
         21   -1    0    0  501  502  0.00000000000E+00  0.00000000000E+00  0.21591009691E+01  0.21591009691E+01  0.00000000000E+00 0. -1.
         13   -1    0    0    0    0 -0.00000000000E+00 -0.00000000000E+00 -0.10000000000E+04  0.10000000000E+04  0.00000000000E+00 0.  1.
    9000005    2    1    2  501    0 -0.40959242746E+02 -0.21517490232E+02 -0.53044383081E+03  0.53247763302E+03  0.45945697646E+01 0.  0.
         13    1    3    3    0    0 -0.37340072883E+02 -0.20970405787E+02 -0.49139761112E+03  0.49326022663E+03  0.00000000000E+00 0.  1.
          1    1    3    3  501    0 -0.36191698630E+01 -0.54708444523E+00 -0.39046219698E+02  0.39217406398E+02  0.00000000000E+00 0.  1.
         -3    1    1    2    0  502  0.40959242746E+02  0.21517490232E+02 -0.46739706822E+03  0.46968146794E+03  0.00000000000E+00 0. -1.
<mgrwt>
<rscale>  1 0.30000000E+03</rscale>
<asrwt>0</asrwt>
<pdfrwt beam="1">  1       21 0.78512928E-02 0.30000000E+03</pdfrwt>
<pdfrwt beam="2">0</pdfrwt>
<totfact> 0.13201646E+04</totfact>
</mgrwt>
</event>
<event>
 6    1  0.1198667E-001  0.3000000E+03  0.7818608E-02  0.1093470E+00
         21   -1    0    0  501  502  0.00000000000E+00  0.00000000000E+00  0.12690624736E+01  0.12690624736E+01  0.00000000000E+00 0. -1.
         13   -1    0    0    0    0 -0.00000000000E+00 -0.00000000000E+00 -0.10000000000E+04  0.10000000000E+04  0.00000000000E+00 0.  1.
    9000005    2    1    2  501    0  0.24972814947E+02 -0.17175123682E+02 -0.76147545092E+03  0.76208546712E+03  0.32818420011E+01 0.  0.
         13    1    3    3    0    0  0.17919284283E+02 -0.11797333672E+02 -0.57281443897E+03  0.57321606688E+03  0.00000000000E+00 0.  1.
          1    1    3    3  501    0  0.70535306632E+01 -0.53777900104E+01 -0.18866101195E+03  0.18886940025E+03  0.00000000000E+00 0.  1.
         -3    1    1    2    0  502 -0.24972814947E+02  0.17175123682E+02 -0.23725548661E+03  0.23918359535E+03  0.00000000000E+00 0. -1.
<mgrwt>
<rscale>  1 0.30000000E+03</rscale>
<asrwt>0</asrwt>
<pdfrwt beam="1">  1       21 0.46147824E-02 0.30000000E+03</pdfrwt>
<pdfrwt beam="2">0</pdfrwt>
<totfact> 0.33015318E+04</totfact>
</mgrwt>
</event>
<event>
 6    1  0.1198667E-001  0.3000000E+03  0.7818608E-02  0.1093470E+00
         21   -1    0    0  501  502  0.00000000000E+00  0.00000000000E+00  0.50176443130E+01  0.50176443130E+01  0.00000000000E+00 0. -1.
         13   -1    0    0    0    0 -0.00000000000E+00 -0.00000000000E+00 -0.10000000000E+04  0.10000000000E+04  0.00000000000E+00 0.  1.
    9000005    2    1    2  501    0  0.30869224850E+02 -0.82465623079E+01 -0.94593536118E+03  0.94648113858E+03  0.34530181699E+01 0.  0.
         13    1    3    3    0    0  0.30160229255E+02 -0.74958715800E+01 -0.92170318610E+03  0.92222697357E+03  0.00000000000E+00 0.  1.
          3    1    3    3  501    0  0.70899559429E+00 -0.75069072781E+00 -0.24232175080E+02  0.24254165012E+02  0.00000000000E+00 0.  1.
         -1    1    1    2    0  502 -0.30869224850E+02  0.82465623079E+01 -0.49046994511E+02  0.58536505732E+02  0.00000000000E+00 0. -1.
<mgrwt>
<rscale>  1 0.30000000E+03</rscale>
<asrwt>0</asrwt>
<pdfrwt beam="1">  1       21 0.18246018E-01 0.30000000E+03</pdfrwt>
<pdfrwt beam="2">0</pdfrwt>
<totfact> 0.28555463E+03</totfact>
</mgrwt>
</event>
<event>
 6    1  0.1198667E-001  0.3000000E+03  0.7818608E-02  0.1093470E+00
         21   -1    0    0  501  502  0.00000000000E+00  0.00000000000E+00  0.15531493256E+01  0.15531493256E+01  0.00000000000E+00 0. -1.
         13   -1    0    0    0    0 -0.00000000000E+00 -0.00000000000E+00 -0.10000000000E+04  0.10000000000E+04  0.00000000000E+00 0.  1.
    9000005    2    1    2  501    0  0.17303195934E+02 -0.25309730907E+02 -0.81337935192E+03  0.81396327176E+03  0.32022779279E+01 0.  0.
         13    1    3    3    0    0  0.21325728217E+00  0.26023004788E-01 -0.11065273612E+02  0.11067359033E+02  0.00000000000E+00 0.  1.
          1    1    3    3  501    0  0.17089938652E+02 -0.25335753912E+02 -0.80231407831E+03  0.80289591273E+03  0.00000000000E+00 0.  1.
         -3    1    1    2    0  502 -0.17303195934E+02  0.25309730907E+02 -0.18506749876E+03  0.18758987756E+03  0.00000000000E+00 0. -1.
<mgrwt>
<rscale>  1 0.30000000E+03</rscale>
<asrwt>0</asrwt>
<pdfrwt beam="1">  1       21 0.56478276E-02 0.30000000E+03</pdfrwt>
<pdfrwt beam="2">0</pdfrwt>
<totfact> 0.23384962E+04</totfact>
</mgrwt>
</event>
<event>
 6    1  0.1198667E-001  0.3000000E+03  0.7818608E-02  0.1093470E+00
         21   -1    0    0  501  502  0.00000000000E+00  0.00000000000E+00  0.14813346975E+01  0.14813346975E+01  0.00000000000E+00 0. -1.
         13   -1    0    0    0    0 -0.00000000000E+00 -0.00000000000E+00 -0.10000000000E+04  0.10000000000E+04  0.00000000000E+00 0.  1.
    9000005    2    1    2  501    0  0.25882400594E+02 -0.23366154529E+02 -0.70920550760E+03  0.71007443867E+03  0.41690036161E+01 0.  0.
         13    1    3    3    0    0  0.37652502656E+01 -0.21281718645E+01 -0.69474062140E+02  0.69608559353E+02  0.00000000000E+00 0.  1.
          1    1    3    3  501    0  0.22117150328E+02 -0.21237982665E+02 -0.63973144546E+03  0.64046587931E+03  0.00000000000E+00 0.  1.
         -3    1    1    2    0  502 -0.25882400594E+02  0.23366154529E+02 -0.28931315770E+03  0.29140689603E+03  0.00000000000E+00 0. -1.
<mgrwt>
<rscale>  1 0.30000000E+03</rscale>
<asrwt>0</asrwt>
<pdfrwt beam="1">  1       21 0.53866830E-02 0.30000000E+03</pdfrwt>
<pdfrwt beam="2">0</pdfrwt>
<totfact> 0.25362897E+04</totfact>
</mgrwt>
</event>
<event>
 6    1  0.1198667E-001  0.3000000E+03  0.7818608E-02  0.1093470E+00
         21   -1    0    0  501  502  0.00000000000E+00  0.00000000000E+00  0.19210741522E+01  0.19210741522E+01  0.00000000000E+00 0. -1.
         13   -1    0    0    0    0 -0.00000000000E+00 -0.00000000000E+00 -0.10000000000E+04  0.10000000000E+04  0.00000000000E+00 0.  1.
    9000005    2    1    2  501    0  0.42696536637E+02 -0.93290598937E+01 -0.52499055934E+03  0.52681831882E+03  0.35253437954E+01 0.  0.
         13    1    3    3    0    0  0.14088068147E+02 -0.33838007701E+01 -0.15495816041E+03  0.15563404270E+03  0.00000000000E+00 0.  1.
          3    1    3    3  501    0  0.28608468490E+02 -0.59452591237E+01 -0.37003239894E+03  0.37118427612E+03  0.00000000000E+00 0.  1.
         -3    1    1    2    0  502 -0.42696536637E+02  0.93290598937E+01 -0.47308836650E+03  0.47510275533E+03  0.00000000000E+00 0. -1.
<mgrwt>
<rscale>  1 0.30000000E+03</rscale>
<asrwt>0</asrwt>
<pdfrwt beam="1">  1       21 0.69857389E-02 0.30000000E+03</pdfrwt>
<pdfrwt beam="2">0</pdfrwt>
<totfact> 0.16192651E+04</totfact>
</mgrwt>
</event>
<event>
 6    1  0.1198667E-001  0.3000000E+03  0.7818608E-02  0.1093470E+00
         21   -1    0    0  501  502  0.00000000000E+00  0.00000000000E+00  0.16596247329E+01  0.16596247329E+01  0.00000000000E+00 0. -1.
         13   -1    0    0    0    0 -0.00000000000E+00 -0.00000000000E+00 -0.10000000000E+04  0.10000000000E+04  0.00000000000E+00 0.  1.
    9000005    2    1    2  501    0  0.34393489945E+01 -0.30310172901E+02 -0.82895398135E+03  0.82954836378E+03  0.74329637402E+01 0.  0.
         13    1    3    3    0    0  0.30891008597E+01 -0.26582941878E+02 -0.77646265665E+03  0.77692371087E+03  0.00000000000E+00 0.  1.
          3    1    3    3  501    0  0.35024813477E+00 -0.37272310229E+01 -0.52491324707E+02  0.52624652914E+02  0.00000000000E+00 0.  1.
         -3    1    1    2    0  502 -0.34393489945E+01  0.30310172901E+02 -0.16938639391E+03  0.17211126095E+03  0.00000000000E+00 0. -1.
<mgrwt>
<rscale>  1 0.30000000E+03</rscale>
<asrwt>0</asrwt>
<pdfrwt beam="1">  1       21 0.60350118E-02 0.30000000E+03</pdfrwt>
<pdfrwt beam="2">0</pdfrwt>
<totfact> 0.20861254E+04</totfact>
</mgrwt>
</event>
<event>
 6    1  0.1198667E-001  0.3000000E+03  0.7818608E-02  0.1093470E+00
         21   -1    0    0  501  502  0.00000000000E+00  0.00000000000E+00  0.23937933799E+01  0.23937933799E+01  0.00000000000E+00 0. -1.
         13   -1    0    0    0    0 -0.00000000000E+00 -0.00000000000E+00 -0.10000000000E+04  0.10000000000E+04  0.00000000000E+00 0.  1.
    9000005    2    1    2  501    0  0.30860300723E+02  0.37997024835E+01 -0.88560129663E+03  0.88615311306E+03  0.32995894669E+01 0.  0.
         13    1    3    3    0    0  0.62389645257E+01  0.42384349292E+00 -0.14448373563E+03  0.14461899662E+03  0.00000000000E+00 0.  1.
          3    1    3    3  501    0  0.24621336198E+02  0.33758589906E+01 -0.74111756100E+03  0.74153411644E+03  0.00000000000E+00 0.  1.
         -3    1    1    2    0  502 -0.30860300723E+02 -0.37997024835E+01 -0.11200490999E+03  0.11624068032E+03  0.00000000000E+00 0. -1.
<mgrwt>
<rscale>  1 0.30000000E+03</rscale>
<asrwt>0</asrwt>
<pdfrwt beam="1">  1       21 0.87047216E-02 0.30000000E+03</pdfrwt>
<pdfrwt beam="2">0</pdfrwt>
<totfact> 0.11008980E+04</totfact>
</mgrwt>
</event>
<event>
 6    1  0.1198667E-001  0.3000000E+03  0.7818608E-02  0.1093470E+00
         21   -1    0    0  501  502  0.00000000000E+00  0.00000000000E+00  0.15691565859E+01  0.15691565859E+01  0.00000000000E+00 0. -1.
         13   -1    0    0    0    0 -0.00000000000E+00 -0.00000000000E+00 -0.10000000000E+04  0.10000000000E+04  0.00000000000E+00 0.  1.
    9000005    2    1    2  501    0  0.28848442147E+02 -0.23053670166E+02 -0.67874265255E+03  0.67975516730E+03  0.34343496353E+01 0.  0.
         13    1    3    3    0    0  0.85019394987E+01 -0.58134381001E+01 -0.16557602715E+03  0.16589605121E+03  0.00000000000E+00 0.  1.
          3    1    3    3  501    0  0.20346502648E+02 -0.17240232066E+02 -0.51316662539E+03  0.51385911609E+03  0.00000000000E+00 0.  1.
         -3    1    1    2    0  502 -0.28848442147E+02  0.23053670166E+02 -0.31968819087E+03  0.32181398929E+03  0.00000000000E+00 0. -1.
<mgrwt>
<rscale>  1 0.30000000E+03</rscale>
<asrwt>0</asrwt>
<pdfrwt beam="1">  1       21 0.57060360E-02 0.30000000E+03</pdfrwt>
<pdfrwt beam="2">0</pdfrwt>
<totfact> 0.22976405E+04</totfact>
</mgrwt>
</event>
<event>
 6    1  0.1198667E-001  0.3000000E+03  0.7818608E-02  0.1093470E+00
         21   -1    0    0  501  502  0.00000000000E+00  0.00000000000E+00  0.27661928301E+01  0.27661928301E+01  0.00000000000E+00 0. -1.
         13   -1    0    0    0    0 -0.00000000000E+00 -0.00000000000E+00 -0.10000000000E+04  0.10000000000E+04  0.00000000000E+00 0.  1.
    9000005    2    1    2  501    0  0.28391111745E+02  0.27093024500E+02 -0.83212275609E+03  0.83305542007E+03  0.36006249196E+01 0.  0.
         13    1    3    3    0    0  0.19692264817E+01  0.78138967846E+00 -0.46605537280E+02  0.46653665750E+02  0.00000000000E+00 0.  1.
          1    1    3    3  501    0  0.26421885263E+02  0.26311634822E+02 -0.78551721881E+03  0.78640175432E+03  0.00000000000E+00 0.  1.
         -3    1    1    2    0  502 -0.28391111745E+02 -0.27093024500E+02 -0.16511105108E+03  0.16971077276E+03  0.00000000000E+00 0. -1.
<mgrwt>
<rscale>  1 0.30000000E+03</rscale>
<asrwt>0</asrwt>
<pdfrwt beam="1">  1       21 0.10058904E-01 0.30000000E+03</pdfrwt>
<pdfrwt beam="2">0</pdfrwt>
<totfact> 0.85133691E+03</totfact>
</mgrwt>
</event>
<event>
 6    1  0.1198667E-001  0.3000000E+03  0.7818608E-02  0.1093470E+00
         21   -1    0    0  501  502  0.00000000000E+00  0.00000000000E+00  0.93897084502E+00  0.93897084502E+00  0.00000000000E+00 0. -1.
         13   -1    0    0    0    0 -0.00000000000E+00 -0.00000000000E+00 -0.10000000000E+04  0.10000000000E+04  0.00000000000E+00 0.  1.
    9000005    2    1    2  501    0  0.28662858724E+02  0.91170741533E+01 -0.41197066412E+03  0.41307863265E+03  0.30737829066E+01 0.  0.
         13    1    3    3    0    0  0.94802097172E+01  0.19386453549E+01 -0.11885351954E+03  0.11924676864E+03  0.00000000000E+00 0.  1.
          3    1    3    3  501    0  0.19182649006E+02  0.71784287985E+01 -0.29311714458E+03  0.29383186401E+03  0.00000000000E+00 0.  1.
         -3    1    1    2    0  502 -0.28662858724E+02 -0.91170741533E+01 -0.58709036503E+03  0.58786033820E+03  0.00000000000E+00 0. -1.
<mgrwt>
<rscale>  1 0.30000000E+03</rscale>
<asrwt>0</asrwt>
<pdfrwt beam="1">  1       21 0.34144466E-02 0.30000000E+03</pdfrwt>
<pdfrwt beam="2">0</pdfrwt>
<totfact> 0.54841009E+04</totfact>
</mgrwt>
</event>
<event>
 6    1  0.1198667E-001  0.3000000E+03  0.7818608E-02  0.1093470E+00
         21   -1    0    0  501  502  0.00000000000E+00  0.00000000000E+00  0.32837091610E+01  0.32837091610E+01  0.00000000000E+00 0. -1.
         13   -1    0    0    0    0 -0.00000000000E+00 -0.00000000000E+00 -0.10000000000E+04  0.10000000000E+04  0.00000000000E+00 0.  1.
    9000005    2    1    2  501    0  0.30253190469E+02  0.14839563013E+02 -0.93523235308E+02  0.99462286687E+02  0.32684501675E+01 0.  0.
         13    1    3    3    0    0  0.25740576412E+02  0.12653438039E+02 -0.75868319507E+02  0.81109115844E+02  0.00000000000E+00 0.  1.
          1    1    3    3  501    0  0.45126140569E+01  0.21861249745E+01 -0.17654915801E+02  0.18353170842E+02  0.00000000000E+00 0.  1.
         -1    1    1    2    0  502 -0.30253190469E+02 -0.14839563013E+02 -0.90319305553E+03  0.90382142247E+03  0.00000000000E+00 0. -1.
<mgrwt>
<rscale>  1 0.30000000E+03</rscale>
<asrwt>0</asrwt>
<pdfrwt beam="1">  1       21 0.11940786E-01 0.30000000E+03</pdfrwt>
<pdfrwt beam="2">0</pdfrwt>
<totfact> 0.62529917E+03</totfact>
</mgrwt>
</event>
<event>
 6    1  0.1198667E-001  0.3000000E+03  0.7818608E-02  0.1093470E+00
         21   -1    0    0  501  502  0.00000000000E+00  0.00000000000E+00  0.25979472784E+01  0.25979472784E+01  0.00000000000E+00 0. -1.
         13   -1    0    0    0    0 -0.00000000000E+00 -0.00000000000E+00 -0.10000000000E+04  0.10000000000E+04  0.00000000000E+00 0.  1.
    9000005    2    1    2  501    0  0.34462044755E+02 -0.33908711633E+02 -0.65652168727E+03  0.65830612803E+03  0.29663256989E+01 0.  0.
         13    1    3    3    0    0  0.32647132882E+02 -0.32950793907E+02 -0.62929655127E+03  0.63100375558E+03  0.00000000000E+00 0.  1.
          3    1    3    3  501    0  0.18149118739E+01 -0.95791772581E+00 -0.27225135994E+02  0.27302372450E+02  0.00000000000E+00 0.  1.
         -1    1    1    2    0  502 -0.34462044755E+02  0.33908711633E+02 -0.34088036545E+03  0.34429181925E+03  0.00000000000E+00 0. -1.
<mgrwt>
<rscale>  1 0.30000000E+03</rscale>
<asrwt>0</asrwt>
<pdfrwt beam="1">  1       21 0.94471009E-02 0.30000000E+03</pdfrwt>
<pdfrwt beam="2">0</pdfrwt>
<totfact> 0.95219394E+03</totfact>
</mgrwt>
</event>
<event>
 6    1  0.1198667E-001  0.3000000E+03  0.7818608E-02  0.1093470E+00
         21   -1    0    0  501  502  0.00000000000E+00  0.00000000000E+00  0.17069977300E+01  0.17069977300E+01  0.00000000000E+00 0. -1.
         13   -1    0    0    0    0 -0.00000000000E+00 -0.00000000000E+00 -0.10000000000E+04  0.10000000000E+04  0.00000000000E+00 0.  1.
    9000005    2    1    2  501    0 -0.37546573978E+02  0.15372528667E+02 -0.41564692709E+03  0.41765005806E+03  0.48107319877E+01 0.  0.
         13    1    3    3    0    0 -0.22119996486E+02  0.73018211829E+01 -0.21985293451E+03  0.22108352188E+03  0.00000000000E+00 0.  1.
          1    1    3    3  501    0 -0.15426577493E+02  0.80707074844E+01 -0.19579399259E+03  0.19656653618E+03  0.00000000000E+00 0.  1.
         -3    1    1    2    0  502  0.37546573978E+02 -0.15372528667E+02 -0.58264607518E+03  0.58405693967E+03  0.00000000000E+00 0. -1.
<mgrwt>
<rscale>  1 0.30000000E+03</rscale>
<asrwt>0</asrwt>
<pdfrwt beam="1">  1       21 0.62072776E-02 0.30000000E+03</pdfrwt>
<pdfrwt beam="2">0</pdfrwt>
<totfact> 0.19872037E+04</totfact>
</mgrwt>
</event>
<event>
 6    1  0.1198667E-001  0.3000000E+03  0.7818608E-02  0.1093470E+00
         21   -1    0    0  501  502  0.00000000000E+00  0.00000000000E+00  0.28454316138E+01  0.28454316138E+01  0.00000000000E+00 0. -1.
         13   -1    0    0    0    0 -0.00000000000E+00 -0.00000000000E+00 -0.10000000000E+04  0.10000000000E+04  0.00000000000E+00 0.  1.
    9000005    2    1    2  501    0 -0.34287198218E+02  0.23279215041E+02 -0.81390138248E+03  0.81496444812E+03  0.37493304209E+01 0.  0.
         13    1    3    3    0    0 -0.61769849774E+01  0.25553410449E+01 -0.13498393681E+03  0.13514935482E+03  0.00000000000E+00 0.  1.
          1    1    3    3  501    0 -0.28110213241E+02  0.20723873996E+02 -0.67891744567E+03  0.67981509330E+03  0.00000000000E+00 0.  1.
         -3    1    1    2    0  502  0.34287198218E+02 -0.23279215041E+02 -0.18325318590E+03  0.18788098349E+03  0.00000000000E+00 0. -1.
<mgrwt>
<rscale>  1 0.30000000E+03</rscale>
<asrwt>0</asrwt>
<pdfrwt beam="1">  1       21 0.10347046E-01 0.30000000E+03</pdfrwt>
<pdfrwt beam="2">0</pdfrwt>
<totfact> 0.80938906E+03</totfact>
</mgrwt>
</event>
<event>
 6    1  0.1198667E-001  0.3000000E+03  0.7818608E-02  0.1093470E+00
         21   -1    0    0  501  502  0.00000000000E+00  0.00000000000E+00  0.56012305046E+01  0.56012305046E+01  0.00000000000E+00 0. -1.
         13   -1    0    0    0    0 -0.00000000000E+00 -0.00000000000E+00 -0.10000000000E+04  0.10000000000E+04  0.00000000000E+00 0.  1.
    9000005    2    1    2  501    0 -0.30689219501E+02 -0.28725617465E+01 -0.95535622545E+03  0.95585788874E+03  0.29506186967E+01 0.  0.
         13    1    3    3    0    0 -0.26366857797E+02 -0.33455801079E+01 -0.83663958975E+03  0.83706165080E+03  0.00000000000E+00 0.  1.
          3    1    3    3  501    0 -0.43223617036E+01  0.47301836144E+00 -0.11871663570E+03  0.11879623794E+03  0.00000000000E+00 0.  1.
         -1    1    1    2    0  502  0.30689219501E+02  0.28725617465E+01 -0.39042544042E+02  0.49743341764E+02  0.00000000000E+00 0. -1.
<mgrwt>
<rscale>  1 0.30000000E+03</rscale>
<asrwt>0</asrwt>
<pdfrwt beam="1">  1       21 0.20368154E-01 0.30000000E+03</pdfrwt>
<pdfrwt beam="2">0</pdfrwt>
<totfact> 0.23170480E+03</totfact>
</mgrwt>
</event>
<event>
 6    1  0.1198667E-001  0.3000000E+03  0.7818608E-02  0.1093470E+00
         21   -1    0    0  501  502  0.00000000000E+00  0.00000000000E+00  0.17516388235E+01  0.17516388235E+01  0.00000000000E+00 0. -1.
         13   -1    0    0    0    0 -0.00000000000E+00 -0.00000000000E+00 -0.10000000000E+04  0.10000000000E+04  0.00000000000E+00 0.  1.
    9000005    2    1    2  501    0 -0.12530261912E+02 -0.33159839491E+02 -0.76484266671E+03  0.76566944841E+03  0.29693429621E+01 0.  0.
         13    1    3    3    0    0 -0.12765680302E+01 -0.47287937108E+01 -0.87549417535E+02  0.87686325198E+02  0.00000000000E+00 0.  1.
          3    1    3    3  501    0 -0.11253693881E+02 -0.28431045781E+02 -0.67729324917E+03  0.67798312321E+03  0.00000000000E+00 0.  1.
         -3    1    1    2    0  502  0.12530261912E+02  0.33159839491E+02 -0.23340569447E+03  0.23608219041E+03  0.00000000000E+00 0. -1.
<mgrwt>
<rscale>  1 0.30000000E+03</rscale>
<asrwt>0</asrwt>
<pdfrwt beam="1">  1       21 0.63696092E-02 0.30000000E+03</pdfrwt>
<pdfrwt beam="2">0</pdfrwt>
<totfact> 0.19004900E+04</totfact>
</mgrwt>
</event>
<event>
 6    1  0.1198667E-001  0.3000000E+03  0.7818608E-02  0.1093470E+00
         21   -1    0    0  501  502  0.00000000000E+00  0.00000000000E+00  0.15864953391E+01  0.15864953391E+01  0.00000000000E+00 0. -1.
         13   -1    0    0    0    0 -0.00000000000E+00 -0.00000000000E+00 -0.10000000000E+04  0.10000000000E+04  0.00000000000E+00 0.  1.
    9000005    2    1    2  501    0 -0.28627130903E+02  0.14720110120E+02 -0.79400731418E+03  0.79466118279E+03  0.16081665589E+01 0.  0.
         13    1    3    3    0    0 -0.27143972414E+02  0.14109120881E+02 -0.76168592889E+03  0.76230001758E+03  0.00000000000E+00 0.  1.
          1    1    3    3  501    0 -0.14831584896E+01  0.61098923883E+00 -0.32321385287E+02  0.32361165212E+02  0.00000000000E+00 0.  1.
         -1    1    1    2    0  502  0.28627130903E+02 -0.14720110120E+02 -0.20440619048E+03  0.20692531255E+03  0.00000000000E+00 0. -1.
<mgrwt>
<rscale>  1 0.30000000E+03</rscale>
<asrwt>0</asrwt>
<pdfrwt beam="1">  1       21 0.57690861E-02 0.30000000E+03</pdfrwt>
<pdfrwt beam="2">0</pdfrwt>
<totfact> 0.22546076E+04</totfact>
</mgrwt>
</event>
<event>
 6    1  0.1198667E-001  0.3000000E+03  0.7818608E-02  0.1093470E+00
         21   -1    0    0  501  502  0.00000000000E+00  0.00000000000E+00  0.33998168626E+01  0.33998168626E+01  0.00000000000E+00 0. -1.
         13   -1    0    0    0    0 -0.00000000000E+00 -0.00000000000E+00 -0.10000000000E+04  0.10000000000E+04  0.00000000000E+00 0.  1.
    9000005    2    1    2  501    0 -0.12416335729E+02  0.30702993046E+02 -0.91114904977E+03  0.91175520235E+03  0.28493764344E+01 0.  0.
         13    1    3    3    0    0 -0.76518671844E+01  0.19827484382E+02 -0.54736501936E+03  0.54777745903E+03  0.00000000000E+00 0.  1.
          1    1    3    3  501    0 -0.47644685446E+01  0.10875508664E+02 -0.36378403041E+03  0.36397774332E+03  0.00000000000E+00 0.  1.
         -1    1    1    2    0  502  0.12416335729E+02 -0.30702993046E+02 -0.85451133372E+02  0.91644614514E+02  0.00000000000E+00 0. -1.
<mgrwt>
<rscale>  1 0.30000000E+03</rscale>
<asrwt>0</asrwt>
<pdfrwt beam="1">  1       21 0.12362996E-01 0.30000000E+03</pdfrwt>
<pdfrwt beam="2">0</pdfrwt>
<totfact> 0.58703155E+03</totfact>
</mgrwt>
</event>
<event>
 6    1  0.1198667E-001  0.3000000E+03  0.7818608E-02  0.1093470E+00
         21   -1    0    0  501  502  0.00000000000E+00  0.00000000000E+00  0.19440393887E+01  0.19440393887E+01  0.00000000000E+00 0. -1.
         13   -1    0    0    0    0 -0.00000000000E+00 -0.00000000000E+00 -0.10000000000E+04  0.10000000000E+04  0.00000000000E+00 0.  1.
    9000005    2    1    2  501    0 -0.30898852226E+02  0.27876250052E+01 -0.85469633952E+03  0.85526585123E+03  0.33665366643E+01 0.  0.
         13    1    3    3    0    0 -0.23697460988E+02  0.98041308934E+00 -0.67336451335E+03  0.67378208548E+03  0.00000000000E+00 0.  1.
          1    1    3    3  501    0 -0.72013912386E+01  0.18072119158E+01 -0.18133182617E+03  0.18148376576E+03  0.00000000000E+00 0.  1.
         -3    1    1    2    0  502  0.30898852226E+02 -0.27876250052E+01 -0.14335962109E+03  0.14667818816E+03  0.00000000000E+00 0. -1.
<mgrwt>
<rscale>  1 0.30000000E+03</rscale>
<asrwt>0</asrwt>
<pdfrwt beam="1">  1       21 0.70692490E-02 0.30000000E+03</pdfrwt>
<pdfrwt beam="2">0</pdfrwt>
<totfact> 0.15861102E+04</totfact>
</mgrwt>
</event>
<event>
 6    1  0.1198667E-001  0.3000000E+03  0.7818608E-02  0.1093470E+00
         21   -1    0    0  501  502  0.00000000000E+00  0.00000000000E+00  0.11492458329E+01  0.11492458329E+01  0.00000000000E+00 0. -1.
         13   -1    0    0    0    0 -0.00000000000E+00 -0.00000000000E+00 -0.10000000000E+04  0.10000000000E+04  0.00000000000E+00 0.  1.
    9000005    2    1    2  501    0  0.23621659309E+02  0.18869987288E+02 -0.72433674646E+03  0.72497538820E+03  0.33958834454E+01 0.  0.
         13    1    3    3    0    0  0.15300435294E+01  0.23010042677E+01 -0.55333192008E+02  0.55402146092E+02  0.00000000000E+00 0.  1.
          1    1    3    3  501    0  0.22091615779E+02  0.16568983021E+02 -0.66900355445E+03  0.66957324211E+03  0.00000000000E+00 0.  1.
         -1    1    1    2    0  502 -0.23621659309E+02 -0.18869987288E+02 -0.27451400771E+03  0.27617385763E+03  0.00000000000E+00 0. -1.
<mgrwt>
<rscale>  1 0.30000000E+03</rscale>
<asrwt>0</asrwt>
<pdfrwt beam="1">  1       21 0.41790846E-02 0.30000000E+03</pdfrwt>
<pdfrwt beam="2">0</pdfrwt>
<totfact> 0.39054259E+04</totfact>
</mgrwt>
</event>
<event>
 6    1  0.1198667E-001  0.3000000E+03  0.7818608E-02  0.1093470E+00
         21   -1    0    0  501  502  0.00000000000E+00  0.00000000000E+00  0.18777965760E+01  0.18777965760E+01  0.00000000000E+00 0. -1.
         13   -1    0    0    0    0 -0.00000000000E+00 -0.00000000000E+00 -0.10000000000E+04  0.10000000000E+04  0.00000000000E+00 0.  1.
    9000005    2    1    2  501    0 -0.34415724805E+01 -0.32382673264E+02 -0.82904573456E+03  0.82969378375E+03  0.38030060047E+01 0.  0.
         13    1    3    3    0    0 -0.39347502525E+01 -0.29815653389E+02 -0.74313519789E+03  0.74374348924E+03  0.00000000000E+00 0.  1.
          3    1    3    3  501    0  0.49317777204E+00 -0.25670198749E+01 -0.85910536667E+02  0.85950294507E+02  0.00000000000E+00 0.  1.
         -1    1    1    2    0  502  0.34415724805E+01  0.32382673264E+02 -0.16907646887E+03  0.17218401283E+03  0.00000000000E+00 0. -1.
<mgrwt>
<rscale>  1 0.30000000E+03</rscale>
<asrwt>0</asrwt>
<pdfrwt beam="1">  1       21 0.68283656E-02 0.30000000E+03</pdfrwt>
<pdfrwt beam="2">0</pdfrwt>
<totfact> 0.16846957E+04</totfact>
</mgrwt>
</event>
<event>
 6    1  0.1198667E-001  0.3000000E+03  0.7818608E-02  0.1093470E+00
         21   -1    0    0  501  502  0.00000000000E+00  0.00000000000E+00  0.14507455292E+01  0.14507455292E+01  0.00000000000E+00 0. -1.
         13   -1    0    0    0    0 -0.00000000000E+00 -0.00000000000E+00 -0.10000000000E+04  0.10000000000E+04  0.00000000000E+00 0.  1.
    9000005    2    1    2  501    0 -0.13333982882E+01 -0.34395560402E+02 -0.71157372180E+03  0.71241824065E+03  0.42137305078E+01 0.  0.
         13    1    3    3    0    0 -0.11121480149E+01 -0.11542711483E+02 -0.27964017828E+03  0.27988051087E+03  0.00000000000E+00 0.  1.
          3    1    3    3  501    0 -0.22125027325E+00 -0.22852848919E+02 -0.43193354353E+03  0.43253772978E+03  0.00000000000E+00 0.  1.
         -3    1    1    2    0  502  0.13333982882E+01  0.34395560402E+02 -0.28697553267E+03  0.28903250488E+03  0.00000000000E+00 0. -1.
<mgrwt>
<rscale>  1 0.30000000E+03</rscale>
<asrwt>0</asrwt>
<pdfrwt beam="1">  1       21 0.52754494E-02 0.30000000E+03</pdfrwt>
<pdfrwt beam="2">0</pdfrwt>
<totfact> 0.26284733E+04</totfact>
</mgrwt>
</event>
<event>
 6    1  0.1198667E-001  0.3000000E+03  0.7818608E-02  0.1093470E+00
         21   -1    0    0  501  502  0.00000000000E+00  0.00000000000E+00  0.24615077730E+01  0.24615077730E+01  0.00000000000E+00 0. -1.
         13   -1    0    0    0    0 -0.00000000000E+00 -0.00000000000E+00 -0.10000000000E+04  0.10000000000E+04  0.00000000000E+00 0.  1.
    9000005    2    1    2  501    0  0.33028757881E+02 -0.38027329577E+01 -0.87060251132E+03  0.87124373888E+03  0.34000280996E+01 0.  0.
         13    1    3    3    0    0  0.10770908515E+02 -0.59369298056E+00 -0.32154312639E+03  0.32172402314E+03  0.00000000000E+00 0.  1.
          1    1    3    3  501    0  0.22257849367E+02 -0.32090399771E+01 -0.54905938493E+03  0.54951971573E+03  0.00000000000E+00 0.  1.
         -1    1    1    2    0  502 -0.33028757881E+02  0.38027329577E+01 -0.12693598091E+03  0.13121776889E+03  0.00000000000E+00 0. -1.
<mgrwt>
<rscale>  1 0.30000000E+03</rscale>
<asrwt>0</asrwt>
<pdfrwt beam="1">  1       21 0.89509562E-02 0.30000000E+03</pdfrwt>
<pdfrwt beam="2">0</pdfrwt>
<totfact> 0.10479020E+04</totfact>
</mgrwt>
</event>
<event>
 6    1  0.1198667E-001  0.3000000E+03  0.7818608E-02  0.1093470E+00
         21   -1    0    0  501  502  0.00000000000E+00  0.00000000000E+00  0.12940994936E+01  0.12940994936E+01  0.00000000000E+00 0. -1.
         13   -1    0    0    0    0 -0.00000000000E+00 -0.00000000000E+00 -0.10000000000E+04  0.10000000000E+04  0.00000000000E+00 0.  1.
    9000005    2    1    2  501    0  0.64374623570E+01  0.34708978429E+02 -0.41697679785E+03  0.41849490339E+03  0.47095764536E+01 0.  0.
         13    1    3    3    0    0  0.20059846660E+01  0.87027178993E+01 -0.13088768549E+03  0.13119202524E+03  0.00000000000E+00 0.  1.
          3    1    3    3  501    0  0.44314776910E+01  0.26006260530E+02 -0.28608911236E+03  0.28730287814E+03  0.00000000000E+00 0.  1.
         -1    1    1    2    0  502 -0.64374623570E+01 -0.34708978429E+02 -0.58172910266E+03  0.58279919611E+03  0.00000000000E+00 0. -1.
<mgrwt>
<rscale>  1 0.30000000E+03</rscale>
<asrwt>0</asrwt>
<pdfrwt beam="1">  1       21 0.47058263E-02 0.30000000E+03</pdfrwt>
<pdfrwt beam="2">0</pdfrwt>
<totfact> 0.31936990E+04</totfact>
</mgrwt>
</event>
<event>
 6    1  0.1198667E-001  0.3000000E+03  0.7818608E-02  0.1093470E+00
         21   -1    0    0  501  502  0.00000000000E+00  0.00000000000E+00  0.17847451533E+01  0.17847451533E+01  0.00000000000E+00 0. -1.
         13   -1    0    0    0    0 -0.00000000000E+00 -0.00000000000E+00 -0.10000000000E+04  0.10000000000E+04  0.00000000000E+00 0.  1.
    9000005    2    1    2  501    0  0.35198651070E+02 -0.17010098288E+02 -0.68747369501E+03  0.68859374035E+03  0.36013102456E+01 0.  0.
         13    1    3    3    0    0  0.26935081779E+02 -0.14090480985E+02 -0.51254113642E+03  0.51344177548E+03  0.00000000000E+00 0.  1.
          3    1    3    3  501    0  0.82635692911E+01 -0.29196173037E+01 -0.17493255859E+03  0.17515196487E+03  0.00000000000E+00 0.  1.
         -3    1    1    2    0  502 -0.35198651070E+02  0.17010098288E+02 -0.31074155984E+03  0.31319100481E+03  0.00000000000E+00 0. -1.
<mgrwt>
<rscale>  1 0.30000000E+03</rscale>
<asrwt>0</asrwt>
<pdfrwt beam="1">  1       21 0.64899961E-02 0.30000000E+03</pdfrwt>
<pdfrwt beam="2">0</pdfrwt>
<totfact> 0.18399044E+04</totfact>
</mgrwt>
</event>
<event>
 6    1  0.1198667E-001  0.3000000E+03  0.7818608E-02  0.1093470E+00
         21   -1    0    0  501  502  0.00000000000E+00  0.00000000000E+00  0.95293724059E+00  0.95293724059E+00  0.00000000000E+00 0. -1.
         13   -1    0    0    0    0 -0.00000000000E+00 -0.00000000000E+00 -0.10000000000E+04  0.10000000000E+04  0.00000000000E+00 0.  1.
    9000005    2    1    2  501    0 -0.28018461293E+02 -0.11197498581E+02 -0.59977019608E+03  0.60053760984E+03  0.32733141119E+01 0.  0.
         13    1    3    3    0    0 -0.20591630001E+02 -0.97120748661E+01 -0.44357058487E+03  0.44415448144E+03  0.00000000000E+00 0.  1.
          1    1    3    3  501    0 -0.74268312920E+01 -0.14854237150E+01 -0.15619961121E+03  0.15638312840E+03  0.00000000000E+00 0.  1.
         -3    1    1    2    0  502  0.28018461293E+02  0.11197498581E+02 -0.39927686668E+03  0.40041532740E+03  0.00000000000E+00 0. -1.
<mgrwt>
<rscale>  1 0.30000000E+03</rscale>
<asrwt>0</asrwt>
<pdfrwt beam="1">  1       21 0.34652336E-02 0.30000000E+03</pdfrwt>
<pdfrwt beam="2">0</pdfrwt>
<totfact> 0.53503424E+04</totfact>
</mgrwt>
</event>
<event>
 6    1  0.1198667E-001  0.3000000E+03  0.7818608E-02  0.1093470E+00
         21   -1    0    0  501  502  0.00000000000E+00  0.00000000000E+00  0.71291154155E+01  0.71291154155E+01  0.00000000000E+00 0. -1.
         13   -1    0    0    0    0 -0.00000000000E+00 -0.00000000000E+00 -0.10000000000E+04  0.10000000000E+04  0.00000000000E+00 0.  1.
    9000005    2    1    2  501    0  0.58856699135E+02 -0.25929797153E+02 -0.82230483882E+03  0.82484022003E+03  0.62988266025E+01 0.  0.
         13    1    3    3    0    0  0.90923179117E+01 -0.52173994886E+01 -0.16208088746E+03  0.16241953571E+03  0.00000000000E+00 0.  1.
          1    1    3    3  501    0  0.49764381224E+02 -0.20712397665E+02 -0.66022395137E+03  0.66242068432E+03  0.00000000000E+00 0.  1.
         -1    1    1    2    0  502 -0.58856699135E+02  0.25929797153E+02 -0.17056604576E+03  0.18228889538E+03  0.00000000000E+00 0. -1.
<mgrwt>
<rscale>  1 0.30000000E+03</rscale>
<asrwt>0</asrwt>
<pdfrwt beam="1">  1       21 0.25924111E-01 0.30000000E+03</pdfrwt>
<pdfrwt beam="2">0</pdfrwt>
<totfact> 0.14523462E+03</totfact>
</mgrwt>
</event>
<event>
 6    1  0.1198667E-001  0.3000000E+03  0.7818608E-02  0.1093470E+00
         21   -1    0    0  501  502  0.00000000000E+00  0.00000000000E+00  0.62274456145E+01  0.62274456145E+01  0.00000000000E+00 0. -1.
         13   -1    0    0    0    0 -0.00000000000E+00 -0.00000000000E+00 -0.10000000000E+04  0.10000000000E+04  0.00000000000E+00 0.  1.
    9000005    2    1    2  501    0  0.24608619241E+02 -0.27078636824E+02 -0.94261573157E+03  0.94333183978E+03  0.34213768189E+01 0.  0.
         13    1    3    3    0    0  0.20074025396E+02 -0.21574091152E+02 -0.72290029277E+03  0.72350068500E+03  0.00000000000E+00 0.  1.
          3    1    3    3  501    0  0.45345938451E+01 -0.55045456717E+01 -0.21971543879E+03  0.21983115477E+03  0.00000000000E+00 0.  1.
         -3    1    1    2    0  502 -0.24608619241E+02  0.27078636824E+02 -0.51156822817E+02  0.62895605839E+02  0.00000000000E+00 0. -1.
<mgrwt>
<rscale>  1 0.30000000E+03</rscale>
<asrwt>0</asrwt>
<pdfrwt beam="1">  1       21 0.22645305E-01 0.30000000E+03</pdfrwt>
<pdfrwt beam="2">0</pdfrwt>
<totfact> 0.18902234E+03</totfact>
</mgrwt>
</event>
<event>
 6    1  0.1198667E-001  0.3000000E+03  0.7818608E-02  0.1093470E+00
         21   -1    0    0  501  502  0.00000000000E+00  0.00000000000E+00  0.94628998773E+00  0.94628998773E+00  0.00000000000E+00 0. -1.
         13   -1    0    0    0    0 -0.00000000000E+00 -0.00000000000E+00 -0.10000000000E+04  0.10000000000E+04  0.00000000000E+00 0.  1.
    9000005    2    1    2  501    0 -0.25391579483E+02 -0.17100144665E+02 -0.53120215087E+03  0.53209425721E+03  0.33802664764E+01 0.  0.
         13    1    3    3    0    0 -0.27384596208E+01 -0.20867778376E+01 -0.43845605196E+02  0.43980574096E+02  0.00000000000E+00 0.  1.
          3    1    3    3  501    0 -0.22653119862E+02 -0.15013366827E+02 -0.48735654568E+03  0.48811368311E+03  0.00000000000E+00 0.  1.
         -1    1    1    2    0  502  0.25391579483E+02  0.17100144665E+02 -0.46785155914E+03  0.46885203278E+03  0.00000000000E+00 0. -1.
<mgrwt>
<rscale>  1 0.30000000E+03</rscale>
<asrwt>0</asrwt>
<pdfrwt beam="1">  1       21 0.34410618E-02 0.30000000E+03</pdfrwt>
<pdfrwt beam="2">0</pdfrwt>
<totfact> 0.54133632E+04</totfact>
</mgrwt>
</event>
<event>
 6    1  0.1198667E-001  0.3000000E+03  0.7818608E-02  0.1093470E+00
         21   -1    0    0  501  502  0.00000000000E+00  0.00000000000E+00  0.31406532486E+01  0.31406532486E+01  0.00000000000E+00 0. -1.
         13   -1    0    0    0    0 -0.00000000000E+00 -0.00000000000E+00 -0.10000000000E+04  0.10000000000E+04  0.00000000000E+00 0.  1.
    9000005    2    1    2  501    0 -0.37313296133E+02 -0.39417730602E+02 -0.37527934990E+03  0.37919535754E+03  0.29136167529E+01 0.  0.
         13    1    3    3    0    0 -0.33237976392E+02 -0.34804121306E+02 -0.33861172165E+03  0.34201460199E+03  0.00000000000E+00 0.  1.
          3    1    3    3  501    0 -0.40753197412E+01 -0.46136092965E+01 -0.36667628252E+02  0.37180755551E+02  0.00000000000E+00 0.  1.
         -1    1    1    2    0  502  0.37313296133E+02  0.39417730602E+02 -0.62157999685E+03  0.62394529571E+03  0.00000000000E+00 0. -1.
<mgrwt>
<rscale>  1 0.30000000E+03</rscale>
<asrwt>0</asrwt>
<pdfrwt beam="1">  1       21 0.11420581E-01 0.30000000E+03</pdfrwt>
<pdfrwt beam="2">0</pdfrwt>
<totfact> 0.67778506E+03</totfact>
</mgrwt>
</event>
<event>
 6    1  0.1198667E-001  0.3000000E+03  0.7818608E-02  0.1093470E+00
         21   -1    0    0  501  502  0.00000000000E+00  0.00000000000E+00  0.41965697615E+01  0.41965697615E+01  0.00000000000E+00 0. -1.
         13   -1    0    0    0    0 -0.00000000000E+00 -0.00000000000E+00 -0.10000000000E+04  0.10000000000E+04  0.00000000000E+00 0.  1.
    9000005    2    1    2  501    0 -0.55849796493E+02 -0.17766954278E+02 -0.70979284237E+03  0.71224294193E+03  0.70188897131E+01 0.  0.
         13    1    3    3    0    0 -0.29524545413E+02 -0.13050764919E+02 -0.38541934233E+03  0.38676878194E+03  0.00000000000E+00 0.  1.
          3    1    3    3  501    0 -0.26325251081E+02 -0.47161893586E+01 -0.32437350004E+03  0.32547415998E+03  0.00000000000E+00 0.  1.
         -1    1    1    2    0  502  0.55849796493E+02  0.17766954278E+02 -0.28601058787E+03  0.29195362783E+03  0.00000000000E+00 0. -1.
<mgrwt>
<rscale>  1 0.30000000E+03</rscale>
<asrwt>0</asrwt>
<pdfrwt beam="1">  1       21 0.15260286E-01 0.30000000E+03</pdfrwt>
<pdfrwt beam="2">0</pdfrwt>
<totfact> 0.39888422E+03</totfact>
</mgrwt>
</event>
<event>
 6    1  0.1198667E-001  0.3000000E+03  0.7818608E-02  0.1093470E+00
         21   -1    0    0  501  502  0.00000000000E+00  0.00000000000E+00  0.10100260768E+02  0.10100260768E+02  0.00000000000E+00 0. -1.
         13   -1    0    0    0    0 -0.00000000000E+00 -0.00000000000E+00 -0.10000000000E+04  0.10000000000E+04  0.00000000000E+00 0.  1.
    9000005    2    1    2  501    0  0.96233888642E+02  0.97209680315E+01 -0.63161692589E+03  0.63899106811E+03  0.37663649359E+01 0.  0.
         13    1    3    3    0    0  0.10844867365E+01  0.16820599162E+00 -0.49779516845E+01  0.50974903346E+01  0.00000000000E+00 0.  1.
          3    1    3    3  501    0  0.95149401906E+02  0.95527620399E+01 -0.62663897421E+03  0.63389357777E+03  0.00000000000E+00 0.  1.
         -1    1    1    2    0  502 -0.96233888642E+02 -0.97209680315E+01 -0.35828281334E+03  0.37110919266E+03  0.00000000000E+00 0. -1.
<mgrwt>
<rscale>  1 0.30000000E+03</rscale>
<asrwt>0</asrwt>
<pdfrwt beam="1">  1       21 0.36728298E-01 0.30000000E+03</pdfrwt>
<pdfrwt beam="2">0</pdfrwt>
<totfact> 0.72086100E+02</totfact>
</mgrwt>
</event>
<event>
 6    1  0.1198667E-001  0.3000000E+03  0.7818608E-02  0.1093470E+00
         21   -1    0    0  501  502  0.00000000000E+00  0.00000000000E+00  0.28651026486E+01  0.28651026486E+01  0.00000000000E+00 0. -1.
         13   -1    0    0    0    0 -0.00000000000E+00 -0.00000000000E+00 -0.10000000000E+04  0.10000000000E+04  0.00000000000E+00 0.  1.
    9000005    2    1    2  501    0 -0.38094026319E+02 -0.34386153126E+02 -0.64010834386E+03  0.64216921653E+03  0.30080568568E+01 0.  0.
         13    1    3    3    0    0 -0.22867218283E+02 -0.22597358924E+02 -0.40164857880E+03  0.40293315966E+03  0.00000000000E+00 0.  1.
          3    1    3    3  501    0 -0.15226808036E+02 -0.11788794202E+02 -0.23845976506E+03  0.23923605687E+03  0.00000000000E+00 0.  1.
         -1    1    1    2    0  502  0.38094026319E+02  0.34386153126E+02 -0.35702655349E+03  0.36069588612E+03  0.00000000000E+00 0. -1.
<mgrwt>
<rscale>  1 0.30000000E+03</rscale>
<asrwt>0</asrwt>
<pdfrwt beam="1">  1       21 0.10418577E-01 0.30000000E+03</pdfrwt>
<pdfrwt beam="2">0</pdfrwt>
<totfact> 0.79946262E+03</totfact>
</mgrwt>
</event>
<event>
 6    1  0.1198667E-001  0.3000000E+03  0.7818608E-02  0.1093470E+00
         21   -1    0    0  501  502  0.00000000000E+00  0.00000000000E+00  0.37862993284E+01  0.37862993284E+01  0.00000000000E+00 0. -1.
         13   -1    0    0    0    0 -0.00000000000E+00 -0.00000000000E+00 -0.10000000000E+04  0.10000000000E+04  0.00000000000E+00 0.  1.
    9000005    2    1    2  501    0 -0.32663289027E+02 -0.27392206122E+01 -0.92280722473E+03  0.92339410761E+03  0.30183057230E+01 0.  0.
         13    1    3    3    0    0 -0.21034097399E+02 -0.61126349487E+00 -0.61520186374E+03  0.61556164601E+03  0.00000000000E+00 0.  1.
          1    1    3    3  501    0 -0.11629191627E+02 -0.21279571174E+01 -0.30760536100E+03  0.30783246160E+03  0.00000000000E+00 0.  1.
         -1    1    1    2    0  502  0.32663289027E+02  0.27392206122E+01 -0.73406475938E+02  0.80392191718E+02  0.00000000000E+00 0. -1.
<mgrwt>
<rscale>  1 0.30000000E+03</rscale>
<asrwt>0</asrwt>
<pdfrwt beam="1">  1       21 0.13768390E-01 0.30000000E+03</pdfrwt>
<pdfrwt beam="2">0</pdfrwt>
<totfact> 0.48221245E+03</totfact>
</mgrwt>
</event>
<event>
 6    1  0.1198667E-001  0.3000000E+03  0.7818608E-02  0.1093470E+00
         21   -1    0    0  501  502  0.00000000000E+00  0.00000000000E+00  0.16132485845E+01  0.16132485845E+01  0.00000000000E+00 0. -1.
         13   -1    0    0    0    0 -0.00000000000E+00 -0.00000000000E+00 -0.10000000000E+04  0.10000000000E+04  0.00000000000E+00 0.  1.
    9000005    2    1    2  501    0  0.35554523000E+02  0.14197977850E+02 -0.64900507440E+03  0.65014025827E+03  0.30103415530E+01 0.  0.
         13    1    3    3    0    0  0.32378395020E+02  0.12408440065E+02 -0.57358559470E+03  0.57463272121E+03  0.00000000000E+00 0.  1.
          3    1    3    3  501    0  0.31761279804E+01  0.17895377846E+01 -0.75419479700E+02  0.75507537059E+02  0.00000000000E+00 0.  1.
         -3    1    1    2    0  502 -0.35554523000E+02 -0.14197977850E+02 -0.34938167702E+03  0.35147299031E+03  0.00000000000E+00 0. -1.
<mgrwt>
<rscale>  1 0.30000000E+03</rscale>
<asrwt>0</asrwt>
<pdfrwt beam="1">  1       21 0.58663709E-02 0.30000000E+03</pdfrwt>
<pdfrwt beam="2">0</pdfrwt>
<totfact> 0.21905927E+04</totfact>
</mgrwt>
</event>
<event>
 6    1  0.1198667E-001  0.3000000E+03  0.7818608E-02  0.1093470E+00
         21   -1    0    0  501  502  0.00000000000E+00  0.00000000000E+00  0.14877092875E+01  0.14877092875E+01  0.00000000000E+00 0. -1.
         13   -1    0    0    0    0 -0.00000000000E+00 -0.00000000000E+00 -0.10000000000E+04  0.10000000000E+04  0.00000000000E+00 0.  1.
    9000005    2    1    2  501    0  0.16537638435E+02  0.33902603374E+02 -0.59864300595E+03  0.59984318375E+03  0.39391006413E+01 0.  0.
         13    1    3    3    0    0  0.65798208892E+01  0.15790531641E+02 -0.24472802972E+03  0.24532517902E+03  0.00000000000E+00 0.  1.
          1    1    3    3  501    0  0.99578175455E+01  0.18112071733E+02 -0.35391497623E+03  0.35451800472E+03  0.00000000000E+00 0.  1.
         -3    1    1    2    0  502 -0.16537638435E+02 -0.33902603374E+02 -0.39986928476E+03  0.40164452554E+03  0.00000000000E+00 0. -1.
<mgrwt>
<rscale>  1 0.30000000E+03</rscale>
<asrwt>0</asrwt>
<pdfrwt beam="1">  1       21 0.54098634E-02 0.30000000E+03</pdfrwt>
<pdfrwt beam="2">0</pdfrwt>
<totfact> 0.25177085E+04</totfact>
</mgrwt>
</event>
<event>
 6    1  0.1198667E-001  0.3000000E+03  0.7818608E-02  0.1093470E+00
         21   -1    0    0  501  502  0.00000000000E+00  0.00000000000E+00  0.10953621781E+01  0.10953621781E+01  0.00000000000E+00 0. -1.
         13   -1    0    0    0    0 -0.00000000000E+00 -0.00000000000E+00 -0.10000000000E+04  0.10000000000E+04  0.00000000000E+00 0.  1.
    9000005    2    1    2  501    0  0.31379103594E+02  0.52402289274E+01 -0.63446978451E+03  0.63527454477E+03  0.31195565887E+01 0.  0.
         13    1    3    3    0    0  0.11480263447E+02  0.34204388079E+01 -0.23218792838E+03  0.23249673102E+03  0.00000000000E+00 0.  1.
          3    1    3    3  501    0  0.19898840147E+02  0.18197901195E+01 -0.40228185613E+03  0.40277781375E+03  0.00000000000E+00 0.  1.
         -1    1    1    2    0  502 -0.31379103594E+02 -0.52402289274E+01 -0.36443485331E+03  0.36582081741E+03  0.00000000000E+00 0. -1.
<mgrwt>
<rscale>  1 0.30000000E+03</rscale>
<asrwt>0</asrwt>
<pdfrwt beam="1">  1       21 0.39831436E-02 0.30000000E+03</pdfrwt>
<pdfrwt beam="2">0</pdfrwt>
<totfact> 0.42347384E+04</totfact>
</mgrwt>
</event>
<event>
 6    1  0.1198667E-001  0.3000000E+03  0.7818608E-02  0.1093470E+00
         21   -1    0    0  501  502  0.00000000000E+00  0.00000000000E+00  0.10219408716E+01  0.10219408716E+01  0.00000000000E+00 0. -1.
         13   -1    0    0    0    0 -0.00000000000E+00 -0.00000000000E+00 -0.10000000000E+04  0.10000000000E+04  0.00000000000E+00 0.  1.
    9000005    2    1    2  501    0 -0.28743535760E+02 -0.13077442877E+02 -0.57058345219E+03  0.57146501843E+03  0.30953223627E+01 0.  0.
         13    1    3    3    0    0 -0.95160322648E+00 -0.67652445547E+00 -0.13273857896E+02  0.13325109286E+02  0.00000000000E+00 0.  1.
          1    1    3    3  501    0 -0.27791932534E+02 -0.12400918421E+02 -0.55730959429E+03  0.55813990915E+03  0.00000000000E+00 0.  1.
         -1    1    1    2    0  502  0.28743535760E+02  0.13077442877E+02 -0.42839460694E+03  0.42955692244E+03  0.00000000000E+00 0. -1.
<mgrwt>
<rscale>  1 0.30000000E+03</rscale>
<asrwt>0</asrwt>
<pdfrwt beam="1">  1       21 0.37161565E-02 0.30000000E+03</pdfrwt>
<pdfrwt beam="2">0</pdfrwt>
<totfact> 0.47586128E+04</totfact>
</mgrwt>
</event>
<event>
 6    1  0.1198667E-001  0.3000000E+03  0.7818608E-02  0.1093470E+00
         21   -1    0    0  501  502  0.00000000000E+00  0.00000000000E+00  0.30290285113E+01  0.30290285113E+01  0.00000000000E+00 0. -1.
         13   -1    0    0    0    0 -0.00000000000E+00 -0.00000000000E+00 -0.10000000000E+04  0.10000000000E+04  0.00000000000E+00 0.  1.
    9000005    2    1    2  501    0 -0.17020866824E+02 -0.51059907521E+02 -0.60043843780E+03  0.60286047110E+03  0.41959467377E+01 0.  0.
         13    1    3    3    0    0 -0.13816592291E+02 -0.43844188906E+02 -0.52575848219E+03  0.52776433445E+03  0.00000000000E+00 0.  1.
          1    1    3    3  501    0 -0.32042745325E+01 -0.72157186153E+01 -0.74679955606E+02  0.75096136650E+02  0.00000000000E+00 0.  1.
         -1    1    1    2    0  502  0.17020866824E+02  0.51059907521E+02 -0.39653253369E+03  0.40016855741E+03  0.00000000000E+00 0. -1.
<mgrwt>
<rscale>  1 0.30000000E+03</rscale>
<asrwt>0</asrwt>
<pdfrwt beam="1">  1       21 0.11014672E-01 0.30000000E+03</pdfrwt>
<pdfrwt beam="2">0</pdfrwt>
<totfact> 0.72346510E+03</totfact>
</mgrwt>
</event>
<event>
 6    1  0.1198667E-001  0.3000000E+03  0.7818608E-02  0.1093470E+00
         21   -1    0    0  501  502  0.00000000000E+00  0.00000000000E+00  0.10595349889E+01  0.10595349889E+01  0.00000000000E+00 0. -1.
         13   -1    0    0    0    0 -0.00000000000E+00 -0.00000000000E+00 -0.10000000000E+04  0.10000000000E+04  0.00000000000E+00 0.  1.
    9000005    2    1    2  501    0  0.30258253223E+02  0.11263313142E+02 -0.45114206806E+03  0.45231049598E+03  0.36325045155E+01 0.  0.
         13    1    3    3    0    0  0.18685463489E+02  0.51359806578E+01 -0.26198962932E+03  0.26270533057E+03  0.00000000000E+00 0.  1.
          1    1    3    3  501    0  0.11572789734E+02  0.61273324839E+01 -0.18915243875E+03  0.18960516541E+03  0.00000000000E+00 0.  1.
         -3    1    1    2    0  502 -0.30258253223E+02 -0.11263313142E+02 -0.54779839695E+03  0.54874903901E+03  0.00000000000E+00 0. -1.
<mgrwt>
<rscale>  1 0.30000000E+03</rscale>
<asrwt>0</asrwt>
<pdfrwt beam="1">  1       21 0.38528626E-02 0.30000000E+03</pdfrwt>
<pdfrwt beam="2">0</pdfrwt>
<totfact> 0.44784106E+04</totfact>
</mgrwt>
</event>
<event>
 6    1  0.1198667E-001  0.3000000E+03  0.7818608E-02  0.1093470E+00
         21   -1    0    0  501  502  0.00000000000E+00  0.00000000000E+00  0.12990153228E+01  0.12990153228E+01  0.00000000000E+00 0. -1.
         13   -1    0    0    0    0 -0.00000000000E+00 -0.00000000000E+00 -0.10000000000E+04  0.10000000000E+04  0.00000000000E+00 0.  1.
    9000005    2    1    2  501    0 -0.34959565495E+02 -0.84638349083E+01 -0.51320089393E+03  0.51446829953E+03  0.29438024504E+01 0.  0.
         13    1    3    3    0    0 -0.22191341729E+02 -0.54630445042E+01 -0.34577196495E+03  0.34652640917E+03  0.00000000000E+00 0.  1.
          1    1    3    3  501    0 -0.12768223765E+02 -0.30007904040E+01 -0.16742892897E+03  0.16794189036E+03  0.00000000000E+00 0.  1.
         -3    1    1    2    0  502  0.34959565495E+02  0.84638349083E+01 -0.48550009075E+03  0.48683071579E+03  0.00000000000E+00 0. -1.
<mgrwt>
<rscale>  1 0.30000000E+03</rscale>
<asrwt>0</asrwt>
<pdfrwt beam="1">  1       21 0.47237020E-02 0.30000000E+03</pdfrwt>
<pdfrwt beam="2">0</pdfrwt>
<totfact> 0.31731753E+04</totfact>
</mgrwt>
</event>
<event>
 6    1  0.1198667E-001  0.3000000E+03  0.7818608E-02  0.1093470E+00
         21   -1    0    0  501  502  0.00000000000E+00  0.00000000000E+00  0.19789072471E+01  0.19789072471E+01  0.00000000000E+00 0. -1.
         13   -1    0    0    0    0 -0.00000000000E+00 -0.00000000000E+00 -0.10000000000E+04  0.10000000000E+04  0.00000000000E+00 0.  1.
    9000005    2    1    2  501    0  0.29977635508E+02 -0.15924043617E+01 -0.86802261297E+03  0.86855927178E+03  0.55459521837E+01 0.  0.
         13    1    3    3    0    0  0.24822070421E+02 -0.45187738190E+00 -0.76329995619E+03  0.76370358287E+03  0.00000000000E+00 0.  1.
          1    1    3    3  501    0  0.51555650867E+01 -0.11405269798E+01 -0.10472265678E+03  0.10485568891E+03  0.00000000000E+00 0.  1.
         -3    1    1    2    0  502 -0.29977635508E+02  0.15924043617E+01 -0.12999847978E+03  0.13341963547E+03  0.00000000000E+00 0. -1.
<mgrwt>
<rscale>  1 0.30000000E+03</rscale>
<asrwt>0</asrwt>
<pdfrwt beam="1">  1       21 0.71960415E-02 0.30000000E+03</pdfrwt>
<pdfrwt beam="2">0</pdfrwt>
<totfact> 0.15377159E+04</totfact>
</mgrwt>
</event>
<event>
 6    1  0.1198667E-001  0.3000000E+03  0.7818608E-02  0.1093470E+00
         21   -1    0    0  501  502  0.00000000000E+00  0.00000000000E+00  0.18280358993E+01  0.18280358993E+01  0.00000000000E+00 0. -1.
         13   -1    0    0    0    0 -0.00000000000E+00 -0.00000000000E+00 -0.10000000000E+04  0.10000000000E+04  0.00000000000E+00 0.  1.
    9000005    2    1    2  501    0  0.17564800704E+02  0.33895839921E+02 -0.27544108859E+03  0.27808956891E+03  0.29265788112E+01 0.  0.
         13    1    3    3    0    0  0.58918397954E+01  0.13039345735E+02 -0.94645143985E+02  0.95720643507E+02  0.00000000000E+00 0.  1.
          1    1    3    3  501    0  0.11672960908E+02  0.20856494186E+02 -0.18079594461E+03  0.18236892540E+03  0.00000000000E+00 0.  1.
         -3    1    1    2    0  502 -0.17564800704E+02 -0.33895839921E+02 -0.72273087551E+03  0.72373846699E+03  0.00000000000E+00 0. -1.
<mgrwt>
<rscale>  1 0.30000000E+03</rscale>
<asrwt>0</asrwt>
<pdfrwt beam="1">  1       21 0.66474173E-02 0.30000000E+03</pdfrwt>
<pdfrwt beam="2">0</pdfrwt>
<totfact> 0.17650726E+04</totfact>
</mgrwt>
</event>
<event>
 6    1  0.1198667E-001  0.3000000E+03  0.7818608E-02  0.1093470E+00
         21   -1    0    0  501  502  0.00000000000E+00  0.00000000000E+00  0.65615031408E+01  0.65615031408E+01  0.00000000000E+00 0. -1.
         13   -1    0    0    0    0 -0.00000000000E+00 -0.00000000000E+00 -0.10000000000E+04  0.10000000000E+04  0.00000000000E+00 0.  1.
    9000005    2    1    2  501    0 -0.68783573706E+02 -0.75520653025E+01 -0.75814836818E+03  0.76130723028E+03  0.33966162363E+01 0.  0.
         13    1    3    3    0    0 -0.35689112104E+02 -0.22148871100E+01 -0.39258887942E+03  0.39421396055E+03  0.00000000000E+00 0.  1.
          1    1    3    3  501    0 -0.33094461602E+02 -0.53371781925E+01 -0.36555948876E+03  0.36709326973E+03  0.00000000000E+00 0.  1.
         -3    1    1    2    0  502  0.68783573706E+02  0.75520653025E+01 -0.23529012868E+03  0.24525427286E+03  0.00000000000E+00 0. -1.
<mgrwt>
<rscale>  1 0.30000000E+03</rscale>
<asrwt>0</asrwt>
<pdfrwt beam="1">  1       21 0.23860062E-01 0.30000000E+03</pdfrwt>
<pdfrwt beam="2">0</pdfrwt>
<totfact> 0.17082242E+03</totfact>
</mgrwt>
</event>
<event>
 6    1  0.1198667E-001  0.3000000E+03  0.7818608E-02  0.1093470E+00
         21   -1    0    0  501  502  0.00000000000E+00  0.00000000000E+00  0.27524865958E+01  0.27524865958E+01  0.00000000000E+00 0. -1.
         13   -1    0    0    0    0 -0.00000000000E+00 -0.00000000000E+00 -0.10000000000E+04  0.10000000000E+04  0.00000000000E+00 0.  1.
    9000005    2    1    2  501    0  0.50078875986E+01 -0.30957501424E+02 -0.90029168352E+03  0.90085116776E+03  0.49259720580E+01 0.  0.
         13    1    3    3    0    0  0.25031064480E+01 -0.26550073324E+02 -0.76337983832E+03  0.76384550106E+03  0.00000000000E+00 0.  1.
          1    1    3    3  501    0  0.25047811507E+01 -0.44074280993E+01 -0.13691184520E+03  0.13700566669E+03  0.00000000000E+00 0.  1.
         -1    1    1    2    0  502 -0.50078875986E+01  0.30957501424E+02 -0.96955829885E+02  0.10190131884E+03  0.00000000000E+00 0. -1.
<mgrwt>
<rscale>  1 0.30000000E+03</rscale>
<asrwt>0</asrwt>
<pdfrwt beam="1">  1       21 0.10009063E-01 0.30000000E+03</pdfrwt>
<pdfrwt beam="2">0</pdfrwt>
<totfact> 0.85892823E+03</totfact>
</mgrwt>
</event>
<event>
 6    1  0.1198667E-001  0.3000000E+03  0.7818608E-02  0.1093470E+00
         21   -1    0    0  501  502  0.00000000000E+00  0.00000000000E+00  0.13362641250E+01  0.13362641250E+01  0.00000000000E+00 0. -1.
         13   -1    0    0    0    0 -0.00000000000E+00 -0.00000000000E+00 -0.10000000000E+04  0.10000000000E+04  0.00000000000E+00 0.  1.
    9000005    2    1    2  501    0 -0.35376776460E+02  0.36688551387E+00 -0.62245955850E+03  0.62347222245E+03  0.31716366771E+01 0.  0.
         13    1    3    3    0    0 -0.96371384084E+01 -0.50561171791E+00 -0.19299947232E+03  0.19324059200E+03  0.00000000000E+00 0.  1.
          1    1    3    3  501    0 -0.25739638052E+02  0.87249723178E+00 -0.42946008618E+03  0.43023163045E+03  0.00000000000E+00 0.  1.
         -3    1    1    2    0  502  0.35376776460E+02 -0.36688551387E+00 -0.37620417738E+03  0.37786404168E+03  0.00000000000E+00 0. -1.
<mgrwt>
<rscale>  1 0.30000000E+03</rscale>
<asrwt>0</asrwt>
<pdfrwt beam="1">  1       21 0.48591525E-02 0.30000000E+03</pdfrwt>
<pdfrwt beam="2">0</pdfrwt>
<totfact> 0.30241488E+04</totfact>
</mgrwt>
</event>
<event>
 6    1  0.1198667E-001  0.3000000E+03  0.7818608E-02  0.1093470E+00
         21   -1    0    0  501  502  0.00000000000E+00  0.00000000000E+00  0.32406128285E+01  0.32406128285E+01  0.00000000000E+00 0. -1.
         13   -1    0    0    0    0 -0.00000000000E+00 -0.00000000000E+00 -0.10000000000E+04  0.10000000000E+04  0.00000000000E+00 0.  1.
    9000005    2    1    2  501    0 -0.27438352550E+02  0.13362420755E+02 -0.92177204130E+03  0.92228062567E+03  0.25374975642E+01 0.  0.
         13    1    3    3    0    0 -0.54204035426E+01  0.37828354663E+01 -0.19378190424E+03  0.19389460289E+03  0.00000000000E+00 0.  1.
          3    1    3    3  501    0 -0.22017949007E+02  0.95795852885E+01 -0.72799013706E+03  0.72838602279E+03  0.00000000000E+00 0.  1.
         -1    1    1    2    0  502  0.27438352550E+02 -0.13362420755E+02 -0.74987345873E+02  0.80959987155E+02  0.00000000000E+00 0. -1.
<mgrwt>
<rscale>  1 0.30000000E+03</rscale>
<asrwt>0</asrwt>
<pdfrwt beam="1">  1       21 0.11784071E-01 0.30000000E+03</pdfrwt>
<pdfrwt beam="2">0</pdfrwt>
<totfact> 0.64045311E+03</totfact>
</mgrwt>
</event>
<event>
 6    1  0.1198667E-001  0.3000000E+03  0.7818608E-02  0.1093470E+00
         21   -1    0    0  501  502  0.00000000000E+00  0.00000000000E+00  0.64795138482E+01  0.64795138482E+01  0.00000000000E+00 0. -1.
         13   -1    0    0    0    0 -0.00000000000E+00 -0.00000000000E+00 -0.10000000000E+04  0.10000000000E+04  0.00000000000E+00 0.  1.
    9000005    2    1    2  501    0 -0.40215572947E+02  0.91195972216E+01 -0.92892526339E+03  0.92984399882E+03  0.26940312079E+01 0.  0.
         13    1    3    3    0    0 -0.25114700298E+02  0.53449843272E+01 -0.60625160838E+03  0.60679512991E+03  0.00000000000E+00 0.  1.
          1    1    3    3  501    0 -0.15100872649E+02  0.37746128944E+01 -0.32267365502E+03  0.32304886890E+03  0.00000000000E+00 0.  1.
         -3    1    1    2    0  502  0.40215572947E+02 -0.91195972216E+01 -0.64595222759E+02  0.76635515032E+02  0.00000000000E+00 0. -1.
<mgrwt>
<rscale>  1 0.30000000E+03</rscale>
<asrwt>0</asrwt>
<pdfrwt beam="1">  1       21 0.23561918E-01 0.30000000E+03</pdfrwt>
<pdfrwt beam="2">0</pdfrwt>
<totfact> 0.17504584E+03</totfact>
</mgrwt>
</event>
<event>
 6    1  0.1198667E-001  0.3000000E+03  0.7818608E-02  0.1093470E+00
         21   -1    0    0  501  502  0.00000000000E+00  0.00000000000E+00  0.61263886084E+01  0.61263886084E+01  0.00000000000E+00 0. -1.
         13   -1    0    0    0    0 -0.00000000000E+00 -0.00000000000E+00 -0.10000000000E+04  0.10000000000E+04  0.00000000000E+00 0.  1.
    9000005    2    1    2  501    0  0.30392415080E+02 -0.11105934809E+02 -0.95488043241E+03  0.95545579862E+03  0.72181881888E+01 0.  0.
         13    1    3    3    0    0  0.13956498504E+01  0.80881992299E+00 -0.29034668083E+02  0.29079442547E+02  0.00000000000E+00 0.  1.
          3    1    3    3  501    0  0.28996765230E+02 -0.11914754732E+02 -0.92584576433E+03  0.92637635607E+03  0.00000000000E+00 0.  1.
         -3    1    1    2    0  502 -0.30392415080E+02  0.11105934809E+02 -0.38993178983E+02  0.50670589986E+02  0.00000000000E+00 0. -1.
<mgrwt>
<rscale>  1 0.30000000E+03</rscale>
<asrwt>0</asrwt>
<pdfrwt beam="1">  1       21 0.22277824E-01 0.30000000E+03</pdfrwt>
<pdfrwt beam="2">0</pdfrwt>
<totfact> 0.19508508E+03</totfact>
</mgrwt>
</event>
<event>
 6    1  0.1198667E-001  0.3000000E+03  0.7818608E-02  0.1093470E+00
         21   -1    0    0  501  502  0.00000000000E+00  0.00000000000E+00  0.12133393874E+01  0.12133393874E+01  0.00000000000E+00 0. -1.
         13   -1    0    0    0    0 -0.00000000000E+00 -0.00000000000E+00 -0.10000000000E+04  0.10000000000E+04  0.00000000000E+00 0.  1.
    9000005    2    1    2  501    0 -0.25881057120E+02  0.23122907808E+02 -0.51392162673E+03  0.51510779625E+03  0.40131480961E+01 0.  0.
         13    1    3    3    0    0 -0.24928536748E+02  0.23096231716E+02 -0.50049203400E+03  0.50164443978E+03  0.00000000000E+00 0.  1.
          1    1    3    3  501    0 -0.95252037252E+00  0.26676091464E-01 -0.13429592729E+02  0.13463356474E+02  0.00000000000E+00 0.  1.
         -1    1    1    2    0  502  0.25881057120E+02 -0.23122907808E+02 -0.48486503388E+03  0.48610554313E+03  0.00000000000E+00 0. -1.
<mgrwt>
<rscale>  1 0.30000000E+03</rscale>
<asrwt>0</asrwt>
<pdfrwt beam="1">  1       21 0.44121525E-02 0.30000000E+03</pdfrwt>
<pdfrwt beam="2">0</pdfrwt>
<totfact> 0.35629530E+04</totfact>
</mgrwt>
</event>
<event>
 6    1  0.1198667E-001  0.3000000E+03  0.7818608E-02  0.1093470E+00
         21   -1    0    0  501  502  0.00000000000E+00  0.00000000000E+00  0.29807087801E+01  0.29807087801E+01  0.00000000000E+00 0. -1.
         13   -1    0    0    0    0 -0.00000000000E+00 -0.00000000000E+00 -0.10000000000E+04  0.10000000000E+04  0.00000000000E+00 0.  1.
    9000005    2    1    2  501    0 -0.39048655300E+02 -0.35034305197E+02 -0.36179282726E+03  0.36559161212E+03  0.33131521413E+01 0.  0.
         13    1    3    3    0    0 -0.31991697354E+02 -0.30305135761E+02 -0.30500871646E+03  0.30817557831E+03  0.00000000000E+00 0.  1.
          3    1    3    3  501    0 -0.70569579468E+01 -0.47291694352E+01 -0.56784110804E+02  0.57416033813E+02  0.00000000000E+00 0.  1.
         -1    1    1    2    0  502  0.39048655300E+02  0.35034305197E+02 -0.63522646396E+03  0.63738909666E+03  0.00000000000E+00 0. -1.
<mgrwt>
<rscale>  1 0.30000000E+03</rscale>
<asrwt>0</asrwt>
<pdfrwt beam="1">  1       21 0.10838964E-01 0.30000000E+03</pdfrwt>
<pdfrwt beam="2">0</pdfrwt>
<totfact> 0.74468963E+03</totfact>
</mgrwt>
</event>
<event>
 6    1  0.1198667E-001  0.3000000E+03  0.7818608E-02  0.1093470E+00
         21   -1    0    0  501  502  0.00000000000E+00  0.00000000000E+00  0.21003325766E+02  0.21003325766E+02  0.00000000000E+00 0. -1.
         13   -1    0    0    0    0 -0.00000000000E+00 -0.00000000000E+00 -0.10000000000E+04  0.10000000000E+04  0.00000000000E+00 0.  1.
    9000005    2    1    2  501    0  0.53006552282E+02 -0.94491926478E+02 -0.82829432946E+03  0.83539724969E+03  0.88684737672E+01 0.  0.
         13    1    3    3    0    0  0.20920574340E+02 -0.34265222438E+02 -0.33831653882E+03  0.34069026452E+03  0.00000000000E+00 0.  1.
          1    1    3    3  501    0  0.32085977943E+02 -0.60226704040E+02 -0.48997779063E+03  0.49470698517E+03  0.00000000000E+00 0.  1.
         -1    1    1    2    0  502 -0.53006552282E+02  0.94491926478E+02 -0.15070234478E+03  0.18560607608E+03  0.00000000000E+00 0. -1.
<mgrwt>
<rscale>  1 0.30000000E+03</rscale>
<asrwt>0</asrwt>
<pdfrwt beam="1">  1       21 0.76375891E-01 0.30000000E+03</pdfrwt>
<pdfrwt beam="2">0</pdfrwt>
<totfact> 0.14374973E+02</totfact>
</mgrwt>
</event>
<event>
 6    1  0.1198667E-001  0.3000000E+03  0.7818608E-02  0.1093470E+00
         21   -1    0    0  501  502  0.00000000000E+00  0.00000000000E+00  0.33017739587E+01  0.33017739587E+01  0.00000000000E+00 0. -1.
         13   -1    0    0    0    0 -0.00000000000E+00 -0.00000000000E+00 -0.10000000000E+04  0.10000000000E+04  0.00000000000E+00 0.  1.
    9000005    2    1    2  501    0 -0.33190317993E+02 -0.31380650493E+02 -0.80219803725E+03  0.80351021790E+03  0.45427813606E+01 0.  0.
         13    1    3    3    0    0 -0.66841366450E+01 -0.56910610713E+01 -0.12601273429E+03  0.12631815016E+03  0.00000000000E+00 0.  1.
          1    1    3    3  501    0 -0.26506181348E+02 -0.25689589422E+02 -0.67618530297E+03  0.67719206773E+03  0.00000000000E+00 0.  1.
         -1    1    1    2    0  502  0.33190317993E+02  0.31380650493E+02 -0.19450018879E+03  0.19979155606E+03  0.00000000000E+00 0. -1.
<mgrwt>
<rscale>  1 0.30000000E+03</rscale>
<asrwt>0</asrwt>
<pdfrwt beam="1">  1       21 0.12006476E-01 0.30000000E+03</pdfrwt>
<pdfrwt beam="2">0</pdfrwt>
<totfact> 0.61910544E+03</totfact>
</mgrwt>
</event>
<event>
 6    1  0.1198667E-001  0.3000000E+03  0.7818608E-02  0.1093470E+00
         21   -1    0    0  501  502  0.00000000000E+00  0.00000000000E+00  0.20835083486E+01  0.20835083486E+01  0.00000000000E+00 0. -1.
         13   -1    0    0    0    0 -0.00000000000E+00 -0.00000000000E+00 -0.10000000000E+04  0.10000000000E+04  0.00000000000E+00 0.  1.
    9000005    2    1    2  501    0 -0.44792288990E+02 -0.83894935805E+01 -0.48082075051E+03  0.48298357745E+03  0.27944958302E+01 0.  0.
         13    1    3    3    0    0 -0.73394859662E+01 -0.19418193250E+01 -0.71179172035E+02  0.71582911704E+02  0.00000000000E+00 0.  1.
          3    1    3    3  501    0 -0.37452803024E+02 -0.64476742554E+01 -0.40964157848E+03  0.41140066574E+03  0.00000000000E+00 0.  1.
         -3    1    1    2    0  502  0.44792288990E+02  0.83894935805E+01 -0.51709574114E+03  0.51909993090E+03  0.00000000000E+00 0. -1.
<mgrwt>
<rscale>  1 0.30000000E+03</rscale>
<asrwt>0</asrwt>
<pdfrwt beam="1">  1       21 0.75764100E-02 0.30000000E+03</pdfrwt>
<pdfrwt beam="2">0</pdfrwt>
<totfact> 0.14052778E+04</totfact>
</mgrwt>
</event>
<event>
 6    1  0.1198667E-001  0.3000000E+03  0.7818608E-02  0.1093470E+00
         21   -1    0    0  501  502  0.00000000000E+00  0.00000000000E+00  0.12156056706E+01  0.12156056706E+01  0.00000000000E+00 0. -1.
         13   -1    0    0    0    0 -0.00000000000E+00 -0.00000000000E+00 -0.10000000000E+04  0.10000000000E+04  0.00000000000E+00 0.  1.
    9000005    2    1    2  501    0 -0.25918921904E+02  0.16832777313E+02 -0.72995328942E+03  0.73061387643E+03  0.31142868700E+01 0.  0.
         13    1    3    3    0    0 -0.13710282564E+02  0.97350659528E+01 -0.36389537285E+03  0.36428366109E+03  0.00000000000E+00 0.  1.
          1    1    3    3  501    0 -0.12208639340E+02  0.70977113602E+01 -0.36605791658E+03  0.36633021534E+03  0.00000000000E+00 0.  1.
         -3    1    1    2    0  502  0.25918921904E+02 -0.16832777313E+02 -0.26883110490E+03  0.27060172924E+03  0.00000000000E+00 0. -1.
<mgrwt>
<rscale>  1 0.30000000E+03</rscale>
<asrwt>0</asrwt>
<pdfrwt beam="1">  1       21 0.44203936E-02 0.30000000E+03</pdfrwt>
<pdfrwt beam="2">0</pdfrwt>
<totfact> 0.35517050E+04</totfact>
</mgrwt>
</event>
<event>
 6    1  0.1198667E-001  0.3000000E+03  0.7818608E-02  0.1093470E+00
         21   -1    0    0  501  502  0.00000000000E+00  0.00000000000E+00  0.13843823620E+01  0.13843823620E+01  0.00000000000E+00 0. -1.
         13   -1    0    0    0    0 -0.00000000000E+00 -0.00000000000E+00 -0.10000000000E+04  0.10000000000E+04  0.00000000000E+00 0.  1.
    9000005    2    1    2  501    0  0.34855717113E+02 -0.12732455300E+02 -0.51002946744E+03  0.51139105323E+03  0.37034076186E+01 0.  0.
         13    1    3    3    0    0  0.30899877643E+02 -0.11091283307E+02 -0.43314628078E+03  0.43438867338E+03  0.00000000000E+00 0.  1.
          3    1    3    3  501    0  0.39558394706E+01 -0.16411719937E+01 -0.76883186660E+02  0.77002379849E+02  0.00000000000E+00 0.  1.
         -3    1    1    2    0  502 -0.34855717113E+02  0.12732455300E+02 -0.48858615020E+03  0.48999332913E+03  0.00000000000E+00 0. -1.
<mgrwt>
<rscale>  1 0.30000000E+03</rscale>
<asrwt>0</asrwt>
<pdfrwt beam="1">  1       21 0.50341283E-02 0.30000000E+03</pdfrwt>
<pdfrwt beam="2">0</pdfrwt>
<totfact> 0.28472500E+04</totfact>
</mgrwt>
</event>
<event>
 6    1  0.1198667E-001  0.3000000E+03  0.7818608E-02  0.1093470E+00
         21   -1    0    0  501  502  0.00000000000E+00  0.00000000000E+00  0.35989387950E+01  0.35989387950E+01  0.00000000000E+00 0. -1.
         13   -1    0    0    0    0 -0.00000000000E+00 -0.00000000000E+00 -0.10000000000E+04  0.10000000000E+04  0.00000000000E+00 0.  1.
    9000005    2    1    2  501    0  0.42097478295E+02 -0.32725960682E+02 -0.72738212808E+03  0.72934655037E+03  0.42946587238E+01 0.  0.
         13    1    3    3    0    0  0.55363594113E+01 -0.57676733522E+01 -0.12326318264E+03  0.12352218232E+03  0.00000000000E+00 0.  1.
          1    1    3    3  501    0  0.36561118884E+02 -0.26958287330E+02 -0.60411894544E+03  0.60582436804E+03  0.00000000000E+00 0.  1.
         -3    1    1    2    0  502 -0.42097478295E+02  0.32725960682E+02 -0.26901893312E+03  0.27425238843E+03  0.00000000000E+00 0. -1.
<mgrwt>
<rscale>  1 0.30000000E+03</rscale>
<asrwt>0</asrwt>
<pdfrwt beam="1">  1       21 0.13087078E-01 0.30000000E+03</pdfrwt>
<pdfrwt beam="2">0</pdfrwt>
<totfact> 0.52916024E+03</totfact>
</mgrwt>
</event>
<event>
 6    1  0.1198667E-001  0.3000000E+03  0.7818608E-02  0.1093470E+00
         21   -1    0    0  501  502  0.00000000000E+00  0.00000000000E+00  0.11313568549E+01  0.11313568549E+01  0.00000000000E+00 0. -1.
         13   -1    0    0    0    0 -0.00000000000E+00 -0.00000000000E+00 -0.10000000000E+04  0.10000000000E+04  0.00000000000E+00 0.  1.
    9000005    2    1    2  501    0 -0.32822308115E+02 -0.50384224386E+01 -0.43004543244E+03  0.43133969788E+03  0.34887513880E+01 0.  0.
         13    1    3    3    0    0 -0.31716099144E+02 -0.50314352247E+01 -0.42175689628E+03  0.42297766590E+03  0.00000000000E+00 0.  1.
          3    1    3    3  501    0 -0.11062089718E+01 -0.69872139254E-02 -0.82885361594E+01  0.83620319765E+01  0.00000000000E+00 0.  1.
         -1    1    1    2    0  502  0.32822308115E+02  0.50384224386E+01 -0.56882321070E+03  0.56979165898E+03  0.00000000000E+00 0. -1.
<mgrwt>
<rscale>  1 0.30000000E+03</rscale>
<asrwt>0</asrwt>
<pdfrwt beam="1">  1       21 0.41140336E-02 0.30000000E+03</pdfrwt>
<pdfrwt beam="2">0</pdfrwt>
<totfact> 0.40101885E+04</totfact>
</mgrwt>
</event>
<event>
 6    1  0.1198667E-001  0.3000000E+03  0.7818608E-02  0.1093470E+00
         21   -1    0    0  501  502  0.00000000000E+00  0.00000000000E+00  0.77002524801E+01  0.77002524801E+01  0.00000000000E+00 0. -1.
         13   -1    0    0    0    0 -0.00000000000E+00 -0.00000000000E+00 -0.10000000000E+04  0.10000000000E+04  0.00000000000E+00 0.  1.
    9000005    2    1    2  501    0  0.11831662038E+02  0.34297415487E+02 -0.95489519334E+03  0.95559073695E+03  0.35391158871E+01 0.  0.
         13    1    3    3    0    0  0.55059131514E+01  0.19373538157E+02 -0.56450776743E+03  0.56486694765E+03  0.00000000000E+00 0.  1.
          1    1    3    3  501    0  0.63257488866E+01  0.14923877329E+02 -0.39038742591E+03  0.39072378929E+03  0.00000000000E+00 0.  1.
         -3    1    1    2    0  502 -0.11831662038E+02 -0.34297415487E+02 -0.37404554182E+02  0.52109515534E+02  0.00000000000E+00 0. -1.
<mgrwt>
<rscale>  1 0.30000000E+03</rscale>
<asrwt>0</asrwt>
<pdfrwt beam="1">  1       21 0.28000977E-01 0.30000000E+03</pdfrwt>
<pdfrwt beam="2">0</pdfrwt>
<totfact> 0.12473131E+03</totfact>
</mgrwt>
</event>
<event>
 6    1  0.1198667E-001  0.3000000E+03  0.7818608E-02  0.1093470E+00
         21   -1    0    0  501  502  0.00000000000E+00  0.00000000000E+00  0.86820701517E+01  0.86820701517E+01  0.00000000000E+00 0. -1.
         13   -1    0    0    0    0 -0.00000000000E+00 -0.00000000000E+00 -0.10000000000E+04  0.10000000000E+04  0.00000000000E+00 0.  1.
    9000005    2    1    2  501    0  0.80856851623E+02  0.29661265653E+02 -0.68802399615E+03  0.69339675278E+03  0.21015107679E+01 0.  0.
         13    1    3    3    0    0  0.58502037529E+02  0.21788068472E+02 -0.49147397477E+03  0.49542292659E+03  0.00000000000E+00 0.  1.
          3    1    3    3  501    0  0.22354814094E+02  0.78731971810E+01 -0.19655002139E+03  0.19797382619E+03  0.00000000000E+00 0.  1.
         -1    1    1    2    0  502 -0.80856851623E+02 -0.29661265653E+02 -0.30329393369E+03  0.31528531737E+03  0.00000000000E+00 0. -1.
<mgrwt>
<rscale>  1 0.30000000E+03</rscale>
<asrwt>0</asrwt>
<pdfrwt beam="1">  1       21 0.31571231E-01 0.30000000E+03</pdfrwt>
<pdfrwt beam="2">0</pdfrwt>
<totfact> 0.98133383E+02</totfact>
</mgrwt>
</event>
<event>
 6    1  0.1198667E-001  0.3000000E+03  0.7818608E-02  0.1093470E+00
         21   -1    0    0  501  502  0.00000000000E+00  0.00000000000E+00  0.98768515893E+00  0.98768515893E+00  0.00000000000E+00 0. -1.
         13   -1    0    0    0    0 -0.00000000000E+00 -0.00000000000E+00 -0.10000000000E+04  0.10000000000E+04  0.00000000000E+00 0.  1.
    9000005    2    1    2  501    0  0.43926344456E+01 -0.30186178840E+02 -0.51888352573E+03  0.51989086043E+03  0.10765354388E+02 0.  0.
         13    1    3    3    0    0 -0.17275835457E-01 -0.53498309380E+01 -0.17574994585E+03  0.17583135231E+03  0.00000000000E+00 0.  1.
          1    1    3    3  501    0  0.44099102810E+01 -0.24836347902E+02 -0.34313357988E+03  0.34405950812E+03  0.00000000000E+00 0.  1.
         -1    1    1    2    0  502 -0.43926344456E+01  0.30186178840E+02 -0.48012878911E+03  0.48109682473E+03  0.00000000000E+00 0. -1.
<mgrwt>
<rscale>  1 0.30000000E+03</rscale>
<asrwt>0</asrwt>
<pdfrwt beam="1">  1       21 0.35915900E-02 0.30000000E+03</pdfrwt>
<pdfrwt beam="2">0</pdfrwt>
<totfact> 0.50387545E+04</totfact>
</mgrwt>
</event>
<event>
 6    1  0.1198667E-001  0.3000000E+03  0.7818608E-02  0.1093470E+00
         21   -1    0    0  501  502  0.00000000000E+00  0.00000000000E+00  0.16309613753E+01  0.16309613753E+01  0.00000000000E+00 0. -1.
         13   -1    0    0    0    0 -0.00000000000E+00 -0.00000000000E+00 -0.10000000000E+04  0.10000000000E+04  0.00000000000E+00 0.  1.
    9000005    2    1    2  501    0 -0.49786103187E+00  0.39355366307E+02 -0.60870756498E+03  0.60998679027E+03  0.31451406270E+01 0.  0.
         13    1    3    3    0    0 -0.12896147219E+01  0.14456456129E+02 -0.20829782893E+03  0.20880286819E+03  0.00000000000E+00 0.  1.
          1    1    3    3  501    0  0.79175369008E+00  0.24898910178E+02 -0.40040973605E+03  0.40118392207E+03  0.00000000000E+00 0.  1.
         -3    1    1    2    0  502  0.49786103187E+00 -0.39355366307E+02 -0.38966147364E+03  0.39164417111E+03  0.00000000000E+00 0. -1.
<mgrwt>
<rscale>  1 0.30000000E+03</rscale>
<asrwt>0</asrwt>
<pdfrwt beam="1">  1       21 0.59307811E-02 0.30000000E+03</pdfrwt>
<pdfrwt beam="2">0</pdfrwt>
<totfact> 0.21497501E+04</totfact>
</mgrwt>
</event>
<event>
 6    1  0.1198667E-001  0.3000000E+03  0.7818608E-02  0.1093470E+00
         21   -1    0    0  501  502  0.00000000000E+00  0.00000000000E+00  0.36002569365E+01  0.36002569365E+01  0.00000000000E+00 0. -1.
         13   -1    0    0    0    0 -0.00000000000E+00 -0.00000000000E+00 -0.10000000000E+04  0.10000000000E+04  0.00000000000E+00 0.  1.
    9000005    2    1    2  501    0  0.10690226867E+02  0.56673929822E+02 -0.63303524623E+03  0.63568726066E+03  0.62012193031E+01 0.  0.
         13    1    3    3    0    0 -0.52140329237E+00  0.95779858703E+01 -0.10641781435E+03  0.10684924373E+03  0.00000000000E+00 0.  1.
          1    1    3    3  501    0  0.11211630159E+02  0.47095943952E+02 -0.52661743188E+03  0.52883801692E+03  0.00000000000E+00 0.  1.
         -1    1    1    2    0  502 -0.10690226867E+02 -0.56673929822E+02 -0.36336449683E+03  0.36791299628E+03  0.00000000000E+00 0. -1.
<mgrwt>
<rscale>  1 0.30000000E+03</rscale>
<asrwt>0</asrwt>
<pdfrwt beam="1">  1       21 0.13091871E-01 0.30000000E+03</pdfrwt>
<pdfrwt beam="2">0</pdfrwt>
<totfact> 0.52880633E+03</totfact>
</mgrwt>
</event>
<event>
 6    1  0.1198667E-001  0.3000000E+03  0.7818608E-02  0.1093470E+00
         21   -1    0    0  501  502  0.00000000000E+00  0.00000000000E+00  0.34547374950E+01  0.34547374950E+01  0.00000000000E+00 0. -1.
         13   -1    0    0    0    0 -0.00000000000E+00 -0.00000000000E+00 -0.10000000000E+04  0.10000000000E+04  0.00000000000E+00 0.  1.
    9000005    2    1    2  501    0 -0.28823667357E+02  0.36828470001E+02 -0.80194269130E+03  0.80331153695E+03  0.31945694814E+01 0.  0.
         13    1    3    3    0    0 -0.27683084864E+02  0.35451700412E+02 -0.75897528239E+03  0.76030694823E+03  0.00000000000E+00 0.  1.
          1    1    3    3  501    0 -0.11405824930E+01  0.13767695883E+01 -0.42967408909E+02  0.43004588723E+02  0.00000000000E+00 0.  1.
         -3    1    1    2    0  502  0.28823667357E+02 -0.36828470001E+02 -0.19460257121E+03  0.20014320054E+03  0.00000000000E+00 0. -1.
<mgrwt>
<rscale>  1 0.30000000E+03</rscale>
<asrwt>0</asrwt>
<pdfrwt beam="1">  1       21 0.12562708E-01 0.30000000E+03</pdfrwt>
<pdfrwt beam="2">0</pdfrwt>
<totfact> 0.57014829E+03</totfact>
</mgrwt>
</event>
<event>
 6    1  0.1198667E-001  0.3000000E+03  0.7818608E-02  0.1093470E+00
         21   -1    0    0  501  502  0.00000000000E+00  0.00000000000E+00  0.15095865713E+01  0.15095865713E+01  0.00000000000E+00 0. -1.
         13   -1    0    0    0    0 -0.00000000000E+00 -0.00000000000E+00 -0.10000000000E+04  0.10000000000E+04  0.00000000000E+00 0.  1.
    9000005    2    1    2  501    0 -0.25583145752E+02  0.28263848335E+02 -0.40854347956E+03  0.41033217897E+03  0.33734171867E+01 0.  0.
         13    1    3    3    0    0 -0.53563817200E+00  0.15809538977E+01 -0.19264451818E+02  0.19336634333E+02  0.00000000000E+00 0.  1.
          3    1    3    3  501    0 -0.25047507580E+02  0.26682894437E+02 -0.38927902774E+03  0.39099554464E+03  0.00000000000E+00 0.  1.
         -1    1    1    2    0  502  0.25583145752E+02 -0.28263848335E+02 -0.58994693387E+03  0.59117740760E+03  0.00000000000E+00 0. -1.
<mgrwt>
<rscale>  1 0.30000000E+03</rscale>
<asrwt>0</asrwt>
<pdfrwt beam="1">  1       21 0.54894173E-02 0.30000000E+03</pdfrwt>
<pdfrwt beam="2">0</pdfrwt>
<totfact> 0.24555101E+04</totfact>
</mgrwt>
</event>
<event>
 6    1  0.1198667E-001  0.3000000E+03  0.7818608E-02  0.1093470E+00
         21   -1    0    0  501  502  0.00000000000E+00  0.00000000000E+00  0.25913254606E+01  0.25913254606E+01  0.00000000000E+00 0. -1.
         13   -1    0    0    0    0 -0.00000000000E+00 -0.00000000000E+00 -0.10000000000E+04  0.10000000000E+04  0.00000000000E+00 0.  1.
    9000005    2    1    2  501    0  0.23086174748E+02 -0.32669431433E+02 -0.80842284386E+03  0.80941806796E+03  0.31386391082E+01 0.  0.
         13    1    3    3    0    0  0.22512958745E+02 -0.32344829096E+02 -0.78827931443E+03  0.78926377013E+03  0.00000000000E+00 0.  1.
          3    1    3    3  501    0  0.57321600339E+00 -0.32460233752E+00 -0.20143529423E+02  0.20154297826E+02  0.00000000000E+00 0.  1.
         -1    1    1    2    0  502 -0.23086174748E+02  0.32669431433E+02 -0.18898583068E+03  0.19317325750E+03  0.00000000000E+00 0. -1.
<mgrwt>
<rscale>  1 0.30000000E+03</rscale>
<asrwt>0</asrwt>
<pdfrwt beam="1">  1       21 0.94230215E-02 0.30000000E+03</pdfrwt>
<pdfrwt beam="2">0</pdfrwt>
<totfact> 0.95652943E+03</totfact>
</mgrwt>
</event>
<event>
 6    1  0.1198667E-001  0.3000000E+03  0.7818608E-02  0.1093470E+00
         21   -1    0    0  501  502  0.00000000000E+00  0.00000000000E+00  0.18616079894E+01  0.18616079894E+01  0.00000000000E+00 0. -1.
         13   -1    0    0    0    0 -0.00000000000E+00 -0.00000000000E+00 -0.10000000000E+04  0.10000000000E+04  0.00000000000E+00 0.  1.
    9000005    2    1    2  501    0 -0.17321125380E+02 -0.35776736167E+02 -0.69314503005E+03  0.69428893840E+03  0.26647839692E+01 0.  0.
         13    1    3    3    0    0 -0.11301210328E+02 -0.21892818783E+02 -0.44879658754E+03  0.44947234604E+03  0.00000000000E+00 0.  1.
          3    1    3    3  501    0 -0.60199150512E+01 -0.13883917384E+02 -0.24434844251E+03  0.24481659236E+03  0.00000000000E+00 0.  1.
         -3    1    1    2    0  502  0.17321125380E+02  0.35776736167E+02 -0.30499336196E+03  0.30757266959E+03  0.00000000000E+00 0. -1.
<mgrwt>
<rscale>  1 0.30000000E+03</rscale>
<asrwt>0</asrwt>
<pdfrwt beam="1">  1       21 0.67694979E-02 0.30000000E+03</pdfrwt>
<pdfrwt beam="2">0</pdfrwt>
<totfact> 0.17102167E+04</totfact>
</mgrwt>
</event>
<event>
 6    1  0.1198667E-001  0.3000000E+03  0.7818608E-02  0.1093470E+00
         21   -1    0    0  501  502  0.00000000000E+00  0.00000000000E+00  0.17059125339E+01  0.17059125339E+01  0.00000000000E+00 0. -1.
         13   -1    0    0    0    0 -0.00000000000E+00 -0.00000000000E+00 -0.10000000000E+04  0.10000000000E+04  0.00000000000E+00 0.  1.
    9000005    2    1    2  501    0  0.12210281706E+01 -0.38419461502E+02 -0.67045104381E+03  0.67161712569E+03  0.93496219720E+01 0.  0.
         13    1    3    3    0    0  0.33076455407E+01 -0.23634579294E+02 -0.34551508485E+03  0.34633828508E+03  0.00000000000E+00 0.  1.
          1    1    3    3  501    0 -0.20866173701E+01 -0.14784882208E+02 -0.32493595897E+03  0.32527884060E+03  0.00000000000E+00 0.  1.
         -3    1    1    2    0  502 -0.12210281706E+01  0.38419461502E+02 -0.32784304365E+03  0.33008878685E+03  0.00000000000E+00 0. -1.
<mgrwt>
<rscale>  1 0.30000000E+03</rscale>
<asrwt>0</asrwt>
<pdfrwt beam="1">  1       21 0.62033314E-02 0.30000000E+03</pdfrwt>
<pdfrwt beam="2">0</pdfrwt>
<totfact> 0.19893875E+04</totfact>
</mgrwt>
</event>
<event>
 6    1  0.1198667E-001  0.3000000E+03  0.7818608E-02  0.1093470E+00
         21   -1    0    0  501  502  0.00000000000E+00  0.00000000000E+00  0.12812007167E+01  0.12812007167E+01  0.00000000000E+00 0. -1.
         13   -1    0    0    0    0 -0.00000000000E+00 -0.00000000000E+00 -0.10000000000E+04  0.10000000000E+04  0.00000000000E+00 0.  1.
    9000005    2    1    2  501    0 -0.28393924938E+02 -0.21250970196E+02 -0.55143767313E+03  0.55259620596E+03  0.46087726873E+01 0.  0.
         13    1    3    3    0    0 -0.15232557636E+02 -0.13317326029E+02 -0.28694497050E+03  0.28765743181E+03  0.00000000000E+00 0.  1.
          1    1    3    3  501    0 -0.13161367302E+02 -0.79336441676E+01 -0.26449270264E+03  0.26493877415E+03  0.00000000000E+00 0.  1.
         -3    1    1    2    0  502  0.28393924938E+02  0.21250970196E+02 -0.44728112615E+03  0.44868499475E+03  0.00000000000E+00 0. -1.
<mgrwt>
<rscale>  1 0.30000000E+03</rscale>
<asrwt>0</asrwt>
<pdfrwt beam="1">  1       21 0.46589215E-02 0.30000000E+03</pdfrwt>
<pdfrwt beam="2">0</pdfrwt>
<totfact> 0.32485519E+04</totfact>
</mgrwt>
</event>
<event>
 6    1  0.1198667E-001  0.3000000E+03  0.7818608E-02  0.1093470E+00
         21   -1    0    0  501  502  0.00000000000E+00  0.00000000000E+00  0.95697895762E+00  0.95697895762E+00  0.00000000000E+00 0. -1.
         13   -1    0    0    0    0 -0.00000000000E+00 -0.00000000000E+00 -0.10000000000E+04  0.10000000000E+04  0.00000000000E+00 0.  1.
    9000005    2    1    2  501    0  0.30144705878E+02  0.40126499231E+01 -0.41549217714E+03  0.41661427807E+03  0.29837530491E+01 0.  0.
         13    1    3    3    0    0  0.19421136489E+02  0.22042493759E+01 -0.24762273690E+03  0.24839295298E+03  0.00000000000E+00 0.  1.
          1    1    3    3  501    0  0.10723569389E+02  0.18084005472E+01 -0.16786944024E+03  0.16822132510E+03  0.00000000000E+00 0.  1.
         -1    1    1    2    0  502 -0.30144705878E+02 -0.40126499231E+01 -0.58355084391E+03  0.58434270088E+03  0.00000000000E+00 0. -1.
<mgrwt>
<rscale>  1 0.30000000E+03</rscale>
<asrwt>0</asrwt>
<pdfrwt beam="1">  1       21 0.34799308E-02 0.30000000E+03</pdfrwt>
<pdfrwt beam="2">0</pdfrwt>
<totfact> 0.53125801E+04</totfact>
</mgrwt>
</event>
<event>
 6    1  0.1198667E-001  0.3000000E+03  0.7818608E-02  0.1093470E+00
         21   -1    0    0  501  502  0.00000000000E+00  0.00000000000E+00  0.36065272669E+01  0.36065272669E+01  0.00000000000E+00 0. -1.
         13   -1    0    0    0    0 -0.00000000000E+00 -0.00000000000E+00 -0.10000000000E+04  0.10000000000E+04  0.00000000000E+00 0.  1.
    9000005    2    1    2  501    0 -0.39660267338E+02  0.37813412348E+02 -0.70287694531E+03  0.70501861253E+03  0.35288526597E+01 0.  0.
         13    1    3    3    0    0 -0.72562011786E-01  0.19858934749E+00 -0.66513582905E+01  0.66547178816E+01  0.00000000000E+00 0.  1.
          3    1    3    3  501    0 -0.39587705327E+02  0.37614823001E+02 -0.69622558702E+03  0.69836389465E+03  0.00000000000E+00 0.  1.
         -1    1    1    2    0  502  0.39660267338E+02 -0.37813412348E+02 -0.29351652742E+03  0.29858791474E+03  0.00000000000E+00 0. -1.
<mgrwt>
<rscale>  1 0.30000000E+03</rscale>
<asrwt>0</asrwt>
<pdfrwt beam="1">  1       21 0.13114672E-01 0.30000000E+03</pdfrwt>
<pdfrwt beam="2">0</pdfrwt>
<totfact> 0.52712764E+03</totfact>
</mgrwt>
</event>
<event>
 6    1  0.1198667E-001  0.3000000E+03  0.7818608E-02  0.1093470E+00
         21   -1    0    0  501  502  0.00000000000E+00  0.00000000000E+00  0.12561649837E+01  0.12561649837E+01  0.00000000000E+00 0. -1.
         13   -1    0    0    0    0 -0.00000000000E+00 -0.00000000000E+00 -0.10000000000E+04  0.10000000000E+04  0.00000000000E+00 0.  1.
    9000005    2    1    2  501    0 -0.32566766406E+02  0.48358658501E+01 -0.68274991419E+03  0.68355168300E+03  0.33879395483E+01 0.  0.
         13    1    3    3    0    0 -0.32260823936E+02  0.44096441604E+01 -0.66934299711E+03  0.67013450404E+03  0.00000000000E+00 0.  1.
          3    1    3    3  501    0 -0.30594247063E+00  0.42622168970E+00 -0.13406917080E+02  0.13417178963E+02  0.00000000000E+00 0.  1.
         -3    1    1    2    0  502  0.32566766406E+02 -0.48358658501E+01 -0.31599392083E+03  0.31770448199E+03  0.00000000000E+00 0. -1.
<mgrwt>
<rscale>  1 0.30000000E+03</rscale>
<asrwt>0</asrwt>
<pdfrwt beam="1">  1       21 0.45678823E-02 0.30000000E+03</pdfrwt>
<pdfrwt beam="2">0</pdfrwt>
<totfact> 0.33593262E+04</totfact>
</mgrwt>
</event>
<event>
 6    1  0.1198667E-001  0.3000000E+03  0.7818608E-02  0.1093470E+00
         21   -1    0    0  501  502  0.00000000000E+00  0.00000000000E+00  0.16211756171E+01  0.16211756171E+01  0.00000000000E+00 0. -1.
         13   -1    0    0    0    0 -0.00000000000E+00 -0.00000000000E+00 -0.10000000000E+04  0.10000000000E+04  0.00000000000E+00 0.  1.
    9000005    2    1    2  501    0 -0.13677295114E+02 -0.36940578585E+02 -0.39977937414E+03  0.40172703781E+03  0.30643383604E+01 0.  0.
         13    1    3    3    0    0 -0.13380777135E+02 -0.34540236776E+02 -0.37970806378E+03  0.38151053308E+03  0.00000000000E+00 0.  1.
          3    1    3    3  501    0 -0.29651797911E+00 -0.24003418091E+01 -0.20071310366E+02  0.20216504731E+02  0.00000000000E+00 0.  1.
         -1    1    1    2    0  502  0.13677295114E+02  0.36940578585E+02 -0.59859945024E+03  0.59989413781E+03  0.00000000000E+00 0. -1.
<mgrwt>
<rscale>  1 0.30000000E+03</rscale>
<asrwt>0</asrwt>
<pdfrwt beam="1">  1       21 0.58951965E-02 0.30000000E+03</pdfrwt>
<pdfrwt beam="2">0</pdfrwt>
<totfact> 0.21721660E+04</totfact>
</mgrwt>
</event>
<event>
 6    1  0.1198667E-001  0.3000000E+03  0.7818608E-02  0.1093470E+00
         21   -1    0    0  501  502  0.00000000000E+00  0.00000000000E+00  0.19469680583E+01  0.19469680583E+01  0.00000000000E+00 0. -1.
         13   -1    0    0    0    0 -0.00000000000E+00 -0.00000000000E+00 -0.10000000000E+04  0.10000000000E+04  0.00000000000E+00 0.  1.
    9000005    2    1    2  501    0 -0.25277778530E+02 -0.23403252418E+02 -0.18760198374E+03  0.19076414043E+03  0.31264450948E+01 0.  0.
         13    1    3    3    0    0 -0.21590936125E+02 -0.18907641110E+02 -0.16046770381E+03  0.16301396070E+03  0.00000000000E+00 0.  1.
          1    1    3    3  501    0 -0.36868424050E+01 -0.44956113082E+01 -0.27134279928E+02  0.27750179732E+02  0.00000000000E+00 0.  1.
         -1    1    1    2    0  502  0.25277778530E+02  0.23403252418E+02 -0.81045104820E+03  0.81118282763E+03  0.00000000000E+00 0. -1.
<mgrwt>
<rscale>  1 0.30000000E+03</rscale>
<asrwt>0</asrwt>
<pdfrwt beam="1">  1       21 0.70798988E-02 0.30000000E+03</pdfrwt>
<pdfrwt beam="2">0</pdfrwt>
<totfact> 0.15819567E+04</totfact>
</mgrwt>
</event>
<event>
 6    1  0.1198667E-001  0.3000000E+03  0.7818608E-02  0.1093470E+00
         21   -1    0    0  501  502  0.00000000000E+00  0.00000000000E+00  0.12307498844E+01  0.12307498844E+01  0.00000000000E+00 0. -1.
         13   -1    0    0    0    0 -0.00000000000E+00 -0.00000000000E+00 -0.10000000000E+04  0.10000000000E+04  0.00000000000E+00 0.  1.
    9000005    2    1    2  501    0 -0.29777520349E+02 -0.61092397503E+01 -0.25348735110E+03  0.25532919302E+03  0.36243776662E+01 0.  0.
         13    1    3    3    0    0 -0.17270459288E+02 -0.21204891798E+01 -0.15380835074E+03  0.15478945053E+03  0.00000000000E+00 0.  1.
          1    1    3    3  501    0 -0.12507061060E+02 -0.39887505705E+01 -0.99679000360E+02  0.10053974249E+03  0.00000000000E+00 0.  1.
         -3    1    1    2    0  502  0.29777520349E+02  0.61092397503E+01 -0.74528189902E+03  0.74590155686E+03  0.00000000000E+00 0. -1.
<mgrwt>
<rscale>  1 0.30000000E+03</rscale>
<asrwt>0</asrwt>
<pdfrwt beam="1">  1       21 0.44754636E-02 0.30000000E+03</pdfrwt>
<pdfrwt beam="2">0</pdfrwt>
<totfact> 0.34779300E+04</totfact>
</mgrwt>
</event>
<event>
 6    1  0.1198667E-001  0.3000000E+03  0.7818608E-02  0.1093470E+00
         21   -1    0    0  501  502  0.00000000000E+00  0.00000000000E+00  0.36931459673E+01  0.36931459673E+01  0.00000000000E+00 0. -1.
         13   -1    0    0    0    0 -0.00000000000E+00 -0.00000000000E+00 -0.10000000000E+04  0.10000000000E+04  0.00000000000E+00 0.  1.
    9000005    2    1    2  501    0 -0.83793340219E+00 -0.38822378275E+02 -0.88407365456E+03  0.88493216647E+03  0.32914098595E+01 0.  0.
         13    1    3    3    0    0 -0.13667665753E+01 -0.37086310879E+02 -0.85088943374E+03  0.85169835679E+03  0.00000000000E+00 0.  1.
          3    1    3    3  501    0  0.52883317312E+00 -0.17360673960E+01 -0.33184220816E+02  0.33233809677E+02  0.00000000000E+00 0.  1.
         -1    1    1    2    0  502  0.83793340219E+00  0.38822378275E+02 -0.11223319947E+03  0.11876097950E+03  0.00000000000E+00 0. -1.
<mgrwt>
<rscale>  1 0.30000000E+03</rscale>
<asrwt>0</asrwt>
<pdfrwt beam="1">  1       21 0.13429650E-01 0.30000000E+03</pdfrwt>
<pdfrwt beam="2">0</pdfrwt>
<totfact> 0.50473583E+03</totfact>
</mgrwt>
</event>
<event>
 6    1  0.1198667E-001  0.3000000E+03  0.7818608E-02  0.1093470E+00
         21   -1    0    0  501  502  0.00000000000E+00  0.00000000000E+00  0.32928188293E+01  0.32928188293E+01  0.00000000000E+00 0. -1.
         13   -1    0    0    0    0 -0.00000000000E+00 -0.00000000000E+00 -0.10000000000E+04  0.10000000000E+04  0.00000000000E+00 0.  1.
    9000005    2    1    2  501    0 -0.11534258765E+02  0.28527782490E+02 -0.92139461039E+03  0.92193646187E+03  0.72068150307E+01 0.  0.
         13    1    3    3    0    0  0.19541397025E+00  0.73765099671E+00 -0.64859026777E+01  0.65306392610E+01  0.00000000000E+00 0.  1.
          1    1    3    3  501    0 -0.11729672735E+02  0.27790131493E+02 -0.91490870771E+03  0.91540582261E+03  0.00000000000E+00 0.  1.
         -3    1    1    2    0  502  0.11534258765E+02 -0.28527782490E+02 -0.75312570784E+02  0.81356356956E+02  0.00000000000E+00 0. -1.
<mgrwt>
<rscale>  1 0.30000000E+03</rscale>
<asrwt>0</asrwt>
<pdfrwt beam="1">  1       21 0.11973912E-01 0.30000000E+03</pdfrwt>
<pdfrwt beam="2">0</pdfrwt>
<totfact> 0.62216435E+03</totfact>
</mgrwt>
</event>
<event>
 6    1  0.1198667E-001  0.3000000E+03  0.7818608E-02  0.1093470E+00
         21   -1    0    0  501  502  0.00000000000E+00  0.00000000000E+00  0.18053027394E+01  0.18053027394E+01  0.00000000000E+00 0. -1.
         13   -1    0    0    0    0 -0.00000000000E+00 -0.00000000000E+00 -0.10000000000E+04  0.10000000000E+04  0.00000000000E+00 0.  1.
    9000005    2    1    2  501    0  0.38628762310E+02  0.16493362574E+02 -0.57001613693E+03  0.57157153859E+03  0.33786210168E+01 0.  0.
         13    1    3    3    0    0  0.21923976062E+02  0.97790088649E+01 -0.34755469944E+03  0.34838277633E+03  0.00000000000E+00 0.  1.
          1    1    3    3  501    0  0.16704786248E+02  0.67143537089E+01 -0.22246143749E+03  0.22318876226E+03  0.00000000000E+00 0.  1.
         -3    1    1    2    0  502 -0.38628762310E+02 -0.16493362574E+02 -0.42817856033E+03  0.43023376415E+03  0.00000000000E+00 0. -1.
<mgrwt>
<rscale>  1 0.30000000E+03</rscale>
<asrwt>0</asrwt>
<pdfrwt beam="1">  1       21 0.65647511E-02 0.30000000E+03</pdfrwt>
<pdfrwt beam="2">0</pdfrwt>
<totfact> 0.18037712E+04</totfact>
</mgrwt>
</event>
<event>
 6    1  0.1198667E-001  0.3000000E+03  0.7818608E-02  0.1093470E+00
         21   -1    0    0  501  502  0.00000000000E+00  0.00000000000E+00  0.15061634882E+01  0.15061634882E+01  0.00000000000E+00 0. -1.
         13   -1    0    0    0    0 -0.00000000000E+00 -0.00000000000E+00 -0.10000000000E+04  0.10000000000E+04  0.00000000000E+00 0.  1.
    9000005    2    1    2  501    0 -0.23286878505E+02 -0.27018032904E+02 -0.69529373126E+03  0.69621522580E+03  0.31646623572E+01 0.  0.
         13    1    3    3    0    0 -0.12821158392E+02 -0.12461592804E+02 -0.34993964579E+03  0.35039610314E+03  0.00000000000E+00 0.  1.
          1    1    3    3  501    0 -0.10465720113E+02 -0.14556440100E+02 -0.34535408547E+03  0.34581912265E+03  0.00000000000E+00 0.  1.
         -3    1    1    2    0  502  0.23286878505E+02  0.27018032904E+02 -0.30320010525E+03  0.30529093769E+03  0.00000000000E+00 0. -1.
<mgrwt>
<rscale>  1 0.30000000E+03</rscale>
<asrwt>0</asrwt>
<pdfrwt beam="1">  1       21 0.54769697E-02 0.30000000E+03</pdfrwt>
<pdfrwt beam="2">0</pdfrwt>
<totfact> 0.24650848E+04</totfact>
</mgrwt>
</event>
<event>
 6    1  0.1198667E-001  0.3000000E+03  0.7818608E-02  0.1093470E+00
         21   -1    0    0  501  502  0.00000000000E+00  0.00000000000E+00  0.50997936822E+01  0.50997936822E+01  0.00000000000E+00 0. -1.
         13   -1    0    0    0    0 -0.00000000000E+00 -0.00000000000E+00 -0.10000000000E+04  0.10000000000E+04  0.00000000000E+00 0.  1.
    9000005    2    1    2  501    0 -0.32264109602E+02  0.25075917058E+01 -0.94539105014E+03  0.94595237337E+03  0.37939697464E+01 0.  0.
         13    1    3    3    0    0 -0.30729683877E+02  0.24805694368E+01 -0.87088439431E+03  0.87142991396E+03  0.00000000000E+00 0.  1.
          3    1    3    3  501    0 -0.15344257251E+01  0.27022268935E-01 -0.74506655836E+02  0.74522459409E+02  0.00000000000E+00 0.  1.
         -1    1    1    2    0  502  0.32264109602E+02 -0.25075917058E+01 -0.49509156173E+02  0.59147420312E+02  0.00000000000E+00 0. -1.
<mgrwt>
<rscale>  1 0.30000000E+03</rscale>
<asrwt>0</asrwt>
<pdfrwt beam="1">  1       21 0.18544743E-01 0.30000000E+03</pdfrwt>
<pdfrwt beam="2">0</pdfrwt>
<totfact> 0.27693248E+03</totfact>
</mgrwt>
</event>
<event>
 6    1  0.1198667E-001  0.3000000E+03  0.7818608E-02  0.1093470E+00
         21   -1    0    0  501  502  0.00000000000E+00  0.00000000000E+00  0.30214856532E+01  0.30214856532E+01  0.00000000000E+00 0. -1.
         13   -1    0    0    0    0 -0.00000000000E+00 -0.00000000000E+00 -0.10000000000E+04  0.10000000000E+04  0.00000000000E+00 0.  1.
    9000005    2    1    2  501    0 -0.37502058702E+02 -0.28264911624E+02 -0.75869336669E+03  0.76015295902E+03  0.34039402183E+01 0.  0.
         13    1    3    3    0    0 -0.30373248607E+02 -0.21167456447E+02 -0.59999781934E+03  0.60113890130E+03  0.00000000000E+00 0.  1.
          1    1    3    3  501    0 -0.71288100942E+01 -0.70974551772E+01 -0.15869554735E+03  0.15901405772E+03  0.00000000000E+00 0.  1.
         -1    1    1    2    0  502  0.37502058702E+02  0.28264911624E+02 -0.23828514766E+03  0.24286852664E+03  0.00000000000E+00 0. -1.
<mgrwt>
<rscale>  1 0.30000000E+03</rscale>
<asrwt>0</asrwt>
<pdfrwt beam="1">  1       21 0.10987244E-01 0.30000000E+03</pdfrwt>
<pdfrwt beam="2">0</pdfrwt>
<totfact> 0.72671771E+03</totfact>
</mgrwt>
</event>
<event>
 6    1  0.1198667E-001  0.3000000E+03  0.7818608E-02  0.1093470E+00
         21   -1    0    0  501  502  0.00000000000E+00  0.00000000000E+00  0.27028965692E+01  0.27028965692E+01  0.00000000000E+00 0. -1.
         13   -1    0    0    0    0 -0.00000000000E+00 -0.00000000000E+00 -0.10000000000E+04  0.10000000000E+04  0.00000000000E+00 0.  1.
    9000005    2    1    2  501    0  0.16782445164E+02  0.29494021321E+02 -0.87838174225E+03  0.87904040879E+03  0.24510008850E+01 0.  0.
         13    1    3    3    0    0  0.94645079437E+00  0.10625208024E+01 -0.27955933705E+02  0.27992122980E+02  0.00000000000E+00 0.  1.
          1    1    3    3  501    0  0.15835994370E+02  0.28431500519E+02 -0.85042580855E+03  0.85104828581E+03  0.00000000000E+00 0.  1.
         -1    1    1    2    0  502 -0.16782445164E+02 -0.29494021321E+02 -0.11891536118E+03  0.12366248778E+03  0.00000000000E+00 0. -1.
<mgrwt>
<rscale>  1 0.30000000E+03</rscale>
<asrwt>0</asrwt>
<pdfrwt beam="1">  1       21 0.98287355E-02 0.30000000E+03</pdfrwt>
<pdfrwt beam="2">0</pdfrwt>
<totfact> 0.88727581E+03</totfact>
</mgrwt>
</event>
<event>
 6    1  0.1198667E-001  0.3000000E+03  0.7818608E-02  0.1093470E+00
         21   -1    0    0  501  502  0.00000000000E+00  0.00000000000E+00  0.18807276107E+01  0.18807276107E+01  0.00000000000E+00 0. -1.
         13   -1    0    0    0    0 -0.00000000000E+00 -0.00000000000E+00 -0.10000000000E+04  0.10000000000E+04  0.00000000000E+00 0.  1.
    9000005    2    1    2  501    0 -0.16410642703E+02 -0.28564692566E+02 -0.82452118626E+03  0.82518452968E+03  0.30117398456E+01 0.  0.
         13    1    3    3    0    0 -0.68590470026E+01 -0.10926806443E+02 -0.28894713748E+03  0.28923500805E+03  0.00000000000E+00 0.  1.
          3    1    3    3  501    0 -0.95515957000E+01 -0.17637886123E+02 -0.53557404878E+03  0.53594952163E+03  0.00000000000E+00 0.  1.
         -3    1    1    2    0  502  0.16410642703E+02  0.28564692566E+02 -0.17359808613E+03  0.17669619793E+03  0.00000000000E+00 0. -1.
<mgrwt>
<rscale>  1 0.30000000E+03</rscale>
<asrwt>0</asrwt>
<pdfrwt beam="1">  1       21 0.68390239E-02 0.30000000E+03</pdfrwt>
<pdfrwt beam="2">0</pdfrwt>
<totfact> 0.16801375E+04</totfact>
</mgrwt>
</event>
<event>
 6    1  0.1198667E-001  0.3000000E+03  0.7818608E-02  0.1093470E+00
         21   -1    0    0  501  502  0.00000000000E+00  0.00000000000E+00  0.11606481715E+01  0.11606481715E+01  0.00000000000E+00 0. -1.
         13   -1    0    0    0    0 -0.00000000000E+00 -0.00000000000E+00 -0.10000000000E+04  0.10000000000E+04  0.00000000000E+00 0.  1.
    9000005    2    1    2  501    0 -0.15363368335E+02  0.26583423671E+02 -0.28624248255E+03  0.28790262361E+03  0.32327020588E+01 0.  0.
         13    1    3    3    0    0 -0.84961803324E+01  0.14353978284E+02 -0.14042989031E+03  0.14141702820E+03  0.00000000000E+00 0.  1.
          3    1    3    3  501    0 -0.68671880022E+01  0.12229445387E+02 -0.14581259224E+03  0.14648559540E+03  0.00000000000E+00 0.  1.
         -1    1    1    2    0  502  0.15363368335E+02 -0.26583423671E+02 -0.71259686928E+03  0.71325802456E+03  0.00000000000E+00 0. -1.
<mgrwt>
<rscale>  1 0.30000000E+03</rscale>
<asrwt>0</asrwt>
<pdfrwt beam="1">  1       21 0.42205477E-02 0.30000000E+03</pdfrwt>
<pdfrwt beam="2">0</pdfrwt>
<totfact> 0.38408569E+04</totfact>
</mgrwt>
</event>
<event>
 6    1  0.1198667E-001  0.3000000E+03  0.7818608E-02  0.1093470E+00
         21   -1    0    0  501  502  0.00000000000E+00  0.00000000000E+00  0.15737368433E+02  0.15737368433E+02  0.00000000000E+00 0. -1.
         13   -1    0    0    0    0 -0.00000000000E+00 -0.00000000000E+00 -0.10000000000E+04  0.10000000000E+04  0.00000000000E+00 0.  1.
    9000005    2    1    2  501    0  0.56554346608E+02  0.10299418560E+02 -0.94352595491E+03  0.94528207078E+03  0.35346283334E+01 0.  0.
         13    1    3    3    0    0  0.76691273332E+01  0.26345949310E+01 -0.13531837075E+03  0.13556112299E+03  0.00000000000E+00 0.  1.
          3    1    3    3  501    0  0.48885219275E+02  0.76648236288E+01 -0.80820758416E+03  0.80972094778E+03  0.00000000000E+00 0.  1.
         -1    1    1    2    0  502 -0.56554346608E+02 -0.10299418560E+02 -0.40736676656E+02  0.70455297657E+02  0.00000000000E+00 0. -1.
<mgrwt>
<rscale>  1 0.30000000E+03</rscale>
<asrwt>0</asrwt>
<pdfrwt beam="1">  1       21 0.57226915E-01 0.30000000E+03</pdfrwt>
<pdfrwt beam="2">0</pdfrwt>
<totfact> 0.27916355E+02</totfact>
</mgrwt>
</event>
<event>
 6    1  0.1198667E-001  0.3000000E+03  0.7818608E-02  0.1093470E+00
         21   -1    0    0  501  502  0.00000000000E+00  0.00000000000E+00  0.12861903651E+02  0.12861903651E+02  0.00000000000E+00 0. -1.
         13   -1    0    0    0    0 -0.00000000000E+00 -0.00000000000E+00 -0.10000000000E+04  0.10000000000E+04  0.00000000000E+00 0.  1.
    9000005    2    1    2  501    0 -0.87082813646E+02 -0.40273889823E+02 -0.76338087946E+03  0.76940206150E+03  0.48746764630E+01 0.  0.
         13    1    3    3    0    0 -0.57774515767E+02 -0.25989850597E+02 -0.48599174932E+03  0.49010340482E+03  0.00000000000E+00 0.  1.
          1    1    3    3  501    0 -0.29308297879E+02 -0.14284039226E+02 -0.27738913014E+03  0.27929865668E+03  0.00000000000E+00 0.  1.
         -1    1    1    2    0  502  0.87082813646E+02  0.40273889823E+02 -0.22375721689E+03  0.24345984215E+03  0.00000000000E+00 0. -1.
<mgrwt>
<rscale>  1 0.30000000E+03</rscale>
<asrwt>0</asrwt>
<pdfrwt beam="1">  1       21 0.46770657E-01 0.30000000E+03</pdfrwt>
<pdfrwt beam="2">0</pdfrwt>
<totfact> 0.43383837E+02</totfact>
</mgrwt>
</event>
<event>
 6    1  0.1198667E-001  0.3000000E+03  0.7818608E-02  0.1093470E+00
         21   -1    0    0  501  502  0.00000000000E+00  0.00000000000E+00  0.25936826570E+02  0.25936826570E+02  0.00000000000E+00 0. -1.
         13   -1    0    0    0    0 -0.00000000000E+00 -0.00000000000E+00 -0.10000000000E+04  0.10000000000E+04  0.00000000000E+00 0.  1.
    9000005    2    1    2  501    0  0.12290268848E+02 -0.76303943163E+02 -0.93704730276E+03  0.94024250277E+03  0.49973938799E+01 0.  0.
         13    1    3    3    0    0  0.16283713121E+01 -0.38113101372E+01 -0.56573982618E+02  0.56725595522E+02  0.00000000000E+00 0.  1.
          3    1    3    3  501    0  0.10661897536E+02 -0.72492633026E+02 -0.88047332014E+03  0.88351690724E+03  0.00000000000E+00 0.  1.
         -1    1    1    2    0  502 -0.12290268848E+02  0.76303943163E+02 -0.37015870668E+02  0.85694323802E+02  0.00000000000E+00 0. -1.
<mgrwt>
<rscale>  1 0.30000000E+03</rscale>
<asrwt>0</asrwt>
<pdfrwt beam="1">  1       21 0.94315932E-01 0.30000000E+03</pdfrwt>
<pdfrwt beam="2">0</pdfrwt>
<totfact> 0.85513962E+01</totfact>
</mgrwt>
</event>
<event>
 6    1  0.1198667E-001  0.3000000E+03  0.7818608E-02  0.1093470E+00
         21   -1    0    0  501  502  0.00000000000E+00  0.00000000000E+00  0.11293660532E+01  0.11293660532E+01  0.00000000000E+00 0. -1.
         13   -1    0    0    0    0 -0.00000000000E+00 -0.00000000000E+00 -0.10000000000E+04  0.10000000000E+04  0.00000000000E+00 0.  1.
    9000005    2    1    2  501    0  0.26875339802E+02 -0.18383836067E+02 -0.61939449704E+03  0.62025880037E+03  0.33447214950E+01 0.  0.
         13    1    3    3    0    0  0.36924903839E+01 -0.14488155869E+01 -0.87942907197E+02  0.88032314965E+02  0.00000000000E+00 0.  1.
          3    1    3    3  501    0  0.23182849418E+02 -0.16935020480E+02 -0.53145158984E+03  0.53222648541E+03  0.00000000000E+00 0.  1.
         -1    1    1    2    0  502 -0.26875339802E+02  0.18383836067E+02 -0.37947613691E+03  0.38087056568E+03  0.00000000000E+00 0. -1.
<mgrwt>
<rscale>  1 0.30000000E+03</rscale>
<asrwt>0</asrwt>
<pdfrwt beam="1">  1       21 0.41067943E-02 0.30000000E+03</pdfrwt>
<pdfrwt beam="2">0</pdfrwt>
<totfact> 0.40221174E+04</totfact>
</mgrwt>
</event>
<event>
 6    1  0.1198667E-001  0.3000000E+03  0.7818608E-02  0.1093470E+00
         21   -1    0    0  501  502  0.00000000000E+00  0.00000000000E+00  0.15225694593E+01  0.15225694593E+01  0.00000000000E+00 0. -1.
         13   -1    0    0    0    0 -0.00000000000E+00 -0.00000000000E+00 -0.10000000000E+04  0.10000000000E+04  0.00000000000E+00 0.  1.
    9000005    2    1    2  501    0  0.20915376505E+02 -0.30783391240E+02 -0.64769215687E+03  0.64876857816E+03  0.32353966366E+01 0.  0.
         13    1    3    3    0    0  0.43824941310E+01 -0.80231942003E+01 -0.14091662841E+03  0.14121286791E+03  0.00000000000E+00 0.  1.
          3    1    3    3  501    0  0.16532882373E+02 -0.22760197040E+02 -0.50677552845E+03  0.50755571025E+03  0.00000000000E+00 0.  1.
         -1    1    1    2    0  502 -0.20915376505E+02  0.30783391240E+02 -0.35078527367E+03  0.35275399130E+03  0.00000000000E+00 0. -1.
<mgrwt>
<rscale>  1 0.30000000E+03</rscale>
<asrwt>0</asrwt>
<pdfrwt beam="1">  1       21 0.55366279E-02 0.30000000E+03</pdfrwt>
<pdfrwt beam="2">0</pdfrwt>
<totfact> 0.24197115E+04</totfact>
</mgrwt>
</event>
<event>
 6    1  0.1198667E-001  0.3000000E+03  0.7818608E-02  0.1093470E+00
         21   -1    0    0  501  502  0.00000000000E+00  0.00000000000E+00  0.67158082499E+01  0.67158082499E+01  0.00000000000E+00 0. -1.
         13   -1    0    0    0    0 -0.00000000000E+00 -0.00000000000E+00 -0.10000000000E+04  0.10000000000E+04  0.00000000000E+00 0.  1.
    9000005    2    1    2  501    0  0.73849864755E+01 -0.51534916807E+02 -0.88531185924E+03  0.88684750442E+03  0.33199860055E+01 0.  0.
         13    1    3    3    0    0  0.13614401466E+01 -0.91704229621E+01 -0.13719708799E+03  0.13750996738E+03  0.00000000000E+00 0.  1.
          3    1    3    3  501    0  0.60235463289E+01 -0.42364493845E+02 -0.74811477126E+03  0.74933753704E+03  0.00000000000E+00 0.  1.
         -1    1    1    2    0  502 -0.73849864755E+01  0.51534916807E+02 -0.10797233251E+03  0.11986830383E+03  0.00000000000E+00 0. -1.
<mgrwt>
<rscale>  1 0.30000000E+03</rscale>
<asrwt>0</asrwt>
<pdfrwt beam="1">  1       21 0.24421172E-01 0.30000000E+03</pdfrwt>
<pdfrwt beam="2">0</pdfrwt>
<totfact> 0.16326349E+03</totfact>
</mgrwt>
</event>
<event>
 6    1  0.1198667E-001  0.3000000E+03  0.7818608E-02  0.1093470E+00
         21   -1    0    0  501  502  0.00000000000E+00  0.00000000000E+00  0.29831154369E+01  0.29831154369E+01  0.00000000000E+00 0. -1.
         13   -1    0    0    0    0 -0.00000000000E+00 -0.00000000000E+00 -0.10000000000E+04  0.10000000000E+04  0.00000000000E+00 0.  1.
    9000005    2    1    2  501    0  0.10555664210E+02  0.36855794141E+02 -0.14259186106E+03  0.14769843043E+03  0.35518873949E+01 0.  0.
         13    1    3    3    0    0  0.10682792551E+02  0.34775224235E+02 -0.13623394115E+03  0.14100753526E+03  0.00000000000E+00 0.  1.
          1    1    3    3  501    0 -0.12712834123E+00  0.20805699056E+01 -0.63579199044E+01  0.66908951762E+01  0.00000000000E+00 0.  1.
         -1    1    1    2    0  502 -0.10555664210E+02 -0.36855794141E+02 -0.85442502350E+03  0.85528468500E+03  0.00000000000E+00 0. -1.
<mgrwt>
<rscale>  1 0.30000000E+03</rscale>
<asrwt>0</asrwt>
<pdfrwt beam="1">  1       21 0.10847715E-01 0.30000000E+03</pdfrwt>
<pdfrwt beam="2">0</pdfrwt>
<totfact> 0.74361037E+03</totfact>
</mgrwt>
</event>
<event>
 6    1  0.1198667E-001  0.3000000E+03  0.7818608E-02  0.1093470E+00
         21   -1    0    0  501  502  0.00000000000E+00  0.00000000000E+00  0.38857421678E+01  0.38857421678E+01  0.00000000000E+00 0. -1.
         13   -1    0    0    0    0 -0.00000000000E+00 -0.00000000000E+00 -0.10000000000E+04  0.10000000000E+04  0.00000000000E+00 0.  1.
    9000005    2    1    2  501    0 -0.60188353771E+00  0.43325459617E+02 -0.14370766829E+03  0.15037859421E+03  0.91853120423E+01 0.  0.
         13    1    3    3    0    0 -0.41556073319E+00  0.15459959917E+02 -0.37219841642E+02  0.40305082349E+02  0.00000000000E+00 0.  1.
          3    1    3    3  501    0 -0.18632280452E+00  0.27865499701E+02 -0.10648782665E+03  0.11007351187E+03  0.00000000000E+00 0.  1.
         -3    1    1    2    0  502  0.60188353771E+00 -0.43325459617E+02 -0.85240658954E+03  0.85350714795E+03  0.00000000000E+00 0. -1.
<mgrwt>
<rscale>  1 0.30000000E+03</rscale>
<asrwt>0</asrwt>
<pdfrwt beam="1">  1       21 0.14130001E-01 0.30000000E+03</pdfrwt>
<pdfrwt beam="2">0</pdfrwt>
<totfact> 0.45978917E+03</totfact>
</mgrwt>
</event>
<event>
 6    1  0.1198667E-001  0.3000000E+03  0.7818608E-02  0.1093470E+00
         21   -1    0    0  501  502  0.00000000000E+00  0.00000000000E+00  0.26776220631E+01  0.26776220631E+01  0.00000000000E+00 0. -1.
         13   -1    0    0    0    0 -0.00000000000E+00 -0.00000000000E+00 -0.10000000000E+04  0.10000000000E+04  0.00000000000E+00 0.  1.
    9000005    2    1    2  501    0 -0.41205917344E+01  0.32465570343E+02 -0.88681466484E+03  0.88742595315E+03  0.36851065389E+01 0.  0.
         13    1    3    3    0    0 -0.32312080900E+01  0.12193481645E+02 -0.35756677335E+03  0.35778921044E+03  0.00000000000E+00 0.  1.
          1    1    3    3  501    0 -0.88938364441E+00  0.20272088698E+02 -0.52924789149E+03  0.52963674271E+03  0.00000000000E+00 0.  1.
         -1    1    1    2    0  502  0.41205917344E+01 -0.32465570343E+02 -0.11050771309E+03  0.11525166891E+03  0.00000000000E+00 0. -1.
<mgrwt>
<rscale>  1 0.30000000E+03</rscale>
<asrwt>0</asrwt>
<pdfrwt beam="1">  1       21 0.97368280E-02 0.30000000E+03</pdfrwt>
<pdfrwt beam="2">0</pdfrwt>
<totfact> 0.90227741E+03</totfact>
</mgrwt>
</event>
<event>
 6    1  0.1198667E-001  0.3000000E+03  0.7818608E-02  0.1093470E+00
         21   -1    0    0  501  502  0.00000000000E+00  0.00000000000E+00  0.22346461062E+01  0.22346461062E+01  0.00000000000E+00 0. -1.
         13   -1    0    0    0    0 -0.00000000000E+00 -0.00000000000E+00 -0.10000000000E+04  0.10000000000E+04  0.00000000000E+00 0.  1.
    9000005    2    1    2  501    0  0.35949267741E+02  0.10276429605E+01 -0.82343877029E+03  0.82423699542E+03  0.46701488485E+01 0.  0.
         13    1    3    3    0    0  0.19318205028E+02  0.19498493370E+01 -0.40055245907E+03  0.40102277669E+03  0.00000000000E+00 0.  1.
          1    1    3    3  501    0  0.16631062713E+02 -0.92220637655E+00 -0.42288631123E+03  0.42321421873E+03  0.00000000000E+00 0.  1.
         -3    1    1    2    0  502 -0.35949267741E+02 -0.10276429605E+01 -0.17432658360E+03  0.17799765069E+03  0.00000000000E+00 0. -1.
<mgrwt>
<rscale>  1 0.30000000E+03</rscale>
<asrwt>0</asrwt>
<pdfrwt beam="1">  1       21 0.81260030E-02 0.30000000E+03</pdfrwt>
<pdfrwt beam="2">0</pdfrwt>
<totfact> 0.12427849E+04</totfact>
</mgrwt>
</event>
<event>
 6    1  0.1198667E-001  0.3000000E+03  0.7818608E-02  0.1093470E+00
         21   -1    0    0  501  502  0.00000000000E+00  0.00000000000E+00  0.13352201131E+01  0.13352201131E+01  0.00000000000E+00 0. -1.
         13   -1    0    0    0    0 -0.00000000000E+00 -0.00000000000E+00 -0.10000000000E+04  0.10000000000E+04  0.00000000000E+00 0.  1.
    9000005    2    1    2  501    0  0.11976686062E+02 -0.30726174403E+02 -0.70697710431E+03  0.70778924606E+03  0.78391332109E+01 0.  0.
         13    1    3    3    0    0  0.12838715745E+02 -0.26284473199E+02 -0.63077655476E+03  0.63145448624E+03  0.00000000000E+00 0.  1.
          3    1    3    3  501    0 -0.86202968316E+00 -0.44417012038E+01 -0.76200549550E+02  0.76334759818E+02  0.00000000000E+00 0.  1.
         -1    1    1    2    0  502 -0.11976686062E+02  0.30726174403E+02 -0.29168767557E+03  0.29354597406E+03  0.00000000000E+00 0. -1.
<mgrwt>
<rscale>  1 0.30000000E+03</rscale>
<asrwt>0</asrwt>
<pdfrwt beam="1">  1       21 0.48553561E-02 0.30000000E+03</pdfrwt>
<pdfrwt beam="2">0</pdfrwt>
<totfact> 0.30281755E+04</totfact>
</mgrwt>
</event>
<event>
 6    1  0.1198667E-001  0.3000000E+03  0.7818608E-02  0.1093470E+00
         21   -1    0    0  501  502  0.00000000000E+00  0.00000000000E+00  0.12578544635E+01  0.12578544635E+01  0.00000000000E+00 0. -1.
         13   -1    0    0    0    0 -0.00000000000E+00 -0.00000000000E+00 -0.10000000000E+04  0.10000000000E+04  0.00000000000E+00 0.  1.
    9000005    2    1    2  501    0  0.30673024326E+02  0.17070801641E+02 -0.44438564318E+03  0.44579104321E+03  0.43367798263E+01 0.  0.
         13    1    3    3    0    0  0.47796743756E+01  0.34268818326E+01 -0.94856040908E+02  0.95038188655E+02  0.00000000000E+00 0.  1.
          3    1    3    3  501    0  0.25893349951E+02  0.13643919808E+02 -0.34952960227E+03  0.35075285456E+03  0.00000000000E+00 0.  1.
         -1    1    1    2    0  502 -0.30673024326E+02 -0.17070801641E+02 -0.55435650236E+03  0.55546681125E+03  0.00000000000E+00 0. -1.
<mgrwt>
<rscale>  1 0.30000000E+03</rscale>
<asrwt>0</asrwt>
<pdfrwt beam="1">  1       21 0.45740259E-02 0.30000000E+03</pdfrwt>
<pdfrwt beam="2">0</pdfrwt>
<totfact> 0.33516655E+04</totfact>
</mgrwt>
</event>
<event>
 6    1  0.1198667E-001  0.3000000E+03  0.7818608E-02  0.1093470E+00
         21   -1    0    0  501  502  0.00000000000E+00  0.00000000000E+00  0.15777413298E+01  0.15777413298E+01  0.00000000000E+00 0. -1.
         13   -1    0    0    0    0 -0.00000000000E+00 -0.00000000000E+00 -0.10000000000E+04  0.10000000000E+04  0.00000000000E+00 0.  1.
    9000005    2    1    2  501    0  0.14031131349E+02  0.35308515148E+02 -0.62675170913E+03  0.62797024504E+03  0.92390404512E+01 0.  0.
         13    1    3    3    0    0  0.31424344416E+01  0.16042198764E+01 -0.42697826460E+02  0.42843351877E+02  0.00000000000E+00 0.  1.
          3    1    3    3  501    0  0.10888696908E+02  0.33704295272E+02 -0.58405388267E+03  0.58512689316E+03  0.00000000000E+00 0.  1.
         -1    1    1    2    0  502 -0.14031131349E+02 -0.35308515148E+02 -0.37167054954E+03  0.37360749629E+03  0.00000000000E+00 0. -1.
<mgrwt>
<rscale>  1 0.30000000E+03</rscale>
<asrwt>0</asrwt>
<pdfrwt beam="1">  1       21 0.57372533E-02 0.30000000E+03</pdfrwt>
<pdfrwt beam="2">0</pdfrwt>
<totfact> 0.22761784E+04</totfact>
</mgrwt>
</event>
<event>
 6    1  0.1198667E-001  0.3000000E+03  0.7818608E-02  0.1093470E+00
         21   -1    0    0  501  502  0.00000000000E+00  0.00000000000E+00  0.22450975227E+01  0.22450975227E+01  0.00000000000E+00 0. -1.
         13   -1    0    0    0    0 -0.00000000000E+00 -0.00000000000E+00 -0.10000000000E+04  0.10000000000E+04  0.00000000000E+00 0.  1.
    9000005    2    1    2  501    0 -0.30646904493E+01 -0.35182859010E+02 -0.16622432832E+03  0.16996490333E+03  0.32117193484E+01 0.  0.
         13    1    3    3    0    0 -0.44837757888E+00 -0.53934737334E+01 -0.31511131333E+02  0.31972519439E+02  0.00000000000E+00 0.  1.
          3    1    3    3  501    0 -0.26163128705E+01 -0.29789385276E+02 -0.13471319699E+03  0.13799238389E+03  0.00000000000E+00 0.  1.
         -1    1    1    2    0  502  0.30646904493E+01  0.35182859010E+02 -0.83153057415E+03  0.83228019420E+03  0.00000000000E+00 0. -1.
<mgrwt>
<rscale>  1 0.30000000E+03</rscale>
<asrwt>0</asrwt>
<pdfrwt beam="1">  1       21 0.81640082E-02 0.30000000E+03</pdfrwt>
<pdfrwt beam="2">0</pdfrwt>
<totfact> 0.12326302E+04</totfact>
</mgrwt>
</event>
<event>
 6    1  0.1198667E-001  0.3000000E+03  0.7818608E-02  0.1093470E+00
         21   -1    0    0  501  502  0.00000000000E+00  0.00000000000E+00  0.15382028824E+02  0.15382028824E+02  0.00000000000E+00 0. -1.
         13   -1    0    0    0    0 -0.00000000000E+00 -0.00000000000E+00 -0.10000000000E+04  0.10000000000E+04  0.00000000000E+00 0.  1.
    9000005    2    1    2  501    0  0.32672335871E+02 -0.22836020139E+02 -0.97305011277E+03  0.97387563540E+03  0.42738637655E+01 0.  0.
         13    1    3    3    0    0  0.11214187330E+02 -0.94568634518E+01 -0.39638301700E+03  0.39665436646E+03  0.00000000000E+00 0.  1.
          1    1    3    3  501    0  0.21458148540E+02 -0.13379156687E+02 -0.57666709577E+03  0.57722126894E+03  0.00000000000E+00 0.  1.
         -3    1    1    2    0  502 -0.32672335871E+02  0.22836020139E+02 -0.11567858404E+02  0.41506393424E+02  0.00000000000E+00 0. -1.
<mgrwt>
<rscale>  1 0.30000000E+03</rscale>
<asrwt>0</asrwt>
<pdfrwt beam="1">  1       21 0.55934768E-01 0.30000000E+03</pdfrwt>
<pdfrwt beam="2">0</pdfrwt>
<totfact> 0.29370945E+02</totfact>
</mgrwt>
</event>
<event>
 6    1  0.1198667E-001  0.3000000E+03  0.7818608E-02  0.1093470E+00
         21   -1    0    0  501  502  0.00000000000E+00  0.00000000000E+00  0.60366157856E+01  0.60366157856E+01  0.00000000000E+00 0. -1.
         13   -1    0    0    0    0 -0.00000000000E+00 -0.00000000000E+00 -0.10000000000E+04  0.10000000000E+04  0.00000000000E+00 0.  1.
    9000005    2    1    2  501    0  0.35268264340E+02  0.22752296683E+02 -0.91983615977E+03  0.92085232805E+03  0.10437038476E+02 0.  0.
         13    1    3    3    0    0  0.16381774127E+02  0.56602826556E+01 -0.43889613067E+03  0.43923822107E+03  0.00000000000E+00 0.  1.
          1    1    3    3  501    0  0.18886490213E+02  0.17092014027E+02 -0.48094002910E+03  0.48161410698E+03  0.00000000000E+00 0.  1.
         -1    1    1    2    0  502 -0.35268264340E+02 -0.22752296683E+02 -0.74127224442E+02  0.85184287737E+02  0.00000000000E+00 0. -1.
<mgrwt>
<rscale>  1 0.30000000E+03</rscale>
<asrwt>0</asrwt>
<pdfrwt beam="1">  1       21 0.21951376E-01 0.30000000E+03</pdfrwt>
<pdfrwt beam="2">0</pdfrwt>
<totfact> 0.20071247E+03</totfact>
</mgrwt>
</event>
<event>
 6    1  0.1198667E-001  0.3000000E+03  0.7818608E-02  0.1093470E+00
         21   -1    0    0  501  502  0.00000000000E+00  0.00000000000E+00  0.39738015703E+01  0.39738015703E+01  0.00000000000E+00 0. -1.
         13   -1    0    0    0    0 -0.00000000000E+00 -0.00000000000E+00 -0.10000000000E+04  0.10000000000E+04  0.00000000000E+00 0.  1.
    9000005    2    1    2  501    0 -0.63194924135E+01 -0.60480981023E+02 -0.36739164951E+03  0.37240489706E+03  0.33012382879E+01 0.  0.
         13    1    3    3    0    0 -0.17658016756E+01 -0.20337065773E+02 -0.13277020410E+03  0.13433034429E+03  0.00000000000E+00 0.  1.
          1    1    3    3  501    0 -0.45536907379E+01 -0.40143915249E+02 -0.23462144541E+03  0.23807455277E+03  0.00000000000E+00 0.  1.
         -1    1    1    2    0  502  0.63194924135E+01  0.60480981023E+02 -0.62863454892E+03  0.63156890451E+03  0.00000000000E+00 0. -1.
<mgrwt>
<rscale>  1 0.30000000E+03</rscale>
<asrwt>0</asrwt>
<pdfrwt beam="1">  1       21 0.14450218E-01 0.30000000E+03</pdfrwt>
<pdfrwt beam="2">0</pdfrwt>
<totfact> 0.44120611E+03</totfact>
</mgrwt>
</event>
<event>
 6    1  0.1198667E-001  0.3000000E+03  0.7818608E-02  0.1093470E+00
         21   -1    0    0  501  502  0.00000000000E+00  0.00000000000E+00  0.31765369126E+01  0.31765369126E+01  0.00000000000E+00 0. -1.
         13   -1    0    0    0    0 -0.00000000000E+00 -0.00000000000E+00 -0.10000000000E+04  0.10000000000E+04  0.00000000000E+00 0.  1.
    9000005    2    1    2  501    0 -0.52730651257E+02  0.19566365034E+02 -0.47314965959E+03  0.47649103617E+03  0.31213711906E+01 0.  0.
         13    1    3    3    0    0 -0.50676538021E+02  0.19400540565E+02 -0.45444252319E+03  0.45767073247E+03  0.00000000000E+00 0.  1.
          3    1    3    3  501    0 -0.20541132358E+01  0.16582446879E+00 -0.18707136402E+02  0.18820303698E+02  0.00000000000E+00 0.  1.
         -1    1    1    2    0  502  0.52730651257E+02 -0.19566365034E+02 -0.52367380350E+03  0.52668550074E+03  0.00000000000E+00 0. -1.
<mgrwt>
<rscale>  1 0.30000000E+03</rscale>
<asrwt>0</asrwt>
<pdfrwt beam="1">  1       21 0.11551068E-01 0.30000000E+03</pdfrwt>
<pdfrwt beam="2">0</pdfrwt>
<totfact> 0.66401761E+03</totfact>
</mgrwt>
</event>
<event>
 6    1  0.1198667E-001  0.3000000E+03  0.7818608E-02  0.1093470E+00
         21   -1    0    0  501  502  0.00000000000E+00  0.00000000000E+00  0.13794974812E+01  0.13794974812E+01  0.00000000000E+00 0. -1.
         13   -1    0    0    0    0 -0.00000000000E+00 -0.00000000000E+00 -0.10000000000E+04  0.10000000000E+04  0.00000000000E+00 0.  1.
    9000005    2    1    2  501    0  0.33383124999E+02  0.12828867921E+02 -0.63119823513E+03  0.63222081147E+03  0.35957660440E+01 0.  0.
         13    1    3    3    0    0  0.30808568011E+02  0.12802825086E+02 -0.58888007964E+03  0.58982440471E+03  0.00000000000E+00 0.  1.
          3    1    3    3  501    0  0.25745569882E+01  0.26042835461E-01 -0.42318155490E+02  0.42396406758E+02  0.00000000000E+00 0.  1.
         -3    1    1    2    0  502 -0.33383124999E+02 -0.12828867921E+02 -0.36742226739E+03  0.36915868602E+03  0.00000000000E+00 0. -1.
<mgrwt>
<rscale>  1 0.30000000E+03</rscale>
<asrwt>0</asrwt>
<pdfrwt beam="1">  1       21 0.50163651E-02 0.30000000E+03</pdfrwt>
<pdfrwt beam="2">0</pdfrwt>
<totfact> 0.28644633E+04</totfact>
</mgrwt>
</event>
<event>
 6    1  0.1198667E-001  0.3000000E+03  0.7818608E-02  0.1093470E+00
         21   -1    0    0  501  502  0.00000000000E+00  0.00000000000E+00  0.14311348450E+01  0.14311348450E+01  0.00000000000E+00 0. -1.
         13   -1    0    0    0    0 -0.00000000000E+00 -0.00000000000E+00 -0.10000000000E+04  0.10000000000E+04  0.00000000000E+00 0.  1.
    9000005    2    1    2  501    0  0.24803328730E+02  0.19480045003E+02 -0.77503002718E+03  0.77567841758E+03  0.32843871546E+01 0.  0.
         13    1    3    3    0    0  0.12964556049E+02  0.82583871299E+01 -0.39160728013E+03  0.39190884466E+03  0.00000000000E+00 0.  1.
          3    1    3    3  501    0  0.11838772681E+02  0.11221657873E+02 -0.38342274705E+03  0.38376957292E+03  0.00000000000E+00 0.  1.
         -1    1    1    2    0  502 -0.24803328730E+02 -0.19480045003E+02 -0.22353883797E+03  0.22575271726E+03  0.00000000000E+00 0. -1.
<mgrwt>
<rscale>  1 0.30000000E+03</rscale>
<asrwt>0</asrwt>
<pdfrwt beam="1">  1       21 0.52041377E-02 0.30000000E+03</pdfrwt>
<pdfrwt beam="2">0</pdfrwt>
<totfact> 0.26903301E+04</totfact>
</mgrwt>
</event>
<event>
 6    1  0.1198667E-001  0.3000000E+03  0.7818608E-02  0.1093470E+00
         21   -1    0    0  501  502  0.00000000000E+00  0.00000000000E+00  0.20428958076E+01  0.20428958076E+01  0.00000000000E+00 0. -1.
         13   -1    0    0    0    0 -0.00000000000E+00 -0.00000000000E+00 -0.10000000000E+04  0.10000000000E+04  0.00000000000E+00 0.  1.
    9000005    2    1    2  501    0 -0.21068269059E+02  0.38088652347E+02 -0.63180026754E+03  0.63330796876E+03  0.35760075842E+01 0.  0.
         13    1    3    3    0    0 -0.13112421400E+02  0.24066650952E+02 -0.42217449289E+03  0.42306316518E+03  0.00000000000E+00 0.  1.
          3    1    3    3  501    0 -0.79558476597E+01  0.14022001395E+02 -0.20962577465E+03  0.21024480358E+03  0.00000000000E+00 0.  1.
         -3    1    1    2    0  502  0.21068269059E+02 -0.38088652347E+02 -0.36615683665E+03  0.36873492705E+03  0.00000000000E+00 0. -1.
<mgrwt>
<rscale>  1 0.30000000E+03</rscale>
<asrwt>0</asrwt>
<pdfrwt beam="1">  1       21 0.74287277E-02 0.30000000E+03</pdfrwt>
<pdfrwt beam="2">0</pdfrwt>
<totfact> 0.14545557E+04</totfact>
</mgrwt>
</event>
<event>
 6    1  0.1198667E-001  0.3000000E+03  0.7818608E-02  0.1093470E+00
         21   -1    0    0  501  502  0.00000000000E+00  0.00000000000E+00  0.15687922246E+02  0.15687922246E+02  0.00000000000E+00 0. -1.
         13   -1    0    0    0    0 -0.00000000000E+00 -0.00000000000E+00 -0.10000000000E+04  0.10000000000E+04  0.00000000000E+00 0.  1.
    9000005    2    1    2  501    0  0.22850605682E+02  0.23290503182E+02 -0.98245974920E+03  0.98300721173E+03  0.33796166095E+01 0.  0.
         13    1    3    3    0    0  0.13992944084E+02  0.16535350495E+02 -0.64410356404E+03  0.64446770401E+03  0.00000000000E+00 0.  1.
          3    1    3    3  501    0  0.88576615980E+01  0.67551526872E+01 -0.33835618515E+03  0.33853950772E+03  0.00000000000E+00 0.  1.
         -1    1    1    2    0  502 -0.22850605682E+02 -0.23290503182E+02 -0.18523285571E+01  0.32680710512E+02  0.00000000000E+00 0. -1.
<mgrwt>
<rscale>  1 0.30000000E+03</rscale>
<asrwt>0</asrwt>
<pdfrwt beam="1">  1       21 0.57047110E-01 0.30000000E+03</pdfrwt>
<pdfrwt beam="2">0</pdfrwt>
<totfact> 0.28112749E+02</totfact>
</mgrwt>
</event>
<event>
 6    1  0.1198667E-001  0.3000000E+03  0.7818608E-02  0.1093470E+00
         21   -1    0    0  501  502  0.00000000000E+00  0.00000000000E+00  0.16369364365E+01  0.16369364365E+01  0.00000000000E+00 0. -1.
         13   -1    0    0    0    0 -0.00000000000E+00 -0.00000000000E+00 -0.10000000000E+04  0.10000000000E+04  0.00000000000E+00 0.  1.
    9000005    2    1    2  501    0 -0.21537352114E+02  0.34125368585E+02 -0.48550190255E+03  0.48719066248E+03  0.37743748721E+01 0.  0.
         13    1    3    3    0    0 -0.70433361741E+01  0.81393400877E+01 -0.12402061787E+03  0.12448683102E+03  0.00000000000E+00 0.  1.
          3    1    3    3  501    0 -0.14494015940E+02  0.25986028497E+02 -0.36148128468E+03  0.36270383145E+03  0.00000000000E+00 0.  1.
         -3    1    1    2    0  502  0.21537352114E+02 -0.34125368585E+02 -0.51286116101E+03  0.51444627396E+03  0.00000000000E+00 0. -1.
<mgrwt>
<rscale>  1 0.30000000E+03</rscale>
<asrwt>0</asrwt>
<pdfrwt beam="1">  1       21 0.59525087E-02 0.30000000E+03</pdfrwt>
<pdfrwt beam="2">0</pdfrwt>
<totfact> 0.21362400E+04</totfact>
</mgrwt>
</event>
<event>
 6    1  0.1198667E-001  0.3000000E+03  0.7818608E-02  0.1093470E+00
         21   -1    0    0  501  502  0.00000000000E+00  0.00000000000E+00  0.23867669622E+01  0.23867669622E+01  0.00000000000E+00 0. -1.
         13   -1    0    0    0    0 -0.00000000000E+00 -0.00000000000E+00 -0.10000000000E+04  0.10000000000E+04  0.00000000000E+00 0.  1.
    9000005    2    1    2  501    0 -0.41329895742E+02  0.58274596937E+01 -0.75857286815E+03  0.75972977528E+03  0.37967853293E+01 0.  0.
         13    1    3    3    0    0 -0.15486652304E+02  0.31113497969E+01 -0.31628519933E+03  0.31667940289E+03  0.00000000000E+00 0.  1.
          3    1    3    3  501    0 -0.25843243438E+02  0.27161098968E+01 -0.44228766882E+03  0.44305037239E+03  0.00000000000E+00 0.  1.
         -3    1    1    2    0  502  0.41329895742E+02 -0.58274596937E+01 -0.23904036488E+03  0.24265699168E+03  0.00000000000E+00 0. -1.
<mgrwt>
<rscale>  1 0.30000000E+03</rscale>
<asrwt>0</asrwt>
<pdfrwt beam="1">  1       21 0.86791709E-02 0.30000000E+03</pdfrwt>
<pdfrwt beam="2">0</pdfrwt>
<totfact> 0.11066292E+04</totfact>
</mgrwt>
</event>
<event>
 6    1  0.1198667E-001  0.3000000E+03  0.7818608E-02  0.1093470E+00
         21   -1    0    0  501  502  0.00000000000E+00  0.00000000000E+00  0.11357698071E+01  0.11357698071E+01  0.00000000000E+00 0. -1.
         13   -1    0    0    0    0 -0.00000000000E+00 -0.00000000000E+00 -0.10000000000E+04  0.10000000000E+04  0.00000000000E+00 0.  1.
    9000005    2    1    2  501    0  0.29942402683E+02 -0.13525164748E+02 -0.60840456484E+03  0.60929622633E+03  0.25098505351E+01 0.  0.
         13    1    3    3    0    0  0.71085228675E+01 -0.40686797205E+01 -0.16578512302E+03  0.16598732563E+03  0.00000000000E+00 0.  1.
          3    1    3    3  501    0  0.22833879816E+02 -0.94564850270E+01 -0.44261944181E+03  0.44330890071E+03  0.00000000000E+00 0.  1.
         -3    1    1    2    0  502 -0.29942402683E+02  0.13525164748E+02 -0.39045966536E+03  0.39183954347E+03  0.00000000000E+00 0. -1.
<mgrwt>
<rscale>  1 0.30000000E+03</rscale>
<asrwt>0</asrwt>
<pdfrwt beam="1">  1       21 0.41300807E-02 0.30000000E+03</pdfrwt>
<pdfrwt beam="2">0</pdfrwt>
<totfact> 0.39839417E+04</totfact>
</mgrwt>
</event>
<event>
 6    1  0.1198667E-001  0.3000000E+03  0.7818608E-02  0.1093470E+00
         21   -1    0    0  501  502  0.00000000000E+00  0.00000000000E+00  0.21050174357E+01  0.21050174357E+01  0.00000000000E+00 0. -1.
         13   -1    0    0    0    0 -0.00000000000E+00 -0.00000000000E+00 -0.10000000000E+04  0.10000000000E+04  0.00000000000E+00 0.  1.
    9000005    2    1    2  501    0 -0.36947391789E+01  0.30517098218E+02 -0.87076041075E+03  0.87130691450E+03  0.26649472728E+01 0.  0.
         13    1    3    3    0    0 -0.84890883374E+00  0.17799947561E+02 -0.49656153611E+03  0.49688119095E+03  0.00000000000E+00 0.  1.
          3    1    3    3  501    0 -0.28458303452E+01  0.12717150657E+02 -0.37419887464E+03  0.37442572355E+03  0.00000000000E+00 0.  1.
         -3    1    1    2    0  502  0.36947391789E+01 -0.30517098218E+02 -0.12713457181E+03  0.13079810293E+03  0.00000000000E+00 0. -1.
<mgrwt>
<rscale>  1 0.30000000E+03</rscale>
<asrwt>0</asrwt>
<pdfrwt beam="1">  1       21 0.76546250E-02 0.30000000E+03</pdfrwt>
<pdfrwt beam="2">0</pdfrwt>
<totfact> 0.13802167E+04</totfact>
</mgrwt>
</event>
<event>
 6    1  0.1198667E-001  0.3000000E+03  0.7818608E-02  0.1093470E+00
         21   -1    0    0  501  502  0.00000000000E+00  0.00000000000E+00  0.14229214282E+01  0.14229214282E+01  0.00000000000E+00 0. -1.
         13   -1    0    0    0    0 -0.00000000000E+00 -0.00000000000E+00 -0.10000000000E+04  0.10000000000E+04  0.00000000000E+00 0.  1.
    9000005    2    1    2  501    0  0.11240369630E+02  0.29541931172E+02 -0.77179318563E+03  0.77244692770E+03  0.32346744549E+01 0.  0.
         13    1    3    3    0    0  0.57298979756E+00  0.45740448389E+01 -0.11976065432E+03  0.11984934095E+03  0.00000000000E+00 0.  1.
          3    1    3    3  501    0  0.10667379832E+02  0.24967886333E+02 -0.65203253131E+03  0.65259758675E+03  0.00000000000E+00 0.  1.
         -3    1    1    2    0  502 -0.11240369630E+02 -0.29541931172E+02 -0.22678389294E+03  0.22897599373E+03  0.00000000000E+00 0. -1.
<mgrwt>
<rscale>  1 0.30000000E+03</rscale>
<asrwt>0</asrwt>
<pdfrwt beam="1">  1       21 0.51742707E-02 0.30000000E+03</pdfrwt>
<pdfrwt beam="2">0</pdfrwt>
<totfact> 0.27169101E+04</totfact>
</mgrwt>
</event>
<event>
 6    1  0.1198667E-001  0.3000000E+03  0.7818608E-02  0.1093470E+00
         21   -1    0    0  501  502  0.00000000000E+00  0.00000000000E+00  0.15350496471E+01  0.15350496471E+01  0.00000000000E+00 0. -1.
         13   -1    0    0    0    0 -0.00000000000E+00 -0.00000000000E+00 -0.10000000000E+04  0.10000000000E+04  0.00000000000E+00 0.  1.
    9000005    2    1    2  501    0  0.38734514443E+02  0.48246744974E+01 -0.46948822632E+03  0.47112010391E+03  0.33641583677E+01 0.  0.
         13    1    3    3    0    0  0.22870491271E+02  0.24423353569E+01 -0.29559846264E+03  0.29649194844E+03  0.00000000000E+00 0.  1.
          1    1    3    3  501    0  0.15864023173E+02  0.23823391404E+01 -0.17388976368E+03  0.17462815547E+03  0.00000000000E+00 0.  1.
         -3    1    1    2    0  502 -0.38734514443E+02 -0.48246744974E+01 -0.52897672403E+03  0.53041494574E+03  0.00000000000E+00 0. -1.
<mgrwt>
<rscale>  1 0.30000000E+03</rscale>
<asrwt>0</asrwt>
<pdfrwt beam="1">  1       21 0.55820105E-02 0.30000000E+03</pdfrwt>
<pdfrwt beam="2">0</pdfrwt>
<totfact> 0.23860503E+04</totfact>
</mgrwt>
</event>
<event>
 6    1  0.1198667E-001  0.3000000E+03  0.7818608E-02  0.1093470E+00
         21   -1    0    0  501  502  0.00000000000E+00  0.00000000000E+00  0.15675990946E+01  0.15675990946E+01  0.00000000000E+00 0. -1.
         13   -1    0    0    0    0 -0.00000000000E+00 -0.00000000000E+00 -0.10000000000E+04  0.10000000000E+04  0.00000000000E+00 0.  1.
    9000005    2    1    2  501    0  0.12450809997E+01 -0.35661585950E+02 -0.71509930616E+03  0.71599634438E+03  0.32324234020E+01 0.  0.
         13    1    3    3    0    0 -0.65235311618E+00 -0.22442415137E+01 -0.40956843641E+02  0.41023471642E+02  0.00000000000E+00 0.  1.
          3    1    3    3  501    0  0.18974341159E+01 -0.33417344436E+02 -0.67414246252E+03  0.67497287274E+03  0.00000000000E+00 0.  1.
         -1    1    1    2    0  502 -0.12450809997E+01  0.35661585950E+02 -0.28333309475E+03  0.28557125471E+03  0.00000000000E+00 0. -1.
<mgrwt>
<rscale>  1 0.30000000E+03</rscale>
<asrwt>0</asrwt>
<pdfrwt beam="1">  1       21 0.57003724E-02 0.30000000E+03</pdfrwt>
<pdfrwt beam="2">0</pdfrwt>
<totfact> 0.23015675E+04</totfact>
</mgrwt>
</event>
<event>
 6    1  0.1198667E-001  0.3000000E+03  0.7818608E-02  0.1093470E+00
         21   -1    0    0  501  502  0.00000000000E+00  0.00000000000E+00  0.17408196800E+01  0.17408196800E+01  0.00000000000E+00 0. -1.
         13   -1    0    0    0    0 -0.00000000000E+00 -0.00000000000E+00 -0.10000000000E+04  0.10000000000E+04  0.00000000000E+00 0.  1.
    9000005    2    1    2  501    0 -0.40888741249E+02  0.65737265841E+01 -0.55375379992E+03  0.55531038137E+03  0.33534598533E+01 0.  0.
         13    1    3    3    0    0 -0.50696827777E+01  0.22692028015E+00 -0.56268343332E+02  0.56496722362E+02  0.00000000000E+00 0.  1.
          1    1    3    3  501    0 -0.35819058471E+02  0.63468063040E+01 -0.49748545659E+03  0.49881365901E+03  0.00000000000E+00 0.  1.
         -3    1    1    2    0  502  0.40888741249E+02 -0.65737265841E+01 -0.44450538040E+03  0.44643043831E+03  0.00000000000E+00 0. -1.
<mgrwt>
<rscale>  1 0.30000000E+03</rscale>
<asrwt>0</asrwt>
<pdfrwt beam="1">  1       21 0.63302667E-02 0.30000000E+03</pdfrwt>
<pdfrwt beam="2">0</pdfrwt>
<totfact> 0.19209600E+04</totfact>
</mgrwt>
</event>
<event>
 6    1  0.1198667E-001  0.3000000E+03  0.7818608E-02  0.1093470E+00
         21   -1    0    0  501  502  0.00000000000E+00  0.00000000000E+00  0.15728522695E+01  0.15728522695E+01  0.00000000000E+00 0. -1.
         13   -1    0    0    0    0 -0.00000000000E+00 -0.00000000000E+00 -0.10000000000E+04  0.10000000000E+04  0.00000000000E+00 0.  1.
    9000005    2    1    2  501    0  0.27856620532E+02  0.20588791873E+02 -0.74207837444E+03  0.74289431968E+03  0.34302673112E+01 0.  0.
         13    1    3    3    0    0  0.20779431504E+02  0.14596559901E+02 -0.57185898966E+03  0.57242252610E+03  0.00000000000E+00 0.  1.
          1    1    3    3  501    0  0.70771890286E+01  0.59922319719E+01 -0.17021938478E+03  0.17047179358E+03  0.00000000000E+00 0.  1.
         -3    1    1    2    0  502 -0.27856620532E+02 -0.20588791873E+02 -0.25634877329E+03  0.25867853259E+03  0.00000000000E+00 0. -1.
<mgrwt>
<rscale>  1 0.30000000E+03</rscale>
<asrwt>0</asrwt>
<pdfrwt beam="1">  1       21 0.57194749E-02 0.30000000E+03</pdfrwt>
<pdfrwt beam="2">0</pdfrwt>
<totfact> 0.22883634E+04</totfact>
</mgrwt>
</event>
<event>
 6    1  0.1198667E-001  0.3000000E+03  0.7818608E-02  0.1093470E+00
         21   -1    0    0  501  502  0.00000000000E+00  0.00000000000E+00  0.30918935974E+01  0.30918935974E+01  0.00000000000E+00 0. -1.
         13   -1    0    0    0    0 -0.00000000000E+00 -0.00000000000E+00 -0.10000000000E+04  0.10000000000E+04  0.00000000000E+00 0.  1.
    9000005    2    1    2  501    0 -0.29399267810E+02 -0.20188732162E+02 -0.88303581126E+03  0.88376544449E+03  0.41491039826E+01 0.  0.
         13    1    3    3    0    0 -0.42962731531E+00  0.12858379595E+00 -0.19211087271E+02  0.19216320864E+02  0.00000000000E+00 0.  1.
          1    1    3    3  501    0 -0.28969640495E+02 -0.20317315958E+02 -0.86382472399E+03  0.86454912363E+03  0.00000000000E+00 0.  1.
         -3    1    1    2    0  502  0.29399267810E+02  0.20188732162E+02 -0.11387229515E+03  0.11932644910E+03  0.00000000000E+00 0. -1.
<mgrwt>
<rscale>  1 0.30000000E+03</rscale>
<asrwt>0</asrwt>
<pdfrwt beam="1">  1       21 0.11243273E-01 0.30000000E+03</pdfrwt>
<pdfrwt beam="2">0</pdfrwt>
<totfact> 0.69718947E+03</totfact>
</mgrwt>
</event>
<event>
 6    1  0.1198667E-001  0.3000000E+03  0.7818608E-02  0.1093470E+00
         21   -1    0    0  501  502  0.00000000000E+00  0.00000000000E+00  0.12915659492E+01  0.12915659492E+01  0.00000000000E+00 0. -1.
         13   -1    0    0    0    0 -0.00000000000E+00 -0.00000000000E+00 -0.10000000000E+04  0.10000000000E+04  0.00000000000E+00 0.  1.
    9000005    2    1    2  501    0 -0.32762825011E+02 -0.13914648035E+02 -0.55988302370E+03  0.56102487302E+03  0.35899565075E+01 0.  0.
         13    1    3    3    0    0 -0.11280292332E+02 -0.30825570488E+01 -0.19267530948E+03  0.19302984753E+03  0.00000000000E+00 0.  1.
          3    1    3    3  501    0 -0.21482532679E+02 -0.10832090986E+02 -0.36720771422E+03  0.36799502549E+03  0.00000000000E+00 0.  1.
         -1    1    1    2    0  502  0.32762825011E+02  0.13914648035E+02 -0.43882541035E+03  0.44026669293E+03  0.00000000000E+00 0. -1.
<mgrwt>
<rscale>  1 0.30000000E+03</rscale>
<asrwt>0</asrwt>
<pdfrwt beam="1">  1       21 0.46966134E-02 0.30000000E+03</pdfrwt>
<pdfrwt beam="2">0</pdfrwt>
<totfact> 0.32043580E+04</totfact>
</mgrwt>
</event>
<event>
 6    1  0.1198667E-001  0.3000000E+03  0.7818608E-02  0.1093470E+00
         21   -1    0    0  501  502  0.00000000000E+00  0.00000000000E+00  0.37881485611E+01  0.37881485611E+01  0.00000000000E+00 0. -1.
         13   -1    0    0    0    0 -0.00000000000E+00 -0.00000000000E+00 -0.10000000000E+04  0.10000000000E+04  0.00000000000E+00 0.  1.
    9000005    2    1    2  501    0  0.20264448206E+02 -0.30634113841E+02 -0.96238252646E+02  0.10306534141E+03  0.34009610973E+01 0.  0.
         13    1    3    3    0    0  0.49536696685E+01 -0.90081789660E+01 -0.23461772844E+02  0.25615247734E+02  0.00000000000E+00 0.  1.
          1    1    3    3  501    0  0.15310778537E+02 -0.21625934875E+02 -0.72776479802E+02  0.77450093679E+02  0.00000000000E+00 0.  1.
         -1    1    1    2    0  502 -0.20264448206E+02  0.30634113841E+02 -0.89997359879E+03  0.90072280715E+03  0.00000000000E+00 0. -1.
<mgrwt>
<rscale>  1 0.30000000E+03</rscale>
<asrwt>0</asrwt>
<pdfrwt beam="1">  1       21 0.13775115E-01 0.30000000E+03</pdfrwt>
<pdfrwt beam="2">0</pdfrwt>
<totfact> 0.48178068E+03</totfact>
</mgrwt>
</event>
<event>
 6    1  0.1198667E-001  0.3000000E+03  0.7818608E-02  0.1093470E+00
         21   -1    0    0  501  502  0.00000000000E+00  0.00000000000E+00  0.19715730011E+01  0.19715730011E+01  0.00000000000E+00 0. -1.
         13   -1    0    0    0    0 -0.00000000000E+00 -0.00000000000E+00 -0.10000000000E+04  0.10000000000E+04  0.00000000000E+00 0.  1.
    9000005    2    1    2  501    0  0.30352753786E+02 -0.69900306476E+01 -0.85578388408E+03  0.85635680665E+03  0.32823535293E+01 0.  0.
         13    1    3    3    0    0  0.25874423007E+02 -0.59838169305E+01 -0.69438149314E+03  0.69488916371E+03  0.00000000000E+00 0.  1.
          3    1    3    3  501    0  0.44783307787E+01 -0.10062137171E+01 -0.16140239095E+03  0.16146764294E+03  0.00000000000E+00 0.  1.
         -1    1    1    2    0  502 -0.30352753786E+02  0.69900306476E+01 -0.14224454292E+03  0.14561476635E+03  0.00000000000E+00 0. -1.
<mgrwt>
<rscale>  1 0.30000000E+03</rscale>
<asrwt>0</asrwt>
<pdfrwt beam="1">  1       21 0.71693715E-02 0.30000000E+03</pdfrwt>
<pdfrwt beam="2">0</pdfrwt>
<totfact> 0.15477068E+04</totfact>
</mgrwt>
</event>
<event>
 6    1  0.1198667E-001  0.3000000E+03  0.7818608E-02  0.1093470E+00
         21   -1    0    0  501  502  0.00000000000E+00  0.00000000000E+00  0.15558940014E+01  0.15558940014E+01  0.00000000000E+00 0. -1.
         13   -1    0    0    0    0 -0.00000000000E+00 -0.00000000000E+00 -0.10000000000E+04  0.10000000000E+04  0.00000000000E+00 0.  1.
    9000005    2    1    2  501    0  0.22996341037E+02 -0.31568327159E+02 -0.43831752915E+03  0.44006931974E+03  0.36549743921E+01 0.  0.
         13    1    3    3    0    0  0.19977317344E+02 -0.25388445123E+02 -0.36892620132E+03  0.37033796507E+03  0.00000000000E+00 0.  1.
          3    1    3    3  501    0  0.30190236928E+01 -0.61798820357E+01 -0.69391327834E+02  0.69731354673E+02  0.00000000000E+00 0.  1.
         -1    1    1    2    0  502 -0.22996341037E+02  0.31568327159E+02 -0.56012657685E+03  0.56148657426E+03  0.00000000000E+00 0. -1.
<mgrwt>
<rscale>  1 0.30000000E+03</rscale>
<asrwt>0</asrwt>
<pdfrwt beam="1">  1       21 0.56578083E-02 0.30000000E+03</pdfrwt>
<pdfrwt beam="2">0</pdfrwt>
<totfact> 0.23314121E+04</totfact>
</mgrwt>
</event>
<event>
 6    1  0.1198667E-001  0.3000000E+03  0.7818608E-02  0.1093470E+00
         21   -1    0    0  501  502  0.00000000000E+00  0.00000000000E+00  0.33770651690E+01  0.33770651690E+01  0.00000000000E+00 0. -1.
         13   -1    0    0    0    0 -0.00000000000E+00 -0.00000000000E+00 -0.10000000000E+04  0.10000000000E+04  0.00000000000E+00 0.  1.
    9000005    2    1    2  501    0  0.15423293428E+02 -0.47558880421E+02 -0.75290604155E+03  0.75458468354E+03  0.55508684718E+01 0.  0.
         13    1    3    3    0    0  0.44647856730E+01 -0.21202880705E+02 -0.30236120250E+03  0.30313659172E+03  0.00000000000E+00 0.  1.
          1    1    3    3  501    0  0.10958507755E+02 -0.26355999716E+02 -0.45054483905E+03  0.45144809182E+03  0.00000000000E+00 0.  1.
         -3    1    1    2    0  502 -0.15423293428E+02  0.47558880421E+02 -0.24371689328E+03  0.24879238163E+03  0.00000000000E+00 0. -1.
<mgrwt>
<rscale>  1 0.30000000E+03</rscale>
<asrwt>0</asrwt>
<pdfrwt beam="1">  1       21 0.12280263E-01 0.30000000E+03</pdfrwt>
<pdfrwt beam="2">0</pdfrwt>
<totfact> 0.59424856E+03</totfact>
</mgrwt>
</event>
<event>
 6    1  0.1198667E-001  0.3000000E+03  0.7818608E-02  0.1093470E+00
         21   -1    0    0  501  502  0.00000000000E+00  0.00000000000E+00  0.13342616566E+01  0.13342616566E+01  0.00000000000E+00 0. -1.
         13   -1    0    0    0    0 -0.00000000000E+00 -0.00000000000E+00 -0.10000000000E+04  0.10000000000E+04  0.00000000000E+00 0.  1.
    9000005    2    1    2  501    0 -0.18432315341E+02  0.28999555013E+02 -0.66739489999E+03  0.66828607778E+03  0.30991584162E+01 0.  0.
         13    1    3    3    0    0 -0.70217831374E+01  0.93177797773E+01 -0.24877824137E+03  0.24905168106E+03  0.00000000000E+00 0.  1.
          1    1    3    3  501    0 -0.11410532204E+02  0.19681775235E+02 -0.41861665862E+03  0.41923439673E+03  0.00000000000E+00 0.  1.
         -1    1    1    2    0  502  0.18432315341E+02 -0.28999555013E+02 -0.33127083835E+03  0.33304818387E+03  0.00000000000E+00 0. -1.
<mgrwt>
<rscale>  1 0.30000000E+03</rscale>
<asrwt>0</asrwt>
<pdfrwt beam="1">  1       21 0.48518708E-02 0.30000000E+03</pdfrwt>
<pdfrwt beam="2">0</pdfrwt>
<totfact> 0.30318796E+04</totfact>
</mgrwt>
</event>
<event>
 6    1  0.1198667E-001  0.3000000E+03  0.7818608E-02  0.1093470E+00
         21   -1    0    0  501  502  0.00000000000E+00  0.00000000000E+00  0.17498040714E+01  0.17498040714E+01  0.00000000000E+00 0. -1.
         13   -1    0    0    0    0 -0.00000000000E+00 -0.00000000000E+00 -0.10000000000E+04  0.10000000000E+04  0.00000000000E+00 0.  1.
    9000005    2    1    2  501    0  0.84611955842E+01  0.31582961596E+02 -0.81108900652E+03  0.81175405118E+03  0.31918371641E+01 0.  0.
         13    1    3    3    0    0  0.52873466913E+01  0.15650992162E+02 -0.43847040101E+03  0.43878149705E+03  0.00000000000E+00 0.  1.
          1    1    3    3  501    0  0.31738488929E+01  0.15931969434E+02 -0.37261860551E+03  0.37297255413E+03  0.00000000000E+00 0.  1.
         -3    1    1    2    0  502 -0.84611955842E+01 -0.31582961596E+02 -0.18716118941E+03  0.18999575289E+03  0.00000000000E+00 0. -1.
<mgrwt>
<rscale>  1 0.30000000E+03</rscale>
<asrwt>0</asrwt>
<pdfrwt beam="1">  1       21 0.63629373E-02 0.30000000E+03</pdfrwt>
<pdfrwt beam="2">0</pdfrwt>
<totfact> 0.19039375E+04</totfact>
</mgrwt>
</event>
<event>
 6    1  0.1198667E-001  0.3000000E+03  0.7818608E-02  0.1093470E+00
         21   -1    0    0  501  502  0.00000000000E+00  0.00000000000E+00  0.14484785838E+01  0.14484785838E+01  0.00000000000E+00 0. -1.
         13   -1    0    0    0    0 -0.00000000000E+00 -0.00000000000E+00 -0.10000000000E+04  0.10000000000E+04  0.00000000000E+00 0.  1.
    9000005    2    1    2  501    0  0.27759591765E+02  0.12859262370E+02 -0.79625766214E+03  0.79685434117E+03  0.38237363276E+01 0.  0.
         13    1    3    3    0    0  0.26203348788E+02  0.11349977410E+02 -0.75489290231E+03  0.75543281067E+03  0.00000000000E+00 0.  1.
          1    1    3    3  501    0  0.15562429770E+01  0.15092849601E+01 -0.41364759832E+02  0.41421530504E+02  0.00000000000E+00 0.  1.
         -1    1    1    2    0  502 -0.27759591765E+02 -0.12859262370E+02 -0.20229385928E+03  0.20459413741E+03  0.00000000000E+00 0. -1.
<mgrwt>
<rscale>  1 0.30000000E+03</rscale>
<asrwt>0</asrwt>
<pdfrwt beam="1">  1       21 0.52672060E-02 0.30000000E+03</pdfrwt>
<pdfrwt beam="2">0</pdfrwt>
<totfact> 0.26355105E+04</totfact>
</mgrwt>
</event>
<event>
 6    1  0.1198667E-001  0.3000000E+03  0.7818608E-02  0.1093470E+00
         21   -1    0    0  501  502  0.00000000000E+00  0.00000000000E+00  0.16006447246E+01  0.16006447246E+01  0.00000000000E+00 0. -1.
         13   -1    0    0    0    0 -0.00000000000E+00 -0.00000000000E+00 -0.10000000000E+04  0.10000000000E+04  0.00000000000E+00 0.  1.
    9000005    2    1    2  501    0  0.38807563500E+02 -0.47566193906E+01 -0.59724323262E+03  0.59854371679E+03  0.51429159433E+01 0.  0.
         13    1    3    3    0    0  0.13367164372E+02  0.77396441660E+00 -0.20946816173E+03  0.20989566666E+03  0.00000000000E+00 0.  1.
          3    1    3    3  501    0  0.25440399129E+02 -0.55305838072E+01 -0.38777507089E+03  0.38864805013E+03  0.00000000000E+00 0.  1.
         -3    1    1    2    0  502 -0.38807563500E+02  0.47566193906E+01 -0.40115612265E+03  0.40305692793E+03  0.00000000000E+00 0. -1.
<mgrwt>
<rscale>  1 0.30000000E+03</rscale>
<asrwt>0</asrwt>
<pdfrwt beam="1">  1       21 0.58205385E-02 0.30000000E+03</pdfrwt>
<pdfrwt beam="2">0</pdfrwt>
<totfact> 0.22203970E+04</totfact>
</mgrwt>
</event>
<event>
 6    1  0.1198667E-001  0.3000000E+03  0.7818608E-02  0.1093470E+00
         21   -1    0    0  501  502  0.00000000000E+00  0.00000000000E+00  0.12110015079E+01  0.12110015079E+01  0.00000000000E+00 0. -1.
         13   -1    0    0    0    0 -0.00000000000E+00 -0.00000000000E+00 -0.10000000000E+04  0.10000000000E+04  0.00000000000E+00 0.  1.
    9000005    2    1    2  501    0  0.15000422599E+02  0.30045378785E+02 -0.62941006284E+03  0.63030867532E+03  0.20643451885E+01 0.  0.
         13    1    3    3    0    0  0.90723181961E+01  0.15935951636E+02 -0.33850560925E+03  0.33900193069E+03  0.00000000000E+00 0.  1.
          1    1    3    3  501    0  0.59281044026E+01  0.14109427150E+02 -0.29090445359E+03  0.29130674464E+03  0.00000000000E+00 0.  1.
         -3    1    1    2    0  502 -0.15000422599E+02 -0.30045378785E+02 -0.36937893565E+03  0.37090232618E+03  0.00000000000E+00 0. -1.
<mgrwt>
<rscale>  1 0.30000000E+03</rscale>
<asrwt>0</asrwt>
<pdfrwt beam="1">  1       21 0.44036511E-02 0.30000000E+03</pdfrwt>
<pdfrwt beam="2">0</pdfrwt>
<totfact> 0.35746141E+04</totfact>
</mgrwt>
</event>
<event>
 6    1  0.1198667E-001  0.3000000E+03  0.7818608E-02  0.1093470E+00
         21   -1    0    0  501  502  0.00000000000E+00  0.00000000000E+00  0.51513468204E+01  0.51513468204E+01  0.00000000000E+00 0. -1.
         13   -1    0    0    0    0 -0.00000000000E+00 -0.00000000000E+00 -0.10000000000E+04  0.10000000000E+04  0.00000000000E+00 0.  1.
    9000005    2    1    2  501    0  0.43258582106E+02 -0.47415179657E+01 -0.89633570202E+03  0.89745460377E+03  0.10643692308E+02 0.  0.
         13    1    3    3    0    0  0.24472671912E+02 -0.26728999867E+01 -0.39800175640E+03  0.39876240314E+03  0.00000000000E+00 0.  1.
          3    1    3    3  501    0  0.18785910194E+02 -0.20686179790E+01 -0.49833394563E+03  0.49869220063E+03  0.00000000000E+00 0.  1.
         -1    1    1    2    0  502 -0.43258582106E+02  0.47415179657E+01 -0.98512951158E+02  0.10769674305E+03  0.00000000000E+00 0. -1.
<mgrwt>
<rscale>  1 0.30000000E+03</rscale>
<asrwt>0</asrwt>
<pdfrwt beam="1">  1       21 0.18732210E-01 0.30000000E+03</pdfrwt>
<pdfrwt beam="2">0</pdfrwt>
<totfact> 0.27171534E+03</totfact>
</mgrwt>
</event>
<event>
 6    1  0.1198667E-001  0.3000000E+03  0.7818608E-02  0.1093470E+00
         21   -1    0    0  501  502  0.00000000000E+00  0.00000000000E+00  0.52852268533E+01  0.52852268533E+01  0.00000000000E+00 0. -1.
         13   -1    0    0    0    0 -0.00000000000E+00 -0.00000000000E+00 -0.10000000000E+04  0.10000000000E+04  0.00000000000E+00 0.  1.
    9000005    2    1    2  501    0  0.11395666104E+01 -0.72393382779E+02 -0.45697860238E+03  0.46269671809E+03  0.40877161577E+01 0.  0.
         13    1    3    3    0    0  0.59364249795E+00 -0.15229510849E+02 -0.86193151236E+02  0.87530278944E+02  0.00000000000E+00 0.  1.
          1    1    3    3  501    0  0.54592411245E+00 -0.57163871930E+02 -0.37078545114E+03  0.37516643915E+03  0.00000000000E+00 0.  1.
         -3    1    1    2    0  502 -0.11395666104E+01  0.72393382779E+02 -0.53773617077E+03  0.54258850876E+03  0.00000000000E+00 0. -1.
<mgrwt>
<rscale>  1 0.30000000E+03</rscale>
<asrwt>0</asrwt>
<pdfrwt beam="1">  1       21 0.19219047E-01 0.30000000E+03</pdfrwt>
<pdfrwt beam="2">0</pdfrwt>
<totfact> 0.25881978E+03</totfact>
</mgrwt>
</event>
<event>
 6    1  0.1198667E-001  0.3000000E+03  0.7818608E-02  0.1093470E+00
         21   -1    0    0  501  502  0.00000000000E+00  0.00000000000E+00  0.15038023617E+01  0.15038023617E+01  0.00000000000E+00 0. -1.
         13   -1    0    0    0    0 -0.00000000000E+00 -0.00000000000E+00 -0.10000000000E+04  0.10000000000E+04  0.00000000000E+00 0.  1.
    9000005    2    1    2  501    0  0.13909922009E+02  0.33706831122E+02 -0.33239040244E+03  0.33440068680E+03  0.32868379685E+01 0.  0.
         13    1    3    3    0    0  0.26971982836E+01  0.72510727217E+01 -0.59209249818E+02  0.59712546406E+02  0.00000000000E+00 0.  1.
          1    1    3    3  501    0  0.11212723725E+02  0.26455758400E+02 -0.27318115262E+03  0.27468814039E+03  0.00000000000E+00 0.  1.
         -1    1    1    2    0  502 -0.13909922009E+02 -0.33706831122E+02 -0.66610579520E+03  0.66710311556E+03  0.00000000000E+00 0. -1.
<mgrwt>
<rscale>  1 0.30000000E+03</rscale>
<asrwt>0</asrwt>
<pdfrwt beam="1">  1       21 0.54683838E-02 0.30000000E+03</pdfrwt>
<pdfrwt beam="2">0</pdfrwt>
<totfact> 0.24717226E+04</totfact>
</mgrwt>
</event>
<event>
 6    1  0.1198667E-001  0.3000000E+03  0.7818608E-02  0.1093470E+00
         21   -1    0    0  501  502  0.00000000000E+00  0.00000000000E+00  0.95846217215E+00  0.95846217215E+00  0.00000000000E+00 0. -1.
         13   -1    0    0    0    0 -0.00000000000E+00 -0.00000000000E+00 -0.10000000000E+04  0.10000000000E+04  0.00000000000E+00 0.  1.
    9000005    2    1    2  501    0  0.18777536223E+02 -0.23828603804E+02 -0.59128572148E+03  0.59207558898E+03  0.37815885366E+01 0.  0.
         13    1    3    3    0    0  0.17194311718E+02 -0.21943785984E+02 -0.51925042376E+03  0.51999824680E+03  0.00000000000E+00 0.  1.
          1    1    3    3  501    0  0.15832245051E+01 -0.18848178196E+01 -0.72035297718E+02  0.72077342178E+02  0.00000000000E+00 0.  1.
         -3    1    1    2    0  502 -0.18777536223E+02  0.23828603804E+02 -0.40775581635E+03  0.40888287319E+03  0.00000000000E+00 0. -1.
<mgrwt>
<rscale>  1 0.30000000E+03</rscale>
<asrwt>0</asrwt>
<pdfrwt beam="1">  1       21 0.34853243E-02 0.30000000E+03</pdfrwt>
<pdfrwt beam="2">0</pdfrwt>
<totfact> 0.52988261E+04</totfact>
</mgrwt>
</event>
<event>
 6    1  0.1198667E-001  0.3000000E+03  0.7818608E-02  0.1093470E+00
         21   -1    0    0  501  502  0.00000000000E+00  0.00000000000E+00  0.11112300801E+01  0.11112300801E+01  0.00000000000E+00 0. -1.
         13   -1    0    0    0    0 -0.00000000000E+00 -0.00000000000E+00 -0.10000000000E+04  0.10000000000E+04  0.00000000000E+00 0.  1.
    9000005    2    1    2  501    0  0.25553571073E+02 -0.18603043346E+02 -0.65578802927E+03  0.65655763998E+03  0.33071235301E+01 0.  0.
         13    1    3    3    0    0  0.79146627345E+01 -0.40673064080E+01 -0.17222040072E+03  0.17245014147E+03  0.00000000000E+00 0.  1.
          1    1    3    3  501    0  0.17638908339E+02 -0.14535736938E+02 -0.48356762855E+03  0.48410749851E+03  0.00000000000E+00 0.  1.
         -1    1    1    2    0  502 -0.25553571073E+02  0.18603043346E+02 -0.34310074065E+03  0.34455359010E+03  0.00000000000E+00 0. -1.
<mgrwt>
<rscale>  1 0.30000000E+03</rscale>
<asrwt>0</asrwt>
<pdfrwt beam="1">  1       21 0.40408452E-02 0.30000000E+03</pdfrwt>
<pdfrwt beam="2">0</pdfrwt>
<totfact> 0.41333874E+04</totfact>
</mgrwt>
</event>
<event>
 6    1  0.1198667E-001  0.3000000E+03  0.7818608E-02  0.1093470E+00
         21   -1    0    0  501  502  0.00000000000E+00  0.00000000000E+00  0.10419789787E+01  0.10419789787E+01  0.00000000000E+00 0. -1.
         13   -1    0    0    0    0 -0.00000000000E+00 -0.00000000000E+00 -0.10000000000E+04  0.10000000000E+04  0.00000000000E+00 0.  1.
    9000005    2    1    2  501    0  0.10352518005E+02  0.30145002160E+02 -0.56914506478E+03  0.57004885475E+03  0.37008441896E+01 0.  0.
         13    1    3    3    0    0  0.10615944876E+01  0.59296830762E+01 -0.88823549626E+02  0.89027586131E+02  0.00000000000E+00 0.  1.
          3    1    3    3  501    0  0.92909235171E+01  0.24215319084E+02 -0.48032151516E+03  0.48102126862E+03  0.00000000000E+00 0.  1.
         -1    1    1    2    0  502 -0.10352518005E+02 -0.30145002160E+02 -0.42981295624E+03  0.43099312423E+03  0.00000000000E+00 0. -1.
<mgrwt>
<rscale>  1 0.30000000E+03</rscale>
<asrwt>0</asrwt>
<pdfrwt beam="1">  1       21 0.37890225E-02 0.30000000E+03</pdfrwt>
<pdfrwt beam="2">0</pdfrwt>
<totfact> 0.46059404E+04</totfact>
</mgrwt>
</event>
<event>
 6    1  0.1198667E-001  0.3000000E+03  0.7818608E-02  0.1093470E+00
         21   -1    0    0  501  502  0.00000000000E+00  0.00000000000E+00  0.22241819249E+01  0.22241819249E+01  0.00000000000E+00 0. -1.
         13   -1    0    0    0    0 -0.00000000000E+00 -0.00000000000E+00 -0.10000000000E+04  0.10000000000E+04  0.00000000000E+00 0.  1.
    9000005    2    1    2  501    0 -0.24822590686E+02 -0.21564689720E+02 -0.85698073946E+03  0.85764046564E+03  0.70699119823E+01 0.  0.
         13    1    3    3    0    0 -0.10812744210E+02 -0.10125920111E+02 -0.29910603928E+03  0.29947265723E+03  0.00000000000E+00 0.  1.
          1    1    3    3  501    0 -0.14009846476E+02 -0.11438769608E+02 -0.55787470018E+03  0.55816780842E+03  0.00000000000E+00 0.  1.
         -1    1    1    2    0  502  0.24822590686E+02  0.21564689720E+02 -0.14079507862E+03  0.14458371628E+03  0.00000000000E+00 0. -1.
<mgrwt>
<rscale>  1 0.30000000E+03</rscale>
<asrwt>0</asrwt>
<pdfrwt beam="1">  1       21 0.80879513E-02 0.30000000E+03</pdfrwt>
<pdfrwt beam="2">0</pdfrwt>
<totfact> 0.12530811E+04</totfact>
</mgrwt>
</event>
<event>
 6    1  0.1198667E-001  0.3000000E+03  0.7818608E-02  0.1093470E+00
         21   -1    0    0  501  502  0.00000000000E+00  0.00000000000E+00  0.66096207823E+01  0.66096207823E+01  0.00000000000E+00 0. -1.
         13   -1    0    0    0    0 -0.00000000000E+00 -0.00000000000E+00 -0.10000000000E+04  0.10000000000E+04  0.00000000000E+00 0.  1.
    9000005    2    1    2  501    0  0.32132161851E+02 -0.29677951253E+02 -0.92091084806E+03  0.92195420718E+03  0.30843867699E+01 0.  0.
         13    1    3    3    0    0  0.12800389027E+02 -0.98017761979E+01 -0.34035072604E+03  0.34073236050E+03  0.00000000000E+00 0.  1.
          3    1    3    3  501    0  0.19331772824E+02 -0.19876175056E+02 -0.58056012202E+03  0.58122184668E+03  0.00000000000E+00 0.  1.
         -1    1    1    2    0  502 -0.32132161851E+02  0.29677951253E+02 -0.72479531160E+02  0.84655413607E+02  0.00000000000E+00 0. -1.
<mgrwt>
<rscale>  1 0.30000000E+03</rscale>
<asrwt>0</asrwt>
<pdfrwt beam="1">  1       21 0.24035035E-01 0.30000000E+03</pdfrwt>
<pdfrwt beam="2">0</pdfrwt>
<totfact> 0.16841208E+03</totfact>
</mgrwt>
</event>
<event>
 6    1  0.1198667E-001  0.3000000E+03  0.7818608E-02  0.1093470E+00
         21   -1    0    0  501  502  0.00000000000E+00  0.00000000000E+00  0.15470977980E+01  0.15470977980E+01  0.00000000000E+00 0. -1.
         13   -1    0    0    0    0 -0.00000000000E+00 -0.00000000000E+00 -0.10000000000E+04  0.10000000000E+04  0.00000000000E+00 0.  1.
    9000005    2    1    2  501    0  0.30878055251E+02  0.46881005858E+01 -0.22071876018E+03  0.22318610940E+03  0.10946951787E+02 0.  0.
         13    1    3    3    0    0  0.89687375351E+01  0.30410211633E+01 -0.38505153408E+02  0.39652653148E+02  0.00000000000E+00 0.  1.
          3    1    3    3  501    0  0.21909317716E+02  0.16470794226E+01 -0.18221360677E+03  0.18353345625E+03  0.00000000000E+00 0.  1.
         -3    1    1    2    0  502 -0.30878055251E+02 -0.46881005858E+01 -0.77773414203E+03  0.77836098840E+03  0.00000000000E+00 0. -1.
<mgrwt>
<rscale>  1 0.30000000E+03</rscale>
<asrwt>0</asrwt>
<pdfrwt beam="1">  1       21 0.56258220E-02 0.30000000E+03</pdfrwt>
<pdfrwt beam="2">0</pdfrwt>
<totfact> 0.23542325E+04</totfact>
</mgrwt>
</event>
<event>
 6    1  0.1198667E-001  0.3000000E+03  0.7818608E-02  0.1093470E+00
         21   -1    0    0  501  502  0.00000000000E+00  0.00000000000E+00  0.25127837328E+01  0.25127837328E+01  0.00000000000E+00 0. -1.
         13   -1    0    0    0    0 -0.00000000000E+00 -0.00000000000E+00 -0.10000000000E+04  0.10000000000E+04  0.00000000000E+00 0.  1.
    9000005    2    1    2  501    0 -0.19774693230E+02  0.37765507743E+02 -0.76214760167E+03  0.76334337460E+03  0.26208286313E+01 0.  0.
         13    1    3    3    0    0 -0.86622264921E+01  0.14129340188E+02 -0.28496612593E+03  0.28544765781E+03  0.00000000000E+00 0.  1.
          1    1    3    3  501    0 -0.11112466738E+02  0.23636167555E+02 -0.47718147574E+03  0.47789571679E+03  0.00000000000E+00 0.  1.
         -1    1    1    2    0  502  0.19774693230E+02 -0.37765507743E+02 -0.23533961459E+03  0.23916940913E+03  0.00000000000E+00 0. -1.
<mgrwt>
<rscale>  1 0.30000000E+03</rscale>
<asrwt>0</asrwt>
<pdfrwt beam="1">  1       21 0.91374147E-02 0.30000000E+03</pdfrwt>
<pdfrwt beam="2">0</pdfrwt>
<totfact> 0.10102997E+04</totfact>
</mgrwt>
</event>
<event>
 6    1  0.1198667E-001  0.3000000E+03  0.7818608E-02  0.1093470E+00
         21   -1    0    0  501  502  0.00000000000E+00  0.00000000000E+00  0.23800303604E+01  0.23800303604E+01  0.00000000000E+00 0. -1.
         13   -1    0    0    0    0 -0.00000000000E+00 -0.00000000000E+00 -0.10000000000E+04  0.10000000000E+04  0.00000000000E+00 0.  1.
    9000005    2    1    2  501    0 -0.30491599813E+01 -0.33174943287E+02 -0.86473325305E+03  0.86538092933E+03  0.32679762849E+01 0.  0.
         13    1    3    3    0    0 -0.24371861850E+01 -0.25877651553E+02 -0.70738254481E+03  0.70785991371E+03  0.00000000000E+00 0.  1.
          3    1    3    3  501    0 -0.61197379624E+00 -0.72972917341E+01 -0.15735070824E+03  0.15752101562E+03  0.00000000000E+00 0.  1.
         -1    1    1    2    0  502  0.30491599813E+01  0.33174943287E+02 -0.13288671659E+03  0.13699910103E+03  0.00000000000E+00 0. -1.
<mgrwt>
<rscale>  1 0.30000000E+03</rscale>
<asrwt>0</asrwt>
<pdfrwt beam="1">  1       21 0.86546741E-02 0.30000000E+03</pdfrwt>
<pdfrwt beam="2">0</pdfrwt>
<totfact> 0.11121667E+04</totfact>
</mgrwt>
</event>
<event>
 6    1  0.1198667E-001  0.3000000E+03  0.7818608E-02  0.1093470E+00
         21   -1    0    0  501  502  0.00000000000E+00  0.00000000000E+00  0.13172133567E+01  0.13172133567E+01  0.00000000000E+00 0. -1.
         13   -1    0    0    0    0 -0.00000000000E+00 -0.00000000000E+00 -0.10000000000E+04  0.10000000000E+04  0.00000000000E+00 0.  1.
    9000005    2    1    2  501    0 -0.40376635651E+01  0.35105800192E+02 -0.60960743146E+03  0.61064042630E+03  0.34336286870E+01 0.  0.
         13    1    3    3    0    0  0.57111115809E+00  0.32925823213E+01 -0.52180067269E+02  0.52286964785E+02  0.00000000000E+00 0.  1.
          3    1    3    3  501    0 -0.46087747232E+01  0.31813217871E+02 -0.55742736419E+03  0.55835346151E+03  0.00000000000E+00 0.  1.
         -3    1    1    2    0  502  0.40376635651E+01 -0.35105800192E+02 -0.38907535518E+03  0.39067678706E+03  0.00000000000E+00 0. -1.
<mgrwt>
<rscale>  1 0.30000000E+03</rscale>
<asrwt>0</asrwt>
<pdfrwt beam="1">  1       21 0.47898769E-02 0.30000000E+03</pdfrwt>
<pdfrwt beam="2">0</pdfrwt>
<totfact> 0.30989666E+04</totfact>
</mgrwt>
</event>
<event>
 6    1  0.1198667E-001  0.3000000E+03  0.7818608E-02  0.1093470E+00
         21   -1    0    0  501  502  0.00000000000E+00  0.00000000000E+00  0.17183451436E+01  0.17183451436E+01  0.00000000000E+00 0. -1.
         13   -1    0    0    0    0 -0.00000000000E+00 -0.00000000000E+00 -0.10000000000E+04  0.10000000000E+04  0.00000000000E+00 0.  1.
    9000005    2    1    2  501    0  0.39341121998E+02 -0.12471972877E+02 -0.53344280876E+03  0.53505098307E+03  0.38794684319E+01 0.  0.
         13    1    3    3    0    0  0.31379522981E+02 -0.86450428484E+01 -0.43184252293E+03  0.43306740335E+03  0.00000000000E+00 0.  1.
          3    1    3    3  501    0  0.79615990176E+01 -0.38269300289E+01 -0.10160028583E+03  0.10198357972E+03  0.00000000000E+00 0.  1.
         -1    1    1    2    0  502 -0.39341121998E+02  0.12471972877E+02 -0.46483884610E+03  0.46666736208E+03  0.00000000000E+00 0. -1.
<mgrwt>
<rscale>  1 0.30000000E+03</rscale>
<asrwt>0</asrwt>
<pdfrwt beam="1">  1       21 0.62485410E-02 0.30000000E+03</pdfrwt>
<pdfrwt beam="2">0</pdfrwt>
<totfact> 0.19645890E+04</totfact>
</mgrwt>
</event>
<event>
 6    1  0.1198667E-001  0.3000000E+03  0.7818608E-02  0.1093470E+00
         21   -1    0    0  501  502  0.00000000000E+00  0.00000000000E+00  0.25518318336E+01  0.25518318336E+01  0.00000000000E+00 0. -1.
         13   -1    0    0    0    0 -0.00000000000E+00 -0.00000000000E+00 -0.10000000000E+04  0.10000000000E+04  0.00000000000E+00 0.  1.
    9000005    2    1    2  501    0 -0.56617555316E+01  0.30628027688E+02 -0.89318031766E+03  0.89373126298E+03  0.37893300540E+01 0.  0.
         13    1    3    3    0    0  0.10370305105E+00  0.54809220670E+01 -0.18477726480E+03  0.18485856444E+03  0.00000000000E+00 0.  1.
          1    1    3    3  501    0 -0.57654585826E+01  0.25147105621E+02 -0.70840305286E+03  0.70887269854E+03  0.00000000000E+00 0.  1.
         -3    1    1    2    0  502  0.56617555316E+01 -0.30628027688E+02 -0.10426785051E+03  0.10882056885E+03  0.00000000000E+00 0. -1.
<mgrwt>
<rscale>  1 0.30000000E+03</rscale>
<asrwt>0</asrwt>
<pdfrwt beam="1">  1       21 0.92794081E-02 0.30000000E+03</pdfrwt>
<pdfrwt beam="2">0</pdfrwt>
<totfact> 0.98301377E+03</totfact>
</mgrwt>
</event>
<event>
 6    1  0.1198667E-001  0.3000000E+03  0.7818608E-02  0.1093470E+00
         21   -1    0    0  501  502  0.00000000000E+00  0.00000000000E+00  0.17585558667E+01  0.17585558667E+01  0.00000000000E+00 0. -1.
         13   -1    0    0    0    0 -0.00000000000E+00 -0.00000000000E+00 -0.10000000000E+04  0.10000000000E+04  0.00000000000E+00 0.  1.
    9000005    2    1    2  501    0  0.71422348394E+00 -0.41860805591E+02 -0.50264053827E+03  0.50439239794E+03  0.33679705698E+01 0.  0.
         13    1    3    3    0    0  0.17414458648E+01 -0.12329877424E+02 -0.15070009070E+03  0.15121367613E+03  0.00000000000E+00 0.  1.
          1    1    3    3  501    0 -0.10272223809E+01 -0.29530928167E+02 -0.35194044757E+03  0.35317872181E+03  0.00000000000E+00 0.  1.
         -1    1    1    2    0  502 -0.71422348394E+00  0.41860805591E+02 -0.49560090586E+03  0.49736615793E+03  0.00000000000E+00 0. -1.
<mgrwt>
<rscale>  1 0.30000000E+03</rscale>
<asrwt>0</asrwt>
<pdfrwt beam="1">  1       21 0.63947621E-02 0.30000000E+03</pdfrwt>
<pdfrwt beam="2">0</pdfrwt>
<totfact> 0.18875792E+04</totfact>
</mgrwt>
</event>
<event>
 6    1  0.1198667E-001  0.3000000E+03  0.7818608E-02  0.1093470E+00
         21   -1    0    0  501  502  0.00000000000E+00  0.00000000000E+00  0.91796730051E+00  0.91796730051E+00  0.00000000000E+00 0. -1.
         13   -1    0    0    0    0 -0.00000000000E+00 -0.00000000000E+00 -0.10000000000E+04  0.10000000000E+04  0.00000000000E+00 0.  1.
    9000005    2    1    2  501    0  0.13762144028E+02  0.26827279992E+02 -0.48637968204E+03  0.48732980551E+03  0.40055806929E+01 0.  0.
         13    1    3    3    0    0  0.93388075538E+00  0.49215371582E+01 -0.73621759418E+02  0.73791985480E+02  0.00000000000E+00 0.  1.
          1    1    3    3  501    0  0.12828263272E+02  0.21905742834E+02 -0.41275792262E+03  0.41353782002E+03  0.00000000000E+00 0.  1.
         -3    1    1    2    0  502 -0.13762144028E+02 -0.26827279992E+02 -0.51270235066E+03  0.51358816180E+03  0.00000000000E+00 0. -1.
<mgrwt>
<rscale>  1 0.30000000E+03</rscale>
<asrwt>0</asrwt>
<pdfrwt beam="1">  1       21 0.33380700E-02 0.30000000E+03</pdfrwt>
<pdfrwt beam="2">0</pdfrwt>
<totfact> 0.56952984E+04</totfact>
</mgrwt>
</event>
<event>
 6    1  0.1198667E-001  0.3000000E+03  0.7818608E-02  0.1093470E+00
         21   -1    0    0  501  502  0.00000000000E+00  0.00000000000E+00  0.34754449955E+01  0.34754449955E+01  0.00000000000E+00 0. -1.
         13   -1    0    0    0    0 -0.00000000000E+00 -0.00000000000E+00 -0.10000000000E+04  0.10000000000E+04  0.00000000000E+00 0.  1.
    9000005    2    1    2  501    0  0.23351784792E+02 -0.31514133521E+02 -0.87273589358E+03  0.87362137628E+03  0.28147267988E+01 0.  0.
         13    1    3    3    0    0  0.63433827464E+01 -0.10076906506E+02 -0.28565274607E+03  0.28590081127E+03  0.00000000000E+00 0.  1.
          1    1    3    3  501    0  0.17008402045E+02 -0.21437227015E+02 -0.58708314751E+03  0.58772056501E+03  0.00000000000E+00 0.  1.
         -1    1    1    2    0  502 -0.23351784792E+02  0.31514133521E+02 -0.12378866143E+03  0.12985406872E+03  0.00000000000E+00 0. -1.
<mgrwt>
<rscale>  1 0.30000000E+03</rscale>
<asrwt>0</asrwt>
<pdfrwt beam="1">  1       21 0.12638008E-01 0.30000000E+03</pdfrwt>
<pdfrwt beam="2">0</pdfrwt>
<totfact> 0.56397301E+03</totfact>
</mgrwt>
</event>
<event>
 6    1  0.1198667E-001  0.3000000E+03  0.7818608E-02  0.1093470E+00
         21   -1    0    0  501  502  0.00000000000E+00  0.00000000000E+00  0.20530862081E+01  0.20530862081E+01  0.00000000000E+00 0. -1.
         13   -1    0    0    0    0 -0.00000000000E+00 -0.00000000000E+00 -0.10000000000E+04  0.10000000000E+04  0.00000000000E+00 0.  1.
    9000005    2    1    2  501    0  0.37447073292E+02 -0.13367314222E+02 -0.73833967271E+03  0.73941857208E+03  0.36584225852E+01 0.  0.
         13    1    3    3    0    0  0.29090094115E+02 -0.10130616055E+02 -0.59828906012E+03  0.59908151567E+03  0.00000000000E+00 0.  1.
          1    1    3    3  501    0  0.83569791772E+01 -0.32366981674E+01 -0.14005061259E+03  0.14033705641E+03  0.00000000000E+00 0.  1.
         -3    1    1    2    0  502 -0.37447073292E+02  0.13367314222E+02 -0.25960724108E+03  0.26263451413E+03  0.00000000000E+00 0. -1.
<mgrwt>
<rscale>  1 0.30000000E+03</rscale>
<asrwt>0</asrwt>
<pdfrwt beam="1">  1       21 0.74657838E-02 0.30000000E+03</pdfrwt>
<pdfrwt beam="2">0</pdfrwt>
<totfact> 0.14419434E+04</totfact>
</mgrwt>
</event>
<event>
 6    1  0.1198667E-001  0.3000000E+03  0.7818608E-02  0.1093470E+00
         21   -1    0    0  501  502  0.00000000000E+00  0.00000000000E+00  0.12997089259E+01  0.12997089259E+01  0.00000000000E+00 0. -1.
         13   -1    0    0    0    0 -0.00000000000E+00 -0.00000000000E+00 -0.10000000000E+04  0.10000000000E+04  0.00000000000E+00 0.  1.
    9000005    2    1    2  501    0  0.21396779550E+02  0.26425202354E+02 -0.33665564116E+03  0.33838249542E+03  0.30949929212E+01 0.  0.
         13    1    3    3    0    0  0.14247906854E+02  0.15320708892E+02 -0.20169158774E+03  0.20277382360E+03  0.00000000000E+00 0.  1.
          3    1    3    3  501    0  0.71488726962E+01  0.11104493462E+02 -0.13496405342E+03  0.13560867181E+03  0.00000000000E+00 0.  1.
         -3    1    1    2    0  502 -0.21396779550E+02 -0.26425202354E+02 -0.66204464991E+03  0.66291721351E+03  0.00000000000E+00 0. -1.
<mgrwt>
<rscale>  1 0.30000000E+03</rscale>
<asrwt>0</asrwt>
<pdfrwt beam="1">  1       21 0.47262242E-02 0.30000000E+03</pdfrwt>
<pdfrwt beam="2">0</pdfrwt>
<totfact> 0.31702961E+04</totfact>
</mgrwt>
</event>
<event>
 6    1  0.1198667E-001  0.3000000E+03  0.7818608E-02  0.1093470E+00
         21   -1    0    0  501  502  0.00000000000E+00  0.00000000000E+00  0.12573999296E+01  0.12573999296E+01  0.00000000000E+00 0. -1.
         13   -1    0    0    0    0 -0.00000000000E+00 -0.00000000000E+00 -0.10000000000E+04  0.10000000000E+04  0.00000000000E+00 0.  1.
    9000005    2    1    2  501    0 -0.20276408953E+02  0.28819481071E+02 -0.54856706638E+03  0.54970484885E+03  0.28105671659E+01 0.  0.
         13    1    3    3    0    0 -0.19233444852E+01  0.31517943773E+01 -0.71642182513E+02  0.71737266306E+02  0.00000000000E+00 0.  1.
          3    1    3    3  501    0 -0.18353064468E+02  0.25667686694E+02 -0.47692488387E+03  0.47796758255E+03  0.00000000000E+00 0.  1.
         -3    1    1    2    0  502  0.20276408953E+02 -0.28819481071E+02 -0.45017553369E+03  0.45155255107E+03  0.00000000000E+00 0. -1.
<mgrwt>
<rscale>  1 0.30000000E+03</rscale>
<asrwt>0</asrwt>
<pdfrwt beam="1">  1       21 0.45723730E-02 0.30000000E+03</pdfrwt>
<pdfrwt beam="2">0</pdfrwt>
<totfact> 0.33537238E+04</totfact>
</mgrwt>
</event>
<event>
 6    1  0.1198667E-001  0.3000000E+03  0.7818608E-02  0.1093470E+00
         21   -1    0    0  501  502  0.00000000000E+00  0.00000000000E+00  0.15028093223E+01  0.15028093223E+01  0.00000000000E+00 0. -1.
         13   -1    0    0    0    0 -0.00000000000E+00 -0.00000000000E+00 -0.10000000000E+04  0.10000000000E+04  0.00000000000E+00 0.  1.
    9000005    2    1    2  501    0  0.34231617461E+02  0.45111508573E+01 -0.72585956671E+03  0.72668754752E+03  0.32445372356E+01 0.  0.
         13    1    3    3    0    0  0.22928039404E+02  0.15234699376E+01 -0.48899078816E+03  0.48953039421E+03  0.00000000000E+00 0.  1.
          3    1    3    3  501    0  0.11303578057E+02  0.29876809197E+01 -0.23686877855E+03  0.23715715331E+03  0.00000000000E+00 0.  1.
         -3    1    1    2    0  502 -0.34231617461E+02 -0.45111508573E+01 -0.27263762397E+03  0.27481526180E+03  0.00000000000E+00 0. -1.
<mgrwt>
<rscale>  1 0.30000000E+03</rscale>
<asrwt>0</asrwt>
<pdfrwt beam="1">  1       21 0.54647727E-02 0.30000000E+03</pdfrwt>
<pdfrwt beam="2">0</pdfrwt>
<totfact> 0.24745226E+04</totfact>
</mgrwt>
</event>
<event>
 6    1  0.1198667E-001  0.3000000E+03  0.7818608E-02  0.1093470E+00
         21   -1    0    0  501  502  0.00000000000E+00  0.00000000000E+00  0.12028821524E+01  0.12028821524E+01  0.00000000000E+00 0. -1.
         13   -1    0    0    0    0 -0.00000000000E+00 -0.00000000000E+00 -0.10000000000E+04  0.10000000000E+04  0.00000000000E+00 0.  1.
    9000005    2    1    2  501    0 -0.54206677376E+01 -0.31630434410E+02 -0.68582609761E+03  0.68659085516E+03  0.44382661951E+01 0.  0.
         13    1    3    3    0    0 -0.16130496813E+01 -0.87860235780E+01 -0.23593644054E+03  0.23610548514E+03  0.00000000000E+00 0.  1.
          1    1    3    3  501    0 -0.38076180564E+01 -0.22844410832E+02 -0.44988965707E+03  0.45048537002E+03  0.00000000000E+00 0.  1.
         -1    1    1    2    0  502  0.54206677376E+01  0.31630434410E+02 -0.31297102024E+03  0.31461202699E+03  0.00000000000E+00 0. -1.
<mgrwt>
<rscale>  1 0.30000000E+03</rscale>
<asrwt>0</asrwt>
<pdfrwt beam="1">  1       21 0.43741261E-02 0.30000000E+03</pdfrwt>
<pdfrwt beam="2">0</pdfrwt>
<totfact> 0.36155747E+04</totfact>
</mgrwt>
</event>
<event>
 6    1  0.1198667E-001  0.3000000E+03  0.7818608E-02  0.1093470E+00
         21   -1    0    0  501  502  0.00000000000E+00  0.00000000000E+00  0.43335999169E+01  0.43335999169E+01  0.00000000000E+00 0. -1.
         13   -1    0    0    0    0 -0.00000000000E+00 -0.00000000000E+00 -0.10000000000E+04  0.10000000000E+04  0.00000000000E+00 0.  1.
    9000005    2    1    2  501    0  0.46458026460E+02  0.17180243237E+01 -0.85321277698E+03  0.85448589535E+03  0.35780877463E+01 0.  0.
         13    1    3    3    0    0  0.32403215126E+02  0.19402093911E+01 -0.56771931207E+03  0.56864659505E+03  0.00000000000E+00 0.  1.
          3    1    3    3  501    0  0.14054811335E+02 -0.22218506745E+00 -0.28549346491E+03  0.28583930030E+03  0.00000000000E+00 0.  1.
         -3    1    1    2    0  502 -0.46458026460E+02 -0.17180243237E+01 -0.14245362310E+03  0.14984770457E+03  0.00000000000E+00 0. -1.
<mgrwt>
<rscale>  1 0.30000000E+03</rscale>
<asrwt>0</asrwt>
<pdfrwt beam="1">  1       21 0.15758578E-01 0.30000000E+03</pdfrwt>
<pdfrwt beam="2">0</pdfrwt>
<totfact> 0.37575994E+03</totfact>
</mgrwt>
</event>
<event>
 6    1  0.1198667E-001  0.3000000E+03  0.7818608E-02  0.1093470E+00
         21   -1    0    0  501  502  0.00000000000E+00  0.00000000000E+00  0.14620604355E+01  0.14620604355E+01  0.00000000000E+00 0. -1.
         13   -1    0    0    0    0 -0.00000000000E+00 -0.00000000000E+00 -0.10000000000E+04  0.10000000000E+04  0.00000000000E+00 0.  1.
    9000005    2    1    2  501    0  0.23830991048E+02 -0.27419617728E+02 -0.34727346376E+03  0.34918514913E+03  0.34144068172E+01 0.  0.
         13    1    3    3    0    0  0.13622368350E+02 -0.15887169261E+02 -0.18372535201E+03  0.18491342849E+03  0.00000000000E+00 0.  1.
          3    1    3    3  501    0  0.10208622698E+02 -0.11532448467E+02 -0.16354811175E+03  0.16427172064E+03  0.00000000000E+00 0.  1.
         -1    1    1    2    0  502 -0.23830991048E+02  0.27419617728E+02 -0.65126447580E+03  0.65227691130E+03  0.00000000000E+00 0. -1.
<mgrwt>
<rscale>  1 0.30000000E+03</rscale>
<asrwt>0</asrwt>
<pdfrwt beam="1">  1       21 0.53165946E-02 0.30000000E+03</pdfrwt>
<pdfrwt beam="2">0</pdfrwt>
<totfact> 0.25937796E+04</totfact>
</mgrwt>
</event>
<event>
 6    1  0.1198667E-001  0.3000000E+03  0.7818608E-02  0.1093470E+00
         21   -1    0    0  501  502  0.00000000000E+00  0.00000000000E+00  0.16608855622E+01  0.16608855622E+01  0.00000000000E+00 0. -1.
         13   -1    0    0    0    0 -0.00000000000E+00 -0.00000000000E+00 -0.10000000000E+04  0.10000000000E+04  0.00000000000E+00 0.  1.
    9000005    2    1    2  501    0 -0.40403475617E+02  0.35577243557E+01 -0.54153797640E+03  0.54306261043E+03  0.29190264922E+01 0.  0.
         13    1    3    3    0    0 -0.17904123684E+02  0.37861080592E+00 -0.24971818677E+03  0.25035948912E+03  0.00000000000E+00 0.  1.
          3    1    3    3  501    0 -0.22499351933E+02  0.31791135497E+01 -0.29181978963E+03  0.29270312131E+03  0.00000000000E+00 0.  1.
         -3    1    1    2    0  502  0.40403475617E+02 -0.35577243557E+01 -0.45680113804E+03  0.45859827514E+03  0.00000000000E+00 0. -1.
<mgrwt>
<rscale>  1 0.30000000E+03</rscale>
<asrwt>0</asrwt>
<pdfrwt beam="1">  1       21 0.60395966E-02 0.30000000E+03</pdfrwt>
<pdfrwt beam="2">0</pdfrwt>
<totfact> 0.20833942E+04</totfact>
</mgrwt>
</event>
<event>
 6    1  0.1198667E-001  0.3000000E+03  0.7818608E-02  0.1093470E+00
         21   -1    0    0  501  502  0.00000000000E+00  0.00000000000E+00  0.76030538767E+01  0.76030538767E+01  0.00000000000E+00 0. -1.
         13   -1    0    0    0    0 -0.00000000000E+00 -0.00000000000E+00 -0.10000000000E+04  0.10000000000E+04  0.00000000000E+00 0.  1.
    9000005    2    1    2  501    0 -0.10322403074E+02 -0.31951057570E+02 -0.96112814348E+03  0.96172103012E+03  0.35509864746E+01 0.  0.
         13    1    3    3    0    0 -0.70700385747E+01 -0.25580047868E+02 -0.73017966112E+03  0.73066179715E+03  0.00000000000E+00 0.  1.
          3    1    3    3  501    0 -0.32523644989E+01 -0.63710097019E+01 -0.23094848236E+03  0.23105923298E+03  0.00000000000E+00 0.  1.
         -1    1    1    2    0  502  0.10322403074E+02  0.31951057570E+02 -0.31268802643E+02  0.45882023754E+02  0.00000000000E+00 0. -1.
<mgrwt>
<rscale>  1 0.30000000E+03</rscale>
<asrwt>0</asrwt>
<pdfrwt beam="1">  1       21 0.27647527E-01 0.30000000E+03</pdfrwt>
<pdfrwt beam="2">0</pdfrwt>
<totfact> 0.12791057E+03</totfact>
</mgrwt>
</event>
<event>
 6    1  0.1198667E-001  0.3000000E+03  0.7818608E-02  0.1093470E+00
         21   -1    0    0  501  502  0.00000000000E+00  0.00000000000E+00  0.11779184139E+01  0.11779184139E+01  0.00000000000E+00 0. -1.
         13   -1    0    0    0    0 -0.00000000000E+00 -0.00000000000E+00 -0.10000000000E+04  0.10000000000E+04  0.00000000000E+00 0.  1.
    9000005    2    1    2  501    0  0.22707539228E+02  0.22848517597E+02 -0.64698358920E+03  0.64786783956E+03  0.10357883455E+02 0.  0.
         13    1    3    3    0    0  0.19916623423E+02  0.22842223997E+02 -0.62001613428E+03  0.62075634983E+03  0.00000000000E+00 0.  1.
          3    1    3    3  501    0  0.27909158045E+01  0.62935998027E-02 -0.26967454917E+02  0.27111489729E+02  0.00000000000E+00 0.  1.
         -3    1    1    2    0  502 -0.22707539228E+02 -0.22848517597E+02 -0.35183849239E+03  0.35331007886E+03  0.00000000000E+00 0. -1.
<mgrwt>
<rscale>  1 0.30000000E+03</rscale>
<asrwt>0</asrwt>
<pdfrwt beam="1">  1       21 0.42833487E-02 0.30000000E+03</pdfrwt>
<pdfrwt beam="2">0</pdfrwt>
<totfact> 0.37461721E+04</totfact>
</mgrwt>
</event>
<event>
 6    1  0.1198667E-001  0.3000000E+03  0.7818608E-02  0.1093470E+00
         21   -1    0    0  501  502  0.00000000000E+00  0.00000000000E+00  0.95754943714E+00  0.95754943714E+00  0.00000000000E+00 0. -1.
         13   -1    0    0    0    0 -0.00000000000E+00 -0.00000000000E+00 -0.10000000000E+04  0.10000000000E+04  0.00000000000E+00 0.  1.
    9000005    2    1    2  501    0 -0.28072855029E+02  0.12755467290E+02 -0.49689111790E+03  0.49786039378E+03  0.36608074992E+01 0.  0.
         13    1    3    3    0    0 -0.59952640417E+01  0.14313811272E+01 -0.85751387020E+02  0.85972625985E+02  0.00000000000E+00 0.  1.
          3    1    3    3  501    0 -0.22077590987E+02  0.11324086163E+02 -0.41113973088E+03  0.41188776780E+03  0.00000000000E+00 0.  1.
         -3    1    1    2    0  502  0.28072855029E+02 -0.12755467290E+02 -0.50215133266E+03  0.50309715566E+03  0.00000000000E+00 0. -1.
<mgrwt>
<rscale>  1 0.30000000E+03</rscale>
<asrwt>0</asrwt>
<pdfrwt beam="1">  1       21 0.34820053E-02 0.30000000E+03</pdfrwt>
<pdfrwt beam="2">0</pdfrwt>
<totfact> 0.53072834E+04</totfact>
</mgrwt>
</event>
<event>
 6    1  0.1198667E-001  0.3000000E+03  0.7818608E-02  0.1093470E+00
         21   -1    0    0  501  502  0.00000000000E+00  0.00000000000E+00  0.10549572754E+01  0.10549572754E+01  0.00000000000E+00 0. -1.
         13   -1    0    0    0    0 -0.00000000000E+00 -0.00000000000E+00 -0.10000000000E+04  0.10000000000E+04  0.00000000000E+00 0.  1.
    9000005    2    1    2  501    0  0.15214298078E+02  0.28590558071E+02 -0.51750732166E+03  0.51852912984E+03  0.31201996345E+01 0.  0.
         13    1    3    3    0    0  0.30272370579E+01  0.38675707882E+01 -0.67503498338E+02  0.67681936703E+02  0.00000000000E+00 0.  1.
          3    1    3    3  501    0  0.12187061020E+02  0.24722987283E+02 -0.45000382332E+03  0.45084719314E+03  0.00000000000E+00 0.  1.
         -1    1    1    2    0  502 -0.15214298078E+02 -0.28590558071E+02 -0.48143772106E+03  0.48252582743E+03  0.00000000000E+00 0. -1.
<mgrwt>
<rscale>  1 0.30000000E+03</rscale>
<asrwt>0</asrwt>
<pdfrwt beam="1">  1       21 0.38362164E-02 0.30000000E+03</pdfrwt>
<pdfrwt beam="2">0</pdfrwt>
<totfact> 0.45111245E+04</totfact>
</mgrwt>
</event>
<event>
 6    1  0.1198667E-001  0.3000000E+03  0.7818608E-02  0.1093470E+00
         21   -1    0    0  501  502  0.00000000000E+00  0.00000000000E+00  0.17040720912E+01  0.17040720912E+01  0.00000000000E+00 0. -1.
         13   -1    0    0    0    0 -0.00000000000E+00 -0.00000000000E+00 -0.10000000000E+04  0.10000000000E+04  0.00000000000E+00 0.  1.
    9000005    2    1    2  501    0  0.18055478426E+02 -0.27544064479E+02 -0.80050350340E+03  0.80118843933E+03  0.35186031643E+01 0.  0.
         13    1    3    3    0    0  0.99636745355E+01 -0.18122548565E+02 -0.51398456239E+03  0.51440045874E+03  0.00000000000E+00 0.  1.
          3    1    3    3  501    0  0.80918038904E+01 -0.94215159142E+01 -0.28651894102E+03  0.28678798059E+03  0.00000000000E+00 0.  1.
         -1    1    1    2    0  502 -0.18055478426E+02  0.27544064479E+02 -0.19779242450E+03  0.20051563276E+03  0.00000000000E+00 0. -1.
<mgrwt>
<rscale>  1 0.30000000E+03</rscale>
<asrwt>0</asrwt>
<pdfrwt beam="1">  1       21 0.61966389E-02 0.30000000E+03</pdfrwt>
<pdfrwt beam="2">0</pdfrwt>
<totfact> 0.19930998E+04</totfact>
</mgrwt>
</event>
<event>
 6    1  0.1198667E-001  0.3000000E+03  0.7818608E-02  0.1093470E+00
         21   -1    0    0  501  502  0.00000000000E+00  0.00000000000E+00  0.19652422493E+01  0.19652422493E+01  0.00000000000E+00 0. -1.
         13   -1    0    0    0    0 -0.00000000000E+00 -0.00000000000E+00 -0.10000000000E+04  0.10000000000E+04  0.00000000000E+00 0.  1.
    9000005    2    1    2  501    0 -0.19362303667E+02  0.28259275190E+02 -0.81662238118E+03  0.81734689048E+03  0.32156636641E+01 0.  0.
         13    1    3    3    0    0 -0.10279972082E+02  0.17596035082E+02 -0.46985416466E+03  0.47029590081E+03  0.00000000000E+00 0.  1.
          1    1    3    3  501    0 -0.90823315850E+01  0.10663240109E+02 -0.34676821653E+03  0.34705098967E+03  0.00000000000E+00 0.  1.
         -1    1    1    2    0  502  0.19362303667E+02 -0.28259275190E+02 -0.18141237657E+03  0.18461835177E+03  0.00000000000E+00 0. -1.
<mgrwt>
<rscale>  1 0.30000000E+03</rscale>
<asrwt>0</asrwt>
<pdfrwt beam="1">  1       21 0.71463505E-02 0.30000000E+03</pdfrwt>
<pdfrwt beam="2">0</pdfrwt>
<totfact> 0.15564104E+04</totfact>
</mgrwt>
</event>
<event>
 6    1  0.1198667E-001  0.3000000E+03  0.7818608E-02  0.1093470E+00
         21   -1    0    0  501  502  0.00000000000E+00  0.00000000000E+00  0.16189608365E+01  0.16189608365E+01  0.00000000000E+00 0. -1.
         13   -1    0    0    0    0 -0.00000000000E+00 -0.00000000000E+00 -0.10000000000E+04  0.10000000000E+04  0.00000000000E+00 0.  1.
    9000005    2    1    2  501    0  0.13889291652E+02  0.37583352283E+02 -0.46166606139E+03  0.46341046206E+03  0.28780746699E+01 0.  0.
         13    1    3    3    0    0 -0.61283603945E-01  0.58874234325E+00 -0.46928111040E+01  0.47299946390E+01  0.00000000000E+00 0.  1.
          3    1    3    3  501    0  0.13950575256E+02  0.36994609939E+02 -0.45697325028E+03  0.45868046742E+03  0.00000000000E+00 0.  1.
         -1    1    1    2    0  502 -0.13889291652E+02 -0.37583352283E+02 -0.53671497778E+03  0.53820849878E+03  0.00000000000E+00 0. -1.
<mgrwt>
<rscale>  1 0.30000000E+03</rscale>
<asrwt>0</asrwt>
<pdfrwt beam="1">  1       21 0.58871427E-02 0.30000000E+03</pdfrwt>
<pdfrwt beam="2">0</pdfrwt>
<totfact> 0.21772900E+04</totfact>
</mgrwt>
</event>
<event>
 6    1  0.1198667E-001  0.3000000E+03  0.7818608E-02  0.1093470E+00
         21   -1    0    0  501  502  0.00000000000E+00  0.00000000000E+00  0.10453596858E+01  0.10453596858E+01  0.00000000000E+00 0. -1.
         13   -1    0    0    0    0 -0.00000000000E+00 -0.00000000000E+00 -0.10000000000E+04  0.10000000000E+04  0.00000000000E+00 0.  1.
    9000005    2    1    2  501    0  0.30247411583E+02 -0.10801182179E+02 -0.45673474779E+03  0.45787505187E+03  0.33707331557E+01 0.  0.
         13    1    3    3    0    0  0.25515651644E+02 -0.98345899129E+01 -0.40111124497E+03  0.40204228444E+03  0.00000000000E+00 0.  1.
          3    1    3    3  501    0  0.47317599393E+01 -0.96659226610E+00 -0.55623502822E+02  0.55832767430E+02  0.00000000000E+00 0.  1.
         -3    1    1    2    0  502 -0.30247411583E+02  0.10801182179E+02 -0.54221989253E+03  0.54317030782E+03  0.00000000000E+00 0. -1.
<mgrwt>
<rscale>  1 0.30000000E+03</rscale>
<asrwt>0</asrwt>
<pdfrwt beam="1">  1       21 0.38013160E-02 0.30000000E+03</pdfrwt>
<pdfrwt beam="2">0</pdfrwt>
<totfact> 0.45809424E+04</totfact>
</mgrwt>
</event>
<event>
 6    1  0.1198667E-001  0.3000000E+03  0.7818608E-02  0.1093470E+00
         21   -1    0    0  501  502  0.00000000000E+00  0.00000000000E+00  0.23686259012E+01  0.23686259012E+01  0.00000000000E+00 0. -1.
         13   -1    0    0    0    0 -0.00000000000E+00 -0.00000000000E+00 -0.10000000000E+04  0.10000000000E+04  0.00000000000E+00 0.  1.
    9000005    2    1    2  501    0  0.32309330277E+02 -0.13351133611E+02 -0.84723136926E+03  0.84795908265E+03  0.33863251714E+01 0.  0.
         13    1    3    3    0    0  0.22877329130E+02 -0.10877341305E+02 -0.62949962036E+03  0.63000909579E+03  0.00000000000E+00 0.  1.
          3    1    3    3  501    0  0.94320011474E+01 -0.24737923060E+01 -0.21773174889E+03  0.21794998686E+03  0.00000000000E+00 0.  1.
         -1    1    1    2    0  502 -0.32309330277E+02  0.13351133611E+02 -0.15040000484E+03  0.15440954325E+03  0.00000000000E+00 0. -1.
<mgrwt>
<rscale>  1 0.30000000E+03</rscale>
<asrwt>0</asrwt>
<pdfrwt beam="1">  1       21 0.86132033E-02 0.30000000E+03</pdfrwt>
<pdfrwt beam="2">0</pdfrwt>
<totfact> 0.11216379E+04</totfact>
</mgrwt>
</event>
<event>
 6    1  0.1198667E-001  0.3000000E+03  0.7818608E-02  0.1093470E+00
         21   -1    0    0  501  502  0.00000000000E+00  0.00000000000E+00  0.10729158292E+01  0.10729158292E+01  0.00000000000E+00 0. -1.
         13   -1    0    0    0    0 -0.00000000000E+00 -0.00000000000E+00 -0.10000000000E+04  0.10000000000E+04  0.00000000000E+00 0.  1.
    9000005    2    1    2  501    0  0.11539894968E+02  0.29340334827E+02 -0.41609525154E+03  0.41738895207E+03  0.91790266960E+01 0.  0.
         13    1    3    3    0    0  0.73704508326E+01  0.26364966895E+02 -0.32558591523E+03  0.32673479034E+03  0.00000000000E+00 0.  1.
          3    1    3    3  501    0  0.41694441354E+01  0.29753679314E+01 -0.90509336313E+02  0.90654161727E+02  0.00000000000E+00 0.  1.
         -1    1    1    2    0  502 -0.11539894968E+02 -0.29340334827E+02 -0.58283183263E+03  0.58368396376E+03  0.00000000000E+00 0. -1.
<mgrwt>
<rscale>  1 0.30000000E+03</rscale>
<asrwt>0</asrwt>
<pdfrwt beam="1">  1       21 0.39015203E-02 0.30000000E+03</pdfrwt>
<pdfrwt beam="2">0</pdfrwt>
<totfact> 0.43848912E+04</totfact>
</mgrwt>
</event>
<event>
 6    1  0.1198667E-001  0.3000000E+03  0.7818608E-02  0.1093470E+00
         21   -1    0    0  501  502  0.00000000000E+00  0.00000000000E+00  0.21698549653E+01  0.21698549653E+01  0.00000000000E+00 0. -1.
         13   -1    0    0    0    0 -0.00000000000E+00 -0.00000000000E+00 -0.10000000000E+04  0.10000000000E+04  0.00000000000E+00 0.  1.
    9000005    2    1    2  501    0 -0.21396398336E+02  0.24442916749E+02 -0.85773743256E+03  0.85836015387E+03  0.36590291624E+01 0.  0.
         13    1    3    3    0    0 -0.20344316861E+02  0.21672881451E+02 -0.78240904402E+03  0.78297350988E+03  0.00000000000E+00 0.  1.
          1    1    3    3  501    0 -0.10520814751E+01  0.27700352980E+01 -0.75328388544E+02  0.75386643987E+02  0.00000000000E+00 0.  1.
         -1    1    1    2    0  502  0.21396398336E+02 -0.24442916749E+02 -0.14009271248E+03  0.14380970110E+03  0.00000000000E+00 0. -1.
<mgrwt>
<rscale>  1 0.30000000E+03</rscale>
<asrwt>0</asrwt>
<pdfrwt beam="1">  1       21 0.78903983E-02 0.30000000E+03</pdfrwt>
<pdfrwt beam="2">0</pdfrwt>
<totfact> 0.13087041E+04</totfact>
</mgrwt>
</event>
<event>
 6    1  0.1198667E-001  0.3000000E+03  0.7818608E-02  0.1093470E+00
         21   -1    0    0  501  502  0.00000000000E+00  0.00000000000E+00  0.16613237016E+01  0.16613237016E+01  0.00000000000E+00 0. -1.
         13   -1    0    0    0    0 -0.00000000000E+00 -0.00000000000E+00 -0.10000000000E+04  0.10000000000E+04  0.00000000000E+00 0.  1.
    9000005    2    1    2  501    0  0.35687700016E+02  0.15896810430E+02 -0.64019798343E+03  0.64139603756E+03  0.30163701510E+01 0.  0.
         13    1    3    3    0    0  0.13899704956E+02  0.65442853858E+01 -0.27563921125E+03  0.27606702854E+03  0.00000000000E+00 0.  1.
          1    1    3    3  501    0  0.21787995060E+02  0.93525250438E+01 -0.36455877218E+03  0.36532900902E+03  0.00000000000E+00 0.  1.
         -3    1    1    2    0  502 -0.35687700016E+02 -0.15896810430E+02 -0.35814069287E+03  0.36026528614E+03  0.00000000000E+00 0. -1.
<mgrwt>
<rscale>  1 0.30000000E+03</rscale>
<asrwt>0</asrwt>
<pdfrwt beam="1">  1       21 0.60411898E-02 0.30000000E+03</pdfrwt>
<pdfrwt beam="2">0</pdfrwt>
<totfact> 0.20824465E+04</totfact>
</mgrwt>
</event>
<event>
 6    1  0.1198667E-001  0.3000000E+03  0.7818608E-02  0.1093470E+00
         21   -1    0    0  501  502  0.00000000000E+00  0.00000000000E+00  0.10444648555E+01  0.10444648555E+01  0.00000000000E+00 0. -1.
         13   -1    0    0    0    0 -0.00000000000E+00 -0.00000000000E+00 -0.10000000000E+04  0.10000000000E+04  0.00000000000E+00 0.  1.
    9000005    2    1    2  501    0  0.23444819676E+02  0.19044316875E+02 -0.67484438798E+03  0.67552890257E+03  0.34647716104E+01 0.  0.
         13    1    3    3    0    0  0.20379031423E+02  0.16330932729E+02 -0.55400545777E+03  0.55462063748E+03  0.00000000000E+00 0.  1.
          1    1    3    3  501    0  0.30657882532E+01  0.27133841451E+01 -0.12083893021E+03  0.12090826508E+03  0.00000000000E+00 0.  1.
         -3    1    1    2    0  502 -0.23444819676E+02 -0.19044316875E+02 -0.32411114717E+03  0.32551556229E+03  0.00000000000E+00 0. -1.
<mgrwt>
<rscale>  1 0.30000000E+03</rscale>
<asrwt>0</asrwt>
<pdfrwt beam="1">  1       21 0.37980620E-02 0.30000000E+03</pdfrwt>
<pdfrwt beam="2">0</pdfrwt>
<totfact> 0.45875383E+04</totfact>
</mgrwt>
</event>
<event>
 6    1  0.1198667E-001  0.3000000E+03  0.7818608E-02  0.1093470E+00
         21   -1    0    0  501  502  0.00000000000E+00  0.00000000000E+00  0.37646741721E+01  0.37646741721E+01  0.00000000000E+00 0. -1.
         13   -1    0    0    0    0 -0.00000000000E+00 -0.00000000000E+00 -0.10000000000E+04  0.10000000000E+04  0.00000000000E+00 0.  1.
    9000005    2    1    2  501    0 -0.43255059938E+02 -0.17498843554E+02 -0.82366386102E+03  0.82499633190E+03  0.44251493979E+01 0.  0.
         13    1    3    3    0    0 -0.10263771357E+02 -0.58650566747E+01 -0.22766123283E+03  0.22796793816E+03  0.00000000000E+00 0.  1.
          3    1    3    3  501    0 -0.32991288581E+02 -0.11633786879E+02 -0.59600262819E+03  0.59702839374E+03  0.00000000000E+00 0.  1.
         -1    1    1    2    0  502  0.43255059938E+02  0.17498843554E+02 -0.17257146480E+03  0.17876834228E+03  0.00000000000E+00 0. -1.
<mgrwt>
<rscale>  1 0.30000000E+03</rscale>
<asrwt>0</asrwt>
<pdfrwt beam="1">  1       21 0.13689753E-01 0.30000000E+03</pdfrwt>
<pdfrwt beam="2">0</pdfrwt>
<totfact> 0.48730491E+03</totfact>
</mgrwt>
</event>
<event>
 6    1  0.1198667E-001  0.3000000E+03  0.7818608E-02  0.1093470E+00
         21   -1    0    0  501  502  0.00000000000E+00  0.00000000000E+00  0.25133839737E+01  0.25133839737E+01  0.00000000000E+00 0. -1.
         13   -1    0    0    0    0 -0.00000000000E+00 -0.00000000000E+00 -0.10000000000E+04  0.10000000000E+04  0.00000000000E+00 0.  1.
    9000005    2    1    2  501    0 -0.39275378061E+02  0.26339099955E+02 -0.33494836543E+03  0.33828959864E+03  0.36251249944E+01 0.  0.
         13    1    3    3    0    0 -0.32340605920E+02  0.23068922851E+02 -0.27573331289E+03  0.27858023948E+03  0.00000000000E+00 0.  1.
          3    1    3    3  501    0 -0.69347721410E+01  0.32701771042E+01 -0.59215052547E+02  0.59709359158E+02  0.00000000000E+00 0.  1.
         -3    1    1    2    0  502  0.39275378061E+02 -0.26339099955E+02 -0.66253825059E+03  0.66422378534E+03  0.00000000000E+00 0. -1.
<mgrwt>
<rscale>  1 0.30000000E+03</rscale>
<asrwt>0</asrwt>
<pdfrwt beam="1">  1       21 0.91395974E-02 0.30000000E+03</pdfrwt>
<pdfrwt beam="2">0</pdfrwt>
<totfact> 0.10098716E+04</totfact>
</mgrwt>
</event>
<event>
 6    1  0.1198667E-001  0.3000000E+03  0.7818608E-02  0.1093470E+00
         21   -1    0    0  501  502  0.00000000000E+00  0.00000000000E+00  0.19043932342E+01  0.19043932342E+01  0.00000000000E+00 0. -1.
         13   -1    0    0    0    0 -0.00000000000E+00 -0.00000000000E+00 -0.10000000000E+04  0.10000000000E+04  0.00000000000E+00 0.  1.
    9000005    2    1    2  501    0 -0.22466180087E+02 -0.28365466963E+02 -0.77857942591E+03  0.77942589400E+03  0.30777953777E+01 0.  0.
         13    1    3    3    0    0 -0.24957355887E+01 -0.32127356024E+01 -0.68735444473E+02  0.68855731011E+02  0.00000000000E+00 0.  1.
          1    1    3    3  501    0 -0.19970444498E+02 -0.25152731360E+02 -0.70984398144E+03  0.71057016299E+03  0.00000000000E+00 0.  1.
         -3    1    1    2    0  502  0.22466180087E+02  0.28365466963E+02 -0.21951618086E+03  0.22247849923E+03  0.00000000000E+00 0. -1.
<mgrwt>
<rscale>  1 0.30000000E+03</rscale>
<asrwt>0</asrwt>
<pdfrwt beam="1">  1       21 0.69250809E-02 0.30000000E+03</pdfrwt>
<pdfrwt beam="2">0</pdfrwt>
<totfact> 0.16440162E+04</totfact>
</mgrwt>
</event>
<event>
 6    1  0.1198667E-001  0.3000000E+03  0.7818608E-02  0.1093470E+00
         21   -1    0    0  501  502  0.00000000000E+00  0.00000000000E+00  0.56551722125E+01  0.56551722125E+01  0.00000000000E+00 0. -1.
         13   -1    0    0    0    0 -0.00000000000E+00 -0.00000000000E+00 -0.10000000000E+04  0.10000000000E+04  0.00000000000E+00 0.  1.
    9000005    2    1    2  501    0 -0.37468276154E+02  0.76628831267E+01 -0.93010166523E+03  0.93089037146E+03  0.22769547271E+01 0.  0.
         13    1    3    3    0    0 -0.71479934581E+01  0.22096306455E+01 -0.16927775293E+03  0.16944301082E+03  0.00000000000E+00 0.  1.
          3    1    3    3  501    0 -0.30320282696E+02  0.54532524813E+01 -0.76082391230E+03  0.76144736064E+03  0.00000000000E+00 0.  1.
         -1    1    1    2    0  502  0.37468276154E+02 -0.76628831267E+01 -0.64243162557E+02  0.74764800749E+02  0.00000000000E+00 0. -1.
<mgrwt>
<rscale>  1 0.30000000E+03</rscale>
<asrwt>0</asrwt>
<pdfrwt beam="1">  1       21 0.20564306E-01 0.30000000E+03</pdfrwt>
<pdfrwt beam="2">0</pdfrwt>
<totfact> 0.22749584E+03</totfact>
</mgrwt>
</event>
<event>
 6    1  0.1198667E-001  0.3000000E+03  0.7818608E-02  0.1093470E+00
         21   -1    0    0  501  502  0.00000000000E+00  0.00000000000E+00  0.14129431397E+01  0.14129431397E+01  0.00000000000E+00 0. -1.
         13   -1    0    0    0    0 -0.00000000000E+00 -0.00000000000E+00 -0.10000000000E+04  0.10000000000E+04  0.00000000000E+00 0.  1.
    9000005    2    1    2  501    0 -0.34800160543E+02 -0.69156800070E+01 -0.33795627991E+03  0.33983006756E+03  0.33391443274E+01 0.  0.
         13    1    3    3    0    0 -0.20015042756E+02 -0.55759777766E+01 -0.19230878343E+03  0.19342792365E+03  0.00000000000E+00 0.  1.
          3    1    3    3  501    0 -0.14785117787E+02 -0.13397022305E+01 -0.14564749648E+03  0.14640214391E+03  0.00000000000E+00 0.  1.
         -3    1    1    2    0  502  0.34800160543E+02  0.69156800070E+01 -0.66063077695E+03  0.66158287558E+03  0.00000000000E+00 0. -1.
<mgrwt>
<rscale>  1 0.30000000E+03</rscale>
<asrwt>0</asrwt>
<pdfrwt beam="1">  1       21 0.51379859E-02 0.30000000E+03</pdfrwt>
<pdfrwt beam="2">0</pdfrwt>
<totfact> 0.27497536E+04</totfact>
</mgrwt>
</event>
<event>
 6    1  0.1198667E-001  0.3000000E+03  0.7818608E-02  0.1093470E+00
         21   -1    0    0  501  502  0.00000000000E+00  0.00000000000E+00  0.12275650769E+01  0.12275650769E+01  0.00000000000E+00 0. -1.
         13   -1    0    0    0    0 -0.00000000000E+00 -0.00000000000E+00 -0.10000000000E+04  0.10000000000E+04  0.00000000000E+00 0.  1.
    9000005    2    1    2  501    0  0.72325030240E+01 -0.32921485394E+02 -0.63299824728E+03  0.63390360772E+03  0.32968960552E+01 0.  0.
         13    1    3    3    0    0  0.29210738485E+01 -0.12550188750E+02 -0.27252068492E+03  0.27282515211E+03  0.00000000000E+00 0.  1.
          3    1    3    3  501    0  0.43114291754E+01 -0.20371296644E+02 -0.36047756235E+03  0.36107845561E+03  0.00000000000E+00 0.  1.
         -1    1    1    2    0  502 -0.72325030240E+01  0.32921485394E+02 -0.36577418765E+03  0.36732395736E+03  0.00000000000E+00 0. -1.
<mgrwt>
<rscale>  1 0.30000000E+03</rscale>
<asrwt>0</asrwt>
<pdfrwt beam="1">  1       21 0.44638824E-02 0.30000000E+03</pdfrwt>
<pdfrwt beam="2">0</pdfrwt>
<totfact> 0.34932471E+04</totfact>
</mgrwt>
</event>
<event>
 6    1  0.1198667E-001  0.3000000E+03  0.7818608E-02  0.1093470E+00
         21   -1    0    0  501  502  0.00000000000E+00  0.00000000000E+00  0.19960729985E+01  0.19960729985E+01  0.00000000000E+00 0. -1.
         13   -1    0    0    0    0 -0.00000000000E+00 -0.00000000000E+00 -0.10000000000E+04  0.10000000000E+04  0.00000000000E+00 0.  1.
    9000005    2    1    2  501    0  0.12019725841E+01 -0.44523772417E+02 -0.52910323119E+03  0.53098474237E+03  0.32796837101E+01 0.  0.
         13    1    3    3    0    0 -0.18346269743E+00 -0.16802551739E+02 -0.21713966034E+03  0.21778886908E+03  0.00000000000E+00 0.  1.
          3    1    3    3  501    0  0.13854352815E+01 -0.27721220678E+02 -0.31196357085E+03  0.31319587329E+03  0.00000000000E+00 0.  1.
         -1    1    1    2    0  502 -0.12019725841E+01  0.44523772417E+02 -0.46890069581E+03  0.47101133063E+03  0.00000000000E+00 0. -1.
<mgrwt>
<rscale>  1 0.30000000E+03</rscale>
<asrwt>0</asrwt>
<pdfrwt beam="1">  1       21 0.72584626E-02 0.30000000E+03</pdfrwt>
<pdfrwt beam="2">0</pdfrwt>
<totfact> 0.15147122E+04</totfact>
</mgrwt>
</event>
<event>
 6    1  0.1198667E-001  0.3000000E+03  0.7818608E-02  0.1093470E+00
         21   -1    0    0  501  502  0.00000000000E+00  0.00000000000E+00  0.20351355824E+01  0.20351355824E+01  0.00000000000E+00 0. -1.
         13   -1    0    0    0    0 -0.00000000000E+00 -0.00000000000E+00 -0.10000000000E+04  0.10000000000E+04  0.00000000000E+00 0.  1.
    9000005    2    1    2  501    0  0.32348510502E+02 -0.27615581037E+02 -0.66399061163E+03  0.66536341421E+03  0.39867514490E+01 0.  0.
         13    1    3    3    0    0  0.61438298627E-02 -0.23239030009E+00 -0.91825070491E+01  0.91854492925E+01  0.00000000000E+00 0.  1.
          3    1    3    3  501    0  0.32342366672E+02 -0.27383190737E+02 -0.65480810458E+03  0.65617796492E+03  0.00000000000E+00 0.  1.
         -1    1    1    2    0  502 -0.32348510502E+02  0.27615581037E+02 -0.33397425279E+03  0.33667172137E+03  0.00000000000E+00 0. -1.
<mgrwt>
<rscale>  1 0.30000000E+03</rscale>
<asrwt>0</asrwt>
<pdfrwt beam="1">  1       21 0.74005086E-02 0.30000000E+03</pdfrwt>
<pdfrwt beam="2">0</pdfrwt>
<totfact> 0.14642727E+04</totfact>
</mgrwt>
</event>
<event>
 6    1  0.1198667E-001  0.3000000E+03  0.7818608E-02  0.1093470E+00
         21   -1    0    0  501  502  0.00000000000E+00  0.00000000000E+00  0.28664780863E+01  0.28664780863E+01  0.00000000000E+00 0. -1.
         13   -1    0    0    0    0 -0.00000000000E+00 -0.00000000000E+00 -0.10000000000E+04  0.10000000000E+04  0.00000000000E+00 0.  1.
    9000005    2    1    2  501    0 -0.56672948248E+00  0.37551802132E+02 -0.85570209372E+03  0.85653361128E+03  0.36462359925E+01 0.  0.
         13    1    3    3    0    0 -0.18233364800E+01  0.18176894734E+02 -0.39306232385E+03  0.39348661285E+03  0.00000000000E+00 0.  1.
          1    1    3    3  501    0  0.12566069976E+01  0.19374907398E+02 -0.46263976986E+03  0.46304699843E+03  0.00000000000E+00 0.  1.
         -3    1    1    2    0  502  0.56672948248E+00 -0.37551802132E+02 -0.14143142820E+03  0.14633286680E+03  0.00000000000E+00 0. -1.
<mgrwt>
<rscale>  1 0.30000000E+03</rscale>
<asrwt>0</asrwt>
<pdfrwt beam="1">  1       21 0.10423579E-01 0.30000000E+03</pdfrwt>
<pdfrwt beam="2">0</pdfrwt>
<totfact> 0.79877547E+03</totfact>
</mgrwt>
</event>
<event>
 6    1  0.1198667E-001  0.3000000E+03  0.7818608E-02  0.1093470E+00
         21   -1    0    0  501  502  0.00000000000E+00  0.00000000000E+00  0.11129660190E+01  0.11129660190E+01  0.00000000000E+00 0. -1.
         13   -1    0    0    0    0 -0.00000000000E+00 -0.00000000000E+00 -0.10000000000E+04  0.10000000000E+04  0.00000000000E+00 0.  1.
    9000005    2    1    2  501    0  0.28869576084E+02 -0.13826072772E+02 -0.63766575579E+03  0.63847619937E+03  0.31029560669E+01 0.  0.
         13    1    3    3    0    0  0.10396597264E+02 -0.56339159300E+01 -0.20872432891E+03  0.20905902449E+03  0.00000000000E+00 0.  1.
          3    1    3    3  501    0  0.18472978819E+02 -0.81921568417E+01 -0.42894142689E+03  0.42941717488E+03  0.00000000000E+00 0.  1.
         -1    1    1    2    0  502 -0.28869576084E+02  0.13826072772E+02 -0.36122127819E+03  0.36263676665E+03  0.00000000000E+00 0. -1.
<mgrwt>
<rscale>  1 0.30000000E+03</rscale>
<asrwt>0</asrwt>
<pdfrwt beam="1">  1       21 0.40471577E-02 0.30000000E+03</pdfrwt>
<pdfrwt beam="2">0</pdfrwt>
<totfact> 0.41225301E+04</totfact>
</mgrwt>
</event>
<event>
 6    1  0.1198667E-001  0.3000000E+03  0.7818608E-02  0.1093470E+00
         21   -1    0    0  501  502  0.00000000000E+00  0.00000000000E+00  0.10417434423E+01  0.10417434423E+01  0.00000000000E+00 0. -1.
         13   -1    0    0    0    0 -0.00000000000E+00 -0.00000000000E+00 -0.10000000000E+04  0.10000000000E+04  0.00000000000E+00 0.  1.
    9000005    2    1    2  501    0  0.47545193470E+01 -0.31801976697E+02 -0.49711738698E+03  0.49817175075E+03  0.39275472314E+01 0.  0.
         13    1    3    3    0    0  0.53729071879E+01 -0.28426788895E+02 -0.43708345973E+03  0.43803983977E+03  0.00000000000E+00 0.  1.
          1    1    3    3  501    0 -0.61838784090E+00 -0.33751878021E+01 -0.60033927253E+02  0.60131910976E+02  0.00000000000E+00 0.  1.
         -1    1    1    2    0  502 -0.47545193470E+01  0.31801976697E+02 -0.50184086958E+03  0.50286999270E+03  0.00000000000E+00 0. -1.
<mgrwt>
<rscale>  1 0.30000000E+03</rscale>
<asrwt>0</asrwt>
<pdfrwt beam="1">  1       21 0.37881660E-02 0.30000000E+03</pdfrwt>
<pdfrwt beam="2">0</pdfrwt>
<totfact> 0.46076900E+04</totfact>
</mgrwt>
</event>
<event>
 6    1  0.1198667E-001  0.3000000E+03  0.7818608E-02  0.1093470E+00
         21   -1    0    0  501  502  0.00000000000E+00  0.00000000000E+00  0.22432776416E+01  0.22432776416E+01  0.00000000000E+00 0. -1.
         13   -1    0    0    0    0 -0.00000000000E+00 -0.00000000000E+00 -0.10000000000E+04  0.10000000000E+04  0.00000000000E+00 0.  1.
    9000005    2    1    2  501    0  0.34626330255E+02 -0.22498320207E+02 -0.74363609113E+03  0.74478949077E+03  0.34047569736E+01 0.  0.
         13    1    3    3    0    0  0.33208485738E+02 -0.21136962183E+02 -0.69527293046E+03  0.69638640317E+03  0.00000000000E+00 0.  1.
          3    1    3    3  501    0  0.14178445167E+01 -0.13613580242E+01 -0.48363160668E+02  0.48403087593E+02  0.00000000000E+00 0.  1.
         -1    1    1    2    0  502 -0.34626330255E+02  0.22498320207E+02 -0.25412063123E+03  0.25745378688E+03  0.00000000000E+00 0. -1.
<mgrwt>
<rscale>  1 0.30000000E+03</rscale>
<asrwt>0</asrwt>
<pdfrwt beam="1">  1       21 0.81573904E-02 0.30000000E+03</pdfrwt>
<pdfrwt beam="2">0</pdfrwt>
<totfact> 0.12343892E+04</totfact>
</mgrwt>
</event>
<event>
 6    1  0.1198667E-001  0.3000000E+03  0.7818608E-02  0.1093470E+00
         21   -1    0    0  501  502  0.00000000000E+00  0.00000000000E+00  0.55901293947E+01  0.55901293947E+01  0.00000000000E+00 0. -1.
         13   -1    0    0    0    0 -0.00000000000E+00 -0.00000000000E+00 -0.10000000000E+04  0.10000000000E+04  0.00000000000E+00 0.  1.
    9000005    2    1    2  501    0 -0.51583239451E+02  0.12780256401E+02 -0.85076697572E+03  0.85243188836E+03  0.33929000537E+01 0.  0.
         13    1    3    3    0    0 -0.50531583856E+02  0.12497739187E+02 -0.83954464254E+03  0.84115684700E+03  0.00000000000E+00 0.  1.
          3    1    3    3  501    0 -0.10516555947E+01  0.28251721469E+00 -0.11222333182E+02  0.11275041353E+02  0.00000000000E+00 0.  1.
         -3    1    1    2    0  502  0.51583239451E+02 -0.12780256401E+02 -0.14364289489E+03  0.15315824104E+03  0.00000000000E+00 0. -1.
<mgrwt>
<rscale>  1 0.30000000E+03</rscale>
<asrwt>0</asrwt>
<pdfrwt beam="1">  1       21 0.20327786E-01 0.30000000E+03</pdfrwt>
<pdfrwt beam="2">0</pdfrwt>
<totfact> 0.23258530E+03</totfact>
</mgrwt>
</event>
<event>
 6    1  0.1198667E-001  0.3000000E+03  0.7818608E-02  0.1093470E+00
         21   -1    0    0  501  502  0.00000000000E+00  0.00000000000E+00  0.21433553374E+01  0.21433553374E+01  0.00000000000E+00 0. -1.
         13   -1    0    0    0    0 -0.00000000000E+00 -0.00000000000E+00 -0.10000000000E+04  0.10000000000E+04  0.00000000000E+00 0.  1.
    9000005    2    1    2  501    0  0.61015564931E+01  0.29795285251E+02 -0.87652115637E+03  0.87705423217E+03  0.31305899861E+01 0.  0.
         13    1    3    3    0    0  0.49081522098E+01  0.27645302064E+02 -0.81691492474E+03  0.81739730055E+03  0.00000000000E+00 0.  1.
          3    1    3    3  501    0  0.11934042833E+01  0.21499831870E+01 -0.59606231633E+02  0.59656931625E+02  0.00000000000E+00 0.  1.
         -3    1    1    2    0  502 -0.61015564931E+01 -0.29795285251E+02 -0.12133548829E+03  0.12508912316E+03  0.00000000000E+00 0. -1.
<mgrwt>
<rscale>  1 0.30000000E+03</rscale>
<asrwt>0</asrwt>
<pdfrwt beam="1">  1       21 0.77940358E-02 0.30000000E+03</pdfrwt>
<pdfrwt beam="2">0</pdfrwt>
<totfact> 0.13372256E+04</totfact>
</mgrwt>
</event>
<event>
 6    1  0.1198667E-001  0.3000000E+03  0.7818608E-02  0.1093470E+00
         21   -1    0    0  501  502  0.00000000000E+00  0.00000000000E+00  0.90736019289E+01  0.90736019289E+01  0.00000000000E+00 0. -1.
         13   -1    0    0    0    0 -0.00000000000E+00 -0.00000000000E+00 -0.10000000000E+04  0.10000000000E+04  0.00000000000E+00 0.  1.
    9000005    2    1    2  501    0  0.34499879870E+02 -0.36596211861E+01 -0.96532329356E+03  0.96595569963E+03  0.42092772949E+01 0.  0.
         13    1    3    3    0    0  0.10124187649E+02  0.10402548559E+00 -0.32455870882E+03  0.32471659253E+03  0.00000000000E+00 0.  1.
          1    1    3    3  501    0  0.24375692221E+02 -0.37636466717E+01 -0.64076458474E+03  0.64123910709E+03  0.00000000000E+00 0.  1.
         -3    1    1    2    0  502 -0.34499879870E+02  0.36596211861E+01 -0.25603104511E+02  0.43117902301E+02  0.00000000000E+00 0. -1.
<mgrwt>
<rscale>  1 0.30000000E+03</rscale>
<asrwt>0</asrwt>
<pdfrwt beam="1">  1       21 0.32994986E-01 0.30000000E+03</pdfrwt>
<pdfrwt beam="2">0</pdfrwt>
<totfact> 0.89749520E+02</totfact>
</mgrwt>
</event>
<event>
 6    1  0.1198667E-001  0.3000000E+03  0.7818608E-02  0.1093470E+00
         21   -1    0    0  501  502  0.00000000000E+00  0.00000000000E+00  0.20974218848E+01  0.20974218848E+01  0.00000000000E+00 0. -1.
         13   -1    0    0    0    0 -0.00000000000E+00 -0.00000000000E+00 -0.10000000000E+04  0.10000000000E+04  0.00000000000E+00 0.  1.
    9000005    2    1    2  501    0  0.18158725327E+02  0.30848273226E+02 -0.81114367158E+03  0.81193894998E+03  0.30736436800E+01 0.  0.
         13    1    3    3    0    0  0.16675336038E+02  0.27571406343E+02 -0.70864002678E+03  0.70937221318E+03  0.00000000000E+00 0.  1.
          1    1    3    3  501    0  0.14833892886E+01  0.32768668832E+01 -0.10250364480E+03  0.10256673680E+03  0.00000000000E+00 0.  1.
         -3    1    1    2    0  502 -0.18158725327E+02 -0.30848273226E+02 -0.18675890654E+03  0.19015847190E+03  0.00000000000E+00 0. -1.
<mgrwt>
<rscale>  1 0.30000000E+03</rscale>
<asrwt>0</asrwt>
<pdfrwt beam="1">  1       21 0.76270048E-02 0.30000000E+03</pdfrwt>
<pdfrwt beam="2">0</pdfrwt>
<totfact> 0.13889872E+04</totfact>
</mgrwt>
</event>
<event>
 6    1  0.1198667E-001  0.3000000E+03  0.7818608E-02  0.1093470E+00
         21   -1    0    0  501  502  0.00000000000E+00  0.00000000000E+00  0.15204790774E+01  0.15204790774E+01  0.00000000000E+00 0. -1.
         13   -1    0    0    0    0 -0.00000000000E+00 -0.00000000000E+00 -0.10000000000E+04  0.10000000000E+04  0.00000000000E+00 0.  1.
    9000005    2    1    2  501    0 -0.33425278215E+02 -0.19700650894E+01 -0.75504442259E+03  0.75579344051E+03  0.32425702419E+01 0.  0.
         13    1    3    3    0    0 -0.29129876661E+02 -0.17108992029E+01 -0.67992114502E+03  0.68054701552E+03  0.00000000000E+00 0.  1.
          3    1    3    3  501    0 -0.42954015540E+01 -0.25916588648E+00 -0.75123277566E+02  0.75246424990E+02  0.00000000000E+00 0.  1.
         -3    1    1    2    0  502  0.33425278215E+02  0.19700650894E+01 -0.24343509834E+03  0.24572703857E+03  0.00000000000E+00 0. -1.
<mgrwt>
<rscale>  1 0.30000000E+03</rscale>
<asrwt>0</asrwt>
<pdfrwt beam="1">  1       21 0.55290265E-02 0.30000000E+03</pdfrwt>
<pdfrwt beam="2">0</pdfrwt>
<totfact> 0.24254209E+04</totfact>
</mgrwt>
</event>
<event>
 6    1  0.1198667E-001  0.3000000E+03  0.7818608E-02  0.1093470E+00
         21   -1    0    0  501  502  0.00000000000E+00  0.00000000000E+00  0.18689432385E+01  0.18689432385E+01  0.00000000000E+00 0. -1.
         13   -1    0    0    0    0 -0.00000000000E+00 -0.00000000000E+00 -0.10000000000E+04  0.10000000000E+04  0.00000000000E+00 0.  1.
    9000005    2    1    2  501    0  0.11937662492E+02 -0.41038205015E+02 -0.55863459916E+03  0.56029926776E+03  0.60010014790E+01 0.  0.
         13    1    3    3    0    0  0.62540847836E+01 -0.27997164374E+02 -0.40049400898E+03  0.40152011907E+03  0.00000000000E+00 0.  1.
          1    1    3    3  501    0  0.56835777087E+01 -0.13041040641E+02 -0.15814059018E+03  0.15877914869E+03  0.00000000000E+00 0.  1.
         -1    1    1    2    0  502 -0.11937662492E+02  0.41038205015E+02 -0.43949645760E+03  0.44156967548E+03  0.00000000000E+00 0. -1.
<mgrwt>
<rscale>  1 0.30000000E+03</rscale>
<asrwt>0</asrwt>
<pdfrwt beam="1">  1       21 0.67961716E-02 0.30000000E+03</pdfrwt>
<pdfrwt beam="2">0</pdfrwt>
<totfact> 0.16985798E+04</totfact>
</mgrwt>
</event>
<event>
 6    1  0.1198667E-001  0.3000000E+03  0.7818608E-02  0.1093470E+00
         21   -1    0    0  501  502  0.00000000000E+00  0.00000000000E+00  0.18363040830E+01  0.18363040830E+01  0.00000000000E+00 0. -1.
         13   -1    0    0    0    0 -0.00000000000E+00 -0.00000000000E+00 -0.10000000000E+04  0.10000000000E+04  0.00000000000E+00 0.  1.
    9000005    2    1    2  501    0  0.15495563443E+02 -0.31989363231E+02 -0.77348084028E+03  0.77435923389E+03  0.98071904401E+01 0.  0.
         13    1    3    3    0    0  0.13869086179E+02 -0.19066388139E+02 -0.45171393093E+03  0.45232881193E+03  0.00000000000E+00 0.  1.
          1    1    3    3  501    0  0.16264772644E+01 -0.12922975092E+02 -0.32176690935E+03  0.32203042196E+03  0.00000000000E+00 0.  1.
         -1    1    1    2    0  502 -0.15495563443E+02  0.31989363231E+02 -0.22468285563E+03  0.22747707019E+03  0.00000000000E+00 0. -1.
<mgrwt>
<rscale>  1 0.30000000E+03</rscale>
<asrwt>0</asrwt>
<pdfrwt beam="1">  1       21 0.66774835E-02 0.30000000E+03</pdfrwt>
<pdfrwt beam="2">0</pdfrwt>
<totfact> 0.17513141E+04</totfact>
</mgrwt>
</event>
<event>
 6    1  0.1198667E-001  0.3000000E+03  0.7818608E-02  0.1093470E+00
         21   -1    0    0  501  502  0.00000000000E+00  0.00000000000E+00  0.24030431943E+01  0.24030431943E+01  0.00000000000E+00 0. -1.
         13   -1    0    0    0    0 -0.00000000000E+00 -0.00000000000E+00 -0.10000000000E+04  0.10000000000E+04  0.00000000000E+00 0.  1.
    9000005    2    1    2  501    0 -0.21121576378E+02 -0.24356875678E+02 -0.87512620381E+03  0.87575998685E+03  0.83847234220E+01 0.  0.
         13    1    3    3    0    0 -0.27626868939E+01 -0.77130519250E+01 -0.27590409641E+03  0.27602571261E+03  0.00000000000E+00 0.  1.
          3    1    3    3  501    0 -0.18358889484E+02 -0.16643823753E+02 -0.59922210740E+03  0.59973427424E+03  0.00000000000E+00 0.  1.
         -3    1    1    2    0  502  0.21121576378E+02  0.24356875678E+02 -0.12247075299E+03  0.12664305634E+03  0.00000000000E+00 0. -1.
<mgrwt>
<rscale>  1 0.30000000E+03</rscale>
<asrwt>0</asrwt>
<pdfrwt beam="1">  1       21 0.87383573E-02 0.30000000E+03</pdfrwt>
<pdfrwt beam="2">0</pdfrwt>
<totfact> 0.10934218E+04</totfact>
</mgrwt>
</event>
<event>
 6    1  0.1198667E-001  0.3000000E+03  0.7818608E-02  0.1093470E+00
         21   -1    0    0  501  502  0.00000000000E+00  0.00000000000E+00  0.55365775125E+01  0.55365775125E+01  0.00000000000E+00 0. -1.
         13   -1    0    0    0    0 -0.00000000000E+00 -0.00000000000E+00 -0.10000000000E+04  0.10000000000E+04  0.00000000000E+00 0.  1.
    9000005    2    1    2  501    0 -0.67371508184E+01 -0.61896439659E+02 -0.77228580898E+03  0.77479982191E+03  0.35825732436E+01 0.  0.
         13    1    3    3    0    0 -0.54477762535E+01 -0.52387982594E+02 -0.66820754741E+03  0.67028016933E+03  0.00000000000E+00 0.  1.
          1    1    3    3  501    0 -0.12893745649E+01 -0.95084570652E+01 -0.10407826157E+03  0.10451965258E+03  0.00000000000E+00 0.  1.
         -3    1    1    2    0  502  0.67371508184E+01  0.61896439659E+02 -0.22217761350E+03  0.23073675560E+03  0.00000000000E+00 0. -1.
<mgrwt>
<rscale>  1 0.30000000E+03</rscale>
<asrwt>0</asrwt>
<pdfrwt beam="1">  1       21 0.20133052E-01 0.30000000E+03</pdfrwt>
<pdfrwt beam="2">0</pdfrwt>
<totfact> 0.23690331E+03</totfact>
</mgrwt>
</event>
<event>
 6    1  0.1198667E-001  0.3000000E+03  0.7818608E-02  0.1093470E+00
         21   -1    0    0  501  502  0.00000000000E+00  0.00000000000E+00  0.16361187636E+01  0.16361187636E+01  0.00000000000E+00 0. -1.
         13   -1    0    0    0    0 -0.00000000000E+00 -0.00000000000E+00 -0.10000000000E+04  0.10000000000E+04  0.00000000000E+00 0.  1.
    9000005    2    1    2  501    0  0.33493407761E+02  0.39662700371E+00 -0.77918436864E+03  0.77991191075E+03  0.35131927214E+01 0.  0.
         13    1    3    3    0    0  0.32568388921E+01  0.29827647818E+00 -0.10285286628E+03  0.10290484960E+03  0.00000000000E+00 0.  1.
          3    1    3    3  501    0  0.30236568869E+02  0.98350525528E-01 -0.67633150236E+03  0.67700706115E+03  0.00000000000E+00 0.  1.
         -3    1    1    2    0  502 -0.33493407761E+02 -0.39662700371E+00 -0.21917951260E+03  0.22172420801E+03  0.00000000000E+00 0. -1.
<mgrwt>
<rscale>  1 0.30000000E+03</rscale>
<asrwt>0</asrwt>
<pdfrwt beam="1">  1       21 0.59495353E-02 0.30000000E+03</pdfrwt>
<pdfrwt beam="2">0</pdfrwt>
<totfact> 0.21380810E+04</totfact>
</mgrwt>
</event>
<event>
 6    1  0.1198667E-001  0.3000000E+03  0.7818608E-02  0.1093470E+00
         21   -1    0    0  501  502  0.00000000000E+00  0.00000000000E+00  0.15899222713E+01  0.15899222713E+01  0.00000000000E+00 0. -1.
         13   -1    0    0    0    0 -0.00000000000E+00 -0.00000000000E+00 -0.10000000000E+04  0.10000000000E+04  0.00000000000E+00 0.  1.
    9000005    2    1    2  501    0 -0.26085119624E+02 -0.29607055671E+02 -0.56568074889E+03  0.56706525870E+03  0.33595762749E+01 0.  0.
         13    1    3    3    0    0 -0.11368626266E+02 -0.12264888843E+02 -0.26297183017E+03  0.26350304861E+03  0.00000000000E+00 0.  1.
          3    1    3    3  501    0 -0.14716493358E+02 -0.17342166827E+02 -0.30270891872E+03  0.30356221009E+03  0.00000000000E+00 0.  1.
         -1    1    1    2    0  502  0.26085119624E+02  0.29607055671E+02 -0.43272932884E+03  0.43452466357E+03  0.00000000000E+00 0. -1.
<mgrwt>
<rscale>  1 0.30000000E+03</rscale>
<asrwt>0</asrwt>
<pdfrwt beam="1">  1       21 0.57815477E-02 0.30000000E+03</pdfrwt>
<pdfrwt beam="2">0</pdfrwt>
<totfact> 0.22462483E+04</totfact>
</mgrwt>
</event>
<event>
 6    1  0.1198667E-001  0.3000000E+03  0.7818608E-02  0.1093470E+00
         21   -1    0    0  501  502  0.00000000000E+00  0.00000000000E+00  0.16022138237E+01  0.16022138237E+01  0.00000000000E+00 0. -1.
         13   -1    0    0    0    0 -0.00000000000E+00 -0.00000000000E+00 -0.10000000000E+04  0.10000000000E+04  0.00000000000E+00 0.  1.
    9000005    2    1    2  501    0 -0.33606644638E+02  0.15614674590E+02 -0.68678875117E+03  0.68779747307E+03  0.36538461682E+01 0.  0.
         13    1    3    3    0    0 -0.30027495942E+02  0.13248516603E+02 -0.58744994418E+03  0.58836605156E+03  0.00000000000E+00 0.  1.
          3    1    3    3  501    0 -0.35791486959E+01  0.23661579863E+01 -0.99338806991E+02  0.99431421509E+02  0.00000000000E+00 0.  1.
         -1    1    1    2    0  502  0.33606644638E+02 -0.15614674590E+02 -0.31160903500E+03  0.31380474076E+03  0.00000000000E+00 0. -1.
<mgrwt>
<rscale>  1 0.30000000E+03</rscale>
<asrwt>0</asrwt>
<pdfrwt beam="1">  1       21 0.58262444E-02 0.30000000E+03</pdfrwt>
<pdfrwt beam="2">0</pdfrwt>
<totfact> 0.22166522E+04</totfact>
</mgrwt>
</event>
<event>
 6    1  0.1198667E-001  0.3000000E+03  0.7818608E-02  0.1093470E+00
         21   -1    0    0  501  502  0.00000000000E+00  0.00000000000E+00  0.13124259669E+01  0.13124259669E+01  0.00000000000E+00 0. -1.
         13   -1    0    0    0    0 -0.00000000000E+00 -0.00000000000E+00 -0.10000000000E+04  0.10000000000E+04  0.00000000000E+00 0.  1.
    9000005    2    1    2  501    0 -0.55425955045E+01 -0.30328836162E+02 -0.76124660019E+03  0.76187814537E+03  0.33709666049E+01 0.  0.
         13    1    3    3    0    0 -0.24847589308E+00 -0.23898503614E+00 -0.37932499154E+01  0.38088842247E+01  0.00000000000E+00 0.  1.
          1    1    3    3  501    0 -0.52941196114E+01 -0.30089851126E+02 -0.75745335028E+03  0.75806926114E+03  0.00000000000E+00 0.  1.
         -1    1    1    2    0  502  0.55425955045E+01  0.30328836162E+02 -0.23744097384E+03  0.23943428060E+03  0.00000000000E+00 0. -1.
<mgrwt>
<rscale>  1 0.30000000E+03</rscale>
<asrwt>0</asrwt>
<pdfrwt beam="1">  1       21 0.47724681E-02 0.30000000E+03</pdfrwt>
<pdfrwt beam="2">0</pdfrwt>
<totfact> 0.31182235E+04</totfact>
</mgrwt>
</event>
<event>
 6    1  0.1198667E-001  0.3000000E+03  0.7818608E-02  0.1093470E+00
         21   -1    0    0  501  502  0.00000000000E+00  0.00000000000E+00  0.46628670255E+01  0.46628670255E+01  0.00000000000E+00 0. -1.
         13   -1    0    0    0    0 -0.00000000000E+00 -0.00000000000E+00 -0.10000000000E+04  0.10000000000E+04  0.00000000000E+00 0.  1.
    9000005    2    1    2  501    0 -0.32036422791E+02  0.75871580600E+01 -0.93771873197E+03  0.93830190345E+03  0.31850231334E+01 0.  0.
         13    1    3    3    0    0 -0.50173182445E+01  0.19315389608E-01 -0.14208469093E+03  0.14217325083E+03  0.00000000000E+00 0.  1.
          1    1    3    3  501    0 -0.27019104547E+02  0.75678426704E+01 -0.79563404104E+03  0.79612865262E+03  0.00000000000E+00 0.  1.
         -3    1    1    2    0  502  0.32036422791E+02 -0.75871580600E+01 -0.57618401001E+02  0.66360963575E+02  0.00000000000E+00 0. -1.
<mgrwt>
<rscale>  1 0.30000000E+03</rscale>
<asrwt>0</asrwt>
<pdfrwt beam="1">  1       21 0.16955916E-01 0.30000000E+03</pdfrwt>
<pdfrwt beam="2">0</pdfrwt>
<totfact> 0.32774192E+03</totfact>
</mgrwt>
</event>
<event>
 6    1  0.1198667E-001  0.3000000E+03  0.7818608E-02  0.1093470E+00
         21   -1    0    0  501  502  0.00000000000E+00  0.00000000000E+00  0.21512430400E+01  0.21512430400E+01  0.00000000000E+00 0. -1.
         13   -1    0    0    0    0 -0.00000000000E+00 -0.00000000000E+00 -0.10000000000E+04  0.10000000000E+04  0.00000000000E+00 0.  1.
    9000005    2    1    2  501    0 -0.35283510646E+02 -0.29714938103E+02 -0.54296419732E+03  0.54493371683E+03  0.38382941969E+01 0.  0.
         13    1    3    3    0    0 -0.27665475802E+01 -0.29046511228E+01 -0.36776831245E+02  0.36994946954E+02  0.00000000000E+00 0.  1.
          3    1    3    3  501    0 -0.32516963066E+02 -0.26810286981E+02 -0.50618736607E+03  0.50793876988E+03  0.00000000000E+00 0.  1.
         -1    1    1    2    0  502  0.35283510646E+02  0.29714938103E+02 -0.45488455964E+03  0.45721752621E+03  0.00000000000E+00 0. -1.
<mgrwt>
<rscale>  1 0.30000000E+03</rscale>
<asrwt>0</asrwt>
<pdfrwt beam="1">  1       21 0.78227185E-02 0.30000000E+03</pdfrwt>
<pdfrwt beam="2">0</pdfrwt>
<totfact> 0.13286368E+04</totfact>
</mgrwt>
</event>
<event>
 6    1  0.1198667E-001  0.3000000E+03  0.7818608E-02  0.1093470E+00
         21   -1    0    0  501  502  0.00000000000E+00  0.00000000000E+00  0.14487668771E+01  0.14487668771E+01  0.00000000000E+00 0. -1.
         13   -1    0    0    0    0 -0.00000000000E+00 -0.00000000000E+00 -0.10000000000E+04  0.10000000000E+04  0.00000000000E+00 0.  1.
    9000005    2    1    2  501    0 -0.18954540076E+02 -0.32669559013E+02 -0.55337299630E+03  0.55467115193E+03  0.34407957909E+01 0.  0.
         13    1    3    3    0    0 -0.19041079976E+02 -0.32575898878E+02 -0.55267819352E+03  0.55396474392E+03  0.00000000000E+00 0.  1.
          1    1    3    3  501    0  0.86539900105E-01 -0.93660134870E-01 -0.69480277449E+00  0.70640800577E+00  0.00000000000E+00 0.  1.
         -3    1    1    2    0  502  0.18954540076E+02  0.32669559013E+02 -0.44517823683E+03  0.44677761495E+03  0.00000000000E+00 0. -1.
<mgrwt>
<rscale>  1 0.30000000E+03</rscale>
<asrwt>0</asrwt>
<pdfrwt beam="1">  1       21 0.52682543E-02 0.30000000E+03</pdfrwt>
<pdfrwt beam="2">0</pdfrwt>
<totfact> 0.26346140E+04</totfact>
</mgrwt>
</event>
<event>
 6    1  0.1198667E-001  0.3000000E+03  0.7818608E-02  0.1093470E+00
         21   -1    0    0  501  502  0.00000000000E+00  0.00000000000E+00  0.57357802585E+01  0.57357802585E+01  0.00000000000E+00 0. -1.
         13   -1    0    0    0    0 -0.00000000000E+00 -0.00000000000E+00 -0.10000000000E+04  0.10000000000E+04  0.00000000000E+00 0.  1.
    9000005    2    1    2  501    0 -0.25701899550E+02 -0.20363653022E+02 -0.95036071732E+03  0.95093812037E+03  0.47486559407E+01 0.  0.
         13    1    3    3    0    0 -0.18926862506E+02 -0.17057478555E+02 -0.76492651727E+03  0.76535074346E+03  0.00000000000E+00 0.  1.
          3    1    3    3  501    0 -0.67750370439E+01 -0.33061744667E+01 -0.18543420006E+03  0.18558737691E+03  0.00000000000E+00 0.  1.
         -3    1    1    2    0  502  0.25701899550E+02  0.20363653022E+02 -0.43903502418E+02  0.54797659890E+02  0.00000000000E+00 0. -1.
<mgrwt>
<rscale>  1 0.30000000E+03</rscale>
<asrwt>0</asrwt>
<pdfrwt beam="1">  1       21 0.20857427E-01 0.30000000E+03</pdfrwt>
<pdfrwt beam="2">0</pdfrwt>
<totfact> 0.22141396E+03</totfact>
</mgrwt>
</event>
<event>
 6    1  0.1198667E-001  0.3000000E+03  0.7818608E-02  0.1093470E+00
         21   -1    0    0  501  502  0.00000000000E+00  0.00000000000E+00  0.12878471126E+01  0.12878471126E+01  0.00000000000E+00 0. -1.
         13   -1    0    0    0    0 -0.00000000000E+00 -0.00000000000E+00 -0.10000000000E+04  0.10000000000E+04  0.00000000000E+00 0.  1.
    9000005    2    1    2  501    0  0.31780851300E+02  0.23269078239E+01 -0.72834228559E+03  0.72904658986E+03  0.33178600348E+01 0.  0.
         13    1    3    3    0    0  0.67340300379E+01  0.97866428732E+00 -0.18634785305E+03  0.18647205496E+03  0.00000000000E+00 0.  1.
          3    1    3    3  501    0  0.25046821262E+02  0.13482435366E+01 -0.54199443254E+03  0.54257453490E+03  0.00000000000E+00 0.  1.
         -1    1    1    2    0  502 -0.31780851300E+02 -0.23269078239E+01 -0.27036986729E+03  0.27224125725E+03  0.00000000000E+00 0. -1.
<mgrwt>
<rscale>  1 0.30000000E+03</rscale>
<asrwt>0</asrwt>
<pdfrwt beam="1">  1       21 0.46830903E-02 0.30000000E+03</pdfrwt>
<pdfrwt beam="2">0</pdfrwt>
<totfact> 0.32201049E+04</totfact>
</mgrwt>
</event>
<event>
 6    1  0.1198667E-001  0.3000000E+03  0.7818608E-02  0.1093470E+00
         21   -1    0    0  501  502  0.00000000000E+00  0.00000000000E+00  0.22330933254E+01  0.22330933254E+01  0.00000000000E+00 0. -1.
         13   -1    0    0    0    0 -0.00000000000E+00 -0.00000000000E+00 -0.10000000000E+04  0.10000000000E+04  0.00000000000E+00 0.  1.
    9000005    2    1    2  501    0 -0.15740986724E+01 -0.43694168275E+02 -0.68803304255E+03  0.68942848224E+03  0.32413518279E+01 0.  0.
         13    1    3    3    0    0 -0.86887664160E+00 -0.41475622081E+01 -0.57291819702E+02  0.57448323071E+02  0.00000000000E+00 0.  1.
          3    1    3    3  501    0 -0.70522203080E+00 -0.39546606066E+02 -0.63074122284E+03  0.63198015917E+03  0.00000000000E+00 0.  1.
         -3    1    1    2    0  502  0.15740986724E+01  0.43694168275E+02 -0.30973386413E+03  0.31280461108E+03  0.00000000000E+00 0. -1.
<mgrwt>
<rscale>  1 0.30000000E+03</rscale>
<asrwt>0</asrwt>
<pdfrwt beam="1">  1       21 0.81203565E-02 0.30000000E+03</pdfrwt>
<pdfrwt beam="2">0</pdfrwt>
<totfact> 0.12443045E+04</totfact>
</mgrwt>
</event>
<event>
 6    1  0.1198667E-001  0.3000000E+03  0.7818608E-02  0.1093470E+00
         21   -1    0    0  501  502  0.00000000000E+00  0.00000000000E+00  0.14974783595E+01  0.14974783595E+01  0.00000000000E+00 0. -1.
         13   -1    0    0    0    0 -0.00000000000E+00 -0.00000000000E+00 -0.10000000000E+04  0.10000000000E+04  0.00000000000E+00 0.  1.
    9000005    2    1    2  501    0 -0.21539094596E+02  0.23188589005E+02 -0.78664247964E+03  0.78728655275E+03  0.34759319941E+01 0.  0.
         13    1    3    3    0    0 -0.12451380574E+02  0.15785510054E+02 -0.50745160523E+03  0.50784973255E+03  0.00000000000E+00 0.  1.
          1    1    3    3  501    0 -0.90877140221E+01  0.74030789505E+01 -0.27919087441E+03  0.27943682019E+03  0.00000000000E+00 0.  1.
         -3    1    1    2    0  502  0.21539094596E+02 -0.23188589005E+02 -0.21186004200E+03  0.21421092561E+03  0.00000000000E+00 0. -1.
<mgrwt>
<rscale>  1 0.30000000E+03</rscale>
<asrwt>0</asrwt>
<pdfrwt beam="1">  1       21 0.54453873E-02 0.30000000E+03</pdfrwt>
<pdfrwt beam="2">0</pdfrwt>
<totfact> 0.24896377E+04</totfact>
</mgrwt>
</event>
<event>
 6    1  0.1198667E-001  0.3000000E+03  0.7818608E-02  0.1093470E+00
         21   -1    0    0  501  502  0.00000000000E+00  0.00000000000E+00  0.12224778530E+02  0.12224778530E+02  0.00000000000E+00 0. -1.
         13   -1    0    0    0    0 -0.00000000000E+00 -0.00000000000E+00 -0.10000000000E+04  0.10000000000E+04  0.00000000000E+00 0.  1.
    9000005    2    1    2  501    0 -0.43730965325E+02  0.53723553377E+02 -0.88830163366E+03  0.89100756776E+03  0.40094790188E+01 0.  0.
         13    1    3    3    0    0 -0.27481875544E+02  0.31709440029E+02 -0.55639841725E+03  0.55797844115E+03  0.00000000000E+00 0.  1.
          1    1    3    3  501    0 -0.16249089780E+02  0.22014113348E+02 -0.33190321641E+03  0.33302912661E+03  0.00000000000E+00 0.  1.
         -3    1    1    2    0  502  0.43730965325E+02 -0.53723553377E+02 -0.99473587811E+02  0.12121721077E+03  0.00000000000E+00 0. -1.
<mgrwt>
<rscale>  1 0.30000000E+03</rscale>
<asrwt>0</asrwt>
<pdfrwt beam="1">  1       21 0.44453834E-01 0.30000000E+03</pdfrwt>
<pdfrwt beam="2">0</pdfrwt>
<totfact> 0.48348660E+02</totfact>
</mgrwt>
</event>
<event>
 6    1  0.1198667E-001  0.3000000E+03  0.7818608E-02  0.1093470E+00
         21   -1    0    0  501  502  0.00000000000E+00  0.00000000000E+00  0.18470677111E+01  0.18470677111E+01  0.00000000000E+00 0. -1.
         13   -1    0    0    0    0 -0.00000000000E+00 -0.00000000000E+00 -0.10000000000E+04  0.10000000000E+04  0.00000000000E+00 0.  1.
    9000005    2    1    2  501    0 -0.40003104192E+02  0.76857629157E+01 -0.65674931470E+03  0.65802189499E+03  0.37192237922E+01 0.  0.
         13    1    3    3    0    0 -0.61347681015E+01  0.12083744144E+01 -0.81045071369E+02  0.81285909859E+02  0.00000000000E+00 0.  1.
          1    1    3    3  501    0 -0.33868336090E+02  0.64773885013E+01 -0.57570424333E+03  0.57673598513E+03  0.00000000000E+00 0.  1.
         -1    1    1    2    0  502  0.40003104192E+02 -0.76857629157E+01 -0.34140361759E+03  0.34382517272E+03  0.00000000000E+00 0. -1.
<mgrwt>
<rscale>  1 0.30000000E+03</rscale>
<asrwt>0</asrwt>
<pdfrwt beam="1">  1       21 0.67166240E-02 0.30000000E+03</pdfrwt>
<pdfrwt beam="2">0</pdfrwt>
<totfact> 0.17336488E+04</totfact>
</mgrwt>
</event>
<event>
 6    1  0.1198667E-001  0.3000000E+03  0.7818608E-02  0.1093470E+00
         21   -1    0    0  501  502  0.00000000000E+00  0.00000000000E+00  0.46057110210E+01  0.46057110210E+01  0.00000000000E+00 0. -1.
         13   -1    0    0    0    0 -0.00000000000E+00 -0.00000000000E+00 -0.10000000000E+04  0.10000000000E+04  0.00000000000E+00 0.  1.
    9000005    2    1    2  501    0  0.15391591021E+02 -0.42164841256E+02 -0.87436953368E+03  0.87552524655E+03  0.27569930466E+01 0.  0.
         13    1    3    3    0    0  0.70906295014E+01 -0.18881785862E+02 -0.36658753180E+03  0.36714195802E+03  0.00000000000E+00 0.  1.
          3    1    3    3  501    0  0.83009615197E+01 -0.23283055393E+02 -0.50778200188E+03  0.50838328853E+03  0.00000000000E+00 0.  1.
         -1    1    1    2    0  502 -0.15391591021E+02  0.42164841256E+02 -0.12102475530E+03  0.12908046447E+03  0.00000000000E+00 0. -1.
<mgrwt>
<rscale>  1 0.30000000E+03</rscale>
<asrwt>0</asrwt>
<pdfrwt beam="1">  1       21 0.16748075E-01 0.30000000E+03</pdfrwt>
<pdfrwt beam="2">0</pdfrwt>
<totfact> 0.33539497E+03</totfact>
</mgrwt>
</event>
<event>
 6    1  0.1198667E-001  0.3000000E+03  0.7818608E-02  0.1093470E+00
         21   -1    0    0  501  502  0.00000000000E+00  0.00000000000E+00  0.14736333217E+01  0.14736333217E+01  0.00000000000E+00 0. -1.
         13   -1    0    0    0    0 -0.00000000000E+00 -0.00000000000E+00 -0.10000000000E+04  0.10000000000E+04  0.00000000000E+00 0.  1.
    9000005    2    1    2  501    0 -0.16485485949E+02 -0.28156019554E+02 -0.76187712946E+03  0.76258580576E+03  0.39771923406E+01 0.  0.
         13    1    3    3    0    0 -0.15554247353E+02 -0.25175530678E+02 -0.66449632454E+03  0.66515494983E+03  0.00000000000E+00 0.  1.
          1    1    3    3  501    0 -0.93123859558E+00 -0.29804888766E+01 -0.97380804924E+02  0.97430855929E+02  0.00000000000E+00 0.  1.
         -1    1    1    2    0  502  0.16485485949E+02  0.28156019554E+02 -0.23664923721E+03  0.23888782756E+03  0.00000000000E+00 0. -1.
<mgrwt>
<rscale>  1 0.30000000E+03</rscale>
<asrwt>0</asrwt>
<pdfrwt beam="1">  1       21 0.53586779E-02 0.30000000E+03</pdfrwt>
<pdfrwt beam="2">0</pdfrwt>
<totfact> 0.25590223E+04</totfact>
</mgrwt>
</event>
<event>
 6    1  0.1198667E-001  0.3000000E+03  0.7818608E-02  0.1093470E+00
         21   -1    0    0  501  502  0.00000000000E+00  0.00000000000E+00  0.11318930340E+01  0.11318930340E+01  0.00000000000E+00 0. -1.
         13   -1    0    0    0    0 -0.00000000000E+00 -0.00000000000E+00 -0.10000000000E+04  0.10000000000E+04  0.00000000000E+00 0.  1.
    9000005    2    1    2  501    0  0.38999173005E+01 -0.33251794935E+02 -0.46325118485E+03  0.46446963567E+03  0.30807423792E+01 0.  0.
         13    1    3    3    0    0  0.10706352507E+01 -0.42744430764E+01 -0.49795527293E+02  0.49990115641E+02  0.00000000000E+00 0.  1.
          3    1    3    3  501    0  0.28292820498E+01 -0.28977351859E+02 -0.41345565756E+03  0.41447952003E+03  0.00000000000E+00 0.  1.
         -1    1    1    2    0  502 -0.38999173005E+01  0.33251794935E+02 -0.53561692211E+03  0.53666225736E+03  0.00000000000E+00 0. -1.
<mgrwt>
<rscale>  1 0.30000000E+03</rscale>
<asrwt>0</asrwt>
<pdfrwt beam="1">  1       21 0.41159833E-02 0.30000000E+03</pdfrwt>
<pdfrwt beam="2">0</pdfrwt>
<totfact> 0.40069851E+04</totfact>
</mgrwt>
</event>
<event>
 6    1  0.1198667E-001  0.3000000E+03  0.7818608E-02  0.1093470E+00
         21   -1    0    0  501  502  0.00000000000E+00  0.00000000000E+00  0.13111527319E+02  0.13111527319E+02  0.00000000000E+00 0. -1.
         13   -1    0    0    0    0 -0.00000000000E+00 -0.00000000000E+00 -0.10000000000E+04  0.10000000000E+04  0.00000000000E+00 0.  1.
    9000005    2    1    2  501    0  0.12308082890E+02 -0.56195666959E+02 -0.93141022145E+03  0.93319107781E+03  0.33384431860E+01 0.  0.
         13    1    3    3    0    0  0.98748411949E+01 -0.48540233379E+02 -0.81519719934E+03  0.81670076562E+03  0.00000000000E+00 0.  1.
          1    1    3    3  501    0  0.24332416949E+01 -0.76554335799E+01 -0.11621302211E+03  0.11649031220E+03  0.00000000000E+00 0.  1.
         -3    1    1    2    0  502 -0.12308082890E+02  0.56195666959E+02 -0.55478251233E+02  0.79920449506E+02  0.00000000000E+00 0. -1.
<mgrwt>
<rscale>  1 0.30000000E+03</rscale>
<asrwt>0</asrwt>
<pdfrwt beam="1">  1       21 0.47678382E-01 0.30000000E+03</pdfrwt>
<pdfrwt beam="2">0</pdfrwt>
<totfact> 0.41631752E+02</totfact>
</mgrwt>
</event>
<event>
 6    1  0.1198667E-001  0.3000000E+03  0.7818608E-02  0.1093470E+00
         21   -1    0    0  501  502  0.00000000000E+00  0.00000000000E+00  0.19497357880E+01  0.19497357880E+01  0.00000000000E+00 0. -1.
         13   -1    0    0    0    0 -0.00000000000E+00 -0.00000000000E+00 -0.10000000000E+04  0.10000000000E+04  0.00000000000E+00 0.  1.
    9000005    2    1    2  501    0 -0.22390553282E+02 -0.23396493569E+02 -0.83848122284E+03  0.83912771101E+03  0.59851103879E+01 0.  0.
         13    1    3    3    0    0 -0.18867314934E+02 -0.19657792393E+02 -0.75252169654E+03  0.75301481269E+03  0.00000000000E+00 0.  1.
          3    1    3    3  501    0 -0.35232383485E+01 -0.37387011758E+01 -0.85959526301E+02  0.86112898318E+02  0.00000000000E+00 0.  1.
         -3    1    1    2    0  502  0.22390553282E+02  0.23396493569E+02 -0.15956904137E+03  0.16282202478E+03  0.00000000000E+00 0. -1.
<mgrwt>
<rscale>  1 0.30000000E+03</rscale>
<asrwt>0</asrwt>
<pdfrwt beam="1">  1       21 0.70899633E-02 0.30000000E+03</pdfrwt>
<pdfrwt beam="2">0</pdfrwt>
<totfact> 0.15780466E+04</totfact>
</mgrwt>
</event>
<event>
 6    1  0.1198667E-001  0.3000000E+03  0.7818608E-02  0.1093470E+00
         21   -1    0    0  501  502  0.00000000000E+00  0.00000000000E+00  0.32639170793E+01  0.32639170793E+01  0.00000000000E+00 0. -1.
         13   -1    0    0    0    0 -0.00000000000E+00 -0.00000000000E+00 -0.10000000000E+04  0.10000000000E+04  0.00000000000E+00 0.  1.
    9000005    2    1    2  501    0  0.44838409024E+02 -0.11060586602E+02 -0.79315059447E+03  0.79450599362E+03  0.43690832404E+01 0.  0.
         13    1    3    3    0    0  0.29647117415E+02 -0.67269615716E+01 -0.55505307046E+03  0.55588498325E+03  0.00000000000E+00 0.  1.
          1    1    3    3  501    0  0.15191291609E+02 -0.43336250308E+01 -0.23809752401E+03  0.23862101037E+03  0.00000000000E+00 0.  1.
         -1    1    1    2    0  502 -0.44838409024E+02  0.11060586602E+02 -0.20358548845E+03  0.20875792346E+03  0.00000000000E+00 0. -1.
<mgrwt>
<rscale>  1 0.30000000E+03</rscale>
<asrwt>0</asrwt>
<pdfrwt beam="1">  1       21 0.11868814E-01 0.30000000E+03</pdfrwt>
<pdfrwt beam="2">0</pdfrwt>
<totfact> 0.63219156E+03</totfact>
</mgrwt>
</event>
<event>
 6    1  0.1198667E-001  0.3000000E+03  0.7818608E-02  0.1093470E+00
         21   -1    0    0  501  502  0.00000000000E+00  0.00000000000E+00  0.15219095575E+01  0.15219095575E+01  0.00000000000E+00 0. -1.
         13   -1    0    0    0    0 -0.00000000000E+00 -0.00000000000E+00 -0.10000000000E+04  0.10000000000E+04  0.00000000000E+00 0.  1.
    9000005    2    1    2  501    0  0.37464463576E+02  0.68900735200E+01 -0.39837102029E+03  0.40020705460E+03  0.38932764374E+01 0.  0.
         13    1    3    3    0    0  0.23258050695E+02  0.59975369226E+01 -0.25863695452E+03  0.25974984430E+03  0.00000000000E+00 0.  1.
          1    1    3    3  501    0  0.14206412881E+02  0.89253659743E+00 -0.13973406577E+03  0.14045721030E+03  0.00000000000E+00 0.  1.
         -1    1    1    2    0  502 -0.37464463576E+02 -0.68900735200E+01 -0.60010707015E+03  0.60131485496E+03  0.00000000000E+00 0. -1.
<mgrwt>
<rscale>  1 0.30000000E+03</rscale>
<asrwt>0</asrwt>
<pdfrwt beam="1">  1       21 0.55342282E-02 0.30000000E+03</pdfrwt>
<pdfrwt beam="2">0</pdfrwt>
<totfact> 0.24215116E+04</totfact>
</mgrwt>
</event>
<event>
 6    1  0.1198667E-001  0.3000000E+03  0.7818608E-02  0.1093470E+00
         21   -1    0    0  501  502  0.00000000000E+00  0.00000000000E+00  0.99365226230E+00  0.99365226230E+00  0.00000000000E+00 0. -1.
         13   -1    0    0    0    0 -0.00000000000E+00 -0.00000000000E+00 -0.10000000000E+04  0.10000000000E+04  0.00000000000E+00 0.  1.
    9000005    2    1    2  501    0 -0.10174639243E+02  0.28998948055E+02 -0.39312621083E+03  0.39433460257E+03  0.26643708272E+01 0.  0.
         13    1    3    3    0    0 -0.68703261755E+01  0.16800780141E+02 -0.24355534193E+03  0.24423077647E+03  0.00000000000E+00 0.  1.
          1    1    3    3  501    0 -0.33043130673E+01  0.12198167914E+02 -0.14957086890E+03  0.15010382610E+03  0.00000000000E+00 0.  1.
         -1    1    1    2    0  502  0.10174639243E+02 -0.28998948055E+02 -0.60588013691E+03  0.60665904969E+03  0.00000000000E+00 0. -1.
<mgrwt>
<rscale>  1 0.30000000E+03</rscale>
<asrwt>0</asrwt>
<pdfrwt beam="1">  1       21 0.36132886E-02 0.30000000E+03</pdfrwt>
<pdfrwt beam="2">0</pdfrwt>
<totfact> 0.49881140E+04</totfact>
</mgrwt>
</event>
<event>
 6    1  0.1198667E-001  0.3000000E+03  0.7818608E-02  0.1093470E+00
         21   -1    0    0  501  502  0.00000000000E+00  0.00000000000E+00  0.17644106127E+01  0.17644106127E+01  0.00000000000E+00 0. -1.
         13   -1    0    0    0    0 -0.00000000000E+00 -0.00000000000E+00 -0.10000000000E+04  0.10000000000E+04  0.00000000000E+00 0.  1.
    9000005    2    1    2  501    0  0.28285549276E+02 -0.18833986942E+02 -0.79122137454E+03  0.79197957677E+03  0.67524164650E+01 0.  0.
         13    1    3    3    0    0  0.15768137168E+02 -0.10833261673E+02 -0.36717397596E+03  0.36767203093E+03  0.00000000000E+00 0.  1.
          1    1    3    3  501    0  0.12517412108E+02 -0.80007252691E+01 -0.42404739858E+03  0.42430754583E+03  0.00000000000E+00 0.  1.
         -3    1    1    2    0  502 -0.28285549276E+02  0.18833986942E+02 -0.20701421485E+03  0.20978483385E+03  0.00000000000E+00 0. -1.
<mgrwt>
<rscale>  1 0.30000000E+03</rscale>
<asrwt>0</asrwt>
<pdfrwt beam="1">  1       21 0.64160521E-02 0.30000000E+03</pdfrwt>
<pdfrwt beam="2">0</pdfrwt>
<totfact> 0.18767568E+04</totfact>
</mgrwt>
</event>
<event>
 6    1  0.1198667E-001  0.3000000E+03  0.7818608E-02  0.1093470E+00
         21   -1    0    0  501  502  0.00000000000E+00  0.00000000000E+00  0.14113884050E+01  0.14113884050E+01  0.00000000000E+00 0. -1.
         13   -1    0    0    0    0 -0.00000000000E+00 -0.00000000000E+00 -0.10000000000E+04  0.10000000000E+04  0.00000000000E+00 0.  1.
    9000005    2    1    2  501    0 -0.31276473817E+02 -0.18640612319E+02 -0.62008246542E+03  0.62115806109E+03  0.30631182469E+01 0.  0.
         13    1    3    3    0    0 -0.14830405965E+02 -0.94975731378E+01 -0.32402004662E+03  0.32449828266E+03  0.00000000000E+00 0.  1.
          1    1    3    3  501    0 -0.16446067853E+02 -0.91430391807E+01 -0.29606241880E+03  0.29665977843E+03  0.00000000000E+00 0.  1.
         -1    1    1    2    0  502  0.31276473817E+02  0.18640612319E+02 -0.37850614617E+03  0.38025332731E+03  0.00000000000E+00 0. -1.
<mgrwt>
<rscale>  1 0.30000000E+03</rscale>
<asrwt>0</asrwt>
<pdfrwt beam="1">  1       21 0.51323323E-02 0.30000000E+03</pdfrwt>
<pdfrwt beam="2">0</pdfrwt>
<totfact> 0.27549265E+04</totfact>
</mgrwt>
</event>
<event>
 6    1  0.1198667E-001  0.3000000E+03  0.7818608E-02  0.1093470E+00
         21   -1    0    0  501  502  0.00000000000E+00  0.00000000000E+00  0.23379051912E+01  0.23379051912E+01  0.00000000000E+00 0. -1.
         13   -1    0    0    0    0 -0.00000000000E+00 -0.00000000000E+00 -0.10000000000E+04  0.10000000000E+04  0.00000000000E+00 0.  1.
    9000005    2    1    2  501    0  0.31905623339E+02  0.29789781645E+02 -0.71285783344E+03  0.71420795676E+03  0.46168069624E+01 0.  0.
         13    1    3    3    0    0  0.11368600267E+02  0.12181363217E+02 -0.30377990996E+03  0.30423652703E+03  0.00000000000E+00 0.  1.
          3    1    3    3  501    0  0.20537023072E+02  0.17608418428E+02 -0.40907792348E+03  0.40997142973E+03  0.00000000000E+00 0.  1.
         -1    1    1    2    0  502 -0.31905623339E+02 -0.29789781645E+02 -0.28480426136E+03  0.28812994843E+03  0.00000000000E+00 0. -1.
<mgrwt>
<rscale>  1 0.30000000E+03</rscale>
<asrwt>0</asrwt>
<pdfrwt beam="1">  1       21 0.85014913E-02 0.30000000E+03</pdfrwt>
<pdfrwt beam="2">0</pdfrwt>
<totfact> 0.11477710E+04</totfact>
</mgrwt>
</event>
<event>
 6    1  0.1198667E-001  0.3000000E+03  0.7818608E-02  0.1093470E+00
         21   -1    0    0  501  502  0.00000000000E+00  0.00000000000E+00  0.26262644274E+01  0.26262644274E+01  0.00000000000E+00 0. -1.
         13   -1    0    0    0    0 -0.00000000000E+00 -0.00000000000E+00 -0.10000000000E+04  0.10000000000E+04  0.00000000000E+00 0.  1.
    9000005    2    1    2  501    0  0.34843111608E+02 -0.34798472186E+02 -0.63642556662E+03  0.63833440785E+03  0.28876138805E+01 0.  0.
         13    1    3    3    0    0  0.32618822360E+01 -0.38871859526E+01 -0.76000959557E+02  0.76170177523E+02  0.00000000000E+00 0.  1.
          1    1    3    3  501    0  0.31581229372E+02 -0.30911286234E+02 -0.56042460706E+03  0.56216423033E+03  0.00000000000E+00 0.  1.
         -1    1    1    2    0  502 -0.34843111608E+02  0.34798472186E+02 -0.36094816896E+03  0.36429185657E+03  0.00000000000E+00 0. -1.
<mgrwt>
<rscale>  1 0.30000000E+03</rscale>
<asrwt>0</asrwt>
<pdfrwt beam="1">  1       21 0.95500726E-02 0.30000000E+03</pdfrwt>
<pdfrwt beam="2">0</pdfrwt>
<totfact> 0.93398240E+03</totfact>
</mgrwt>
</event>
<event>
 6    1  0.1198667E-001  0.3000000E+03  0.7818608E-02  0.1093470E+00
         21   -1    0    0  501  502  0.00000000000E+00  0.00000000000E+00  0.10672012621E+01  0.10672012621E+01  0.00000000000E+00 0. -1.
         13   -1    0    0    0    0 -0.00000000000E+00 -0.00000000000E+00 -0.10000000000E+04  0.10000000000E+04  0.00000000000E+00 0.  1.
    9000005    2    1    2  501    0  0.28328874542E+02 -0.14186456624E+02 -0.61773716789E+03  0.61855721491E+03  0.31684121626E+01 0.  0.
         13    1    3    3    0    0  0.17379925880E+02 -0.10407288746E+02 -0.39349784819E+03  0.39401894626E+03  0.00000000000E+00 0.  1.
          1    1    3    3  501    0  0.10948948662E+02 -0.37791678773E+01 -0.22423931970E+03  0.22453826865E+03  0.00000000000E+00 0.  1.
         -1    1    1    2    0  502 -0.28328874542E+02  0.14186456624E+02 -0.38119563085E+03  0.38250998635E+03  0.00000000000E+00 0. -1.
<mgrwt>
<rscale>  1 0.30000000E+03</rscale>
<asrwt>0</asrwt>
<pdfrwt beam="1">  1       21 0.38807400E-02 0.30000000E+03</pdfrwt>
<pdfrwt beam="2">0</pdfrwt>
<totfact> 0.44244523E+04</totfact>
</mgrwt>
</event>
<event>
 6    1  0.1198667E-001  0.3000000E+03  0.7818608E-02  0.1093470E+00
         21   -1    0    0  501  502  0.00000000000E+00  0.00000000000E+00  0.12991620701E+01  0.12991620701E+01  0.00000000000E+00 0. -1.
         13   -1    0    0    0    0 -0.00000000000E+00 -0.00000000000E+00 -0.10000000000E+04  0.10000000000E+04  0.00000000000E+00 0.  1.
    9000005    2    1    2  501    0 -0.78003813446E+01  0.32176296924E+02 -0.69572770692E+03  0.69652239434E+03  0.32005641239E+01 0.  0.
         13    1    3    3    0    0 -0.79259708890E+01  0.29648146641E+02 -0.63264950405E+03  0.63339342323E+03  0.00000000000E+00 0.  1.
          1    1    3    3  501    0  0.12558954443E+00  0.25281502835E+01 -0.63078202869E+02  0.63128971113E+02  0.00000000000E+00 0.  1.
         -1    1    1    2    0  502  0.78003813446E+01 -0.32176296924E+02 -0.30297313101E+03  0.30477676773E+03  0.00000000000E+00 0. -1.
<mgrwt>
<rscale>  1 0.30000000E+03</rscale>
<asrwt>0</asrwt>
<pdfrwt beam="1">  1       21 0.47242357E-02 0.30000000E+03</pdfrwt>
<pdfrwt beam="2">0</pdfrwt>
<totfact> 0.31725658E+04</totfact>
</mgrwt>
</event>
<event>
 6    1  0.1198667E-001  0.3000000E+03  0.7818608E-02  0.1093470E+00
         21   -1    0    0  501  502  0.00000000000E+00  0.00000000000E+00  0.11999895038E+01  0.11999895038E+01  0.00000000000E+00 0. -1.
         13   -1    0    0    0    0 -0.00000000000E+00 -0.00000000000E+00 -0.10000000000E+04  0.10000000000E+04  0.00000000000E+00 0.  1.
    9000005    2    1    2  501    0 -0.29243749177E+02  0.89723196064E+01 -0.26831257902E+03  0.27007237620E+03  0.34276730973E+01 0.  0.
         13    1    3    3    0    0 -0.24596787976E+02  0.83940225560E+01 -0.23485894928E+03  0.23629258907E+03  0.00000000000E+00 0.  1.
          3    1    3    3  501    0 -0.46469612012E+01  0.57829705047E+00 -0.33453629740E+02  0.33779787132E+02  0.00000000000E+00 0.  1.
         -3    1    1    2    0  502  0.29243749177E+02 -0.89723196064E+01 -0.73048743148E+03  0.73112761330E+03  0.00000000000E+00 0. -1.
<mgrwt>
<rscale>  1 0.30000000E+03</rscale>
<asrwt>0</asrwt>
<pdfrwt beam="1">  1       21 0.43636074E-02 0.30000000E+03</pdfrwt>
<pdfrwt beam="2">0</pdfrwt>
<totfact> 0.36303433E+04</totfact>
</mgrwt>
</event>
<event>
 6    1  0.1198667E-001  0.3000000E+03  0.7818608E-02  0.1093470E+00
         21   -1    0    0  501  502  0.00000000000E+00  0.00000000000E+00  0.14996804109E+01  0.14996804109E+01  0.00000000000E+00 0. -1.
         13   -1    0    0    0    0 -0.00000000000E+00 -0.00000000000E+00 -0.10000000000E+04  0.10000000000E+04  0.00000000000E+00 0.  1.
    9000005    2    1    2  501    0  0.92792502159E+01 -0.37265613855E+02 -0.55742825668E+03  0.55875890395E+03  0.32281480401E+01 0.  0.
         13    1    3    3    0    0  0.18669294023E+01 -0.11226985798E+02 -0.18238844421E+03  0.18274319472E+03  0.00000000000E+00 0.  1.
          3    1    3    3  501    0  0.74123208136E+01 -0.26038628057E+02 -0.37503981247E+03  0.37601570923E+03  0.00000000000E+00 0.  1.
         -1    1    1    2    0  502 -0.92792502159E+01  0.37265613855E+02 -0.44107206291E+03  0.44274077646E+03  0.00000000000E+00 0. -1.
<mgrwt>
<rscale>  1 0.30000000E+03</rscale>
<asrwt>0</asrwt>
<pdfrwt beam="1">  1       21 0.54533948E-02 0.30000000E+03</pdfrwt>
<pdfrwt beam="2">0</pdfrwt>
<totfact> 0.24833769E+04</totfact>
</mgrwt>
</event>
<event>
 6    1  0.1198667E-001  0.3000000E+03  0.7818608E-02  0.1093470E+00
         21   -1    0    0  501  502  0.00000000000E+00  0.00000000000E+00  0.25190703124E+01  0.25190703124E+01  0.00000000000E+00 0. -1.
         13   -1    0    0    0    0 -0.00000000000E+00 -0.00000000000E+00 -0.10000000000E+04  0.10000000000E+04  0.00000000000E+00 0.  1.
    9000005    2    1    2  501    0 -0.17534087994E+02  0.31709665958E+02 -0.84534403122E+03  0.84612666950E+03  0.32958399038E+01 0.  0.
         13    1    3    3    0    0 -0.30777083208E+01  0.45720222992E+01 -0.15572598191E+03  0.15582348064E+03  0.00000000000E+00 0.  1.
          3    1    3    3  501    0 -0.14456379673E+02  0.27137643659E+02 -0.68961804931E+03  0.69030318886E+03  0.00000000000E+00 0.  1.
         -3    1    1    2    0  502  0.17534087994E+02 -0.31709665958E+02 -0.15213689846E+03  0.15639240081E+03  0.00000000000E+00 0. -1.
<mgrwt>
<rscale>  1 0.30000000E+03</rscale>
<asrwt>0</asrwt>
<pdfrwt beam="1">  1       21 0.91602750E-02 0.30000000E+03</pdfrwt>
<pdfrwt beam="2">0</pdfrwt>
<totfact> 0.10058302E+04</totfact>
</mgrwt>
</event>
<event>
 6    1  0.1198667E-001  0.3000000E+03  0.7818608E-02  0.1093470E+00
         21   -1    0    0  501  502  0.00000000000E+00  0.00000000000E+00  0.20222471148E+01  0.20222471148E+01  0.00000000000E+00 0. -1.
         13   -1    0    0    0    0 -0.00000000000E+00 -0.00000000000E+00 -0.10000000000E+04  0.10000000000E+04  0.00000000000E+00 0.  1.
    9000005    2    1    2  501    0 -0.25270239971E+02 -0.29217223685E+02 -0.24476260863E+03  0.24781717904E+03  0.35197232163E+01 0.  0.
         13    1    3    3    0    0 -0.80168439154E+01 -0.11853542133E+02 -0.91291066978E+02  0.92405817768E+02  0.00000000000E+00 0.  1.
          3    1    3    3  501    0 -0.17253396055E+02 -0.17363681552E+02 -0.15347154166E+03  0.15541136127E+03  0.00000000000E+00 0.  1.
         -1    1    1    2    0  502  0.25270239971E+02  0.29217223685E+02 -0.75321514425E+03  0.75420506808E+03  0.00000000000E+00 0. -1.
<mgrwt>
<rscale>  1 0.30000000E+03</rscale>
<asrwt>0</asrwt>
<pdfrwt beam="1">  1       21 0.73536414E-02 0.30000000E+03</pdfrwt>
<pdfrwt beam="2">0</pdfrwt>
<totfact> 0.14806297E+04</totfact>
</mgrwt>
</event>
<event>
 6    1  0.1198667E-001  0.3000000E+03  0.7818608E-02  0.1093470E+00
         21   -1    0    0  501  502  0.00000000000E+00  0.00000000000E+00  0.12124525752E+01  0.12124525752E+01  0.00000000000E+00 0. -1.
         13   -1    0    0    0    0 -0.00000000000E+00 -0.00000000000E+00 -0.10000000000E+04  0.10000000000E+04  0.00000000000E+00 0.  1.
    9000005    2    1    2  501    0 -0.32683868707E+02 -0.79791949415E+01 -0.37413469185E+03  0.37565422763E+03  0.27254836256E+01 0.  0.
         13    1    3    3    0    0 -0.27802675317E+02 -0.57767634349E+01 -0.31640469242E+03  0.31767639059E+03  0.00000000000E+00 0.  1.
          1    1    3    3  501    0 -0.48811933903E+01 -0.22024315067E+01 -0.57729999433E+02  0.57977837041E+02  0.00000000000E+00 0.  1.
         -1    1    1    2    0  502  0.32683868707E+02  0.79791949415E+01 -0.62465285557E+03  0.62555822495E+03  0.00000000000E+00 0. -1.
<mgrwt>
<rscale>  1 0.30000000E+03</rscale>
<asrwt>0</asrwt>
<pdfrwt beam="1">  1       21 0.44089278E-02 0.30000000E+03</pdfrwt>
<pdfrwt beam="2">0</pdfrwt>
<totfact> 0.35673694E+04</totfact>
</mgrwt>
</event>
<event>
 6    1  0.1198667E-001  0.3000000E+03  0.7818608E-02  0.1093470E+00
         21   -1    0    0  501  502  0.00000000000E+00  0.00000000000E+00  0.25343792663E+01  0.25343792663E+01  0.00000000000E+00 0. -1.
         13   -1    0    0    0    0 -0.00000000000E+00 -0.00000000000E+00 -0.10000000000E+04  0.10000000000E+04  0.00000000000E+00 0.  1.
    9000005    2    1    2  501    0  0.31756352511E+02  0.60025518854E+01 -0.88291860586E+03  0.88351540947E+03  0.31173146342E+01 0.  0.
         13    1    3    3    0    0  0.27552840980E+02  0.52957021963E+01 -0.79225870653E+03  0.79275536048E+03  0.00000000000E+00 0.  1.
          3    1    3    3  501    0  0.42035115306E+01  0.70684968906E+00 -0.90659899333E+02  0.90760048991E+02  0.00000000000E+00 0.  1.
         -1    1    1    2    0  502 -0.31756352511E+02 -0.60025518854E+01 -0.11454701488E+03  0.11901896979E+03  0.00000000000E+00 0. -1.
<mgrwt>
<rscale>  1 0.30000000E+03</rscale>
<asrwt>0</asrwt>
<pdfrwt beam="1">  1       21 0.92159440E-02 0.30000000E+03</pdfrwt>
<pdfrwt beam="2">0</pdfrwt>
<totfact> 0.99507020E+03</totfact>
</mgrwt>
</event>
<event>
 6    1  0.1198667E-001  0.3000000E+03  0.7818608E-02  0.1093470E+00
         21   -1    0    0  501  502  0.00000000000E+00  0.00000000000E+00  0.24959167625E+01  0.24959167625E+01  0.00000000000E+00 0. -1.
         13   -1    0    0    0    0 -0.00000000000E+00 -0.00000000000E+00 -0.10000000000E+04  0.10000000000E+04  0.00000000000E+00 0.  1.
    9000005    2    1    2  501    0 -0.28785137792E+02 -0.37188614277E+02 -0.66737857074E+03  0.66903762673E+03  0.23689888213E+01 0.  0.
         13    1    3    3    0    0 -0.11812654270E+02 -0.14009815973E+02 -0.27230427679E+03  0.27292019512E+03  0.00000000000E+00 0.  1.
          3    1    3    3  501    0 -0.16972483523E+02 -0.23178798304E+02 -0.39507429395E+03  0.39611743161E+03  0.00000000000E+00 0.  1.
         -1    1    1    2    0  502  0.28785137792E+02  0.37188614277E+02 -0.33012551250E+03  0.33345829004E+03  0.00000000000E+00 0. -1.
<mgrwt>
<rscale>  1 0.30000000E+03</rscale>
<asrwt>0</asrwt>
<pdfrwt beam="1">  1       21 0.90760801E-02 0.30000000E+03</pdfrwt>
<pdfrwt beam="2">0</pdfrwt>
<totfact> 0.10224405E+04</totfact>
</mgrwt>
</event>
<event>
 6    1  0.1198667E-001  0.3000000E+03  0.7818608E-02  0.1093470E+00
         21   -1    0    0  501  502  0.00000000000E+00  0.00000000000E+00  0.19301754722E+01  0.19301754722E+01  0.00000000000E+00 0. -1.
         13   -1    0    0    0    0 -0.00000000000E+00 -0.00000000000E+00 -0.10000000000E+04  0.10000000000E+04  0.00000000000E+00 0.  1.
    9000005    2    1    2  501    0  0.21885204268E+02 -0.35831723765E+02 -0.64510006897E+03  0.64647198815E+03  0.30096324496E+01 0.  0.
         13    1    3    3    0    0  0.44689420777E+01 -0.60131434632E+01 -0.12999479867E+03  0.13021051041E+03  0.00000000000E+00 0.  1.
          3    1    3    3  501    0  0.17416262190E+02 -0.29818580302E+02 -0.51510527030E+03  0.51626147775E+03  0.00000000000E+00 0.  1.
         -3    1    1    2    0  502 -0.21885204268E+02  0.35831723765E+02 -0.35296975556E+03  0.35545818732E+03  0.00000000000E+00 0. -1.
<mgrwt>
<rscale>  1 0.30000000E+03</rscale>
<asrwt>0</asrwt>
<pdfrwt beam="1">  1       21 0.70188347E-02 0.30000000E+03</pdfrwt>
<pdfrwt beam="2">0</pdfrwt>
<totfact> 0.16060000E+04</totfact>
</mgrwt>
</event>
<event>
 6    1  0.1198667E-001  0.3000000E+03  0.7818608E-02  0.1093470E+00
         21   -1    0    0  501  502  0.00000000000E+00  0.00000000000E+00  0.11466404645E+01  0.11466404645E+01  0.00000000000E+00 0. -1.
         13   -1    0    0    0    0 -0.00000000000E+00 -0.00000000000E+00 -0.10000000000E+04  0.10000000000E+04  0.00000000000E+00 0.  1.
    9000005    2    1    2  501    0  0.32276957278E+02 -0.46715837122E+01 -0.59801972120E+03  0.59898842373E+03  0.97938324214E+01 0.  0.
         13    1    3    3    0    0  0.31074096886E+02 -0.60793766574E+01 -0.53104575233E+03  0.53198886209E+03  0.00000000000E+00 0.  1.
          3    1    3    3  501    0  0.12028603918E+01  0.14077929452E+01 -0.66973968877E+02  0.66999561650E+02  0.00000000000E+00 0.  1.
         -3    1    1    2    0  502 -0.32276957278E+02  0.46715837122E+01 -0.40083363833E+03  0.40215821673E+03  0.00000000000E+00 0. -1.
<mgrwt>
<rscale>  1 0.30000000E+03</rscale>
<asrwt>0</asrwt>
<pdfrwt beam="1">  1       21 0.41696105E-02 0.30000000E+03</pdfrwt>
<pdfrwt beam="2">0</pdfrwt>
<totfact> 0.39204167E+04</totfact>
</mgrwt>
</event>
<event>
 6    1  0.1198667E-001  0.3000000E+03  0.7818608E-02  0.1093470E+00
         21   -1    0    0  501  502  0.00000000000E+00  0.00000000000E+00  0.33735464081E+01  0.33735464081E+01  0.00000000000E+00 0. -1.
         13   -1    0    0    0    0 -0.00000000000E+00 -0.00000000000E+00 -0.10000000000E+04  0.10000000000E+04  0.00000000000E+00 0.  1.
    9000005    2    1    2  501    0 -0.41560125866E+02 -0.29398454731E+02 -0.73941497452E+03  0.74117274899E+03  0.33205559879E+01 0.  0.
         13    1    3    3    0    0 -0.32221937880E+02 -0.22070783981E+02 -0.58490492188E+03  0.58620742099E+03  0.00000000000E+00 0.  1.
          1    1    3    3  501    0 -0.93381879863E+01 -0.73276707499E+01 -0.15451005264E+03  0.15496532800E+03  0.00000000000E+00 0.  1.
         -3    1    1    2    0  502  0.41560125866E+02  0.29398454731E+02 -0.25721147907E+03  0.26220079742E+03  0.00000000000E+00 0. -1.
<mgrwt>
<rscale>  1 0.30000000E+03</rscale>
<asrwt>0</asrwt>
<pdfrwt beam="1">  1       21 0.12267467E-01 0.30000000E+03</pdfrwt>
<pdfrwt beam="2">0</pdfrwt>
<totfact> 0.59537676E+03</totfact>
</mgrwt>
</event>
<event>
 6    1  0.1198667E-001  0.3000000E+03  0.7818608E-02  0.1093470E+00
         21   -1    0    0  501  502  0.00000000000E+00  0.00000000000E+00  0.14181676038E+01  0.14181676038E+01  0.00000000000E+00 0. -1.
         13   -1    0    0    0    0 -0.00000000000E+00 -0.00000000000E+00 -0.10000000000E+04  0.10000000000E+04  0.00000000000E+00 0.  1.
    9000005    2    1    2  501    0  0.27347287543E+02 -0.15556027838E+02 -0.77355956919E+03  0.77420706956E+03  0.35093198214E+01 0.  0.
         13    1    3    3    0    0  0.10135023404E+02 -0.39719886720E+01 -0.25196729868E+03  0.25220232948E+03  0.00000000000E+00 0.  1.
          3    1    3    3  501    0  0.17212264139E+02 -0.11584039166E+02 -0.52159227051E+03  0.52200474007E+03  0.00000000000E+00 0.  1.
         -1    1    1    2    0  502 -0.27347287543E+02  0.15556027838E+02 -0.22502226321E+03  0.22721109805E+03  0.00000000000E+00 0. -1.
<mgrwt>
<rscale>  1 0.30000000E+03</rscale>
<asrwt>0</asrwt>
<pdfrwt beam="1">  1       21 0.51569840E-02 0.30000000E+03</pdfrwt>
<pdfrwt beam="2">0</pdfrwt>
<totfact> 0.27324809E+04</totfact>
</mgrwt>
</event>
<event>
 6    1  0.1198667E-001  0.3000000E+03  0.7818608E-02  0.1093470E+00
         21   -1    0    0  501  502  0.00000000000E+00  0.00000000000E+00  0.23068892963E+02  0.23068892963E+02  0.00000000000E+00 0. -1.
         13   -1    0    0    0    0 -0.00000000000E+00 -0.00000000000E+00 -0.10000000000E+04  0.10000000000E+04  0.00000000000E+00 0.  1.
    9000005    2    1    2  501    0 -0.60495668891E+01 -0.31995933104E+02 -0.98809758042E+03  0.98864467006E+03  0.45954542222E+01 0.  0.
         13    1    3    3    0    0  0.57030147228E+00 -0.15125837263E+01 -0.65308199222E+02  0.65328202478E+02  0.00000000000E+00 0.  1.
          3    1    3    3  501    0 -0.66198683614E+01 -0.30483349378E+02 -0.92278938120E+03  0.92331646758E+03  0.00000000000E+00 0.  1.
         -3    1    1    2    0  502  0.60495668891E+01  0.31995933104E+02  0.11166473386E+02  0.34424222906E+02  0.00000000000E+00 0. -1.
<mgrwt>
<rscale>  1 0.30000000E+03</rscale>
<asrwt>0</asrwt>
<pdfrwt beam="1">  1       21 0.83887060E-01 0.30000000E+03</pdfrwt>
<pdfrwt beam="2">0</pdfrwt>
<totfact> 0.11469523E+02</totfact>
</mgrwt>
</event>
<event>
 6    1  0.1198667E-001  0.3000000E+03  0.7818608E-02  0.1093470E+00
         21   -1    0    0  501  502  0.00000000000E+00  0.00000000000E+00  0.50447793369E+01  0.50447793369E+01  0.00000000000E+00 0. -1.
         13   -1    0    0    0    0 -0.00000000000E+00 -0.00000000000E+00 -0.10000000000E+04  0.10000000000E+04  0.00000000000E+00 0.  1.
    9000005    2    1    2  501    0 -0.48032566662E+02 -0.50934900008E+02 -0.58115150976E+03  0.58536037093E+03  0.28627024363E+01 0.  0.
         13    1    3    3    0    0 -0.16091938037E+02 -0.16948751890E+02 -0.20542122020E+03  0.20674643496E+03  0.00000000000E+00 0.  1.
          3    1    3    3  501    0 -0.31940628625E+02 -0.33986148117E+02 -0.37573028955E+03  0.37861393597E+03  0.00000000000E+00 0.  1.
         -1    1    1    2    0  502  0.48032566662E+02  0.50934900008E+02 -0.41380371091E+03  0.41968440841E+03  0.00000000000E+00 0. -1.
<mgrwt>
<rscale>  1 0.30000000E+03</rscale>
<asrwt>0</asrwt>
<pdfrwt beam="1">  1       21 0.18344691E-01 0.30000000E+03</pdfrwt>
<pdfrwt beam="2">0</pdfrwt>
<totfact> 0.28266353E+03</totfact>
</mgrwt>
</event>
<event>
 6    1  0.1198667E-001  0.3000000E+03  0.7818608E-02  0.1093470E+00
         21   -1    0    0  501  502  0.00000000000E+00  0.00000000000E+00  0.22724998477E+01  0.22724998477E+01  0.00000000000E+00 0. -1.
         13   -1    0    0    0    0 -0.00000000000E+00 -0.00000000000E+00 -0.10000000000E+04  0.10000000000E+04  0.00000000000E+00 0.  1.
    9000005    2    1    2  501    0 -0.23122291688E+02  0.25883863308E+02 -0.84220685505E+03  0.84292606655E+03  0.27114974099E+01 0.  0.
         13    1    3    3    0    0 -0.18916443414E+02  0.20627410940E+02 -0.70196659535E+03  0.70252432192E+03  0.00000000000E+00 0.  1.
          3    1    3    3  501    0 -0.42058482736E+01  0.52564523685E+01 -0.14024025971E+03  0.14040174463E+03  0.00000000000E+00 0.  1.
         -1    1    1    2    0  502  0.23122291688E+02 -0.25883863308E+02 -0.15552064510E+03  0.15934643330E+03  0.00000000000E+00 0. -1.
<mgrwt>
<rscale>  1 0.30000000E+03</rscale>
<asrwt>0</asrwt>
<pdfrwt beam="1">  1       21 0.82636532E-02 0.30000000E+03</pdfrwt>
<pdfrwt beam="2">0</pdfrwt>
<totfact> 0.12066016E+04</totfact>
</mgrwt>
</event>
<event>
 6    1  0.1198667E-001  0.3000000E+03  0.7818608E-02  0.1093470E+00
         21   -1    0    0  501  502  0.00000000000E+00  0.00000000000E+00  0.56664134242E+01  0.56664134242E+01  0.00000000000E+00 0. -1.
         13   -1    0    0    0    0 -0.00000000000E+00 -0.00000000000E+00 -0.10000000000E+04  0.10000000000E+04  0.00000000000E+00 0.  1.
    9000005    2    1    2  501    0 -0.53931080519E+01 -0.48578355574E+02 -0.87951033784E+03  0.88087330186E+03  0.32244859404E+01 0.  0.
         13    1    3    3    0    0 -0.76038574280E+00 -0.46165269934E+01 -0.69079124729E+02  0.69237388608E+02  0.00000000000E+00 0.  1.
          1    1    3    3  501    0 -0.46327223091E+01 -0.43961828580E+02 -0.81043121312E+03  0.81163591325E+03  0.00000000000E+00 0.  1.
         -1    1    1    2    0  502  0.53931080519E+01  0.48578355574E+02 -0.11482324873E+03  0.12479311156E+03  0.00000000000E+00 0. -1.
<mgrwt>
<rscale>  1 0.30000000E+03</rscale>
<asrwt>0</asrwt>
<pdfrwt beam="1">  1       21 0.20605183E-01 0.30000000E+03</pdfrwt>
<pdfrwt beam="2">0</pdfrwt>
<totfact> 0.22663297E+03</totfact>
</mgrwt>
</event>
<event>
 6    1  0.1198667E-001  0.3000000E+03  0.7818608E-02  0.1093470E+00
         21   -1    0    0  501  502  0.00000000000E+00  0.00000000000E+00  0.13245393478E+01  0.13245393478E+01  0.00000000000E+00 0. -1.
         13   -1    0    0    0    0 -0.00000000000E+00 -0.00000000000E+00 -0.10000000000E+04  0.10000000000E+04  0.00000000000E+00 0.  1.
    9000005    2    1    2  501    0  0.86543904937E+01  0.29153077415E+02 -0.77351726078E+03  0.77412195272E+03  0.33233373924E+01 0.  0.
         13    1    3    3    0    0  0.83228828591E+01  0.23549031831E+02 -0.63420609506E+03  0.63469772199E+03  0.00000000000E+00 0.  1.
          3    1    3    3  501    0  0.33150763458E+00  0.56040455843E+01 -0.13931116571E+03  0.13942423074E+03  0.00000000000E+00 0.  1.
         -3    1    1    2    0  502 -0.86543904937E+01 -0.29153077415E+02 -0.22515819988E+03  0.22720258662E+03  0.00000000000E+00 0. -1.
<mgrwt>
<rscale>  1 0.30000000E+03</rscale>
<asrwt>0</asrwt>
<pdfrwt beam="1">  1       21 0.48165169E-02 0.30000000E+03</pdfrwt>
<pdfrwt beam="2">0</pdfrwt>
<totfact> 0.30698565E+04</totfact>
</mgrwt>
</event>
<event>
 6    1  0.1198667E-001  0.3000000E+03  0.7818608E-02  0.1093470E+00
         21   -1    0    0  501  502  0.00000000000E+00  0.00000000000E+00  0.47128420986E+01  0.47128420986E+01  0.00000000000E+00 0. -1.
         13   -1    0    0    0    0 -0.00000000000E+00 -0.00000000000E+00 -0.10000000000E+04  0.10000000000E+04  0.00000000000E+00 0.  1.
    9000005    2    1    2  501    0 -0.60642929243E+01  0.68220895853E+02 -0.52736725367E+03  0.53180703429E+03  0.34110410921E+01 0.  0.
         13    1    3    3    0    0 -0.62082643616E+01  0.57162997509E+02 -0.44654428093E+03  0.45023099145E+03  0.00000000000E+00 0.  1.
          3    1    3    3  501    0  0.14397143737E+00  0.11057898344E+02 -0.80822972736E+02  0.81576042840E+02  0.00000000000E+00 0.  1.
         -1    1    1    2    0  502  0.60642929243E+01 -0.68220895853E+02 -0.46791990423E+03  0.47290580781E+03  0.00000000000E+00 0. -1.
<mgrwt>
<rscale>  1 0.30000000E+03</rscale>
<asrwt>0</asrwt>
<pdfrwt beam="1">  1       21 0.17137644E-01 0.30000000E+03</pdfrwt>
<pdfrwt beam="2">0</pdfrwt>
<totfact> 0.32126128E+03</totfact>
</mgrwt>
</event>
<event>
 6    1  0.1198667E-001  0.3000000E+03  0.7818608E-02  0.1093470E+00
         21   -1    0    0  501  502  0.00000000000E+00  0.00000000000E+00  0.53539606436E+01  0.53539606436E+01  0.00000000000E+00 0. -1.
         13   -1    0    0    0    0 -0.00000000000E+00 -0.00000000000E+00 -0.10000000000E+04  0.10000000000E+04  0.00000000000E+00 0.  1.
    9000005    2    1    2  501    0  0.24851941576E+01 -0.73030532035E+02 -0.51795492422E+03  0.52309463823E+03  0.33259927733E+01 0.  0.
         13    1    3    3    0    0  0.10789938250E+01 -0.63276403918E+02 -0.44550174080E+03  0.44997429768E+03  0.00000000000E+00 0.  1.
          3    1    3    3  501    0  0.14062003325E+01 -0.97541281175E+01 -0.72453183415E+02  0.73120340547E+02  0.00000000000E+00 0.  1.
         -1    1    1    2    0  502 -0.24851941576E+01  0.73030532035E+02 -0.47669111514E+03  0.48225932241E+03  0.00000000000E+00 0. -1.
<mgrwt>
<rscale>  1 0.30000000E+03</rscale>
<asrwt>0</asrwt>
<pdfrwt beam="1">  1       21 0.19468989E-01 0.30000000E+03</pdfrwt>
<pdfrwt beam="2">0</pdfrwt>
<totfact> 0.25254346E+03</totfact>
</mgrwt>
</event>
<event>
 6    1  0.1198667E-001  0.3000000E+03  0.7818608E-02  0.1093470E+00
         21   -1    0    0  501  502  0.00000000000E+00  0.00000000000E+00  0.33114395365E+01  0.33114395365E+01  0.00000000000E+00 0. -1.
         13   -1    0    0    0    0 -0.00000000000E+00 -0.00000000000E+00 -0.10000000000E+04  0.10000000000E+04  0.00000000000E+00 0.  1.
    9000005    2    1    2  501    0 -0.23812231011E+02 -0.51773035809E+02 -0.43234932490E+03  0.43610226967E+03  0.34323881703E+01 0.  0.
         13    1    3    3    0    0 -0.92624755096E+01 -0.20426110600E+02 -0.15754527839E+03  0.15913369910E+03  0.00000000000E+00 0.  1.
          3    1    3    3  501    0 -0.14549755502E+02 -0.31346925208E+02 -0.27480404651E+03  0.27696857057E+03  0.00000000000E+00 0.  1.
         -1    1    1    2    0  502  0.23812231011E+02  0.51773035809E+02 -0.56433923556E+03  0.56720916987E+03  0.00000000000E+00 0. -1.
<mgrwt>
<rscale>  1 0.30000000E+03</rscale>
<asrwt>0</asrwt>
<pdfrwt beam="1">  1       21 0.12041624E-01 0.30000000E+03</pdfrwt>
<pdfrwt beam="2">0</pdfrwt>
<totfact> 0.61582888E+03</totfact>
</mgrwt>
</event>
<event>
 6    1  0.1198667E-001  0.3000000E+03  0.7818608E-02  0.1093470E+00
         21   -1    0    0  501  502  0.00000000000E+00  0.00000000000E+00  0.14176993530E+01  0.14176993530E+01  0.00000000000E+00 0. -1.
         13   -1    0    0    0    0 -0.00000000000E+00 -0.00000000000E+00 -0.10000000000E+04  0.10000000000E+04  0.00000000000E+00 0.  1.
    9000005    2    1    2  501    0 -0.58722434318E+01 -0.36971797022E+02 -0.45857947887E+03  0.46011884978E+03  0.35805680745E+01 0.  0.
         13    1    3    3    0    0 -0.28542103062E+01 -0.83247535321E+01 -0.10702047847E+03  0.10738170631E+03  0.00000000000E+00 0.  1.
          3    1    3    3  501    0 -0.30180331255E+01 -0.28647043489E+02 -0.35155900040E+03  0.35273714347E+03  0.00000000000E+00 0.  1.
         -1    1    1    2    0  502  0.58722434318E+01  0.36971797022E+02 -0.54000282178E+03  0.54129884957E+03  0.00000000000E+00 0. -1.
<mgrwt>
<rscale>  1 0.30000000E+03</rscale>
<asrwt>0</asrwt>
<pdfrwt beam="1">  1       21 0.51552812E-02 0.30000000E+03</pdfrwt>
<pdfrwt beam="2">0</pdfrwt>
<totfact> 0.27340221E+04</totfact>
</mgrwt>
</event>
<event>
 6    1  0.1198667E-001  0.3000000E+03  0.7818608E-02  0.1093470E+00
         21   -1    0    0  501  502  0.00000000000E+00  0.00000000000E+00  0.37533182096E+01  0.37533182096E+01  0.00000000000E+00 0. -1.
         13   -1    0    0    0    0 -0.00000000000E+00 -0.00000000000E+00 -0.10000000000E+04  0.10000000000E+04  0.00000000000E+00 0.  1.
    9000005    2    1    2  501    0  0.42470698992E+02  0.19295821535E+02 -0.82279674464E+03  0.82413992868E+03  0.60041693347E+01 0.  0.
         13    1    3    3    0    0  0.20393335756E+02  0.97833861164E+01 -0.34714321408E+03  0.34787930934E+03  0.00000000000E+00 0.  1.
          3    1    3    3  501    0  0.22077363236E+02  0.95124354187E+01 -0.47565353057E+03  0.47626061934E+03  0.00000000000E+00 0.  1.
         -1    1    1    2    0  502 -0.42470698992E+02 -0.19295821535E+02 -0.17344993715E+03  0.17961338953E+03  0.00000000000E+00 0. -1.
<mgrwt>
<rscale>  1 0.30000000E+03</rscale>
<asrwt>0</asrwt>
<pdfrwt beam="1">  1       21 0.13648459E-01 0.30000000E+03</pdfrwt>
<pdfrwt beam="2">0</pdfrwt>
<totfact> 0.49001142E+03</totfact>
</mgrwt>
</event>
<event>
 6    1  0.1198667E-001  0.3000000E+03  0.7818608E-02  0.1093470E+00
         21   -1    0    0  501  502  0.00000000000E+00  0.00000000000E+00  0.17412253547E+01  0.17412253547E+01  0.00000000000E+00 0. -1.
         13   -1    0    0    0    0 -0.00000000000E+00 -0.00000000000E+00 -0.10000000000E+04  0.10000000000E+04  0.00000000000E+00 0.  1.
    9000005    2    1    2  501    0 -0.24909164828E+02  0.28969756176E+02 -0.69939029141E+03  0.70044057229E+03  0.32407294411E+01 0.  0.
         13    1    3    3    0    0 -0.23347443530E+02  0.27912357911E+02 -0.67289332559E+03  0.67387656917E+03  0.00000000000E+00 0.  1.
          3    1    3    3  501    0 -0.15617212985E+01  0.10573982651E+01 -0.26496965815E+02  0.26564003123E+02  0.00000000000E+00 0.  1.
         -1    1    1    2    0  502  0.24909164828E+02 -0.28969756176E+02 -0.29886848324E+03  0.30130065306E+03  0.00000000000E+00 0. -1.
<mgrwt>
<rscale>  1 0.30000000E+03</rscale>
<asrwt>0</asrwt>
<pdfrwt beam="1">  1       21 0.63317419E-02 0.30000000E+03</pdfrwt>
<pdfrwt beam="2">0</pdfrwt>
<totfact> 0.19201863E+04</totfact>
</mgrwt>
</event>
<event>
 6    1  0.1198667E-001  0.3000000E+03  0.7818608E-02  0.1093470E+00
         21   -1    0    0  501  502  0.00000000000E+00  0.00000000000E+00  0.11698814278E+01  0.11698814278E+01  0.00000000000E+00 0. -1.
         13   -1    0    0    0    0 -0.00000000000E+00 -0.00000000000E+00 -0.10000000000E+04  0.10000000000E+04  0.00000000000E+00 0.  1.
    9000005    2    1    2  501    0  0.32347037822E+02  0.10661889208E+02 -0.50590774101E+03  0.50707224225E+03  0.44282853810E+01 0.  0.
         13    1    3    3    0    0  0.37920193694E+01  0.28257101845E+01 -0.66531375188E+02  0.66699234878E+02  0.00000000000E+00 0.  1.
          1    1    3    3  501    0  0.28555018453E+02  0.78361790235E+01 -0.43937636582E+03  0.44037300737E+03  0.00000000000E+00 0.  1.
         -3    1    1    2    0  502 -0.32347037822E+02 -0.10661889208E+02 -0.49292237756E+03  0.49409763917E+03  0.00000000000E+00 0. -1.
<mgrwt>
<rscale>  1 0.30000000E+03</rscale>
<asrwt>0</asrwt>
<pdfrwt beam="1">  1       21 0.42541233E-02 0.30000000E+03</pdfrwt>
<pdfrwt beam="2">0</pdfrwt>
<totfact> 0.37897788E+04</totfact>
</mgrwt>
</event>
<event>
 6    1  0.1198667E-001  0.3000000E+03  0.7818608E-02  0.1093470E+00
         21   -1    0    0  501  502  0.00000000000E+00  0.00000000000E+00  0.33955466482E+01  0.33955466482E+01  0.00000000000E+00 0. -1.
         13   -1    0    0    0    0 -0.00000000000E+00 -0.00000000000E+00 -0.10000000000E+04  0.10000000000E+04  0.00000000000E+00 0.  1.
    9000005    2    1    2  501    0 -0.17363698363E+02  0.35589516263E+02 -0.13104976519E+03  0.13693548993E+03  0.30291512665E+01 0.  0.
         13    1    3    3    0    0 -0.10167354378E+02  0.17387617919E+02 -0.66635173407E+02  0.69612862942E+02  0.00000000000E+00 0.  1.
          3    1    3    3  501    0 -0.71963439848E+01  0.18201898343E+02 -0.64414591778E+02  0.67322626983E+02  0.00000000000E+00 0.  1.
         -1    1    1    2    0  502  0.17363698363E+02 -0.35589516263E+02 -0.86555468817E+03  0.86646005672E+03  0.00000000000E+00 0. -1.
<mgrwt>
<rscale>  1 0.30000000E+03</rscale>
<asrwt>0</asrwt>
<pdfrwt beam="1">  1       21 0.12347468E-01 0.30000000E+03</pdfrwt>
<pdfrwt beam="2">0</pdfrwt>
<totfact> 0.58837592E+03</totfact>
</mgrwt>
</event>
<event>
 6    1  0.1198667E-001  0.3000000E+03  0.7818608E-02  0.1093470E+00
         21   -1    0    0  501  502  0.00000000000E+00  0.00000000000E+00  0.16306502247E+01  0.16306502247E+01  0.00000000000E+00 0. -1.
         13   -1    0    0    0    0 -0.00000000000E+00 -0.00000000000E+00 -0.10000000000E+04  0.10000000000E+04  0.00000000000E+00 0.  1.
    9000005    2    1    2  501    0  0.35412503572E+02 -0.19248595831E+02 -0.49254851902E+03  0.49420650153E+03  0.33865494012E+01 0.  0.
         13    1    3    3    0    0  0.31473403149E+02 -0.18258641641E+02 -0.44294675751E+03  0.44443872816E+03  0.00000000000E+00 0.  1.
          3    1    3    3  501    0  0.39391004226E+01 -0.98995418998E+00 -0.49601761510E+02  0.49767773371E+02  0.00000000000E+00 0.  1.
         -3    1    1    2    0  502 -0.35412503572E+02  0.19248595831E+02 -0.50582083076E+03  0.50742414869E+03  0.00000000000E+00 0. -1.
<mgrwt>
<rscale>  1 0.30000000E+03</rscale>
<asrwt>0</asrwt>
<pdfrwt beam="1">  1       21 0.59296497E-02 0.30000000E+03</pdfrwt>
<pdfrwt beam="2">0</pdfrwt>
<totfact> 0.21504573E+04</totfact>
</mgrwt>
</event>
<event>
 6    1  0.1198667E-001  0.3000000E+03  0.7818608E-02  0.1093470E+00
         21   -1    0    0  501  502  0.00000000000E+00  0.00000000000E+00  0.11979515599E+01  0.11979515599E+01  0.00000000000E+00 0. -1.
         13   -1    0    0    0    0 -0.00000000000E+00 -0.00000000000E+00 -0.10000000000E+04  0.10000000000E+04  0.00000000000E+00 0.  1.
    9000005    2    1    2  501    0  0.23519534088E+02 -0.25175626576E+02 -0.53430592193E+03  0.53542586974E+03  0.33261273795E+01 0.  0.
         13    1    3    3    0    0  0.23016632964E+02 -0.24754803003E+02 -0.51454625039E+03  0.51565532040E+03  0.00000000000E+00 0.  1.
          3    1    3    3  501    0  0.50290112397E+00 -0.42082357331E+00 -0.19759671537E+02  0.19770549341E+02  0.00000000000E+00 0.  1.
         -3    1    1    2    0  502 -0.23519534088E+02  0.25175626576E+02 -0.46449612651E+03  0.46577208182E+03  0.00000000000E+00 0. -1.
<mgrwt>
<rscale>  1 0.30000000E+03</rscale>
<asrwt>0</asrwt>
<pdfrwt beam="1">  1       21 0.43561967E-02 0.30000000E+03</pdfrwt>
<pdfrwt beam="2">0</pdfrwt>
<totfact> 0.36408043E+04</totfact>
</mgrwt>
</event>
<event>
 6    1  0.1198667E-001  0.3000000E+03  0.7818608E-02  0.1093470E+00
         21   -1    0    0  501  502  0.00000000000E+00  0.00000000000E+00  0.10776373759E+01  0.10776373759E+01  0.00000000000E+00 0. -1.
         13   -1    0    0    0    0 -0.00000000000E+00 -0.00000000000E+00 -0.10000000000E+04  0.10000000000E+04  0.00000000000E+00 0.  1.
    9000005    2    1    2  501    0  0.30410388604E+02  0.29813344792E+01 -0.32048657010E+03  0.32195408112E+03  0.30180526847E+01 0.  0.
         13    1    3    3    0    0  0.18318261260E+02  0.74602478465E+00 -0.20265257889E+03  0.20348017834E+03  0.00000000000E+00 0.  1.
          3    1    3    3  501    0  0.12092127344E+02  0.22353096945E+01 -0.11783399121E+03  0.11847390277E+03  0.00000000000E+00 0.  1.
         -3    1    1    2    0  502 -0.30410388604E+02 -0.29813344792E+01 -0.67843579252E+03  0.67912355626E+03  0.00000000000E+00 0. -1.
<mgrwt>
<rscale>  1 0.30000000E+03</rscale>
<asrwt>0</asrwt>
<pdfrwt beam="1">  1       21 0.39186896E-02 0.30000000E+03</pdfrwt>
<pdfrwt beam="2">0</pdfrwt>
<totfact> 0.43526214E+04</totfact>
</mgrwt>
</event>
<event>
 6    1  0.1198667E-001  0.3000000E+03  0.7818608E-02  0.1093470E+00
         21   -1    0    0  501  502  0.00000000000E+00  0.00000000000E+00  0.16070908791E+01  0.16070908791E+01  0.00000000000E+00 0. -1.
         13   -1    0    0    0    0 -0.00000000000E+00 -0.00000000000E+00 -0.10000000000E+04  0.10000000000E+04  0.00000000000E+00 0.  1.
    9000005    2    1    2  501    0 -0.27723880563E+02  0.21800580836E+02 -0.73643734866E+03  0.73728797591E+03  0.31164164321E+01 0.  0.
         13    1    3    3    0    0 -0.12624455322E+02  0.83992571070E+01 -0.33618263069E+03  0.33652442047E+03  0.00000000000E+00 0.  1.
          1    1    3    3  501    0 -0.15099425240E+02  0.13401323729E+02 -0.40025471796E+03  0.40076355544E+03  0.00000000000E+00 0.  1.
         -3    1    1    2    0  502  0.27723880563E+02 -0.21800580836E+02 -0.26195556046E+03  0.26431911497E+03  0.00000000000E+00 0. -1.
<mgrwt>
<rscale>  1 0.30000000E+03</rscale>
<asrwt>0</asrwt>
<pdfrwt beam="1">  1       21 0.58439792E-02 0.30000000E+03</pdfrwt>
<pdfrwt beam="2">0</pdfrwt>
<totfact> 0.22050753E+04</totfact>
</mgrwt>
</event>
<event>
 6    1  0.1198667E-001  0.3000000E+03  0.7818608E-02  0.1093470E+00
         21   -1    0    0  501  502  0.00000000000E+00  0.00000000000E+00  0.67020218054E+01  0.67020218054E+01  0.00000000000E+00 0. -1.
         13   -1    0    0    0    0 -0.00000000000E+00 -0.00000000000E+00 -0.10000000000E+04  0.10000000000E+04  0.00000000000E+00 0.  1.
    9000005    2    1    2  501    0  0.13094136537E+02 -0.28867468075E+02 -0.96071581182E+03  0.96124451758E+03  0.33711085139E+01 0.  0.
         13    1    3    3    0    0  0.30378725436E+00 -0.29828435414E+01 -0.96258499612E+02  0.96305183608E+02  0.00000000000E+00 0.  1.
          3    1    3    3  501    0  0.12790349283E+02 -0.25884624533E+02 -0.86445731221E+03  0.86493933397E+03  0.00000000000E+00 0.  1.
         -3    1    1    2    0  502 -0.13094136537E+02  0.28867468075E+02 -0.32582166375E+02  0.45457504225E+02  0.00000000000E+00 0. -1.
<mgrwt>
<rscale>  1 0.30000000E+03</rscale>
<asrwt>0</asrwt>
<pdfrwt beam="1">  1       21 0.24371040E-01 0.30000000E+03</pdfrwt>
<pdfrwt beam="2">0</pdfrwt>
<totfact> 0.16391903E+03</totfact>
</mgrwt>
</event>
<event>
 6    1  0.1198667E-001  0.3000000E+03  0.7818608E-02  0.1093470E+00
         21   -1    0    0  501  502  0.00000000000E+00  0.00000000000E+00  0.34117889136E+01  0.34117889136E+01  0.00000000000E+00 0. -1.
         13   -1    0    0    0    0 -0.00000000000E+00 -0.00000000000E+00 -0.10000000000E+04  0.10000000000E+04  0.00000000000E+00 0.  1.
    9000005    2    1    2  501    0  0.30453255521E+02  0.25006210494E+02 -0.86849530490E+03  0.86939498418E+03  0.32912844582E+01 0.  0.
         13    1    3    3    0    0  0.21796955870E+02  0.16344802373E+02 -0.57817878279E+03  0.57882032162E+03  0.00000000000E+00 0.  1.
          1    1    3    3  501    0  0.86562996510E+01  0.86614081212E+01 -0.29031652211E+03  0.29057466256E+03  0.00000000000E+00 0.  1.
         -1    1    1    2    0  502 -0.30453255521E+02 -0.25006210494E+02 -0.12809290619E+03  0.13401680473E+03  0.00000000000E+00 0. -1.
<mgrwt>
<rscale>  1 0.30000000E+03</rscale>
<asrwt>0</asrwt>
<pdfrwt beam="1">  1       21 0.12406531E-01 0.30000000E+03</pdfrwt>
<pdfrwt beam="2">0</pdfrwt>
<totfact> 0.58328719E+03</totfact>
</mgrwt>
</event>
<event>
 6    1  0.1198667E-001  0.3000000E+03  0.7818608E-02  0.1093470E+00
         21   -1    0    0  501  502  0.00000000000E+00  0.00000000000E+00  0.22848536099E+01  0.22848536099E+01  0.00000000000E+00 0. -1.
         13   -1    0    0    0    0 -0.00000000000E+00 -0.00000000000E+00 -0.10000000000E+04  0.10000000000E+04  0.00000000000E+00 0.  1.
    9000005    2    1    2  501    0 -0.37950502963E+02  0.18521728005E+02 -0.73283135305E+03  0.73405599786E+03  0.36222776469E+01 0.  0.
         13    1    3    3    0    0 -0.14338672335E+02  0.52743797594E+01 -0.27820897894E+03  0.27862816184E+03  0.00000000000E+00 0.  1.
          1    1    3    3  501    0 -0.23611830628E+02  0.13247348246E+02 -0.45462237411E+03  0.45542783602E+03  0.00000000000E+00 0.  1.
         -3    1    1    2    0  502  0.37950502963E+02 -0.18521728005E+02 -0.26488379334E+03  0.26822885575E+03  0.00000000000E+00 0. -1.
<mgrwt>
<rscale>  1 0.30000000E+03</rscale>
<asrwt>0</asrwt>
<pdfrwt beam="1">  1       21 0.83085761E-02 0.30000000E+03</pdfrwt>
<pdfrwt beam="2">0</pdfrwt>
<totfact> 0.11951416E+04</totfact>
</mgrwt>
</event>
<event>
 6    1  0.1198667E-001  0.3000000E+03  0.7818608E-02  0.1093470E+00
         21   -1    0    0  501  502  0.00000000000E+00  0.00000000000E+00  0.15154058987E+01  0.15154058987E+01  0.00000000000E+00 0. -1.
         13   -1    0    0    0    0 -0.00000000000E+00 -0.00000000000E+00 -0.10000000000E+04  0.10000000000E+04  0.00000000000E+00 0.  1.
    9000005    2    1    2  501    0 -0.42505614959E+01  0.37037806317E+02 -0.64096799210E+03  0.64206028064E+03  0.34015740629E+01 0.  0.
         13    1    3    3    0    0 -0.34685047093E+01  0.35696578039E+02 -0.61811691230E+03  0.61915651775E+03  0.00000000000E+00 0.  1.
          3    1    3    3  501    0 -0.78205678664E+00  0.13412282781E+01 -0.22851079804E+02  0.22903762886E+02  0.00000000000E+00 0.  1.
         -3    1    1    2    0  502  0.42505614959E+01 -0.37037806317E+02 -0.35751660200E+03  0.35945512526E+03  0.00000000000E+00 0. -1.
<mgrwt>
<rscale>  1 0.30000000E+03</rscale>
<asrwt>0</asrwt>
<pdfrwt beam="1">  1       21 0.55105785E-02 0.30000000E+03</pdfrwt>
<pdfrwt beam="2">0</pdfrwt>
<totfact> 0.24393639E+04</totfact>
</mgrwt>
</event>
<event>
 6    1  0.1198667E-001  0.3000000E+03  0.7818608E-02  0.1093470E+00
         21   -1    0    0  501  502  0.00000000000E+00  0.00000000000E+00  0.37742270663E+01  0.37742270663E+01  0.00000000000E+00 0. -1.
         13   -1    0    0    0    0 -0.00000000000E+00 -0.00000000000E+00 -0.10000000000E+04  0.10000000000E+04  0.00000000000E+00 0.  1.
    9000005    2    1    2  501    0 -0.17619635269E+02 -0.48733762748E+02 -0.76722093932E+03  0.76897932721E+03  0.39755215317E+01 0.  0.
         13    1    3    3    0    0 -0.13882740428E+02 -0.42077801864E+02 -0.66360863012E+03  0.66508622438E+03  0.00000000000E+00 0.  1.
          3    1    3    3  501    0 -0.37368948417E+01 -0.66559608847E+01 -0.10361230919E+03  0.10389310283E+03  0.00000000000E+00 0.  1.
         -3    1    1    2    0  502  0.17619635269E+02  0.48733762748E+02 -0.22900483362E+03  0.23479489986E+03  0.00000000000E+00 0. -1.
<mgrwt>
<rscale>  1 0.30000000E+03</rscale>
<asrwt>0</asrwt>
<pdfrwt beam="1">  1       21 0.13724491E-01 0.30000000E+03</pdfrwt>
<pdfrwt beam="2">0</pdfrwt>
<totfact> 0.48504544E+03</totfact>
</mgrwt>
</event>
<event>
 6    1  0.1198667E-001  0.3000000E+03  0.7818608E-02  0.1093470E+00
         21   -1    0    0  501  502  0.00000000000E+00  0.00000000000E+00  0.44969290540E+01  0.44969290540E+01  0.00000000000E+00 0. -1.
         13   -1    0    0    0    0 -0.00000000000E+00 -0.00000000000E+00 -0.10000000000E+04  0.10000000000E+04  0.00000000000E+00 0.  1.
    9000005    2    1    2  501    0  0.35919336860E+02 -0.40278024671E+02 -0.79570057515E+03  0.79753423832E+03  0.29896417185E+01 0.  0.
         13    1    3    3    0    0  0.22146292310E+02 -0.23381737873E+02 -0.49066474017E+03  0.49172050107E+03  0.00000000000E+00 0.  1.
          1    1    3    3  501    0  0.13773044550E+02 -0.16896286798E+02 -0.30503583498E+03  0.30581373724E+03  0.00000000000E+00 0.  1.
         -1    1    1    2    0  502 -0.35919336860E+02  0.40278024671E+02 -0.19980249579E+03  0.20696269074E+03  0.00000000000E+00 0. -1.
<mgrwt>
<rscale>  1 0.30000000E+03</rscale>
<asrwt>0</asrwt>
<pdfrwt beam="1">  1       21 0.16352504E-01 0.30000000E+03</pdfrwt>
<pdfrwt beam="2">0</pdfrwt>
<totfact> 0.35071557E+03</totfact>
</mgrwt>
</event>
<event>
 6    1  0.1198667E-001  0.3000000E+03  0.7818608E-02  0.1093470E+00
         21   -1    0    0  501  502  0.00000000000E+00  0.00000000000E+00  0.99298626843E+00  0.99298626843E+00  0.00000000000E+00 0. -1.
         13   -1    0    0    0    0 -0.00000000000E+00 -0.00000000000E+00 -0.10000000000E+04  0.10000000000E+04  0.00000000000E+00 0.  1.
    9000005    2    1    2  501    0  0.47104521993E+01  0.30682117009E+02 -0.57893380756E+03  0.57977442162E+03  0.32319902336E+01 0.  0.
         13    1    3    3    0    0  0.10764498193E+01  0.17446490314E+02 -0.31951326224E+03  0.31999103661E+03  0.00000000000E+00 0.  1.
          3    1    3    3  501    0  0.36340023800E+01  0.13235626695E+02 -0.25942054533E+03  0.25978338501E+03  0.00000000000E+00 0.  1.
         -1    1    1    2    0  502 -0.47104521993E+01 -0.30682117009E+02 -0.42007320617E+03  0.42121856465E+03  0.00000000000E+00 0. -1.
<mgrwt>
<rscale>  1 0.30000000E+03</rscale>
<asrwt>0</asrwt>
<pdfrwt beam="1">  1       21 0.36108668E-02 0.30000000E+03</pdfrwt>
<pdfrwt beam="2">0</pdfrwt>
<totfact> 0.49937261E+04</totfact>
</mgrwt>
</event>
<event>
 6    1  0.1198667E-001  0.3000000E+03  0.7818608E-02  0.1093470E+00
         21   -1    0    0  501  502  0.00000000000E+00  0.00000000000E+00  0.13366724158E+01  0.13366724158E+01  0.00000000000E+00 0. -1.
         13   -1    0    0    0    0 -0.00000000000E+00 -0.00000000000E+00 -0.10000000000E+04  0.10000000000E+04  0.00000000000E+00 0.  1.
    9000005    2    1    2  501    0 -0.30569111045E+02  0.27878003281E+01 -0.76569445308E+03  0.76635424994E+03  0.82824245472E+01 0.  0.
         13    1    3    3    0    0 -0.19078696681E+02 -0.13906105652E+00 -0.55353196378E+03  0.55386067826E+03  0.00000000000E+00 0.  1.
          1    1    3    3  501    0 -0.11490414364E+02  0.29268613846E+01 -0.21216248930E+03  0.21249357168E+03  0.00000000000E+00 0.  1.
         -1    1    1    2    0  502  0.30569111045E+02 -0.27878003281E+01 -0.23296887451E+03  0.23498242247E+03  0.00000000000E+00 0. -1.
<mgrwt>
<rscale>  1 0.30000000E+03</rscale>
<asrwt>0</asrwt>
<pdfrwt beam="1">  1       21 0.48606372E-02 0.30000000E+03</pdfrwt>
<pdfrwt beam="2">0</pdfrwt>
<totfact> 0.30225763E+04</totfact>
</mgrwt>
</event>
<event>
 6    1  0.1198667E-001  0.3000000E+03  0.7818608E-02  0.1093470E+00
         21   -1    0    0  501  502  0.00000000000E+00  0.00000000000E+00  0.25787922590E+01  0.25787922590E+01  0.00000000000E+00 0. -1.
         13   -1    0    0    0    0 -0.00000000000E+00 -0.00000000000E+00 -0.10000000000E+04  0.10000000000E+04  0.00000000000E+00 0.  1.
    9000005    2    1    2  501    0  0.40499020146E+02 -0.63907682460E+01 -0.79399161045E+03  0.79505863997E+03  0.38145742014E+01 0.  0.
         13    1    3    3    0    0  0.20200565209E+02 -0.14819401270E+01 -0.40818909135E+03  0.40869131784E+03  0.00000000000E+00 0.  1.
          3    1    3    3  501    0  0.20298454937E+02 -0.49088281190E+01 -0.38580251910E+03  0.38636732213E+03  0.00000000000E+00 0.  1.
         -3    1    1    2    0  502 -0.40499020146E+02  0.63907682460E+01 -0.20342959729E+03  0.20752015229E+03  0.00000000000E+00 0. -1.
<mgrwt>
<rscale>  1 0.30000000E+03</rscale>
<asrwt>0</asrwt>
<pdfrwt beam="1">  1       21 0.93774462E-02 0.30000000E+03</pdfrwt>
<pdfrwt beam="2">0</pdfrwt>
<totfact> 0.96481680E+03</totfact>
</mgrwt>
</event>
<event>
 6    1  0.1198667E-001  0.3000000E+03  0.7818608E-02  0.1093470E+00
         21   -1    0    0  501  502  0.00000000000E+00  0.00000000000E+00  0.16813408863E+02  0.16813408863E+02  0.00000000000E+00 0. -1.
         13   -1    0    0    0    0 -0.00000000000E+00 -0.00000000000E+00 -0.10000000000E+04  0.10000000000E+04  0.00000000000E+00 0.  1.
    9000005    2    1    2  501    0 -0.11525163356E+03 -0.43699318032E+02 -0.33407208976E+03  0.35610000251E+03  0.32374679778E+01 0.  0.
         13    1    3    3    0    0 -0.40435083268E+02 -0.13735503442E+02 -0.11681001014E+03  0.12437137325E+03  0.00000000000E+00 0.  1.
          1    1    3    3  501    0 -0.74816550288E+02 -0.29963814590E+02 -0.21726207961E+03  0.23172862926E+03  0.00000000000E+00 0.  1.
         -3    1    1    2    0  502  0.11525163356E+03  0.43699318032E+02 -0.64911450138E+03  0.66071340635E+03  0.00000000000E+00 0. -1.
<mgrwt>
<rscale>  1 0.30000000E+03</rscale>
<asrwt>0</asrwt>
<pdfrwt beam="1">  1       21 0.61139798E-01 0.30000000E+03</pdfrwt>
<pdfrwt beam="2">0</pdfrwt>
<totfact> 0.24068979E+02</totfact>
</mgrwt>
</event>
<event>
 6    1  0.1198667E-001  0.3000000E+03  0.7818608E-02  0.1093470E+00
         21   -1    0    0  501  502  0.00000000000E+00  0.00000000000E+00  0.14364215252E+01  0.14364215252E+01  0.00000000000E+00 0. -1.
         13   -1    0    0    0    0 -0.00000000000E+00 -0.00000000000E+00 -0.10000000000E+04  0.10000000000E+04  0.00000000000E+00 0.  1.
    9000005    2    1    2  501    0  0.61663632334E+01  0.33939374634E+02 -0.69531884628E+03  0.69623604016E+03  0.92962588867E+01 0.  0.
         13    1    3    3    0    0  0.52489581770E+01  0.31632237121E+02 -0.67574922855E+03  0.67650954898E+03  0.00000000000E+00 0.  1.
          1    1    3    3  501    0  0.91740505646E+00  0.23071375125E+01 -0.19569617738E+02  0.19726491172E+02  0.00000000000E+00 0.  1.
         -3    1    1    2    0  502 -0.61663632334E+01 -0.33939374634E+02 -0.30324473219E+03  0.30520038137E+03  0.00000000000E+00 0. -1.
<mgrwt>
<rscale>  1 0.30000000E+03</rscale>
<asrwt>0</asrwt>
<pdfrwt beam="1">  1       21 0.52233620E-02 0.30000000E+03</pdfrwt>
<pdfrwt beam="2">0</pdfrwt>
<totfact> 0.26734343E+04</totfact>
</mgrwt>
</event>
<event>
 6    1  0.1198667E-001  0.3000000E+03  0.7818608E-02  0.1093470E+00
         21   -1    0    0  501  502  0.00000000000E+00  0.00000000000E+00  0.93679619915E+01  0.93679619915E+01  0.00000000000E+00 0. -1.
         13   -1    0    0    0    0 -0.00000000000E+00 -0.00000000000E+00 -0.10000000000E+04  0.10000000000E+04  0.00000000000E+00 0.  1.
    9000005    2    1    2  501    0  0.13459996778E+02  0.71343853503E+02 -0.82896444594E+03  0.83214627237E+03  0.37747909448E+01 0.  0.
         13    1    3    3    0    0  0.66342631041E+01  0.27946288589E+02 -0.31328494783E+03  0.31459889865E+03  0.00000000000E+00 0.  1.
          1    1    3    3  501    0  0.68257336742E+01  0.43397564914E+02 -0.51567949810E+03  0.51754737372E+03  0.00000000000E+00 0.  1.
         -1    1    1    2    0  502 -0.13459996778E+02 -0.71343853503E+02 -0.16166759207E+03  0.17722168962E+03  0.00000000000E+00 0. -1.
<mgrwt>
<rscale>  1 0.30000000E+03</rscale>
<asrwt>0</asrwt>
<pdfrwt beam="1">  1       21 0.34065388E-01 0.30000000E+03</pdfrwt>
<pdfrwt beam="2">0</pdfrwt>
<totfact> 0.84102091E+02</totfact>
</mgrwt>
</event>
<event>
 6    1  0.1198667E-001  0.3000000E+03  0.7818608E-02  0.1093470E+00
         21   -1    0    0  501  502  0.00000000000E+00  0.00000000000E+00  0.12315608809E+01  0.12315608809E+01  0.00000000000E+00 0. -1.
         13   -1    0    0    0    0 -0.00000000000E+00 -0.00000000000E+00 -0.10000000000E+04  0.10000000000E+04  0.00000000000E+00 0.  1.
    9000005    2    1    2  501    0  0.34249992921E+02 -0.71568689247E+01 -0.48190299368E+03  0.48318313508E+03  0.33412450018E+01 0.  0.
         13    1    3    3    0    0  0.30555245936E+02 -0.58826939814E+01 -0.43965738634E+03  0.44075712871E+03  0.00000000000E+00 0.  1.
          3    1    3    3  501    0  0.36947469845E+01 -0.12741749433E+01 -0.42245607334E+02  0.42426006365E+02  0.00000000000E+00 0.  1.
         -3    1    1    2    0  502 -0.34249992921E+02  0.71568689247E+01 -0.51686544544E+03  0.51804842581E+03  0.00000000000E+00 0. -1.
<mgrwt>
<rscale>  1 0.30000000E+03</rscale>
<asrwt>0</asrwt>
<pdfrwt beam="1">  1       21 0.44784126E-02 0.30000000E+03</pdfrwt>
<pdfrwt beam="2">0</pdfrwt>
<totfact> 0.34740462E+04</totfact>
</mgrwt>
</event>
<event>
 6    1  0.1198667E-001  0.3000000E+03  0.7818608E-02  0.1093470E+00
         21   -1    0    0  501  502  0.00000000000E+00  0.00000000000E+00  0.48588439520E+01  0.48588439520E+01  0.00000000000E+00 0. -1.
         13   -1    0    0    0    0 -0.00000000000E+00 -0.00000000000E+00 -0.10000000000E+04  0.10000000000E+04  0.00000000000E+00 0.  1.
    9000005    2    1    2  501    0  0.31058771296E+02 -0.53415475037E+02 -0.26579672365E+03  0.27290176781E+03  0.31010194461E+01 0.  0.
         13    1    3    3    0    0  0.28089589418E+02 -0.49017385209E+02 -0.23924109021E+03  0.24582113077E+03  0.00000000000E+00 0.  1.
          3    1    3    3  501    0  0.29691818788E+01 -0.43980898276E+01 -0.26555633437E+02  0.27080637038E+02  0.00000000000E+00 0.  1.
         -3    1    1    2    0  502 -0.31058771296E+02  0.53415475037E+02 -0.72934443240E+03  0.73195707615E+03  0.00000000000E+00 0. -1.
<mgrwt>
<rscale>  1 0.30000000E+03</rscale>
<asrwt>0</asrwt>
<pdfrwt beam="1">  1       21 0.17668561E-01 0.30000000E+03</pdfrwt>
<pdfrwt beam="2">0</pdfrwt>
<totfact> 0.30338079E+03</totfact>
</mgrwt>
</event>
<event>
 6    1  0.1198667E-001  0.3000000E+03  0.7818608E-02  0.1093470E+00
         21   -1    0    0  501  502  0.00000000000E+00  0.00000000000E+00  0.21228873213E+01  0.21228873213E+01  0.00000000000E+00 0. -1.
         13   -1    0    0    0    0 -0.00000000000E+00 -0.00000000000E+00 -0.10000000000E+04  0.10000000000E+04  0.00000000000E+00 0.  1.
    9000005    2    1    2  501    0  0.32664814917E+02 -0.29731540076E+02 -0.63923863180E+03  0.64077469710E+03  0.39024927685E+01 0.  0.
         13    1    3    3    0    0  0.11396981274E+02 -0.12844818965E+02 -0.24012241120E+03  0.24073564945E+03  0.00000000000E+00 0.  1.
          1    1    3    3  501    0  0.21267833643E+02 -0.16886721110E+02 -0.39911622060E+03  0.40003904765E+03  0.00000000000E+00 0.  1.
         -3    1    1    2    0  502 -0.32664814917E+02  0.29731540076E+02 -0.35863848087E+03  0.36134819022E+03  0.00000000000E+00 0. -1.
<mgrwt>
<rscale>  1 0.30000000E+03</rscale>
<asrwt>0</asrwt>
<pdfrwt beam="1">  1       21 0.77196065E-02 0.30000000E+03</pdfrwt>
<pdfrwt beam="2">0</pdfrwt>
<totfact> 0.13599166E+04</totfact>
</mgrwt>
</event>
<event>
 6    1  0.1198667E-001  0.3000000E+03  0.7818608E-02  0.1093470E+00
         21   -1    0    0  501  502  0.00000000000E+00  0.00000000000E+00  0.19457889757E+01  0.19457889757E+01  0.00000000000E+00 0. -1.
         13   -1    0    0    0    0 -0.00000000000E+00 -0.00000000000E+00 -0.10000000000E+04  0.10000000000E+04  0.00000000000E+00 0.  1.
    9000005    2    1    2  501    0  0.43047308837E+02  0.17785666771E+01 -0.59828644305E+03  0.59986308304E+03  0.57285569870E+01 0.  0.
         13    1    3    3    0    0  0.34882680648E+02  0.25747177381E+01 -0.50910838613E+03  0.51030851395E+03  0.00000000000E+00 0.  1.
          3    1    3    3  501    0  0.81646281889E+01 -0.79615106097E+00 -0.89178056913E+02  0.89554569090E+02  0.00000000000E+00 0.  1.
         -3    1    1    2    0  502 -0.43047308837E+02 -0.17785666771E+01 -0.39976776798E+03  0.40208270593E+03  0.00000000000E+00 0. -1.
<mgrwt>
<rscale>  1 0.30000000E+03</rscale>
<asrwt>0</asrwt>
<pdfrwt beam="1">  1       21 0.70756112E-02 0.30000000E+03</pdfrwt>
<pdfrwt beam="2">0</pdfrwt>
<totfact> 0.15836269E+04</totfact>
</mgrwt>
</event>
<event>
 6    1  0.1198667E-001  0.3000000E+03  0.7818608E-02  0.1093470E+00
         21   -1    0    0  501  502  0.00000000000E+00  0.00000000000E+00  0.29568722298E+01  0.29568722298E+01  0.00000000000E+00 0. -1.
         13   -1    0    0    0    0 -0.00000000000E+00 -0.00000000000E+00 -0.10000000000E+04  0.10000000000E+04  0.00000000000E+00 0.  1.
    9000005    2    1    2  501    0  0.42201499312E+02 -0.16758788428E+02 -0.77406533080E+03  0.77540265567E+03  0.32122477161E+01 0.  0.
         13    1    3    3    0    0  0.23932757134E+01 -0.16569838831E+01 -0.42747559146E+02  0.42846553854E+02  0.00000000000E+00 0.  1.
          1    1    3    3  501    0  0.39808223598E+02 -0.15101804545E+02 -0.73131777166E+03  0.73255610182E+03  0.00000000000E+00 0.  1.
         -1    1    1    2    0  502 -0.42201499312E+02  0.16758788428E+02 -0.22297779697E+03  0.22755421656E+03  0.00000000000E+00 0. -1.
<mgrwt>
<rscale>  1 0.30000000E+03</rscale>
<asrwt>0</asrwt>
<pdfrwt beam="1">  1       21 0.10752285E-01 0.30000000E+03</pdfrwt>
<pdfrwt beam="2">0</pdfrwt>
<totfact> 0.75550811E+03</totfact>
</mgrwt>
</event>
<event>
 6    1  0.1198667E-001  0.3000000E+03  0.7818608E-02  0.1093470E+00
         21   -1    0    0  501  502  0.00000000000E+00  0.00000000000E+00  0.10834426098E+01  0.10834426098E+01  0.00000000000E+00 0. -1.
         13   -1    0    0    0    0 -0.00000000000E+00 -0.00000000000E+00 -0.10000000000E+04  0.10000000000E+04  0.00000000000E+00 0.  1.
    9000005    2    1    2  501    0  0.18739638068E+02  0.26454409917E+02 -0.58059158379E+03  0.58150413738E+03  0.30764889258E+01 0.  0.
         13    1    3    3    0    0  0.11609633939E+02  0.18803490809E+02 -0.38802117981E+03  0.38864995928E+03  0.00000000000E+00 0.  1.
          1    1    3    3  501    0  0.71300041281E+01  0.76509191087E+01 -0.19257040398E+03  0.19285417810E+03  0.00000000000E+00 0.  1.
         -1    1    1    2    0  502 -0.18739638068E+02 -0.26454409917E+02 -0.41832497360E+03  0.41957930523E+03  0.00000000000E+00 0. -1.
<mgrwt>
<rscale>  1 0.30000000E+03</rscale>
<asrwt>0</asrwt>
<pdfrwt beam="1">  1       21 0.39397996E-02 0.30000000E+03</pdfrwt>
<pdfrwt beam="2">0</pdfrwt>
<totfact> 0.43134523E+04</totfact>
</mgrwt>
</event>
<event>
 6    1  0.1198667E-001  0.3000000E+03  0.7818608E-02  0.1093470E+00
         21   -1    0    0  501  502  0.00000000000E+00  0.00000000000E+00  0.10242558468E+01  0.10242558468E+01  0.00000000000E+00 0. -1.
         13   -1    0    0    0    0 -0.00000000000E+00 -0.00000000000E+00 -0.10000000000E+04  0.10000000000E+04  0.00000000000E+00 0.  1.
    9000005    2    1    2  501    0 -0.31315969959E+02  0.33636005394E+01 -0.58110781756E+03  0.58197102790E+03  0.34609094960E+01 0.  0.
         13    1    3    3    0    0 -0.13338163170E+02  0.14809123094E+01 -0.21668831775E+03  0.21710349317E+03  0.00000000000E+00 0.  1.
          3    1    3    3  501    0 -0.17977806788E+02  0.18826882300E+01 -0.36441949981E+03  0.36486753473E+03  0.00000000000E+00 0.  1.
         -1    1    1    2    0  502  0.31315969959E+02 -0.33636005394E+01 -0.41786792659E+03  0.41905322795E+03  0.00000000000E+00 0. -1.
<mgrwt>
<rscale>  1 0.30000000E+03</rscale>
<asrwt>0</asrwt>
<pdfrwt beam="1">  1       21 0.37245746E-02 0.30000000E+03</pdfrwt>
<pdfrwt beam="2">0</pdfrwt>
<totfact> 0.47405709E+04</totfact>
</mgrwt>
</event>
<event>
 6    1  0.1198667E-001  0.3000000E+03  0.7818608E-02  0.1093470E+00
         21   -1    0    0  501  502  0.00000000000E+00  0.00000000000E+00  0.19416162192E+01  0.19416162192E+01  0.00000000000E+00 0. -1.
         13   -1    0    0    0    0 -0.00000000000E+00 -0.00000000000E+00 -0.10000000000E+04  0.10000000000E+04  0.00000000000E+00 0.  1.
    9000005    2    1    2  501    0 -0.25367026291E+02 -0.16275944985E+02 -0.86422028209E+03  0.86475185759E+03  0.32690709590E+01 0.  0.
         13    1    3    3    0    0 -0.16320492508E+02 -0.10460366897E+02 -0.59909960342E+03  0.59941314014E+03  0.00000000000E+00 0.  1.
          3    1    3    3  501    0 -0.90465337833E+01 -0.58155780880E+01 -0.26512067866E+03  0.26533871745E+03  0.00000000000E+00 0.  1.
         -1    1    1    2    0  502  0.25367026291E+02  0.16275944985E+02 -0.13383810169E+03  0.13718975863E+03  0.00000000000E+00 0. -1.
<mgrwt>
<rscale>  1 0.30000000E+03</rscale>
<asrwt>0</asrwt>
<pdfrwt beam="1">  1       21 0.70604375E-02 0.30000000E+03</pdfrwt>
<pdfrwt beam="2">0</pdfrwt>
<totfact> 0.15895593E+04</totfact>
</mgrwt>
</event>
<event>
 6    1  0.1198667E-001  0.3000000E+03  0.7818608E-02  0.1093470E+00
         21   -1    0    0  501  502  0.00000000000E+00  0.00000000000E+00  0.10712462454E+01  0.10712462454E+01  0.00000000000E+00 0. -1.
         13   -1    0    0    0    0 -0.00000000000E+00 -0.00000000000E+00 -0.10000000000E+04  0.10000000000E+04  0.00000000000E+00 0.  1.
    9000005    2    1    2  501    0 -0.31890491890E+02  0.20238949988E+01 -0.39722738740E+03  0.39852196702E+03  0.30101946277E+01 0.  0.
         13    1    3    3    0    0 -0.24011453856E+02  0.36754092918E+00 -0.28975385017E+03  0.29074727632E+03  0.00000000000E+00 0.  1.
          1    1    3    3  501    0 -0.78790380345E+01  0.16563540696E+01 -0.10747353723E+03  0.10777469070E+03  0.00000000000E+00 0.  1.
         -3    1    1    2    0  502  0.31890491890E+02 -0.20238949988E+01 -0.60170136635E+03  0.60254927923E+03  0.00000000000E+00 0. -1.
<mgrwt>
<rscale>  1 0.30000000E+03</rscale>
<asrwt>0</asrwt>
<pdfrwt beam="1">  1       21 0.38954491E-02 0.30000000E+03</pdfrwt>
<pdfrwt beam="2">0</pdfrwt>
<totfact> 0.43963920E+04</totfact>
</mgrwt>
</event>
<event>
 6    1  0.1198667E-001  0.3000000E+03  0.7818608E-02  0.1093470E+00
         21   -1    0    0  501  502  0.00000000000E+00  0.00000000000E+00  0.17766771952E+01  0.17766771952E+01  0.00000000000E+00 0. -1.
         13   -1    0    0    0    0 -0.00000000000E+00 -0.00000000000E+00 -0.10000000000E+04  0.10000000000E+04  0.00000000000E+00 0.  1.
    9000005    2    1    2  501    0 -0.30561192737E+02  0.21578825150E+02 -0.72899866619E+03  0.72996507346E+03  0.32126261080E+01 0.  0.
         13    1    3    3    0    0 -0.63583750671E+01  0.31603565624E+01 -0.12608675400E+03  0.12628652470E+03  0.00000000000E+00 0.  1.
          3    1    3    3  501    0 -0.24202817670E+02  0.18418468587E+02 -0.60291191219E+03  0.60367854876E+03  0.00000000000E+00 0.  1.
         -3    1    1    2    0  502  0.30561192737E+02 -0.21578825150E+02 -0.26922465661E+03  0.27181160373E+03  0.00000000000E+00 0. -1.
<mgrwt>
<rscale>  1 0.30000000E+03</rscale>
<asrwt>0</asrwt>
<pdfrwt beam="1">  1       21 0.64606580E-02 0.30000000E+03</pdfrwt>
<pdfrwt beam="2">0</pdfrwt>
<totfact> 0.18543911E+04</totfact>
</mgrwt>
</event>
<event>
 6    1  0.1198667E-001  0.3000000E+03  0.7818608E-02  0.1093470E+00
         21   -1    0    0  501  502  0.00000000000E+00  0.00000000000E+00  0.10546106867E+01  0.10546106867E+01  0.00000000000E+00 0. -1.
         13   -1    0    0    0    0 -0.00000000000E+00 -0.00000000000E+00 -0.10000000000E+04  0.10000000000E+04  0.00000000000E+00 0.  1.
    9000005    2    1    2  501    0  0.72551802127E+01 -0.29943047187E+02 -0.65217784931E+03  0.65292108671E+03  0.45579193115E+01 0.  0.
         13    1    3    3    0    0  0.47860192297E+01 -0.26373444332E+02 -0.56040431498E+03  0.56104497217E+03  0.00000000000E+00 0.  1.
          1    1    3    3  501    0  0.24691609830E+01 -0.35696028546E+01 -0.91773534327E+02  0.91876114542E+02  0.00000000000E+00 0.  1.
         -1    1    1    2    0  502 -0.72551802127E+01  0.29943047187E+02 -0.34676754000E+03  0.34813352398E+03  0.00000000000E+00 0. -1.
<mgrwt>
<rscale>  1 0.30000000E+03</rscale>
<asrwt>0</asrwt>
<pdfrwt beam="1">  1       21 0.38349560E-02 0.30000000E+03</pdfrwt>
<pdfrwt beam="2">0</pdfrwt>
<totfact> 0.45136166E+04</totfact>
</mgrwt>
</event>
<event>
 6    1  0.1198667E-001  0.3000000E+03  0.7818608E-02  0.1093470E+00
         21   -1    0    0  501  502  0.00000000000E+00  0.00000000000E+00  0.16889531466E+01  0.16889531466E+01  0.00000000000E+00 0. -1.
         13   -1    0    0    0    0 -0.00000000000E+00 -0.00000000000E+00 -0.10000000000E+04  0.10000000000E+04  0.00000000000E+00 0.  1.
    9000005    2    1    2  501    0  0.22367618661E+02  0.27408235866E+02 -0.75311921182E+03  0.75395813608E+03  0.35779868502E+01 0.  0.
         13    1    3    3    0    0  0.61331469530E+01  0.96418307046E+01 -0.22189341823E+03  0.22218746464E+03  0.00000000000E+00 0.  1.
          3    1    3    3  501    0  0.16234471708E+02  0.17766405161E+02 -0.53122579359E+03  0.53177067143E+03  0.00000000000E+00 0.  1.
         -1    1    1    2    0  502 -0.22367618661E+02 -0.27408235866E+02 -0.24519183504E+03  0.24773081707E+03  0.00000000000E+00 0. -1.
<mgrwt>
<rscale>  1 0.30000000E+03</rscale>
<asrwt>0</asrwt>
<pdfrwt beam="1">  1       21 0.61416608E-02 0.30000000E+03</pdfrwt>
<pdfrwt beam="2">0</pdfrwt>
<totfact> 0.20240067E+04</totfact>
</mgrwt>
</event>
<event>
 6    1  0.1198667E-001  0.3000000E+03  0.7818608E-02  0.1093470E+00
         21   -1    0    0  501  502  0.00000000000E+00  0.00000000000E+00  0.10777210479E+01  0.10777210479E+01  0.00000000000E+00 0. -1.
         13   -1    0    0    0    0 -0.00000000000E+00 -0.00000000000E+00 -0.10000000000E+04  0.10000000000E+04  0.00000000000E+00 0.  1.
    9000005    2    1    2  501    0  0.85816548398E+01  0.31380873125E+02 -0.55836338796E+03  0.55931925715E+03  0.31550595858E+01 0.  0.
         13    1    3    3    0    0  0.25837718996E+01  0.71391894325E+01 -0.15161631014E+03  0.15180628908E+03  0.00000000000E+00 0.  1.
          3    1    3    3  501    0  0.59978829403E+01  0.24241683693E+02 -0.40674707782E+03  0.40751296807E+03  0.00000000000E+00 0.  1.
         -1    1    1    2    0  502 -0.85816548398E+01 -0.31380873125E+02 -0.44055889099E+03  0.44175846390E+03  0.00000000000E+00 0. -1.
<mgrwt>
<rscale>  1 0.30000000E+03</rscale>
<asrwt>0</asrwt>
<pdfrwt beam="1">  1       21 0.39189939E-02 0.30000000E+03</pdfrwt>
<pdfrwt beam="2">0</pdfrwt>
<totfact> 0.43520529E+04</totfact>
</mgrwt>
</event>
<event>
 6    1  0.1198667E-001  0.3000000E+03  0.7818608E-02  0.1093470E+00
         21   -1    0    0  501  502  0.00000000000E+00  0.00000000000E+00  0.15867730424E+01  0.15867730424E+01  0.00000000000E+00 0. -1.
         13   -1    0    0    0    0 -0.00000000000E+00 -0.00000000000E+00 -0.10000000000E+04  0.10000000000E+04  0.00000000000E+00 0.  1.
    9000005    2    1    2  501    0  0.38453176267E+02 -0.62349715958E+01 -0.60000702769E+03  0.60128061364E+03  0.35244053801E+01 0.  0.
         13    1    3    3    0    0  0.58708595969E+01  0.17754015862E+00 -0.99448197939E+02  0.99621496607E+02  0.00000000000E+00 0.  1.
          3    1    3    3  501    0  0.32582316670E+02 -0.64125117544E+01 -0.50055882975E+03  0.50165911704E+03  0.00000000000E+00 0.  1.
         -3    1    1    2    0  502 -0.38453176267E+02  0.62349715958E+01 -0.39840619927E+03  0.40030615940E+03  0.00000000000E+00 0. -1.
<mgrwt>
<rscale>  1 0.30000000E+03</rscale>
<asrwt>0</asrwt>
<pdfrwt beam="1">  1       21 0.57700960E-02 0.30000000E+03</pdfrwt>
<pdfrwt beam="2">0</pdfrwt>
<totfact> 0.22539284E+04</totfact>
</mgrwt>
</event>
<event>
 6    1  0.1198667E-001  0.3000000E+03  0.7818608E-02  0.1093470E+00
         21   -1    0    0  501  502  0.00000000000E+00  0.00000000000E+00  0.42038218306E+01  0.42038218306E+01  0.00000000000E+00 0. -1.
         13   -1    0    0    0    0 -0.00000000000E+00 -0.00000000000E+00 -0.10000000000E+04  0.10000000000E+04  0.00000000000E+00 0.  1.
    9000005    2    1    2  501    0 -0.36986348995E+02 -0.31819184087E+02 -0.82841313004E+03  0.82985493227E+03  0.32317351107E+01 0.  0.
         13    1    3    3    0    0 -0.12116815323E+02 -0.11183025908E+02 -0.25634294520E+03  0.25687269773E+03  0.00000000000E+00 0.  1.
          1    1    3    3  501    0 -0.24869533672E+02 -0.20636158180E+02 -0.57207018483E+03  0.57298223455E+03  0.00000000000E+00 0.  1.
         -3    1    1    2    0  502  0.36986348995E+02  0.31819184087E+02 -0.16738304813E+03  0.17434888956E+03  0.00000000000E+00 0. -1.
<mgrwt>
<rscale>  1 0.30000000E+03</rscale>
<asrwt>0</asrwt>
<pdfrwt beam="1">  1       21 0.15286657E-01 0.30000000E+03</pdfrwt>
<pdfrwt beam="2">0</pdfrwt>
<totfact> 0.39760868E+03</totfact>
</mgrwt>
</event>
<event>
 6    1  0.1198667E-001  0.3000000E+03  0.7818608E-02  0.1093470E+00
         21   -1    0    0  501  502  0.00000000000E+00  0.00000000000E+00  0.14360112974E+01  0.14360112974E+01  0.00000000000E+00 0. -1.
         13   -1    0    0    0    0 -0.00000000000E+00 -0.00000000000E+00 -0.10000000000E+04  0.10000000000E+04  0.00000000000E+00 0.  1.
    9000005    2    1    2  501    0 -0.14619622112E+02 -0.28308406064E+02 -0.76381785515E+03  0.76453762290E+03  0.92174719089E+01 0.  0.
         13    1    3    3    0    0 -0.77784303989E+01 -0.59787621301E+01 -0.22180841025E+03  0.22202526981E+03  0.00000000000E+00 0.  1.
          3    1    3    3  501    0 -0.68411917127E+01 -0.22329643934E+02 -0.54200944490E+03  0.54251235310E+03  0.00000000000E+00 0.  1.
         -3    1    1    2    0  502  0.14619622112E+02  0.28308406064E+02 -0.23474613356E+03  0.23689838839E+03  0.00000000000E+00 0. -1.
<mgrwt>
<rscale>  1 0.30000000E+03</rscale>
<asrwt>0</asrwt>
<pdfrwt beam="1">  1       21 0.52218703E-02 0.30000000E+03</pdfrwt>
<pdfrwt beam="2">0</pdfrwt>
<totfact> 0.26747395E+04</totfact>
</mgrwt>
</event>
<event>
 6    1  0.1198667E-001  0.3000000E+03  0.7818608E-02  0.1093470E+00
         21   -1    0    0  501  502  0.00000000000E+00  0.00000000000E+00  0.18860990151E+01  0.18860990151E+01  0.00000000000E+00 0. -1.
         13   -1    0    0    0    0 -0.00000000000E+00 -0.00000000000E+00 -0.10000000000E+04  0.10000000000E+04  0.00000000000E+00 0.  1.
    9000005    2    1    2  501    0  0.36220685080E+02  0.23477220203E+02 -0.45228420821E+03  0.45435238187E+03  0.34589042388E+01 0.  0.
         13    1    3    3    0    0  0.25226333442E+02  0.17966643428E+02 -0.31549392183E+03  0.31701038294E+03  0.00000000000E+00 0.  1.
          3    1    3    3  501    0  0.10994351638E+02  0.55105767749E+01 -0.13679028637E+03  0.13734199893E+03  0.00000000000E+00 0.  1.
         -3    1    1    2    0  502 -0.36220685080E+02 -0.23477220203E+02 -0.54582969278E+03  0.54753371715E+03  0.00000000000E+00 0. -1.
<mgrwt>
<rscale>  1 0.30000000E+03</rscale>
<asrwt>0</asrwt>
<pdfrwt beam="1">  1       21 0.68585563E-02 0.30000000E+03</pdfrwt>
<pdfrwt beam="2">0</pdfrwt>
<totfact> 0.16718331E+04</totfact>
</mgrwt>
</event>
<event>
 6    1  0.1198667E-001  0.3000000E+03  0.7818608E-02  0.1093470E+00
         21   -1    0    0  501  502  0.00000000000E+00  0.00000000000E+00  0.15510945817E+01  0.15510945817E+01  0.00000000000E+00 0. -1.
         13   -1    0    0    0    0 -0.00000000000E+00 -0.00000000000E+00 -0.10000000000E+04  0.10000000000E+04  0.00000000000E+00 0.  1.
    9000005    2    1    2  501    0 -0.24524192609E+02  0.20932259667E+02 -0.21509027554E+03  0.21752919532E+03  0.39406429110E+01 0.  0.
         13    1    3    3    0    0 -0.18866569335E+02  0.14609284793E+02 -0.14947165779E+03  0.15136431259E+03  0.00000000000E+00 0.  1.
          1    1    3    3  501    0 -0.56576232736E+01  0.63229748747E+01 -0.65618617743E+02  0.66164882731E+02  0.00000000000E+00 0.  1.
         -1    1    1    2    0  502  0.24524192609E+02 -0.20932259667E+02 -0.78335862988E+03  0.78402189926E+03  0.00000000000E+00 0. -1.
<mgrwt>
<rscale>  1 0.30000000E+03</rscale>
<asrwt>0</asrwt>
<pdfrwt beam="1">  1       21 0.56403558E-02 0.30000000E+03</pdfrwt>
<pdfrwt beam="2">0</pdfrwt>
<totfact> 0.23438212E+04</totfact>
</mgrwt>
</event>
<event>
 6    1  0.1198667E-001  0.3000000E+03  0.7818608E-02  0.1093470E+00
         21   -1    0    0  501  502  0.00000000000E+00  0.00000000000E+00  0.66285435904E+01  0.66285435904E+01  0.00000000000E+00 0. -1.
         13   -1    0    0    0    0 -0.00000000000E+00 -0.00000000000E+00 -0.10000000000E+04  0.10000000000E+04  0.00000000000E+00 0.  1.
    9000005    2    1    2  501    0 -0.53141856555E+02  0.45689365197E+02 -0.75260937207E+03  0.75587377043E+03  0.35657926557E+01 0.  0.
         13    1    3    3    0    0 -0.33268141660E+02  0.28862513653E+02 -0.49116189278E+03  0.49313265849E+03  0.00000000000E+00 0.  1.
          3    1    3    3  501    0 -0.19873714894E+02  0.16826851543E+02 -0.26144747929E+03  0.26274111194E+03  0.00000000000E+00 0.  1.
         -1    1    1    2    0  502  0.53141856555E+02 -0.45689365197E+02 -0.24076208434E+03  0.25075477316E+03  0.00000000000E+00 0. -1.
<mgrwt>
<rscale>  1 0.30000000E+03</rscale>
<asrwt>0</asrwt>
<pdfrwt beam="1">  1       21 0.24103846E-01 0.30000000E+03</pdfrwt>
<pdfrwt beam="2">0</pdfrwt>
<totfact> 0.16747762E+03</totfact>
</mgrwt>
</event>
<event>
 6    1  0.1198667E-001  0.3000000E+03  0.7818608E-02  0.1093470E+00
         21   -1    0    0  501  502  0.00000000000E+00  0.00000000000E+00  0.13487056561E+01  0.13487056561E+01  0.00000000000E+00 0. -1.
         13   -1    0    0    0    0 -0.00000000000E+00 -0.00000000000E+00 -0.10000000000E+04  0.10000000000E+04  0.00000000000E+00 0.  1.
    9000005    2    1    2  501    0  0.17170334380E+02  0.26995622035E+02 -0.25670457191E+03  0.25871250743E+03  0.33675313242E+01 0.  0.
         13    1    3    3    0    0  0.13935284234E+02  0.21185689784E+02 -0.21317763064E+03  0.21468052497E+03  0.00000000000E+00 0.  1.
          1    1    3    3  501    0  0.32350501460E+01  0.58099322508E+01 -0.43526941273E+02  0.44031982454E+02  0.00000000000E+00 0.  1.
         -3    1    1    2    0  502 -0.17170334380E+02 -0.26995622035E+02 -0.74194672243E+03  0.74263619823E+03  0.00000000000E+00 0. -1.
<mgrwt>
<rscale>  1 0.30000000E+03</rscale>
<asrwt>0</asrwt>
<pdfrwt beam="1">  1       21 0.49043945E-02 0.30000000E+03</pdfrwt>
<pdfrwt beam="2">0</pdfrwt>
<totfact> 0.29767990E+04</totfact>
</mgrwt>
</event>
<event>
 6    1  0.1198667E-001  0.3000000E+03  0.7818608E-02  0.1093470E+00
         21   -1    0    0  501  502  0.00000000000E+00  0.00000000000E+00  0.16603967142E+01  0.16603967142E+01  0.00000000000E+00 0. -1.
         13   -1    0    0    0    0 -0.00000000000E+00 -0.00000000000E+00 -0.10000000000E+04  0.10000000000E+04  0.00000000000E+00 0.  1.
    9000005    2    1    2  501    0  0.15823581307E+02 -0.36457069911E+02 -0.39387289974E+03  0.39588857551E+03  0.35212776502E+01 0.  0.
         13    1    3    3    0    0  0.98726599514E+01 -0.26454331256E+02 -0.28493140051E+03  0.28632709277E+03  0.00000000000E+00 0.  1.
          1    1    3    3  501    0  0.59509213558E+01 -0.10002738655E+02 -0.10894149923E+03  0.10956148274E+03  0.00000000000E+00 0.  1.
         -1    1    1    2    0  502 -0.15823581307E+02  0.36457069911E+02 -0.60446670355E+03  0.60577182121E+03  0.00000000000E+00 0. -1.
<mgrwt>
<rscale>  1 0.30000000E+03</rscale>
<asrwt>0</asrwt>
<pdfrwt beam="1">  1       21 0.60378190E-02 0.30000000E+03</pdfrwt>
<pdfrwt beam="2">0</pdfrwt>
<totfact> 0.20844525E+04</totfact>
</mgrwt>
</event>
<event>
 6    1  0.1198667E-001  0.3000000E+03  0.7818608E-02  0.1093470E+00
         21   -1    0    0  501  502  0.00000000000E+00  0.00000000000E+00  0.14069958253E+02  0.14069958253E+02  0.00000000000E+00 0. -1.
         13   -1    0    0    0    0 -0.00000000000E+00 -0.00000000000E+00 -0.10000000000E+04  0.10000000000E+04  0.00000000000E+00 0.  1.
    9000005    2    1    2  501    0 -0.15526941296E+02 -0.27528179495E+02 -0.98166393152E+03  0.98217816826E+03  0.33155983025E+01 0.  0.
         13    1    3    3    0    0 -0.55140960798E+01 -0.81113161427E+01 -0.26551452216E+03  0.26569561566E+03  0.00000000000E+00 0.  1.
          1    1    3    3  501    0 -0.10012845217E+02 -0.19416863352E+02 -0.71614940936E+03  0.71648255260E+03  0.00000000000E+00 0.  1.
         -1    1    1    2    0  502  0.15526941296E+02  0.27528179495E+02 -0.42661102265E+01  0.31891789990E+02  0.00000000000E+00 0. -1.
<mgrwt>
<rscale>  1 0.30000000E+03</rscale>
<asrwt>0</asrwt>
<pdfrwt beam="1">  1       21 0.51163592E-01 0.30000000E+03</pdfrwt>
<pdfrwt beam="2">0</pdfrwt>
<totfact> 0.35740149E+02</totfact>
</mgrwt>
</event>
<event>
 6    1  0.1198667E-001  0.3000000E+03  0.7818608E-02  0.1093470E+00
         21   -1    0    0  501  502  0.00000000000E+00  0.00000000000E+00  0.13323687126E+01  0.13323687126E+01  0.00000000000E+00 0. -1.
         13   -1    0    0    0    0 -0.00000000000E+00 -0.00000000000E+00 -0.10000000000E+04  0.10000000000E+04  0.00000000000E+00 0.  1.
    9000005    2    1    2  501    0  0.26951912663E+02  0.14432417858E+02 -0.77132539840E+03  0.77194363504E+03  0.44051312326E+01 0.  0.
         13    1    3    3    0    0  0.25704133445E+02  0.12614930523E+02 -0.70359199886E+03  0.70417436748E+03  0.00000000000E+00 0.  1.
          3    1    3    3  501    0  0.12477792183E+01  0.18174873351E+01 -0.67733399535E+02  0.67769267561E+02  0.00000000000E+00 0.  1.
         -1    1    1    2    0  502 -0.26951912663E+02 -0.14432417858E+02 -0.22734223289E+03  0.22938873368E+03  0.00000000000E+00 0. -1.
<mgrwt>
<rscale>  1 0.30000000E+03</rscale>
<asrwt>0</asrwt>
<pdfrwt beam="1">  1       21 0.48449874E-02 0.30000000E+03</pdfrwt>
<pdfrwt beam="2">0</pdfrwt>
<totfact> 0.30392159E+04</totfact>
</mgrwt>
</event>
<event>
 6    1  0.1198667E-001  0.3000000E+03  0.7818608E-02  0.1093470E+00
         21   -1    0    0  501  502  0.00000000000E+00  0.00000000000E+00  0.10802900340E+01  0.10802900340E+01  0.00000000000E+00 0. -1.
         13   -1    0    0    0    0 -0.00000000000E+00 -0.00000000000E+00 -0.10000000000E+04  0.10000000000E+04  0.00000000000E+00 0.  1.
    9000005    2    1    2  501    0 -0.10144882878E+02  0.30342750656E+02 -0.61038179709E+03  0.61122735506E+03  0.30561722102E+01 0.  0.
         13    1    3    3    0    0 -0.98520497601E+01  0.27727357611E+02 -0.57102215576E+03  0.57177982791E+03  0.00000000000E+00 0.  1.
          1    1    3    3  501    0 -0.29283311764E+00  0.26153930451E+01 -0.39359641330E+02  0.39447527142E+02  0.00000000000E+00 0.  1.
         -3    1    1    2    0  502  0.10144882878E+02 -0.30342750656E+02 -0.38853791288E+03  0.38985293498E+03  0.00000000000E+00 0. -1.
<mgrwt>
<rscale>  1 0.30000000E+03</rscale>
<asrwt>0</asrwt>
<pdfrwt beam="1">  1       21 0.39283357E-02 0.30000000E+03</pdfrwt>
<pdfrwt beam="2">0</pdfrwt>
<totfact> 0.43346545E+04</totfact>
</mgrwt>
</event>
<event>
 6    1  0.1198667E-001  0.3000000E+03  0.7818608E-02  0.1093470E+00
         21   -1    0    0  501  502  0.00000000000E+00  0.00000000000E+00  0.16142252728E+01  0.16142252728E+01  0.00000000000E+00 0. -1.
         13   -1    0    0    0    0 -0.00000000000E+00 -0.00000000000E+00 -0.10000000000E+04  0.10000000000E+04  0.00000000000E+00 0.  1.
    9000005    2    1    2  501    0  0.29001861128E+02  0.22400546157E+02 -0.70328101213E+03  0.70424288617E+03  0.33118378710E+01 0.  0.
         13    1    3    3    0    0  0.18178200462E+02  0.12137322028E+02 -0.42966511218E+03  0.43022072264E+03  0.00000000000E+00 0.  1.
          1    1    3    3  501    0  0.10823660666E+02  0.10263224129E+02 -0.27361589995E+03  0.27402216353E+03  0.00000000000E+00 0.  1.
         -3    1    1    2    0  502 -0.29001861128E+02 -0.22400546157E+02 -0.29510476259E+03  0.29737133911E+03  0.00000000000E+00 0. -1.
<mgrwt>
<rscale>  1 0.30000000E+03</rscale>
<asrwt>0</asrwt>
<pdfrwt beam="1">  1       21 0.58699225E-02 0.30000000E+03</pdfrwt>
<pdfrwt beam="2">0</pdfrwt>
<totfact> 0.21883092E+04</totfact>
</mgrwt>
</event>
<event>
 6    1  0.1198667E-001  0.3000000E+03  0.7818608E-02  0.1093470E+00
         21   -1    0    0  501  502  0.00000000000E+00  0.00000000000E+00  0.38277487508E+01  0.38277487508E+01  0.00000000000E+00 0. -1.
         13   -1    0    0    0    0 -0.00000000000E+00 -0.00000000000E+00 -0.10000000000E+04  0.10000000000E+04  0.00000000000E+00 0.  1.
    9000005    2    1    2  501    0  0.22738382583E+02 -0.20424353399E+02 -0.93441378436E+03  0.93491986468E+03  0.34416161863E+01 0.  0.
         13    1    3    3    0    0  0.16112269299E+02 -0.16442780705E+02 -0.70757995874E+03  0.70795435465E+03  0.00000000000E+00 0.  1.
          1    1    3    3  501    0  0.66261132841E+01 -0.39815726940E+01 -0.22683382562E+03  0.22696551003E+03  0.00000000000E+00 0.  1.
         -1    1    1    2    0  502 -0.22738382583E+02  0.20424353399E+02 -0.61758466891E+02  0.68907884070E+02  0.00000000000E+00 0. -1.
<mgrwt>
<rscale>  1 0.30000000E+03</rscale>
<asrwt>0</asrwt>
<pdfrwt beam="1">  1       21 0.13919116E-01 0.30000000E+03</pdfrwt>
<pdfrwt beam="2">0</pdfrwt>
<totfact> 0.47267168E+03</totfact>
</mgrwt>
</event>
<event>
 6    1  0.1198667E-001  0.3000000E+03  0.7818608E-02  0.1093470E+00
         21   -1    0    0  501  502  0.00000000000E+00  0.00000000000E+00  0.19431794187E+01  0.19431794187E+01  0.00000000000E+00 0. -1.
         13   -1    0    0    0    0 -0.00000000000E+00 -0.00000000000E+00 -0.10000000000E+04  0.10000000000E+04  0.00000000000E+00 0.  1.
    9000005    2    1    2  501    0  0.35167859699E+02  0.22529610960E+02 -0.65786353592E+03  0.65919570291E+03  0.31907857081E+01 0.  0.
         13    1    3    3    0    0  0.54475174175E+01  0.48219708928E+01 -0.12149107224E+03  0.12170869929E+03  0.00000000000E+00 0.  1.
          1    1    3    3  501    0  0.29720342282E+02  0.17707640067E+02 -0.53637246368E+03  0.53748700361E+03  0.00000000000E+00 0.  1.
         -1    1    1    2    0  502 -0.35167859699E+02 -0.22529610960E+02 -0.34019328466E+03  0.34274747651E+03  0.00000000000E+00 0. -1.
<mgrwt>
<rscale>  1 0.30000000E+03</rscale>
<asrwt>0</asrwt>
<pdfrwt beam="1">  1       21 0.70661219E-02 0.30000000E+03</pdfrwt>
<pdfrwt beam="2">0</pdfrwt>
<totfact> 0.15873329E+04</totfact>
</mgrwt>
</event>
<event>
 6    1  0.1198667E-001  0.3000000E+03  0.7818608E-02  0.1093470E+00
         21   -1    0    0  501  502  0.00000000000E+00  0.00000000000E+00  0.19373356697E+01  0.19373356697E+01  0.00000000000E+00 0. -1.
         13   -1    0    0    0    0 -0.00000000000E+00 -0.00000000000E+00 -0.10000000000E+04  0.10000000000E+04  0.00000000000E+00 0.  1.
    9000005    2    1    2  501    0 -0.41254285673E+02 -0.89166954095E+01 -0.63915744569E+03  0.64055889205E+03  0.34684670932E+01 0.  0.
         13    1    3    3    0    0 -0.12947712284E+02 -0.15872325420E+01 -0.18122792166E+03  0.18169678629E+03  0.00000000000E+00 0.  1.
          1    1    3    3  501    0 -0.28306573389E+02 -0.73294628674E+01 -0.45792952403E+03  0.45886210576E+03  0.00000000000E+00 0.  1.
         -3    1    1    2    0  502  0.41254285673E+02  0.89166954095E+01 -0.35890521864E+03  0.36137844362E+03  0.00000000000E+00 0. -1.
<mgrwt>
<rscale>  1 0.30000000E+03</rscale>
<asrwt>0</asrwt>
<pdfrwt beam="1">  1       21 0.70448718E-02 0.30000000E+03</pdfrwt>
<pdfrwt beam="2">0</pdfrwt>
<totfact> 0.15956804E+04</totfact>
</mgrwt>
</event>
<event>
 6    1  0.1198667E-001  0.3000000E+03  0.7818608E-02  0.1093470E+00
         21   -1    0    0  501  502  0.00000000000E+00  0.00000000000E+00  0.57627957188E+01  0.57627957188E+01  0.00000000000E+00 0. -1.
         13   -1    0    0    0    0 -0.00000000000E+00 -0.00000000000E+00 -0.10000000000E+04  0.10000000000E+04  0.00000000000E+00 0.  1.
    9000005    2    1    2  501    0  0.12851126189E+02  0.29744114672E+02 -0.95187974331E+03  0.95243345762E+03  0.21404840317E+01 0.  0.
         13    1    3    3    0    0  0.11195954285E+02  0.26470790873E+02 -0.82386212005E+03  0.82436329675E+03  0.00000000000E+00 0.  1.
          3    1    3    3  501    0  0.16551719037E+01  0.32733237993E+01 -0.12801762325E+03  0.12807016087E+03  0.00000000000E+00 0.  1.
         -1    1    1    2    0  502 -0.12851126189E+02 -0.29744114672E+02 -0.42357460973E+02  0.53329338099E+02  0.00000000000E+00 0. -1.
<mgrwt>
<rscale>  1 0.30000000E+03</rscale>
<asrwt>0</asrwt>
<pdfrwt beam="1">  1       21 0.20955665E-01 0.30000000E+03</pdfrwt>
<pdfrwt beam="2">0</pdfrwt>
<totfact> 0.21942934E+03</totfact>
</mgrwt>
</event>
<event>
 6    1  0.1198667E-001  0.3000000E+03  0.7818608E-02  0.1093470E+00
         21   -1    0    0  501  502  0.00000000000E+00  0.00000000000E+00  0.11281071004E+01  0.11281071004E+01  0.00000000000E+00 0. -1.
         13   -1    0    0    0    0 -0.00000000000E+00 -0.00000000000E+00 -0.10000000000E+04  0.10000000000E+04  0.00000000000E+00 0.  1.
    9000005    2    1    2  501    0  0.15879965165E+02 -0.28618893614E+02 -0.47954820901E+03  0.48077409009E+03  0.10296920722E+02 0.  0.
         13    1    3    3    0    0  0.49370136788E+01 -0.21740410073E+01 -0.10210301773E+03  0.10224542429E+03  0.00000000000E+00 0.  1.
          3    1    3    3  501    0  0.10942951486E+02 -0.26444852606E+02 -0.37744519128E+03  0.37852866580E+03  0.00000000000E+00 0.  1.
         -1    1    1    2    0  502 -0.15879965165E+02  0.28618893614E+02 -0.51932368389E+03  0.52035401701E+03  0.00000000000E+00 0. -1.
<mgrwt>
<rscale>  1 0.30000000E+03</rscale>
<asrwt>0</asrwt>
<pdfrwt beam="1">  1       21 0.41022163E-02 0.30000000E+03</pdfrwt>
<pdfrwt beam="2">0</pdfrwt>
<totfact> 0.40296897E+04</totfact>
</mgrwt>
</event>
<event>
 6    1  0.1198667E-001  0.3000000E+03  0.7818608E-02  0.1093470E+00
         21   -1    0    0  501  502  0.00000000000E+00  0.00000000000E+00  0.12375878304E+01  0.12375878304E+01  0.00000000000E+00 0. -1.
         13   -1    0    0    0    0 -0.00000000000E+00 -0.00000000000E+00 -0.10000000000E+04  0.10000000000E+04  0.00000000000E+00 0.  1.
    9000005    2    1    2  501    0 -0.25965405718E+02  0.17195318103E+02 -0.73116701576E+03  0.73183607069E+03  0.29913486216E+01 0.  0.
         13    1    3    3    0    0 -0.55422643356E+01  0.24049162786E+01 -0.12940621114E+03  0.12954716438E+03  0.00000000000E+00 0.  1.
          3    1    3    3  501    0 -0.20423141382E+02  0.14790401824E+02 -0.60176080462E+03  0.60228890631E+03  0.00000000000E+00 0.  1.
         -1    1    1    2    0  502  0.25965405718E+02 -0.17195318103E+02 -0.26759539641E+03  0.26940151714E+03  0.00000000000E+00 0. -1.
<mgrwt>
<rscale>  1 0.30000000E+03</rscale>
<asrwt>0</asrwt>
<pdfrwt beam="1">  1       21 0.45003289E-02 0.30000000E+03</pdfrwt>
<pdfrwt beam="2">0</pdfrwt>
<totfact> 0.34453916E+04</totfact>
</mgrwt>
</event>
<event>
 6    1  0.1198667E-001  0.3000000E+03  0.7818608E-02  0.1093470E+00
         21   -1    0    0  501  502  0.00000000000E+00  0.00000000000E+00  0.18165122578E+01  0.18165122578E+01  0.00000000000E+00 0. -1.
         13   -1    0    0    0    0 -0.00000000000E+00 -0.00000000000E+00 -0.10000000000E+04  0.10000000000E+04  0.00000000000E+00 0.  1.
    9000005    2    1    2  501    0 -0.42168979169E+02  0.37981871782E+01 -0.49412508575E+03  0.49598302024E+03  0.68488661175E+01 0.  0.
         13    1    3    3    0    0 -0.22838037839E+02  0.25321760954E+01 -0.30664976514E+03  0.30750945733E+03  0.00000000000E+00 0.  1.
          3    1    3    3  501    0 -0.19330941330E+02  0.12660110829E+01 -0.18747532061E+03  0.18847356291E+03  0.00000000000E+00 0.  1.
         -1    1    1    2    0  502  0.42168979169E+02 -0.37981871782E+01 -0.50405840199E+03  0.50583349202E+03  0.00000000000E+00 0. -1.
<mgrwt>
<rscale>  1 0.30000000E+03</rscale>
<asrwt>0</asrwt>
<pdfrwt beam="1">  1       21 0.66055130E-02 0.30000000E+03</pdfrwt>
<pdfrwt beam="2">0</pdfrwt>
<totfact> 0.17845277E+04</totfact>
</mgrwt>
</event>
<event>
 6    1  0.1198667E-001  0.3000000E+03  0.7818608E-02  0.1093470E+00
         21   -1    0    0  501  502  0.00000000000E+00  0.00000000000E+00  0.12321547079E+01  0.12321547079E+01  0.00000000000E+00 0. -1.
         13   -1    0    0    0    0 -0.00000000000E+00 -0.00000000000E+00 -0.10000000000E+04  0.10000000000E+04  0.00000000000E+00 0.  1.
    9000005    2    1    2  501    0 -0.32873677422E+02 -0.36563333123E+01 -0.66601096327E+03  0.66683539938E+03  0.21907145851E+01 0.  0.
         13    1    3    3    0    0 -0.13999914488E+02 -0.22508305803E+01 -0.26855870202E+03  0.26893278022E+03  0.00000000000E+00 0.  1.
          3    1    3    3  501    0 -0.18873762934E+02 -0.14055027320E+01 -0.39745226125E+03  0.39790261916E+03  0.00000000000E+00 0.  1.
         -1    1    1    2    0  502  0.32873677422E+02  0.36563333123E+01 -0.33275688202E+03  0.33439675533E+03  0.00000000000E+00 0. -1.
<mgrwt>
<rscale>  1 0.30000000E+03</rscale>
<asrwt>0</asrwt>
<pdfrwt beam="1">  1       21 0.44805720E-02 0.30000000E+03</pdfrwt>
<pdfrwt beam="2">0</pdfrwt>
<totfact> 0.34712066E+04</totfact>
</mgrwt>
</event>
<event>
 6    1  0.1198667E-001  0.3000000E+03  0.7818608E-02  0.1093470E+00
         21   -1    0    0  501  502  0.00000000000E+00  0.00000000000E+00  0.72058533064E+01  0.72058533064E+01  0.00000000000E+00 0. -1.
         13   -1    0    0    0    0 -0.00000000000E+00 -0.00000000000E+00 -0.10000000000E+04  0.10000000000E+04  0.00000000000E+00 0.  1.
    9000005    2    1    2  501    0 -0.37502207458E+01 -0.62757417384E+02 -0.83469042181E+03  0.83706078164E+03  0.31771520939E+01 0.  0.
         13    1    3    3    0    0 -0.11318848732E+01 -0.70064274072E+01 -0.10401162274E+03  0.10425348365E+03  0.00000000000E+00 0.  1.
          1    1    3    3  501    0 -0.26183358725E+01 -0.55750989977E+02 -0.73067879908E+03  0.73280729799E+03  0.00000000000E+00 0.  1.
         -1    1    1    2    0  502  0.37502207458E+01  0.62757417384E+02 -0.15810372488E+03  0.17014507167E+03  0.00000000000E+00 0. -1.
<mgrwt>
<rscale>  1 0.30000000E+03</rscale>
<asrwt>0</asrwt>
<pdfrwt beam="1">  1       21 0.26203158E-01 0.30000000E+03</pdfrwt>
<pdfrwt beam="2">0</pdfrwt>
<totfact> 0.14220585E+03</totfact>
</mgrwt>
</event>
<event>
 6    1  0.1198667E-001  0.3000000E+03  0.7818608E-02  0.1093470E+00
         21   -1    0    0  501  502  0.00000000000E+00  0.00000000000E+00  0.26085675665E+02  0.26085675665E+02  0.00000000000E+00 0. -1.
         13   -1    0    0    0    0 -0.00000000000E+00 -0.00000000000E+00 -0.10000000000E+04  0.10000000000E+04  0.00000000000E+00 0.  1.
    9000005    2    1    2  501    0 -0.24445785221E+02 -0.50292301195E+02 -0.96826315741E+03  0.96988204889E+03  0.32764007693E+01 0.  0.
         13    1    3    3    0    0  0.15540727955E-01 -0.57065946352E+00 -0.13671337282E+02  0.13683250960E+02  0.00000000000E+00 0.  1.
          1    1    3    3  501    0 -0.24461325949E+02 -0.49721641732E+02 -0.95459182012E+03  0.95619879793E+03  0.00000000000E+00 0.  1.
         -1    1    1    2    0  502  0.24445785221E+02  0.50292301195E+02 -0.56511669296E+01  0.56203626771E+02  0.00000000000E+00 0. -1.
<mgrwt>
<rscale>  1 0.30000000E+03</rscale>
<asrwt>0</asrwt>
<pdfrwt beam="1">  1       21 0.94857202E-01 0.30000000E+03</pdfrwt>
<pdfrwt beam="2">0</pdfrwt>
<totfact> 0.84291685E+01</totfact>
</mgrwt>
</event>
<event>
 6    1  0.1198667E-001  0.3000000E+03  0.7818608E-02  0.1093470E+00
         21   -1    0    0  501  502  0.00000000000E+00  0.00000000000E+00  0.30650584596E+01  0.30650584596E+01  0.00000000000E+00 0. -1.
         13   -1    0    0    0    0 -0.00000000000E+00 -0.00000000000E+00 -0.10000000000E+04  0.10000000000E+04  0.00000000000E+00 0.  1.
    9000005    2    1    2  501    0 -0.10240604818E+02  0.48172278209E+02 -0.72239793552E+03  0.72414570444E+03  0.10138324972E+02 0.  0.
         13    1    3    3    0    0 -0.66910562130E+01  0.30838119657E+02 -0.38858206716E+03  0.38986123529E+03  0.00000000000E+00 0.  1.
          1    1    3    3  501    0 -0.35495486046E+01  0.17334158552E+02 -0.33381586836E+03  0.33428446915E+03  0.00000000000E+00 0.  1.
         -1    1    1    2    0  502  0.10240604818E+02 -0.48172278209E+02 -0.27453700602E+03  0.27891935402E+03  0.00000000000E+00 0. -1.
<mgrwt>
<rscale>  1 0.30000000E+03</rscale>
<asrwt>0</asrwt>
<pdfrwt beam="1">  1       21 0.11145691E-01 0.30000000E+03</pdfrwt>
<pdfrwt beam="2">0</pdfrwt>
<totfact> 0.70822702E+03</totfact>
</mgrwt>
</event>
<event>
 6    1  0.1198667E-001  0.3000000E+03  0.7818608E-02  0.1093470E+00
         21   -1    0    0  501  502  0.00000000000E+00  0.00000000000E+00  0.47413344123E+01  0.47413344123E+01  0.00000000000E+00 0. -1.
         13   -1    0    0    0    0 -0.00000000000E+00 -0.00000000000E+00 -0.10000000000E+04  0.10000000000E+04  0.00000000000E+00 0.  1.
    9000005    2    1    2  501    0  0.25164467796E+02 -0.18495966006E+02 -0.94531985059E+03  0.94584110996E+03  0.32301949710E+01 0.  0.
         13    1    3    3    0    0  0.14124419489E+02 -0.11643679198E+02 -0.58925296069E+03  0.58953721357E+03  0.00000000000E+00 0.  1.
          3    1    3    3  501    0  0.11040048307E+02 -0.68522868086E+01 -0.35606688990E+03  0.35630389639E+03  0.00000000000E+00 0.  1.
         -1    1    1    2    0  502 -0.25164467796E+02  0.18495966006E+02 -0.49938814995E+02  0.58900224457E+02  0.00000000000E+00 0. -1.
<mgrwt>
<rscale>  1 0.30000000E+03</rscale>
<asrwt>0</asrwt>
<pdfrwt beam="1">  1       21 0.17241252E-01 0.30000000E+03</pdfrwt>
<pdfrwt beam="2">0</pdfrwt>
<totfact> 0.31765132E+03</totfact>
</mgrwt>
</event>
<event>
 6    1  0.1198667E-001  0.3000000E+03  0.7818608E-02  0.1093470E+00
         21   -1    0    0  501  502  0.00000000000E+00  0.00000000000E+00  0.14509450122E+01  0.14509450122E+01  0.00000000000E+00 0. -1.
         13   -1    0    0    0    0 -0.00000000000E+00 -0.00000000000E+00 -0.10000000000E+04  0.10000000000E+04  0.00000000000E+00 0.  1.
    9000005    2    1    2  501    0  0.22177839703E+02  0.28573955495E+02 -0.34967758228E+03  0.35157209815E+03  0.44945679427E+01 0.  0.
         13    1    3    3    0    0  0.27282885798E+01  0.63776053821E+01 -0.67043439875E+02  0.67401337073E+02  0.00000000000E+00 0.  1.
          1    1    3    3  501    0  0.19449551123E+02  0.22196350113E+02 -0.28263414240E+03  0.28417076107E+03  0.00000000000E+00 0.  1.
         -1    1    1    2    0  502 -0.22177839703E+02 -0.28573955495E+02 -0.64887147271E+03  0.64987884687E+03  0.00000000000E+00 0. -1.
<mgrwt>
<rscale>  1 0.30000000E+03</rscale>
<asrwt>0</asrwt>
<pdfrwt beam="1">  1       21 0.52761748E-02 0.30000000E+03</pdfrwt>
<pdfrwt beam="2">0</pdfrwt>
<totfact> 0.26278554E+04</totfact>
</mgrwt>
</event>
<event>
 6    1  0.1198667E-001  0.3000000E+03  0.7818608E-02  0.1093470E+00
         21   -1    0    0  501  502  0.00000000000E+00  0.00000000000E+00  0.23956278596E+01  0.23956278596E+01  0.00000000000E+00 0. -1.
         13   -1    0    0    0    0 -0.00000000000E+00 -0.00000000000E+00 -0.10000000000E+04  0.10000000000E+04  0.00000000000E+00 0.  1.
    9000005    2    1    2  501    0  0.38645768770E+02 -0.15499420040E+02 -0.76171209600E+03  0.76285670950E+03  0.33637142500E+01 0.  0.
         13    1    3    3    0    0  0.72361300140E-01 -0.15134846582E+00 -0.83061708183E+01  0.83078647184E+01  0.00000000000E+00 0.  1.
          1    1    3    3  501    0  0.38573407470E+02 -0.15348071574E+02 -0.75340592518E+03  0.75454884478E+03  0.00000000000E+00 0.  1.
         -3    1    1    2    0  502 -0.38645768770E+02  0.15499420040E+02 -0.23589227614E+03  0.23953891836E+03  0.00000000000E+00 0. -1.
<mgrwt>
<rscale>  1 0.30000000E+03</rscale>
<asrwt>0</asrwt>
<pdfrwt beam="1">  1       21 0.87113924E-02 0.30000000E+03</pdfrwt>
<pdfrwt beam="2">0</pdfrwt>
<totfact> 0.10994091E+04</totfact>
</mgrwt>
</event>
<event>
 6    1  0.1198667E-001  0.3000000E+03  0.7818608E-02  0.1093470E+00
         21   -1    0    0  501  502  0.00000000000E+00  0.00000000000E+00  0.15268207783E+02  0.15268207783E+02  0.00000000000E+00 0. -1.
         13   -1    0    0    0    0 -0.00000000000E+00 -0.00000000000E+00 -0.10000000000E+04  0.10000000000E+04  0.00000000000E+00 0.  1.
    9000005    2    1    2  501    0 -0.58205118450E+01 -0.48626735265E+02 -0.95841556183E+03  0.95967160967E+03  0.32819952493E+01 0.  0.
         13    1    3    3    0    0 -0.56751333434E+01 -0.37514475937E+02 -0.75482907739E+03  0.75578203149E+03  0.00000000000E+00 0.  1.
          1    1    3    3  501    0 -0.14537850157E+00 -0.11112259328E+02 -0.20358648444E+03  0.20388957818E+03  0.00000000000E+00 0.  1.
         -3    1    1    2    0  502  0.58205118450E+01  0.48626735265E+02 -0.26316230383E+02  0.55596598117E+02  0.00000000000E+00 0. -1.
<mgrwt>
<rscale>  1 0.30000000E+03</rscale>
<asrwt>0</asrwt>
<pdfrwt beam="1">  1       21 0.55520873E-01 0.30000000E+03</pdfrwt>
<pdfrwt beam="2">0</pdfrwt>
<totfact> 0.29858916E+02</totfact>
</mgrwt>
</event>
<event>
 6    1  0.1198667E-001  0.3000000E+03  0.7818608E-02  0.1093470E+00
         21   -1    0    0  501  502  0.00000000000E+00  0.00000000000E+00  0.16684849419E+02  0.16684849419E+02  0.00000000000E+00 0. -1.
         13   -1    0    0    0    0 -0.00000000000E+00 -0.00000000000E+00 -0.10000000000E+04  0.10000000000E+04  0.00000000000E+00 0.  1.
    9000005    2    1    2  501    0  0.53562416128E+02  0.11442263330E+03 -0.38625694826E+03  0.40640625042E+03  0.31841596920E+01 0.  0.
         13    1    3    3    0    0  0.91945445871E+01  0.17254798432E+02 -0.61545577752E+02  0.64576511674E+02  0.00000000000E+00 0.  1.
          1    1    3    3  501    0  0.44367871541E+02  0.97167834866E+02 -0.32471137051E+03  0.34182973875E+03  0.00000000000E+00 0.  1.
         -3    1    1    2    0  502 -0.53562416128E+02 -0.11442263330E+03 -0.59705820232E+03  0.61027859899E+03  0.00000000000E+00 0. -1.
<mgrwt>
<rscale>  1 0.30000000E+03</rscale>
<asrwt>0</asrwt>
<pdfrwt beam="1">  1       21 0.60672308E-01 0.30000000E+03</pdfrwt>
<pdfrwt beam="2">0</pdfrwt>
<totfact> 0.24489225E+02</totfact>
</mgrwt>
</event>
<event>
 6    1  0.1198667E-001  0.3000000E+03  0.7818608E-02  0.1093470E+00
         21   -1    0    0  501  502  0.00000000000E+00  0.00000000000E+00  0.13719344286E+01  0.13719344286E+01  0.00000000000E+00 0. -1.
         13   -1    0    0    0    0 -0.00000000000E+00 -0.00000000000E+00 -0.10000000000E+04  0.10000000000E+04  0.00000000000E+00 0.  1.
    9000005    2    1    2  501    0  0.10963529038E+02  0.28023883913E+02 -0.79060183977E+03  0.79118047965E+03  0.31217465496E+01 0.  0.
         13    1    3    3    0    0  0.67639757381E+00  0.75438519638E+00 -0.40403885088E+02  0.40416587447E+02  0.00000000000E+00 0.  1.
          3    1    3    3  501    0  0.10287131464E+02  0.27269498717E+02 -0.75019795468E+03  0.75076389221E+03  0.00000000000E+00 0.  1.
         -1    1    1    2    0  502 -0.10963529038E+02 -0.28023883913E+02 -0.20802622580E+03  0.21019145478E+03  0.00000000000E+00 0. -1.
<mgrwt>
<rscale>  1 0.30000000E+03</rscale>
<asrwt>0</asrwt>
<pdfrwt beam="1">  1       21 0.49888630E-02 0.30000000E+03</pdfrwt>
<pdfrwt beam="2">0</pdfrwt>
<totfact> 0.28914354E+04</totfact>
</mgrwt>
</event>
<event>
 6    1  0.1198667E-001  0.3000000E+03  0.7818608E-02  0.1093470E+00
         21   -1    0    0  501  502  0.00000000000E+00  0.00000000000E+00  0.26185628060E+01  0.26185628060E+01  0.00000000000E+00 0. -1.
         13   -1    0    0    0    0 -0.00000000000E+00 -0.00000000000E+00 -0.10000000000E+04  0.10000000000E+04  0.00000000000E+00 0.  1.
    9000005    2    1    2  501    0 -0.12843197916E+02  0.44877891364E+02 -0.70278783513E+03  0.70434961832E+03  0.43209673746E+01 0.  0.
         13    1    3    3    0    0  0.30069105340E+00  0.22555141303E+01 -0.34853050906E+02  0.34927251775E+02  0.00000000000E+00 0.  1.
          3    1    3    3  501    0 -0.13143888970E+02  0.42622377233E+02 -0.66793478422E+03  0.66942236655E+03  0.00000000000E+00 0.  1.
         -1    1    1    2    0  502  0.12843197916E+02 -0.44877891364E+02 -0.29459360206E+03  0.29826894448E+03  0.00000000000E+00 0. -1.
<mgrwt>
<rscale>  1 0.30000000E+03</rscale>
<asrwt>0</asrwt>
<pdfrwt beam="1">  1       21 0.95220666E-02 0.30000000E+03</pdfrwt>
<pdfrwt beam="2">0</pdfrwt>
<totfact> 0.93888349E+03</totfact>
</mgrwt>
</event>
<event>
 6    1  0.1198667E-001  0.3000000E+03  0.7818608E-02  0.1093470E+00
         21   -1    0    0  501  502  0.00000000000E+00  0.00000000000E+00  0.21907081402E+01  0.21907081402E+01  0.00000000000E+00 0. -1.
         13   -1    0    0    0    0 -0.00000000000E+00 -0.00000000000E+00 -0.10000000000E+04  0.10000000000E+04  0.00000000000E+00 0.  1.
    9000005    2    1    2  501    0  0.37933940394E+02 -0.24696276399E+02 -0.62454735615E+03  0.62619421540E+03  0.33023365747E+01 0.  0.
         13    1    3    3    0    0  0.34331074344E+02 -0.23114893708E+02 -0.57891791307E+03  0.58039544368E+03  0.00000000000E+00 0.  1.
          3    1    3    3  501    0  0.36028660502E+01 -0.15813826904E+01 -0.45629443085E+02  0.45798771722E+02  0.00000000000E+00 0.  1.
         -1    1    1    2    0  502 -0.37933940394E+02  0.24696276399E+02 -0.37326193571E+03  0.37599649274E+03  0.00000000000E+00 0. -1.
<mgrwt>
<rscale>  1 0.30000000E+03</rscale>
<asrwt>0</asrwt>
<pdfrwt beam="1">  1       21 0.79662282E-02 0.30000000E+03</pdfrwt>
<pdfrwt beam="2">0</pdfrwt>
<totfact> 0.12869128E+04</totfact>
</mgrwt>
</event>
<event>
 6    1  0.1198667E-001  0.3000000E+03  0.7818608E-02  0.1093470E+00
         21   -1    0    0  501  502  0.00000000000E+00  0.00000000000E+00  0.37939760550E+01  0.37939760550E+01  0.00000000000E+00 0. -1.
         13   -1    0    0    0    0 -0.00000000000E+00 -0.00000000000E+00 -0.10000000000E+04  0.10000000000E+04  0.00000000000E+00 0.  1.
    9000005    2    1    2  501    0 -0.30319268691E+02 -0.77340366629E+01 -0.93035532677E+03  0.93088727063E+03  0.33171072690E+01 0.  0.
         13    1    3    3    0    0 -0.14244531813E+02 -0.20621208637E+01 -0.40698979006E+03  0.40724421204E+03  0.00000000000E+00 0.  1.
          3    1    3    3  501    0 -0.16074736878E+02 -0.56719157992E+01 -0.52336553671E+03  0.52364305859E+03  0.00000000000E+00 0.  1.
         -3    1    1    2    0  502  0.30319268691E+02  0.77340366629E+01 -0.65850697179E+02  0.72906705426E+02  0.00000000000E+00 0. -1.
<mgrwt>
<rscale>  1 0.30000000E+03</rscale>
<asrwt>0</asrwt>
<pdfrwt beam="1">  1       21 0.13796306E-01 0.30000000E+03</pdfrwt>
<pdfrwt beam="2">0</pdfrwt>
<totfact> 0.48042383E+03</totfact>
</mgrwt>
</event>
<event>
 6    1  0.1198667E-001  0.3000000E+03  0.7818608E-02  0.1093470E+00
         21   -1    0    0  501  502  0.00000000000E+00  0.00000000000E+00  0.11308451731E+01  0.11308451731E+01  0.00000000000E+00 0. -1.
         13   -1    0    0    0    0 -0.00000000000E+00 -0.00000000000E+00 -0.10000000000E+04  0.10000000000E+04  0.00000000000E+00 0.  1.
    9000005    2    1    2  501    0 -0.32568546954E+02  0.23981711325E+01 -0.61257612359E+03  0.61345989262E+03  0.41317282764E+01 0.  0.
         13    1    3    3    0    0 -0.60700051934E+01  0.18051844114E+01 -0.13583514624E+03  0.13598268495E+03  0.00000000000E+00 0.  1.
          1    1    3    3  501    0 -0.26498541761E+02  0.59298672113E+00 -0.47674097736E+03  0.47747720767E+03  0.00000000000E+00 0.  1.
         -3    1    1    2    0  502  0.32568546954E+02 -0.23981711325E+01 -0.38629303123E+03  0.38767095255E+03  0.00000000000E+00 0. -1.
<mgrwt>
<rscale>  1 0.30000000E+03</rscale>
<asrwt>0</asrwt>
<pdfrwt beam="1">  1       21 0.41121729E-02 0.30000000E+03</pdfrwt>
<pdfrwt beam="2">0</pdfrwt>
<totfact> 0.40132492E+04</totfact>
</mgrwt>
</event>
<event>
 6    1  0.1198667E-001  0.3000000E+03  0.7818608E-02  0.1093470E+00
         21   -1    0    0  501  502  0.00000000000E+00  0.00000000000E+00  0.17496333301E+01  0.17496333301E+01  0.00000000000E+00 0. -1.
         13   -1    0    0    0    0 -0.00000000000E+00 -0.00000000000E+00 -0.10000000000E+04  0.10000000000E+04  0.00000000000E+00 0.  1.
    9000005    2    1    2  501    0  0.64002138118E+01 -0.37411354028E+02 -0.70871084091E+03  0.70973300859E+03  0.30520996720E+01 0.  0.
         13    1    3    3    0    0  0.60845799016E+01 -0.27802730428E+02 -0.53349998210E+03  0.53425859359E+03  0.00000000000E+00 0.  1.
          3    1    3    3  501    0  0.31563391021E+00 -0.96086236002E+01 -0.17521085881E+03  0.17547441500E+03  0.00000000000E+00 0.  1.
         -1    1    1    2    0  502 -0.64002138118E+01  0.37411354028E+02 -0.28953952576E+03  0.29201662474E+03  0.00000000000E+00 0. -1.
<mgrwt>
<rscale>  1 0.30000000E+03</rscale>
<asrwt>0</asrwt>
<pdfrwt beam="1">  1       21 0.63623164E-02 0.30000000E+03</pdfrwt>
<pdfrwt beam="2">0</pdfrwt>
<totfact> 0.19042588E+04</totfact>
</mgrwt>
</event>
<event>
 6    1  0.1198667E-001  0.3000000E+03  0.7818608E-02  0.1093470E+00
         21   -1    0    0  501  502  0.00000000000E+00  0.00000000000E+00  0.16370107943E+01  0.16370107943E+01  0.00000000000E+00 0. -1.
         13   -1    0    0    0    0 -0.00000000000E+00 -0.00000000000E+00 -0.10000000000E+04  0.10000000000E+04  0.00000000000E+00 0.  1.
    9000005    2    1    2  501    0  0.75655068610E+01  0.32914192128E+02 -0.77154344924E+03  0.77231696228E+03  0.73222423157E+01 0.  0.
         13    1    3    3    0    0 -0.10383082027E+01  0.27382606975E+01 -0.96798433822E+02  0.96842722731E+02  0.00000000000E+00 0.  1.
          1    1    3    3  501    0  0.86038150637E+01  0.30175931431E+02 -0.67474501541E+03  0.67547423955E+03  0.00000000000E+00 0.  1.
         -1    1    1    2    0  502 -0.75655068610E+01 -0.32914192128E+02 -0.22681953997E+03  0.22932004851E+03  0.00000000000E+00 0. -1.
<mgrwt>
<rscale>  1 0.30000000E+03</rscale>
<asrwt>0</asrwt>
<pdfrwt beam="1">  1       21 0.59527791E-02 0.30000000E+03</pdfrwt>
<pdfrwt beam="2">0</pdfrwt>
<totfact> 0.21360727E+04</totfact>
</mgrwt>
</event>
<event>
 6    1  0.1198667E-001  0.3000000E+03  0.7818608E-02  0.1093470E+00
         21   -1    0    0  501  502  0.00000000000E+00  0.00000000000E+00  0.19820341286E+01  0.19820341286E+01  0.00000000000E+00 0. -1.
         13   -1    0    0    0    0 -0.00000000000E+00 -0.00000000000E+00 -0.10000000000E+04  0.10000000000E+04  0.00000000000E+00 0.  1.
    9000005    2    1    2  501    0  0.14195413509E+02  0.32110024558E+02 -0.80667562149E+03  0.80744551777E+03  0.31847176181E+01 0.  0.
         13    1    3    3    0    0  0.77241073610E+00  0.43344599714E+01 -0.10188878830E+03  0.10198386806E+03  0.00000000000E+00 0.  1.
          3    1    3    3  501    0  0.13423002773E+02  0.27775564586E+02 -0.70478683318E+03  0.70546164971E+03  0.00000000000E+00 0.  1.
         -1    1    1    2    0  502 -0.14195413509E+02 -0.32110024558E+02 -0.19134234439E+03  0.19453651636E+03  0.00000000000E+00 0. -1.
<mgrwt>
<rscale>  1 0.30000000E+03</rscale>
<asrwt>0</asrwt>
<pdfrwt beam="1">  1       21 0.72074120E-02 0.30000000E+03</pdfrwt>
<pdfrwt beam="2">0</pdfrwt>
<totfact> 0.15334862E+04</totfact>
</mgrwt>
</event>
<event>
 6    1  0.1198667E-001  0.3000000E+03  0.7818608E-02  0.1093470E+00
         21   -1    0    0  501  502  0.00000000000E+00  0.00000000000E+00  0.92119730407E+00  0.92119730407E+00  0.00000000000E+00 0. -1.
         13   -1    0    0    0    0 -0.00000000000E+00 -0.00000000000E+00 -0.10000000000E+04  0.10000000000E+04  0.00000000000E+00 0.  1.
    9000005    2    1    2  501    0  0.10573333660E+01  0.30080533642E+02 -0.54711218873E+03  0.54795345386E+03  0.39094866301E+01 0.  0.
         13    1    3    3    0    0 -0.12199613469E-01  0.27623150253E+02 -0.48915837288E+03  0.48993770251E+03  0.00000000000E+00 0.  1.
          3    1    3    3  501    0  0.10695329795E+01  0.24573833888E+01 -0.57953815843E+02  0.58015751349E+02  0.00000000000E+00 0.  1.
         -1    1    1    2    0  502 -0.10573333660E+01 -0.30080533642E+02 -0.45196661397E+03  0.45296774344E+03  0.00000000000E+00 0. -1.
<mgrwt>
<rscale>  1 0.30000000E+03</rscale>
<asrwt>0</asrwt>
<pdfrwt beam="1">  1       21 0.33498154E-02 0.30000000E+03</pdfrwt>
<pdfrwt beam="2">0</pdfrwt>
<totfact> 0.56620017E+04</totfact>
</mgrwt>
</event>
<event>
 6    1  0.1198667E-001  0.3000000E+03  0.7818608E-02  0.1093470E+00
         21   -1    0    0  501  502  0.00000000000E+00  0.00000000000E+00  0.27471787865E+01  0.27471787865E+01  0.00000000000E+00 0. -1.
         13   -1    0    0    0    0 -0.00000000000E+00 -0.00000000000E+00 -0.10000000000E+04  0.10000000000E+04  0.00000000000E+00 0.  1.
    9000005    2    1    2  501    0 -0.22850824008E+02 -0.27094031748E+02 -0.86769422782E+03  0.86842787327E+03  0.41774817091E+01 0.  0.
         13    1    3    3    0    0 -0.56297041814E+01 -0.46814307935E+01 -0.15337488550E+03  0.15354955182E+03  0.00000000000E+00 0.  1.
          3    1    3    3  501    0 -0.17221119827E+02 -0.22412600955E+02 -0.71431934233E+03  0.71487832144E+03  0.00000000000E+00 0.  1.
         -1    1    1    2    0  502  0.22850824008E+02  0.27094031748E+02 -0.12955859339E+03  0.13431930552E+03  0.00000000000E+00 0. -1.
<mgrwt>
<rscale>  1 0.30000000E+03</rscale>
<asrwt>0</asrwt>
<pdfrwt beam="1">  1       21 0.99897621E-02 0.30000000E+03</pdfrwt>
<pdfrwt beam="2">0</pdfrwt>
<totfact> 0.86189579E+03</totfact>
</mgrwt>
</event>
<event>
 6    1  0.1198667E-001  0.3000000E+03  0.7818608E-02  0.1093470E+00
         21   -1    0    0  501  502  0.00000000000E+00  0.00000000000E+00  0.18226279039E+01  0.18226279039E+01  0.00000000000E+00 0. -1.
         13   -1    0    0    0    0 -0.00000000000E+00 -0.00000000000E+00 -0.10000000000E+04  0.10000000000E+04  0.00000000000E+00 0.  1.
    9000005    2    1    2  501    0 -0.28003348478E+02 -0.24972822291E+02 -0.73738175918E+03  0.73834173468E+03  0.29713660171E+01 0.  0.
         13    1    3    3    0    0 -0.86890000511E+01 -0.61035514490E+01 -0.21865286775E+03  0.21891054939E+03  0.00000000000E+00 0.  1.
          3    1    3    3  501    0 -0.19314348427E+02 -0.18869270842E+02 -0.51872889144E+03  0.51943118529E+03  0.00000000000E+00 0.  1.
         -1    1    1    2    0  502  0.28003348478E+02  0.24972822291E+02 -0.26079561291E+03  0.26348089322E+03  0.00000000000E+00 0. -1.
<mgrwt>
<rscale>  1 0.30000000E+03</rscale>
<asrwt>0</asrwt>
<pdfrwt beam="1">  1       21 0.66277518E-02 0.30000000E+03</pdfrwt>
<pdfrwt beam="2">0</pdfrwt>
<totfact> 0.17741619E+04</totfact>
</mgrwt>
</event>
<event>
 6    1  0.1198667E-001  0.3000000E+03  0.7818608E-02  0.1093470E+00
         21   -1    0    0  501  502  0.00000000000E+00  0.00000000000E+00  0.18806779336E+01  0.18806779336E+01  0.00000000000E+00 0. -1.
         13   -1    0    0    0    0 -0.00000000000E+00 -0.00000000000E+00 -0.10000000000E+04  0.10000000000E+04  0.00000000000E+00 0.  1.
    9000005    2    1    2  501    0 -0.22536154600E+02  0.34211917644E+02 -0.66165772605E+03  0.66293416420E+03  0.35250615756E+01 0.  0.
         13    1    3    3    0    0 -0.11307768790E+02  0.19755555361E+02 -0.35020382469E+03  0.35094282502E+03  0.00000000000E+00 0.  1.
          3    1    3    3  501    0 -0.11228385810E+02  0.14456362283E+02 -0.31145390135E+03  0.31199133918E+03  0.00000000000E+00 0.  1.
         -1    1    1    2    0  502  0.22536154600E+02 -0.34211917644E+02 -0.33646159602E+03  0.33894651373E+03  0.00000000000E+00 0. -1.
<mgrwt>
<rscale>  1 0.30000000E+03</rscale>
<asrwt>0</asrwt>
<pdfrwt beam="1">  1       21 0.68388433E-02 0.30000000E+03</pdfrwt>
<pdfrwt beam="2">0</pdfrwt>
<totfact> 0.16802146E+04</totfact>
</mgrwt>
</event>
<event>
 6    1  0.1198667E-001  0.3000000E+03  0.7818608E-02  0.1093470E+00
         21   -1    0    0  501  502  0.00000000000E+00  0.00000000000E+00  0.21301018944E+01  0.21301018944E+01  0.00000000000E+00 0. -1.
         13   -1    0    0    0    0 -0.00000000000E+00 -0.00000000000E+00 -0.10000000000E+04  0.10000000000E+04  0.00000000000E+00 0.  1.
    9000005    2    1    2  501    0  0.17138824094E+02  0.40016042857E+02 -0.66413392778E+03  0.66556700102E+03  0.32458971716E+01 0.  0.
         13    1    3    3    0    0  0.34014949602E+00  0.51297997441E+00 -0.51961495711E+01  0.52324774724E+01  0.00000000000E+00 0.  1.
          3    1    3    3  501    0  0.16798674598E+02  0.39503062883E+02 -0.65893777821E+03  0.66033452355E+03  0.00000000000E+00 0.  1.
         -1    1    1    2    0  502 -0.17138824094E+02 -0.40016042857E+02 -0.33373597033E+03  0.33656310087E+03  0.00000000000E+00 0. -1.
<mgrwt>
<rscale>  1 0.30000000E+03</rscale>
<asrwt>0</asrwt>
<pdfrwt beam="1">  1       21 0.77458414E-02 0.30000000E+03</pdfrwt>
<pdfrwt beam="2">0</pdfrwt>
<totfact> 0.13518512E+04</totfact>
</mgrwt>
</event>
<event>
 6    1  0.1198667E-001  0.3000000E+03  0.7818608E-02  0.1093470E+00
         21   -1    0    0  501  502  0.00000000000E+00  0.00000000000E+00  0.11990564603E+01  0.11990564603E+01  0.00000000000E+00 0. -1.
         13   -1    0    0    0    0 -0.00000000000E+00 -0.00000000000E+00 -0.10000000000E+04  0.10000000000E+04  0.00000000000E+00 0.  1.
    9000005    2    1    2  501    0  0.18937273901E+02 -0.24372740026E+02 -0.72498994174E+03  0.72565393219E+03  0.32500597780E+01 0.  0.
         13    1    3    3    0    0  0.11276749536E+02 -0.16921977426E+02 -0.46470718670E+03  0.46515189752E+03  0.00000000000E+00 0.  1.
          1    1    3    3  501    0  0.76605243656E+01 -0.74507626004E+01 -0.26028275504E+03  0.26050203467E+03  0.00000000000E+00 0.  1.
         -3    1    1    2    0  502 -0.18937273901E+02  0.24372740026E+02 -0.27381100180E+03  0.27554512427E+03  0.00000000000E+00 0. -1.
<mgrwt>
<rscale>  1 0.30000000E+03</rscale>
<asrwt>0</asrwt>
<pdfrwt beam="1">  1       21 0.43602145E-02 0.30000000E+03</pdfrwt>
<pdfrwt beam="2">0</pdfrwt>
<totfact> 0.36351269E+04</totfact>
</mgrwt>
</event>
<event>
 6    1  0.1198667E-001  0.3000000E+03  0.7818608E-02  0.1093470E+00
         21   -1    0    0  501  502  0.00000000000E+00  0.00000000000E+00  0.18563016791E+01  0.18563016791E+01  0.00000000000E+00 0. -1.
         13   -1    0    0    0    0 -0.00000000000E+00 -0.00000000000E+00 -0.10000000000E+04  0.10000000000E+04  0.00000000000E+00 0.  1.
    9000005    2    1    2  501    0 -0.48909789959E+01  0.30349038987E+02 -0.84946671657E+03  0.85003459458E+03  0.44859318827E+01 0.  0.
         13    1    3    3    0    0 -0.54327642599E+01  0.29081699052E+02 -0.79458805270E+03  0.79513862542E+03  0.00000000000E+00 0.  1.
          1    1    3    3  501    0  0.54178526397E+00  0.12673399350E+01 -0.54878663867E+02  0.54895969157E+02  0.00000000000E+00 0.  1.
         -3    1    1    2    0  502  0.48909789959E+01 -0.30349038987E+02 -0.14867698175E+03  0.15182170710E+03  0.00000000000E+00 0. -1.
<mgrwt>
<rscale>  1 0.30000000E+03</rscale>
<asrwt>0</asrwt>
<pdfrwt beam="1">  1       21 0.67502022E-02 0.30000000E+03</pdfrwt>
<pdfrwt beam="2">0</pdfrwt>
<totfact> 0.17187113E+04</totfact>
</mgrwt>
</event>
<event>
 6    1  0.1198667E-001  0.3000000E+03  0.7818608E-02  0.1093470E+00
         21   -1    0    0  501  502  0.00000000000E+00  0.00000000000E+00  0.13097360508E+01  0.13097360508E+01  0.00000000000E+00 0. -1.
         13   -1    0    0    0    0 -0.00000000000E+00 -0.00000000000E+00 -0.10000000000E+04  0.10000000000E+04  0.00000000000E+00 0.  1.
    9000005    2    1    2  501    0  0.45077883244E+00  0.35935158901E+02 -0.55502770901E+03  0.55619401907E+03  0.21190175176E+01 0.  0.
         13    1    3    3    0    0  0.29028737413E+00  0.35211349757E+02 -0.53882310590E+03  0.53997246491E+03  0.00000000000E+00 0.  1.
          1    1    3    3  501    0  0.16049145831E+00  0.72380914330E+00 -0.16204603112E+02  0.16221554155E+02  0.00000000000E+00 0.  1.
         -1    1    1    2    0  502 -0.45077883244E+00 -0.35935158901E+02 -0.44366255494E+03  0.44511571698E+03  0.00000000000E+00 0. -1.
<mgrwt>
<rscale>  1 0.30000000E+03</rscale>
<asrwt>0</asrwt>
<pdfrwt beam="1">  1       21 0.47626866E-02 0.30000000E+03</pdfrwt>
<pdfrwt beam="2">0</pdfrwt>
<totfact> 0.31291258E+04</totfact>
</mgrwt>
</event>
<event>
 6    1  0.1198667E-001  0.3000000E+03  0.7818608E-02  0.1093470E+00
         21   -1    0    0  501  502  0.00000000000E+00  0.00000000000E+00  0.33018750583E+01  0.33018750583E+01  0.00000000000E+00 0. -1.
         13   -1    0    0    0    0 -0.00000000000E+00 -0.00000000000E+00 -0.10000000000E+04  0.10000000000E+04  0.00000000000E+00 0.  1.
    9000005    2    1    2  501    0 -0.25371120113E+02 -0.21637862134E+02 -0.90680643009E+03  0.90742483079E+03  0.31671874162E+01 0.  0.
         13    1    3    3    0    0 -0.15962150705E+01 -0.23899804492E+01 -0.89621481663E+02  0.89667552017E+02  0.00000000000E+00 0.  1.
          3    1    3    3  501    0 -0.23774905043E+02 -0.19247881685E+02 -0.81718494842E+03  0.81775727877E+03  0.00000000000E+00 0.  1.
         -3    1    1    2    0  502  0.25371120113E+02  0.21637862134E+02 -0.89891694855E+02  0.95877044267E+02  0.00000000000E+00 0. -1.
<mgrwt>
<rscale>  1 0.30000000E+03</rscale>
<asrwt>0</asrwt>
<pdfrwt beam="1">  1       21 0.12006844E-01 0.30000000E+03</pdfrwt>
<pdfrwt beam="2">0</pdfrwt>
<totfact> 0.61907104E+03</totfact>
</mgrwt>
</event>
<event>
 6    1  0.1198667E-001  0.3000000E+03  0.7818608E-02  0.1093470E+00
         21   -1    0    0  501  502  0.00000000000E+00  0.00000000000E+00  0.23291905520E+01  0.23291905520E+01  0.00000000000E+00 0. -1.
         13   -1    0    0    0    0 -0.00000000000E+00 -0.00000000000E+00 -0.10000000000E+04  0.10000000000E+04  0.00000000000E+00 0.  1.
    9000005    2    1    2  501    0 -0.26208589072E+02  0.22965360488E+02 -0.84522501201E+03  0.84595138177E+03  0.37578537230E+01 0.  0.
         13    1    3    3    0    0 -0.15725677643E+02  0.13798960990E+02 -0.55092124443E+03  0.55131835252E+03  0.00000000000E+00 0.  1.
          3    1    3    3  501    0 -0.10482911429E+02  0.91663994982E+01 -0.29430376758E+03  0.29463302925E+03  0.00000000000E+00 0.  1.
         -3    1    1    2    0  502  0.26208589072E+02 -0.22965360488E+02 -0.15244579744E+03  0.15637780878E+03  0.00000000000E+00 0. -1.
<mgrwt>
<rscale>  1 0.30000000E+03</rscale>
<asrwt>0</asrwt>
<pdfrwt beam="1">  1       21 0.84698017E-02 0.30000000E+03</pdfrwt>
<pdfrwt beam="2">0</pdfrwt>
<totfact> 0.11553535E+04</totfact>
</mgrwt>
</event>
<event>
 6    1  0.1198667E-001  0.3000000E+03  0.7818608E-02  0.1093470E+00
         21   -1    0    0  501  502  0.00000000000E+00  0.00000000000E+00  0.33526327686E+01  0.33526327686E+01  0.00000000000E+00 0. -1.
         13   -1    0    0    0    0 -0.00000000000E+00 -0.00000000000E+00 -0.10000000000E+04  0.10000000000E+04  0.00000000000E+00 0.  1.
    9000005    2    1    2  501    0 -0.56437488446E+02 -0.91919600487E+01 -0.57506450566E+03  0.57790957971E+03  0.32579763904E+01 0.  0.
         13    1    3    3    0    0 -0.43248849985E+02 -0.56710029205E+01 -0.44097567577E+03  0.44312771288E+03  0.00000000000E+00 0.  1.
          1    1    3    3  501    0 -0.13188638460E+02 -0.35209571283E+01 -0.13408882989E+03  0.13478186682E+03  0.00000000000E+00 0.  1.
         -1    1    1    2    0  502  0.56437488446E+02  0.91919600487E+01 -0.42158286157E+03  0.42544305306E+03  0.00000000000E+00 0. -1.
<mgrwt>
<rscale>  1 0.30000000E+03</rscale>
<asrwt>0</asrwt>
<pdfrwt beam="1">  1       21 0.12191418E-01 0.30000000E+03</pdfrwt>
<pdfrwt beam="2">0</pdfrwt>
<totfact> 0.60214946E+03</totfact>
</mgrwt>
</event>
<event>
 6    1  0.1198667E-001  0.3000000E+03  0.7818608E-02  0.1093470E+00
         21   -1    0    0  501  502  0.00000000000E+00  0.00000000000E+00  0.15395901298E+01  0.15395901298E+01  0.00000000000E+00 0. -1.
         13   -1    0    0    0    0 -0.00000000000E+00 -0.00000000000E+00 -0.10000000000E+04  0.10000000000E+04  0.00000000000E+00 0.  1.
    9000005    2    1    2  501    0 -0.23925716074E+02  0.25778533688E+02 -0.72033542222E+03  0.72119965105E+03  0.29737986843E+01 0.  0.
         13    1    3    3    0    0 -0.60568477858E+01  0.53108191316E+01 -0.18464274695E+03  0.18481838168E+03  0.00000000000E+00 0.  1.
          3    1    3    3  501    0 -0.17868868288E+02  0.20467714556E+02 -0.53569267527E+03  0.53638126937E+03  0.00000000000E+00 0.  1.
         -3    1    1    2    0  502  0.23925716074E+02 -0.25778533688E+02 -0.27812498765E+03  0.28033993908E+03  0.00000000000E+00 0. -1.
<mgrwt>
<rscale>  1 0.30000000E+03</rscale>
<asrwt>0</asrwt>
<pdfrwt beam="1">  1       21 0.55985214E-02 0.30000000E+03</pdfrwt>
<pdfrwt beam="2">0</pdfrwt>
<totfact> 0.23739823E+04</totfact>
</mgrwt>
</event>
<event>
 6    1  0.1198667E-001  0.3000000E+03  0.7818608E-02  0.1093470E+00
         21   -1    0    0  501  502  0.00000000000E+00  0.00000000000E+00  0.30013196051E+01  0.30013196051E+01  0.00000000000E+00 0. -1.
         13   -1    0    0    0    0 -0.00000000000E+00 -0.00000000000E+00 -0.10000000000E+04  0.10000000000E+04  0.00000000000E+00 0.  1.
    9000005    2    1    2  501    0 -0.26559792135E+02 -0.19331472522E+02 -0.89967270229E+03  0.90028094966E+03  0.39608941633E+01 0.  0.
         13    1    3    3    0    0 -0.11120120721E+02 -0.67154245880E+01 -0.31275320456E+03  0.31302287612E+03  0.00000000000E+00 0.  1.
          3    1    3    3  501    0 -0.15439671414E+02 -0.12616047934E+02 -0.58691949773E+03  0.58725807354E+03  0.00000000000E+00 0.  1.
         -1    1    1    2    0  502  0.26559792135E+02  0.19331472522E+02 -0.97325978107E+02  0.10272036995E+03  0.00000000000E+00 0. -1.
<mgrwt>
<rscale>  1 0.30000000E+03</rscale>
<asrwt>0</asrwt>
<pdfrwt beam="1">  1       21 0.10913912E-01 0.30000000E+03</pdfrwt>
<pdfrwt beam="2">0</pdfrwt>
<totfact> 0.73552281E+03</totfact>
</mgrwt>
</event>
<event>
 6    1  0.1198667E-001  0.3000000E+03  0.7818608E-02  0.1093470E+00
         21   -1    0    0  501  502  0.00000000000E+00  0.00000000000E+00  0.20027981499E+01  0.20027981499E+01  0.00000000000E+00 0. -1.
         13   -1    0    0    0    0 -0.00000000000E+00 -0.00000000000E+00 -0.10000000000E+04  0.10000000000E+04  0.00000000000E+00 0.  1.
    9000005    2    1    2  501    0  0.29664351634E+01  0.35539642513E+02 -0.80035912949E+03  0.80117283630E+03  0.55956725103E+01 0.  0.
         13    1    3    3    0    0  0.16904378577E+01  0.15469186569E+02 -0.28937906285E+03  0.28979716239E+03  0.00000000000E+00 0.  1.
          3    1    3    3  501    0  0.12759973058E+01  0.20070455945E+02 -0.51098006664E+03  0.51137567391E+03  0.00000000000E+00 0.  1.
         -3    1    1    2    0  502 -0.29664351634E+01 -0.35539642513E+02 -0.19763807236E+03  0.20082996185E+03  0.00000000000E+00 0. -1.
<mgrwt>
<rscale>  1 0.30000000E+03</rscale>
<asrwt>0</asrwt>
<pdfrwt beam="1">  1       21 0.72829177E-02 0.30000000E+03</pdfrwt>
<pdfrwt beam="2">0</pdfrwt>
<totfact> 0.15058423E+04</totfact>
</mgrwt>
</event>
<event>
 6    1  0.1198667E-001  0.3000000E+03  0.7818608E-02  0.1093470E+00
         21   -1    0    0  501  502  0.00000000000E+00  0.00000000000E+00  0.15149940766E+01  0.15149940766E+01  0.00000000000E+00 0. -1.
         13   -1    0    0    0    0 -0.00000000000E+00 -0.00000000000E+00 -0.10000000000E+04  0.10000000000E+04  0.00000000000E+00 0.  1.
    9000005    2    1    2  501    0 -0.28733060459E+02  0.21638897790E+02 -0.68902979810E+03  0.68997630257E+03  0.33770946153E+01 0.  0.
         13    1    3    3    0    0 -0.76774066632E+01  0.41732129470E+01 -0.15450144526E+03  0.15474835982E+03  0.00000000000E+00 0.  1.
          3    1    3    3  501    0 -0.21055653795E+02  0.17465684843E+02 -0.53452835285E+03  0.53522794275E+03  0.00000000000E+00 0.  1.
         -3    1    1    2    0  502  0.28733060459E+02 -0.21638897790E+02 -0.30945520782E+03  0.31153869151E+03  0.00000000000E+00 0. -1.
<mgrwt>
<rscale>  1 0.30000000E+03</rscale>
<asrwt>0</asrwt>
<pdfrwt beam="1">  1       21 0.55090810E-02 0.30000000E+03</pdfrwt>
<pdfrwt beam="2">0</pdfrwt>
<totfact> 0.24405012E+04</totfact>
</mgrwt>
</event>
<event>
 6    1  0.1198667E-001  0.3000000E+03  0.7818608E-02  0.1093470E+00
         21   -1    0    0  501  502  0.00000000000E+00  0.00000000000E+00  0.23485599313E+01  0.23485599313E+01  0.00000000000E+00 0. -1.
         13   -1    0    0    0    0 -0.00000000000E+00 -0.00000000000E+00 -0.10000000000E+04  0.10000000000E+04  0.00000000000E+00 0.  1.
    9000005    2    1    2  501    0 -0.32466199372E+00 -0.42154946174E+02 -0.74557573019E+03  0.74677213613E+03  0.28825265056E+01 0.  0.
         13    1    3    3    0    0  0.82997494638E+00 -0.34542445415E+02 -0.61290713283E+03  0.61388030012E+03  0.00000000000E+00 0.  1.
          3    1    3    3  501    0 -0.11546369401E+01 -0.76125007583E+01 -0.13266859736E+03  0.13289183601E+03  0.00000000000E+00 0.  1.
         -1    1    1    2    0  502  0.32466199372E+00  0.42154946174E+02 -0.25207570988E+03  0.25557642380E+03  0.00000000000E+00 0. -1.
<mgrwt>
<rscale>  1 0.30000000E+03</rscale>
<asrwt>0</asrwt>
<pdfrwt beam="1">  1       21 0.85402359E-02 0.30000000E+03</pdfrwt>
<pdfrwt beam="2">0</pdfrwt>
<totfact> 0.11386032E+04</totfact>
</mgrwt>
</event>
<event>
 6    1  0.1198667E-001  0.3000000E+03  0.7818608E-02  0.1093470E+00
         21   -1    0    0  501  502  0.00000000000E+00  0.00000000000E+00  0.32754157914E+01  0.32754157914E+01  0.00000000000E+00 0. -1.
         13   -1    0    0    0    0 -0.00000000000E+00 -0.00000000000E+00 -0.10000000000E+04  0.10000000000E+04  0.00000000000E+00 0.  1.
    9000005    2    1    2  501    0  0.31196595446E+02 -0.14105449478E+01 -0.91865793373E+03  0.91919438867E+03  0.32722709026E+01 0.  0.
         13    1    3    3    0    0  0.12046676319E+02 -0.40545002376E+00 -0.40216572109E+03  0.40234631106E+03  0.00000000000E+00 0.  1.
          1    1    3    3  501    0  0.19149919127E+02 -0.10050949241E+01 -0.51649221264E+03  0.51684807761E+03  0.00000000000E+00 0.  1.
         -3    1    1    2    0  502 -0.31196595446E+02  0.14105449478E+01 -0.78066650478E+02  0.84081027119E+02  0.00000000000E+00 0. -1.
<mgrwt>
<rscale>  1 0.30000000E+03</rscale>
<asrwt>0</asrwt>
<pdfrwt beam="1">  1       21 0.11910628E-01 0.30000000E+03</pdfrwt>
<pdfrwt beam="2">0</pdfrwt>
<totfact> 0.62817356E+03</totfact>
</mgrwt>
</event>
<event>
 6    1  0.1198667E-001  0.3000000E+03  0.7818608E-02  0.1093470E+00
         21   -1    0    0  501  502  0.00000000000E+00  0.00000000000E+00  0.21847219940E+01  0.21847219940E+01  0.00000000000E+00 0. -1.
         13   -1    0    0    0    0 -0.00000000000E+00 -0.00000000000E+00 -0.10000000000E+04  0.10000000000E+04  0.00000000000E+00 0.  1.
    9000005    2    1    2  501    0 -0.22959698967E+02  0.37096309264E+02 -0.67715511803E+03  0.67857041123E+03  0.39325793404E+01 0.  0.
         13    1    3    3    0    0 -0.18092783538E+02  0.26097601421E+02 -0.50021415998E+03  0.50122114826E+03  0.00000000000E+00 0.  1.
          1    1    3    3  501    0 -0.48669154295E+01  0.10998707843E+02 -0.17694095805E+03  0.17734926297E+03  0.00000000000E+00 0.  1.
         -1    1    1    2    0  502  0.22959698967E+02 -0.37096309264E+02 -0.32066015997E+03  0.32361431077E+03  0.00000000000E+00 0. -1.
<mgrwt>
<rscale>  1 0.30000000E+03</rscale>
<asrwt>0</asrwt>
<pdfrwt beam="1">  1       21 0.79444604E-02 0.30000000E+03</pdfrwt>
<pdfrwt beam="2">0</pdfrwt>
<totfact> 0.12931108E+04</totfact>
</mgrwt>
</event>
<event>
 6    1  0.1198667E-001  0.3000000E+03  0.7818608E-02  0.1093470E+00
         21   -1    0    0  501  502  0.00000000000E+00  0.00000000000E+00  0.23718203300E+01  0.23718203300E+01  0.00000000000E+00 0. -1.
         13   -1    0    0    0    0 -0.00000000000E+00 -0.00000000000E+00 -0.10000000000E+04  0.10000000000E+04  0.00000000000E+00 0.  1.
    9000005    2    1    2  501    0  0.12800514818E+02  0.30627057442E+02 -0.86536566072E+03  0.86600744175E+03  0.30483736542E+01 0.  0.
         13    1    3    3    0    0  0.61925626281E+01  0.17168654460E+02 -0.44327450882E+03  0.44365008813E+03  0.00000000000E+00 0.  1.
          1    1    3    3  501    0  0.66079521896E+01  0.13458402982E+02 -0.42209115190E+03  0.42235735362E+03  0.00000000000E+00 0.  1.
         -3    1    1    2    0  502 -0.12800514818E+02 -0.30627057442E+02 -0.13226251895E+03  0.13636437858E+03  0.00000000000E+00 0. -1.
<mgrwt>
<rscale>  1 0.30000000E+03</rscale>
<asrwt>0</asrwt>
<pdfrwt beam="1">  1       21 0.86248194E-02 0.30000000E+03</pdfrwt>
<pdfrwt beam="2">0</pdfrwt>
<totfact> 0.11189727E+04</totfact>
</mgrwt>
</event>
<event>
 6    1  0.1198667E-001  0.3000000E+03  0.7818608E-02  0.1093470E+00
         21   -1    0    0  501  502  0.00000000000E+00  0.00000000000E+00  0.17596647616E+01  0.17596647616E+01  0.00000000000E+00 0. -1.
         13   -1    0    0    0    0 -0.00000000000E+00 -0.00000000000E+00 -0.10000000000E+04  0.10000000000E+04  0.00000000000E+00 0.  1.
    9000005    2    1    2  501    0  0.82190630322E+01  0.29875120547E+02 -0.83629211198E+03  0.83687393814E+03  0.36627809290E+01 0.  0.
         13    1    3    3    0    0  0.17757419073E+00 -0.72254425750E-01 -0.46700852712E+01  0.46740185853E+01  0.00000000000E+00 0.  1.
          1    1    3    3  501    0  0.80414888415E+01  0.29947374973E+02 -0.83162202670E+03  0.83219991956E+03  0.00000000000E+00 0.  1.
         -1    1    1    2    0  502 -0.82190630322E+01 -0.29875120547E+02 -0.16194822326E+03  0.16488572662E+03  0.00000000000E+00 0. -1.
<mgrwt>
<rscale>  1 0.30000000E+03</rscale>
<asrwt>0</asrwt>
<pdfrwt beam="1">  1       21 0.63987944E-02 0.30000000E+03</pdfrwt>
<pdfrwt beam="2">0</pdfrwt>
<totfact> 0.18855220E+04</totfact>
</mgrwt>
</event>
<event>
 6    1  0.1198667E-001  0.3000000E+03  0.7818608E-02  0.1093470E+00
         21   -1    0    0  501  502  0.00000000000E+00  0.00000000000E+00  0.15581615878E+01  0.15581615878E+01  0.00000000000E+00 0. -1.
         13   -1    0    0    0    0 -0.00000000000E+00 -0.00000000000E+00 -0.10000000000E+04  0.10000000000E+04  0.00000000000E+00 0.  1.
    9000005    2    1    2  501    0  0.27982965567E+02  0.12026214565E+02 -0.81731373866E+03  0.81788708406E+03  0.31398533273E+01 0.  0.
         13    1    3    3    0    0  0.75959175085E+01  0.20199023182E+01 -0.23099593541E+03  0.23112961762E+03  0.00000000000E+00 0.  1.
          1    1    3    3  501    0  0.20387048058E+02  0.10006312246E+02 -0.58631780325E+03  0.58675746644E+03  0.00000000000E+00 0.  1.
         -3    1    1    2    0  502 -0.27982965567E+02 -0.12026214565E+02 -0.18112809976E+03  0.18367107753E+03  0.00000000000E+00 0. -1.
<mgrwt>
<rscale>  1 0.30000000E+03</rscale>
<asrwt>0</asrwt>
<pdfrwt beam="1">  1       21 0.56660541E-02 0.30000000E+03</pdfrwt>
<pdfrwt beam="2">0</pdfrwt>
<totfact> 0.23255843E+04</totfact>
</mgrwt>
</event>
<event>
 6    1  0.1198667E-001  0.3000000E+03  0.7818608E-02  0.1093470E+00
         21   -1    0    0  501  502  0.00000000000E+00  0.00000000000E+00  0.40095918293E+01  0.40095918293E+01  0.00000000000E+00 0. -1.
         13   -1    0    0    0    0 -0.00000000000E+00 -0.00000000000E+00 -0.10000000000E+04  0.10000000000E+04  0.00000000000E+00 0.  1.
    9000005    2    1    2  501    0 -0.37452494429E+02 -0.40222573023E+02 -0.74577798018E+03  0.74783230197E+03  0.69145807009E+01 0.  0.
         13    1    3    3    0    0 -0.35428221473E+02 -0.39427730623E+02 -0.72673721655E+03  0.72866774784E+03  0.00000000000E+00 0.  1.
          3    1    3    3  501    0 -0.20242729563E+01 -0.79484239989E+00 -0.19040763629E+02  0.19164554131E+02  0.00000000000E+00 0.  1.
         -1    1    1    2    0  502  0.37452494429E+02  0.40222573023E+02 -0.25021242799E+03  0.25617728986E+03  0.00000000000E+00 0. -1.
<mgrwt>
<rscale>  1 0.30000000E+03</rscale>
<asrwt>0</asrwt>
<pdfrwt beam="1">  1       21 0.14580365E-01 0.30000000E+03</pdfrwt>
<pdfrwt beam="2">0</pdfrwt>
<totfact> 0.43397123E+03</totfact>
</mgrwt>
</event>
<event>
 6    1  0.1198667E-001  0.3000000E+03  0.7818608E-02  0.1093470E+00
         21   -1    0    0  501  502  0.00000000000E+00  0.00000000000E+00  0.58502921565E+01  0.58502921565E+01  0.00000000000E+00 0. -1.
         13   -1    0    0    0    0 -0.00000000000E+00 -0.00000000000E+00 -0.10000000000E+04  0.10000000000E+04  0.00000000000E+00 0.  1.
    9000005    2    1    2  501    0 -0.46125715295E+02 -0.19537800952E+02 -0.87695845950E+03  0.87840188704E+03  0.49424888131E+01 0.  0.
         13    1    3    3    0    0 -0.33725358262E+02 -0.13411816772E+02 -0.66928045166E+03  0.67026382835E+03  0.00000000000E+00 0.  1.
          1    1    3    3  501    0 -0.12400357032E+02 -0.61259841802E+01 -0.20767800784E+03  0.20813805869E+03  0.00000000000E+00 0.  1.
         -1    1    1    2    0  502  0.46125715295E+02  0.19537800952E+02 -0.11719124834E+03  0.12744840511E+03  0.00000000000E+00 0. -1.
<mgrwt>
<rscale>  1 0.30000000E+03</rscale>
<asrwt>0</asrwt>
<pdfrwt beam="1">  1       21 0.21273835E-01 0.30000000E+03</pdfrwt>
<pdfrwt beam="2">0</pdfrwt>
<totfact> 0.21317876E+03</totfact>
</mgrwt>
</event>
<event>
 6    1  0.1198667E-001  0.3000000E+03  0.7818608E-02  0.1093470E+00
         21   -1    0    0  501  502  0.00000000000E+00  0.00000000000E+00  0.10488126781E+01  0.10488126781E+01  0.00000000000E+00 0. -1.
         13   -1    0    0    0    0 -0.00000000000E+00 -0.00000000000E+00 -0.10000000000E+04  0.10000000000E+04  0.00000000000E+00 0.  1.
    9000005    2    1    2  501    0  0.31020439176E+02 -0.73894669278E+01 -0.58042764125E+03  0.58131219230E+03  0.32781586115E+01 0.  0.
         13    1    3    3    0    0  0.30370767981E+02 -0.66957009016E+01 -0.56501237008E+03  0.56586764733E+03  0.00000000000E+00 0.  1.
          1    1    3    3  501    0  0.64967119480E+00 -0.69376602621E+00 -0.15415271168E+02  0.15444544964E+02  0.00000000000E+00 0.  1.
         -3    1    1    2    0  502 -0.31020439176E+02  0.73894669278E+01 -0.41852354608E+03  0.41973662038E+03  0.00000000000E+00 0. -1.
<mgrwt>
<rscale>  1 0.30000000E+03</rscale>
<asrwt>0</asrwt>
<pdfrwt beam="1">  1       21 0.38138723E-02 0.30000000E+03</pdfrwt>
<pdfrwt beam="2">0</pdfrwt>
<totfact> 0.45556292E+04</totfact>
</mgrwt>
</event>
<event>
 6    1  0.1198667E-001  0.3000000E+03  0.7818608E-02  0.1093470E+00
         21   -1    0    0  501  502  0.00000000000E+00  0.00000000000E+00  0.11731875083E+01  0.11731875083E+01  0.00000000000E+00 0. -1.
         13   -1    0    0    0    0 -0.00000000000E+00 -0.00000000000E+00 -0.10000000000E+04  0.10000000000E+04  0.00000000000E+00 0.  1.
    9000005    2    1    2  501    0 -0.27831705043E+01 -0.32918000956E+02 -0.62835153496E+03  0.62922793336E+03  0.32863052856E+01 0.  0.
         13    1    3    3    0    0 -0.11824974262E+01 -0.17668312906E+02 -0.30603723461E+03  0.30654910953E+03  0.00000000000E+00 0.  1.
          3    1    3    3  501    0 -0.16006730781E+01 -0.15249688050E+02 -0.32231430035E+03  0.32267882383E+03  0.00000000000E+00 0.  1.
         -1    1    1    2    0  502  0.27831705043E+01  0.32918000956E+02 -0.37047527753E+03  0.37194525415E+03  0.00000000000E+00 0. -1.
<mgrwt>
<rscale>  1 0.30000000E+03</rscale>
<asrwt>0</asrwt>
<pdfrwt beam="1">  1       21 0.42661454E-02 0.30000000E+03</pdfrwt>
<pdfrwt beam="2">0</pdfrwt>
<totfact> 0.37717459E+04</totfact>
</mgrwt>
</event>
<event>
 6    1  0.1198667E-001  0.3000000E+03  0.7818608E-02  0.1093470E+00
         21   -1    0    0  501  502  0.00000000000E+00  0.00000000000E+00  0.40957361449E+01  0.40957361449E+01  0.00000000000E+00 0. -1.
         13   -1    0    0    0    0 -0.00000000000E+00 -0.00000000000E+00 -0.10000000000E+04  0.10000000000E+04  0.00000000000E+00 0.  1.
    9000005    2    1    2  501    0  0.28808606836E+02 -0.29496845553E+02 -0.88182007350E+03  0.88278950294E+03  0.32656925360E+01 0.  0.
         13    1    3    3    0    0  0.12412957547E+02 -0.12175138843E+02 -0.40569853114E+03  0.40607094662E+03  0.00000000000E+00 0.  1.
          3    1    3    3  501    0  0.16395649289E+02 -0.17321706710E+02 -0.47612154236E+03  0.47671855632E+03  0.00000000000E+00 0.  1.
         -1    1    1    2    0  502 -0.28808606836E+02  0.29496845553E+02 -0.11408419035E+03  0.12130623320E+03  0.00000000000E+00 0. -1.
<mgrwt>
<rscale>  1 0.30000000E+03</rscale>
<asrwt>0</asrwt>
<pdfrwt beam="1">  1       21 0.14893617E-01 0.30000000E+03</pdfrwt>
<pdfrwt beam="2">0</pdfrwt>
<totfact> 0.41726211E+03</totfact>
</mgrwt>
</event>
<event>
 6    1  0.1198667E-001  0.3000000E+03  0.7818608E-02  0.1093470E+00
         21   -1    0    0  501  502  0.00000000000E+00  0.00000000000E+00  0.20284109450E+01  0.20284109450E+01  0.00000000000E+00 0. -1.
         13   -1    0    0    0    0 -0.00000000000E+00 -0.00000000000E+00 -0.10000000000E+04  0.10000000000E+04  0.00000000000E+00 0.  1.
    9000005    2    1    2  501    0 -0.38990856962E+02  0.85498629682E+01 -0.73005546019E+03  0.73115493644E+03  0.36302956623E+01 0.  0.
         13    1    3    3    0    0 -0.35749295992E+01 -0.23684073935E+00 -0.60851735061E+02  0.60957115049E+02  0.00000000000E+00 0.  1.
          3    1    3    3  501    0 -0.35415927363E+02  0.87867037076E+01 -0.66920372513E+03  0.67019782139E+03  0.00000000000E+00 0.  1.
         -3    1    1    2    0  502  0.38990856962E+02 -0.85498629682E+01 -0.26791612887E+03  0.27087347450E+03  0.00000000000E+00 0. -1.
<mgrwt>
<rscale>  1 0.30000000E+03</rscale>
<asrwt>0</asrwt>
<pdfrwt beam="1">  1       21 0.73760554E-02 0.30000000E+03</pdfrwt>
<pdfrwt beam="2">0</pdfrwt>
<totfact> 0.14727727E+04</totfact>
</mgrwt>
</event>
<event>
 6    1  0.1198667E-001  0.3000000E+03  0.7818608E-02  0.1093470E+00
         21   -1    0    0  501  502  0.00000000000E+00  0.00000000000E+00  0.34109529411E+01  0.34109529411E+01  0.00000000000E+00 0. -1.
         13   -1    0    0    0    0 -0.00000000000E+00 -0.00000000000E+00 -0.10000000000E+04  0.10000000000E+04  0.00000000000E+00 0.  1.
    9000005    2    1    2  501    0  0.41797813483E+02  0.39896488815E+02 -0.56890987479E+03  0.57184605466E+03  0.32676551610E+01 0.  0.
         13    1    3    3    0    0  0.92872750649E+01  0.86312870978E+01 -0.13859739945E+03  0.13917611767E+03  0.00000000000E+00 0.  1.
          3    1    3    3  501    0  0.32510538418E+02  0.31265201717E+02 -0.43031247534E+03  0.43266993700E+03  0.00000000000E+00 0.  1.
         -3    1    1    2    0  502 -0.41797813483E+02 -0.39896488815E+02 -0.42767917227E+03  0.43156489828E+03  0.00000000000E+00 0. -1.
<mgrwt>
<rscale>  1 0.30000000E+03</rscale>
<asrwt>0</asrwt>
<pdfrwt beam="1">  1       21 0.12403491E-01 0.30000000E+03</pdfrwt>
<pdfrwt beam="2">0</pdfrwt>
<totfact> 0.58354747E+03</totfact>
</mgrwt>
</event>
<event>
 6    1  0.1198667E-001  0.3000000E+03  0.7818608E-02  0.1093470E+00
         21   -1    0    0  501  502  0.00000000000E+00  0.00000000000E+00  0.56539286454E+01  0.56539286454E+01  0.00000000000E+00 0. -1.
         13   -1    0    0    0    0 -0.00000000000E+00 -0.00000000000E+00 -0.10000000000E+04  0.10000000000E+04  0.00000000000E+00 0.  1.
    9000005    2    1    2  501    0 -0.69230636307E+01  0.65938674275E+02 -0.73414021698E+03  0.73713405187E+03  0.29857422512E+01 0.  0.
         13    1    3    3    0    0 -0.34642359599E+01  0.44193444866E+02 -0.49909486833E+03  0.50105962628E+03  0.00000000000E+00 0.  1.
          3    1    3    3  501    0 -0.34588276708E+01  0.21745229409E+02 -0.23504534866E+03  0.23607442559E+03  0.00000000000E+00 0.  1.
         -1    1    1    2    0  502  0.69230636307E+01 -0.65938674275E+02 -0.26020585437E+03  0.26851987678E+03  0.00000000000E+00 0. -1.
<mgrwt>
<rscale>  1 0.30000000E+03</rscale>
<asrwt>0</asrwt>
<pdfrwt beam="1">  1       21 0.20559784E-01 0.30000000E+03</pdfrwt>
<pdfrwt beam="2">0</pdfrwt>
<totfact> 0.22759160E+03</totfact>
</mgrwt>
</event>
<event>
 6    1  0.1198667E-001  0.3000000E+03  0.7818608E-02  0.1093470E+00
         21   -1    0    0  501  502  0.00000000000E+00  0.00000000000E+00  0.79037791882E+01  0.79037791882E+01  0.00000000000E+00 0. -1.
         13   -1    0    0    0    0 -0.00000000000E+00 -0.00000000000E+00 -0.10000000000E+04  0.10000000000E+04  0.00000000000E+00 0.  1.
    9000005    2    1    2  501    0 -0.58814921116E+02  0.23011028608E+02 -0.85066876474E+03  0.85301534284E+03  0.30208330233E+01 0.  0.
         13    1    3    3    0    0 -0.48544616679E+02  0.20090713500E+02 -0.70033929376E+03  0.70230715713E+03  0.00000000000E+00 0.  1.
          1    1    3    3  501    0 -0.10270304438E+02  0.29203151076E+01 -0.15032947099E+03  0.15070818571E+03  0.00000000000E+00 0.  1.
         -1    1    1    2    0  502  0.58814921116E+02 -0.23011028608E+02 -0.14142745607E+03  0.15488843635E+03  0.00000000000E+00 0. -1.
<mgrwt>
<rscale>  1 0.30000000E+03</rscale>
<asrwt>0</asrwt>
<pdfrwt beam="1">  1       21 0.28741076E-01 0.30000000E+03</pdfrwt>
<pdfrwt beam="2">0</pdfrwt>
<totfact> 0.11843402E+03</totfact>
</mgrwt>
</event>
<event>
 6    1  0.1198667E-001  0.3000000E+03  0.7818608E-02  0.1093470E+00
         21   -1    0    0  501  502  0.00000000000E+00  0.00000000000E+00  0.24096737318E+01  0.24096737318E+01  0.00000000000E+00 0. -1.
         13   -1    0    0    0    0 -0.00000000000E+00 -0.00000000000E+00 -0.10000000000E+04  0.10000000000E+04  0.00000000000E+00 0.  1.
    9000005    2    1    2  501    0 -0.47790638689E+02 -0.29909280282E+01 -0.60734835400E+03  0.60924089608E+03  0.30912066659E+01 0.  0.
         13    1    3    3    0    0 -0.35629623766E+02 -0.23319810781E+01 -0.43520719225E+03  0.43666944983E+03  0.00000000000E+00 0.  1.
          1    1    3    3  501    0 -0.12161014923E+02 -0.65894695013E+00 -0.17214116175E+03  0.17257144626E+03  0.00000000000E+00 0.  1.
         -3    1    1    2    0  502  0.47790638689E+02  0.29909280282E+01 -0.39024197227E+03  0.39316877765E+03  0.00000000000E+00 0. -1.
<mgrwt>
<rscale>  1 0.30000000E+03</rscale>
<asrwt>0</asrwt>
<pdfrwt beam="1">  1       21 0.87624684E-02 0.30000000E+03</pdfrwt>
<pdfrwt beam="2">0</pdfrwt>
<totfact> 0.10881100E+04</totfact>
</mgrwt>
</event>
<event>
 6    1  0.1198667E-001  0.3000000E+03  0.7818608E-02  0.1093470E+00
         21   -1    0    0  501  502  0.00000000000E+00  0.00000000000E+00  0.57173634838E+01  0.57173634838E+01  0.00000000000E+00 0. -1.
         13   -1    0    0    0    0 -0.00000000000E+00 -0.00000000000E+00 -0.10000000000E+04  0.10000000000E+04  0.00000000000E+00 0.  1.
    9000005    2    1    2  501    0  0.35385048256E+02 -0.10297747670E+02 -0.93618308578E+03  0.93691545186E+03  0.36943994879E+01 0.  0.
         13    1    3    3    0    0  0.14596985931E+02 -0.25164006724E+01 -0.39292136944E+03  0.39320046647E+03  0.00000000000E+00 0.  1.
          1    1    3    3  501    0  0.20788062325E+02 -0.77813469979E+01 -0.54326171635E+03  0.54371498539E+03  0.00000000000E+00 0.  1.
         -3    1    1    2    0  502 -0.35385048256E+02  0.10297747670E+02 -0.58099550732E+02  0.68801911619E+02  0.00000000000E+00 0. -1.
<mgrwt>
<rscale>  1 0.30000000E+03</rscale>
<asrwt>0</asrwt>
<pdfrwt beam="1">  1       21 0.20790457E-01 0.30000000E+03</pdfrwt>
<pdfrwt beam="2">0</pdfrwt>
<totfact> 0.22278214E+03</totfact>
</mgrwt>
</event>
<event>
 6    1  0.1198667E-001  0.3000000E+03  0.7818608E-02  0.1093470E+00
         21   -1    0    0  501  502  0.00000000000E+00  0.00000000000E+00  0.53228801960E+01  0.53228801960E+01  0.00000000000E+00 0. -1.
         13   -1    0    0    0    0 -0.00000000000E+00 -0.00000000000E+00 -0.10000000000E+04  0.10000000000E+04  0.00000000000E+00 0.  1.
    9000005    2    1    2  501    0  0.39896358767E+02  0.42482568288E+02 -0.19563008901E+03  0.20415333167E+03  0.33110509058E+01 0.  0.
         13    1    3    3    0    0  0.65918984744E+01  0.86955975922E+01 -0.38684690003E+02  0.40194175992E+02  0.00000000000E+00 0.  1.
          3    1    3    3  501    0  0.33304460292E+02  0.33786970696E+02 -0.15694539900E+03  0.16395915568E+03  0.00000000000E+00 0.  1.
         -3    1    1    2    0  502 -0.39896358767E+02 -0.42482568288E+02 -0.79904703080E+03  0.80116954852E+03  0.00000000000E+00 0. -1.
<mgrwt>
<rscale>  1 0.30000000E+03</rscale>
<asrwt>0</asrwt>
<pdfrwt beam="1">  1       21 0.19355969E-01 0.30000000E+03</pdfrwt>
<pdfrwt beam="2">0</pdfrwt>
<totfact> 0.25535378E+03</totfact>
</mgrwt>
</event>
<event>
 6    1  0.1198667E-001  0.3000000E+03  0.7818608E-02  0.1093470E+00
         21   -1    0    0  501  502  0.00000000000E+00  0.00000000000E+00  0.94608429002E+00  0.94608429002E+00  0.00000000000E+00 0. -1.
         13   -1    0    0    0    0 -0.00000000000E+00 -0.00000000000E+00 -0.10000000000E+04  0.10000000000E+04  0.00000000000E+00 0.  1.
    9000005    2    1    2  501    0  0.29862089667E+02 -0.59891882955E+01 -0.44275899015E+03  0.44381803888E+03  0.33635551428E+01 0.  0.
         13    1    3    3    0    0  0.21443923799E+02 -0.45436009713E+01 -0.33910748123E+03  0.33981519978E+03  0.00000000000E+00 0.  1.
          3    1    3    3  501    0  0.84181658681E+01 -0.14455873242E+01 -0.10365150893E+03  0.10400283910E+03  0.00000000000E+00 0.  1.
         -1    1    1    2    0  502 -0.29862089667E+02  0.59891882955E+01 -0.55629492556E+03  0.55712804541E+03  0.00000000000E+00 0. -1.
<mgrwt>
<rscale>  1 0.30000000E+03</rscale>
<asrwt>0</asrwt>
<pdfrwt beam="1">  1       21 0.34403138E-02 0.30000000E+03</pdfrwt>
<pdfrwt beam="2">0</pdfrwt>
<totfact> 0.54153318E+04</totfact>
</mgrwt>
</event>
<event>
 6    1  0.1198667E-001  0.3000000E+03  0.7818608E-02  0.1093470E+00
         21   -1    0    0  501  502  0.00000000000E+00  0.00000000000E+00  0.17192333885E+01  0.17192333885E+01  0.00000000000E+00 0. -1.
         13   -1    0    0    0    0 -0.00000000000E+00 -0.00000000000E+00 -0.10000000000E+04  0.10000000000E+04  0.00000000000E+00 0.  1.
    9000005    2    1    2  501    0 -0.34608941932E+02  0.35661616630E+01 -0.77110887315E+03  0.77189850859E+03  0.28137045222E+01 0.  0.
         13    1    3    3    0    0 -0.25448357313E+02  0.14860369917E+01 -0.57493450860E+03  0.57549936262E+03  0.00000000000E+00 0.  1.
          3    1    3    3  501    0 -0.91605846186E+01  0.20801246714E+01 -0.19617436455E+03  0.19639914597E+03  0.00000000000E+00 0.  1.
         -3    1    1    2    0  502  0.34608941932E+02 -0.35661616630E+01 -0.22717189346E+03  0.22982072480E+03  0.00000000000E+00 0. -1.
<mgrwt>
<rscale>  1 0.30000000E+03</rscale>
<asrwt>0</asrwt>
<pdfrwt beam="1">  1       21 0.62517710E-02 0.30000000E+03</pdfrwt>
<pdfrwt beam="2">0</pdfrwt>
<totfact> 0.19628357E+04</totfact>
</mgrwt>
</event>
<event>
 6    1  0.1198667E-001  0.3000000E+03  0.7818608E-02  0.1093470E+00
         21   -1    0    0  501  502  0.00000000000E+00  0.00000000000E+00  0.12816234404E+01  0.12816234404E+01  0.00000000000E+00 0. -1.
         13   -1    0    0    0    0 -0.00000000000E+00 -0.00000000000E+00 -0.10000000000E+04  0.10000000000E+04  0.00000000000E+00 0.  1.
    9000005    2    1    2  501    0  0.27026114842E+02 -0.19258584255E+02 -0.68560130897E+03  0.68641085317E+03  0.30660309251E+01 0.  0.
         13    1    3    3    0    0  0.25295418798E+02 -0.18118909466E+02 -0.62487506814E+03  0.62564926586E+03  0.00000000000E+00 0.  1.
          1    1    3    3  501    0  0.17306960439E+01 -0.11396747885E+01 -0.60726240829E+02  0.60761587312E+02  0.00000000000E+00 0.  1.
         -1    1    1    2    0  502 -0.27026114842E+02  0.19258584255E+02 -0.31311706759E+03  0.31487077027E+03  0.00000000000E+00 0. -1.
<mgrwt>
<rscale>  1 0.30000000E+03</rscale>
<asrwt>0</asrwt>
<pdfrwt beam="1">  1       21 0.46604587E-02 0.30000000E+03</pdfrwt>
<pdfrwt beam="2">0</pdfrwt>
<totfact> 0.32467309E+04</totfact>
</mgrwt>
</event>
<event>
 6    1  0.1198667E-001  0.3000000E+03  0.7818608E-02  0.1093470E+00
         21   -1    0    0  501  502  0.00000000000E+00  0.00000000000E+00  0.19438497642E+01  0.19438497642E+01  0.00000000000E+00 0. -1.
         13   -1    0    0    0    0 -0.00000000000E+00 -0.00000000000E+00 -0.10000000000E+04  0.10000000000E+04  0.00000000000E+00 0.  1.
    9000005    2    1    2  501    0  0.13768848678E+02  0.29795490254E+02 -0.83317352097E+03  0.83382593321E+03  0.31966251123E+01 0.  0.
         13    1    3    3    0    0  0.93596348179E+01  0.22717872175E+02 -0.64470299982E+03  0.64517103349E+03  0.00000000000E+00 0.  1.
          1    1    3    3  501    0  0.44092138605E+01  0.70776180792E+01 -0.18847052115E+03  0.18865489971E+03  0.00000000000E+00 0.  1.
         -1    1    1    2    0  502 -0.13768848678E+02 -0.29795490254E+02 -0.16488262927E+03  0.16811791656E+03  0.00000000000E+00 0. -1.
<mgrwt>
<rscale>  1 0.30000000E+03</rscale>
<asrwt>0</asrwt>
<pdfrwt beam="1">  1       21 0.70685595E-02 0.30000000E+03</pdfrwt>
<pdfrwt beam="2">0</pdfrwt>
<totfact> 0.15863797E+04</totfact>
</mgrwt>
</event>
<event>
 6    1  0.1198667E-001  0.3000000E+03  0.7818608E-02  0.1093470E+00
         21   -1    0    0  501  502  0.00000000000E+00  0.00000000000E+00  0.43157525208E+01  0.43157525208E+01  0.00000000000E+00 0. -1.
         13   -1    0    0    0    0 -0.00000000000E+00 -0.00000000000E+00 -0.10000000000E+04  0.10000000000E+04  0.00000000000E+00 0.  1.
    9000005    2    1    2  501    0  0.16110694062E+02 -0.59323702554E+02 -0.67318017445E+03  0.67600533041E+03  0.57274181829E+01 0.  0.
         13    1    3    3    0    0  0.10461168918E+02 -0.46115510398E+02 -0.50075732005E+03  0.50298505936E+03  0.00000000000E+00 0.  1.
          3    1    3    3  501    0  0.56495251443E+01 -0.13208192155E+02 -0.17242285440E+03  0.17302027105E+03  0.00000000000E+00 0.  1.
         -3    1    1    2    0  502 -0.16110694062E+02  0.59323702554E+02 -0.32250407303E+03  0.32831042212E+03  0.00000000000E+00 0. -1.
<mgrwt>
<rscale>  1 0.30000000E+03</rscale>
<asrwt>0</asrwt>
<pdfrwt beam="1">  1       21 0.15693679E-01 0.30000000E+03</pdfrwt>
<pdfrwt beam="2">0</pdfrwt>
<totfact> 0.37865798E+03</totfact>
</mgrwt>
</event>
<event>
 6    1  0.1198667E-001  0.3000000E+03  0.7818608E-02  0.1093470E+00
         21   -1    0    0  501  502  0.00000000000E+00  0.00000000000E+00  0.20076138993E+01  0.20076138993E+01  0.00000000000E+00 0. -1.
         13   -1    0    0    0    0 -0.00000000000E+00 -0.00000000000E+00 -0.10000000000E+04  0.10000000000E+04  0.00000000000E+00 0.  1.
    9000005    2    1    2  501    0 -0.17436754424E+02  0.29099943882E+02 -0.82570515645E+03  0.82641223628E+03  0.41631424005E+01 0.  0.
         13    1    3    3    0    0 -0.10228573635E+02  0.13097156476E+02 -0.39193593498E+03  0.39228807828E+03  0.00000000000E+00 0.  1.
          1    1    3    3  501    0 -0.72081807893E+01  0.16002787406E+02 -0.43376922146E+03  0.43412415801E+03  0.00000000000E+00 0.  1.
         -3    1    1    2    0  502  0.17436754424E+02 -0.29099943882E+02 -0.17228722965E+03  0.17559537762E+03  0.00000000000E+00 0. -1.
<mgrwt>
<rscale>  1 0.30000000E+03</rscale>
<asrwt>0</asrwt>
<pdfrwt beam="1">  1       21 0.73004296E-02 0.30000000E+03</pdfrwt>
<pdfrwt beam="2">0</pdfrwt>
<totfact> 0.14995391E+04</totfact>
</mgrwt>
</event>
<event>
 6    1  0.1198667E-001  0.3000000E+03  0.7818608E-02  0.1093470E+00
         21   -1    0    0  501  502  0.00000000000E+00  0.00000000000E+00  0.14642332952E+01  0.14642332952E+01  0.00000000000E+00 0. -1.
         13   -1    0    0    0    0 -0.00000000000E+00 -0.00000000000E+00 -0.10000000000E+04  0.10000000000E+04  0.00000000000E+00 0.  1.
    9000005    2    1    2  501    0  0.26506576509E+02 -0.24628074046E+02 -0.66065170192E+03  0.66164842751E+03  0.29714879090E+01 0.  0.
         13    1    3    3    0    0  0.72090915282E+01 -0.65153953243E+01 -0.20233205238E+03  0.20256525072E+03  0.00000000000E+00 0.  1.
          3    1    3    3  501    0  0.19297484981E+02 -0.18112678722E+02 -0.45831964954E+03  0.45908317679E+03  0.00000000000E+00 0.  1.
         -1    1    1    2    0  502 -0.26506576509E+02  0.24628074046E+02 -0.33788406478E+03  0.33981580579E+03  0.00000000000E+00 0. -1.
<mgrwt>
<rscale>  1 0.30000000E+03</rscale>
<asrwt>0</asrwt>
<pdfrwt beam="1">  1       21 0.53244959E-02 0.30000000E+03</pdfrwt>
<pdfrwt beam="2">0</pdfrwt>
<totfact> 0.25871983E+04</totfact>
</mgrwt>
</event>
<event>
 6    1  0.1198667E-001  0.3000000E+03  0.7818608E-02  0.1093470E+00
         21   -1    0    0  501  502  0.00000000000E+00  0.00000000000E+00  0.13650736824E+01  0.13650736824E+01  0.00000000000E+00 0. -1.
         13   -1    0    0    0    0 -0.00000000000E+00 -0.00000000000E+00 -0.10000000000E+04  0.10000000000E+04  0.00000000000E+00 0.  1.
    9000005    2    1    2  501    0  0.23403494622E+02 -0.24938095873E+02 -0.68694171760E+03  0.68780122286E+03  0.34592763050E+01 0.  0.
         13    1    3    3    0    0  0.18125110593E+02 -0.20153615371E+02 -0.51658763815E+03  0.51729824641E+03  0.00000000000E+00 0.  1.
          3    1    3    3  501    0  0.52783840286E+01 -0.47844805016E+01 -0.17035407945E+03  0.17050297645E+03  0.00000000000E+00 0.  1.
         -3    1    1    2    0  502 -0.23403494622E+02  0.24938095873E+02 -0.31169320871E+03  0.31356385083E+03  0.00000000000E+00 0. -1.
<mgrwt>
<rscale>  1 0.30000000E+03</rscale>
<asrwt>0</asrwt>
<pdfrwt beam="1">  1       21 0.49639148E-02 0.30000000E+03</pdfrwt>
<pdfrwt beam="2">0</pdfrwt>
<totfact> 0.29162467E+04</totfact>
</mgrwt>
</event>
<event>
 6    1  0.1198667E-001  0.3000000E+03  0.7818608E-02  0.1093470E+00
         21   -1    0    0  501  502  0.00000000000E+00  0.00000000000E+00  0.12930369047E+01  0.12930369047E+01  0.00000000000E+00 0. -1.
         13   -1    0    0    0    0 -0.00000000000E+00 -0.00000000000E+00 -0.10000000000E+04  0.10000000000E+04  0.00000000000E+00 0.  1.
    9000005    2    1    2  501    0 -0.31517085683E+02 -0.15449896805E+02 -0.60194549440E+03  0.60298199131E+03  0.41082374466E+01 0.  0.
         13    1    3    3    0    0 -0.89748029755E+01 -0.23907720963E+01 -0.15923851691E+03  0.15950914754E+03  0.00000000000E+00 0.  1.
          3    1    3    3  501    0 -0.22542282707E+02 -0.13059124709E+02 -0.44270697749E+03  0.44347284377E+03  0.00000000000E+00 0.  1.
         -3    1    1    2    0  502  0.31517085683E+02  0.15449896805E+02 -0.39676146870E+03  0.39831104559E+03  0.00000000000E+00 0. -1.
<mgrwt>
<rscale>  1 0.30000000E+03</rscale>
<asrwt>0</asrwt>
<pdfrwt beam="1">  1       21 0.47019623E-02 0.30000000E+03</pdfrwt>
<pdfrwt beam="2">0</pdfrwt>
<totfact> 0.31981627E+04</totfact>
</mgrwt>
</event>
<event>
 6    1  0.1198667E-001  0.3000000E+03  0.7818608E-02  0.1093470E+00
         21   -1    0    0  501  502  0.00000000000E+00  0.00000000000E+00  0.11245690817E+01  0.11245690817E+01  0.00000000000E+00 0. -1.
         13   -1    0    0    0    0 -0.00000000000E+00 -0.00000000000E+00 -0.10000000000E+04  0.10000000000E+04  0.00000000000E+00 0.  1.
    9000005    2    1    2  501    0  0.13351346764E+02 -0.29107470356E+02 -0.64514344003E+03  0.64594598770E+03  0.32645869032E+01 0.  0.
         13    1    3    3    0    0  0.41216263083E+00 -0.17364385214E+01 -0.51680238237E+02  0.51711044478E+02  0.00000000000E+00 0.  1.
          1    1    3    3  501    0  0.12939184134E+02 -0.27371031835E+02 -0.59346320179E+03  0.59423494323E+03  0.00000000000E+00 0.  1.
         -1    1    1    2    0  502 -0.13351346764E+02  0.29107470356E+02 -0.35373199089E+03  0.35517858138E+03  0.00000000000E+00 0. -1.
<mgrwt>
<rscale>  1 0.30000000E+03</rscale>
<asrwt>0</asrwt>
<pdfrwt beam="1">  1       21 0.40893507E-02 0.30000000E+03</pdfrwt>
<pdfrwt beam="2">0</pdfrwt>
<totfact> 0.40510895E+04</totfact>
</mgrwt>
</event>
<event>
 6    1  0.1198667E-001  0.3000000E+03  0.7818608E-02  0.1093470E+00
         21   -1    0    0  501  502  0.00000000000E+00  0.00000000000E+00  0.29428279341E+01  0.29428279341E+01  0.00000000000E+00 0. -1.
         13   -1    0    0    0    0 -0.00000000000E+00 -0.00000000000E+00 -0.10000000000E+04  0.10000000000E+04  0.00000000000E+00 0.  1.
    9000005    2    1    2  501    0 -0.27498374101E+02  0.27088285583E+02 -0.85065299868E+03  0.85153570202E+03  0.35484997659E+01 0.  0.
         13    1    3    3    0    0 -0.17040906516E+01  0.11915557484E+01 -0.32315431145E+02  0.32382260887E+02  0.00000000000E+00 0.  1.
          1    1    3    3  501    0 -0.25794283449E+02  0.25896729835E+02 -0.81833756753E+03  0.81915344113E+03  0.00000000000E+00 0.  1.
         -3    1    1    2    0  502  0.27498374101E+02 -0.27088285583E+02 -0.14640417339E+03  0.15140712592E+03  0.00000000000E+00 0. -1.
<mgrwt>
<rscale>  1 0.30000000E+03</rscale>
<asrwt>0</asrwt>
<pdfrwt beam="1">  1       21 0.10701215E-01 0.30000000E+03</pdfrwt>
<pdfrwt beam="2">0</pdfrwt>
<totfact> 0.76199396E+03</totfact>
</mgrwt>
</event>
<event>
 6    1  0.1198667E-001  0.3000000E+03  0.7818608E-02  0.1093470E+00
         21   -1    0    0  501  502  0.00000000000E+00  0.00000000000E+00  0.19568700511E+01  0.19568700511E+01  0.00000000000E+00 0. -1.
         13   -1    0    0    0    0 -0.00000000000E+00 -0.00000000000E+00 -0.10000000000E+04  0.10000000000E+04  0.00000000000E+00 0.  1.
    9000005    2    1    2  501    0  0.34469429717E+02  0.27139923958E+02 -0.43850665111E+03  0.44070310551E+03  0.25351692422E+01 0.  0.
         13    1    3    3    0    0  0.14796205629E+02  0.10278567160E+02 -0.18617644977E+03  0.18704610954E+03  0.00000000000E+00 0.  1.
          1    1    3    3  501    0  0.19673224088E+02  0.16861356798E+02 -0.25233020134E+03  0.25365699597E+03  0.00000000000E+00 0.  1.
         -1    1    1    2    0  502 -0.34469429717E+02 -0.27139923958E+02 -0.55953647884E+03  0.56125376454E+03  0.00000000000E+00 0. -1.
<mgrwt>
<rscale>  1 0.30000000E+03</rscale>
<asrwt>0</asrwt>
<pdfrwt beam="1">  1       21 0.71159061E-02 0.30000000E+03</pdfrwt>
<pdfrwt beam="2">0</pdfrwt>
<totfact> 0.15680356E+04</totfact>
</mgrwt>
</event>
<event>
 6    1  0.1198667E-001  0.3000000E+03  0.7818608E-02  0.1093470E+00
         21   -1    0    0  501  502  0.00000000000E+00  0.00000000000E+00  0.16544573498E+01  0.16544573498E+01  0.00000000000E+00 0. -1.
         13   -1    0    0    0    0 -0.00000000000E+00 -0.00000000000E+00 -0.10000000000E+04  0.10000000000E+04  0.00000000000E+00 0.  1.
    9000005    2    1    2  501    0  0.45342572212E+01  0.33034208666E+02 -0.78360565680E+03  0.78434123409E+03  0.64441978698E+01 0.  0.
         13    1    3    3    0    0  0.57383719595E+01  0.19090656025E+02 -0.44374764123E+03  0.44419517237E+03  0.00000000000E+00 0.  1.
          1    1    3    3  501    0 -0.12041147383E+01  0.13943552641E+02 -0.33985801557E+03  0.34014606171E+03  0.00000000000E+00 0.  1.
         -1    1    1    2    0  502 -0.45342572212E+01 -0.33034208666E+02 -0.21473988585E+03  0.21731322326E+03  0.00000000000E+00 0. -1.
<mgrwt>
<rscale>  1 0.30000000E+03</rscale>
<asrwt>0</asrwt>
<pdfrwt beam="1">  1       21 0.60162212E-02 0.30000000E+03</pdfrwt>
<pdfrwt beam="2">0</pdfrwt>
<totfact> 0.20973771E+04</totfact>
</mgrwt>
</event>
<event>
 6    1  0.1198667E-001  0.3000000E+03  0.7818608E-02  0.1093470E+00
         21   -1    0    0  501  502  0.00000000000E+00  0.00000000000E+00  0.34366153552E+01  0.34366153552E+01  0.00000000000E+00 0. -1.
         13   -1    0    0    0    0 -0.00000000000E+00 -0.00000000000E+00 -0.10000000000E+04  0.10000000000E+04  0.00000000000E+00 0.  1.
    9000005    2    1    2  501    0  0.28474028726E+02 -0.22465044606E+02 -0.89235358038E+03  0.89309563545E+03  0.30745903763E+01 0.  0.
         13    1    3    3    0    0  0.86659539205E+01 -0.84793566018E+01 -0.31390525471E+03  0.31413931174E+03  0.00000000000E+00 0.  1.
          3    1    3    3  501    0  0.19808074806E+02 -0.13985688004E+02 -0.57844832567E+03  0.57895632371E+03  0.00000000000E+00 0.  1.
         -3    1    1    2    0  502 -0.28474028726E+02  0.22465044606E+02 -0.10420980427E+03  0.11034097991E+03  0.00000000000E+00 0. -1.
<mgrwt>
<rscale>  1 0.30000000E+03</rscale>
<asrwt>0</asrwt>
<pdfrwt beam="1">  1       21 0.12496809E-01 0.30000000E+03</pdfrwt>
<pdfrwt beam="2">0</pdfrwt>
<totfact> 0.57563700E+03</totfact>
</mgrwt>
</event>
<event>
 6    1  0.1198667E-001  0.3000000E+03  0.7818608E-02  0.1093470E+00
         21   -1    0    0  501  502  0.00000000000E+00  0.00000000000E+00  0.84261908504E+01  0.84261908504E+01  0.00000000000E+00 0. -1.
         13   -1    0    0    0    0 -0.00000000000E+00 -0.00000000000E+00 -0.10000000000E+04  0.10000000000E+04  0.00000000000E+00 0.  1.
    9000005    2    1    2  501    0  0.39078065551E+02  0.94107892175E+01 -0.94906793628E+03  0.94992484566E+03  0.34068403933E+01 0.  0.
         13    1    3    3    0    0  0.11670332046E+02  0.26518347956E+01 -0.32045251026E+03  0.32067591149E+03  0.00000000000E+00 0.  1.
          3    1    3    3  501    0  0.27407733505E+02  0.67589544219E+01 -0.62861542603E+03  0.62924893418E+03  0.00000000000E+00 0.  1.
         -3    1    1    2    0  502 -0.39078065551E+02 -0.94107892175E+01 -0.42505872866E+02  0.58501345190E+02  0.00000000000E+00 0. -1.
<mgrwt>
<rscale>  1 0.30000000E+03</rscale>
<asrwt>0</asrwt>
<pdfrwt beam="1">  1       21 0.30640759E-01 0.30000000E+03</pdfrwt>
<pdfrwt beam="2">0</pdfrwt>
<totfact> 0.10422016E+03</totfact>
</mgrwt>
</event>
<event>
 6    1  0.1198667E-001  0.3000000E+03  0.7818608E-02  0.1093470E+00
         21   -1    0    0  501  502  0.00000000000E+00  0.00000000000E+00  0.16351332744E+01  0.16351332744E+01  0.00000000000E+00 0. -1.
         13   -1    0    0    0    0 -0.00000000000E+00 -0.00000000000E+00 -0.10000000000E+04  0.10000000000E+04  0.00000000000E+00 0.  1.
    9000005    2    1    2  501    0 -0.19120369520E+02 -0.24919499112E+02 -0.81416093615E+03  0.81477246176E+03  0.30926559356E+01 0.  0.
         13    1    3    3    0    0 -0.13420244806E+02 -0.15215965242E+02 -0.50996959530E+03  0.51037301721E+03  0.00000000000E+00 0.  1.
          1    1    3    3  501    0 -0.57001247135E+01 -0.97035338702E+01 -0.30419134086E+03  0.30439944455E+03  0.00000000000E+00 0.  1.
         -1    1    1    2    0  502  0.19120369520E+02  0.24919499112E+02 -0.18420393057E+03  0.18686267151E+03  0.00000000000E+00 0. -1.
<mgrwt>
<rscale>  1 0.30000000E+03</rscale>
<asrwt>0</asrwt>
<pdfrwt beam="1">  1       21 0.59459517E-02 0.30000000E+03</pdfrwt>
<pdfrwt beam="2">0</pdfrwt>
<totfact> 0.21403031E+04</totfact>
</mgrwt>
</event>
<event>
 6    1  0.1198667E-001  0.3000000E+03  0.7818608E-02  0.1093470E+00
         21   -1    0    0  501  502  0.00000000000E+00  0.00000000000E+00  0.12524470516E+01  0.12524470516E+01  0.00000000000E+00 0. -1.
         13   -1    0    0    0    0 -0.00000000000E+00 -0.00000000000E+00 -0.10000000000E+04  0.10000000000E+04  0.00000000000E+00 0.  1.
    9000005    2    1    2  501    0  0.27049777003E+02 -0.16006199693E+02 -0.72075449750E+03  0.72148821106E+03  0.83847577279E+01 0.  0.
         13    1    3    3    0    0  0.13792334532E+02 -0.10169685142E+02 -0.30455488010E+03  0.30503659778E+03  0.00000000000E+00 0.  1.
          1    1    3    3  501    0  0.13257442471E+02 -0.58365145516E+01 -0.41619961740E+03  0.41645161328E+03  0.00000000000E+00 0.  1.
         -1    1    1    2    0  502 -0.27049777003E+02  0.16006199693E+02 -0.27799305545E+03  0.27976423600E+03  0.00000000000E+00 0. -1.
<mgrwt>
<rscale>  1 0.30000000E+03</rscale>
<asrwt>0</asrwt>
<pdfrwt beam="1">  1       21 0.45543625E-02 0.30000000E+03</pdfrwt>
<pdfrwt beam="2">0</pdfrwt>
<totfact> 0.33762817E+04</totfact>
</mgrwt>
</event>
<event>
 6    1  0.1198667E-001  0.3000000E+03  0.7818608E-02  0.1093470E+00
         21   -1    0    0  501  502  0.00000000000E+00  0.00000000000E+00  0.11077839962E+01  0.11077839962E+01  0.00000000000E+00 0. -1.
         13   -1    0    0    0    0 -0.00000000000E+00 -0.00000000000E+00 -0.10000000000E+04  0.10000000000E+04  0.00000000000E+00 0.  1.
    9000005    2    1    2  501    0  0.13938294655E+02  0.28590931325E+02 -0.64421031824E+03  0.64500251022E+03  0.30962311765E+01 0.  0.
         13    1    3    3    0    0  0.28889556425E+01  0.74934230466E+01 -0.18691437164E+03  0.18708682417E+03  0.00000000000E+00 0.  1.
          1    1    3    3  501    0  0.11049339013E+02  0.21097508279E+02 -0.45729594660E+03  0.45791568605E+03  0.00000000000E+00 0.  1.
         -3    1    1    2    0  502 -0.13938294655E+02 -0.28590931325E+02 -0.35468189776E+03  0.35610527378E+03  0.00000000000E+00 0. -1.
<mgrwt>
<rscale>  1 0.30000000E+03</rscale>
<asrwt>0</asrwt>
<pdfrwt beam="1">  1       21 0.40283139E-02 0.30000000E+03</pdfrwt>
<pdfrwt beam="2">0</pdfrwt>
<totfact> 0.41550735E+04</totfact>
</mgrwt>
</event>
<event>
 6    1  0.1198667E-001  0.3000000E+03  0.7818608E-02  0.1093470E+00
         21   -1    0    0  501  502  0.00000000000E+00  0.00000000000E+00  0.34916009151E+01  0.34916009151E+01  0.00000000000E+00 0. -1.
         13   -1    0    0    0    0 -0.00000000000E+00 -0.00000000000E+00 -0.10000000000E+04  0.10000000000E+04  0.00000000000E+00 0.  1.
    9000005    2    1    2  501    0  0.42242071581E+02 -0.19145690519E+02 -0.18869596084E+03  0.19434891544E+03  0.37927849857E+01 0.  0.
         13    1    3    3    0    0  0.15497561452E+02 -0.72211397447E+01 -0.62116336065E+02  0.64426380283E+02  0.00000000000E+00 0.  1.
          1    1    3    3  501    0  0.26744510129E+02 -0.11924550775E+02 -0.12657962478E+03  0.12992253516E+03  0.00000000000E+00 0.  1.
         -3    1    1    2    0  502 -0.42242071581E+02  0.19145690519E+02 -0.80781243824E+03  0.80914268547E+03  0.00000000000E+00 0. -1.
<mgrwt>
<rscale>  1 0.30000000E+03</rscale>
<asrwt>0</asrwt>
<pdfrwt beam="1">  1       21 0.12696757E-01 0.30000000E+03</pdfrwt>
<pdfrwt beam="2">0</pdfrwt>
<totfact> 0.55922509E+03</totfact>
</mgrwt>
</event>
<event>
 6    1  0.1198667E-001  0.3000000E+03  0.7818608E-02  0.1093470E+00
         21   -1    0    0  501  502  0.00000000000E+00  0.00000000000E+00  0.20674922991E+01  0.20674922991E+01  0.00000000000E+00 0. -1.
         13   -1    0    0    0    0 -0.00000000000E+00 -0.00000000000E+00 -0.10000000000E+04  0.10000000000E+04  0.00000000000E+00 0.  1.
    9000005    2    1    2  501    0  0.14545213212E+02 -0.36147081035E+02 -0.75645845002E+03  0.75747007771E+03  0.36547657252E+01 0.  0.
         13    1    3    3    0    0  0.58789108604E+01 -0.15162609836E+02 -0.28158717658E+03  0.28205638504E+03  0.00000000000E+00 0.  1.
          3    1    3    3  501    0  0.86663023518E+01 -0.20984471199E+02 -0.47487127345E+03  0.47541369266E+03  0.00000000000E+00 0.  1.
         -1    1    1    2    0  502 -0.14545213212E+02  0.36147081035E+02 -0.24147405768E+03  0.24459741459E+03  0.00000000000E+00 0. -1.
<mgrwt>
<rscale>  1 0.30000000E+03</rscale>
<asrwt>0</asrwt>
<pdfrwt beam="1">  1       21 0.75181697E-02 0.30000000E+03</pdfrwt>
<pdfrwt beam="2">0</pdfrwt>
<totfact> 0.14243986E+04</totfact>
</mgrwt>
</event>
<event>
 6    1  0.1198667E-001  0.3000000E+03  0.7818608E-02  0.1093470E+00
         21   -1    0    0  501  502  0.00000000000E+00  0.00000000000E+00  0.39454908234E+01  0.39454908234E+01  0.00000000000E+00 0. -1.
         13   -1    0    0    0    0 -0.00000000000E+00 -0.00000000000E+00 -0.10000000000E+04  0.10000000000E+04  0.00000000000E+00 0.  1.
    9000005    2    1    2  501    0 -0.24553060560E+02 -0.41397447940E+02 -0.82042994506E+03  0.82184499934E+03  0.27030914431E+01 0.  0.
         13    1    3    3    0    0 -0.22488500100E+02 -0.38305786241E+02 -0.76792975308E+03  0.76921334593E+03  0.00000000000E+00 0.  1.
          1    1    3    3  501    0 -0.20645604603E+01 -0.30916616992E+01 -0.52500191982E+02  0.52631653405E+02  0.00000000000E+00 0.  1.
         -1    1    1    2    0  502  0.24553060560E+02  0.41397447940E+02 -0.17562456412E+03  0.18210049149E+03  0.00000000000E+00 0. -1.
<mgrwt>
<rscale>  1 0.30000000E+03</rscale>
<asrwt>0</asrwt>
<pdfrwt beam="1">  1       21 0.14347270E-01 0.30000000E+03</pdfrwt>
<pdfrwt beam="2">0</pdfrwt>
<totfact> 0.44705669E+03</totfact>
</mgrwt>
</event>
<event>
 6    1  0.1198667E-001  0.3000000E+03  0.7818608E-02  0.1093470E+00
         21   -1    0    0  501  502  0.00000000000E+00  0.00000000000E+00  0.11352314460E+01  0.11352314460E+01  0.00000000000E+00 0. -1.
         13   -1    0    0    0    0 -0.00000000000E+00 -0.00000000000E+00 -0.10000000000E+04  0.10000000000E+04  0.00000000000E+00 0.  1.
    9000005    2    1    2  501    0  0.25253890438E+02  0.18726178499E+02 -0.67754353875E+03  0.67827959580E+03  0.30877885233E+01 0.  0.
         13    1    3    3    0    0  0.56902087895E+01  0.55221581545E+01 -0.18894761153E+03  0.18911391437E+03  0.00000000000E+00 0.  1.
          3    1    3    3  501    0  0.19563681649E+02  0.13204020344E+02 -0.48859592722E+03  0.48916568143E+03  0.00000000000E+00 0.  1.
         -1    1    1    2    0  502 -0.25253890438E+02 -0.18726178499E+02 -0.32132122980E+03  0.32285563564E+03  0.00000000000E+00 0. -1.
<mgrwt>
<rscale>  1 0.30000000E+03</rscale>
<asrwt>0</asrwt>
<pdfrwt beam="1">  1       21 0.41281231E-02 0.30000000E+03</pdfrwt>
<pdfrwt beam="2">0</pdfrwt>
<totfact> 0.39871293E+04</totfact>
</mgrwt>
</event>
<event>
 6    1  0.1198667E-001  0.3000000E+03  0.7818608E-02  0.1093470E+00
         21   -1    0    0  501  502  0.00000000000E+00  0.00000000000E+00  0.10170564524E+01  0.10170564524E+01  0.00000000000E+00 0. -1.
         13   -1    0    0    0    0 -0.00000000000E+00 -0.00000000000E+00 -0.10000000000E+04  0.10000000000E+04  0.00000000000E+00 0.  1.
    9000005    2    1    2  501    0  0.10906314019E+02 -0.28024951045E+02 -0.66367833766E+03  0.66436660822E+03  0.31158739154E+01 0.  0.
         13    1    3    3    0    0  0.10336899211E+01 -0.48742129148E+01 -0.12917962613E+03  0.12927568323E+03  0.00000000000E+00 0.  1.
          1    1    3    3  501    0  0.98726240981E+01 -0.23150738130E+02 -0.53449871153E+03  0.53509092499E+03  0.00000000000E+00 0.  1.
         -1    1    1    2    0  502 -0.10906314019E+02  0.28024951045E+02 -0.33530460588E+03  0.33665044823E+03  0.00000000000E+00 0. -1.
<mgrwt>
<rscale>  1 0.30000000E+03</rscale>
<asrwt>0</asrwt>
<pdfrwt beam="1">  1       21 0.36983949E-02 0.30000000E+03</pdfrwt>
<pdfrwt beam="2">0</pdfrwt>
<totfact> 0.47970362E+04</totfact>
</mgrwt>
</event>
<event>
 6    1  0.1198667E-001  0.3000000E+03  0.7818608E-02  0.1093470E+00
         21   -1    0    0  501  502  0.00000000000E+00  0.00000000000E+00  0.34131806934E+01  0.34131806934E+01  0.00000000000E+00 0. -1.
         13   -1    0    0    0    0 -0.00000000000E+00 -0.00000000000E+00 -0.10000000000E+04  0.10000000000E+04  0.00000000000E+00 0.  1.
    9000005    2    1    2  501    0 -0.57483860329E+01 -0.35223929628E+02 -0.89537323240E+03  0.89609142458E+03  0.35842362432E+01 0.  0.
         13    1    3    3    0    0  0.13455393650E+00 -0.80013965423E+00 -0.11528159393E+02  0.11556677171E+02  0.00000000000E+00 0.  1.
          3    1    3    3  501    0 -0.58829399694E+01 -0.34423789974E+02 -0.88384507301E+03  0.88453474741E+03  0.00000000000E+00 0.  1.
         -1    1    1    2    0  502  0.57483860329E+01  0.35223929628E+02 -0.10121358690E+03  0.10732175611E+03  0.00000000000E+00 0. -1.
<mgrwt>
<rscale>  1 0.30000000E+03</rscale>
<asrwt>0</asrwt>
<pdfrwt beam="1">  1       21 0.12411592E-01 0.30000000E+03</pdfrwt>
<pdfrwt beam="2">0</pdfrwt>
<totfact> 0.58285425E+03</totfact>
</mgrwt>
</event>
<event>
 6    1  0.1198667E-001  0.3000000E+03  0.7818608E-02  0.1093470E+00
         21   -1    0    0  501  502  0.00000000000E+00  0.00000000000E+00  0.13815615647E+01  0.13815615647E+01  0.00000000000E+00 0. -1.
         13   -1    0    0    0    0 -0.00000000000E+00 -0.00000000000E+00 -0.10000000000E+04  0.10000000000E+04  0.00000000000E+00 0.  1.
    9000005    2    1    2  501    0  0.26335996846E+02  0.23589185699E+02 -0.65171869048E+03  0.65268474548E+03  0.31766425390E+01 0.  0.
         13    1    3    3    0    0  0.23083908071E+02  0.21331422538E+02 -0.59341157437E+03  0.59424337859E+03  0.00000000000E+00 0.  1.
          1    1    3    3  501    0  0.32520887748E+01  0.22577631603E+01 -0.58307116104E+02  0.58441366892E+02  0.00000000000E+00 0.  1.
         -3    1    1    2    0  502 -0.26335996846E+02 -0.23589185699E+02 -0.34689974796E+03  0.34869681608E+03  0.00000000000E+00 0. -1.
<mgrwt>
<rscale>  1 0.30000000E+03</rscale>
<asrwt>0</asrwt>
<pdfrwt beam="1">  1       21 0.50238708E-02 0.30000000E+03</pdfrwt>
<pdfrwt beam="2">0</pdfrwt>
<totfact> 0.28571702E+04</totfact>
</mgrwt>
</event>
<event>
 6    1  0.1198667E-001  0.3000000E+03  0.7818608E-02  0.1093470E+00
         21   -1    0    0  501  502  0.00000000000E+00  0.00000000000E+00  0.14740490339E+01  0.14740490339E+01  0.00000000000E+00 0. -1.
         13   -1    0    0    0    0 -0.00000000000E+00 -0.00000000000E+00 -0.10000000000E+04  0.10000000000E+04  0.00000000000E+00 0.  1.
    9000005    2    1    2  501    0 -0.14774852389E+02  0.31344961019E+02 -0.71381346184E+03  0.71466051325E+03  0.30311797123E+01 0.  0.
         13    1    3    3    0    0 -0.77347180620E+01  0.12954562665E+02 -0.31572859730E+03  0.31608890159E+03  0.00000000000E+00 0.  1.
          1    1    3    3  501    0 -0.70401343267E+01  0.18390398354E+02 -0.39808486454E+03  0.39857161166E+03  0.00000000000E+00 0.  1.
         -1    1    1    2    0  502  0.14774852389E+02 -0.31344961019E+02 -0.28471248913E+03  0.28681353579E+03  0.00000000000E+00 0. -1.
<mgrwt>
<rscale>  1 0.30000000E+03</rscale>
<asrwt>0</asrwt>
<pdfrwt beam="1">  1       21 0.53601896E-02 0.30000000E+03</pdfrwt>
<pdfrwt beam="2">0</pdfrwt>
<totfact> 0.25577872E+04</totfact>
</mgrwt>
</event>
<event>
 6    1  0.1198667E-001  0.3000000E+03  0.7818608E-02  0.1093470E+00
         21   -1    0    0  501  502  0.00000000000E+00  0.00000000000E+00  0.17531009702E+02  0.17531009702E+02  0.00000000000E+00 0. -1.
         13   -1    0    0    0    0 -0.00000000000E+00 -0.00000000000E+00 -0.10000000000E+04  0.10000000000E+04  0.00000000000E+00 0.  1.
    9000005    2    1    2  501    0 -0.32123837674E+02 -0.40009072541E+02 -0.96023490557E+03  0.96161123363E+03  0.35247601834E+01 0.  0.
         13    1    3    3    0    0 -0.19311470587E+02 -0.21898545011E+02 -0.56626506552E+03  0.56701728686E+03  0.00000000000E+00 0.  1.
          3    1    3    3  501    0 -0.12812367087E+02 -0.18110527530E+02 -0.39396984005E+03  0.39459394677E+03  0.00000000000E+00 0.  1.
         -1    1    1    2    0  502  0.32123837674E+02  0.40009072541E+02 -0.22234084731E+02  0.55919776075E+02  0.00000000000E+00 0. -1.
<mgrwt>
<rscale>  1 0.30000000E+03</rscale>
<asrwt>0</asrwt>
<pdfrwt beam="1">  1       21 0.63749261E-01 0.30000000E+03</pdfrwt>
<pdfrwt beam="2">0</pdfrwt>
<totfact> 0.21892607E+02</totfact>
</mgrwt>
</event>
<event>
 6    1  0.1198667E-001  0.3000000E+03  0.7818608E-02  0.1093470E+00
         21   -1    0    0  501  502  0.00000000000E+00  0.00000000000E+00  0.29763772505E+01  0.29763772505E+01  0.00000000000E+00 0. -1.
         13   -1    0    0    0    0 -0.00000000000E+00 -0.00000000000E+00 -0.10000000000E+04  0.10000000000E+04  0.00000000000E+00 0.  1.
    9000005    2    1    2  501    0 -0.26789719576E+02  0.14471393638E+02 -0.91447863557E+03  0.91499464495E+03  0.41127945573E+01 0.  0.
         13    1    3    3    0    0 -0.42445512140E+00 -0.21059044549E+00 -0.81662446964E+01  0.81799793966E+01  0.00000000000E+00 0.  1.
          1    1    3    3  501    0 -0.26365264454E+02  0.14681984084E+02 -0.90631239087E+03  0.90681466556E+03  0.00000000000E+00 0.  1.
         -3    1    1    2    0  502  0.26789719576E+02 -0.14471393638E+02 -0.82544987183E+02  0.87981732296E+02  0.00000000000E+00 0. -1.
<mgrwt>
<rscale>  1 0.30000000E+03</rscale>
<asrwt>0</asrwt>
<pdfrwt beam="1">  1       21 0.10823213E-01 0.30000000E+03</pdfrwt>
<pdfrwt beam="2">0</pdfrwt>
<totfact> 0.74663805E+03</totfact>
</mgrwt>
</event>
<event>
 6    1  0.1198667E-001  0.3000000E+03  0.7818608E-02  0.1093470E+00
         21   -1    0    0  501  502  0.00000000000E+00  0.00000000000E+00  0.46464652791E+01  0.46464652791E+01  0.00000000000E+00 0. -1.
         13   -1    0    0    0    0 -0.00000000000E+00 -0.00000000000E+00 -0.10000000000E+04  0.10000000000E+04  0.00000000000E+00 0.  1.
    9000005    2    1    2  501    0  0.19043610159E+02  0.60701632125E+02 -0.67739472891E+03  0.68038553729E+03  0.36760524689E+01 0.  0.
         13    1    3    3    0    0  0.12199104332E+02  0.34143897235E+02 -0.39778063730E+03  0.39942966749E+03  0.00000000000E+00 0.  1.
          3    1    3    3  501    0  0.68445058263E+01  0.26557734890E+02 -0.27961409162E+03  0.28095586979E+03  0.00000000000E+00 0.  1.
         -3    1    1    2    0  502 -0.19043610159E+02 -0.60701632125E+02 -0.31795880581E+03  0.32426092799E+03  0.00000000000E+00 0. -1.
<mgrwt>
<rscale>  1 0.30000000E+03</rscale>
<asrwt>0</asrwt>
<pdfrwt beam="1">  1       21 0.16896273E-01 0.30000000E+03</pdfrwt>
<pdfrwt beam="2">0</pdfrwt>
<totfact> 0.32991126E+03</totfact>
</mgrwt>
</event>
<event>
 6    1  0.1198667E-001  0.3000000E+03  0.7818608E-02  0.1093470E+00
         21   -1    0    0  501  502  0.00000000000E+00  0.00000000000E+00  0.13557241760E+01  0.13557241760E+01  0.00000000000E+00 0. -1.
         13   -1    0    0    0    0 -0.00000000000E+00 -0.00000000000E+00 -0.10000000000E+04  0.10000000000E+04  0.00000000000E+00 0.  1.
    9000005    2    1    2  501    0 -0.13851555547E+02  0.28917238711E+02 -0.73871579255E+03  0.73945710123E+03  0.82286150524E+01 0.  0.
         13    1    3    3    0    0 -0.73358545975E+01  0.70149504390E+01 -0.20134787460E+03  0.20160354882E+03  0.00000000000E+00 0.  1.
          1    1    3    3  501    0 -0.65157009494E+01  0.21902288272E+02 -0.53736791795E+03  0.53785355241E+03  0.00000000000E+00 0.  1.
         -3    1    1    2    0  502  0.13851555547E+02 -0.28917238711E+02 -0.25992848327E+03  0.26189862295E+03  0.00000000000E+00 0. -1.
<mgrwt>
<rscale>  1 0.30000000E+03</rscale>
<asrwt>0</asrwt>
<pdfrwt beam="1">  1       21 0.49299165E-02 0.30000000E+03</pdfrwt>
<pdfrwt beam="2">0</pdfrwt>
<totfact> 0.29505966E+04</totfact>
</mgrwt>
</event>
<event>
 6    1  0.1198667E-001  0.3000000E+03  0.7818608E-02  0.1093470E+00
         21   -1    0    0  501  502  0.00000000000E+00  0.00000000000E+00  0.20634272588E+01  0.20634272588E+01  0.00000000000E+00 0. -1.
         13   -1    0    0    0    0 -0.00000000000E+00 -0.00000000000E+00 -0.10000000000E+04  0.10000000000E+04  0.00000000000E+00 0.  1.
    9000005    2    1    2  501    0 -0.67283193391E+01 -0.40289295134E+02 -0.71748631416E+03  0.71865410292E+03  0.29344598271E+01 0.  0.
         13    1    3    3    0    0 -0.68106689002E+01 -0.36741448916E+02 -0.64619249753E+03  0.64727201634E+03  0.00000000000E+00 0.  1.
          1    1    3    3  501    0  0.82349561078E-01 -0.35478462176E+01 -0.71293816635E+02  0.71382086581E+02  0.00000000000E+00 0.  1.
         -1    1    1    2    0  502  0.67283193391E+01  0.40289295134E+02 -0.28045025858E+03  0.28340932434E+03  0.00000000000E+00 0. -1.
<mgrwt>
<rscale>  1 0.30000000E+03</rscale>
<asrwt>0</asrwt>
<pdfrwt beam="1">  1       21 0.75033877E-02 0.30000000E+03</pdfrwt>
<pdfrwt beam="2">0</pdfrwt>
<totfact> 0.14293157E+04</totfact>
</mgrwt>
</event>
<event>
 6    1  0.1198667E-001  0.3000000E+03  0.7818608E-02  0.1093470E+00
         21   -1    0    0  501  502  0.00000000000E+00  0.00000000000E+00  0.98596320999E+00  0.98596320999E+00  0.00000000000E+00 0. -1.
         13   -1    0    0    0    0 -0.00000000000E+00 -0.00000000000E+00 -0.10000000000E+04  0.10000000000E+04  0.00000000000E+00 0.  1.
    9000005    2    1    2  501    0  0.24086145833E+02  0.19072262025E+02 -0.59875695647E+03  0.59955150536E+03  0.28672396270E+01 0.  0.
         13    1    3    3    0    0  0.45546084801E+01  0.34216409137E+01 -0.13413987164E+03  0.13426078075E+03  0.00000000000E+00 0.  1.
          3    1    3    3  501    0  0.19531537353E+02  0.15650621112E+02 -0.46461708483E+03  0.46529072461E+03  0.00000000000E+00 0.  1.
         -1    1    1    2    0  502 -0.24086145833E+02 -0.19072262025E+02 -0.40025708032E+03  0.40143445785E+03  0.00000000000E+00 0. -1.
<mgrwt>
<rscale>  1 0.30000000E+03</rscale>
<asrwt>0</asrwt>
<pdfrwt beam="1">  1       21 0.35853283E-02 0.30000000E+03</pdfrwt>
<pdfrwt beam="2">0</pdfrwt>
<totfact> 0.50535189E+04</totfact>
</mgrwt>
</event>
<event>
 6    1  0.1198667E-001  0.3000000E+03  0.7818608E-02  0.1093470E+00
         21   -1    0    0  501  502  0.00000000000E+00  0.00000000000E+00  0.59231657697E+01  0.59231657697E+01  0.00000000000E+00 0. -1.
         13   -1    0    0    0    0 -0.00000000000E+00 -0.00000000000E+00 -0.10000000000E+04  0.10000000000E+04  0.00000000000E+00 0.  1.
    9000005    2    1    2  501    0 -0.68856901694E+02  0.35628240843E+01 -0.72002273835E+03  0.72332873182E+03  0.42123532582E+01 0.  0.
         13    1    3    3    0    0 -0.24695167677E+02 -0.54026997987E+00 -0.24838905713E+03  0.24961423617E+03  0.00000000000E+00 0.  1.
          1    1    3    3  501    0 -0.44161734017E+02  0.41030940642E+01 -0.47163368121E+03  0.47371449565E+03  0.00000000000E+00 0.  1.
         -3    1    1    2    0  502  0.68856901694E+02 -0.35628240843E+01 -0.27405409588E+03  0.28259443395E+03  0.00000000000E+00 0. -1.
<mgrwt>
<rscale>  1 0.30000000E+03</rscale>
<asrwt>0</asrwt>
<pdfrwt beam="1">  1       21 0.21538830E-01 0.30000000E+03</pdfrwt>
<pdfrwt beam="2">0</pdfrwt>
<totfact> 0.20817099E+03</totfact>
</mgrwt>
</event>
<event>
 6    1  0.1198667E-001  0.3000000E+03  0.7818608E-02  0.1093470E+00
         21   -1    0    0  501  502  0.00000000000E+00  0.00000000000E+00  0.65329975025E+01  0.65329975025E+01  0.00000000000E+00 0. -1.
         13   -1    0    0    0    0 -0.00000000000E+00 -0.00000000000E+00 -0.10000000000E+04  0.10000000000E+04  0.00000000000E+00 0.  1.
    9000005    2    1    2  501    0  0.11863635230E+02 -0.37247468770E+02 -0.93718816234E+03  0.93800980712E+03  0.35534287130E+01 0.  0.
         13    1    3    3    0    0  0.68626479560E+01 -0.25681414223E+02 -0.60926203704E+03  0.60984166859E+03  0.00000000000E+00 0.  1.
          3    1    3    3  501    0  0.50009872737E+01 -0.11566054547E+02 -0.32792612530E+03  0.32816813853E+03  0.00000000000E+00 0.  1.
         -3    1    1    2    0  502 -0.11863635230E+02  0.37247468770E+02 -0.56278840162E+02  0.68523190385E+02  0.00000000000E+00 0. -1.
<mgrwt>
<rscale>  1 0.30000000E+03</rscale>
<asrwt>0</asrwt>
<pdfrwt beam="1">  1       21 0.23756405E-01 0.30000000E+03</pdfrwt>
<pdfrwt beam="2">0</pdfrwt>
<totfact> 0.17227392E+03</totfact>
</mgrwt>
</event>
<event>
 6    1  0.1198667E-001  0.3000000E+03  0.7818608E-02  0.1093470E+00
         21   -1    0    0  501  502  0.00000000000E+00  0.00000000000E+00  0.32610009130E+01  0.32610009130E+01  0.00000000000E+00 0. -1.
         13   -1    0    0    0    0 -0.00000000000E+00 -0.00000000000E+00 -0.10000000000E+04  0.10000000000E+04  0.00000000000E+00 0.  1.
    9000005    2    1    2  501    0  0.41565890097E+02 -0.15414769409E+02 -0.81428200029E+03  0.81549546961E+03  0.35137761298E+01 0.  0.
         13    1    3    3    0    0  0.16106096819E+02 -0.76842016828E+01 -0.31547403251E+03  0.31597835131E+03  0.00000000000E+00 0.  1.
          3    1    3    3  501    0  0.25459793277E+02 -0.77305677266E+01 -0.49880796778E+03  0.49951711830E+03  0.00000000000E+00 0.  1.
         -3    1    1    2    0  502 -0.41565890097E+02  0.15414769409E+02 -0.18245699880E+03  0.18776553130E+03  0.00000000000E+00 0. -1.
<mgrwt>
<rscale>  1 0.30000000E+03</rscale>
<asrwt>0</asrwt>
<pdfrwt beam="1">  1       21 0.11858210E-01 0.30000000E+03</pdfrwt>
<pdfrwt beam="2">0</pdfrwt>
<totfact> 0.63321664E+03</totfact>
</mgrwt>
</event>
<event>
 6    1  0.1198667E-001  0.3000000E+03  0.7818608E-02  0.1093470E+00
         21   -1    0    0  501  502  0.00000000000E+00  0.00000000000E+00  0.11860530088E+01  0.11860530088E+01  0.00000000000E+00 0. -1.
         13   -1    0    0    0    0 -0.00000000000E+00 -0.00000000000E+00 -0.10000000000E+04  0.10000000000E+04  0.00000000000E+00 0.  1.
    9000005    2    1    2  501    0 -0.33213022810E+02 -0.58667481033E+01 -0.40090220785E+03  0.40232382225E+03  0.20866431041E+01 0.  0.
         13    1    3    3    0    0 -0.17742580135E+02 -0.41878092505E+01 -0.21711514118E+03  0.21787914408E+03  0.00000000000E+00 0.  1.
          1    1    3    3  501    0 -0.15470442675E+02 -0.16789388529E+01 -0.18378706667E+03  0.18444467818E+03  0.00000000000E+00 0.  1.
         -3    1    1    2    0  502  0.33213022810E+02  0.58667481033E+01 -0.59791173914E+03  0.59886223075E+03  0.00000000000E+00 0. -1.
<mgrwt>
<rscale>  1 0.30000000E+03</rscale>
<asrwt>0</asrwt>
<pdfrwt beam="1">  1       21 0.43129291E-02 0.30000000E+03</pdfrwt>
<pdfrwt beam="2">0</pdfrwt>
<totfact> 0.37028237E+04</totfact>
</mgrwt>
</event>
<event>
 6    1  0.1198667E-001  0.3000000E+03  0.7818608E-02  0.1093470E+00
         21   -1    0    0  501  502  0.00000000000E+00  0.00000000000E+00  0.17745102917E+01  0.17745102917E+01  0.00000000000E+00 0. -1.
         13   -1    0    0    0    0 -0.00000000000E+00 -0.00000000000E+00 -0.10000000000E+04  0.10000000000E+04  0.00000000000E+00 0.  1.
    9000005    2    1    2  501    0 -0.31711466733E+02 -0.16152830595E+02 -0.76653551247E+03  0.76736722241E+03  0.30382718062E+01 0.  0.
         13    1    3    3    0    0 -0.43025633246E+01 -0.27313933068E+01 -0.13170669023E+03  0.13180525336E+03  0.00000000000E+00 0.  1.
          3    1    3    3  501    0 -0.27408903408E+02 -0.13421437288E+02 -0.63482882224E+03  0.63556196905E+03  0.00000000000E+00 0.  1.
         -1    1    1    2    0  502  0.31711466733E+02  0.16152830595E+02 -0.23168997724E+03  0.23440728788E+03  0.00000000000E+00 0. -1.
<mgrwt>
<rscale>  1 0.30000000E+03</rscale>
<asrwt>0</asrwt>
<pdfrwt beam="1">  1       21 0.64527783E-02 0.30000000E+03</pdfrwt>
<pdfrwt beam="2">0</pdfrwt>
<totfact> 0.18583120E+04</totfact>
</mgrwt>
</event>
<event>
 6    1  0.1198667E-001  0.3000000E+03  0.7818608E-02  0.1093470E+00
         21   -1    0    0  501  502  0.00000000000E+00  0.00000000000E+00  0.23752533868E+01  0.23752533868E+01  0.00000000000E+00 0. -1.
         13   -1    0    0    0    0 -0.00000000000E+00 -0.00000000000E+00 -0.10000000000E+04  0.10000000000E+04  0.00000000000E+00 0.  1.
    9000005    2    1    2  501    0 -0.36761985049E+02 -0.21147734681E+02 -0.74519366912E+03  0.74640627263E+03  0.31700304790E+01 0.  0.
         13    1    3    3    0    0 -0.35137042956E+02 -0.20616124446E+02 -0.70475031506E+03  0.70592679716E+03  0.00000000000E+00 0.  1.
          3    1    3    3  501    0 -0.16249420933E+01 -0.53161023529E+00 -0.40443354064E+02  0.40479475468E+02  0.00000000000E+00 0.  1.
         -1    1    1    2    0  502  0.36761985049E+02  0.21147734681E+02 -0.25243107749E+03  0.25596898076E+03  0.00000000000E+00 0. -1.
<mgrwt>
<rscale>  1 0.30000000E+03</rscale>
<asrwt>0</asrwt>
<pdfrwt beam="1">  1       21 0.86373033E-02 0.30000000E+03</pdfrwt>
<pdfrwt beam="2">0</pdfrwt>
<totfact> 0.11161191E+04</totfact>
</mgrwt>
</event>
<event>
 6    1  0.1198667E-001  0.3000000E+03  0.7818608E-02  0.1093470E+00
         21   -1    0    0  501  502  0.00000000000E+00  0.00000000000E+00  0.20843216800E+01  0.20843216800E+01  0.00000000000E+00 0. -1.
         13   -1    0    0    0    0 -0.00000000000E+00 -0.00000000000E+00 -0.10000000000E+04  0.10000000000E+04  0.00000000000E+00 0.  1.
    9000005    2    1    2  501    0  0.44128882096E+02  0.11414865200E+02 -0.48296600468E+03  0.48512124393E+03  0.29668579080E+01 0.  0.
         13    1    3    3    0    0  0.44839586601E+01  0.20555193427E+01 -0.55468616841E+02  0.55687507570E+02  0.00000000000E+00 0.  1.
          1    1    3    3  501    0  0.39644923435E+02  0.93593458569E+01 -0.42749738784E+03  0.42943373636E+03  0.00000000000E+00 0.  1.
         -1    1    1    2    0  502 -0.44128882096E+02 -0.11414865200E+02 -0.51494967364E+03  0.51696307775E+03  0.00000000000E+00 0. -1.
<mgrwt>
<rscale>  1 0.30000000E+03</rscale>
<asrwt>0</asrwt>
<pdfrwt beam="1">  1       21 0.75793675E-02 0.30000000E+03</pdfrwt>
<pdfrwt beam="2">0</pdfrwt>
<totfact> 0.14043174E+04</totfact>
</mgrwt>
</event>
<event>
 6    1  0.1198667E-001  0.3000000E+03  0.7818608E-02  0.1093470E+00
         21   -1    0    0  501  502  0.00000000000E+00  0.00000000000E+00  0.28445213915E+01  0.28445213915E+01  0.00000000000E+00 0. -1.
         13   -1    0    0    0    0 -0.00000000000E+00 -0.00000000000E+00 -0.10000000000E+04  0.10000000000E+04  0.00000000000E+00 0.  1.
    9000005    2    1    2  501    0  0.46254921985E+02  0.62047574145E+01 -0.74125295461E+03  0.74272124560E+03  0.94293023112E+00 0.  0.
         13    1    3    3    0    0  0.99959940555E+01  0.16014221392E+01 -0.16544650291E+03  0.16575593436E+03  0.00000000000E+00 0.  1.
          3    1    3    3  501    0  0.36258927929E+02  0.46033352753E+01 -0.57580645170E+03  0.57696531124E+03  0.00000000000E+00 0.  1.
         -1    1    1    2    0  502 -0.46254921985E+02 -0.62047574145E+01 -0.25590252400E+03  0.26012327580E+03  0.00000000000E+00 0. -1.
<mgrwt>
<rscale>  1 0.30000000E+03</rscale>
<asrwt>0</asrwt>
<pdfrwt beam="1">  1       21 0.10343736E-01 0.30000000E+03</pdfrwt>
<pdfrwt beam="2">0</pdfrwt>
<totfact> 0.80985291E+03</totfact>
</mgrwt>
</event>
<event>
 6    1  0.1198667E-001  0.3000000E+03  0.7818608E-02  0.1093470E+00
         21   -1    0    0  501  502  0.00000000000E+00  0.00000000000E+00  0.14948559061E+01  0.14948559061E+01  0.00000000000E+00 0. -1.
         13   -1    0    0    0    0 -0.00000000000E+00 -0.00000000000E+00 -0.10000000000E+04  0.10000000000E+04  0.00000000000E+00 0.  1.
    9000005    2    1    2  501    0 -0.81788666233E+01  0.33426881096E+02 -0.72658693496E+03  0.72740771156E+03  0.30256467780E+01 0.  0.
         13    1    3    3    0    0 -0.28358749632E+00  0.55551038979E+01 -0.12510870229E+03  0.12523229212E+03  0.00000000000E+00 0.  1.
          1    1    3    3  501    0 -0.78952791270E+01  0.27871777198E+02 -0.60147823267E+03  0.60217541944E+03  0.00000000000E+00 0.  1.
         -1    1    1    2    0  502  0.81788666233E+01 -0.33426881096E+02 -0.27191820913E+03  0.27408714435E+03  0.00000000000E+00 0. -1.
<mgrwt>
<rscale>  1 0.30000000E+03</rscale>
<asrwt>0</asrwt>
<pdfrwt beam="1">  1       21 0.54358511E-02 0.30000000E+03</pdfrwt>
<pdfrwt beam="2">0</pdfrwt>
<totfact> 0.24971256E+04</totfact>
</mgrwt>
</event>
<event>
 6    1  0.1198667E-001  0.3000000E+03  0.7818608E-02  0.1093470E+00
         21   -1    0    0  501  502  0.00000000000E+00  0.00000000000E+00  0.42783747995E+01  0.42783747995E+01  0.00000000000E+00 0. -1.
         13   -1    0    0    0    0 -0.00000000000E+00 -0.00000000000E+00 -0.10000000000E+04  0.10000000000E+04  0.00000000000E+00 0.  1.
    9000005    2    1    2  501    0  0.27119207890E+02 -0.41391648471E+02 -0.17000909386E+03  0.17708438038E+03  0.26581530941E+01 0.  0.
         13    1    3    3    0    0  0.97281758532E+01 -0.12680416468E+02 -0.56143449857E+02  0.58373943922E+02  0.00000000000E+00 0.  1.
          1    1    3    3  501    0  0.17391032037E+02 -0.28711232003E+02 -0.11386564401E+03  0.11871043645E+03  0.00000000000E+00 0.  1.
         -1    1    1    2    0  502 -0.27119207890E+02  0.41391648471E+02 -0.82571253134E+03  0.82719399442E+03  0.00000000000E+00 0. -1.
<mgrwt>
<rscale>  1 0.30000000E+03</rscale>
<asrwt>0</asrwt>
<pdfrwt beam="1">  1       21 0.15557759E-01 0.30000000E+03</pdfrwt>
<pdfrwt beam="2">0</pdfrwt>
<totfact> 0.38483613E+03</totfact>
</mgrwt>
</event>
<event>
 6    1  0.1198667E-001  0.3000000E+03  0.7818608E-02  0.1093470E+00
         21   -1    0    0  501  502  0.00000000000E+00  0.00000000000E+00  0.20599525816E+01  0.20599525816E+01  0.00000000000E+00 0. -1.
         13   -1    0    0    0    0 -0.00000000000E+00 -0.00000000000E+00 -0.10000000000E+04  0.10000000000E+04  0.00000000000E+00 0.  1.
    9000005    2    1    2  501    0 -0.42196762698E+02  0.13117267621E+02 -0.61102268086E+03  0.61262744490E+03  0.33226843875E+01 0.  0.
         13    1    3    3    0    0 -0.27336703126E+02  0.71302916723E+01 -0.37705707895E+03  0.37811397380E+03  0.00000000000E+00 0.  1.
          3    1    3    3  501    0 -0.14860059572E+02  0.59869759484E+01 -0.23396560191E+03  0.23451347110E+03  0.00000000000E+00 0.  1.
         -1    1    1    2    0  502  0.42196762698E+02 -0.13117267621E+02 -0.38691736656E+03  0.38943250768E+03  0.00000000000E+00 0. -1.
<mgrwt>
<rscale>  1 0.30000000E+03</rscale>
<asrwt>0</asrwt>
<pdfrwt beam="1">  1       21 0.74907525E-02 0.30000000E+03</pdfrwt>
<pdfrwt beam="2">0</pdfrwt>
<totfact> 0.14335396E+04</totfact>
</mgrwt>
</event>
<event>
 6    1  0.1198667E-001  0.3000000E+03  0.7818608E-02  0.1093470E+00
         21   -1    0    0  501  502  0.00000000000E+00  0.00000000000E+00  0.10401103293E+02  0.10401103293E+02  0.00000000000E+00 0. -1.
         13   -1    0    0    0    0 -0.00000000000E+00 -0.00000000000E+00 -0.10000000000E+04  0.10000000000E+04  0.00000000000E+00 0.  1.
    9000005    2    1    2  501    0  0.28387471239E+01 -0.30788928840E+02 -0.97621590209E+03  0.97670954398E+03  0.28335791783E+01 0.  0.
         13    1    3    3    0    0  0.31406729137E+01 -0.19544741847E+02 -0.61371726754E+03  0.61403643641E+03  0.00000000000E+00 0.  1.
          1    1    3    3  501    0 -0.30192578979E+00 -0.11244186993E+02 -0.36249863456E+03  0.36267310757E+03  0.00000000000E+00 0.  1.
         -3    1    1    2    0  502 -0.28387471239E+01  0.30788928840E+02 -0.13382994613E+02  0.33691559316E+02  0.00000000000E+00 0. -1.
<mgrwt>
<rscale>  1 0.30000000E+03</rscale>
<asrwt>0</asrwt>
<pdfrwt beam="1">  1       21 0.37822274E-01 0.30000000E+03</pdfrwt>
<pdfrwt beam="2">0</pdfrwt>
<totfact> 0.67850930E+02</totfact>
</mgrwt>
</event>
<event>
 6    1  0.1198667E-001  0.3000000E+03  0.7818608E-02  0.1093470E+00
         21   -1    0    0  501  502  0.00000000000E+00  0.00000000000E+00  0.20658068679E+01  0.20658068679E+01  0.00000000000E+00 0. -1.
         13   -1    0    0    0    0 -0.00000000000E+00 -0.00000000000E+00 -0.10000000000E+04  0.10000000000E+04  0.00000000000E+00 0.  1.
    9000005    2    1    2  501    0 -0.34245502842E+02 -0.18449208000E+02 -0.75751544267E+03  0.75852052707E+03  0.32582747146E+01 0.  0.
         13    1    3    3    0    0 -0.12613261328E+01 -0.69625107336E+00 -0.42699917280E+02  0.42724216142E+02  0.00000000000E+00 0.  1.
          3    1    3    3  501    0 -0.32984176709E+02 -0.17752956927E+02 -0.71481552539E+03  0.71579631092E+03  0.00000000000E+00 0.  1.
         -1    1    1    2    0  502  0.34245502842E+02  0.18449208000E+02 -0.24041875046E+03  0.24354527980E+03  0.00000000000E+00 0. -1.
<mgrwt>
<rscale>  1 0.30000000E+03</rscale>
<asrwt>0</asrwt>
<pdfrwt beam="1">  1       21 0.75120408E-02 0.30000000E+03</pdfrwt>
<pdfrwt beam="2">0</pdfrwt>
<totfact> 0.14264342E+04</totfact>
</mgrwt>
</event>
<event>
 6    1  0.1198667E-001  0.3000000E+03  0.7818608E-02  0.1093470E+00
         21   -1    0    0  501  502  0.00000000000E+00  0.00000000000E+00  0.38056509189E+01  0.38056509189E+01  0.00000000000E+00 0. -1.
         13   -1    0    0    0    0 -0.00000000000E+00 -0.00000000000E+00 -0.10000000000E+04  0.10000000000E+04  0.00000000000E+00 0.  1.
    9000005    2    1    2  501    0  0.48754410816E+02  0.28958272511E+02 -0.69520956626E+03  0.69752569138E+03  0.31898283585E+01 0.  0.
         13    1    3    3    0    0  0.24446197120E+02  0.12898585426E+02 -0.32896556710E+03  0.33012472552E+03  0.00000000000E+00 0.  1.
          1    1    3    3  501    0  0.24308213697E+02  0.16059687085E+02 -0.36624399916E+03  0.36740096587E+03  0.00000000000E+00 0.  1.
         -1    1    1    2    0  502 -0.48754410816E+02 -0.28958272511E+02 -0.30098478283E+03  0.30627995954E+03  0.00000000000E+00 0. -1.
<mgrwt>
<rscale>  1 0.30000000E+03</rscale>
<asrwt>0</asrwt>
<pdfrwt beam="1">  1       21 0.13838760E-01 0.30000000E+03</pdfrwt>
<pdfrwt beam="2">0</pdfrwt>
<totfact> 0.47772263E+03</totfact>
</mgrwt>
</event>
<event>
 6    1  0.1198667E-001  0.3000000E+03  0.7818608E-02  0.1093470E+00
         21   -1    0    0  501  502  0.00000000000E+00  0.00000000000E+00  0.47154335386E+01  0.47154335386E+01  0.00000000000E+00 0. -1.
         13   -1    0    0    0    0 -0.00000000000E+00 -0.00000000000E+00 -0.10000000000E+04  0.10000000000E+04  0.00000000000E+00 0.  1.
    9000005    2    1    2  501    0  0.56512225093E+02 -0.14438702732E+02 -0.76246504289E+03  0.76470077091E+03  0.34956654439E+01 0.  0.
         13    1    3    3    0    0  0.39965452393E+02 -0.11841462894E+02 -0.54438608726E+03  0.54597955056E+03  0.00000000000E+00 0.  1.
          3    1    3    3  501    0  0.16546772700E+02 -0.25972398381E+01 -0.21807895563E+03  0.21872122035E+03  0.00000000000E+00 0.  1.
         -3    1    1    2    0  502 -0.56512225093E+02  0.14438702732E+02 -0.23281952357E+03  0.24001466263E+03  0.00000000000E+00 0. -1.
<mgrwt>
<rscale>  1 0.30000000E+03</rscale>
<asrwt>0</asrwt>
<pdfrwt beam="1">  1       21 0.17147067E-01 0.30000000E+03</pdfrwt>
<pdfrwt beam="2">0</pdfrwt>
<totfact> 0.32093043E+03</totfact>
</mgrwt>
</event>
<event>
 6    1  0.1198667E-001  0.3000000E+03  0.7818608E-02  0.1093470E+00
         21   -1    0    0  501  502  0.00000000000E+00  0.00000000000E+00  0.35980032316E+01  0.35980032316E+01  0.00000000000E+00 0. -1.
         13   -1    0    0    0    0 -0.00000000000E+00 -0.00000000000E+00 -0.10000000000E+04  0.10000000000E+04  0.00000000000E+00 0.  1.
    9000005    2    1    2  501    0 -0.44416504061E+02  0.39524196789E+02 -0.56179697167E+03  0.56494493325E+03  0.34572041566E+01 0.  0.
         13    1    3    3    0    0 -0.23484383481E+02  0.22709966483E+02 -0.29826249174E+03  0.30004628447E+03  0.00000000000E+00 0.  1.
          1    1    3    3  501    0 -0.20932120580E+02  0.16814230306E+02 -0.26353447993E+03  0.26489864878E+03  0.00000000000E+00 0.  1.
         -1    1    1    2    0  502  0.44416504061E+02 -0.39524196789E+02 -0.43460502510E+03  0.43865306998E+03  0.00000000000E+00 0. -1.
<mgrwt>
<rscale>  1 0.30000000E+03</rscale>
<asrwt>0</asrwt>
<pdfrwt beam="1">  1       21 0.13083676E-01 0.30000000E+03</pdfrwt>
<pdfrwt beam="2">0</pdfrwt>
<totfact> 0.52941165E+03</totfact>
</mgrwt>
</event>
<event>
 6    1  0.1198667E-001  0.3000000E+03  0.7818608E-02  0.1093470E+00
         21   -1    0    0  501  502  0.00000000000E+00  0.00000000000E+00  0.14680188718E+01  0.14680188718E+01  0.00000000000E+00 0. -1.
         13   -1    0    0    0    0 -0.00000000000E+00 -0.00000000000E+00 -0.10000000000E+04  0.10000000000E+04  0.00000000000E+00 0.  1.
    9000005    2    1    2  501    0 -0.25024844046E+02 -0.19957336765E+02 -0.77376002028E+03  0.77442843533E+03  0.32084820360E+01 0.  0.
         13    1    3    3    0    0 -0.44223659467E+01 -0.46312549425E+01 -0.17854447162E+03  0.17865926841E+03  0.00000000000E+00 0.  1.
          1    1    3    3  501    0 -0.20602478100E+02 -0.15326081822E+02 -0.59521554866E+03  0.59576916692E+03  0.00000000000E+00 0.  1.
         -1    1    1    2    0  502  0.25024844046E+02  0.19957336765E+02 -0.22477196085E+03  0.22703958354E+03  0.00000000000E+00 0. -1.
<mgrwt>
<rscale>  1 0.30000000E+03</rscale>
<asrwt>0</asrwt>
<pdfrwt beam="1">  1       21 0.53382617E-02 0.30000000E+03</pdfrwt>
<pdfrwt beam="2">0</pdfrwt>
<totfact> 0.25757939E+04</totfact>
</mgrwt>
</event>
<event>
 6    1  0.1198667E-001  0.3000000E+03  0.7818608E-02  0.1093470E+00
         21   -1    0    0  501  502  0.00000000000E+00  0.00000000000E+00  0.12399031321E+01  0.12399031321E+01  0.00000000000E+00 0. -1.
         13   -1    0    0    0    0 -0.00000000000E+00 -0.00000000000E+00 -0.10000000000E+04  0.10000000000E+04  0.00000000000E+00 0.  1.
    9000005    2    1    2  501    0  0.30157414190E+02 -0.11280930288E+02 -0.69641263306E+03  0.69718280670E+03  0.60482605467E+01 0.  0.
         13    1    3    3    0    0  0.14074067070E+02 -0.70160275446E+01 -0.39265174619E+03  0.39296653521E+03  0.00000000000E+00 0.  1.
          1    1    3    3  501    0  0.16083347120E+02 -0.42649027437E+01 -0.30376088687E+03  0.30421627149E+03  0.00000000000E+00 0.  1.
         -1    1    1    2    0  502 -0.30157414190E+02  0.11280930288E+02 -0.30234746381E+03  0.30405709643E+03  0.00000000000E+00 0. -1.
<mgrwt>
<rscale>  1 0.30000000E+03</rscale>
<asrwt>0</asrwt>
<pdfrwt beam="1">  1       21 0.45087482E-02 0.30000000E+03</pdfrwt>
<pdfrwt beam="2">0</pdfrwt>
<totfact> 0.34344805E+04</totfact>
</mgrwt>
</event>
<event>
 6    1  0.1198667E-001  0.3000000E+03  0.7818608E-02  0.1093470E+00
         21   -1    0    0  501  502  0.00000000000E+00  0.00000000000E+00  0.18847846539E+01  0.18847846539E+01  0.00000000000E+00 0. -1.
         13   -1    0    0    0    0 -0.00000000000E+00 -0.00000000000E+00 -0.10000000000E+04  0.10000000000E+04  0.00000000000E+00 0.  1.
    9000005    2    1    2  501    0  0.28387292091E+02  0.31636171551E+02 -0.59858864234E+03  0.60010354040E+03  0.30349217178E+01 0.  0.
         13    1    3    3    0    0  0.11459346542E+02  0.14047335942E+02 -0.23784671487E+03  0.23853658848E+03  0.00000000000E+00 0.  1.
          1    1    3    3  501    0  0.16927945549E+02  0.17588835609E+02 -0.36074192747E+03  0.36156695191E+03  0.00000000000E+00 0.  1.
         -1    1    1    2    0  502 -0.28387292091E+02 -0.31636171551E+02 -0.39952657300E+03  0.40178124426E+03  0.00000000000E+00 0. -1.
<mgrwt>
<rscale>  1 0.30000000E+03</rscale>
<asrwt>0</asrwt>
<pdfrwt beam="1">  1       21 0.68537768E-02 0.30000000E+03</pdfrwt>
<pdfrwt beam="2">0</pdfrwt>
<totfact> 0.16738593E+04</totfact>
</mgrwt>
</event>
<event>
 6    1  0.1198667E-001  0.3000000E+03  0.7818608E-02  0.1093470E+00
         21   -1    0    0  501  502  0.00000000000E+00  0.00000000000E+00  0.68337495256E+01  0.68337495256E+01  0.00000000000E+00 0. -1.
         13   -1    0    0    0    0 -0.00000000000E+00 -0.00000000000E+00 -0.10000000000E+04  0.10000000000E+04  0.00000000000E+00 0.  1.
    9000005    2    1    2  501    0  0.24983588777E+02 -0.44121985993E+02 -0.89412483507E+03  0.89556771103E+03  0.33726848822E+01 0.  0.
         13    1    3    3    0    0  0.67980478496E+01 -0.10459103640E+02 -0.24236152549E+03  0.24268233422E+03  0.00000000000E+00 0.  1.
          1    1    3    3  501    0  0.18185540928E+02 -0.33662882353E+02 -0.65176330958E+03  0.65288537682E+03  0.00000000000E+00 0.  1.
         -1    1    1    2    0  502 -0.24983588777E+02  0.44121985993E+02 -0.99041415406E+02  0.11126603849E+03  0.00000000000E+00 0. -1.
<mgrwt>
<rscale>  1 0.30000000E+03</rscale>
<asrwt>0</asrwt>
<pdfrwt beam="1">  1       21 0.24850051E-01 0.30000000E+03</pdfrwt>
<pdfrwt beam="2">0</pdfrwt>
<totfact> 0.15780619E+03</totfact>
</mgrwt>
</event>
<event>
 6    1  0.1198667E-001  0.3000000E+03  0.7818608E-02  0.1093470E+00
         21   -1    0    0  501  502  0.00000000000E+00  0.00000000000E+00  0.17986159954E+02  0.17986159954E+02  0.00000000000E+00 0. -1.
         13   -1    0    0    0    0 -0.00000000000E+00 -0.00000000000E+00 -0.10000000000E+04  0.10000000000E+04  0.00000000000E+00 0.  1.
    9000005    2    1    2  501    0  0.87962148426E+02 -0.26431658431E+02 -0.86186663390E+03  0.86675348072E+03  0.33955252060E+01 0.  0.
         13    1    3    3    0    0  0.60867437340E+02 -0.16647101893E+02 -0.59106880904E+03  0.59442771465E+03  0.00000000000E+00 0.  1.
          3    1    3    3  501    0  0.27094711086E+02 -0.97845565381E+01 -0.27079782486E+03  0.27232576607E+03  0.00000000000E+00 0.  1.
         -1    1    1    2    0  502 -0.87962148426E+02  0.26431658431E+02 -0.12014720615E+03  0.15123267924E+03  0.00000000000E+00 0. -1.
<mgrwt>
<rscale>  1 0.30000000E+03</rscale>
<asrwt>0</asrwt>
<pdfrwt beam="1">  1       21 0.65404356E-01 0.30000000E+03</pdfrwt>
<pdfrwt beam="2">0</pdfrwt>
<totfact> 0.20646526E+02</totfact>
</mgrwt>
</event>
<event>
 6    1  0.1198667E-001  0.3000000E+03  0.7818608E-02  0.1093470E+00
         21   -1    0    0  501  502  0.00000000000E+00  0.00000000000E+00  0.21609691995E+01  0.21609691995E+01  0.00000000000E+00 0. -1.
         13   -1    0    0    0    0 -0.00000000000E+00 -0.00000000000E+00 -0.10000000000E+04  0.10000000000E+04  0.00000000000E+00 0.  1.
    9000005    2    1    2  501    0 -0.45076634759E+02  0.92638081267E+01 -0.56618693045E+03  0.56806275810E+03  0.31521082599E+01 0.  0.
         13    1    3    3    0    0 -0.79677432078E+01  0.26939453985E+01 -0.11141508193E+03  0.11173210262E+03  0.00000000000E+00 0.  1.
          1    1    3    3  501    0 -0.37108891551E+02  0.65698627282E+01 -0.45477184852E+03  0.45633065548E+03  0.00000000000E+00 0.  1.
         -1    1    1    2    0  502  0.45076634759E+02 -0.92638081267E+01 -0.43165210035E+03  0.43409821110E+03  0.00000000000E+00 0. -1.
<mgrwt>
<rscale>  1 0.30000000E+03</rscale>
<asrwt>0</asrwt>
<pdfrwt beam="1">  1       21 0.78580864E-02 0.30000000E+03</pdfrwt>
<pdfrwt beam="2">0</pdfrwt>
<totfact> 0.13181626E+04</totfact>
</mgrwt>
</event>
<event>
 6    1  0.1198667E-001  0.3000000E+03  0.7818608E-02  0.1093470E+00
         21   -1    0    0  501  502  0.00000000000E+00  0.00000000000E+00  0.12071852530E+01  0.12071852530E+01  0.00000000000E+00 0. -1.
         13   -1    0    0    0    0 -0.00000000000E+00 -0.00000000000E+00 -0.10000000000E+04  0.10000000000E+04  0.00000000000E+00 0.  1.
    9000005    2    1    2  501    0 -0.24297005765E+02 -0.24491995511E+02 -0.55000297676E+03  0.55109328743E+03  0.32147584505E+01 0.  0.
         13    1    3    3    0    0 -0.93340225228E+01 -0.10208180419E+02 -0.24421353866E+03  0.24460495373E+03  0.00000000000E+00 0.  1.
          3    1    3    3  501    0 -0.14962983242E+02 -0.14283815093E+02 -0.30578943810E+03  0.30648833370E+03  0.00000000000E+00 0.  1.
         -3    1    1    2    0  502  0.24297005765E+02  0.24491995511E+02 -0.44878983799E+03  0.45011389782E+03  0.00000000000E+00 0. -1.
<mgrwt>
<rscale>  1 0.30000000E+03</rscale>
<asrwt>0</asrwt>
<pdfrwt beam="1">  1       21 0.43897738E-02 0.30000000E+03</pdfrwt>
<pdfrwt beam="2">0</pdfrwt>
<totfact> 0.35937765E+04</totfact>
</mgrwt>
</event>
<event>
 6    1  0.1198667E-001  0.3000000E+03  0.7818608E-02  0.1093470E+00
         21   -1    0    0  501  502  0.00000000000E+00  0.00000000000E+00  0.16602702996E+02  0.16602702996E+02  0.00000000000E+00 0. -1.
         13   -1    0    0    0    0 -0.00000000000E+00 -0.00000000000E+00 -0.10000000000E+04  0.10000000000E+04  0.00000000000E+00 0.  1.
    9000005    2    1    2  501    0 -0.97872662507E+02  0.76494930404E+02 -0.35728813987E+03  0.37828991988E+03  0.42327468609E+01 0.  0.
         13    1    3    3    0    0 -0.57858896204E+02  0.46617391059E+02 -0.21900450611E+03  0.23126566264E+03  0.00000000000E+00 0.  1.
          1    1    3    3  501    0 -0.40013766302E+02  0.29877539345E+02 -0.13828363376E+03  0.14702425724E+03  0.00000000000E+00 0.  1.
         -1    1    1    2    0  502  0.97872662507E+02 -0.76494930404E+02 -0.62610915713E+03  0.63831278312E+03  0.00000000000E+00 0. -1.
<mgrwt>
<rscale>  1 0.30000000E+03</rscale>
<asrwt>0</asrwt>
<pdfrwt beam="1">  1       21 0.60373593E-01 0.30000000E+03</pdfrwt>
<pdfrwt beam="2">0</pdfrwt>
<totfact> 0.24762954E+02</totfact>
</mgrwt>
</event>
<event>
 6    1  0.1198667E-001  0.3000000E+03  0.7818608E-02  0.1093470E+00
         21   -1    0    0  501  502  0.00000000000E+00  0.00000000000E+00  0.21840124883E+01  0.21840124883E+01  0.00000000000E+00 0. -1.
         13   -1    0    0    0    0 -0.00000000000E+00 -0.00000000000E+00 -0.10000000000E+04  0.10000000000E+04  0.00000000000E+00 0.  1.
    9000005    2    1    2  501    0  0.43874760816E+02 -0.96650030586E+00 -0.67016823745E+03  0.67161030379E+03  0.30008191686E+01 0.  0.
         13    1    3    3    0    0  0.61142171496E+01 -0.71883504006E+00 -0.81522549589E+02  0.81754672445E+02  0.00000000000E+00 0.  1.
          1    1    3    3  501    0  0.37760543667E+02 -0.24766526579E+00 -0.58864568786E+03  0.58985563135E+03  0.00000000000E+00 0.  1.
         -1    1    1    2    0  502 -0.43874760816E+02  0.96650030586E+00 -0.32764775006E+03  0.33057370869E+03  0.00000000000E+00 0. -1.
<mgrwt>
<rscale>  1 0.30000000E+03</rscale>
<asrwt>0</asrwt>
<pdfrwt beam="1">  1       21 0.79418803E-02 0.30000000E+03</pdfrwt>
<pdfrwt beam="2">0</pdfrwt>
<totfact> 0.12938484E+04</totfact>
</mgrwt>
</event>
<event>
 6    1  0.1198667E-001  0.3000000E+03  0.7818608E-02  0.1093470E+00
         21   -1    0    0  501  502  0.00000000000E+00  0.00000000000E+00  0.22700315472E+01  0.22700315472E+01  0.00000000000E+00 0. -1.
         13   -1    0    0    0    0 -0.00000000000E+00 -0.00000000000E+00 -0.10000000000E+04  0.10000000000E+04  0.00000000000E+00 0.  1.
    9000005    2    1    2  501    0 -0.35258517161E+02  0.51486552293E+01 -0.83116319189E+03  0.83193458974E+03  0.36384558096E+01 0.  0.
         13    1    3    3    0    0 -0.42404756285E+01  0.11866529152E+01 -0.12978002382E+03  0.12985470481E+03  0.00000000000E+00 0.  1.
          1    1    3    3  501    0 -0.31018041532E+02  0.39620023141E+01 -0.70138316807E+03  0.70207988492E+03  0.00000000000E+00 0.  1.
         -3    1    1    2    0  502  0.35258517161E+02 -0.51486552293E+01 -0.16656677656E+03  0.17033544181E+03  0.00000000000E+00 0. -1.
<mgrwt>
<rscale>  1 0.30000000E+03</rscale>
<asrwt>0</asrwt>
<pdfrwt beam="1">  1       21 0.82546776E-02 0.30000000E+03</pdfrwt>
<pdfrwt beam="2">0</pdfrwt>
<totfact> 0.12089115E+04</totfact>
</mgrwt>
</event>
<event>
 6    1  0.1198667E-001  0.3000000E+03  0.7818608E-02  0.1093470E+00
         21   -1    0    0  501  502  0.00000000000E+00  0.00000000000E+00  0.14911815507E+01  0.14911815507E+01  0.00000000000E+00 0. -1.
         13   -1    0    0    0    0 -0.00000000000E+00 -0.00000000000E+00 -0.10000000000E+04  0.10000000000E+04  0.00000000000E+00 0.  1.
    9000005    2    1    2  501    0 -0.94485267654E+01  0.36597717198E+02 -0.40248686453E+03  0.40427192774E+03  0.33834718137E+01 0.  0.
         13    1    3    3    0    0 -0.61069021333E+01  0.20739601427E+02 -0.21379927438E+03  0.21488963458E+03  0.00000000000E+00 0.  1.
          3    1    3    3  501    0 -0.33416246322E+01  0.15858115770E+02 -0.18868759014E+03  0.18938229317E+03  0.00000000000E+00 0.  1.
         -3    1    1    2    0  502  0.94485267654E+01 -0.36597717198E+02 -0.59602195392E+03  0.59721925381E+03  0.00000000000E+00 0. -1.
<mgrwt>
<rscale>  1 0.30000000E+03</rscale>
<asrwt>0</asrwt>
<pdfrwt beam="1">  1       21 0.54224898E-02 0.30000000E+03</pdfrwt>
<pdfrwt beam="2">0</pdfrwt>
<totfact> 0.25076755E+04</totfact>
</mgrwt>
</event>
<event>
 6    1  0.1198667E-001  0.3000000E+03  0.7818608E-02  0.1093470E+00
         21   -1    0    0  501  502  0.00000000000E+00  0.00000000000E+00  0.17647231004E+01  0.17647231004E+01  0.00000000000E+00 0. -1.
         13   -1    0    0    0    0 -0.00000000000E+00 -0.00000000000E+00 -0.10000000000E+04  0.10000000000E+04  0.00000000000E+00 0.  1.
    9000005    2    1    2  501    0 -0.13451100549E+02 -0.39530428204E+02 -0.54762845848E+03  0.54922733054E+03  0.31851552403E+01 0.  0.
         13    1    3    3    0    0 -0.71714398681E+01 -0.18484752663E+02 -0.24212419728E+03  0.24293464664E+03  0.00000000000E+00 0.  1.
          1    1    3    3  501    0 -0.62796606812E+01 -0.21045675541E+02 -0.30550426121E+03  0.30629268390E+03  0.00000000000E+00 0.  1.
         -1    1    1    2    0  502  0.13451100549E+02  0.39530428204E+02 -0.45060681842E+03  0.45253739256E+03  0.00000000000E+00 0. -1.
<mgrwt>
<rscale>  1 0.30000000E+03</rscale>
<asrwt>0</asrwt>
<pdfrwt beam="1">  1       21 0.64171884E-02 0.30000000E+03</pdfrwt>
<pdfrwt beam="2">0</pdfrwt>
<totfact> 0.18761819E+04</totfact>
</mgrwt>
</event>
<event>
 6    1  0.1198667E-001  0.3000000E+03  0.7818608E-02  0.1093470E+00
         21   -1    0    0  501  502  0.00000000000E+00  0.00000000000E+00  0.84452445360E+01  0.84452445360E+01  0.00000000000E+00 0. -1.
         13   -1    0    0    0    0 -0.00000000000E+00 -0.00000000000E+00 -0.10000000000E+04  0.10000000000E+04  0.00000000000E+00 0.  1.
    9000005    2    1    2  501    0  0.23477772062E+02 -0.19651453491E+02 -0.97118153207E+03  0.97166952379E+03  0.32725844077E+01 0.  0.
         13    1    3    3    0    0  0.14481790554E+02 -0.13105181474E+02 -0.66116704451E+03  0.66145546244E+03  0.00000000000E+00 0.  1.
          3    1    3    3  501    0  0.89959815082E+01 -0.65462720172E+01 -0.31001448756E+03  0.31021406135E+03  0.00000000000E+00 0.  1.
         -1    1    1    2    0  502 -0.23477772062E+02  0.19651453491E+02 -0.20373223390E+02  0.36775720749E+02  0.00000000000E+00 0. -1.
<mgrwt>
<rscale>  1 0.30000000E+03</rscale>
<asrwt>0</asrwt>
<pdfrwt beam="1">  1       21 0.30710045E-01 0.30000000E+03</pdfrwt>
<pdfrwt beam="2">0</pdfrwt>
<totfact> 0.10374875E+03</totfact>
</mgrwt>
</event>
<event>
 6    1  0.1198667E-001  0.3000000E+03  0.7818608E-02  0.1093470E+00
         21   -1    0    0  501  502  0.00000000000E+00  0.00000000000E+00  0.24939458913E+01  0.24939458913E+01  0.00000000000E+00 0. -1.
         13   -1    0    0    0    0 -0.00000000000E+00 -0.00000000000E+00 -0.10000000000E+04  0.10000000000E+04  0.00000000000E+00 0.  1.
    9000005    2    1    2  501    0 -0.29106649681E+02  0.20393124055E+02 -0.85069948673E+03  0.85144678508E+03  0.29890686989E+01 0.  0.
         13    1    3    3    0    0 -0.25726565250E+02  0.17040140922E+02 -0.72143221162E+03  0.72209186294E+03  0.00000000000E+00 0.  1.
          3    1    3    3  501    0 -0.33800844311E+01  0.33529831331E+01 -0.12926727512E+03  0.12935492214E+03  0.00000000000E+00 0.  1.
         -3    1    1    2    0  502  0.29106649681E+02 -0.20393124055E+02 -0.14680656737E+03  0.15104716081E+03  0.00000000000E+00 0. -1.
<mgrwt>
<rscale>  1 0.30000000E+03</rscale>
<asrwt>0</asrwt>
<pdfrwt beam="1">  1       21 0.90689133E-02 0.30000000E+03</pdfrwt>
<pdfrwt beam="2">0</pdfrwt>
<totfact> 0.10238735E+04</totfact>
</mgrwt>
</event>
<event>
 6    1  0.1198667E-001  0.3000000E+03  0.7818608E-02  0.1093470E+00
         21   -1    0    0  501  502  0.00000000000E+00  0.00000000000E+00  0.19540155203E+02  0.19540155203E+02  0.00000000000E+00 0. -1.
         13   -1    0    0    0    0 -0.00000000000E+00 -0.00000000000E+00 -0.10000000000E+04  0.10000000000E+04  0.00000000000E+00 0.  1.
    9000005    2    1    2  501    0 -0.77591114745E+02  0.15932932654E+02 -0.91024481123E+03  0.91368936225E+03  0.28973924873E+01 0.  0.
         13    1    3    3    0    0 -0.48244155687E+02  0.11337520880E+02 -0.56968847945E+03  0.57184001395E+03  0.00000000000E+00 0.  1.
          1    1    3    3  501    0 -0.29346959057E+02  0.45954117741E+01 -0.34055633178E+03  0.34184934829E+03  0.00000000000E+00 0.  1.
         -3    1    1    2    0  502  0.77591114745E+02 -0.15932932654E+02 -0.70215033566E+02  0.10585079295E+03  0.00000000000E+00 0. -1.
<mgrwt>
<rscale>  1 0.30000000E+03</rscale>
<asrwt>0</asrwt>
<pdfrwt beam="1">  1       21 0.71055260E-01 0.30000000E+03</pdfrwt>
<pdfrwt beam="2">0</pdfrwt>
<totfact> 0.17035664E+02</totfact>
</mgrwt>
</event>
<event>
 6    1  0.1198667E-001  0.3000000E+03  0.7818608E-02  0.1093470E+00
         21   -1    0    0  501  502  0.00000000000E+00  0.00000000000E+00  0.76879700297E+01  0.76879700297E+01  0.00000000000E+00 0. -1.
         13   -1    0    0    0    0 -0.00000000000E+00 -0.00000000000E+00 -0.10000000000E+04  0.10000000000E+04  0.00000000000E+00 0.  1.
    9000005    2    1    2  501    0  0.59121731444E+01 -0.81603589266E+02 -0.67698417453E+03  0.68191848713E+03  0.33393042510E+01 0.  0.
         13    1    3    3    0    0  0.58386078169E+00 -0.83735513743E+01 -0.78348632182E+02  0.78796988653E+02  0.00000000000E+00 0.  1.
          1    1    3    3  501    0  0.53283123627E+01 -0.73230037891E+02 -0.59863554235E+03  0.60312149847E+03  0.00000000000E+00 0.  1.
         -1    1    1    2    0  502 -0.59121731444E+01  0.81603589266E+02 -0.31532785544E+03  0.32576948290E+03  0.00000000000E+00 0. -1.
<mgrwt>
<rscale>  1 0.30000000E+03</rscale>
<asrwt>0</asrwt>
<pdfrwt beam="1">  1       21 0.27956314E-01 0.30000000E+03</pdfrwt>
<pdfrwt beam="2">0</pdfrwt>
<totfact> 0.12512670E+03</totfact>
</mgrwt>
</event>
<event>
 6    1  0.1198667E-001  0.3000000E+03  0.7818608E-02  0.1093470E+00
         21   -1    0    0  501  502  0.00000000000E+00  0.00000000000E+00  0.61469695141E+01  0.61469695141E+01  0.00000000000E+00 0. -1.
         13   -1    0    0    0    0 -0.00000000000E+00 -0.00000000000E+00 -0.10000000000E+04  0.10000000000E+04  0.00000000000E+00 0.  1.
    9000005    2    1    2  501    0  0.35097532136E+02  0.11422923915E+02 -0.94073522140E+03  0.94146450207E+03  0.32143305283E+01 0.  0.
         13    1    3    3    0    0  0.89066494414E+01  0.39676005595E+01 -0.27390230947E+03  0.27407580227E+03  0.00000000000E+00 0.  1.
          3    1    3    3  501    0  0.26190882694E+02  0.74553233551E+01 -0.66683291193E+03  0.66738869980E+03  0.00000000000E+00 0.  1.
         -3    1    1    2    0  502 -0.35097532136E+02 -0.11422923915E+02 -0.53117809090E+02  0.64682467449E+02  0.00000000000E+00 0. -1.
<mgrwt>
<rscale>  1 0.30000000E+03</rscale>
<asrwt>0</asrwt>
<pdfrwt beam="1">  1       21 0.22352664E-01 0.30000000E+03</pdfrwt>
<pdfrwt beam="2">0</pdfrwt>
<totfact> 0.19382754E+03</totfact>
</mgrwt>
</event>
<event>
 6    1  0.1198667E-001  0.3000000E+03  0.7818608E-02  0.1093470E+00
         21   -1    0    0  501  502  0.00000000000E+00  0.00000000000E+00  0.25013659789E+01  0.25013659789E+01  0.00000000000E+00 0. -1.
         13   -1    0    0    0    0 -0.00000000000E+00 -0.00000000000E+00 -0.10000000000E+04  0.10000000000E+04  0.00000000000E+00 0.  1.
    9000005    2    1    2  501    0  0.11169843548E+02  0.34021370847E+02 -0.84808317571E+03  0.84885502447E+03  0.52498145347E+01 0.  0.
         13    1    3    3    0    0  0.82905490254E+01  0.27638187359E+02 -0.72354561648E+03  0.72412075080E+03  0.00000000000E+00 0.  1.
          3    1    3    3  501    0  0.28792945223E+01  0.63831834885E+01 -0.12453755923E+03  0.12473427367E+03  0.00000000000E+00 0.  1.
         -1    1    1    2    0  502 -0.11169843548E+02 -0.34021370847E+02 -0.14941545831E+03  0.15364634151E+03  0.00000000000E+00 0. -1.
<mgrwt>
<rscale>  1 0.30000000E+03</rscale>
<asrwt>0</asrwt>
<pdfrwt beam="1">  1       21 0.90958955E-02 0.30000000E+03</pdfrwt>
<pdfrwt beam="2">0</pdfrwt>
<totfact> 0.10184942E+04</totfact>
</mgrwt>
</event>
<event>
 6    1  0.1198667E-001  0.3000000E+03  0.7818608E-02  0.1093470E+00
         21   -1    0    0  501  502  0.00000000000E+00  0.00000000000E+00  0.11739894095E+01  0.11739894095E+01  0.00000000000E+00 0. -1.
         13   -1    0    0    0    0 -0.00000000000E+00 -0.00000000000E+00 -0.10000000000E+04  0.10000000000E+04  0.00000000000E+00 0.  1.
    9000005    2    1    2  501    0  0.32223689473E+02 -0.76378438250E-02 -0.66742529338E+03  0.66821032534E+03  0.31859737398E+01 0.  0.
         13    1    3    3    0    0  0.92970182253E+00  0.53958615655E+00 -0.24807384757E+02  0.24830663245E+02  0.00000000000E+00 0.  1.
          1    1    3    3  501    0  0.31293987651E+02 -0.54722400037E+00 -0.64261790862E+03  0.64337966210E+03  0.00000000000E+00 0.  1.
         -1    1    1    2    0  502 -0.32223689473E+02  0.76378438250E-02 -0.33140071721E+03  0.33296366407E+03  0.00000000000E+00 0. -1.
<mgrwt>
<rscale>  1 0.30000000E+03</rscale>
<asrwt>0</asrwt>
<pdfrwt beam="1">  1       21 0.42690614E-02 0.30000000E+03</pdfrwt>
<pdfrwt beam="2">0</pdfrwt>
<totfact> 0.37673921E+04</totfact>
</mgrwt>
</event>
<event>
 6    1  0.1198667E-001  0.3000000E+03  0.7818608E-02  0.1093470E+00
         21   -1    0    0  501  502  0.00000000000E+00  0.00000000000E+00  0.39240350986E+01  0.39240350986E+01  0.00000000000E+00 0. -1.
         13   -1    0    0    0    0 -0.00000000000E+00 -0.00000000000E+00 -0.10000000000E+04  0.10000000000E+04  0.00000000000E+00 0.  1.
    9000005    2    1    2  501    0  0.35184256293E+02 -0.30647456652E+02 -0.83277714009E+03  0.83408969030E+03  0.32631134826E+01 0.  0.
         13    1    3    3    0    0  0.19449625182E+02 -0.18919729470E+02 -0.49403850439E+03  0.49478307156E+03  0.00000000000E+00 0.  1.
          1    1    3    3  501    0  0.15734631111E+02 -0.11727727181E+02 -0.33873863570E+03  0.33930661874E+03  0.00000000000E+00 0.  1.
         -3    1    1    2    0  502 -0.35184256293E+02  0.30647456652E+02 -0.16329882481E+03  0.16983434480E+03  0.00000000000E+00 0. -1.
<mgrwt>
<rscale>  1 0.30000000E+03</rscale>
<asrwt>0</asrwt>
<pdfrwt beam="1">  1       21 0.14269249E-01 0.30000000E+03</pdfrwt>
<pdfrwt beam="2">0</pdfrwt>
<totfact> 0.45156782E+03</totfact>
</mgrwt>
</event>
<event>
 6    1  0.1198667E-001  0.3000000E+03  0.7818608E-02  0.1093470E+00
         21   -1    0    0  501  502  0.00000000000E+00  0.00000000000E+00  0.11783298485E+02  0.11783298485E+02  0.00000000000E+00 0. -1.
         13   -1    0    0    0    0 -0.00000000000E+00 -0.00000000000E+00 -0.10000000000E+04  0.10000000000E+04  0.00000000000E+00 0.  1.
    9000005    2    1    2  501    0  0.79607492509E+02 -0.72675041403E+02 -0.55307372786E+03  0.56348828175E+03  0.30790771299E+01 0.  0.
         13    1    3    3    0    0  0.26374903096E+02 -0.24483662116E+02 -0.17729295526E+03  0.18090847744E+03  0.00000000000E+00 0.  1.
          3    1    3    3  501    0  0.53232589412E+02 -0.48191379287E+02 -0.37578077260E+03  0.38257980431E+03  0.00000000000E+00 0.  1.
         -3    1    1    2    0  502 -0.79607492509E+02  0.72675041403E+02 -0.43514297365E+03  0.44829501673E+03  0.00000000000E+00 0. -1.
<mgrwt>
<rscale>  1 0.30000000E+03</rscale>
<asrwt>0</asrwt>
<pdfrwt beam="1">  1       21 0.42848448E-01 0.30000000E+03</pdfrwt>
<pdfrwt beam="2">0</pdfrwt>
<totfact> 0.52268960E+02</totfact>
</mgrwt>
</event>
<event>
 6    1  0.1198667E-001  0.3000000E+03  0.7818608E-02  0.1093470E+00
         21   -1    0    0  501  502  0.00000000000E+00  0.00000000000E+00  0.23128785569E+01  0.23128785569E+01  0.00000000000E+00 0. -1.
         13   -1    0    0    0    0 -0.00000000000E+00 -0.00000000000E+00 -0.10000000000E+04  0.10000000000E+04  0.00000000000E+00 0.  1.
    9000005    2    1    2  501    0 -0.43999208157E+02 -0.75041732481E+01 -0.68423707699E+03  0.68570085526E+03  0.36114302889E+01 0.  0.
         13    1    3    3    0    0 -0.40938677857E+02 -0.62996363251E+01 -0.64308658738E+03  0.64441913351E+03  0.00000000000E+00 0.  1.
          3    1    3    3  501    0 -0.30605302994E+01 -0.12045369230E+01 -0.41150489614E+02  0.41281721747E+02  0.00000000000E+00 0.  1.
         -3    1    1    2    0  502  0.43999208157E+02  0.75041732481E+01 -0.31345004445E+03  0.31661202330E+03  0.00000000000E+00 0. -1.
<mgrwt>
<rscale>  1 0.30000000E+03</rscale>
<asrwt>0</asrwt>
<pdfrwt beam="1">  1       21 0.84104852E-02 0.30000000E+03</pdfrwt>
<pdfrwt beam="2">0</pdfrwt>
<totfact> 0.11697533E+04</totfact>
</mgrwt>
</event>
<event>
 6    1  0.1198667E-001  0.3000000E+03  0.7818608E-02  0.1093470E+00
         21   -1    0    0  501  502  0.00000000000E+00  0.00000000000E+00  0.58841543169E+01  0.58841543169E+01  0.00000000000E+00 0. -1.
         13   -1    0    0    0    0 -0.00000000000E+00 -0.00000000000E+00 -0.10000000000E+04  0.10000000000E+04  0.00000000000E+00 0.  1.
    9000005    2    1    2  501    0  0.20257411394E+02 -0.24840022865E+02 -0.95396700114E+03  0.95450984975E+03  0.29367564221E+01 0.  0.
         13    1    3    3    0    0  0.95646907801E+01 -0.96280690244E+01 -0.41992656205E+03  0.42014580866E+03  0.00000000000E+00 0.  1.
          1    1    3    3  501    0  0.10692720614E+02 -0.15211953840E+02 -0.53404043909E+03  0.53436404108E+03  0.00000000000E+00 0.  1.
         -3    1    1    2    0  502 -0.20257411394E+02  0.24840022865E+02 -0.40148844539E+02  0.51374304571E+02  0.00000000000E+00 0. -1.
<mgrwt>
<rscale>  1 0.30000000E+03</rscale>
<asrwt>0</asrwt>
<pdfrwt beam="1">  1       21 0.21396970E-01 0.30000000E+03</pdfrwt>
<pdfrwt beam="2">0</pdfrwt>
<totfact> 0.21082999E+03</totfact>
</mgrwt>
</event>
<event>
 6    1  0.1198667E-001  0.3000000E+03  0.7818608E-02  0.1093470E+00
         21   -1    0    0  501  502  0.00000000000E+00  0.00000000000E+00  0.29959518429E+01  0.29959518429E+01  0.00000000000E+00 0. -1.
         13   -1    0    0    0    0 -0.00000000000E+00 -0.00000000000E+00 -0.10000000000E+04  0.10000000000E+04  0.00000000000E+00 0.  1.
    9000005    2    1    2  501    0 -0.99040782530E+01 -0.38777572873E+02 -0.84033186186E+03  0.84129262818E+03  0.37225329796E+01 0.  0.
         13    1    3    3    0    0 -0.38425911175E+01 -0.88841342963E+01 -0.21201059784E+03  0.21223144665E+03  0.00000000000E+00 0.  1.
          3    1    3    3  501    0 -0.60614871355E+01 -0.29893438576E+02 -0.62832126402E+03  0.62906118153E+03  0.00000000000E+00 0.  1.
         -3    1    1    2    0  502  0.99040782530E+01  0.38777572873E+02 -0.15667218629E+03  0.16170332366E+03  0.00000000000E+00 0. -1.
<mgrwt>
<rscale>  1 0.30000000E+03</rscale>
<asrwt>0</asrwt>
<pdfrwt beam="1">  1       21 0.10894393E-01 0.30000000E+03</pdfrwt>
<pdfrwt beam="2">0</pdfrwt>
<totfact> 0.73789367E+03</totfact>
</mgrwt>
</event>
<event>
 6    1  0.1198667E-001  0.3000000E+03  0.7818608E-02  0.1093470E+00
         21   -1    0    0  501  502  0.00000000000E+00  0.00000000000E+00  0.15613978506E+02  0.15613978506E+02  0.00000000000E+00 0. -1.
         13   -1    0    0    0    0 -0.00000000000E+00 -0.00000000000E+00 -0.10000000000E+04  0.10000000000E+04  0.00000000000E+00 0.  1.
    9000005    2    1    2  501    0  0.40485642586E+02  0.17623621092E+02 -0.96723024664E+03  0.96824310257E+03  0.32674736106E+01 0.  0.
         13    1    3    3    0    0  0.38452145943E+02  0.17265758496E+02 -0.93161203986E+03  0.93256510055E+03  0.00000000000E+00 0.  1.
          3    1    3    3  501    0  0.20334966428E+01  0.35786259604E+00 -0.35618206777E+02  0.35678002022E+02  0.00000000000E+00 0.  1.
         -1    1    1    2    0  502 -0.40485642586E+02 -0.17623621092E+02 -0.17155774852E+02  0.47370875934E+02  0.00000000000E+00 0. -1.
<mgrwt>
<rscale>  1 0.30000000E+03</rscale>
<asrwt>0</asrwt>
<pdfrwt beam="1">  1       21 0.56778223E-01 0.30000000E+03</pdfrwt>
<pdfrwt beam="2">0</pdfrwt>
<totfact> 0.28409999E+02</totfact>
</mgrwt>
</event>
<event>
 6    1  0.1198667E-001  0.3000000E+03  0.7818608E-02  0.1093470E+00
         21   -1    0    0  501  502  0.00000000000E+00  0.00000000000E+00  0.15652483508E+01  0.15652483508E+01  0.00000000000E+00 0. -1.
         13   -1    0    0    0    0 -0.00000000000E+00 -0.00000000000E+00 -0.10000000000E+04  0.10000000000E+04  0.00000000000E+00 0.  1.
    9000005    2    1    2  501    0 -0.11177981407E+02  0.37525462532E+02 -0.56513597414E+03  0.56650095633E+03  0.33995060211E+01 0.  0.
         13    1    3    3    0    0 -0.94308870649E+01  0.26396571904E+02 -0.39849355505E+03  0.39947820222E+03  0.00000000000E+00 0.  1.
          3    1    3    3  501    0 -0.17470943421E+01  0.11128890628E+02 -0.16664241910E+03  0.16702275410E+03  0.00000000000E+00 0.  1.
         -1    1    1    2    0  502  0.11177981407E+02 -0.37525462532E+02 -0.43329877751E+03  0.43506429203E+03  0.00000000000E+00 0. -1.
<mgrwt>
<rscale>  1 0.30000000E+03</rscale>
<asrwt>0</asrwt>
<pdfrwt beam="1">  1       21 0.56918242E-02 0.30000000E+03</pdfrwt>
<pdfrwt beam="2">0</pdfrwt>
<totfact> 0.23075140E+04</totfact>
</mgrwt>
</event>
<event>
 6    1  0.1198667E-001  0.3000000E+03  0.7818608E-02  0.1093470E+00
         21   -1    0    0  501  502  0.00000000000E+00  0.00000000000E+00  0.63133265917E+01  0.63133265917E+01  0.00000000000E+00 0. -1.
         13   -1    0    0    0    0 -0.00000000000E+00 -0.00000000000E+00 -0.10000000000E+04  0.10000000000E+04  0.00000000000E+00 0.  1.
    9000005    2    1    2  501    0  0.58449840881E+02 -0.53393620518E+02 -0.53769885160E+03  0.54350434197E+03  0.31067853219E+01 0.  0.
         13    1    3    3    0    0  0.52689519221E+01 -0.47027252093E+01 -0.42245652744E+02  0.42831911638E+02  0.00000000000E+00 0.  1.
          3    1    3    3  501    0  0.53180888958E+02 -0.48690895309E+02 -0.49545319886E+03  0.50067243033E+03  0.00000000000E+00 0.  1.
         -3    1    1    2    0  502 -0.58449840881E+02  0.53393620518E+02 -0.45598782180E+03  0.46280898462E+03  0.00000000000E+00 0. -1.
<mgrwt>
<rscale>  1 0.30000000E+03</rscale>
<asrwt>0</asrwt>
<pdfrwt beam="1">  1       21 0.22957600E-01 0.30000000E+03</pdfrwt>
<pdfrwt beam="2">0</pdfrwt>
<totfact> 0.18408376E+03</totfact>
</mgrwt>
</event>
<event>
 6    1  0.1198667E-001  0.3000000E+03  0.7818608E-02  0.1093470E+00
         21   -1    0    0  501  502  0.00000000000E+00  0.00000000000E+00  0.31770111318E+01  0.31770111318E+01  0.00000000000E+00 0. -1.
         13   -1    0    0    0    0 -0.00000000000E+00 -0.00000000000E+00 -0.10000000000E+04  0.10000000000E+04  0.00000000000E+00 0.  1.
    9000005    2    1    2  501    0  0.45202496360E+02 -0.44170898442E+00 -0.79773329249E+03  0.79901979723E+03  0.32817123118E+01 0.  0.
         13    1    3    3    0    0  0.58698624453E+01 -0.70091038088E+00 -0.12113191437E+03  0.12127607859E+03  0.00000000000E+00 0.  1.
          1    1    3    3  501    0  0.39332633914E+02  0.25920139646E+00 -0.67660137812E+03  0.67774371864E+03  0.00000000000E+00 0.  1.
         -1    1    1    2    0  502 -0.45202496360E+02  0.44170898442E+00 -0.19908969638E+03  0.20415721391E+03  0.00000000000E+00 0. -1.
<mgrwt>
<rscale>  1 0.30000000E+03</rscale>
<asrwt>0</asrwt>
<pdfrwt beam="1">  1       21 0.11552792E-01 0.30000000E+03</pdfrwt>
<pdfrwt beam="2">0</pdfrwt>
<totfact> 0.66383848E+03</totfact>
</mgrwt>
</event>
<event>
 6    1  0.1198667E-001  0.3000000E+03  0.7818608E-02  0.1093470E+00
         21   -1    0    0  501  502  0.00000000000E+00  0.00000000000E+00  0.34125608203E+01  0.34125608203E+01  0.00000000000E+00 0. -1.
         13   -1    0    0    0    0 -0.00000000000E+00 -0.00000000000E+00 -0.10000000000E+04  0.10000000000E+04  0.00000000000E+00 0.  1.
    9000005    2    1    2  501    0  0.35529723425E+02 -0.42889094996E+02 -0.34767482967E+03  0.35211431079E+03  0.22056651058E+01 0.  0.
         13    1    3    3    0    0  0.66664403167E+01 -0.94140547634E+01 -0.70738817917E+02  0.71673190342E+02  0.00000000000E+00 0.  1.
          1    1    3    3  501    0  0.28863283108E+02 -0.33475040232E+02 -0.27693601176E+03  0.28044112045E+03  0.00000000000E+00 0.  1.
         -3    1    1    2    0  502 -0.35529723425E+02  0.42889094996E+02 -0.64891260951E+03  0.65129825003E+03  0.00000000000E+00 0. -1.
<mgrwt>
<rscale>  1 0.30000000E+03</rscale>
<asrwt>0</asrwt>
<pdfrwt beam="1">  1       21 0.12409338E-01 0.30000000E+03</pdfrwt>
<pdfrwt beam="2">0</pdfrwt>
<totfact> 0.58304701E+03</totfact>
</mgrwt>
</event>
<event>
 6    1  0.1198667E-001  0.3000000E+03  0.7818608E-02  0.1093470E+00
         21   -1    0    0  501  502  0.00000000000E+00  0.00000000000E+00  0.31056012820E+01  0.31056012820E+01  0.00000000000E+00 0. -1.
         13   -1    0    0    0    0 -0.00000000000E+00 -0.00000000000E+00 -0.10000000000E+04  0.10000000000E+04  0.00000000000E+00 0.  1.
    9000005    2    1    2  501    0 -0.32557795734E+02 -0.39744012419E+02 -0.69211202748E+03  0.69402326532E+03  0.31044543309E+01 0.  0.
         13    1    3    3    0    0 -0.30777332350E+02 -0.36327446347E+02 -0.63749371123E+03  0.63926923858E+03  0.00000000000E+00 0.  1.
          1    1    3    3  501    0 -0.17804633844E+01 -0.34165660728E+01 -0.54618316251E+02  0.54754026735E+02  0.00000000000E+00 0.  1.
         -3    1    1    2    0  502  0.32557795734E+02  0.39744012419E+02 -0.30478237124E+03  0.30908233597E+03  0.00000000000E+00 0. -1.
<mgrwt>
<rscale>  1 0.30000000E+03</rscale>
<asrwt>0</asrwt>
<pdfrwt beam="1">  1       21 0.11293119E-01 0.30000000E+03</pdfrwt>
<pdfrwt beam="2">0</pdfrwt>
<totfact> 0.69165089E+03</totfact>
</mgrwt>
</event>
<event>
 6    1  0.1198667E-001  0.3000000E+03  0.7818608E-02  0.1093470E+00
         21   -1    0    0  501  502  0.00000000000E+00  0.00000000000E+00  0.36443581410E+01  0.36443581410E+01  0.00000000000E+00 0. -1.
         13   -1    0    0    0    0 -0.00000000000E+00 -0.00000000000E+00 -0.10000000000E+04  0.10000000000E+04  0.00000000000E+00 0.  1.
    9000005    2    1    2  501    0  0.34908738772E+02 -0.29141562405E+02 -0.82798125910E+03  0.82923741026E+03  0.37237669572E+01 0.  0.
         13    1    3    3    0    0  0.24082082645E+02 -0.21935730501E+02 -0.60811162564E+03  0.60898347450E+03  0.00000000000E+00 0.  1.
          1    1    3    3  501    0  0.10826656127E+02 -0.72058319039E+01 -0.21986963346E+03  0.22025393576E+03  0.00000000000E+00 0.  1.
         -3    1    1    2    0  502 -0.34908738772E+02  0.29141562405E+02 -0.16837438276E+03  0.17440694788E+03  0.00000000000E+00 0. -1.
<mgrwt>
<rscale>  1 0.30000000E+03</rscale>
<asrwt>0</asrwt>
<pdfrwt beam="1">  1       21 0.13252239E-01 0.30000000E+03</pdfrwt>
<pdfrwt beam="2">0</pdfrwt>
<totfact> 0.51716779E+03</totfact>
</mgrwt>
</event>
<event>
 6    1  0.1198667E-001  0.3000000E+03  0.7818608E-02  0.1093470E+00
         21   -1    0    0  501  502  0.00000000000E+00  0.00000000000E+00  0.52876308432E+01  0.52876308432E+01  0.00000000000E+00 0. -1.
         13   -1    0    0    0    0 -0.00000000000E+00 -0.00000000000E+00 -0.10000000000E+04  0.10000000000E+04  0.00000000000E+00 0.  1.
    9000005    2    1    2  501    0  0.42095890794E+02 -0.17506455564E+02 -0.88886045288E+03  0.89003500316E+03  0.32957776513E+01 0.  0.
         13    1    3    3    0    0  0.40843652490E+02 -0.16472023191E+02 -0.84901105125E+03  0.85015251375E+03  0.00000000000E+00 0.  1.
          1    1    3    3  501    0  0.12522383040E+01 -0.10344323729E+01 -0.39849401630E+02  0.39882489407E+02  0.00000000000E+00 0.  1.
         -1    1    1    2    0  502 -0.42095890794E+02  0.17506455564E+02 -0.10585191628E+03  0.11525262768E+03  0.00000000000E+00 0. -1.
<mgrwt>
<rscale>  1 0.30000000E+03</rscale>
<asrwt>0</asrwt>
<pdfrwt beam="1">  1       21 0.19227789E-01 0.30000000E+03</pdfrwt>
<pdfrwt beam="2">0</pdfrwt>
<totfact> 0.25859645E+03</totfact>
</mgrwt>
</event>
<event>
 6    1  0.1198667E-001  0.3000000E+03  0.7818608E-02  0.1093470E+00
         21   -1    0    0  501  502  0.00000000000E+00  0.00000000000E+00  0.25362444140E+01  0.25362444140E+01  0.00000000000E+00 0. -1.
         13   -1    0    0    0    0 -0.00000000000E+00 -0.00000000000E+00 -0.10000000000E+04  0.10000000000E+04  0.00000000000E+00 0.  1.
    9000005    2    1    2  501    0  0.25218505534E+02 -0.41543412423E+02 -0.62865559515E+03  0.63053989048E+03  0.32966701677E+01 0.  0.
         13    1    3    3    0    0  0.40573829167E+01 -0.62283508453E+01 -0.11218882209E+03  0.11243481006E+03  0.00000000000E+00 0.  1.
          3    1    3    3  501    0  0.21161122617E+02 -0.35315061578E+02 -0.51646677305E+03  0.51810508042E+03  0.00000000000E+00 0.  1.
         -3    1    1    2    0  502 -0.25218505534E+02  0.41543412423E+02 -0.36880816044E+03  0.37199635394E+03  0.00000000000E+00 0. -1.
<mgrwt>
<rscale>  1 0.30000000E+03</rscale>
<asrwt>0</asrwt>
<pdfrwt beam="1">  1       21 0.92227264E-02 0.30000000E+03</pdfrwt>
<pdfrwt beam="2">0</pdfrwt>
<totfact> 0.99377114E+03</totfact>
</mgrwt>
</event>
<event>
 6    1  0.1198667E-001  0.3000000E+03  0.7818608E-02  0.1093470E+00
         21   -1    0    0  501  502  0.00000000000E+00  0.00000000000E+00  0.12718240406E+01  0.12718240406E+01  0.00000000000E+00 0. -1.
         13   -1    0    0    0    0 -0.00000000000E+00 -0.00000000000E+00 -0.10000000000E+04  0.10000000000E+04  0.00000000000E+00 0.  1.
    9000005    2    1    2  501    0 -0.25945796804E+02  0.18671387140E+02 -0.71833380445E+03  0.71906124904E+03  0.48805923984E+01 0.  0.
         13    1    3    3    0    0 -0.71697191534E+00  0.17619508530E+01 -0.54155539087E+02  0.54188937370E+02  0.00000000000E+00 0.  1.
          3    1    3    3  501    0 -0.25228824888E+02  0.16909436287E+02 -0.66417826537E+03  0.66487231167E+03  0.00000000000E+00 0.  1.
         -3    1    1    2    0  502  0.25945796804E+02 -0.18671387140E+02 -0.28039437151E+03  0.28221057500E+03  0.00000000000E+00 0. -1.
<mgrwt>
<rscale>  1 0.30000000E+03</rscale>
<asrwt>0</asrwt>
<pdfrwt beam="1">  1       21 0.46248244E-02 0.30000000E+03</pdfrwt>
<pdfrwt beam="2">0</pdfrwt>
<totfact> 0.32893598E+04</totfact>
</mgrwt>
</event>
<event>
 6    1  0.1198667E-001  0.3000000E+03  0.7818608E-02  0.1093470E+00
         21   -1    0    0  501  502  0.00000000000E+00  0.00000000000E+00  0.22600964532E+01  0.22600964532E+01  0.00000000000E+00 0. -1.
         13   -1    0    0    0    0 -0.00000000000E+00 -0.00000000000E+00 -0.10000000000E+04  0.10000000000E+04  0.00000000000E+00 0.  1.
    9000005    2    1    2  501    0  0.20831713142E+02  0.26291966488E+02 -0.85358114475E+03  0.85425004439E+03  0.41400352093E+01 0.  0.
         13    1    3    3    0    0  0.25174582269E+01  0.57160587466E+01 -0.16467955935E+03  0.16479796173E+03  0.00000000000E+00 0.  1.
          1    1    3    3  501    0  0.18314254916E+02  0.20575907741E+02 -0.68890158540E+03  0.68945208265E+03  0.00000000000E+00 0.  1.
         -1    1    1    2    0  502 -0.20831713142E+02 -0.26291966488E+02 -0.14415875880E+03  0.14801005207E+03  0.00000000000E+00 0. -1.
<mgrwt>
<rscale>  1 0.30000000E+03</rscale>
<asrwt>0</asrwt>
<pdfrwt beam="1">  1       21 0.82185499E-02 0.30000000E+03</pdfrwt>
<pdfrwt beam="2">0</pdfrwt>
<totfact> 0.12182778E+04</totfact>
</mgrwt>
</event>
<event>
 6    1  0.1198667E-001  0.3000000E+03  0.7818608E-02  0.1093470E+00
         21   -1    0    0  501  502  0.00000000000E+00  0.00000000000E+00  0.11169583700E+01  0.11169583700E+01  0.00000000000E+00 0. -1.
         13   -1    0    0    0    0 -0.00000000000E+00 -0.00000000000E+00 -0.10000000000E+04  0.10000000000E+04  0.00000000000E+00 0.  1.
    9000005    2    1    2  501    0 -0.21587193093E+02 -0.24937711049E+02 -0.57489757007E+03  0.57585048140E+03  0.29435559714E+01 0.  0.
         13    1    3    3    0    0 -0.12201806347E+02 -0.14712773923E+02 -0.35699981980E+03  0.35751114827E+03  0.00000000000E+00 0.  1.
          1    1    3    3  501    0 -0.93853867454E+01 -0.10224937126E+02 -0.21789775026E+03  0.21833933313E+03  0.00000000000E+00 0.  1.
         -1    1    1    2    0  502  0.21587193093E+02  0.24937711049E+02 -0.42398547156E+03  0.42526647697E+03  0.00000000000E+00 0. -1.
<mgrwt>
<rscale>  1 0.30000000E+03</rscale>
<asrwt>0</asrwt>
<pdfrwt beam="1">  1       21 0.40616754E-02 0.30000000E+03</pdfrwt>
<pdfrwt beam="2">0</pdfrwt>
<totfact> 0.40977285E+04</totfact>
</mgrwt>
</event>
<event>
 6    1  0.1198667E-001  0.3000000E+03  0.7818608E-02  0.1093470E+00
         21   -1    0    0  501  502  0.00000000000E+00  0.00000000000E+00  0.93320945864E+00  0.93320945864E+00  0.00000000000E+00 0. -1.
         13   -1    0    0    0    0 -0.00000000000E+00 -0.00000000000E+00 -0.10000000000E+04  0.10000000000E+04  0.00000000000E+00 0.  1.
    9000005    2    1    2  501    0  0.20984443445E+01  0.30333254372E+02 -0.47897105113E+03  0.47994944009E+03  0.36996533260E+01 0.  0.
         13    1    3    3    0    0 -0.24358922641E+00  0.18237329232E+02 -0.26968982545E+03  0.27030586650E+03  0.00000000000E+00 0.  1.
          3    1    3    3  501    0  0.23420335709E+01  0.12095925140E+02 -0.20928122568E+03  0.20964357359E+03  0.00000000000E+00 0.  1.
         -3    1    1    2    0  502 -0.20984443445E+01 -0.30333254372E+02 -0.52009573941E+03  0.52098376937E+03  0.00000000000E+00 0. -1.
<mgrwt>
<rscale>  1 0.30000000E+03</rscale>
<asrwt>0</asrwt>
<pdfrwt beam="1">  1       21 0.33934961E-02 0.30000000E+03</pdfrwt>
<pdfrwt beam="2">0</pdfrwt>
<totfact> 0.55408018E+04</totfact>
</mgrwt>
</event>
<event>
 6    1  0.1198667E-001  0.3000000E+03  0.7818608E-02  0.1093470E+00
         21   -1    0    0  501  502  0.00000000000E+00  0.00000000000E+00  0.14326575625E+01  0.14326575625E+01  0.00000000000E+00 0. -1.
         13   -1    0    0    0    0 -0.00000000000E+00 -0.00000000000E+00 -0.10000000000E+04  0.10000000000E+04  0.00000000000E+00 0.  1.
    9000005    2    1    2  501    0  0.31209036441E+02 -0.16400704227E+02 -0.67997253475E+03  0.68089305230E+03  0.31166656970E+01 0.  0.
         13    1    3    3    0    0  0.20043981665E+02 -0.11551304758E+02 -0.42240198911E+03  0.42303502721E+03  0.00000000000E+00 0.  1.
          1    1    3    3  501    0  0.11165054776E+02 -0.48493994689E+01 -0.25757054564E+03  0.25785802509E+03  0.00000000000E+00 0.  1.
         -3    1    1    2    0  502 -0.31209036441E+02  0.16400704227E+02 -0.31859480769E+03  0.32053960526E+03  0.00000000000E+00 0. -1.
<mgrwt>
<rscale>  1 0.30000000E+03</rscale>
<asrwt>0</asrwt>
<pdfrwt beam="1">  1       21 0.52096748E-02 0.30000000E+03</pdfrwt>
<pdfrwt beam="2">0</pdfrwt>
<totfact> 0.26854467E+04</totfact>
</mgrwt>
</event>
<event>
 6    1  0.1198667E-001  0.3000000E+03  0.7818608E-02  0.1093470E+00
         21   -1    0    0  501  502  0.00000000000E+00  0.00000000000E+00  0.18194036743E+01  0.18194036743E+01  0.00000000000E+00 0. -1.
         13   -1    0    0    0    0 -0.00000000000E+00 -0.00000000000E+00 -0.10000000000E+04  0.10000000000E+04  0.00000000000E+00 0.  1.
    9000005    2    1    2  501    0 -0.36110916165E+02 -0.19622949893E+01 -0.76381435506E+03  0.76467939458E+03  0.37892786671E+01 0.  0.
         13    1    3    3    0    0 -0.32554646969E+02 -0.63352676420E+00 -0.68011266733E+03  0.68089165559E+03  0.00000000000E+00 0.  1.
          1    1    3    3  501    0 -0.35562691958E+01 -0.13287682251E+01 -0.83701687735E+02  0.83787738991E+02  0.00000000000E+00 0.  1.
         -3    1    1    2    0  502  0.36110916165E+02  0.19622949893E+01 -0.23436624127E+03  0.23714000909E+03  0.00000000000E+00 0. -1.
<mgrwt>
<rscale>  1 0.30000000E+03</rscale>
<asrwt>0</asrwt>
<pdfrwt beam="1">  1       21 0.66160273E-02 0.30000000E+03</pdfrwt>
<pdfrwt beam="2">0</pdfrwt>
<totfact> 0.17796152E+04</totfact>
</mgrwt>
</event>
<event>
 6    1  0.1198667E-001  0.3000000E+03  0.7818608E-02  0.1093470E+00
         21   -1    0    0  501  502  0.00000000000E+00  0.00000000000E+00  0.32781941822E+01  0.32781941822E+01  0.00000000000E+00 0. -1.
         13   -1    0    0    0    0 -0.00000000000E+00 -0.00000000000E+00 -0.10000000000E+04  0.10000000000E+04  0.00000000000E+00 0.  1.
    9000005    2    1    2  501    0 -0.51664509000E+02  0.22216771205E+02 -0.58975728344E+03  0.59244619824E+03  0.40047508419E+01 0.  0.
         13    1    3    3    0    0 -0.13294686839E+02  0.38979661850E+01 -0.14057951004E+03  0.14126054467E+03  0.00000000000E+00 0.  1.
          1    1    3    3  501    0 -0.38369822161E+02  0.18318805020E+02 -0.44917777340E+03  0.45118565357E+03  0.00000000000E+00 0.  1.
         -3    1    1    2    0  502  0.51664509000E+02 -0.22216771205E+02 -0.40696452238E+03  0.41083199594E+03  0.00000000000E+00 0. -1.
<mgrwt>
<rscale>  1 0.30000000E+03</rscale>
<asrwt>0</asrwt>
<pdfrwt beam="1">  1       21 0.11920731E-01 0.30000000E+03</pdfrwt>
<pdfrwt beam="2">0</pdfrwt>
<totfact> 0.62720841E+03</totfact>
</mgrwt>
</event>
<event>
 6    1  0.1198667E-001  0.3000000E+03  0.7818608E-02  0.1093470E+00
         21   -1    0    0  501  502  0.00000000000E+00  0.00000000000E+00  0.10737277051E+01  0.10737277051E+01  0.00000000000E+00 0. -1.
         13   -1    0    0    0    0 -0.00000000000E+00 -0.00000000000E+00 -0.10000000000E+04  0.10000000000E+04  0.00000000000E+00 0.  1.
    9000005    2    1    2  501    0 -0.60232243559E+01 -0.31933650225E+02 -0.55704057262E+03  0.55799471802E+03  0.28050922357E+01 0.  0.
         13    1    3    3    0    0 -0.56336296583E+01 -0.26471388113E+02 -0.44804217205E+03  0.44885884207E+03  0.00000000000E+00 0.  1.
          3    1    3    3  501    0 -0.38959469764E+00 -0.54622621126E+01 -0.10899840057E+03  0.10913587595E+03  0.00000000000E+00 0.  1.
         -1    1    1    2    0  502  0.60232243559E+01  0.31933650225E+02 -0.44188569967E+03  0.44307900969E+03  0.00000000000E+00 0. -1.
<mgrwt>
<rscale>  1 0.30000000E+03</rscale>
<asrwt>0</asrwt>
<pdfrwt beam="1">  1       21 0.39044726E-02 0.30000000E+03</pdfrwt>
<pdfrwt beam="2">0</pdfrwt>
<totfact> 0.43793157E+04</totfact>
</mgrwt>
</event>
<event>
 6    1  0.1198667E-001  0.3000000E+03  0.7818608E-02  0.1093470E+00
         21   -1    0    0  501  502  0.00000000000E+00  0.00000000000E+00  0.31225696610E+01  0.31225696610E+01  0.00000000000E+00 0. -1.
         13   -1    0    0    0    0 -0.00000000000E+00 -0.00000000000E+00 -0.10000000000E+04  0.10000000000E+04  0.00000000000E+00 0.  1.
    9000005    2    1    2  501    0 -0.30688928799E+02  0.78091918869E+01 -0.91151074744E+03  0.91207168071E+03  0.44848895912E+01 0.  0.
         13    1    3    3    0    0 -0.53084783937E+01  0.31498558208E+01 -0.18284971203E+03  0.18295387048E+03  0.00000000000E+00 0.  1.
          1    1    3    3  501    0 -0.25380450405E+02  0.46593360662E+01 -0.72866103541E+03  0.72911781023E+03  0.00000000000E+00 0.  1.
         -3    1    1    2    0  502  0.30688928799E+02 -0.78091918869E+01 -0.85366682903E+02  0.91050888950E+02  0.00000000000E+00 0. -1.
<mgrwt>
<rscale>  1 0.30000000E+03</rscale>
<asrwt>0</asrwt>
<pdfrwt beam="1">  1       21 0.11354823E-01 0.30000000E+03</pdfrwt>
<pdfrwt beam="2">0</pdfrwt>
<totfact> 0.68488591E+03</totfact>
</mgrwt>
</event>
<event>
 6    1  0.1198667E-001  0.3000000E+03  0.7818608E-02  0.1093470E+00
         21   -1    0    0  501  502  0.00000000000E+00  0.00000000000E+00  0.15542572985E+01  0.15542572985E+01  0.00000000000E+00 0. -1.
         13   -1    0    0    0    0 -0.00000000000E+00 -0.00000000000E+00 -0.10000000000E+04  0.10000000000E+04  0.00000000000E+00 0.  1.
    9000005    2    1    2  501    0 -0.94171050915E+01  0.29278523390E+02 -0.81201525120E+03  0.81260388825E+03  0.32244729242E+01 0.  0.
         13    1    3    3    0    0 -0.18053874068E+01  0.32118010920E+01 -0.79154159852E+02  0.79239864411E+02  0.00000000000E+00 0.  1.
          3    1    3    3  501    0 -0.76117176847E+01  0.26066722297E+02 -0.73286109134E+03  0.73336402384E+03  0.00000000000E+00 0.  1.
         -1    1    1    2    0  502  0.94171050915E+01 -0.29278523390E+02 -0.18643049151E+03  0.18895036905E+03  0.00000000000E+00 0. -1.
<mgrwt>
<rscale>  1 0.30000000E+03</rscale>
<asrwt>0</asrwt>
<pdfrwt beam="1">  1       21 0.56518566E-02 0.30000000E+03</pdfrwt>
<pdfrwt beam="2">0</pdfrwt>
<totfact> 0.23356325E+04</totfact>
</mgrwt>
</event>
<event>
 6    1  0.1198667E-001  0.3000000E+03  0.7818608E-02  0.1093470E+00
         21   -1    0    0  501  502  0.00000000000E+00  0.00000000000E+00  0.16222439230E+01  0.16222439230E+01  0.00000000000E+00 0. -1.
         13   -1    0    0    0    0 -0.00000000000E+00 -0.00000000000E+00 -0.10000000000E+04  0.10000000000E+04  0.00000000000E+00 0.  1.
    9000005    2    1    2  501    0 -0.35453756395E+02  0.72848342866E+01 -0.28179234517E+03  0.28412333188E+03  0.30173284656E+01 0.  0.
         13    1    3    3    0    0 -0.19303427560E+02  0.54762409448E+01 -0.15765978607E+03  0.15893149365E+03  0.00000000000E+00 0.  1.
          1    1    3    3  501    0 -0.16150328835E+02  0.18085933418E+01 -0.12413255910E+03  0.12519183823E+03  0.00000000000E+00 0.  1.
         -1    1    1    2    0  502  0.35453756395E+02 -0.72848342866E+01 -0.71658541091E+03  0.71749891204E+03  0.00000000000E+00 0. -1.
<mgrwt>
<rscale>  1 0.30000000E+03</rscale>
<asrwt>0</asrwt>
<pdfrwt beam="1">  1       21 0.58990813E-02 0.30000000E+03</pdfrwt>
<pdfrwt beam="2">0</pdfrwt>
<totfact> 0.21697012E+04</totfact>
</mgrwt>
</event>
<event>
 6    1  0.1198667E-001  0.3000000E+03  0.7818608E-02  0.1093470E+00
         21   -1    0    0  501  502  0.00000000000E+00  0.00000000000E+00  0.10970112037E+01  0.10970112037E+01  0.00000000000E+00 0. -1.
         13   -1    0    0    0    0 -0.00000000000E+00 -0.00000000000E+00 -0.10000000000E+04  0.10000000000E+04  0.00000000000E+00 0.  1.
    9000005    2    1    2  501    0 -0.18257874205E+02  0.27508050541E+02 -0.51434956900E+03  0.51542010270E+03  0.35157252831E+01 0.  0.
         13    1    3    3    0    0 -0.42703638929E+01  0.40697214622E+01 -0.87001693406E+02  0.87201452374E+02  0.00000000000E+00 0.  1.
          1    1    3    3  501    0 -0.13987510312E+02  0.23438329079E+02 -0.42734787559E+03  0.42821865033E+03  0.00000000000E+00 0.  1.
         -1    1    1    2    0  502  0.18257874205E+02 -0.27508050541E+02 -0.48455341980E+03  0.48567690850E+03  0.00000000000E+00 0. -1.
<mgrwt>
<rscale>  1 0.30000000E+03</rscale>
<asrwt>0</asrwt>
<pdfrwt beam="1">  1       21 0.39891401E-02 0.30000000E+03</pdfrwt>
<pdfrwt beam="2">0</pdfrwt>
<totfact> 0.42240258E+04</totfact>
</mgrwt>
</event>
<event>
 6    1  0.1198667E-001  0.3000000E+03  0.7818608E-02  0.1093470E+00
         21   -1    0    0  501  502  0.00000000000E+00  0.00000000000E+00  0.24574697820E+01  0.24574697820E+01  0.00000000000E+00 0. -1.
         13   -1    0    0    0    0 -0.00000000000E+00 -0.00000000000E+00 -0.10000000000E+04  0.10000000000E+04  0.00000000000E+00 0.  1.
    9000005    2    1    2  501    0 -0.32340382584E+02 -0.23447068957E+02 -0.79503525301E+03  0.79604801576E+03  0.39654098070E+01 0.  0.
         13    1    3    3    0    0 -0.25179206994E+02 -0.20008477244E+02 -0.62345901155E+03  0.62428797098E+03  0.00000000000E+00 0.  1.
          3    1    3    3  501    0 -0.71611755900E+01 -0.34385917125E+01 -0.17157624146E+03  0.17176004478E+03  0.00000000000E+00 0.  1.
         -3    1    1    2    0  502  0.32340382584E+02  0.23447068957E+02 -0.20250727721E+03  0.20640945402E+03  0.00000000000E+00 0. -1.
<mgrwt>
<rscale>  1 0.30000000E+03</rscale>
<asrwt>0</asrwt>
<pdfrwt beam="1">  1       21 0.89362726E-02 0.30000000E+03</pdfrwt>
<pdfrwt beam="2">0</pdfrwt>
<totfact> 0.10509527E+04</totfact>
</mgrwt>
</event>
<event>
 6    1  0.1198667E-001  0.3000000E+03  0.7818608E-02  0.1093470E+00
         21   -1    0    0  501  502  0.00000000000E+00  0.00000000000E+00  0.13992968643E+01  0.13992968643E+01  0.00000000000E+00 0. -1.
         13   -1    0    0    0    0 -0.00000000000E+00 -0.00000000000E+00 -0.10000000000E+04  0.10000000000E+04  0.00000000000E+00 0.  1.
    9000005    2    1    2  501    0  0.12220089868E+02 -0.31124130269E+02 -0.27824463092E+03  0.28026760788E+03  0.34373403566E+01 0.  0.
         13    1    3    3    0    0  0.54151696251E+01 -0.15520721047E+02 -0.12338942718E+03  0.12447958702E+03  0.00000000000E+00 0.  1.
          1    1    3    3  501    0  0.68049202433E+01 -0.15603409222E+02 -0.15485520374E+03  0.15578802086E+03  0.00000000000E+00 0.  1.
         -3    1    1    2    0  502 -0.12220089868E+02  0.31124130269E+02 -0.72035607221E+03  0.72113168898E+03  0.00000000000E+00 0. -1.
<mgrwt>
<rscale>  1 0.30000000E+03</rscale>
<asrwt>0</asrwt>
<pdfrwt beam="1">  1       21 0.50883630E-02 0.30000000E+03</pdfrwt>
<pdfrwt beam="2">0</pdfrwt>
<totfact> 0.27956787E+04</totfact>
</mgrwt>
</event>
<event>
 6    1  0.1198667E-001  0.3000000E+03  0.7818608E-02  0.1093470E+00
         21   -1    0    0  501  502  0.00000000000E+00  0.00000000000E+00  0.12214310712E+02  0.12214310712E+02  0.00000000000E+00 0. -1.
         13   -1    0    0    0    0 -0.00000000000E+00 -0.00000000000E+00 -0.10000000000E+04  0.10000000000E+04  0.00000000000E+00 0.  1.
    9000005    2    1    2  501    0  0.30812118959E+02  0.46535628636E+02 -0.93069758418E+03  0.93237695634E+03  0.37207689848E+01 0.  0.
         13    1    3    3    0    0  0.21441038005E+02  0.29177863144E+02 -0.60532154989E+03  0.60640353278E+03  0.00000000000E+00 0.  1.
          1    1    3    3  501    0  0.93710809536E+01  0.17357765492E+02 -0.32537603429E+03  0.32597342356E+03  0.00000000000E+00 0.  1.
         -3    1    1    2    0  502 -0.30812118959E+02 -0.46535628636E+02 -0.57088105110E+02  0.79837354367E+02  0.00000000000E+00 0. -1.
<mgrwt>
<rscale>  1 0.30000000E+03</rscale>
<asrwt>0</asrwt>
<pdfrwt beam="1">  1       21 0.44415769E-01 0.30000000E+03</pdfrwt>
<pdfrwt beam="2">0</pdfrwt>
<totfact> 0.48436738E+02</totfact>
</mgrwt>
</event>
<event>
 6    1  0.1198667E-001  0.3000000E+03  0.7818608E-02  0.1093470E+00
         21   -1    0    0  501  502  0.00000000000E+00  0.00000000000E+00  0.18805626735E+01  0.18805626735E+01  0.00000000000E+00 0. -1.
         13   -1    0    0    0    0 -0.00000000000E+00 -0.00000000000E+00 -0.10000000000E+04  0.10000000000E+04  0.00000000000E+00 0.  1.
    9000005    2    1    2  501    0 -0.18751066441E+02  0.31692199524E+02 -0.76292846969E+03  0.76382428936E+03  0.34201108683E+01 0.  0.
         13    1    3    3    0    0 -0.13480560634E+02  0.21582186548E+02 -0.49568330116E+03  0.49633602664E+03  0.00000000000E+00 0.  1.
          1    1    3    3  501    0 -0.52705058069E+01  0.10110012975E+02 -0.26724516853E+03  0.26748826272E+03  0.00000000000E+00 0.  1.
         -3    1    1    2    0  502  0.18751066441E+02 -0.31692199524E+02 -0.23519096764E+03  0.23805627331E+03  0.00000000000E+00 0. -1.
<mgrwt>
<rscale>  1 0.30000000E+03</rscale>
<asrwt>0</asrwt>
<pdfrwt beam="1">  1       21 0.68384241E-02 0.30000000E+03</pdfrwt>
<pdfrwt beam="2">0</pdfrwt>
<totfact> 0.16803935E+04</totfact>
</mgrwt>
</event>
<event>
 6    1  0.1198667E-001  0.3000000E+03  0.7818608E-02  0.1093470E+00
         21   -1    0    0  501  502  0.00000000000E+00  0.00000000000E+00  0.29745642704E+01  0.29745642704E+01  0.00000000000E+00 0. -1.
         13   -1    0    0    0    0 -0.00000000000E+00 -0.00000000000E+00 -0.10000000000E+04  0.10000000000E+04  0.00000000000E+00 0.  1.
    9000005    2    1    2  501    0 -0.24154449643E+01 -0.43121664512E+02 -0.80366405655E+03  0.80484850520E+03  0.63157111196E+01 0.  0.
         13    1    3    3    0    0 -0.37583341815E+01 -0.38579291178E+02 -0.69311768713E+03  0.69420070224E+03  0.00000000000E+00 0.  1.
          3    1    3    3  501    0  0.13428892173E+01 -0.45423733341E+01 -0.11054636943E+03  0.11064780296E+03  0.00000000000E+00 0.  1.
         -3    1    1    2    0  502  0.24154449643E+01  0.43121664512E+02 -0.19336137918E+03  0.19812605907E+03  0.00000000000E+00 0. -1.
<mgrwt>
<rscale>  1 0.30000000E+03</rscale>
<asrwt>0</asrwt>
<pdfrwt beam="1">  1       21 0.10816620E-01 0.30000000E+03</pdfrwt>
<pdfrwt beam="2">0</pdfrwt>
<totfact> 0.74745586E+03</totfact>
</mgrwt>
</event>
<event>
 6    1  0.1198667E-001  0.3000000E+03  0.7818608E-02  0.1093470E+00
         21   -1    0    0  501  502  0.00000000000E+00  0.00000000000E+00  0.99467462555E+01  0.99467462555E+01  0.00000000000E+00 0. -1.
         13   -1    0    0    0    0 -0.00000000000E+00 -0.00000000000E+00 -0.10000000000E+04  0.10000000000E+04  0.00000000000E+00 0.  1.
    9000005    2    1    2  501    0  0.98983168172E+02  0.83687992699E+01 -0.45162877828E+03  0.46243544942E+03  0.32073552175E+01 0.  0.
         13    1    3    3    0    0  0.40584437596E+02  0.18489993337E+01 -0.18465650088E+03  0.18907283964E+03  0.00000000000E+00 0.  1.
          1    1    3    3  501    0  0.58398730577E+02  0.65197999362E+01 -0.26697227740E+03  0.27336260978E+03  0.00000000000E+00 0.  1.
         -3    1    1    2    0  502 -0.98983168172E+02 -0.83687992699E+01 -0.53842447546E+03  0.54751129683E+03  0.00000000000E+00 0. -1.
<mgrwt>
<rscale>  1 0.30000000E+03</rscale>
<asrwt>0</asrwt>
<pdfrwt beam="1">  1       21 0.36170063E-01 0.30000000E+03</pdfrwt>
<pdfrwt beam="2">0</pdfrwt>
<totfact> 0.74392435E+02</totfact>
</mgrwt>
</event>
<event>
 6    1  0.1198667E-001  0.3000000E+03  0.7818608E-02  0.1093470E+00
         21   -1    0    0  501  502  0.00000000000E+00  0.00000000000E+00  0.99968848462E+00  0.99968848462E+00  0.00000000000E+00 0. -1.
         13   -1    0    0    0    0 -0.00000000000E+00 -0.00000000000E+00 -0.10000000000E+04  0.10000000000E+04  0.00000000000E+00 0.  1.
    9000005    2    1    2  501    0  0.50498040058E+01  0.30982622645E+02 -0.46012743622E+03  0.46121325002E+03  0.38705297614E+01 0.  0.
         13    1    3    3    0    0 -0.44383191000E+00  0.30968558001E+01 -0.36770009919E+02  0.36902860757E+02  0.00000000000E+00 0.  1.
          1    1    3    3  501    0  0.54936359158E+01  0.27885766845E+02 -0.42335742631E+03  0.42431038926E+03  0.00000000000E+00 0.  1.
         -3    1    1    2    0  502 -0.50498040058E+01 -0.30982622645E+02 -0.53887287529E+03  0.53978643847E+03  0.00000000000E+00 0. -1.
<mgrwt>
<rscale>  1 0.30000000E+03</rscale>
<asrwt>0</asrwt>
<pdfrwt beam="1">  1       21 0.36352385E-02 0.30000000E+03</pdfrwt>
<pdfrwt beam="2">0</pdfrwt>
<totfact> 0.49376991E+04</totfact>
</mgrwt>
</event>
<event>
 6    1  0.1198667E-001  0.3000000E+03  0.7818608E-02  0.1093470E+00
         21   -1    0    0  501  502  0.00000000000E+00  0.00000000000E+00  0.11168364053E+01  0.11168364053E+01  0.00000000000E+00 0. -1.
         13   -1    0    0    0    0 -0.00000000000E+00 -0.00000000000E+00 -0.10000000000E+04  0.10000000000E+04  0.00000000000E+00 0.  1.
    9000005    2    1    2  501    0  0.17169270048E+02  0.27599227070E+02 -0.59189814853E+03  0.59283592373E+03  0.73832960932E+01 0.  0.
         13    1    3    3    0    0  0.13111424425E+02  0.23661577809E+02 -0.43851585928E+03  0.43934944925E+03  0.00000000000E+00 0.  1.
          3    1    3    3  501    0  0.40578456237E+01  0.39376492609E+01 -0.15338228925E+03  0.15348647448E+03  0.00000000000E+00 0.  1.
         -3    1    1    2    0  502 -0.17169270048E+02 -0.27599227070E+02 -0.40698501506E+03  0.40828091267E+03  0.00000000000E+00 0. -1.
<mgrwt>
<rscale>  1 0.30000000E+03</rscale>
<asrwt>0</asrwt>
<pdfrwt beam="1">  1       21 0.40612319E-02 0.30000000E+03</pdfrwt>
<pdfrwt beam="2">0</pdfrwt>
<totfact> 0.40984828E+04</totfact>
</mgrwt>
</event>
<event>
 6    1  0.1198667E-001  0.3000000E+03  0.7818608E-02  0.1093470E+00
         21   -1    0    0  501  502  0.00000000000E+00  0.00000000000E+00  0.11107812965E+01  0.11107812965E+01  0.00000000000E+00 0. -1.
         13   -1    0    0    0    0 -0.00000000000E+00 -0.00000000000E+00 -0.10000000000E+04  0.10000000000E+04  0.00000000000E+00 0.  1.
    9000005    2    1    2  501    0  0.47808852397E+01  0.32860018984E+02 -0.47570592269E+03  0.47687476676E+03  0.32833789148E+01 0.  0.
         13    1    3    3    0    0 -0.60601124185E-01  0.47469566660E+01 -0.56298653910E+02  0.56498457520E+02  0.00000000000E+00 0.  1.
          3    1    3    3  501    0  0.48414863639E+01  0.28113062318E+02 -0.41940726878E+03  0.42037630924E+03  0.00000000000E+00 0.  1.
         -3    1    1    2    0  502 -0.47808852397E+01 -0.32860018984E+02 -0.52318329601E+03  0.52423601454E+03  0.00000000000E+00 0. -1.
<mgrwt>
<rscale>  1 0.30000000E+03</rscale>
<asrwt>0</asrwt>
<pdfrwt beam="1">  1       21 0.40392132E-02 0.30000000E+03</pdfrwt>
<pdfrwt beam="2">0</pdfrwt>
<totfact> 0.41362015E+04</totfact>
</mgrwt>
</event>
<event>
 6    1  0.1198667E-001  0.3000000E+03  0.7818608E-02  0.1093470E+00
         21   -1    0    0  501  502  0.00000000000E+00  0.00000000000E+00  0.66041469913E+01  0.66041469913E+01  0.00000000000E+00 0. -1.
         13   -1    0    0    0    0 -0.00000000000E+00 -0.00000000000E+00 -0.10000000000E+04  0.10000000000E+04  0.00000000000E+00 0.  1.
    9000005    2    1    2  501    0 -0.34033487598E+02  0.28372107942E+02 -0.91857211973E+03  0.91964527252E+03  0.30713742097E+01 0.  0.
         13    1    3    3    0    0 -0.22631385519E+02  0.20630016596E+02 -0.62452999796E+03  0.62528033357E+03  0.00000000000E+00 0.  1.
          3    1    3    3  501    0 -0.11402102079E+02  0.77420913466E+01 -0.29404212177E+03  0.29436493896E+03  0.00000000000E+00 0.  1.
         -1    1    1    2    0  502  0.34033487598E+02 -0.28372107942E+02 -0.74823733278E+02  0.86958874469E+02  0.00000000000E+00 0. -1.
<mgrwt>
<rscale>  1 0.30000000E+03</rscale>
<asrwt>0</asrwt>
<pdfrwt beam="1">  1       21 0.24015131E-01 0.30000000E+03</pdfrwt>
<pdfrwt beam="2">0</pdfrwt>
<totfact> 0.16868379E+03</totfact>
</mgrwt>
</event>
<event>
 6    1  0.1198667E-001  0.3000000E+03  0.7818608E-02  0.1093470E+00
         21   -1    0    0  501  502  0.00000000000E+00  0.00000000000E+00  0.33380367961E+01  0.33380367961E+01  0.00000000000E+00 0. -1.
         13   -1    0    0    0    0 -0.00000000000E+00 -0.00000000000E+00 -0.10000000000E+04  0.10000000000E+04  0.00000000000E+00 0.  1.
    9000005    2    1    2  501    0 -0.85568070823E+01  0.32326022563E+02 -0.90733996931E+03  0.90796189054E+03  0.32839118457E+01 0.  0.
         13    1    3    3    0    0 -0.67416764470E+01  0.28861927416E+02 -0.78451790722E+03  0.78507758076E+03  0.00000000000E+00 0.  1.
          1    1    3    3  501    0 -0.18151306353E+01  0.34640951469E+01 -0.12282206209E+03  0.12288430978E+03  0.00000000000E+00 0.  1.
         -1    1    1    2    0  502  0.85568070823E+01 -0.32326022563E+02 -0.89321993895E+02  0.95376146261E+02  0.00000000000E+00 0. -1.
<mgrwt>
<rscale>  1 0.30000000E+03</rscale>
<asrwt>0</asrwt>
<pdfrwt beam="1">  1       21 0.12138341E-01 0.30000000E+03</pdfrwt>
<pdfrwt beam="2">0</pdfrwt>
<totfact> 0.60694443E+03</totfact>
</mgrwt>
</event>
<event>
 6    1  0.1198667E-001  0.3000000E+03  0.7818608E-02  0.1093470E+00
         21   -1    0    0  501  502  0.00000000000E+00  0.00000000000E+00  0.94895433632E+00  0.94895433632E+00  0.00000000000E+00 0. -1.
         13   -1    0    0    0    0 -0.00000000000E+00 -0.00000000000E+00 -0.10000000000E+04  0.10000000000E+04  0.00000000000E+00 0.  1.
    9000005    2    1    2  501    0  0.15697972168E+02  0.26426338633E+02 -0.49420918745E+03  0.49517224520E+03  0.28379128208E+01 0.  0.
         13    1    3    3    0    0  0.57915489992E+01  0.10813165891E+02 -0.17693564485E+03  0.17736033665E+03  0.00000000000E+00 0.  1.
          1    1    3    3  501    0  0.99064231687E+01  0.15613172742E+02 -0.31727354260E+03  0.31781190855E+03  0.00000000000E+00 0.  1.
         -1    1    1    2    0  502 -0.15697972168E+02 -0.26426338633E+02 -0.50484185821E+03  0.50577670914E+03  0.00000000000E+00 0. -1.
<mgrwt>
<rscale>  1 0.30000000E+03</rscale>
<asrwt>0</asrwt>
<pdfrwt beam="1">  1       21 0.34507503E-02 0.30000000E+03</pdfrwt>
<pdfrwt beam="2">0</pdfrwt>
<totfact> 0.53879652E+04</totfact>
</mgrwt>
</event>
<event>
 6    1  0.1198667E-001  0.3000000E+03  0.7818608E-02  0.1093470E+00
         21   -1    0    0  501  502  0.00000000000E+00  0.00000000000E+00  0.10555015486E+01  0.10555015486E+01  0.00000000000E+00 0. -1.
         13   -1    0    0    0    0 -0.00000000000E+00 -0.00000000000E+00 -0.10000000000E+04  0.10000000000E+04  0.00000000000E+00 0.  1.
    9000005    2    1    2  501    0  0.32317112686E+02 -0.22490749909E+01 -0.51506933490E+03  0.51609712394E+03  0.32198562704E+01 0.  0.
         13    1    3    3    0    0  0.40426422539E+01 -0.23740681813E+00 -0.83245520568E+02  0.83343962067E+02  0.00000000000E+00 0.  1.
          1    1    3    3  501    0  0.28274470432E+02 -0.20116681728E+01 -0.43182381433E+03  0.43275316187E+03  0.00000000000E+00 0.  1.
         -1    1    1    2    0  502 -0.32317112686E+02  0.22490749909E+01 -0.48387516355E+03  0.48495837761E+03  0.00000000000E+00 0. -1.
<mgrwt>
<rscale>  1 0.30000000E+03</rscale>
<asrwt>0</asrwt>
<pdfrwt beam="1">  1       21 0.38381955E-02 0.30000000E+03</pdfrwt>
<pdfrwt beam="2">0</pdfrwt>
<totfact> 0.45072153E+04</totfact>
</mgrwt>
</event>
<event>
 6    1  0.1198667E-001  0.3000000E+03  0.7818608E-02  0.1093470E+00
         21   -1    0    0  501  502  0.00000000000E+00  0.00000000000E+00  0.11938829548E+01  0.11938829548E+01  0.00000000000E+00 0. -1.
         13   -1    0    0    0    0 -0.00000000000E+00 -0.00000000000E+00 -0.10000000000E+04  0.10000000000E+04  0.00000000000E+00 0.  1.
    9000005    2    1    2  501    0  0.28000544728E+02  0.12354140887E+02 -0.72825821509E+03  0.72892044952E+03  0.53233992909E+01 0.  0.
         13    1    3    3    0    0  0.76100559829E+01  0.25522416044E+01 -0.24762449233E+03  0.24775454808E+03  0.00000000000E+00 0.  1.
          3    1    3    3  501    0  0.20390488745E+02  0.98018992822E+01 -0.48063372276E+03  0.48116590144E+03  0.00000000000E+00 0.  1.
         -3    1    1    2    0  502 -0.28000544728E+02 -0.12354140887E+02 -0.27054790195E+03  0.27227343343E+03  0.00000000000E+00 0. -1.
<mgrwt>
<rscale>  1 0.30000000E+03</rscale>
<asrwt>0</asrwt>
<pdfrwt beam="1">  1       21 0.43414017E-02 0.30000000E+03</pdfrwt>
<pdfrwt beam="2">0</pdfrwt>
<totfact> 0.36618290E+04</totfact>
</mgrwt>
</event>
<event>
 6    1  0.1198667E-001  0.3000000E+03  0.7818608E-02  0.1093470E+00
         21   -1    0    0  501  502  0.00000000000E+00  0.00000000000E+00  0.67870693916E+01  0.67870693916E+01  0.00000000000E+00 0. -1.
         13   -1    0    0    0    0 -0.00000000000E+00 -0.00000000000E+00 -0.10000000000E+04  0.10000000000E+04  0.00000000000E+00 0.  1.
    9000005    2    1    2  501    0 -0.69410106334E+02  0.33012990402E+02 -0.67745310383E+03  0.68180724140E+03  0.32842252385E+01 0.  0.
         13    1    3    3    0    0 -0.38169523861E+02  0.16871898662E+02 -0.37787566665E+03  0.38017310920E+03  0.00000000000E+00 0.  1.
          3    1    3    3  501    0 -0.31240582473E+02  0.16141091740E+02 -0.29957743719E+03  0.30163413220E+03  0.00000000000E+00 0.  1.
         -1    1    1    2    0  502  0.69410106334E+02 -0.33012990402E+02 -0.31575982677E+03  0.32497982799E+03  0.00000000000E+00 0. -1.
<mgrwt>
<rscale>  1 0.30000000E+03</rscale>
<asrwt>0</asrwt>
<pdfrwt beam="1">  1       21 0.24680304E-01 0.30000000E+03</pdfrwt>
<pdfrwt beam="2">0</pdfrwt>
<totfact> 0.15993438E+03</totfact>
</mgrwt>
</event>
<event>
 6    1  0.1198667E-001  0.3000000E+03  0.7818608E-02  0.1093470E+00
         21   -1    0    0  501  502  0.00000000000E+00  0.00000000000E+00  0.15663206339E+01  0.15663206339E+01  0.00000000000E+00 0. -1.
         13   -1    0    0    0    0 -0.00000000000E+00 -0.00000000000E+00 -0.10000000000E+04  0.10000000000E+04  0.00000000000E+00 0.  1.
    9000005    2    1    2  501    0 -0.33998266076E+02 -0.11210455927E+02 -0.71173868340E+03  0.71264491760E+03  0.30444567672E+01 0.  0.
         13    1    3    3    0    0 -0.14619202299E+02 -0.62330901515E+01 -0.32897552110E+03  0.32935917472E+03  0.00000000000E+00 0.  1.
          3    1    3    3  501    0 -0.19379063777E+02 -0.49773657757E+01 -0.38276316230E+03  0.38328574289E+03  0.00000000000E+00 0.  1.
         -3    1    1    2    0  502  0.33998266076E+02  0.11210455927E+02 -0.28669499597E+03  0.28892140303E+03  0.00000000000E+00 0. -1.
<mgrwt>
<rscale>  1 0.30000000E+03</rscale>
<asrwt>0</asrwt>
<pdfrwt beam="1">  1       21 0.56957234E-02 0.30000000E+03</pdfrwt>
<pdfrwt beam="2">0</pdfrwt>
<totfact> 0.23047986E+04</totfact>
</mgrwt>
</event>
<event>
 6    1  0.1198667E-001  0.3000000E+03  0.7818608E-02  0.1093470E+00
         21   -1    0    0  501  502  0.00000000000E+00  0.00000000000E+00  0.27120721473E+01  0.27120721473E+01  0.00000000000E+00 0. -1.
         13   -1    0    0    0    0 -0.00000000000E+00 -0.00000000000E+00 -0.10000000000E+04  0.10000000000E+04  0.00000000000E+00 0.  1.
    9000005    2    1    2  501    0  0.31083419516E+02 -0.36870737051E+02 -0.68708649982E+03  0.68878444327E+03  0.32435837285E+01 0.  0.
         13    1    3    3    0    0  0.29555005202E+02 -0.35942487323E+02 -0.66441421726E+03  0.66604175006E+03  0.00000000000E+00 0.  1.
          3    1    3    3  501    0  0.15284143147E+01 -0.92824972737E+00 -0.22672282552E+02  0.22742693200E+02  0.00000000000E+00 0.  1.
         -1    1    1    2    0  502 -0.31083419516E+02  0.36870737051E+02 -0.31020142804E+03  0.31392762888E+03  0.00000000000E+00 0. -1.
<mgrwt>
<rscale>  1 0.30000000E+03</rscale>
<asrwt>0</asrwt>
<pdfrwt beam="1">  1       21 0.98621013E-02 0.30000000E+03</pdfrwt>
<pdfrwt beam="2">0</pdfrwt>
<totfact> 0.88192391E+03</totfact>
</mgrwt>
</event>
<event>
 6    1  0.1198667E-001  0.3000000E+03  0.7818608E-02  0.1093470E+00
         21   -1    0    0  501  502  0.00000000000E+00  0.00000000000E+00  0.13034662635E+01  0.13034662635E+01  0.00000000000E+00 0. -1.
         13   -1    0    0    0    0 -0.00000000000E+00 -0.00000000000E+00 -0.10000000000E+04  0.10000000000E+04  0.00000000000E+00 0.  1.
    9000005    2    1    2  501    0  0.15685147595E+02 -0.27918417994E+02 -0.72962049187E+03  0.73032859986E+03  0.28878524557E+01 0.  0.
         13    1    3    3    0    0  0.62036445619E+00 -0.26959258542E+01 -0.58513662775E+02  0.58579020132E+02  0.00000000000E+00 0.  1.
          1    1    3    3  501    0  0.15064783139E+02 -0.25222492140E+02 -0.67110682910E+03  0.67174957972E+03  0.00000000000E+00 0.  1.
         -3    1    1    2    0  502 -0.15685147595E+02  0.27918417994E+02 -0.26907604187E+03  0.27097486641E+03  0.00000000000E+00 0. -1.
<mgrwt>
<rscale>  1 0.30000000E+03</rscale>
<asrwt>0</asrwt>
<pdfrwt beam="1">  1       21 0.47398873E-02 0.30000000E+03</pdfrwt>
<pdfrwt beam="2">0</pdfrwt>
<totfact> 0.31547700E+04</totfact>
</mgrwt>
</event>
<event>
 6    1  0.1198667E-001  0.3000000E+03  0.7818608E-02  0.1093470E+00
         21   -1    0    0  501  502  0.00000000000E+00  0.00000000000E+00  0.19787209036E+01  0.19787209036E+01  0.00000000000E+00 0. -1.
         13   -1    0    0    0    0 -0.00000000000E+00 -0.00000000000E+00 -0.10000000000E+04  0.10000000000E+04  0.00000000000E+00 0.  1.
    9000005    2    1    2  501    0 -0.40694635661E+02 -0.17763925071E+02 -0.50860228078E+03  0.51054961481E+03  0.36081518491E+01 0.  0.
         13    1    3    3    0    0 -0.29175031748E+02 -0.13534196757E+02 -0.35105766806E+03  0.35252779077E+03  0.00000000000E+00 0.  1.
          3    1    3    3  501    0 -0.11519603913E+02 -0.42297283134E+01 -0.15754461272E+03  0.15802182404E+03  0.00000000000E+00 0.  1.
         -3    1    1    2    0  502  0.40694635661E+02  0.17763925071E+02 -0.48941899832E+03  0.49142910610E+03  0.00000000000E+00 0. -1.
<mgrwt>
<rscale>  1 0.30000000E+03</rscale>
<asrwt>0</asrwt>
<pdfrwt beam="1">  1       21 0.71953639E-02 0.30000000E+03</pdfrwt>
<pdfrwt beam="2">0</pdfrwt>
<totfact> 0.15379685E+04</totfact>
</mgrwt>
</event>
<event>
 6    1  0.1198667E-001  0.3000000E+03  0.7818608E-02  0.1093470E+00
         21   -1    0    0  501  502  0.00000000000E+00  0.00000000000E+00  0.10779624141E+01  0.10779624141E+01  0.00000000000E+00 0. -1.
         13   -1    0    0    0    0 -0.00000000000E+00 -0.00000000000E+00 -0.10000000000E+04  0.10000000000E+04  0.00000000000E+00 0.  1.
    9000005    2    1    2  501    0 -0.26976300075E+02 -0.14278297884E+02 -0.68112412842E+03  0.68181772119E+03  0.37062186614E+01 0.  0.
         13    1    3    3    0    0 -0.23463606702E+02 -0.13582012949E+02 -0.61373898687E+03  0.61433749350E+03  0.00000000000E+00 0.  1.
          1    1    3    3  501    0 -0.35126933732E+01 -0.69628493542E+00 -0.67385141549E+02  0.67480227690E+02  0.00000000000E+00 0.  1.
         -3    1    1    2    0  502  0.26976300075E+02  0.14278297884E+02 -0.31779790917E+03  0.31926024123E+03  0.00000000000E+00 0. -1.
<mgrwt>
<rscale>  1 0.30000000E+03</rscale>
<asrwt>0</asrwt>
<pdfrwt beam="1">  1       21 0.39198716E-02 0.30000000E+03</pdfrwt>
<pdfrwt beam="2">0</pdfrwt>
<totfact> 0.43504136E+04</totfact>
</mgrwt>
</event>
<event>
 6    1  0.1198667E-001  0.3000000E+03  0.7818608E-02  0.1093470E+00
         21   -1    0    0  501  502  0.00000000000E+00  0.00000000000E+00  0.20350596248E+01  0.20350596248E+01  0.00000000000E+00 0. -1.
         13   -1    0    0    0    0 -0.00000000000E+00 -0.00000000000E+00 -0.10000000000E+04  0.10000000000E+04  0.00000000000E+00 0.  1.
    9000005    2    1    2  501    0  0.30162476611E+02  0.29722437492E+02 -0.67080394916E+03  0.67214490752E+03  0.27640919693E+01 0.  0.
         13    1    3    3    0    0  0.29715414988E+02  0.28980105902E+02 -0.65089283073E+03  0.65221494120E+03  0.00000000000E+00 0.  1.
          3    1    3    3  501    0  0.44706162331E+00  0.74233158975E+00 -0.19911118427E+02  0.19929966315E+02  0.00000000000E+00 0.  1.
         -1    1    1    2    0  502 -0.30162476611E+02 -0.29722437492E+02 -0.32716099121E+03  0.32989015211E+03  0.00000000000E+00 0. -1.
<mgrwt>
<rscale>  1 0.30000000E+03</rscale>
<asrwt>0</asrwt>
<pdfrwt beam="1">  1       21 0.74002324E-02 0.30000000E+03</pdfrwt>
<pdfrwt beam="2">0</pdfrwt>
<totfact> 0.14643683E+04</totfact>
</mgrwt>
</event>
<event>
 6    1  0.1198667E-001  0.3000000E+03  0.7818608E-02  0.1093470E+00
         21   -1    0    0  501  502  0.00000000000E+00  0.00000000000E+00  0.90248145529E+01  0.90248145529E+01  0.00000000000E+00 0. -1.
         13   -1    0    0    0    0 -0.00000000000E+00 -0.00000000000E+00 -0.10000000000E+04  0.10000000000E+04  0.00000000000E+00 0.  1.
    9000005    2    1    2  501    0  0.81327485130E+02  0.79653065619E+01 -0.75198831754E+03  0.75645338114E+03  0.75948778099E+01 0.  0.
         13    1    3    3    0    0  0.68285990740E+02  0.87005577334E+01 -0.61323059304E+03  0.61708219588E+03  0.00000000000E+00 0.  1.
          3    1    3    3  501    0  0.13041494390E+02 -0.73525117156E+00 -0.13875772450E+03  0.13937118526E+03  0.00000000000E+00 0.  1.
         -3    1    1    2    0  502 -0.81327485130E+02 -0.79653065619E+01 -0.23898686790E+03  0.25257143341E+03  0.00000000000E+00 0. -1.
<mgrwt>
<rscale>  1 0.30000000E+03</rscale>
<asrwt>0</asrwt>
<pdfrwt beam="1">  1       21 0.32817577E-01 0.30000000E+03</pdfrwt>
<pdfrwt beam="2">0</pdfrwt>
<totfact> 0.90738040E+02</totfact>
</mgrwt>
</event>
<event>
 6    1  0.1198667E-001  0.3000000E+03  0.7818608E-02  0.1093470E+00
         21   -1    0    0  501  502  0.00000000000E+00  0.00000000000E+00  0.35041069371E+01  0.35041069371E+01  0.00000000000E+00 0. -1.
         13   -1    0    0    0    0 -0.00000000000E+00 -0.00000000000E+00 -0.10000000000E+04  0.10000000000E+04  0.00000000000E+00 0.  1.
    9000005    2    1    2  501    0 -0.10807057629E+02  0.33300750699E+02 -0.90188174205E+03  0.90262016340E+03  0.10332000813E+02 0.  0.
         13    1    3    3    0    0 -0.98293814699E-01  0.40776343648E+01 -0.20895404203E+03  0.20899384786E+03  0.00000000000E+00 0.  1.
          1    1    3    3  501    0 -0.10708763814E+02  0.29223116335E+02 -0.69292770002E+03  0.69362631554E+03  0.00000000000E+00 0.  1.
         -1    1    1    2    0  502  0.10807057629E+02 -0.33300750699E+02 -0.94614151012E+02  0.10088394354E+03  0.00000000000E+00 0. -1.
<mgrwt>
<rscale>  1 0.30000000E+03</rscale>
<asrwt>0</asrwt>
<pdfrwt beam="1">  1       21 0.12742234E-01 0.30000000E+03</pdfrwt>
<pdfrwt beam="2">0</pdfrwt>
<totfact> 0.55559119E+03</totfact>
</mgrwt>
</event>
<event>
 6    1  0.1198667E-001  0.3000000E+03  0.7818608E-02  0.1093470E+00
         21   -1    0    0  501  502  0.00000000000E+00  0.00000000000E+00  0.37340711701E+01  0.37340711701E+01  0.00000000000E+00 0. -1.
         13   -1    0    0    0    0 -0.00000000000E+00 -0.00000000000E+00 -0.10000000000E+04  0.10000000000E+04  0.00000000000E+00 0.  1.
    9000005    2    1    2  501    0  0.59587472611E+02  0.13501397844E+01 -0.59919527447E+03  0.60221496288E+03  0.86830177742E+01 0.  0.
         13    1    3    3    0    0  0.54580727897E+02  0.35018392191E+01 -0.53472787105E+03  0.53751764139E+03  0.00000000000E+00 0.  1.
          3    1    3    3  501    0  0.50067447141E+01 -0.21516994347E+01 -0.64467403421E+02  0.64697321481E+02  0.00000000000E+00 0.  1.
         -1    1    1    2    0  502 -0.59587472611E+02 -0.13501397844E+01 -0.39707065436E+03  0.40151910829E+03  0.00000000000E+00 0. -1.
<mgrwt>
<rscale>  1 0.30000000E+03</rscale>
<asrwt>0</asrwt>
<pdfrwt beam="1">  1       21 0.13578469E-01 0.30000000E+03</pdfrwt>
<pdfrwt beam="2">0</pdfrwt>
<totfact> 0.49465037E+03</totfact>
</mgrwt>
</event>
<event>
 6    1  0.1198667E-001  0.3000000E+03  0.7818608E-02  0.1093470E+00
         21   -1    0    0  501  502  0.00000000000E+00  0.00000000000E+00  0.22959942010E+01  0.22959942010E+01  0.00000000000E+00 0. -1.
         13   -1    0    0    0    0 -0.00000000000E+00 -0.00000000000E+00 -0.10000000000E+04  0.10000000000E+04  0.00000000000E+00 0.  1.
    9000005    2    1    2  501    0  0.17853271320E+02 -0.39904329106E+02 -0.69909451223E+03  0.70050347536E+03  0.78030240651E+01 0.  0.
         13    1    3    3    0    0  0.46970704706E+01 -0.42347421783E+01 -0.11362806772E+03  0.11380392474E+03  0.00000000000E+00 0.  1.
          1    1    3    3  501    0  0.13156200849E+02 -0.35669586928E+02 -0.58546644451E+03  0.58669955062E+03  0.00000000000E+00 0.  1.
         -1    1    1    2    0  502 -0.17853271320E+02  0.39904329106E+02 -0.29860949357E+03  0.30179251884E+03  0.00000000000E+00 0. -1.
<mgrwt>
<rscale>  1 0.30000000E+03</rscale>
<asrwt>0</asrwt>
<pdfrwt beam="1">  1       21 0.83490874E-02 0.30000000E+03</pdfrwt>
<pdfrwt beam="2">0</pdfrwt>
<totfact> 0.11849492E+04</totfact>
</mgrwt>
</event>
<event>
 6    1  0.1198667E-001  0.3000000E+03  0.7818608E-02  0.1093470E+00
         21   -1    0    0  501  502  0.00000000000E+00  0.00000000000E+00  0.77550636211E+01  0.77550636211E+01  0.00000000000E+00 0. -1.
         13   -1    0    0    0    0 -0.00000000000E+00 -0.00000000000E+00 -0.10000000000E+04  0.10000000000E+04  0.00000000000E+00 0.  1.
    9000005    2    1    2  501    0  0.19413846108E+02 -0.69415671306E+02 -0.78519783347E+03  0.78852017664E+03  0.57444277670E+01 0.  0.
         13    1    3    3    0    0  0.11383259423E+02 -0.49053146560E+02 -0.53197991653E+03  0.53435795247E+03  0.00000000000E+00 0.  1.
          1    1    3    3  501    0  0.80305866854E+01 -0.20362524746E+02 -0.25321791694E+03  0.25416222417E+03  0.00000000000E+00 0.  1.
         -1    1    1    2    0  502 -0.19413846108E+02  0.69415671306E+02 -0.20704710291E+03  0.21923488698E+03  0.00000000000E+00 0. -1.
<mgrwt>
<rscale>  1 0.30000000E+03</rscale>
<asrwt>0</asrwt>
<pdfrwt beam="1">  1       21 0.28200291E-01 0.30000000E+03</pdfrwt>
<pdfrwt beam="2">0</pdfrwt>
<totfact> 0.12298871E+03</totfact>
</mgrwt>
</event>
<event>
 6    1  0.1198667E-001  0.3000000E+03  0.7818608E-02  0.1093470E+00
         21   -1    0    0  501  502  0.00000000000E+00  0.00000000000E+00  0.17380165445E+01  0.17380165445E+01  0.00000000000E+00 0. -1.
         13   -1    0    0    0    0 -0.00000000000E+00 -0.00000000000E+00 -0.10000000000E+04  0.10000000000E+04  0.00000000000E+00 0.  1.
    9000005    2    1    2  501    0  0.12502067069E+02  0.30965437180E+02 -0.79853031284E+03  0.79923394195E+03  0.30122182180E+01 0.  0.
         13    1    3    3    0    0  0.42492970289E+01  0.90740416677E+01 -0.27079820434E+03  0.27098350915E+03  0.00000000000E+00 0.  1.
          3    1    3    3  501    0  0.82527700405E+01  0.21891395512E+02 -0.52773210851E+03  0.52825043281E+03  0.00000000000E+00 0.  1.
         -1    1    1    2    0  502 -0.12502067069E+02 -0.30965437180E+02 -0.19973167061E+03  0.20250407459E+03  0.00000000000E+00 0. -1.
<mgrwt>
<rscale>  1 0.30000000E+03</rscale>
<asrwt>0</asrwt>
<pdfrwt beam="1">  1       21 0.63200735E-02 0.30000000E+03</pdfrwt>
<pdfrwt beam="2">0</pdfrwt>
<totfact> 0.19263192E+04</totfact>
</mgrwt>
</event>
<event>
 6    1  0.1198667E-001  0.3000000E+03  0.7818608E-02  0.1093470E+00
         21   -1    0    0  501  502  0.00000000000E+00  0.00000000000E+00  0.12393098861E+01  0.12393098861E+01  0.00000000000E+00 0. -1.
         13   -1    0    0    0    0 -0.00000000000E+00 -0.00000000000E+00 -0.10000000000E+04  0.10000000000E+04  0.00000000000E+00 0.  1.
    9000005    2    1    2  501    0 -0.28900879117E+02 -0.10599701084E+02 -0.74163862046E+03  0.74228106387E+03  0.23916405830E+01 0.  0.
         13    1    3    3    0    0 -0.19917591253E+02 -0.81292225115E+01 -0.53580540584E+03  0.53623710020E+03  0.00000000000E+00 0.  1.
          1    1    3    3  501    0 -0.89832878642E+01 -0.24704785725E+01 -0.20583321462E+03  0.20604396367E+03  0.00000000000E+00 0.  1.
         -1    1    1    2    0  502  0.28900879117E+02  0.10599701084E+02 -0.25712206966E+03  0.25895824602E+03  0.00000000000E+00 0. -1.
<mgrwt>
<rscale>  1 0.30000000E+03</rscale>
<asrwt>0</asrwt>
<pdfrwt beam="1">  1       21 0.45065909E-02 0.30000000E+03</pdfrwt>
<pdfrwt beam="2">0</pdfrwt>
<totfact> 0.34372712E+04</totfact>
</mgrwt>
</event>
<event>
 6    1  0.1198667E-001  0.3000000E+03  0.7818608E-02  0.1093470E+00
         21   -1    0    0  501  502  0.00000000000E+00  0.00000000000E+00  0.14204895672E+01  0.14204895672E+01  0.00000000000E+00 0. -1.
         13   -1    0    0    0    0 -0.00000000000E+00 -0.00000000000E+00 -0.10000000000E+04  0.10000000000E+04  0.00000000000E+00 0.  1.
    9000005    2    1    2  501    0  0.21709881823E+02 -0.28278686181E+02 -0.33986713178E+03  0.34174405308E+03  0.28857395808E+01 0.  0.
         13    1    3    3    0    0  0.17387749987E+02 -0.20616390459E+02 -0.25535322306E+03  0.25677351485E+03  0.00000000000E+00 0.  1.
          3    1    3    3  501    0  0.43221318366E+01 -0.76622957216E+01 -0.84513908722E+02  0.84970538228E+02  0.00000000000E+00 0.  1.
         -1    1    1    2    0  502 -0.21709881823E+02  0.28278686181E+02 -0.65871237865E+03  0.65967643649E+03  0.00000000000E+00 0. -1.
<mgrwt>
<rscale>  1 0.30000000E+03</rscale>
<asrwt>0</asrwt>
<pdfrwt beam="1">  1       21 0.51654275E-02 0.30000000E+03</pdfrwt>
<pdfrwt beam="2">0</pdfrwt>
<totfact> 0.27248582E+04</totfact>
</mgrwt>
</event>
<event>
 6    1  0.1198667E-001  0.3000000E+03  0.7818608E-02  0.1093470E+00
         21   -1    0    0  501  502  0.00000000000E+00  0.00000000000E+00  0.40594202091E+01  0.40594202091E+01  0.00000000000E+00 0. -1.
         13   -1    0    0    0    0 -0.00000000000E+00 -0.00000000000E+00 -0.10000000000E+04  0.10000000000E+04  0.00000000000E+00 0.  1.
    9000005    2    1    2  501    0  0.44758613320E+02  0.24004679696E+02 -0.80089551625E+03  0.80251008400E+03  0.30411943131E+01 0.  0.
         13    1    3    3    0    0  0.11310173780E+02  0.70465116048E+01 -0.22647494366E+03  0.22686664246E+03  0.00000000000E+00 0.  1.
          1    1    3    3  501    0  0.33448439541E+02  0.16958168092E+02 -0.57442057259E+03  0.57564344154E+03  0.00000000000E+00 0.  1.
         -3    1    1    2    0  502 -0.44758613320E+02 -0.24004679696E+02 -0.19504506354E+03  0.20154933621E+03  0.00000000000E+00 0. -1.
<mgrwt>
<rscale>  1 0.30000000E+03</rscale>
<asrwt>0</asrwt>
<pdfrwt beam="1">  1       21 0.14761559E-01 0.30000000E+03</pdfrwt>
<pdfrwt beam="2">0</pdfrwt>
<totfact> 0.42418803E+03</totfact>
</mgrwt>
</event>
<event>
 6    1  0.1198667E-001  0.3000000E+03  0.7818608E-02  0.1093470E+00
         21   -1    0    0  501  502  0.00000000000E+00  0.00000000000E+00  0.46377292474E+01  0.46377292474E+01  0.00000000000E+00 0. -1.
         13   -1    0    0    0    0 -0.00000000000E+00 -0.00000000000E+00 -0.10000000000E+04  0.10000000000E+04  0.00000000000E+00 0.  1.
    9000005    2    1    2  501    0  0.30072325972E+02  0.46522220784E+02 -0.21292810537E+03  0.22024504380E+03  0.10041884713E+02 0.  0.
         13    1    3    3    0    0  0.17904994447E+02  0.22490049893E+02 -0.93631692880E+02  0.97945316794E+02  0.00000000000E+00 0.  1.
          1    1    3    3  501    0  0.12167331525E+02  0.24032170891E+02 -0.11929641249E+03  0.12229972701E+03  0.00000000000E+00 0.  1.
         -3    1    1    2    0  502 -0.30072325972E+02 -0.46522220784E+02 -0.78243416539E+03  0.78439268545E+03  0.00000000000E+00 0. -1.
<mgrwt>
<rscale>  1 0.30000000E+03</rscale>
<asrwt>0</asrwt>
<pdfrwt beam="1">  1       21 0.16864506E-01 0.30000000E+03</pdfrwt>
<pdfrwt beam="2">0</pdfrwt>
<totfact> 0.33107545E+03</totfact>
</mgrwt>
</event>
<event>
 6    1  0.1198667E-001  0.3000000E+03  0.7818608E-02  0.1093470E+00
         21   -1    0    0  501  502  0.00000000000E+00  0.00000000000E+00  0.34675985442E+01  0.34675985442E+01  0.00000000000E+00 0. -1.
         13   -1    0    0    0    0 -0.00000000000E+00 -0.00000000000E+00 -0.10000000000E+04  0.10000000000E+04  0.00000000000E+00 0.  1.
    9000005    2    1    2  501    0  0.30532329500E+02  0.98104330302E+01 -0.91883358949E+03  0.91941063499E+03  0.56817970391E+01 0.  0.
         13    1    3    3    0    0  0.29493400452E+02  0.82511842164E+01 -0.85000967088E+03  0.85056121667E+03  0.00000000000E+00 0.  1.
          1    1    3    3  501    0  0.10389290481E+01  0.15592488138E+01 -0.68823918609E+02  0.68849418320E+02  0.00000000000E+00 0.  1.
         -1    1    1    2    0  502 -0.30532329500E+02 -0.98104330302E+01 -0.77698811963E+02  0.84056963551E+02  0.00000000000E+00 0. -1.
<mgrwt>
<rscale>  1 0.30000000E+03</rscale>
<asrwt>0</asrwt>
<pdfrwt beam="1">  1       21 0.12609476E-01 0.30000000E+03</pdfrwt>
<pdfrwt beam="2">0</pdfrwt>
<totfact> 0.56630097E+03</totfact>
</mgrwt>
</event>
<event>
 6    1  0.1198667E-001  0.3000000E+03  0.7818608E-02  0.1093470E+00
         21   -1    0    0  501  502  0.00000000000E+00  0.00000000000E+00  0.22996238636E+01  0.22996238636E+01  0.00000000000E+00 0. -1.
         13   -1    0    0    0    0 -0.00000000000E+00 -0.00000000000E+00 -0.10000000000E+04  0.10000000000E+04  0.00000000000E+00 0.  1.
    9000005    2    1    2  501    0 -0.30188162696E+02  0.37066017032E+02 -0.46626013646E+03  0.46871369533E+03  0.29662348617E+01 0.  0.
         13    1    3    3    0    0 -0.28382728485E+02  0.34610256316E+02 -0.42881042571E+03  0.43114015159E+03  0.00000000000E+00 0.  1.
          3    1    3    3  501    0 -0.18054342101E+01  0.24557607163E+01 -0.37449710755E+02  0.37573543738E+02  0.00000000000E+00 0.  1.
         -3    1    1    2    0  502  0.30188162696E+02 -0.37066017032E+02 -0.53144023968E+03  0.53358592854E+03  0.00000000000E+00 0. -1.
<mgrwt>
<rscale>  1 0.30000000E+03</rscale>
<asrwt>0</asrwt>
<pdfrwt beam="1">  1       21 0.83622862E-02 0.30000000E+03</pdfrwt>
<pdfrwt beam="2">0</pdfrwt>
<totfact> 0.11816571E+04</totfact>
</mgrwt>
</event>
<event>
 6    1  0.1198667E-001  0.3000000E+03  0.7818608E-02  0.1093470E+00
         21   -1    0    0  501  502  0.00000000000E+00  0.00000000000E+00  0.10784881144E+01  0.10784881144E+01  0.00000000000E+00 0. -1.
         13   -1    0    0    0    0 -0.00000000000E+00 -0.00000000000E+00 -0.10000000000E+04  0.10000000000E+04  0.00000000000E+00 0.  1.
    9000005    2    1    2  501    0 -0.12619841846E+02 -0.29665053088E+02 -0.58845870752E+03  0.58935164960E+03  0.35271306818E+01 0.  0.
         13    1    3    3    0    0 -0.31455487757E+00 -0.31264425953E+01 -0.49443300564E+02  0.49543047532E+02  0.00000000000E+00 0.  1.
          1    1    3    3  501    0 -0.12305286968E+02 -0.26538610492E+02 -0.53901540696E+03  0.53980860207E+03  0.00000000000E+00 0.  1.
         -3    1    1    2    0  502  0.12619841846E+02  0.29665053088E+02 -0.41046280437E+03  0.41172683851E+03  0.00000000000E+00 0. -1.
<mgrwt>
<rscale>  1 0.30000000E+03</rscale>
<asrwt>0</asrwt>
<pdfrwt beam="1">  1       21 0.39217832E-02 0.30000000E+03</pdfrwt>
<pdfrwt beam="2">0</pdfrwt>
<totfact> 0.43468465E+04</totfact>
</mgrwt>
</event>
<event>
 6    1  0.1198667E-001  0.3000000E+03  0.7818608E-02  0.1093470E+00
         21   -1    0    0  501  502  0.00000000000E+00  0.00000000000E+00  0.20862787020E+01  0.20862787020E+01  0.00000000000E+00 0. -1.
         13   -1    0    0    0    0 -0.00000000000E+00 -0.00000000000E+00 -0.10000000000E+04  0.10000000000E+04  0.00000000000E+00 0.  1.
    9000005    2    1    2  501    0  0.30274928431E+02  0.21128289736E+01 -0.87321596160E+03  0.87374857336E+03  0.30689614752E+01 0.  0.
         13    1    3    3    0    0  0.22498688924E+02  0.18977126835E+01 -0.61015374869E+03  0.61057136304E+03  0.00000000000E+00 0.  1.
          1    1    3    3  501    0  0.77762395071E+01  0.21511629001E+00 -0.26306221290E+03  0.26317721032E+03  0.00000000000E+00 0.  1.
         -3    1    1    2    0  502 -0.30274928431E+02 -0.21128289736E+01 -0.12469775970E+03  0.12833770534E+03  0.00000000000E+00 0. -1.
<mgrwt>
<rscale>  1 0.30000000E+03</rscale>
<asrwt>0</asrwt>
<pdfrwt beam="1">  1       21 0.75864840E-02 0.30000000E+03</pdfrwt>
<pdfrwt beam="2">0</pdfrwt>
<totfact> 0.14020107E+04</totfact>
</mgrwt>
</event>
<event>
 6    1  0.1198667E-001  0.3000000E+03  0.7818608E-02  0.1093470E+00
         21   -1    0    0  501  502  0.00000000000E+00  0.00000000000E+00  0.94947754901E+00  0.94947754901E+00  0.00000000000E+00 0. -1.
         13   -1    0    0    0    0 -0.00000000000E+00 -0.00000000000E+00 -0.10000000000E+04  0.10000000000E+04  0.00000000000E+00 0.  1.
    9000005    2    1    2  501    0  0.30423233606E+02  0.28891183358E+01 -0.45593373716E+03  0.45697359333E+03  0.39207361358E+01 0.  0.
         13    1    3    3    0    0  0.21934498499E+02  0.21902392127E+01 -0.35331145554E+03  0.35399845195E+03  0.00000000000E+00 0.  1.
          3    1    3    3  501    0  0.84887351071E+01  0.69887912313E+00 -0.10262228163E+03  0.10297514138E+03  0.00000000000E+00 0.  1.
         -3    1    1    2    0  502 -0.30423233606E+02 -0.28891183358E+01 -0.54311678529E+03  0.54397588422E+03  0.00000000000E+00 0. -1.
<mgrwt>
<rscale>  1 0.30000000E+03</rscale>
<asrwt>0</asrwt>
<pdfrwt beam="1">  1       21 0.34526529E-02 0.30000000E+03</pdfrwt>
<pdfrwt beam="2">0</pdfrwt>
<totfact> 0.53829994E+04</totfact>
</mgrwt>
</event>
<event>
 6    1  0.1198667E-001  0.3000000E+03  0.7818608E-02  0.1093470E+00
         21   -1    0    0  501  502  0.00000000000E+00  0.00000000000E+00  0.27787457049E+01  0.27787457049E+01  0.00000000000E+00 0. -1.
         13   -1    0    0    0    0 -0.00000000000E+00 -0.00000000000E+00 -0.10000000000E+04  0.10000000000E+04  0.00000000000E+00 0.  1.
    9000005    2    1    2  501    0 -0.14286086362E+02  0.47250466389E+02 -0.32457426686E+03  0.32832291428E+03  0.32836711251E+01 0.  0.
         13    1    3    3    0    0 -0.87873620922E+00  0.55102601996E+01 -0.41655034598E+02  0.42027099021E+02  0.00000000000E+00 0.  1.
          3    1    3    3  501    0 -0.13407350153E+02  0.41740206189E+02 -0.28291923226E+03  0.28629581526E+03  0.00000000000E+00 0.  1.
         -1    1    1    2    0  502  0.14286086362E+02 -0.47250466389E+02 -0.67264698743E+03  0.67445583142E+03  0.00000000000E+00 0. -1.
<mgrwt>
<rscale>  1 0.30000000E+03</rscale>
<asrwt>0</asrwt>
<pdfrwt beam="1">  1       21 0.10104551E-01 0.30000000E+03</pdfrwt>
<pdfrwt beam="2">0</pdfrwt>
<totfact> 0.84447381E+03</totfact>
</mgrwt>
</event>
<event>
 6    1  0.1198667E-001  0.3000000E+03  0.7818608E-02  0.1093470E+00
         21   -1    0    0  501  502  0.00000000000E+00  0.00000000000E+00  0.21438844817E+01  0.21438844817E+01  0.00000000000E+00 0. -1.
         13   -1    0    0    0    0 -0.00000000000E+00 -0.00000000000E+00 -0.10000000000E+04  0.10000000000E+04  0.00000000000E+00 0.  1.
    9000005    2    1    2  501    0 -0.62490639221E+01  0.45711077048E+02 -0.46476803718E+03  0.46706309373E+03  0.31704535713E+01 0.  0.
         13    1    3    3    0    0 -0.35381456360E+01  0.32001082487E+02 -0.33589721763E+03  0.33743670305E+03  0.00000000000E+00 0.  1.
          1    1    3    3  501    0 -0.27109182861E+01  0.13709994561E+02 -0.12887081956E+03  0.12962639069E+03  0.00000000000E+00 0.  1.
         -3    1    1    2    0  502  0.62490639221E+01 -0.45711077048E+02 -0.53308807833E+03  0.53508079075E+03  0.00000000000E+00 0. -1.
<mgrwt>
<rscale>  1 0.30000000E+03</rscale>
<asrwt>0</asrwt>
<pdfrwt beam="1">  1       21 0.77959600E-02 0.30000000E+03</pdfrwt>
<pdfrwt beam="2">0</pdfrwt>
<totfact> 0.13366468E+04</totfact>
</mgrwt>
</event>
<event>
 6    1  0.1198667E-001  0.3000000E+03  0.7818608E-02  0.1093470E+00
         21   -1    0    0  501  502  0.00000000000E+00  0.00000000000E+00  0.72532402469E+01  0.72532402469E+01  0.00000000000E+00 0. -1.
         13   -1    0    0    0    0 -0.00000000000E+00 -0.00000000000E+00 -0.10000000000E+04  0.10000000000E+04  0.00000000000E+00 0.  1.
    9000005    2    1    2  501    0  0.53379975916E+01 -0.84569072732E+02 -0.52434111512E+03  0.53124455313E+03  0.10331889959E+02 0.  0.
         13    1    3    3    0    0  0.71566562461E+01 -0.49308734307E+02 -0.32593554351E+03  0.32972192455E+03  0.00000000000E+00 0.  1.
          3    1    3    3  501    0 -0.18186586545E+01 -0.35260338425E+02 -0.19840557161E+03  0.20152262858E+03  0.00000000000E+00 0.  1.
         -1    1    1    2    0  502 -0.53379975916E+01  0.84569072732E+02 -0.46840564463E+03  0.47600868711E+03  0.00000000000E+00 0. -1.
<mgrwt>
<rscale>  1 0.30000000E+03</rscale>
<asrwt>0</asrwt>
<pdfrwt beam="1">  1       21 0.26375475E-01 0.30000000E+03</pdfrwt>
<pdfrwt beam="2">0</pdfrwt>
<totfact> 0.14038144E+03</totfact>
</mgrwt>
</event>
<event>
 6    1  0.1198667E-001  0.3000000E+03  0.7818608E-02  0.1093470E+00
         21   -1    0    0  501  502  0.00000000000E+00  0.00000000000E+00  0.17465947915E+01  0.17465947915E+01  0.00000000000E+00 0. -1.
         13   -1    0    0    0    0 -0.00000000000E+00 -0.00000000000E+00 -0.10000000000E+04  0.10000000000E+04  0.00000000000E+00 0.  1.
    9000005    2    1    2  501    0 -0.67408554441E+01  0.33266281171E+02 -0.79073733310E+03  0.79147295218E+03  0.34379462099E+01 0.  0.
         13    1    3    3    0    0  0.41274698192E+00  0.18076252002E+01 -0.42481502004E+02  0.42521945881E+02  0.00000000000E+00 0.  1.
          1    1    3    3  501    0 -0.71536024260E+01  0.31458655971E+02 -0.74825583110E+03  0.74895100630E+03  0.00000000000E+00 0.  1.
         -1    1    1    2    0  502  0.67408554441E+01 -0.33266281171E+02 -0.20751607210E+03  0.21027364261E+03  0.00000000000E+00 0. -1.
<mgrwt>
<rscale>  1 0.30000000E+03</rscale>
<asrwt>0</asrwt>
<pdfrwt beam="1">  1       21 0.63512672E-02 0.30000000E+03</pdfrwt>
<pdfrwt beam="2">0</pdfrwt>
<totfact> 0.19099911E+04</totfact>
</mgrwt>
</event>
<event>
 6    1  0.1198667E-001  0.3000000E+03  0.7818608E-02  0.1093470E+00
         21   -1    0    0  501  502  0.00000000000E+00  0.00000000000E+00  0.11283489258E+01  0.11283489258E+01  0.00000000000E+00 0. -1.
         13   -1    0    0    0    0 -0.00000000000E+00 -0.00000000000E+00 -0.10000000000E+04  0.10000000000E+04  0.00000000000E+00 0.  1.
    9000005    2    1    2  501    0  0.31562812046E+01  0.31815062971E+02 -0.64048997794E+03  0.64132342403E+03  0.67942638597E+01 0.  0.
         13    1    3    3    0    0  0.11108329398E+00  0.22392578836E+02 -0.48680442584E+03  0.48731918590E+03  0.00000000000E+00 0.  1.
          1    1    3    3  501    0  0.30451979106E+01  0.94224841355E+01 -0.15368555210E+03  0.15400423813E+03  0.00000000000E+00 0.  1.
         -1    1    1    2    0  502 -0.31562812046E+01 -0.31815062971E+02 -0.35838167313E+03  0.35980492490E+03  0.00000000000E+00 0. -1.
<mgrwt>
<rscale>  1 0.30000000E+03</rscale>
<asrwt>0</asrwt>
<pdfrwt beam="1">  1       21 0.41030957E-02 0.30000000E+03</pdfrwt>
<pdfrwt beam="2">0</pdfrwt>
<totfact> 0.40282335E+04</totfact>
</mgrwt>
</event>
<event>
 6    1  0.1198667E-001  0.3000000E+03  0.7818608E-02  0.1093470E+00
         21   -1    0    0  501  502  0.00000000000E+00  0.00000000000E+00  0.25738348094E+01  0.25738348094E+01  0.00000000000E+00 0. -1.
         13   -1    0    0    0    0 -0.00000000000E+00 -0.00000000000E+00 -0.10000000000E+04  0.10000000000E+04  0.00000000000E+00 0.  1.
    9000005    2    1    2  501    0  0.27430926002E+02  0.31166046352E+02 -0.78614895097E+03  0.78725583882E+03  0.42195383833E+01 0.  0.
         13    1    3    3    0    0  0.24765730122E+02  0.28864709426E+02 -0.73716861672E+03  0.73814909220E+03  0.00000000000E+00 0.  1.
          3    1    3    3  501    0  0.26651958794E+01  0.23013369255E+01 -0.48980334252E+02  0.49106746626E+02  0.00000000000E+00 0.  1.
         -1    1    1    2    0  502 -0.27430926002E+02 -0.31166046352E+02 -0.21127721422E+03  0.21531799599E+03  0.00000000000E+00 0. -1.
<mgrwt>
<rscale>  1 0.30000000E+03</rscale>
<asrwt>0</asrwt>
<pdfrwt beam="1">  1       21 0.93594190E-02 0.30000000E+03</pdfrwt>
<pdfrwt beam="2">0</pdfrwt>
<totfact> 0.96812463E+03</totfact>
</mgrwt>
</event>
<event>
 6    1  0.1198667E-001  0.3000000E+03  0.7818608E-02  0.1093470E+00
         21   -1    0    0  501  502  0.00000000000E+00  0.00000000000E+00  0.44391708039E+01  0.44391708039E+01  0.00000000000E+00 0. -1.
         13   -1    0    0    0    0 -0.00000000000E+00 -0.00000000000E+00 -0.10000000000E+04  0.10000000000E+04  0.00000000000E+00 0.  1.
    9000005    2    1    2  501    0 -0.22975401930E+01 -0.34049041931E+02 -0.92904561042E+03  0.92968028988E+03  0.38831963101E+01 0.  0.
         13    1    3    3    0    0 -0.26825469863E+01 -0.12163539976E+02 -0.33216537492E+03  0.33239883282E+03  0.00000000000E+00 0.  1.
          1    1    3    3  501    0  0.38500679331E+00 -0.21885501955E+02 -0.59688023550E+03  0.59728145706E+03  0.00000000000E+00 0.  1.
         -1    1    1    2    0  502  0.22975401930E+01  0.34049041931E+02 -0.66515218777E+02  0.74758880919E+02  0.00000000000E+00 0. -1.
<mgrwt>
<rscale>  1 0.30000000E+03</rscale>
<asrwt>0</asrwt>
<pdfrwt beam="1">  1       21 0.16142473E-01 0.30000000E+03</pdfrwt>
<pdfrwt beam="2">0</pdfrwt>
<totfact> 0.35927850E+03</totfact>
</mgrwt>
</event>
<event>
 6    1  0.1198667E-001  0.3000000E+03  0.7818608E-02  0.1093470E+00
         21   -1    0    0  501  502  0.00000000000E+00  0.00000000000E+00  0.13094890304E+01  0.13094890304E+01  0.00000000000E+00 0. -1.
         13   -1    0    0    0    0 -0.00000000000E+00 -0.00000000000E+00 -0.10000000000E+04  0.10000000000E+04  0.00000000000E+00 0.  1.
    9000005    2    1    2  501    0 -0.29715396331E+02  0.14456495727E+02 -0.68408043406E+03  0.68496869884E+03  0.11139258212E+02 0.  0.
         13    1    3    3    0    0 -0.56641439705E+01  0.30478028819E+01 -0.24341156250E+03  0.24349653055E+03  0.00000000000E+00 0.  1.
          3    1    3    3  501    0 -0.24051252360E+02  0.11408692845E+02 -0.44066887156E+03  0.44147216829E+03  0.00000000000E+00 0.  1.
         -1    1    1    2    0  502  0.29715396331E+02 -0.14456495727E+02 -0.31461007691E+03  0.31634079019E+03  0.00000000000E+00 0. -1.
<mgrwt>
<rscale>  1 0.30000000E+03</rscale>
<asrwt>0</asrwt>
<pdfrwt beam="1">  1       21 0.47617883E-02 0.30000000E+03</pdfrwt>
<pdfrwt beam="2">0</pdfrwt>
<totfact> 0.31301299E+04</totfact>
</mgrwt>
</event>
<event>
 6    1  0.1198667E-001  0.3000000E+03  0.7818608E-02  0.1093470E+00
         21   -1    0    0  501  502  0.00000000000E+00  0.00000000000E+00  0.97652049355E+01  0.97652049355E+01  0.00000000000E+00 0. -1.
         13   -1    0    0    0    0 -0.00000000000E+00 -0.00000000000E+00 -0.10000000000E+04  0.10000000000E+04  0.00000000000E+00 0.  1.
    9000005    2    1    2  501    0  0.56434075709E+02  0.60508905233E+02 -0.77100926896E+03  0.77544498855E+03  0.36749045298E+01 0.  0.
         13    1    3    3    0    0  0.53771467939E+02  0.57692251650E+02 -0.74150395935E+03  0.74568618627E+03  0.00000000000E+00 0.  1.
          3    1    3    3  501    0  0.26626077692E+01  0.28166535825E+01 -0.29505309611E+02  0.29758802274E+02  0.00000000000E+00 0.  1.
         -1    1    1    2    0  502 -0.56434075709E+02 -0.60508905233E+02 -0.21922552610E+03  0.23432021639E+03  0.00000000000E+00 0. -1.
<mgrwt>
<rscale>  1 0.30000000E+03</rscale>
<asrwt>0</asrwt>
<pdfrwt beam="1">  1       21 0.35509911E-01 0.30000000E+03</pdfrwt>
<pdfrwt beam="2">0</pdfrwt>
<totfact> 0.77257519E+02</totfact>
</mgrwt>
</event>
<event>
 6    1  0.1198667E-001  0.3000000E+03  0.7818608E-02  0.1093470E+00
         21   -1    0    0  501  502  0.00000000000E+00  0.00000000000E+00  0.28711564818E+01  0.28711564818E+01  0.00000000000E+00 0. -1.
         13   -1    0    0    0    0 -0.00000000000E+00 -0.00000000000E+00 -0.10000000000E+04  0.10000000000E+04  0.00000000000E+00 0.  1.
    9000005    2    1    2  501    0 -0.31769953628E+02  0.40676117726E+02 -0.63071346023E+03  0.63283857735E+03  0.46173112744E+01 0.  0.
         13    1    3    3    0    0 -0.18041131043E+02  0.26495123193E+02 -0.40016215791E+03  0.40144392708E+03  0.00000000000E+00 0.  1.
          3    1    3    3  501    0 -0.13728822585E+02  0.14180994533E+02 -0.23055130231E+03  0.23139465027E+03  0.00000000000E+00 0.  1.
         -3    1    1    2    0  502  0.31769953628E+02 -0.40676117726E+02 -0.36641538329E+03  0.37003257913E+03  0.00000000000E+00 0. -1.
<mgrwt>
<rscale>  1 0.30000000E+03</rscale>
<asrwt>0</asrwt>
<pdfrwt beam="1">  1       21 0.10440591E-01 0.30000000E+03</pdfrwt>
<pdfrwt beam="2">0</pdfrwt>
<totfact> 0.79644492E+03</totfact>
</mgrwt>
</event>
<event>
 6    1  0.1198667E-001  0.3000000E+03  0.7818608E-02  0.1093470E+00
         21   -1    0    0  501  502  0.00000000000E+00  0.00000000000E+00  0.52654113163E+01  0.52654113163E+01  0.00000000000E+00 0. -1.
         13   -1    0    0    0    0 -0.00000000000E+00 -0.00000000000E+00 -0.10000000000E+04  0.10000000000E+04  0.00000000000E+00 0.  1.
    9000005    2    1    2  501    0 -0.19637232458E+02 -0.54273817815E+02 -0.80182151687E+03  0.80390324637E+03  0.33788157002E+01 0.  0.
         13    1    3    3    0    0 -0.50435020932E+01 -0.12483423371E+02 -0.16900002862E+03  0.16953549022E+03  0.00000000000E+00 0.  1.
          1    1    3    3  501    0 -0.14593730364E+02 -0.41790394443E+02 -0.63282148826E+03  0.63436775614E+03  0.00000000000E+00 0.  1.
         -3    1    1    2    0  502  0.19637232458E+02  0.54273817815E+02 -0.19291307181E+03  0.20136216495E+03  0.00000000000E+00 0. -1.
<mgrwt>
<rscale>  1 0.30000000E+03</rscale>
<asrwt>0</asrwt>
<pdfrwt beam="1">  1       21 0.19146991E-01 0.30000000E+03</pdfrwt>
<pdfrwt beam="2">0</pdfrwt>
<totfact> 0.26067137E+03</totfact>
</mgrwt>
</event>
<event>
 6    1  0.1198667E-001  0.3000000E+03  0.7818608E-02  0.1093470E+00
         21   -1    0    0  501  502  0.00000000000E+00  0.00000000000E+00  0.21717565037E+02  0.21717565037E+02  0.00000000000E+00 0. -1.
         13   -1    0    0    0    0 -0.00000000000E+00 -0.00000000000E+00 -0.10000000000E+04  0.10000000000E+04  0.00000000000E+00 0.  1.
    9000005    2    1    2  501    0 -0.27784915336E+02 -0.39722596184E+02 -0.97156582177E+03  0.97277883742E+03  0.29384239553E+01 0.  0.
         13    1    3    3    0    0 -0.50158260429E+01 -0.74235270120E+01 -0.15797353441E+03  0.15822738334E+03  0.00000000000E+00 0.  1.
          1    1    3    3  501    0 -0.22769089293E+02 -0.32299069172E+02 -0.81359228736E+03  0.81455145408E+03  0.00000000000E+00 0.  1.
         -3    1    1    2    0  502  0.27784915336E+02  0.39722596184E+02 -0.67166131930E+01  0.48938727615E+02  0.00000000000E+00 0. -1.
<mgrwt>
<rscale>  1 0.30000000E+03</rscale>
<asrwt>0</asrwt>
<pdfrwt beam="1">  1       21 0.78973130E-01 0.30000000E+03</pdfrwt>
<pdfrwt beam="2">0</pdfrwt>
<totfact> 0.13274877E+02</totfact>
</mgrwt>
</event>
<event>
 6    1  0.1198667E-001  0.3000000E+03  0.7818608E-02  0.1093470E+00
         21   -1    0    0  501  502  0.00000000000E+00  0.00000000000E+00  0.30010976940E+01  0.30010976940E+01  0.00000000000E+00 0. -1.
         13   -1    0    0    0    0 -0.00000000000E+00 -0.00000000000E+00 -0.10000000000E+04  0.10000000000E+04  0.00000000000E+00 0.  1.
    9000005    2    1    2  501    0  0.45007541372E+02 -0.21067457168E+01 -0.21457464001E+03  0.21928058412E+03  0.34031281632E+01 0.  0.
         13    1    3    3    0    0  0.21440894307E+02 -0.26499002873E+01 -0.10470332795E+03  0.10690893697E+03  0.00000000000E+00 0.  1.
          3    1    3    3  501    0  0.23566647065E+02  0.54315457048E+00 -0.10987131206E+03  0.11237164715E+03  0.00000000000E+00 0.  1.
         -3    1    1    2    0  502 -0.45007541372E+02  0.21067457168E+01 -0.78242426230E+03  0.78372051357E+03  0.00000000000E+00 0. -1.
<mgrwt>
<rscale>  1 0.30000000E+03</rscale>
<asrwt>0</asrwt>
<pdfrwt beam="1">  1       21 0.10913106E-01 0.30000000E+03</pdfrwt>
<pdfrwt beam="2">0</pdfrwt>
<totfact> 0.73562059E+03</totfact>
</mgrwt>
</event>
<event>
 6    1  0.1198667E-001  0.3000000E+03  0.7818608E-02  0.1093470E+00
         21   -1    0    0  501  502  0.00000000000E+00  0.00000000000E+00  0.16680634423E+01  0.16680634423E+01  0.00000000000E+00 0. -1.
         13   -1    0    0    0    0 -0.00000000000E+00 -0.00000000000E+00 -0.10000000000E+04  0.10000000000E+04  0.00000000000E+00 0.  1.
    9000005    2    1    2  501    0  0.34399661229E+02  0.14851805414E+02 -0.69678054167E+03  0.69779776780E+03  0.38325808712E+01 0.  0.
         13    1    3    3    0    0  0.71478136481E+01  0.36191940930E+01 -0.17850044678E+03  0.17868015924E+03  0.00000000000E+00 0.  1.
          3    1    3    3  501    0  0.27251847581E+02  0.11232611321E+02 -0.51828009489E+03  0.51911760856E+03  0.00000000000E+00 0.  1.
         -3    1    1    2    0  502 -0.34399661229E+02 -0.14851805414E+02 -0.30155139489E+03  0.30387029564E+03  0.00000000000E+00 0. -1.
<mgrwt>
<rscale>  1 0.30000000E+03</rscale>
<asrwt>0</asrwt>
<pdfrwt beam="1">  1       21 0.60656980E-02 0.30000000E+03</pdfrwt>
<pdfrwt beam="2">0</pdfrwt>
<totfact> 0.20679513E+04</totfact>
</mgrwt>
</event>
<event>
 6    1  0.1198667E-001  0.3000000E+03  0.7818608E-02  0.1093470E+00
         21   -1    0    0  501  502  0.00000000000E+00  0.00000000000E+00  0.48429468413E+01  0.48429468413E+01  0.00000000000E+00 0. -1.
         13   -1    0    0    0    0 -0.00000000000E+00 -0.00000000000E+00 -0.10000000000E+04  0.10000000000E+04  0.00000000000E+00 0.  1.
    9000005    2    1    2  501    0  0.46997014566E+02 -0.31282533757E+02 -0.21221404860E+03  0.21986710983E+03  0.10928278345E+02 0.  0.
         13    1    3    3    0    0  0.39155426279E+02 -0.23797066129E+02 -0.15481041302E+03  0.16144878985E+03  0.00000000000E+00 0.  1.
          1    1    3    3  501    0  0.78415882864E+01 -0.74854676279E+01 -0.57403635580E+02  0.58418319988E+02  0.00000000000E+00 0.  1.
         -3    1    1    2    0  502 -0.46997014566E+02  0.31282533757E+02 -0.78294300456E+03  0.78497583701E+03  0.00000000000E+00 0. -1.
<mgrwt>
<rscale>  1 0.30000000E+03</rscale>
<asrwt>0</asrwt>
<pdfrwt beam="1">  1       21 0.17610753E-01 0.30000000E+03</pdfrwt>
<pdfrwt beam="2">0</pdfrwt>
<totfact> 0.30525518E+03</totfact>
</mgrwt>
</event>
<event>
 6    1  0.1198667E-001  0.3000000E+03  0.7818608E-02  0.1093470E+00
         21   -1    0    0  501  502  0.00000000000E+00  0.00000000000E+00  0.13966710672E+02  0.13966710672E+02  0.00000000000E+00 0. -1.
         13   -1    0    0    0    0 -0.00000000000E+00 -0.00000000000E+00 -0.10000000000E+04  0.10000000000E+04  0.00000000000E+00 0.  1.
    9000005    2    1    2  501    0  0.96761664337E+02  0.25771087008E+02 -0.76218260627E+03  0.76874008708E+03  0.34680797993E+01 0.  0.
         13    1    3    3    0    0  0.77000616873E+02  0.19701712487E+02 -0.61363820989E+03  0.61876417568E+03  0.00000000000E+00 0.  1.
          3    1    3    3  501    0  0.19761047464E+02  0.60693745216E+01 -0.14854439638E+03  0.14997591140E+03  0.00000000000E+00 0.  1.
         -1    1    1    2    0  502 -0.96761664337E+02 -0.25771087008E+02 -0.22385068306E+03  0.24522662359E+03  0.00000000000E+00 0. -1.
<mgrwt>
<rscale>  1 0.30000000E+03</rscale>
<asrwt>0</asrwt>
<pdfrwt beam="1">  1       21 0.50788146E-01 0.30000000E+03</pdfrwt>
<pdfrwt beam="2">0</pdfrwt>
<totfact> 0.36317845E+02</totfact>
</mgrwt>
</event>
<event>
 6    1  0.1198667E-001  0.3000000E+03  0.7818608E-02  0.1093470E+00
         21   -1    0    0  501  502  0.00000000000E+00  0.00000000000E+00  0.77558503287E+01  0.77558503287E+01  0.00000000000E+00 0. -1.
         13   -1    0    0    0    0 -0.00000000000E+00 -0.00000000000E+00 -0.10000000000E+04  0.10000000000E+04  0.00000000000E+00 0.  1.
    9000005    2    1    2  501    0 -0.35930715491E+02  0.70772917582E+02 -0.71421241852E+03  0.71861666982E+03  0.32737127096E+01 0.  0.
         13    1    3    3    0    0 -0.26879541773E+02  0.50897178690E+02 -0.52782249859E+03  0.53095161981E+03  0.00000000000E+00 0.  1.
          3    1    3    3  501    0 -0.90511737189E+01  0.19875738892E+02 -0.18638991993E+03  0.18766505001E+03  0.00000000000E+00 0.  1.
         -3    1    1    2    0  502  0.35930715491E+02 -0.70772917582E+02 -0.27803173115E+03  0.28913918051E+03  0.00000000000E+00 0. -1.
<mgrwt>
<rscale>  1 0.30000000E+03</rscale>
<asrwt>0</asrwt>
<pdfrwt beam="1">  1       21 0.28203152E-01 0.30000000E+03</pdfrwt>
<pdfrwt beam="2">0</pdfrwt>
<totfact> 0.12296396E+03</totfact>
</mgrwt>
</event>
<event>
 6    1  0.1198667E-001  0.3000000E+03  0.7818608E-02  0.1093470E+00
         21   -1    0    0  501  502  0.00000000000E+00  0.00000000000E+00  0.99654373432E+00  0.99654373432E+00  0.00000000000E+00 0. -1.
         13   -1    0    0    0    0 -0.00000000000E+00 -0.00000000000E+00 -0.10000000000E+04  0.10000000000E+04  0.00000000000E+00 0.  1.
    9000005    2    1    2  501    0  0.17090311428E+02  0.26262253481E+02 -0.44862255739E+03  0.44972445252E+03  0.28459610467E+01 0.  0.
         13    1    3    3    0    0  0.93584682942E+01  0.12166640719E+02 -0.20838557973E+03  0.20895013260E+03  0.00000000000E+00 0.  1.
          1    1    3    3  501    0  0.77318431337E+01  0.14095612762E+02 -0.24023697766E+03  0.24077431992E+03  0.00000000000E+00 0.  1.
         -1    1    1    2    0  502 -0.17090311428E+02 -0.26262253481E+02 -0.55038089888E+03  0.55127209121E+03  0.00000000000E+00 0. -1.
<mgrwt>
<rscale>  1 0.30000000E+03</rscale>
<asrwt>0</asrwt>
<pdfrwt beam="1">  1       21 0.36238030E-02 0.30000000E+03</pdfrwt>
<pdfrwt beam="2">0</pdfrwt>
<totfact> 0.49638634E+04</totfact>
</mgrwt>
</event>
<event>
 6    1  0.1198667E-001  0.3000000E+03  0.7818608E-02  0.1093470E+00
         21   -1    0    0  501  502  0.00000000000E+00  0.00000000000E+00  0.17748063946E+01  0.17748063946E+01  0.00000000000E+00 0. -1.
         13   -1    0    0    0    0 -0.00000000000E+00 -0.00000000000E+00 -0.10000000000E+04  0.10000000000E+04  0.00000000000E+00 0.  1.
    9000005    2    1    2  501    0  0.23260805134E+02  0.23354258120E+02 -0.81052430866E+03  0.81120170064E+03  0.34724291470E+01 0.  0.
         13    1    3    3    0    0  0.87929191522E+00  0.44066113580E+00 -0.39698491431E+02  0.39710673104E+02  0.00000000000E+00 0.  1.
          1    1    3    3  501    0  0.22381513219E+02  0.22913596984E+02 -0.77082581723E+03  0.77149102753E+03  0.00000000000E+00 0.  1.
         -3    1    1    2    0  502 -0.23260805134E+02 -0.23354258120E+02 -0.18770088495E+03  0.19057310576E+03  0.00000000000E+00 0. -1.
<mgrwt>
<rscale>  1 0.30000000E+03</rscale>
<asrwt>0</asrwt>
<pdfrwt beam="1">  1       21 0.64538550E-02 0.30000000E+03</pdfrwt>
<pdfrwt beam="2">0</pdfrwt>
<totfact> 0.18577754E+04</totfact>
</mgrwt>
</event>
<event>
 6    1  0.1198667E-001  0.3000000E+03  0.7818608E-02  0.1093470E+00
         21   -1    0    0  501  502  0.00000000000E+00  0.00000000000E+00  0.10228141925E+01  0.10228141925E+01  0.00000000000E+00 0. -1.
         13   -1    0    0    0    0 -0.00000000000E+00 -0.00000000000E+00 -0.10000000000E+04  0.10000000000E+04  0.00000000000E+00 0.  1.
    9000005    2    1    2  501    0  0.13490361388E+02 -0.28600775724E+02 -0.48101968097E+03  0.48210088265E+03  0.64291014316E+01 0.  0.
         13    1    3    3    0    0  0.29903807580E+01 -0.89778493050E+01 -0.10606127305E+03  0.10648257038E+03  0.00000000000E+00 0.  1.
          1    1    3    3  501    0  0.10499980630E+02 -0.19622926419E+02 -0.37495840793E+03  0.37561831226E+03  0.00000000000E+00 0.  1.
         -1    1    1    2    0  502 -0.13490361388E+02  0.28600775724E+02 -0.51795750484E+03  0.51892193154E+03  0.00000000000E+00 0. -1.
<mgrwt>
<rscale>  1 0.30000000E+03</rscale>
<asrwt>0</asrwt>
<pdfrwt beam="1">  1       21 0.37193322E-02 0.30000000E+03</pdfrwt>
<pdfrwt beam="2">0</pdfrwt>
<totfact> 0.47517938E+04</totfact>
</mgrwt>
</event>
<event>
 6    1  0.1198667E-001  0.3000000E+03  0.7818608E-02  0.1093470E+00
         21   -1    0    0  501  502  0.00000000000E+00  0.00000000000E+00  0.19398961895E+01  0.19398961895E+01  0.00000000000E+00 0. -1.
         13   -1    0    0    0    0 -0.00000000000E+00 -0.00000000000E+00 -0.10000000000E+04  0.10000000000E+04  0.00000000000E+00 0.  1.
    9000005    2    1    2  501    0  0.40825111091E+02 -0.10322391267E+02 -0.35403977981E+03  0.35654434370E+03  0.25420216879E+01 0.  0.
         13    1    3    3    0    0  0.35922708164E+02 -0.98591751179E+01 -0.31526983802E+03  0.31746293494E+03  0.00000000000E+00 0.  1.
          3    1    3    3  501    0  0.49024029273E+01 -0.46321614932E+00 -0.38769941798E+02  0.39081408760E+02  0.00000000000E+00 0.  1.
         -3    1    1    2    0  502 -0.40825111091E+02  0.10322391267E+02 -0.64402032400E+03  0.64539555249E+03  0.00000000000E+00 0. -1.
<mgrwt>
<rscale>  1 0.30000000E+03</rscale>
<asrwt>0</asrwt>
<pdfrwt beam="1">  1       21 0.70541828E-02 0.30000000E+03</pdfrwt>
<pdfrwt beam="2">0</pdfrwt>
<totfact> 0.15920146E+04</totfact>
</mgrwt>
</event>
<event>
 6    1  0.1198667E-001  0.3000000E+03  0.7818608E-02  0.1093470E+00
         21   -1    0    0  501  502  0.00000000000E+00  0.00000000000E+00  0.11518649327E+01  0.11518649327E+01  0.00000000000E+00 0. -1.
         13   -1    0    0    0    0 -0.00000000000E+00 -0.00000000000E+00 -0.10000000000E+04  0.10000000000E+04  0.00000000000E+00 0.  1.
    9000005    2    1    2  501    0  0.32146727688E+02 -0.41993445648E+00 -0.65565769998E+03  0.65645886648E+03  0.41994514712E+01 0.  0.
         13    1    3    3    0    0  0.23764885230E+01 -0.11093856954E+01 -0.59996865119E+02  0.60054161042E+02  0.00000000000E+00 0.  1.
          1    1    3    3  501    0  0.29770239165E+02  0.68945123894E+00 -0.59566083486E+03  0.59640470544E+03  0.00000000000E+00 0.  1.
         -1    1    1    2    0  502 -0.32146727688E+02  0.41993445648E+00 -0.34319043508E+03  0.34469299845E+03  0.00000000000E+00 0. -1.
<mgrwt>
<rscale>  1 0.30000000E+03</rscale>
<asrwt>0</asrwt>
<pdfrwt beam="1">  1       21 0.41886086E-02 0.30000000E+03</pdfrwt>
<pdfrwt beam="2">0</pdfrwt>
<totfact> 0.38904459E+04</totfact>
</mgrwt>
</event>
<event>
 6    1  0.1198667E-001  0.3000000E+03  0.7818608E-02  0.1093470E+00
         21   -1    0    0  501  502  0.00000000000E+00  0.00000000000E+00  0.58227664954E+01  0.58227664954E+01  0.00000000000E+00 0. -1.
         13   -1    0    0    0    0 -0.00000000000E+00 -0.00000000000E+00 -0.10000000000E+04  0.10000000000E+04  0.00000000000E+00 0.  1.
    9000005    2    1    2  501    0  0.71048831598E+01 -0.65346234697E+02 -0.75219734645E+03  0.75507413640E+03  0.39362045270E+01 0.  0.
         13    1    3    3    0    0  0.54144131414E+01 -0.37853796684E+02 -0.45375424544E+03  0.45536264784E+03  0.00000000000E+00 0.  1.
          3    1    3    3  501    0  0.16904700184E+01 -0.27492438013E+02 -0.29844310101E+03  0.29971148856E+03  0.00000000000E+00 0.  1.
         -3    1    1    2    0  502 -0.71048831598E+01  0.65346234697E+02 -0.24197988706E+03  0.25074863010E+03  0.00000000000E+00 0. -1.
<mgrwt>
<rscale>  1 0.30000000E+03</rscale>
<asrwt>0</asrwt>
<pdfrwt beam="1">  1       21 0.21173741E-01 0.30000000E+03</pdfrwt>
<pdfrwt beam="2">0</pdfrwt>
<totfact> 0.21511652E+03</totfact>
</mgrwt>
</event>
<event>
 6    1  0.1198667E-001  0.3000000E+03  0.7818608E-02  0.1093470E+00
         21   -1    0    0  501  502  0.00000000000E+00  0.00000000000E+00  0.20575959582E+01  0.20575959582E+01  0.00000000000E+00 0. -1.
         13   -1    0    0    0    0 -0.00000000000E+00 -0.00000000000E+00 -0.10000000000E+04  0.10000000000E+04  0.00000000000E+00 0.  1.
    9000005    2    1    2  501    0  0.64167994567E+01 -0.36404453084E+02 -0.78890660889E+03  0.78977847976E+03  0.31543652723E+01 0.  0.
         13    1    3    3    0    0  0.73399782912E+00 -0.12135901850E+02 -0.24758761211E+03  0.24788595066E+03  0.00000000000E+00 0.  1.
          1    1    3    3  501    0  0.56828016276E+01 -0.24268551234E+02 -0.54131899678E+03  0.54189252910E+03  0.00000000000E+00 0.  1.
         -3    1    1    2    0  502 -0.64167994567E+01  0.36404453084E+02 -0.20903579515E+03  0.21227911620E+03  0.00000000000E+00 0. -1.
<mgrwt>
<rscale>  1 0.30000000E+03</rscale>
<asrwt>0</asrwt>
<pdfrwt beam="1">  1       21 0.74821829E-02 0.30000000E+03</pdfrwt>
<pdfrwt beam="2">0</pdfrwt>
<totfact> 0.14364153E+04</totfact>
</mgrwt>
</event>
<event>
 6    1  0.1198667E-001  0.3000000E+03  0.7818608E-02  0.1093470E+00
         21   -1    0    0  501  502  0.00000000000E+00  0.00000000000E+00  0.11550571920E+01  0.11550571920E+01  0.00000000000E+00 0. -1.
         13   -1    0    0    0    0 -0.00000000000E+00 -0.00000000000E+00 -0.10000000000E+04  0.10000000000E+04  0.00000000000E+00 0.  1.
    9000005    2    1    2  501    0  0.31572562363E+02 -0.59974242760E+01 -0.34151123232E+03  0.34303622086E+03  0.33363495925E+01 0.  0.
         13    1    3    3    0    0  0.20021302509E+02 -0.53110607139E+01 -0.22543524755E+03  0.22638487307E+03  0.00000000000E+00 0.  1.
          1    1    3    3  501    0  0.11551259854E+02 -0.68636356212E+00 -0.11607598477E+03  0.11665134778E+03  0.00000000000E+00 0.  1.
         -3    1    1    2    0  502 -0.31572562363E+02  0.59974242760E+01 -0.65733371049E+03  0.65811883634E+03  0.00000000000E+00 0. -1.
<mgrwt>
<rscale>  1 0.30000000E+03</rscale>
<asrwt>0</asrwt>
<pdfrwt beam="1">  1       21 0.42002168E-02 0.30000000E+03</pdfrwt>
<pdfrwt beam="2">0</pdfrwt>
<totfact> 0.38723082E+04</totfact>
</mgrwt>
</event>
<event>
 6    1  0.1198667E-001  0.3000000E+03  0.7818608E-02  0.1093470E+00
         21   -1    0    0  501  502  0.00000000000E+00  0.00000000000E+00  0.26364630304E+01  0.26364630304E+01  0.00000000000E+00 0. -1.
         13   -1    0    0    0    0 -0.00000000000E+00 -0.00000000000E+00 -0.10000000000E+04  0.10000000000E+04  0.00000000000E+00 0.  1.
    9000005    2    1    2  501    0  0.31906326915E+02 -0.12759533377E+02 -0.87101811466E+03  0.87170142139E+03  0.31611087641E+01 0.  0.
         13    1    3    3    0    0  0.40124767519E+00 -0.37768772867E+00 -0.25508426685E+02  0.25514377901E+02  0.00000000000E+00 0.  1.
          3    1    3    3  501    0  0.31505079240E+02 -0.12381845649E+02 -0.84550968797E+03  0.84618704349E+03  0.00000000000E+00 0.  1.
         -1    1    1    2    0  502 -0.31906326915E+02  0.12759533377E+02 -0.12634542231E+03  0.13093504164E+03  0.00000000000E+00 0. -1.
<mgrwt>
<rscale>  1 0.30000000E+03</rscale>
<asrwt>0</asrwt>
<pdfrwt beam="1">  1       21 0.95871585E-02 0.30000000E+03</pdfrwt>
<pdfrwt beam="2">0</pdfrwt>
<totfact> 0.92755196E+03</totfact>
</mgrwt>
</event>
<event>
 6    1  0.1198667E-001  0.3000000E+03  0.7818608E-02  0.1093470E+00
         21   -1    0    0  501  502  0.00000000000E+00  0.00000000000E+00  0.10716186627E+01  0.10716186627E+01  0.00000000000E+00 0. -1.
         13   -1    0    0    0    0 -0.00000000000E+00 -0.00000000000E+00 -0.10000000000E+04  0.10000000000E+04  0.00000000000E+00 0.  1.
    9000005    2    1    2  501    0  0.28334774057E+02  0.12620855336E+02 -0.34413456145E+03  0.34554351708E+03  0.30952216532E+01 0.  0.
         13    1    3    3    0    0  0.37024615270E+01  0.28453507181E+01 -0.52913994648E+02  0.53119629815E+02  0.00000000000E+00 0.  1.
          1    1    3    3  501    0  0.24632312530E+02  0.97755046176E+01 -0.29122056680E+03  0.29242388726E+03  0.00000000000E+00 0.  1.
         -3    1    1    2    0  502 -0.28334774057E+02 -0.12620855336E+02 -0.65479381989E+03  0.65552810159E+03  0.00000000000E+00 0. -1.
<mgrwt>
<rscale>  1 0.30000000E+03</rscale>
<asrwt>0</asrwt>
<pdfrwt beam="1">  1       21 0.38968034E-02 0.30000000E+03</pdfrwt>
<pdfrwt beam="2">0</pdfrwt>
<totfact> 0.43938225E+04</totfact>
</mgrwt>
</event>
<event>
 6    1  0.1198667E-001  0.3000000E+03  0.7818608E-02  0.1093470E+00
         21   -1    0    0  501  502  0.00000000000E+00  0.00000000000E+00  0.53385517014E+01  0.53385517014E+01  0.00000000000E+00 0. -1.
         13   -1    0    0    0    0 -0.00000000000E+00 -0.00000000000E+00 -0.10000000000E+04  0.10000000000E+04  0.00000000000E+00 0.  1.
    9000005    2    1    2  501    0  0.31509063224E+02  0.39290672337E+02 -0.13386582403E+03  0.14307079470E+03  0.35518243030E+01 0.  0.
         13    1    3    3    0    0  0.27503791360E+02  0.33483328047E+02 -0.11811315503E+03  0.12581060840E+03  0.00000000000E+00 0.  1.
          1    1    3    3  501    0  0.40052718637E+01  0.58073442899E+01 -0.15752669000E+02  0.17260186298E+02  0.00000000000E+00 0.  1.
         -1    1    1    2    0  502 -0.31509063224E+02 -0.39290672337E+02 -0.86079562427E+03  0.86226775700E+03  0.00000000000E+00 0. -1.
<mgrwt>
<rscale>  1 0.30000000E+03</rscale>
<asrwt>0</asrwt>
<pdfrwt beam="1">  1       21 0.19412956E-01 0.30000000E+03</pdfrwt>
<pdfrwt beam="2">0</pdfrwt>
<totfact> 0.25393110E+03</totfact>
</mgrwt>
</event>
<event>
 6    1  0.1198667E-001  0.3000000E+03  0.7818608E-02  0.1093470E+00
         21   -1    0    0  501  502  0.00000000000E+00  0.00000000000E+00  0.17602828976E+01  0.17602828976E+01  0.00000000000E+00 0. -1.
         13   -1    0    0    0    0 -0.00000000000E+00 -0.00000000000E+00 -0.10000000000E+04  0.10000000000E+04  0.00000000000E+00 0.  1.
    9000005    2    1    2  501    0  0.32181194434E+02 -0.15563191062E+02 -0.76094078609E+03  0.76178398230E+03  0.24725603796E+01 0.  0.
         13    1    3    3    0    0  0.10055594320E+02 -0.41406199697E+01 -0.25162664413E+03  0.25186152494E+03  0.00000000000E+00 0.  1.
          3    1    3    3  501    0  0.22125600113E+02 -0.11422571092E+02 -0.50931414196E+03  0.50992245735E+03  0.00000000000E+00 0.  1.
         -1    1    1    2    0  502 -0.32181194434E+02  0.15563191062E+02 -0.23729893101E+03  0.23997630060E+03  0.00000000000E+00 0. -1.
<mgrwt>
<rscale>  1 0.30000000E+03</rscale>
<asrwt>0</asrwt>
<pdfrwt beam="1">  1       21 0.64010422E-02 0.30000000E+03</pdfrwt>
<pdfrwt beam="2">0</pdfrwt>
<totfact> 0.18843768E+04</totfact>
</mgrwt>
</event>
<event>
 6    1  0.1198667E-001  0.3000000E+03  0.7818608E-02  0.1093470E+00
         21   -1    0    0  501  502  0.00000000000E+00  0.00000000000E+00  0.18225909173E+02  0.18225909173E+02  0.00000000000E+00 0. -1.
         13   -1    0    0    0    0 -0.00000000000E+00 -0.00000000000E+00 -0.10000000000E+04  0.10000000000E+04  0.00000000000E+00 0.  1.
    9000005    2    1    2  501    0 -0.44917062406E+02  0.11587371854E+03 -0.68968367133E+03  0.70079705997E+03  0.29481554676E+01 0.  0.
         13    1    3    3    0    0 -0.42996873871E+02  0.10904448125E+03 -0.65080016129E+03  0.66127171419E+03  0.00000000000E+00 0.  1.
          3    1    3    3  501    0 -0.19201885347E+01  0.68292372954E+01 -0.38883510033E+02  0.39525345774E+02  0.00000000000E+00 0.  1.
         -3    1    1    2    0  502  0.44917062406E+02 -0.11587371854E+03 -0.29209041950E+03  0.31742884920E+03  0.00000000000E+00 0. -1.
<mgrwt>
<rscale>  1 0.30000000E+03</rscale>
<asrwt>0</asrwt>
<pdfrwt beam="1">  1       21 0.66276173E-01 0.30000000E+03</pdfrwt>
<pdfrwt beam="2">0</pdfrwt>
<totfact> 0.20027666E+02</totfact>
</mgrwt>
</event>
<event>
 6    1  0.1198667E-001  0.3000000E+03  0.7818608E-02  0.1093470E+00
         21   -1    0    0  501  502  0.00000000000E+00  0.00000000000E+00  0.20829724950E+01  0.20829724950E+01  0.00000000000E+00 0. -1.
         13   -1    0    0    0    0 -0.00000000000E+00 -0.00000000000E+00 -0.10000000000E+04  0.10000000000E+04  0.00000000000E+00 0.  1.
    9000005    2    1    2  501    0  0.44026942740E+02  0.98689503789E+01 -0.46161615282E+03  0.46388747264E+03  0.81453585512E+01 0.  0.
         13    1    3    3    0    0  0.44319323068E+01  0.11812738662E+01 -0.27190463646E+02  0.27574603264E+02  0.00000000000E+00 0.  1.
          3    1    3    3  501    0  0.39595010433E+02  0.86876765126E+01 -0.43442568917E+03  0.43631286938E+03  0.00000000000E+00 0.  1.
         -3    1    1    2    0  502 -0.44026942740E+02 -0.98689503789E+01 -0.53630087469E+03  0.53819549985E+03  0.00000000000E+00 0. -1.
<mgrwt>
<rscale>  1 0.30000000E+03</rscale>
<asrwt>0</asrwt>
<pdfrwt beam="1">  1       21 0.75744614E-02 0.30000000E+03</pdfrwt>
<pdfrwt beam="2">0</pdfrwt>
<totfact> 0.14059111E+04</totfact>
</mgrwt>
</event>
<event>
 6    1  0.1198667E-001  0.3000000E+03  0.7818608E-02  0.1093470E+00
         21   -1    0    0  501  502  0.00000000000E+00  0.00000000000E+00  0.25102326818E+01  0.25102326818E+01  0.00000000000E+00 0. -1.
         13   -1    0    0    0    0 -0.00000000000E+00 -0.00000000000E+00 -0.10000000000E+04  0.10000000000E+04  0.00000000000E+00 0.  1.
    9000005    2    1    2  501    0  0.10819189221E+01  0.40587082755E+02 -0.79198319749E+03  0.79303127890E+03  0.35696458788E+01 0.  0.
         13    1    3    3    0    0  0.17787507595E+01  0.38748725125E+02 -0.75565096196E+03  0.75664589073E+03  0.00000000000E+00 0.  1.
          1    1    3    3  501    0 -0.69683183746E+00  0.18383576306E+01 -0.36332235529E+02  0.36385388165E+02  0.00000000000E+00 0.  1.
         -3    1    1    2    0  502 -0.10819189221E+01 -0.40587082755E+02 -0.20550656983E+03  0.20947895378E+03  0.00000000000E+00 0. -1.
<mgrwt>
<rscale>  1 0.30000000E+03</rscale>
<asrwt>0</asrwt>
<pdfrwt beam="1">  1       21 0.91281381E-02 0.30000000E+03</pdfrwt>
<pdfrwt beam="2">0</pdfrwt>
<totfact> 0.10121219E+04</totfact>
</mgrwt>
</event>
<event>
 6    1  0.1198667E-001  0.3000000E+03  0.7818608E-02  0.1093470E+00
         21   -1    0    0  501  502  0.00000000000E+00  0.00000000000E+00  0.11384989120E+01  0.11384989120E+01  0.00000000000E+00 0. -1.
         13   -1    0    0    0    0 -0.00000000000E+00 -0.00000000000E+00 -0.10000000000E+04  0.10000000000E+04  0.00000000000E+00 0.  1.
    9000005    2    1    2  501    0  0.28395986291E+02  0.18029633375E+02 -0.48236978158E+03  0.48355266445E+03  0.33426630868E+01 0.  0.
         13    1    3    3    0    0  0.52663777682E+01  0.34618802022E+01 -0.11050589816E+03  0.11068546824E+03  0.00000000000E+00 0.  1.
          3    1    3    3  501    0  0.23129608523E+02  0.14567753173E+02 -0.37186388342E+03  0.37286719621E+03  0.00000000000E+00 0.  1.
         -3    1    1    2    0  502 -0.28395986291E+02 -0.18029633375E+02 -0.51649171951E+03  0.51758583446E+03  0.00000000000E+00 0. -1.
<mgrwt>
<rscale>  1 0.30000000E+03</rscale>
<asrwt>0</asrwt>
<pdfrwt beam="1">  1       21 0.41400048E-02 0.30000000E+03</pdfrwt>
<pdfrwt beam="2">0</pdfrwt>
<totfact> 0.39678436E+04</totfact>
</mgrwt>
</event>
<event>
 6    1  0.1198667E-001  0.3000000E+03  0.7818608E-02  0.1093470E+00
         21   -1    0    0  501  502  0.00000000000E+00  0.00000000000E+00  0.31255861315E+01  0.31255861315E+01  0.00000000000E+00 0. -1.
         13   -1    0    0    0    0 -0.00000000000E+00 -0.00000000000E+00 -0.10000000000E+04  0.10000000000E+04  0.00000000000E+00 0.  1.
    9000005    2    1    2  501    0  0.32350303179E+02  0.44311425915E+02 -0.58958642763E+03  0.59215898370E+03  0.54828592027E+01 0.  0.
         13    1    3    3    0    0  0.44620231178E+01  0.36261542738E+01 -0.53500969344E+02  0.53809036099E+02  0.00000000000E+00 0.  1.
          1    1    3    3  501    0  0.27888280061E+02  0.40685271641E+02 -0.53608545829E+03  0.53834994760E+03  0.00000000000E+00 0.  1.
         -3    1    1    2    0  502 -0.32350303179E+02 -0.44311425915E+02 -0.40728798624E+03  0.41096660243E+03  0.00000000000E+00 0. -1.
<mgrwt>
<rscale>  1 0.30000000E+03</rscale>
<asrwt>0</asrwt>
<pdfrwt beam="1">  1       21 0.11365792E-01 0.30000000E+03</pdfrwt>
<pdfrwt beam="2">0</pdfrwt>
<totfact> 0.68369371E+03</totfact>
</mgrwt>
</event>
<event>
 6    1  0.1198667E-001  0.3000000E+03  0.7818608E-02  0.1093470E+00
         21   -1    0    0  501  502  0.00000000000E+00  0.00000000000E+00  0.16254783813E+01  0.16254783813E+01  0.00000000000E+00 0. -1.
         13   -1    0    0    0    0 -0.00000000000E+00 -0.00000000000E+00 -0.10000000000E+04  0.10000000000E+04  0.00000000000E+00 0.  1.
    9000005    2    1    2  501    0  0.35394042725E+02  0.66859546302E+01 -0.72300221556E+03  0.72390737095E+03  0.34982516757E+01 0.  0.
         13    1    3    3    0    0  0.30017079025E+02  0.46456747565E+01 -0.59126673161E+03  0.59204641308E+03  0.00000000000E+00 0.  1.
          3    1    3    3  501    0  0.53769637009E+01  0.20402798737E+01 -0.13173548395E+03  0.13186095788E+03  0.00000000000E+00 0.  1.
         -3    1    1    2    0  502 -0.35394042725E+02 -0.66859546302E+01 -0.27537230606E+03  0.27771810743E+03  0.00000000000E+00 0. -1.
<mgrwt>
<rscale>  1 0.30000000E+03</rscale>
<asrwt>0</asrwt>
<pdfrwt beam="1">  1       21 0.59108429E-02 0.30000000E+03</pdfrwt>
<pdfrwt beam="2">0</pdfrwt>
<totfact> 0.21622652E+04</totfact>
</mgrwt>
</event>
<event>
 6    1  0.1198667E-001  0.3000000E+03  0.7818608E-02  0.1093470E+00
         21   -1    0    0  501  502  0.00000000000E+00  0.00000000000E+00  0.15765396445E+01  0.15765396445E+01  0.00000000000E+00 0. -1.
         13   -1    0    0    0    0 -0.00000000000E+00 -0.00000000000E+00 -0.10000000000E+04  0.10000000000E+04  0.00000000000E+00 0.  1.
    9000005    2    1    2  501    0 -0.28227467290E+02  0.19503210170E+02 -0.75061684125E+03  0.75140602661E+03  0.28651962851E+01 0.  0.
         13    1    3    3    0    0 -0.16331413385E+02  0.96621711236E+01 -0.40292184450E+03  0.40336842389E+03  0.00000000000E+00 0.  1.
          3    1    3    3  501    0 -0.11896053906E+02  0.98410390469E+01 -0.34769499674E+03  0.34803760272E+03  0.00000000000E+00 0.  1.
         -3    1    1    2    0  502  0.28227467290E+02 -0.19503210170E+02 -0.24780661911E+03  0.25017051303E+03  0.00000000000E+00 0. -1.
<mgrwt>
<rscale>  1 0.30000000E+03</rscale>
<asrwt>0</asrwt>
<pdfrwt beam="1">  1       21 0.57328835E-02 0.30000000E+03</pdfrwt>
<pdfrwt beam="2">0</pdfrwt>
<totfact> 0.22791641E+04</totfact>
</mgrwt>
</event>
<event>
 6    1  0.1198667E-001  0.3000000E+03  0.7818608E-02  0.1093470E+00
         21   -1    0    0  501  502  0.00000000000E+00  0.00000000000E+00  0.11643854983E+01  0.11643854983E+01  0.00000000000E+00 0. -1.
         13   -1    0    0    0    0 -0.00000000000E+00 -0.00000000000E+00 -0.10000000000E+04  0.10000000000E+04  0.00000000000E+00 0.  1.
    9000005    2    1    2  501    0 -0.17477267910E+02 -0.25728718243E+02 -0.70382314447E+03  0.70451681799E+03  0.30832287209E+01 0.  0.
         13    1    3    3    0    0 -0.17429174147E+02 -0.24967823366E+02 -0.67984407277E+03  0.68052562890E+03  0.00000000000E+00 0.  1.
          1    1    3    3  501    0 -0.48093762074E-01 -0.76089487724E+00 -0.23979071701E+02  0.23991189084E+02  0.00000000000E+00 0.  1.
         -1    1    1    2    0  502  0.17477267910E+02  0.25728718243E+02 -0.29501247003E+03  0.29664756751E+03  0.00000000000E+00 0. -1.
<mgrwt>
<rscale>  1 0.30000000E+03</rscale>
<asrwt>0</asrwt>
<pdfrwt beam="1">  1       21 0.42341380E-02 0.30000000E+03</pdfrwt>
<pdfrwt beam="2">0</pdfrwt>
<totfact> 0.38200540E+04</totfact>
</mgrwt>
</event>
<event>
 6    1  0.1198667E-001  0.3000000E+03  0.7818608E-02  0.1093470E+00
         21   -1    0    0  501  502  0.00000000000E+00  0.00000000000E+00  0.19255371672E+02  0.19255371672E+02  0.00000000000E+00 0. -1.
         13   -1    0    0    0    0 -0.00000000000E+00 -0.00000000000E+00 -0.10000000000E+04  0.10000000000E+04  0.00000000000E+00 0.  1.
    9000005    2    1    2  501    0  0.37803775328E+02 -0.37866835585E+02 -0.96058010106E+03  0.96207468589E+03  0.32477701668E+01 0.  0.
         13    1    3    3    0    0  0.27233214181E+02 -0.25437165624E+02 -0.68109347453E+03  0.68211217436E+03  0.00000000000E+00 0.  1.
          1    1    3    3  501    0  0.10570561147E+02 -0.12429669961E+02 -0.27948662653E+03  0.27996251154E+03  0.00000000000E+00 0.  1.
         -1    1    1    2    0  502 -0.37803775328E+02  0.37866835585E+02 -0.20164527264E+02  0.57180685778E+02  0.00000000000E+00 0. -1.
<mgrwt>
<rscale>  1 0.30000000E+03</rscale>
<asrwt>0</asrwt>
<pdfrwt beam="1">  1       21 0.70019681E-01 0.30000000E+03</pdfrwt>
<pdfrwt beam="2">0</pdfrwt>
<totfact> 0.17630037E+02</totfact>
</mgrwt>
</event>
<event>
 6    1  0.1198667E-001  0.3000000E+03  0.7818608E-02  0.1093470E+00
         21   -1    0    0  501  502  0.00000000000E+00  0.00000000000E+00  0.17026549305E+01  0.17026549305E+01  0.00000000000E+00 0. -1.
         13   -1    0    0    0    0 -0.00000000000E+00 -0.00000000000E+00 -0.10000000000E+04  0.10000000000E+04  0.00000000000E+00 0.  1.
    9000005    2    1    2  501    0 -0.88396666284E+01 -0.34584044315E+02 -0.74932432297E+03  0.75018374597E+03  0.38099748196E+01 0.  0.
         13    1    3    3    0    0 -0.68320979699E+01 -0.31297020870E+02 -0.66244289700E+03  0.66321698777E+03  0.00000000000E+00 0.  1.
          3    1    3    3  501    0 -0.20075686585E+01 -0.32870234445E+01 -0.86881425965E+02  0.86966758205E+02  0.00000000000E+00 0.  1.
         -3    1    1    2    0  502  0.88396666284E+01  0.34584044315E+02 -0.24897302210E+03  0.25151890896E+03  0.00000000000E+00 0. -1.
<mgrwt>
<rscale>  1 0.30000000E+03</rscale>
<asrwt>0</asrwt>
<pdfrwt beam="1">  1       21 0.61914855E-02 0.30000000E+03</pdfrwt>
<pdfrwt beam="2">0</pdfrwt>
<totfact> 0.19959656E+04</totfact>
</mgrwt>
</event>
<event>
 6    1  0.1198667E-001  0.3000000E+03  0.7818608E-02  0.1093470E+00
         21   -1    0    0  501  502  0.00000000000E+00  0.00000000000E+00  0.15798288686E+01  0.15798288686E+01  0.00000000000E+00 0. -1.
         13   -1    0    0    0    0 -0.00000000000E+00 -0.00000000000E+00 -0.10000000000E+04  0.10000000000E+04  0.00000000000E+00 0.  1.
    9000005    2    1    2  501    0 -0.96837861358E+00  0.32476043754E+02 -0.78670968748E+03  0.78739075337E+03  0.40540032607E+01 0.  0.
         13    1    3    3    0    0 -0.12129280612E+01  0.15196655041E+02 -0.32396236255E+03  0.32432086252E+03  0.00000000000E+00 0.  1.
          1    1    3    3  501    0  0.24454944761E+00  0.17279388713E+02 -0.46274732493E+03  0.46306989085E+03  0.00000000000E+00 0.  1.
         -1    1    1    2    0  502  0.96837861358E+00 -0.32476043754E+02 -0.21171048365E+03  0.21418907550E+03  0.00000000000E+00 0. -1.
<mgrwt>
<rscale>  1 0.30000000E+03</rscale>
<asrwt>0</asrwt>
<pdfrwt beam="1">  1       21 0.57448444E-02 0.30000000E+03</pdfrwt>
<pdfrwt beam="2">0</pdfrwt>
<totfact> 0.22710059E+04</totfact>
</mgrwt>
</event>
<event>
 6    1  0.1198667E-001  0.3000000E+03  0.7818608E-02  0.1093470E+00
         21   -1    0    0  501  502  0.00000000000E+00  0.00000000000E+00  0.14510140547E+01  0.14510140547E+01  0.00000000000E+00 0. -1.
         13   -1    0    0    0    0 -0.00000000000E+00 -0.00000000000E+00 -0.10000000000E+04  0.10000000000E+04  0.00000000000E+00 0.  1.
    9000005    2    1    2  501    0  0.29521361149E+02 -0.81246857009E+01 -0.79649074476E+03  0.79708601188E+03  0.33290492762E+01 0.  0.
         13    1    3    3    0    0  0.10724973446E+01  0.23958107315E-01 -0.17065355948E+02  0.17099040855E+02  0.00000000000E+00 0.  1.
          1    1    3    3  501    0  0.28448863804E+02 -0.81486438082E+01 -0.77942538881E+03  0.77998697103E+03  0.00000000000E+00 0.  1.
         -1    1    1    2    0  502 -0.29521361149E+02  0.81246857009E+01 -0.20205824118E+03  0.20436500217E+03  0.00000000000E+00 0. -1.
<mgrwt>
<rscale>  1 0.30000000E+03</rscale>
<asrwt>0</asrwt>
<pdfrwt beam="1">  1       21 0.52764259E-02 0.30000000E+03</pdfrwt>
<pdfrwt beam="2">0</pdfrwt>
<totfact> 0.26276416E+04</totfact>
</mgrwt>
</event>
<event>
 6    1  0.1198667E-001  0.3000000E+03  0.7818608E-02  0.1093470E+00
         21   -1    0    0  501  502  0.00000000000E+00  0.00000000000E+00  0.26768550320E+01  0.26768550320E+01  0.00000000000E+00 0. -1.
         13   -1    0    0    0    0 -0.00000000000E+00 -0.00000000000E+00 -0.10000000000E+04  0.10000000000E+04  0.00000000000E+00 0.  1.
    9000005    2    1    2  501    0 -0.89529089560E+01  0.29362532088E+02 -0.90212189531E+03  0.90264890491E+03  0.29696238255E+01 0.  0.
         13    1    3    3    0    0 -0.79524431718E+01  0.21685062436E+02 -0.67841718374E+03  0.67881025219E+03  0.00000000000E+00 0.  1.
          1    1    3    3  501    0 -0.10004657841E+01  0.76774696518E+01 -0.22370471158E+03  0.22383865273E+03  0.00000000000E+00 0.  1.
         -3    1    1    2    0  502  0.89529089560E+01 -0.29362532088E+02 -0.95201249653E+02  0.10002795012E+03  0.00000000000E+00 0. -1.
<mgrwt>
<rscale>  1 0.30000000E+03</rscale>
<asrwt>0</asrwt>
<pdfrwt beam="1">  1       21 0.97340388E-02 0.30000000E+03</pdfrwt>
<pdfrwt beam="2">0</pdfrwt>
<totfact> 0.90273873E+03</totfact>
</mgrwt>
</event>
<event>
 6    1  0.1198667E-001  0.3000000E+03  0.7818608E-02  0.1093470E+00
         21   -1    0    0  501  502  0.00000000000E+00  0.00000000000E+00  0.11227482574E+01  0.11227482574E+01  0.00000000000E+00 0. -1.
         13   -1    0    0    0    0 -0.00000000000E+00 -0.00000000000E+00 -0.10000000000E+04  0.10000000000E+04  0.00000000000E+00 0.  1.
    9000005    2    1    2  501    0  0.25673375135E+02  0.19126680174E+02 -0.64526214188E+03  0.64606134792E+03  0.26610992641E+01 0.  0.
         13    1    3    3    0    0  0.20649595753E+02  0.15915578579E+02 -0.54302345973E+03  0.54364895775E+03  0.00000000000E+00 0.  1.
          3    1    3    3  501    0  0.50237793820E+01  0.32111015944E+01 -0.10223868214E+03  0.10241239017E+03  0.00000000000E+00 0.  1.
         -1    1    1    2    0  502 -0.25673375135E+02 -0.19126680174E+02 -0.35361510986E+03  0.35506140034E+03  0.00000000000E+00 0. -1.
<mgrwt>
<rscale>  1 0.30000000E+03</rscale>
<asrwt>0</asrwt>
<pdfrwt beam="1">  1       21 0.40827295E-02 0.30000000E+03</pdfrwt>
<pdfrwt beam="2">0</pdfrwt>
<totfact> 0.40621720E+04</totfact>
</mgrwt>
</event>
<event>
 6    1  0.1198667E-001  0.3000000E+03  0.7818608E-02  0.1093470E+00
         21   -1    0    0  501  502  0.00000000000E+00  0.00000000000E+00  0.14931512076E+01  0.14931512076E+01  0.00000000000E+00 0. -1.
         13   -1    0    0    0    0 -0.00000000000E+00 -0.00000000000E+00 -0.10000000000E+04  0.10000000000E+04  0.00000000000E+00 0.  1.
    9000005    2    1    2  501    0 -0.16287755561E+02  0.25732077615E+02 -0.19681293894E+03  0.19922103036E+03  0.51239830861E+01 0.  0.
         13    1    3    3    0    0 -0.15762950876E+02  0.25904147178E+02 -0.19271743743E+03  0.19508845725E+03  0.00000000000E+00 0.  1.
          1    1    3    3  501    0 -0.52480468502E+00 -0.17206956324E+00 -0.40955015072E+01  0.41325731073E+01  0.00000000000E+00 0.  1.
         -3    1    1    2    0  502  0.16287755561E+02 -0.25732077615E+02 -0.80169390985E+03  0.80227212085E+03  0.00000000000E+00 0. -1.
<mgrwt>
<rscale>  1 0.30000000E+03</rscale>
<asrwt>0</asrwt>
<pdfrwt beam="1">  1       21 0.54296522E-02 0.30000000E+03</pdfrwt>
<pdfrwt beam="2">0</pdfrwt>
<totfact> 0.25020116E+04</totfact>
</mgrwt>
</event>
<event>
 6    1  0.1198667E-001  0.3000000E+03  0.7818608E-02  0.1093470E+00
         21   -1    0    0  501  502  0.00000000000E+00  0.00000000000E+00  0.35648725417E+01  0.35648725417E+01  0.00000000000E+00 0. -1.
         13   -1    0    0    0    0 -0.00000000000E+00 -0.00000000000E+00 -0.10000000000E+04  0.10000000000E+04  0.00000000000E+00 0.  1.
    9000005    2    1    2  501    0  0.47502899698E+02 -0.99559384250E+00 -0.80166524065E+03  0.80308338837E+03  0.42724616859E+01 0.  0.
         13    1    3    3    0    0  0.21664473251E+02 -0.11831829084E+01 -0.39980954928E+03  0.40039783344E+03  0.00000000000E+00 0.  1.
          1    1    3    3  501    0  0.25838426447E+02  0.18758906593E+00 -0.40185569136E+03  0.40268555493E+03  0.00000000000E+00 0.  1.
         -3    1    1    2    0  502 -0.47502899698E+02  0.99559384250E+00 -0.19476988681E+03  0.20048148417E+03  0.00000000000E+00 0. -1.
<mgrwt>
<rscale>  1 0.30000000E+03</rscale>
<asrwt>0</asrwt>
<pdfrwt beam="1">  1       21 0.12963200E-01 0.30000000E+03</pdfrwt>
<pdfrwt beam="2">0</pdfrwt>
<totfact> 0.53843224E+03</totfact>
</mgrwt>
</event>
<event>
 6    1  0.1198667E-001  0.3000000E+03  0.7818608E-02  0.1093470E+00
         21   -1    0    0  501  502  0.00000000000E+00  0.00000000000E+00  0.22376864617E+01  0.22376864617E+01  0.00000000000E+00 0. -1.
         13   -1    0    0    0    0 -0.00000000000E+00 -0.00000000000E+00 -0.10000000000E+04  0.10000000000E+04  0.00000000000E+00 0.  1.
    9000005    2    1    2  501    0 -0.38678789340E+02 -0.20443010726E+00 -0.78638777945E+03  0.78735333572E+03  0.48420089122E+01 0.  0.
         13    1    3    3    0    0 -0.27861579616E+02 -0.19047555204E+01 -0.58991426496E+03  0.59057491964E+03  0.00000000000E+00 0.  1.
          3    1    3    3  501    0 -0.10817209724E+02  0.17003254132E+01 -0.19647351450E+03  0.19677841607E+03  0.00000000000E+00 0.  1.
         -1    1    1    2    0  502  0.38678789340E+02  0.20443010726E+00 -0.21137453408E+03  0.21488435075E+03  0.00000000000E+00 0. -1.
<mgrwt>
<rscale>  1 0.30000000E+03</rscale>
<asrwt>0</asrwt>
<pdfrwt beam="1">  1       21 0.81370588E-02 0.30000000E+03</pdfrwt>
<pdfrwt beam="2">0</pdfrwt>
<totfact> 0.12398176E+04</totfact>
</mgrwt>
</event>
<event>
 6    1  0.1198667E-001  0.3000000E+03  0.7818608E-02  0.1093470E+00
         21   -1    0    0  501  502  0.00000000000E+00  0.00000000000E+00  0.29794543801E+01  0.29794543801E+01  0.00000000000E+00 0. -1.
         13   -1    0    0    0    0 -0.00000000000E+00 -0.00000000000E+00 -0.10000000000E+04  0.10000000000E+04  0.00000000000E+00 0.  1.
    9000005    2    1    2  501    0 -0.27698809087E+02  0.24159699278E+02 -0.86914760436E+03  0.86992907219E+03  0.28491025695E+01 0.  0.
         13    1    3    3    0    0 -0.18089337658E+02  0.13966299192E+02 -0.54398121046E+03  0.54446105369E+03  0.00000000000E+00 0.  1.
          1    1    3    3  501    0 -0.96094714286E+01  0.10193400086E+02 -0.32516639390E+03  0.32546801850E+03  0.00000000000E+00 0.  1.
         -3    1    1    2    0  502  0.27698809087E+02 -0.24159699278E+02 -0.12787294126E+03  0.13305038219E+03  0.00000000000E+00 0. -1.
<mgrwt>
<rscale>  1 0.30000000E+03</rscale>
<asrwt>0</asrwt>
<pdfrwt beam="1">  1       21 0.10834402E-01 0.30000000E+03</pdfrwt>
<pdfrwt beam="2">0</pdfrwt>
<totfact> 0.74525309E+03</totfact>
</mgrwt>
</event>
<event>
 6    1  0.1198667E-001  0.3000000E+03  0.7818608E-02  0.1093470E+00
         21   -1    0    0  501  502  0.00000000000E+00  0.00000000000E+00  0.17116011899E+01  0.17116011899E+01  0.00000000000E+00 0. -1.
         13   -1    0    0    0    0 -0.00000000000E+00 -0.00000000000E+00 -0.10000000000E+04  0.10000000000E+04  0.00000000000E+00 0.  1.
    9000005    2    1    2  501    0 -0.34574459446E+02 -0.70413137252E+01 -0.75984589689E+03  0.76067260006E+03  0.34704629331E+01 0.  0.
         13    1    3    3    0    0 -0.31968686010E+02 -0.69973215934E+01 -0.71824265615E+03  0.71898781109E+03  0.00000000000E+00 0.  1.
          1    1    3    3  501    0 -0.26057734362E+01 -0.43992131797E-01 -0.41603240748E+02  0.41684788967E+02  0.00000000000E+00 0.  1.
         -3    1    1    2    0  502  0.34574459446E+02  0.70413137252E+01 -0.23844250192E+03  0.24103900113E+03  0.00000000000E+00 0. -1.
<mgrwt>
<rscale>  1 0.30000000E+03</rscale>
<asrwt>0</asrwt>
<pdfrwt beam="1">  1       21 0.62240175E-02 0.30000000E+03</pdfrwt>
<pdfrwt beam="2">0</pdfrwt>
<totfact> 0.19779809E+04</totfact>
</mgrwt>
</event>
<event>
 6    1  0.1198667E-001  0.3000000E+03  0.7818608E-02  0.1093470E+00
         21   -1    0    0  501  502  0.00000000000E+00  0.00000000000E+00  0.47579658802E+01  0.47579658802E+01  0.00000000000E+00 0. -1.
         13   -1    0    0    0    0 -0.00000000000E+00 -0.00000000000E+00 -0.10000000000E+04  0.10000000000E+04  0.00000000000E+00 0.  1.
    9000005    2    1    2  501    0  0.17609139377E+02 -0.66571784822E+02 -0.47890346891E+03  0.48384780256E+03  0.42754166202E+01 0.  0.
         13    1    3    3    0    0  0.45442076412E+01 -0.16058749079E+02 -0.12922265474E+03  0.13029592374E+03  0.00000000000E+00 0.  1.
          1    1    3    3  501    0  0.13064931736E+02 -0.50513035742E+02 -0.34968081416E+03  0.35355187882E+03  0.00000000000E+00 0.  1.
         -1    1    1    2    0  502 -0.17609139377E+02  0.66571784822E+02 -0.51633856521E+03  0.52091016332E+03  0.00000000000E+00 0. -1.
<mgrwt>
<rscale>  1 0.30000000E+03</rscale>
<asrwt>0</asrwt>
<pdfrwt beam="1">  1       21 0.17301731E-01 0.30000000E+03</pdfrwt>
<pdfrwt beam="2">0</pdfrwt>
<totfact> 0.31557188E+03</totfact>
</mgrwt>
</event>
<event>
 6    1  0.1198667E-001  0.3000000E+03  0.7818608E-02  0.1093470E+00
         21   -1    0    0  501  502  0.00000000000E+00  0.00000000000E+00  0.12451147164E+01  0.12451147164E+01  0.00000000000E+00 0. -1.
         13   -1    0    0    0    0 -0.00000000000E+00 -0.00000000000E+00 -0.10000000000E+04  0.10000000000E+04  0.00000000000E+00 0.  1.
    9000005    2    1    2  501    0 -0.31829635403E+02 -0.99962070194E+01 -0.65951601677E+03  0.66036968328E+03  0.37003213585E+01 0.  0.
         13    1    3    3    0    0 -0.14298452665E+02 -0.28319973795E+01 -0.26871362535E+03  0.26910867398E+03  0.00000000000E+00 0.  1.
          3    1    3    3  501    0 -0.17531182738E+02 -0.71642096399E+01 -0.39080239141E+03  0.39126100930E+03  0.00000000000E+00 0.  1.
         -1    1    1    2    0  502  0.31829635403E+02  0.99962070194E+01 -0.33923886852E+03  0.34087543144E+03  0.00000000000E+00 0. -1.
<mgrwt>
<rscale>  1 0.30000000E+03</rscale>
<asrwt>0</asrwt>
<pdfrwt beam="1">  1       21 0.45276994E-02 0.30000000E+03</pdfrwt>
<pdfrwt beam="2">0</pdfrwt>
<totfact> 0.34101144E+04</totfact>
</mgrwt>
</event>
<event>
 6    1  0.1198667E-001  0.3000000E+03  0.7818608E-02  0.1093470E+00
         21   -1    0    0  501  502  0.00000000000E+00  0.00000000000E+00  0.15688271199E+01  0.15688271199E+01  0.00000000000E+00 0. -1.
         13   -1    0    0    0    0 -0.00000000000E+00 -0.00000000000E+00 -0.10000000000E+04  0.10000000000E+04  0.00000000000E+00 0.  1.
    9000005    2    1    2  501    0  0.12039965016E+02  0.37354997363E+02 -0.55780693341E+03  0.55920011553E+03  0.39796560560E+01 0.  0.
         13    1    3    3    0    0  0.18049702216E+01  0.95274524118E+01 -0.15549900921E+03  0.15580106589E+03  0.00000000000E+00 0.  1.
          1    1    3    3  501    0  0.10234994794E+02  0.27827544951E+02 -0.40230792420E+03  0.40339904964E+03  0.00000000000E+00 0.  1.
         -1    1    1    2    0  502 -0.12039965016E+02 -0.37354997363E+02 -0.44062423947E+03  0.44236871159E+03  0.00000000000E+00 0. -1.
<mgrwt>
<rscale>  1 0.30000000E+03</rscale>
<asrwt>0</asrwt>
<pdfrwt beam="1">  1       21 0.57048379E-02 0.30000000E+03</pdfrwt>
<pdfrwt beam="2">0</pdfrwt>
<totfact> 0.22984703E+04</totfact>
</mgrwt>
</event>
<event>
 6    1  0.1198667E-001  0.3000000E+03  0.7818608E-02  0.1093470E+00
         21   -1    0    0  501  502  0.00000000000E+00  0.00000000000E+00  0.63897003143E+01  0.63897003143E+01  0.00000000000E+00 0. -1.
         13   -1    0    0    0    0 -0.00000000000E+00 -0.00000000000E+00 -0.10000000000E+04  0.10000000000E+04  0.00000000000E+00 0.  1.
    9000005    2    1    2  501    0 -0.33654895157E+02 -0.14122846467E+02 -0.94445782099E+03  0.94516819329E+03  0.31986277828E+01 0.  0.
         13    1    3    3    0    0 -0.27291655049E+02 -0.11841307165E+02 -0.73675212057E+03  0.73735251959E+03  0.00000000000E+00 0.  1.
          1    1    3    3  501    0 -0.63632401086E+01 -0.22815393024E+01 -0.20770570042E+03  0.20781567369E+03  0.00000000000E+00 0.  1.
         -3    1    1    2    0  502  0.33654895157E+02  0.14122846467E+02 -0.49152478700E+02  0.61221507028E+02  0.00000000000E+00 0. -1.
<mgrwt>
<rscale>  1 0.30000000E+03</rscale>
<asrwt>0</asrwt>
<pdfrwt beam="1">  1       21 0.23235323E-01 0.30000000E+03</pdfrwt>
<pdfrwt beam="2">0</pdfrwt>
<totfact> 0.17984810E+03</totfact>
</mgrwt>
</event>
<event>
 6    1  0.1198667E-001  0.3000000E+03  0.7818608E-02  0.1093470E+00
         21   -1    0    0  501  502  0.00000000000E+00  0.00000000000E+00  0.10077599850E+02  0.10077599850E+02  0.00000000000E+00 0. -1.
         13   -1    0    0    0    0 -0.00000000000E+00 -0.00000000000E+00 -0.10000000000E+04  0.10000000000E+04  0.00000000000E+00 0.  1.
    9000005    2    1    2  501    0  0.30706178069E+02  0.84426276703E+01 -0.97390746327E+03  0.97443176507E+03  0.27148559447E+01 0.  0.
         13    1    3    3    0    0  0.19202254445E+02  0.40137283494E+01 -0.61340082301E+03  0.61371443381E+03  0.00000000000E+00 0.  1.
          3    1    3    3  501    0  0.11503923624E+02  0.44288993208E+01 -0.36050664026E+03  0.36071733127E+03  0.00000000000E+00 0.  1.
         -3    1    1    2    0  502 -0.30706178069E+02 -0.84426276703E+01 -0.16014936884E+02  0.35645834778E+02  0.00000000000E+00 0. -1.
<mgrwt>
<rscale>  1 0.30000000E+03</rscale>
<asrwt>0</asrwt>
<pdfrwt beam="1">  1       21 0.36645895E-01 0.30000000E+03</pdfrwt>
<pdfrwt beam="2">0</pdfrwt>
<totfact> 0.72420111E+02</totfact>
</mgrwt>
</event>
<event>
 6    1  0.1198667E-001  0.3000000E+03  0.7818608E-02  0.1093470E+00
         21   -1    0    0  501  502  0.00000000000E+00  0.00000000000E+00  0.19172589519E+01  0.19172589519E+01  0.00000000000E+00 0. -1.
         13   -1    0    0    0    0 -0.00000000000E+00 -0.00000000000E+00 -0.10000000000E+04  0.10000000000E+04  0.00000000000E+00 0.  1.
    9000005    2    1    2  501    0 -0.35256966363E+02 -0.27964731047E+01 -0.79372625193E+03  0.79452283139E+03  0.37805632972E+01 0.  0.
         13    1    3    3    0    0 -0.88203680077E+01 -0.19727143594E+01 -0.22647614465E+03  0.22665642411E+03  0.00000000000E+00 0.  1.
          1    1    3    3  501    0 -0.26436598355E+02 -0.82375874522E+00 -0.56725010727E+03  0.56786640728E+03  0.00000000000E+00 0.  1.
         -3    1    1    2    0  502  0.35256966363E+02  0.27964731047E+01 -0.20435648912E+03  0.20739442756E+03  0.00000000000E+00 0. -1.
<mgrwt>
<rscale>  1 0.30000000E+03</rscale>
<asrwt>0</asrwt>
<pdfrwt beam="1">  1       21 0.69718654E-02 0.30000000E+03</pdfrwt>
<pdfrwt beam="2">0</pdfrwt>
<totfact> 0.16248756E+04</totfact>
</mgrwt>
</event>
<event>
 6    1  0.1198667E-001  0.3000000E+03  0.7818608E-02  0.1093470E+00
         21   -1    0    0  501  502  0.00000000000E+00  0.00000000000E+00  0.95198664421E+00  0.95198664421E+00  0.00000000000E+00 0. -1.
         13   -1    0    0    0    0 -0.00000000000E+00 -0.00000000000E+00 -0.10000000000E+04  0.10000000000E+04  0.00000000000E+00 0.  1.
    9000005    2    1    2  501    0  0.63222105435E+01 -0.29770331125E+02 -0.42325545426E+03  0.42435566852E+03  0.25121474606E+01 0.  0.
         13    1    3    3    0    0  0.19692546074E+01 -0.67717755236E+01 -0.85736002500E+02  0.86025560342E+02  0.00000000000E+00 0.  1.
          1    1    3    3  501    0  0.43529559361E+01 -0.22998555602E+02 -0.33751945176E+03  0.33833010818E+03  0.00000000000E+00 0.  1.
         -1    1    1    2    0  502 -0.63222105435E+01  0.29770331125E+02 -0.57579255910E+03  0.57659631812E+03  0.00000000000E+00 0. -1.
<mgrwt>
<rscale>  1 0.30000000E+03</rscale>
<asrwt>0</asrwt>
<pdfrwt beam="1">  1       21 0.34617769E-02 0.30000000E+03</pdfrwt>
<pdfrwt beam="2">0</pdfrwt>
<totfact> 0.53592846E+04</totfact>
</mgrwt>
</event>
<event>
 6    1  0.1198667E-001  0.3000000E+03  0.7818608E-02  0.1093470E+00
         21   -1    0    0  501  502  0.00000000000E+00  0.00000000000E+00  0.48425913996E+01  0.48425913996E+01  0.00000000000E+00 0. -1.
         13   -1    0    0    0    0 -0.00000000000E+00 -0.00000000000E+00 -0.10000000000E+04  0.10000000000E+04  0.00000000000E+00 0.  1.
    9000005    2    1    2  501    0 -0.32326393123E+02  0.46208443764E+02 -0.79176737083E+03  0.79377927524E+03  0.31228687096E+01 0.  0.
         13    1    3    3    0    0 -0.23333080472E+02  0.34701682017E+02 -0.57056241631E+03  0.57209274622E+03  0.00000000000E+00 0.  1.
          3    1    3    3  501    0 -0.89933126519E+01  0.11506761747E+02 -0.22120495453E+03  0.22168652901E+03  0.00000000000E+00 0.  1.
         -3    1    1    2    0  502  0.32326393123E+02 -0.46208443764E+02 -0.20339003777E+03  0.21106331616E+03  0.00000000000E+00 0. -1.
<mgrwt>
<rscale>  1 0.30000000E+03</rscale>
<asrwt>0</asrwt>
<pdfrwt beam="1">  1       21 0.17609460E-01 0.30000000E+03</pdfrwt>
<pdfrwt beam="2">0</pdfrwt>
<totfact> 0.30529728E+03</totfact>
</mgrwt>
</event>
<event>
 6    1  0.1198667E-001  0.3000000E+03  0.7818608E-02  0.1093470E+00
         21   -1    0    0  501  502  0.00000000000E+00  0.00000000000E+00  0.18172450573E+01  0.18172450573E+01  0.00000000000E+00 0. -1.
         13   -1    0    0    0    0 -0.00000000000E+00 -0.00000000000E+00 -0.10000000000E+04  0.10000000000E+04  0.00000000000E+00 0.  1.
    9000005    2    1    2  501    0  0.19992379452E+02  0.37041440337E+02 -0.57515837175E+03  0.57670385746E+03  0.29022538575E+01 0.  0.
         13    1    3    3    0    0  0.13006971546E+02  0.26323522903E+02 -0.41154420334E+03  0.41259028160E+03  0.00000000000E+00 0.  1.
          1    1    3    3  501    0  0.69854079060E+01  0.10717917433E+02 -0.16361416840E+03  0.16411357586E+03  0.00000000000E+00 0.  1.
         -1    1    1    2    0  502 -0.19992379452E+02 -0.37041440337E+02 -0.42302438320E+03  0.42511338760E+03  0.00000000000E+00 0. -1.
<mgrwt>
<rscale>  1 0.30000000E+03</rscale>
<asrwt>0</asrwt>
<pdfrwt beam="1">  1       21 0.66081778E-02 0.30000000E+03</pdfrwt>
<pdfrwt beam="2">0</pdfrwt>
<totfact> 0.17832807E+04</totfact>
</mgrwt>
</event>
<event>
 6    1  0.1198667E-001  0.3000000E+03  0.7818608E-02  0.1093470E+00
         21   -1    0    0  501  502  0.00000000000E+00  0.00000000000E+00  0.18287746073E+01  0.18287746073E+01  0.00000000000E+00 0. -1.
         13   -1    0    0    0    0 -0.00000000000E+00 -0.00000000000E+00 -0.10000000000E+04  0.10000000000E+04  0.00000000000E+00 0.  1.
    9000005    2    1    2  501    0  0.38804417559E+02 -0.55114294729E+01 -0.69709715556E+03  0.69821429174E+03  0.47533391454E+01 0.  0.
         13    1    3    3    0    0  0.27378219784E+02 -0.18606346309E+01 -0.49999197948E+03  0.50074445421E+03  0.00000000000E+00 0.  1.
          3    1    3    3  501    0  0.11426197775E+02 -0.36507948420E+01 -0.19710517608E+03  0.19746983753E+03  0.00000000000E+00 0.  1.
         -1    1    1    2    0  502 -0.38804417559E+02  0.55114294729E+01 -0.30107406984E+03  0.30361448286E+03  0.00000000000E+00 0. -1.
<mgrwt>
<rscale>  1 0.30000000E+03</rscale>
<asrwt>0</asrwt>
<pdfrwt beam="1">  1       21 0.66501035E-02 0.30000000E+03</pdfrwt>
<pdfrwt beam="2">0</pdfrwt>
<totfact> 0.17638366E+04</totfact>
</mgrwt>
</event>
<event>
 6    1  0.1198667E-001  0.3000000E+03  0.7818608E-02  0.1093470E+00
         21   -1    0    0  501  502  0.00000000000E+00  0.00000000000E+00  0.23538418284E+01  0.23538418284E+01  0.00000000000E+00 0. -1.
         13   -1    0    0    0    0 -0.00000000000E+00 -0.00000000000E+00 -0.10000000000E+04  0.10000000000E+04  0.00000000000E+00 0.  1.
    9000005    2    1    2  501    0  0.15486700789E+01  0.32348899716E+02 -0.87166637466E+03  0.87227788116E+03  0.41932737787E+01 0.  0.
         13    1    3    3    0    0 -0.78432252333E+00  0.20925196428E+02 -0.58414869024E+03  0.58452388430E+03  0.00000000000E+00 0.  1.
          1    1    3    3  501    0  0.23329926023E+01  0.11423703288E+02 -0.28751768442E+03  0.28775399686E+03  0.00000000000E+00 0.  1.
         -3    1    1    2    0  502 -0.15486700789E+01 -0.32348899716E+02 -0.12597978351E+03  0.13007596067E+03  0.00000000000E+00 0. -1.
<mgrwt>
<rscale>  1 0.30000000E+03</rscale>
<asrwt>0</asrwt>
<pdfrwt beam="1">  1       21 0.85594429E-02 0.30000000E+03</pdfrwt>
<pdfrwt beam="2">0</pdfrwt>
<totfact> 0.11340998E+04</totfact>
</mgrwt>
</event>
<event>
 6    1  0.1198667E-001  0.3000000E+03  0.7818608E-02  0.1093470E+00
         21   -1    0    0  501  502  0.00000000000E+00  0.00000000000E+00  0.13833516563E+01  0.13833516563E+01  0.00000000000E+00 0. -1.
         13   -1    0    0    0    0 -0.00000000000E+00 -0.00000000000E+00 -0.10000000000E+04  0.10000000000E+04  0.00000000000E+00 0.  1.
    9000005    2    1    2  501    0  0.36001735351E+02  0.17944587697E-01 -0.62269722998E+03  0.62374392791E+03  0.29192636144E+01 0.  0.
         13    1    3    3    0    0  0.32701286513E+02  0.83966802574E+00 -0.56046517055E+03  0.56141899378E+03  0.00000000000E+00 0.  1.
          1    1    3    3  501    0  0.33004488383E+01 -0.82172343804E+00 -0.62232059438E+02  0.62324934127E+02  0.00000000000E+00 0.  1.
         -3    1    1    2    0  502 -0.36001735351E+02 -0.17944587697E-01 -0.37591941836E+03  0.37763942375E+03  0.00000000000E+00 0. -1.
<mgrwt>
<rscale>  1 0.30000000E+03</rscale>
<asrwt>0</asrwt>
<pdfrwt beam="1">  1       21 0.50303803E-02 0.30000000E+03</pdfrwt>
<pdfrwt beam="2">0</pdfrwt>
<totfact> 0.28508686E+04</totfact>
</mgrwt>
</event>
<event>
 6    1  0.1198667E-001  0.3000000E+03  0.7818608E-02  0.1093470E+00
         21   -1    0    0  501  502  0.00000000000E+00  0.00000000000E+00  0.11548360552E+01  0.11548360552E+01  0.00000000000E+00 0. -1.
         13   -1    0    0    0    0 -0.00000000000E+00 -0.00000000000E+00 -0.10000000000E+04  0.10000000000E+04  0.00000000000E+00 0.  1.
    9000005    2    1    2  501    0 -0.91904172580E+00 -0.30075277256E+02 -0.72189891015E+03  0.72257882411E+03  0.87609153774E+01 0.  0.
         13    1    3    3    0    0  0.19698957314E+01 -0.41971195677E+01 -0.17367953417E+03  0.17374140811E+03  0.00000000000E+00 0.  1.
          3    1    3    3  501    0 -0.28889374572E+01 -0.25878157688E+02 -0.54821937598E+03  0.54883741601E+03  0.00000000000E+00 0.  1.
         -1    1    1    2    0  502  0.91904172580E+00  0.30075277256E+02 -0.27694625379E+03  0.27857601194E+03  0.00000000000E+00 0. -1.
<mgrwt>
<rscale>  1 0.30000000E+03</rscale>
<asrwt>0</asrwt>
<pdfrwt beam="1">  1       21 0.41994127E-02 0.30000000E+03</pdfrwt>
<pdfrwt beam="2">0</pdfrwt>
<totfact> 0.38735604E+04</totfact>
</mgrwt>
</event>
<event>
 6    1  0.1198667E-001  0.3000000E+03  0.7818608E-02  0.1093470E+00
         21   -1    0    0  501  502  0.00000000000E+00  0.00000000000E+00  0.39248803176E+01  0.39248803176E+01  0.00000000000E+00 0. -1.
         13   -1    0    0    0    0 -0.00000000000E+00 -0.00000000000E+00 -0.10000000000E+04  0.10000000000E+04  0.00000000000E+00 0.  1.
    9000005    2    1    2  501    0 -0.31718027424E+02  0.85056571218E+01 -0.92546164657E+03  0.92604906859E+03  0.30395235554E+01 0.  0.
         13    1    3    3    0    0 -0.33524215679E+01  0.91058814096E+00 -0.12743088559E+03  0.12747822756E+03  0.00000000000E+00 0.  1.
          1    1    3    3  501    0 -0.28365605856E+02  0.75950689809E+01 -0.79803076099E+03  0.79857084103E+03  0.00000000000E+00 0.  1.
         -1    1    1    2    0  502  0.31718027424E+02 -0.85056571218E+01 -0.70613473111E+02  0.77875811723E+02  0.00000000000E+00 0. -1.
<mgrwt>
<rscale>  1 0.30000000E+03</rscale>
<asrwt>0</asrwt>
<pdfrwt beam="1">  1       21 0.14272322E-01 0.30000000E+03</pdfrwt>
<pdfrwt beam="2">0</pdfrwt>
<totfact> 0.45138883E+03</totfact>
</mgrwt>
</event>
<event>
 6    1  0.1198667E-001  0.3000000E+03  0.7818608E-02  0.1093470E+00
         21   -1    0    0  501  502  0.00000000000E+00  0.00000000000E+00  0.24116868870E+01  0.24116868870E+01  0.00000000000E+00 0. -1.
         13   -1    0    0    0    0 -0.00000000000E+00 -0.00000000000E+00 -0.10000000000E+04  0.10000000000E+04  0.00000000000E+00 0.  1.
    9000005    2    1    2  501    0  0.44790754053E+02 -0.19783224912E+02 -0.52934306690E+03  0.53161321807E+03  0.33080988762E+01 0.  0.
         13    1    3    3    0    0  0.37343871002E+02 -0.15758870861E+02 -0.42590288434E+03  0.42782727075E+03  0.00000000000E+00 0.  1.
          3    1    3    3  501    0  0.74468830510E+01 -0.40243540507E+01 -0.10344018256E+03  0.10378594732E+03  0.00000000000E+00 0.  1.
         -1    1    1    2    0  502 -0.44790754053E+02  0.19783224912E+02 -0.46824524621E+03  0.47079846881E+03  0.00000000000E+00 0. -1.
<mgrwt>
<rscale>  1 0.30000000E+03</rscale>
<asrwt>0</asrwt>
<pdfrwt beam="1">  1       21 0.87697890E-02 0.30000000E+03</pdfrwt>
<pdfrwt beam="2">0</pdfrwt>
<totfact> 0.10865050E+04</totfact>
</mgrwt>
</event>
<event>
 6    1  0.1198667E-001  0.3000000E+03  0.7818608E-02  0.1093470E+00
         21   -1    0    0  501  502  0.00000000000E+00  0.00000000000E+00  0.13097186504E+01  0.13097186504E+01  0.00000000000E+00 0. -1.
         13   -1    0    0    0    0 -0.00000000000E+00 -0.00000000000E+00 -0.10000000000E+04  0.10000000000E+04  0.00000000000E+00 0.  1.
    9000005    2    1    2  501    0 -0.12330540035E+02 -0.33603587347E+02 -0.43292959664E+03  0.43441784566E+03  0.30960750103E+01 0.  0.
         13    1    3    3    0    0 -0.73930431248E+01 -0.22120469195E+02 -0.26564241811E+03  0.26666433309E+03  0.00000000000E+00 0.  1.
          1    1    3    3  501    0 -0.49374969101E+01 -0.11483118151E+02 -0.16728717854E+03  0.16775351258E+03  0.00000000000E+00 0.  1.
         -1    1    1    2    0  502  0.12330540035E+02  0.33603587347E+02 -0.56576068471E+03  0.56689187299E+03  0.00000000000E+00 0. -1.
<mgrwt>
<rscale>  1 0.30000000E+03</rscale>
<asrwt>0</asrwt>
<pdfrwt beam="1">  1       21 0.47626233E-02 0.30000000E+03</pdfrwt>
<pdfrwt beam="2">0</pdfrwt>
<totfact> 0.31291965E+04</totfact>
</mgrwt>
</event>
<event>
 6    1  0.1198667E-001  0.3000000E+03  0.7818608E-02  0.1093470E+00
         21   -1    0    0  501  502  0.00000000000E+00  0.00000000000E+00  0.13832453306E+01  0.13832453306E+01  0.00000000000E+00 0. -1.
         13   -1    0    0    0    0 -0.00000000000E+00 -0.00000000000E+00 -0.10000000000E+04  0.10000000000E+04  0.00000000000E+00 0.  1.
    9000005    2    1    2  501    0  0.12365238112E+02 -0.31893282340E+02 -0.69483104266E+03  0.69567776715E+03  0.27013483618E+01 0.  0.
         13    1    3    3    0    0  0.97395297975E+00 -0.36499632443E+01 -0.93007248031E+02  0.93083935254E+02  0.00000000000E+00 0.  1.
          1    1    3    3  501    0  0.11391285132E+02 -0.28243319096E+02 -0.60182379463E+03  0.60259383189E+03  0.00000000000E+00 0.  1.
         -1    1    1    2    0  502 -0.12365238112E+02  0.31893282340E+02 -0.30378571201E+03  0.30570547818E+03  0.00000000000E+00 0. -1.
<mgrwt>
<rscale>  1 0.30000000E+03</rscale>
<asrwt>0</asrwt>
<pdfrwt beam="1">  1       21 0.50299936E-02 0.30000000E+03</pdfrwt>
<pdfrwt beam="2">0</pdfrwt>
<totfact> 0.28512423E+04</totfact>
</mgrwt>
</event>
<event>
 6    1  0.1198667E-001  0.3000000E+03  0.7818608E-02  0.1093470E+00
         21   -1    0    0  501  502  0.00000000000E+00  0.00000000000E+00  0.15733634903E+01  0.15733634903E+01  0.00000000000E+00 0. -1.
         13   -1    0    0    0    0 -0.00000000000E+00 -0.00000000000E+00 -0.10000000000E+04  0.10000000000E+04  0.00000000000E+00 0.  1.
    9000005    2    1    2  501    0 -0.69216623869E+01 -0.36152245354E+02 -0.68446631288E+03  0.68546265651E+03  0.31663459741E+01 0.  0.
         13    1    3    3    0    0 -0.48866516728E+01 -0.18770843837E+02 -0.37725630644E+03  0.37775460909E+03  0.00000000000E+00 0.  1.
          3    1    3    3  501    0 -0.20350107141E+01 -0.17381401518E+02 -0.30721000644E+03  0.30770804742E+03  0.00000000000E+00 0.  1.
         -3    1    1    2    0  502  0.69216623869E+01  0.36152245354E+02 -0.31396032363E+03  0.31611070698E+03  0.00000000000E+00 0. -1.
<mgrwt>
<rscale>  1 0.30000000E+03</rscale>
<asrwt>0</asrwt>
<pdfrwt beam="1">  1       21 0.57213338E-02 0.30000000E+03</pdfrwt>
<pdfrwt beam="2">0</pdfrwt>
<totfact> 0.22870846E+04</totfact>
</mgrwt>
</event>
<event>
 6    1  0.1198667E-001  0.3000000E+03  0.7818608E-02  0.1093470E+00
         21   -1    0    0  501  502  0.00000000000E+00  0.00000000000E+00  0.40563411320E+01  0.40563411320E+01  0.00000000000E+00 0. -1.
         13   -1    0    0    0    0 -0.00000000000E+00 -0.00000000000E+00 -0.10000000000E+04  0.10000000000E+04  0.00000000000E+00 0.  1.
    9000005    2    1    2  501    0  0.14383906445E+02  0.54277856163E+02 -0.73450078461E+03  0.73665148153E+03  0.33196724397E+01 0.  0.
         13    1    3    3    0    0  0.81058103647E+01  0.36069085970E+02 -0.49217130215E+03  0.49355777148E+03  0.00000000000E+00 0.  1.
          3    1    3    3  501    0  0.62780960801E+01  0.18208770193E+02 -0.24232948245E+03  0.24309371005E+03  0.00000000000E+00 0.  1.
         -1    1    1    2    0  502 -0.14383906445E+02 -0.54277856163E+02 -0.26144287426E+03  0.26740485960E+03  0.00000000000E+00 0. -1.
<mgrwt>
<rscale>  1 0.30000000E+03</rscale>
<asrwt>0</asrwt>
<pdfrwt beam="1">  1       21 0.14750362E-01 0.30000000E+03</pdfrwt>
<pdfrwt beam="2">0</pdfrwt>
<totfact> 0.42478305E+03</totfact>
</mgrwt>
</event>
<event>
 6    1  0.1198667E-001  0.3000000E+03  0.7818608E-02  0.1093470E+00
         21   -1    0    0  501  502  0.00000000000E+00  0.00000000000E+00  0.27689958937E+01  0.27689958937E+01  0.00000000000E+00 0. -1.
         13   -1    0    0    0    0 -0.00000000000E+00 -0.00000000000E+00 -0.10000000000E+04  0.10000000000E+04  0.00000000000E+00 0.  1.
    9000005    2    1    2  501    0 -0.36742191855E+02  0.22957474438E+02 -0.78276870762E+03  0.78397431838E+03  0.34420855228E+01 0.  0.
         13    1    3    3    0    0 -0.18980882623E+02  0.12929847261E+02 -0.44078876314E+03  0.44138666560E+03  0.00000000000E+00 0.  1.
          1    1    3    3  501    0 -0.17761309232E+02  0.10027627176E+02 -0.34197994448E+03  0.34258765278E+03  0.00000000000E+00 0.  1.
         -3    1    1    2    0  502  0.36742191855E+02 -0.22957474438E+02 -0.21446229648E+03  0.21879467751E+03  0.00000000000E+00 0. -1.
<mgrwt>
<rscale>  1 0.30000000E+03</rscale>
<asrwt>0</asrwt>
<pdfrwt beam="1">  1       21 0.10069097E-01 0.30000000E+03</pdfrwt>
<pdfrwt beam="2">0</pdfrwt>
<totfact> 0.84979702E+03</totfact>
</mgrwt>
</event>
<event>
 6    1  0.1198667E-001  0.3000000E+03  0.7818608E-02  0.1093470E+00
         21   -1    0    0  501  502  0.00000000000E+00  0.00000000000E+00  0.24863871774E+01  0.24863871774E+01  0.00000000000E+00 0. -1.
         13   -1    0    0    0    0 -0.00000000000E+00 -0.00000000000E+00 -0.10000000000E+04  0.10000000000E+04  0.00000000000E+00 0.  1.
    9000005    2    1    2  501    0 -0.30985392632E+02  0.12328103661E+02 -0.87133452800E+03  0.87197493886E+03  0.20874889448E+01 0.  0.
         13    1    3    3    0    0 -0.37865614576E+01  0.20676120279E+01 -0.12535845227E+03  0.12543266968E+03  0.00000000000E+00 0.  1.
          1    1    3    3  501    0 -0.27198831174E+02  0.10260491633E+02 -0.74597607573E+03  0.74654226918E+03  0.00000000000E+00 0.  1.
         -3    1    1    2    0  502  0.30985392632E+02 -0.12328103661E+02 -0.12617908482E+03  0.13051144832E+03  0.00000000000E+00 0. -1.
<mgrwt>
<rscale>  1 0.30000000E+03</rscale>
<asrwt>0</asrwt>
<pdfrwt beam="1">  1       21 0.90414270E-02 0.30000000E+03</pdfrwt>
<pdfrwt beam="2">0</pdfrwt>
<totfact> 0.10293976E+04</totfact>
</mgrwt>
</event>
<event>
 6    1  0.1198667E-001  0.3000000E+03  0.7818608E-02  0.1093470E+00
         21   -1    0    0  501  502  0.00000000000E+00  0.00000000000E+00  0.25899929802E+01  0.25899929802E+01  0.00000000000E+00 0. -1.
         13   -1    0    0    0    0 -0.00000000000E+00 -0.00000000000E+00 -0.10000000000E+04  0.10000000000E+04  0.00000000000E+00 0.  1.
    9000005    2    1    2  501    0  0.35092114590E+02 -0.23855648742E+02 -0.77488211893E+03  0.77605255797E+03  0.38374485278E+01 0.  0.
         13    1    3    3    0    0  0.28036095094E+02 -0.18043413894E+02 -0.58251419201E+03  0.58346754091E+03  0.00000000000E+00 0.  1.
          3    1    3    3  501    0  0.70560194964E+01 -0.58122348475E+01 -0.19236792692E+03  0.19258501705E+03  0.00000000000E+00 0.  1.
         -3    1    1    2    0  502 -0.35092114590E+02  0.23855648742E+02 -0.22252788809E+03  0.22653743501E+03  0.00000000000E+00 0. -1.
<mgrwt>
<rscale>  1 0.30000000E+03</rscale>
<asrwt>0</asrwt>
<pdfrwt beam="1">  1       21 0.94181762E-02 0.30000000E+03</pdfrwt>
<pdfrwt beam="2">0</pdfrwt>
<totfact> 0.95740542E+03</totfact>
</mgrwt>
</event>
<event>
 6    1  0.1198667E-001  0.3000000E+03  0.7818608E-02  0.1093470E+00
         21   -1    0    0  501  502  0.00000000000E+00  0.00000000000E+00  0.12867915246E+01  0.12867915246E+01  0.00000000000E+00 0. -1.
         13   -1    0    0    0    0 -0.00000000000E+00 -0.00000000000E+00 -0.10000000000E+04  0.10000000000E+04  0.00000000000E+00 0.  1.
    9000005    2    1    2  501    0  0.28146303672E+02 -0.13652351384E+02 -0.74345821867E+03  0.74412203708E+03  0.29802767316E+01 0.  0.
         13    1    3    3    0    0  0.13681054414E+02 -0.58252197390E+01 -0.38384959509E+03  0.38413749633E+03  0.00000000000E+00 0.  1.
          1    1    3    3  501    0  0.14465249258E+02 -0.78271316449E+01 -0.35960862358E+03  0.35998454075E+03  0.00000000000E+00 0.  1.
         -1    1    1    2    0  502 -0.28146303672E+02  0.13652351384E+02 -0.25525498981E+03  0.25716475445E+03  0.00000000000E+00 0. -1.
<mgrwt>
<rscale>  1 0.30000000E+03</rscale>
<asrwt>0</asrwt>
<pdfrwt beam="1">  1       21 0.46792518E-02 0.30000000E+03</pdfrwt>
<pdfrwt beam="2">0</pdfrwt>
<totfact> 0.32245967E+04</totfact>
</mgrwt>
</event>
<event>
 6    1  0.1198667E-001  0.3000000E+03  0.7818608E-02  0.1093470E+00
         21   -1    0    0  501  502  0.00000000000E+00  0.00000000000E+00  0.13776113651E+01  0.13776113651E+01  0.00000000000E+00 0. -1.
         13   -1    0    0    0    0 -0.00000000000E+00 -0.00000000000E+00 -0.10000000000E+04  0.10000000000E+04  0.00000000000E+00 0.  1.
    9000005    2    1    2  501    0  0.35014189142E+02  0.42060989341E+00 -0.66350996610E+03  0.66444066461E+03  0.31227094813E+01 0.  0.
         13    1    3    3    0    0  0.26378057511E+02 -0.10038940448E+01 -0.49306010028E+03  0.49376621210E+03  0.00000000000E+00 0.  1.
          1    1    3    3  501    0  0.86361316308E+01  0.14245039382E+01 -0.17044986583E+03  0.17067445251E+03  0.00000000000E+00 0.  1.
         -1    1    1    2    0  502 -0.35014189142E+02 -0.42060989341E+00 -0.33511242253E+03  0.33693694676E+03  0.00000000000E+00 0. -1.
<mgrwt>
<rscale>  1 0.30000000E+03</rscale>
<asrwt>0</asrwt>
<pdfrwt beam="1">  1       21 0.50095064E-02 0.30000000E+03</pdfrwt>
<pdfrwt beam="2">0</pdfrwt>
<totfact> 0.28711530E+04</totfact>
</mgrwt>
</event>
<event>
 6    1  0.1198667E-001  0.3000000E+03  0.7818608E-02  0.1093470E+00
         21   -1    0    0  501  502  0.00000000000E+00  0.00000000000E+00  0.25021169901E+01  0.25021169901E+01  0.00000000000E+00 0. -1.
         13   -1    0    0    0    0 -0.00000000000E+00 -0.00000000000E+00 -0.10000000000E+04  0.10000000000E+04  0.00000000000E+00 0.  1.
    9000005    2    1    2  501    0  0.19496724927E+02 -0.44978916019E+02 -0.59606786786E+03  0.59808984933E+03  0.33674337184E+01 0.  0.
         13    1    3    3    0    0  0.20225217498E+01 -0.68985754839E+01 -0.97381355946E+02  0.97646348748E+02  0.00000000000E+00 0.  1.
          3    1    3    3  501    0  0.17474203177E+02 -0.38080340535E+02 -0.49868651192E+03  0.50044350059E+03  0.00000000000E+00 0.  1.
         -3    1    1    2    0  502 -0.19496724927E+02  0.44978916019E+02 -0.40143001515E+03  0.40441226766E+03  0.00000000000E+00 0. -1.
<mgrwt>
<rscale>  1 0.30000000E+03</rscale>
<asrwt>0</asrwt>
<pdfrwt beam="1">  1       21 0.90986264E-02 0.30000000E+03</pdfrwt>
<pdfrwt beam="2">0</pdfrwt>
<totfact> 0.10179521E+04</totfact>
</mgrwt>
</event>
<event>
 6    1  0.1198667E-001  0.3000000E+03  0.7818608E-02  0.1093470E+00
         21   -1    0    0  501  502  0.00000000000E+00  0.00000000000E+00  0.27149884427E+01  0.27149884427E+01  0.00000000000E+00 0. -1.
         13   -1    0    0    0    0 -0.00000000000E+00 -0.00000000000E+00 -0.10000000000E+04  0.10000000000E+04  0.00000000000E+00 0.  1.
    9000005    2    1    2  501    0 -0.29703598216E+02 -0.14211723344E+02 -0.88709055009E+03  0.88770587504E+03  0.27927936156E+01 0.  0.
         13    1    3    3    0    0 -0.25134801934E+02 -0.11080664785E+02 -0.75366309269E+03  0.75416350793E+03  0.00000000000E+00 0.  1.
          1    1    3    3  501    0 -0.45687962819E+01 -0.31310585590E+01 -0.13342745740E+03  0.13354236711E+03  0.00000000000E+00 0.  1.
         -1    1    1    2    0  502  0.29703598216E+02  0.14211723344E+02 -0.11019446147E+03  0.11500911340E+03  0.00000000000E+00 0. -1.
<mgrwt>
<rscale>  1 0.30000000E+03</rscale>
<asrwt>0</asrwt>
<pdfrwt beam="1">  1       21 0.98727061E-02 0.30000000E+03</pdfrwt>
<pdfrwt beam="2">0</pdfrwt>
<totfact> 0.88023323E+03</totfact>
</mgrwt>
</event>
<event>
 6    1  0.1198667E-001  0.3000000E+03  0.7818608E-02  0.1093470E+00
         21   -1    0    0  501  502  0.00000000000E+00  0.00000000000E+00  0.17430591369E+01  0.17430591369E+01  0.00000000000E+00 0. -1.
         13   -1    0    0    0    0 -0.00000000000E+00 -0.00000000000E+00 -0.10000000000E+04  0.10000000000E+04  0.00000000000E+00 0.  1.
    9000005    2    1    2  501    0 -0.27825040204E+02  0.30786081401E+02 -0.54228652738E+03  0.54388824192E+03  0.42102563116E+01 0.  0.
         13    1    3    3    0    0 -0.24104470074E+01  0.47228440667E+01 -0.71679963039E+02  0.71875813819E+02  0.00000000000E+00 0.  1.
          3    1    3    3  501    0 -0.25414593196E+02  0.26063237335E+02 -0.47060656434E+03  0.47201242810E+03  0.00000000000E+00 0.  1.
         -3    1    1    2    0  502  0.27825040204E+02 -0.30786081401E+02 -0.45597041349E+03  0.45785481721E+03  0.00000000000E+00 0. -1.
<mgrwt>
<rscale>  1 0.30000000E+03</rscale>
<asrwt>0</asrwt>
<pdfrwt beam="1">  1       21 0.63384102E-02 0.30000000E+03</pdfrwt>
<pdfrwt beam="2">0</pdfrwt>
<totfact> 0.19166950E+04</totfact>
</mgrwt>
</event>
<event>
 6    1  0.1198667E-001  0.3000000E+03  0.7818608E-02  0.1093470E+00
         21   -1    0    0  501  502  0.00000000000E+00  0.00000000000E+00  0.33781365236E+01  0.33781365236E+01  0.00000000000E+00 0. -1.
         13   -1    0    0    0    0 -0.00000000000E+00 -0.00000000000E+00 -0.10000000000E+04  0.10000000000E+04  0.00000000000E+00 0.  1.
    9000005    2    1    2  501    0  0.44398270369E+01 -0.45774808843E+02 -0.80486550930E+03  0.80618395670E+03  0.30064586060E+01 0.  0.
         13    1    3    3    0    0  0.29700274873E+01 -0.19277195460E+02 -0.32351624756E+03  0.32410367749E+03  0.00000000000E+00 0.  1.
          1    1    3    3  501    0  0.14697995497E+01 -0.26497613383E+02 -0.48134926174E+03  0.48208027921E+03  0.00000000000E+00 0.  1.
         -3    1    1    2    0  502 -0.44398270369E+01  0.45774808843E+02 -0.19175635417E+03  0.19719417982E+03  0.00000000000E+00 0. -1.
<mgrwt>
<rscale>  1 0.30000000E+03</rscale>
<asrwt>0</asrwt>
<pdfrwt beam="1">  1       21 0.12284159E-01 0.30000000E+03</pdfrwt>
<pdfrwt beam="2">0</pdfrwt>
<totfact> 0.59390571E+03</totfact>
</mgrwt>
</event>
<event>
 6    1  0.1198667E-001  0.3000000E+03  0.7818608E-02  0.1093470E+00
         21   -1    0    0  501  502  0.00000000000E+00  0.00000000000E+00  0.11236545372E+01  0.11236545372E+01  0.00000000000E+00 0. -1.
         13   -1    0    0    0    0 -0.00000000000E+00 -0.00000000000E+00 -0.10000000000E+04  0.10000000000E+04  0.00000000000E+00 0.  1.
    9000005    2    1    2  501    0  0.50992743069E+01  0.30969255557E+02 -0.66819823122E+03  0.66895936894E+03  0.57152162260E+01 0.  0.
         13    1    3    3    0    0  0.12567897069E+01  0.23053567102E+02 -0.49300082990E+03  0.49354114799E+03  0.00000000000E+00 0.  1.
          3    1    3    3  501    0  0.38424846000E+01  0.79156884554E+01 -0.17519740132E+03  0.17541822095E+03  0.00000000000E+00 0.  1.
         -3    1    1    2    0  502 -0.50992743069E+01 -0.30969255557E+02 -0.33067811424E+03  0.33216428560E+03  0.00000000000E+00 0. -1.
<mgrwt>
<rscale>  1 0.30000000E+03</rscale>
<asrwt>0</asrwt>
<pdfrwt beam="1">  1       21 0.40860251E-02 0.30000000E+03</pdfrwt>
<pdfrwt beam="2">0</pdfrwt>
<totfact> 0.40566500E+04</totfact>
</mgrwt>
</event>
<event>
 6    1  0.1198667E-001  0.3000000E+03  0.7818608E-02  0.1093470E+00
         21   -1    0    0  501  502  0.00000000000E+00  0.00000000000E+00  0.14803849957E+01  0.14803849957E+01  0.00000000000E+00 0. -1.
         13   -1    0    0    0    0 -0.00000000000E+00 -0.00000000000E+00 -0.10000000000E+04  0.10000000000E+04  0.00000000000E+00 0.  1.
    9000005    2    1    2  501    0 -0.38335277270E+02  0.38556187226E+00 -0.47705497079E+03  0.47860839558E+03  0.38482503550E+01 0.  0.
         13    1    3    3    0    0 -0.21774319006E+02 -0.12176593912E+01 -0.28603572429E+03  0.28686589067E+03  0.00000000000E+00 0.  1.
          3    1    3    3  501    0 -0.16560958264E+02  0.16032212635E+01 -0.19101924650E+03  0.19174250491E+03  0.00000000000E+00 0.  1.
         -3    1    1    2    0  502  0.38335277270E+02 -0.38556187226E+00 -0.52146464422E+03  0.52287198941E+03  0.00000000000E+00 0. -1.
<mgrwt>
<rscale>  1 0.30000000E+03</rscale>
<asrwt>0</asrwt>
<pdfrwt beam="1">  1       21 0.53832295E-02 0.30000000E+03</pdfrwt>
<pdfrwt beam="2">0</pdfrwt>
<totfact> 0.25390761E+04</totfact>
</mgrwt>
</event>
<event>
 6    1  0.1198667E-001  0.3000000E+03  0.7818608E-02  0.1093470E+00
         21   -1    0    0  501  502  0.00000000000E+00  0.00000000000E+00  0.37910456466E+01  0.37910456466E+01  0.00000000000E+00 0. -1.
         13   -1    0    0    0    0 -0.00000000000E+00 -0.00000000000E+00 -0.10000000000E+04  0.10000000000E+04  0.00000000000E+00 0.  1.
    9000005    2    1    2  501    0 -0.52549447042E+02 -0.23365554077E+01 -0.75864735008E+03  0.76047557204E+03  0.32233518757E+01 0.  0.
         13    1    3    3    0    0 -0.51935028281E+02 -0.19473370618E+01 -0.74756421796E+03  0.74936860039E+03  0.00000000000E+00 0.  1.
          1    1    3    3  501    0 -0.61441876172E+00 -0.38921834593E+00 -0.11083132127E+02  0.11106971643E+02  0.00000000000E+00 0.  1.
         -3    1    1    2    0  502  0.52549447042E+02  0.23365554077E+01 -0.23756160427E+03  0.24331547361E+03  0.00000000000E+00 0. -1.
<mgrwt>
<rscale>  1 0.30000000E+03</rscale>
<asrwt>0</asrwt>
<pdfrwt beam="1">  1       21 0.13785650E-01 0.30000000E+03</pdfrwt>
<pdfrwt beam="2">0</pdfrwt>
<totfact> 0.48110542E+03</totfact>
</mgrwt>
</event>
<event>
 6    1  0.1198667E-001  0.3000000E+03  0.7818608E-02  0.1093470E+00
         21   -1    0    0  501  502  0.00000000000E+00  0.00000000000E+00  0.29860491623E+01  0.29860491623E+01  0.00000000000E+00 0. -1.
         13   -1    0    0    0    0 -0.00000000000E+00 -0.00000000000E+00 -0.10000000000E+04  0.10000000000E+04  0.00000000000E+00 0.  1.
    9000005    2    1    2  501    0 -0.46664489037E+02 -0.63101003511E+01 -0.24561589151E+03  0.25011392491E+03  0.35238291474E+01 0.  0.
         13    1    3    3    0    0 -0.26989847311E+02 -0.30371317814E+01 -0.15017071509E+03  0.15260707617E+03  0.00000000000E+00 0.  1.
          1    1    3    3  501    0 -0.19674641726E+02 -0.32729685697E+01 -0.95445176419E+02  0.97506848744E+02  0.00000000000E+00 0.  1.
         -1    1    1    2    0  502  0.46664489037E+02  0.63101003511E+01 -0.75139805933E+03  0.75287212425E+03  0.00000000000E+00 0. -1.
<mgrwt>
<rscale>  1 0.30000000E+03</rscale>
<asrwt>0</asrwt>
<pdfrwt beam="1">  1       21 0.10858383E-01 0.30000000E+03</pdfrwt>
<pdfrwt beam="2">0</pdfrwt>
<totfact> 0.74229795E+03</totfact>
</mgrwt>
</event>
<event>
 6    1  0.1198667E-001  0.3000000E+03  0.7818608E-02  0.1093470E+00
         21   -1    0    0  501  502  0.00000000000E+00  0.00000000000E+00  0.38840490840E+01  0.38840490840E+01  0.00000000000E+00 0. -1.
         13   -1    0    0    0    0 -0.00000000000E+00 -0.00000000000E+00 -0.10000000000E+04  0.10000000000E+04  0.00000000000E+00 0.  1.
    9000005    2    1    2  501    0 -0.43445056328E+02  0.14821829493E+02 -0.15923941146E+03  0.16574951225E+03  0.29242261863E+01 0.  0.
         13    1    3    3    0    0 -0.37206336477E+01  0.56474721808E+00 -0.14711837414E+02  0.15185526473E+02  0.00000000000E+00 0.  1.
          3    1    3    3  501    0 -0.39724422680E+02  0.14257082275E+02 -0.14452757405E+03  0.15056398577E+03  0.00000000000E+00 0.  1.
         -1    1    1    2    0  502  0.43445056328E+02 -0.14821829493E+02 -0.83687653945E+03  0.83813453684E+03  0.00000000000E+00 0. -1.
<mgrwt>
<rscale>  1 0.30000000E+03</rscale>
<asrwt>0</asrwt>
<pdfrwt beam="1">  1       21 0.14123845E-01 0.30000000E+03</pdfrwt>
<pdfrwt beam="2">0</pdfrwt>
<totfact> 0.46015780E+03</totfact>
</mgrwt>
</event>
<event>
 6    1  0.1198667E-001  0.3000000E+03  0.7818608E-02  0.1093470E+00
         21   -1    0    0  501  502  0.00000000000E+00  0.00000000000E+00  0.22466181827E+01  0.22466181827E+01  0.00000000000E+00 0. -1.
         13   -1    0    0    0    0 -0.00000000000E+00 -0.00000000000E+00 -0.10000000000E+04  0.10000000000E+04  0.00000000000E+00 0.  1.
    9000005    2    1    2  501    0  0.22548604604E+02 -0.33256065163E+02 -0.76415291480E+03  0.76521585302E+03  0.33494904808E+01 0.  0.
         13    1    3    3    0    0  0.37089568106E+01 -0.79245099323E+01 -0.16686816878E+03  0.16709739666E+03  0.00000000000E+00 0.  1.
          3    1    3    3  501    0  0.18839647794E+02 -0.25331555230E+02 -0.59728474601E+03  0.59811845636E+03  0.00000000000E+00 0.  1.
         -3    1    1    2    0  502 -0.22548604604E+02  0.33256065163E+02 -0.23360046702E+03  0.23703076516E+03  0.00000000000E+00 0. -1.
<mgrwt>
<rscale>  1 0.30000000E+03</rscale>
<asrwt>0</asrwt>
<pdfrwt beam="1">  1       21 0.81695379E-02 0.30000000E+03</pdfrwt>
<pdfrwt beam="2">0</pdfrwt>
<totfact> 0.12311633E+04</totfact>
</mgrwt>
</event>
<event>
 6    1  0.1198667E-001  0.3000000E+03  0.7818608E-02  0.1093470E+00
         21   -1    0    0  501  502  0.00000000000E+00  0.00000000000E+00  0.39615409067E+01  0.39615409067E+01  0.00000000000E+00 0. -1.
         13   -1    0    0    0    0 -0.00000000000E+00 -0.00000000000E+00 -0.10000000000E+04  0.10000000000E+04  0.00000000000E+00 0.  1.
    9000005    2    1    2  501    0 -0.45428698151E+02  0.86016184140E+01 -0.16073149171E+03  0.16737593009E+03  0.65065423543E+01 0.  0.
         13    1    3    3    0    0 -0.39862446237E+01  0.25093944289E+01 -0.13305040760E+02  0.14114223897E+02  0.00000000000E+00 0.  1.
          3    1    3    3  501    0 -0.41442453527E+02  0.60922239851E+01 -0.14742645095E+03  0.15326170620E+03  0.00000000000E+00 0.  1.
         -1    1    1    2    0  502  0.45428698151E+02 -0.86016184140E+01 -0.83530696739E+03  0.83658561081E+03  0.00000000000E+00 0. -1.
<mgrwt>
<rscale>  1 0.30000000E+03</rscale>
<asrwt>0</asrwt>
<pdfrwt beam="1">  1       21 0.14405634E-01 0.30000000E+03</pdfrwt>
<pdfrwt beam="2">0</pdfrwt>
<totfact> 0.44372579E+03</totfact>
</mgrwt>
</event>
<event>
 6    1  0.1198667E-001  0.3000000E+03  0.7818608E-02  0.1093470E+00
         21   -1    0    0  501  502  0.00000000000E+00  0.00000000000E+00  0.13644084126E+01  0.13644084126E+01  0.00000000000E+00 0. -1.
         13   -1    0    0    0    0 -0.00000000000E+00 -0.00000000000E+00 -0.10000000000E+04  0.10000000000E+04  0.00000000000E+00 0.  1.
    9000005    2    1    2  501    0  0.32078641235E+02 -0.17714500204E+02 -0.54700335477E+03  0.54824795531E+03  0.45063987148E+01 0.  0.
         13    1    3    3    0    0  0.15787566564E+02 -0.76128716352E+01 -0.23123606393E+03  0.23189937545E+03  0.00000000000E+00 0.  1.
          1    1    3    3  501    0  0.16291074671E+02 -0.10101628569E+02 -0.31576729084E+03  0.31634857986E+03  0.00000000000E+00 0.  1.
         -1    1    1    2    0  502 -0.32078641235E+02  0.17714500204E+02 -0.45163223681E+03  0.45311645310E+03  0.00000000000E+00 0. -1.
<mgrwt>
<rscale>  1 0.30000000E+03</rscale>
<asrwt>0</asrwt>
<pdfrwt beam="1">  1       21 0.49614956E-02 0.30000000E+03</pdfrwt>
<pdfrwt beam="2">0</pdfrwt>
<totfact> 0.29186703E+04</totfact>
</mgrwt>
</event>
<event>
 6    1  0.1198667E-001  0.3000000E+03  0.7818608E-02  0.1093470E+00
         21   -1    0    0  501  502  0.00000000000E+00  0.00000000000E+00  0.28950386601E+01  0.28950386601E+01  0.00000000000E+00 0. -1.
         13   -1    0    0    0    0 -0.00000000000E+00 -0.00000000000E+00 -0.10000000000E+04  0.10000000000E+04  0.00000000000E+00 0.  1.
    9000005    2    1    2  501    0  0.21956575885E+02  0.20550333017E+02 -0.91425274225E+03  0.91475368843E+03  0.34389503801E+01 0.  0.
         13    1    3    3    0    0  0.71169251491E+01  0.53282803248E+01 -0.23390764312E+03  0.23407654027E+03  0.00000000000E+00 0.  1.
          1    1    3    3  501    0  0.14839650736E+02  0.15222052692E+02 -0.68034509912E+03  0.68067714816E+03  0.00000000000E+00 0.  1.
         -3    1    1    2    0  502 -0.21956575885E+02 -0.20550333017E+02 -0.82852219094E+02  0.88141350231E+02  0.00000000000E+00 0. -1.
<mgrwt>
<rscale>  1 0.30000000E+03</rscale>
<asrwt>0</asrwt>
<pdfrwt beam="1">  1       21 0.10527436E-01 0.30000000E+03</pdfrwt>
<pdfrwt beam="2">0</pdfrwt>
<totfact> 0.78470732E+03</totfact>
</mgrwt>
</event>
<event>
 6    1  0.1198667E-001  0.3000000E+03  0.7818608E-02  0.1093470E+00
         21   -1    0    0  501  502  0.00000000000E+00  0.00000000000E+00  0.26594405381E+01  0.26594405381E+01  0.00000000000E+00 0. -1.
         13   -1    0    0    0    0 -0.00000000000E+00 -0.00000000000E+00 -0.10000000000E+04  0.10000000000E+04  0.00000000000E+00 0.  1.
    9000005    2    1    2  501    0 -0.34654839576E+02  0.30045397543E+02 -0.72738117307E+03  0.72883147608E+03  0.28750243149E+01 0.  0.
         13    1    3    3    0    0 -0.88007409721E+01  0.91482793926E+01 -0.21032802967E+03  0.21071075939E+03  0.00000000000E+00 0.  1.
          3    1    3    3  501    0 -0.25854098604E+02  0.20897118151E+02 -0.51705314340E+03  0.51812071669E+03  0.00000000000E+00 0.  1.
         -1    1    1    2    0  502  0.34654839576E+02 -0.30045397543E+02 -0.26995938639E+03  0.27382796446E+03  0.00000000000E+00 0. -1.
<mgrwt>
<rscale>  1 0.30000000E+03</rscale>
<asrwt>0</asrwt>
<pdfrwt beam="1">  1       21 0.96707133E-02 0.30000000E+03</pdfrwt>
<pdfrwt beam="2">0</pdfrwt>
<totfact> 0.91331043E+03</totfact>
</mgrwt>
</event>
<event>
 6    1  0.1198667E-001  0.3000000E+03  0.7818608E-02  0.1093470E+00
         21   -1    0    0  501  502  0.00000000000E+00  0.00000000000E+00  0.86036550025E+01  0.86036550025E+01  0.00000000000E+00 0. -1.
         13   -1    0    0    0    0 -0.00000000000E+00 -0.00000000000E+00 -0.10000000000E+04  0.10000000000E+04  0.00000000000E+00 0.  1.
    9000005    2    1    2  501    0 -0.41558250530E+02  0.54096210235E+02 -0.83730767188E+03  0.84009013231E+03  0.37154888061E+01 0.  0.
         13    1    3    3    0    0 -0.28030142883E+02  0.35038818554E+02 -0.56903681853E+03  0.57080321351E+03  0.00000000000E+00 0.  1.
          1    1    3    3  501    0 -0.13528107647E+02  0.19057391681E+02 -0.26827085336E+03  0.26928691880E+03  0.00000000000E+00 0.  1.
         -1    1    1    2    0  502  0.41558250530E+02 -0.54096210235E+02 -0.15408867311E+03  0.16851352269E+03  0.00000000000E+00 0. -1.
<mgrwt>
<rscale>  1 0.30000000E+03</rscale>
<asrwt>0</asrwt>
<pdfrwt beam="1">  1       21 0.31286084E-01 0.30000000E+03</pdfrwt>
<pdfrwt beam="2">0</pdfrwt>
<totfact> 0.99944004E+02</totfact>
</mgrwt>
</event>
<event>
 6    1  0.1198667E-001  0.3000000E+03  0.7818608E-02  0.1093470E+00
         21   -1    0    0  501  502  0.00000000000E+00  0.00000000000E+00  0.12225591650E+01  0.12225591650E+01  0.00000000000E+00 0. -1.
         13   -1    0    0    0    0 -0.00000000000E+00 -0.00000000000E+00 -0.10000000000E+04  0.10000000000E+04  0.00000000000E+00 0.  1.
    9000005    2    1    2  501    0  0.57729479373E+01 -0.31993883934E+02 -0.68200190651E+03  0.68278312272E+03  0.30424742733E+01 0.  0.
         13    1    3    3    0    0  0.46367091932E+01 -0.29952333714E+02 -0.63672625832E+03  0.63744722872E+03  0.00000000000E+00 0.  1.
          1    1    3    3  501    0  0.11362387441E+01 -0.20415502195E+01 -0.45275648194E+02  0.45335894004E+02  0.00000000000E+00 0.  1.
         -1    1    1    2    0  502 -0.57729479373E+01  0.31993883934E+02 -0.31677553432E+03  0.31843943644E+03  0.00000000000E+00 0. -1.
<mgrwt>
<rscale>  1 0.30000000E+03</rscale>
<asrwt>0</asrwt>
<pdfrwt beam="1">  1       21 0.44456791E-02 0.30000000E+03</pdfrwt>
<pdfrwt beam="2">0</pdfrwt>
<totfact> 0.35175340E+04</totfact>
</mgrwt>
</event>
<event>
 6    1  0.1198667E-001  0.3000000E+03  0.7818608E-02  0.1093470E+00
         21   -1    0    0  501  502  0.00000000000E+00  0.00000000000E+00  0.37648507289E+01  0.37648507289E+01  0.00000000000E+00 0. -1.
         13   -1    0    0    0    0 -0.00000000000E+00 -0.00000000000E+00 -0.10000000000E+04  0.10000000000E+04  0.00000000000E+00 0.  1.
    9000005    2    1    2  501    0 -0.11452377347E+02  0.58559355070E+02 -0.61411350123E+03  0.61701259293E+03  0.29652022834E+01 0.  0.
         13    1    3    3    0    0 -0.34674518220E+01  0.23931302628E+02 -0.24006364553E+03  0.24127843744E+03  0.00000000000E+00 0.  1.
          1    1    3    3  501    0 -0.79849255249E+01  0.34628052442E+02 -0.37404985570E+03  0.37573415549E+03  0.00000000000E+00 0.  1.
         -3    1    1    2    0  502  0.11452377347E+02 -0.58559355070E+02 -0.38212164804E+03  0.38675225780E+03  0.00000000000E+00 0. -1.
<mgrwt>
<rscale>  1 0.30000000E+03</rscale>
<asrwt>0</asrwt>
<pdfrwt beam="1">  1       21 0.13690395E-01 0.30000000E+03</pdfrwt>
<pdfrwt beam="2">0</pdfrwt>
<totfact> 0.48726301E+03</totfact>
</mgrwt>
</event>
<event>
 6    1  0.1198667E-001  0.3000000E+03  0.7818608E-02  0.1093470E+00
         21   -1    0    0  501  502  0.00000000000E+00  0.00000000000E+00  0.10162101056E+02  0.10162101056E+02  0.00000000000E+00 0. -1.
         13   -1    0    0    0    0 -0.00000000000E+00 -0.00000000000E+00 -0.10000000000E+04  0.10000000000E+04  0.00000000000E+00 0.  1.
    9000005    2    1    2  501    0  0.38212289263E+02  0.27309552746E+02 -0.94181124903E+03  0.94298658599E+03  0.30466115935E+01 0.  0.
         13    1    3    3    0    0  0.92319063857E+01  0.75957413374E+01 -0.26117258583E+03  0.26144606130E+03  0.00000000000E+00 0.  1.
          1    1    3    3  501    0  0.28980382877E+02  0.19713811409E+02 -0.68063866321E+03  0.68154052470E+03  0.00000000000E+00 0.  1.
         -3    1    1    2    0  502 -0.38212289263E+02 -0.27309552746E+02 -0.48026649913E+02  0.67175515061E+02  0.00000000000E+00 0. -1.
<mgrwt>
<rscale>  1 0.30000000E+03</rscale>
<asrwt>0</asrwt>
<pdfrwt beam="1">  1       21 0.36953173E-01 0.30000000E+03</pdfrwt>
<pdfrwt beam="2">0</pdfrwt>
<totfact> 0.71185629E+02</totfact>
</mgrwt>
</event>
<event>
 6    1  0.1198667E-001  0.3000000E+03  0.7818608E-02  0.1093470E+00
         21   -1    0    0  501  502  0.00000000000E+00  0.00000000000E+00  0.19361424077E+01  0.19361424077E+01  0.00000000000E+00 0. -1.
         13   -1    0    0    0    0 -0.00000000000E+00 -0.00000000000E+00 -0.10000000000E+04  0.10000000000E+04  0.00000000000E+00 0.  1.
    9000005    2    1    2  501    0  0.31280352240E+02  0.48660676793E+01 -0.84652980213E+03  0.84713075162E+03  0.39579542045E+01 0.  0.
         13    1    3    3    0    0  0.33788231716E+01  0.27308013656E+00 -0.12771141654E+03  0.12775639684E+03  0.00000000000E+00 0.  1.
          1    1    3    3  501    0  0.27901529068E+02  0.45929875427E+01 -0.71881838559E+03  0.71937435479E+03  0.00000000000E+00 0.  1.
         -1    1    1    2    0  502 -0.31280352240E+02 -0.48660676793E+01 -0.15153405546E+03  0.15480539078E+03  0.00000000000E+00 0. -1.
<mgrwt>
<rscale>  1 0.30000000E+03</rscale>
<asrwt>0</asrwt>
<pdfrwt beam="1">  1       21 0.70405327E-02 0.30000000E+03</pdfrwt>
<pdfrwt beam="2">0</pdfrwt>
<totfact> 0.15973931E+04</totfact>
</mgrwt>
</event>
<event>
 6    1  0.1198667E-001  0.3000000E+03  0.7818608E-02  0.1093470E+00
         21   -1    0    0  501  502  0.00000000000E+00  0.00000000000E+00  0.15878458071E+01  0.15878458071E+01  0.00000000000E+00 0. -1.
         13   -1    0    0    0    0 -0.00000000000E+00 -0.00000000000E+00 -0.10000000000E+04  0.10000000000E+04  0.00000000000E+00 0.  1.
    9000005    2    1    2  501    0 -0.30224254713E+02 -0.23467349600E+02 -0.63554710378E+03  0.63671078859E+03  0.40354822707E+01 0.  0.
         13    1    3    3    0    0 -0.13314201190E+02 -0.10612301714E+02 -0.31614280383E+03  0.31660094964E+03  0.00000000000E+00 0.  1.
          1    1    3    3  501    0 -0.16910053523E+02 -0.12855047886E+02 -0.31940429995E+03  0.32010983895E+03  0.00000000000E+00 0.  1.
         -3    1    1    2    0  502  0.30224254713E+02  0.23467349600E+02 -0.36286505041E+03  0.36487705721E+03  0.00000000000E+00 0. -1.
<mgrwt>
<rscale>  1 0.30000000E+03</rscale>
<asrwt>0</asrwt>
<pdfrwt beam="1">  1       21 0.57739969E-02 0.30000000E+03</pdfrwt>
<pdfrwt beam="2">0</pdfrwt>
<totfact> 0.22513077E+04</totfact>
</mgrwt>
</event>
<event>
 6    1  0.1198667E-001  0.3000000E+03  0.7818608E-02  0.1093470E+00
         21   -1    0    0  501  502  0.00000000000E+00  0.00000000000E+00  0.26069065682E+01  0.26069065682E+01  0.00000000000E+00 0. -1.
         13   -1    0    0    0    0 -0.00000000000E+00 -0.00000000000E+00 -0.10000000000E+04  0.10000000000E+04  0.00000000000E+00 0.  1.
    9000005    2    1    2  501    0 -0.50753748996E+02  0.29606426866E+01 -0.53967296111E+03  0.54207196981E+03  0.32259972212E+01 0.  0.
         13    1    3    3    0    0 -0.33417419759E+02  0.27386109981E+01 -0.34152939450E+03  0.34317131471E+03  0.00000000000E+00 0.  1.
          3    1    3    3  501    0 -0.17336329237E+02  0.22203168849E+00 -0.19814356661E+03  0.19890065510E+03  0.00000000000E+00 0.  1.
         -3    1    1    2    0  502  0.50753748996E+02 -0.29606426866E+01 -0.45772013232E+03  0.46053493675E+03  0.00000000000E+00 0. -1.
<mgrwt>
<rscale>  1 0.30000000E+03</rscale>
<asrwt>0</asrwt>
<pdfrwt beam="1">  1       21 0.94796802E-02 0.30000000E+03</pdfrwt>
<pdfrwt beam="2">0</pdfrwt>
<totfact> 0.94637482E+03</totfact>
</mgrwt>
</event>
<event>
 6    1  0.1198667E-001  0.3000000E+03  0.7818608E-02  0.1093470E+00
         21   -1    0    0  501  502  0.00000000000E+00  0.00000000000E+00  0.15818873046E+01  0.15818873046E+01  0.00000000000E+00 0. -1.
         13   -1    0    0    0    0 -0.00000000000E+00 -0.00000000000E+00 -0.10000000000E+04  0.10000000000E+04  0.00000000000E+00 0.  1.
    9000005    2    1    2  501    0 -0.38537810311E+02 -0.70502135967E+01 -0.58174513785E+03  0.58307115112E+03  0.31134419722E+01 0.  0.
         13    1    3    3    0    0 -0.36065767289E+02 -0.71951637716E+01 -0.55146472227E+03  0.55268965058E+03  0.00000000000E+00 0.  1.
          3    1    3    3  501    0 -0.24720430218E+01  0.14495017491E+00 -0.30280415575E+02  0.30381500533E+02  0.00000000000E+00 0.  1.
         -3    1    1    2    0  502  0.38537810311E+02  0.70502135967E+01 -0.41667297485E+03  0.41851073619E+03  0.00000000000E+00 0. -1.
<mgrwt>
<rscale>  1 0.30000000E+03</rscale>
<asrwt>0</asrwt>
<pdfrwt beam="1">  1       21 0.57523296E-02 0.30000000E+03</pdfrwt>
<pdfrwt beam="2">0</pdfrwt>
<totfact> 0.22659231E+04</totfact>
</mgrwt>
</event>
<event>
 6    1  0.1198667E-001  0.3000000E+03  0.7818608E-02  0.1093470E+00
         21   -1    0    0  501  502  0.00000000000E+00  0.00000000000E+00  0.27299790269E+01  0.27299790269E+01  0.00000000000E+00 0. -1.
         13   -1    0    0    0    0 -0.00000000000E+00 -0.00000000000E+00 -0.10000000000E+04  0.10000000000E+04  0.00000000000E+00 0.  1.
    9000005    2    1    2  501    0 -0.32249493589E+02  0.41028698296E+02 -0.51149072020E+03  0.51415561111E+03  0.31387370123E+01 0.  0.
         13    1    3    3    0    0 -0.29467939543E+02  0.37639560066E+02 -0.47630888116E+03  0.47870162546E+03  0.00000000000E+00 0.  1.
          1    1    3    3  501    0 -0.27815540454E+01  0.33891382306E+01 -0.35181839035E+02  0.35453985654E+02  0.00000000000E+00 0.  1.
         -1    1    1    2    0  502  0.32249493589E+02 -0.41028698296E+02 -0.48577930078E+03  0.48857436792E+03  0.00000000000E+00 0. -1.
<mgrwt>
<rscale>  1 0.30000000E+03</rscale>
<asrwt>0</asrwt>
<pdfrwt beam="1">  1       21 0.99272174E-02 0.30000000E+03</pdfrwt>
<pdfrwt beam="2">0</pdfrwt>
<totfact> 0.87162035E+03</totfact>
</mgrwt>
</event>
<event>
 6    1  0.1198667E-001  0.3000000E+03  0.7818608E-02  0.1093470E+00
         21   -1    0    0  501  502  0.00000000000E+00  0.00000000000E+00  0.14632566292E+01  0.14632566292E+01  0.00000000000E+00 0. -1.
         13   -1    0    0    0    0 -0.00000000000E+00 -0.00000000000E+00 -0.10000000000E+04  0.10000000000E+04  0.00000000000E+00 0.  1.
    9000005    2    1    2  501    0  0.32048224481E+02 -0.61923494691E+01 -0.75951065343E+03  0.76021876331E+03  0.32713194718E+01 0.  0.
         13    1    3    3    0    0  0.23391928024E+02 -0.31721639628E+01 -0.56143587067E+03  0.56193191918E+03  0.00000000000E+00 0.  1.
          3    1    3    3  501    0  0.86562964570E+01 -0.30201855062E+01 -0.19807478276E+03  0.19828684412E+03  0.00000000000E+00 0.  1.
         -1    1    1    2    0  502 -0.32048224481E+02  0.61923494691E+01 -0.23902608995E+03  0.24124449332E+03  0.00000000000E+00 0. -1.
<mgrwt>
<rscale>  1 0.30000000E+03</rscale>
<asrwt>0</asrwt>
<pdfrwt beam="1">  1       21 0.53209444E-02 0.30000000E+03</pdfrwt>
<pdfrwt beam="2">0</pdfrwt>
<totfact> 0.25901533E+04</totfact>
</mgrwt>
</event>
<event>
 6    1  0.1198667E-001  0.3000000E+03  0.7818608E-02  0.1093470E+00
         21   -1    0    0  501  502  0.00000000000E+00  0.00000000000E+00  0.33218314526E+01  0.33218314526E+01  0.00000000000E+00 0. -1.
         13   -1    0    0    0    0 -0.00000000000E+00 -0.00000000000E+00 -0.10000000000E+04  0.10000000000E+04  0.00000000000E+00 0.  1.
    9000005    2    1    2  501    0 -0.32030713639E+02 -0.92706798390E+01 -0.90740040304E+03  0.90802003957E+03  0.36039857721E+01 0.  0.
         13    1    3    3    0    0 -0.27345266430E+02 -0.81534177523E+01 -0.80666914451E+03  0.80717368052E+03  0.00000000000E+00 0.  1.
          1    1    3    3  501    0 -0.46854472093E+01 -0.11172620867E+01 -0.10073125853E+03  0.10084635905E+03  0.00000000000E+00 0.  1.
         -3    1    1    2    0  502  0.32030713639E+02  0.92706798390E+01 -0.89277765509E+02  0.95301791878E+02  0.00000000000E+00 0. -1.
<mgrwt>
<rscale>  1 0.30000000E+03</rscale>
<asrwt>0</asrwt>
<pdfrwt beam="1">  1       21 0.12079413E-01 0.30000000E+03</pdfrwt>
<pdfrwt beam="2">0</pdfrwt>
<totfact> 0.61233476E+03</totfact>
</mgrwt>
</event>
<event>
 6    1  0.1198667E-001  0.3000000E+03  0.7818608E-02  0.1093470E+00
         21   -1    0    0  501  502  0.00000000000E+00  0.00000000000E+00  0.17350587757E+02  0.17350587757E+02  0.00000000000E+00 0. -1.
         13   -1    0    0    0    0 -0.00000000000E+00 -0.00000000000E+00 -0.10000000000E+04  0.10000000000E+04  0.00000000000E+00 0.  1.
    9000005    2    1    2  501    0  0.63934694122E+02 -0.92024425295E+02 -0.75839035707E+03  0.76665502779E+03  0.69179451902E+01 0.  0.
         13    1    3    3    0    0  0.17609701398E+02 -0.21790200626E+02 -0.17479770871E+03  0.17702867959E+03  0.00000000000E+00 0.  1.
          3    1    3    3  501    0  0.46324992724E+02 -0.70234224668E+02 -0.58359264836E+03  0.58962634820E+03  0.00000000000E+00 0.  1.
         -3    1    1    2    0  502 -0.63934694122E+02  0.92024425295E+02 -0.22425905517E+03  0.25069555997E+03  0.00000000000E+00 0. -1.
<mgrwt>
<rscale>  1 0.30000000E+03</rscale>
<asrwt>0</asrwt>
<pdfrwt beam="1">  1       21 0.63093179E-01 0.30000000E+03</pdfrwt>
<pdfrwt beam="2">0</pdfrwt>
<totfact> 0.22414180E+02</totfact>
</mgrwt>
</event>
<event>
 6    1  0.1198667E-001  0.3000000E+03  0.7818608E-02  0.1093470E+00
         21   -1    0    0  501  502  0.00000000000E+00  0.00000000000E+00  0.40110754671E+01  0.40110754671E+01  0.00000000000E+00 0. -1.
         13   -1    0    0    0    0 -0.00000000000E+00 -0.00000000000E+00 -0.10000000000E+04  0.10000000000E+04  0.00000000000E+00 0.  1.
    9000005    2    1    2  501    0 -0.22682627740E+02 -0.40663489837E+02 -0.83815933162E+03  0.83945652097E+03  0.28573429929E+01 0.  0.
         13    1    3    3    0    0 -0.11408248019E+01 -0.10834453441E+01 -0.24816389443E+02  0.24866212419E+02  0.00000000000E+00 0.  1.
          1    1    3    3  501    0 -0.21541802939E+02 -0.39580044493E+02 -0.81334294218E+03  0.81459030855E+03  0.00000000000E+00 0.  1.
         -3    1    1    2    0  502  0.22682627740E+02  0.40663489837E+02 -0.15782959291E+03  0.16455455449E+03  0.00000000000E+00 0. -1.
<mgrwt>
<rscale>  1 0.30000000E+03</rscale>
<asrwt>0</asrwt>
<pdfrwt beam="1">  1       21 0.14585760E-01 0.30000000E+03</pdfrwt>
<pdfrwt beam="2">0</pdfrwt>
<totfact> 0.43367512E+03</totfact>
</mgrwt>
</event>
<event>
 6    1  0.1198667E-001  0.3000000E+03  0.7818608E-02  0.1093470E+00
         21   -1    0    0  501  502  0.00000000000E+00  0.00000000000E+00  0.17015393210E+01  0.17015393210E+01  0.00000000000E+00 0. -1.
         13   -1    0    0    0    0 -0.00000000000E+00 -0.00000000000E+00 -0.10000000000E+04  0.10000000000E+04  0.00000000000E+00 0.  1.
    9000005    2    1    2  501    0  0.40235552681E+02  0.41133953480E+01 -0.59508933717E+03  0.59646899250E+03  0.28495756774E+01 0.  0.
         13    1    3    3    0    0  0.27375024025E+02  0.21902403215E+01 -0.38600504134E+03  0.38698072436E+03  0.00000000000E+00 0.  1.
          1    1    3    3  501    0  0.12860528656E+02  0.19231550265E+01 -0.20908429583E+03  0.20948826813E+03  0.00000000000E+00 0.  1.
         -3    1    1    2    0  502 -0.40235552681E+02 -0.41133953480E+01 -0.40320912351E+03  0.40523254682E+03  0.00000000000E+00 0. -1.
<mgrwt>
<rscale>  1 0.30000000E+03</rscale>
<asrwt>0</asrwt>
<pdfrwt beam="1">  1       21 0.61874288E-02 0.30000000E+03</pdfrwt>
<pdfrwt beam="2">0</pdfrwt>
<totfact> 0.19982261E+04</totfact>
</mgrwt>
</event>
<event>
 6    1  0.1198667E-001  0.3000000E+03  0.7818608E-02  0.1093470E+00
         21   -1    0    0  501  502  0.00000000000E+00  0.00000000000E+00  0.12216732388E+01  0.12216732388E+01  0.00000000000E+00 0. -1.
         13   -1    0    0    0    0 -0.00000000000E+00 -0.00000000000E+00 -0.10000000000E+04  0.10000000000E+04  0.00000000000E+00 0.  1.
    9000005    2    1    2  501    0 -0.31489196409E+02  0.13517174962E+02 -0.58645531250E+03  0.58747712451E+03  0.50254113575E+01 0.  0.
         13    1    3    3    0    0 -0.28789032800E+02  0.13669996691E+02 -0.54905718912E+03  0.54998133982E+03  0.00000000000E+00 0.  1.
          1    1    3    3  501    0 -0.27001636088E+01 -0.15282172902E+00 -0.37398123373E+02  0.37495784694E+02  0.00000000000E+00 0.  1.
         -1    1    1    2    0  502  0.31489196409E+02 -0.13517174962E+02 -0.41232301426E+03  0.41374454873E+03  0.00000000000E+00 0. -1.
<mgrwt>
<rscale>  1 0.30000000E+03</rscale>
<asrwt>0</asrwt>
<pdfrwt beam="1">  1       21 0.44424575E-02 0.30000000E+03</pdfrwt>
<pdfrwt beam="2">0</pdfrwt>
<totfact> 0.35218593E+04</totfact>
</mgrwt>
</event>
<event>
 6    1  0.1198667E-001  0.3000000E+03  0.7818608E-02  0.1093470E+00
         21   -1    0    0  501  502  0.00000000000E+00  0.00000000000E+00  0.23239276352E+01  0.23239276352E+01  0.00000000000E+00 0. -1.
         13   -1    0    0    0    0 -0.00000000000E+00 -0.00000000000E+00 -0.10000000000E+04  0.10000000000E+04  0.00000000000E+00 0.  1.
    9000005    2    1    2  501    0 -0.22793995521E+02 -0.28840272805E+02 -0.82272044852E+03  0.82354809627E+03  0.33470704846E+01 0.  0.
         13    1    3    3    0    0 -0.21042559226E+02 -0.25148200107E+02 -0.74228464918E+03  0.74300856097E+03  0.00000000000E+00 0.  1.
          3    1    3    3  501    0 -0.17514362956E+01 -0.36920726977E+01 -0.80435799341E+02  0.80539535295E+02  0.00000000000E+00 0.  1.
         -3    1    1    2    0  502  0.22793995521E+02  0.28840272805E+02 -0.17495562384E+03  0.17877583137E+03  0.00000000000E+00 0. -1.
<mgrwt>
<rscale>  1 0.30000000E+03</rscale>
<asrwt>0</asrwt>
<pdfrwt beam="1">  1       21 0.84506638E-02 0.30000000E+03</pdfrwt>
<pdfrwt beam="2">0</pdfrwt>
<totfact> 0.11599697E+04</totfact>
</mgrwt>
</event>
<event>
 6    1  0.1198667E-001  0.3000000E+03  0.7818608E-02  0.1093470E+00
         21   -1    0    0  501  502  0.00000000000E+00  0.00000000000E+00  0.52253892284E+01  0.52253892284E+01  0.00000000000E+00 0. -1.
         13   -1    0    0    0    0 -0.00000000000E+00 -0.00000000000E+00 -0.10000000000E+04  0.10000000000E+04  0.00000000000E+00 0.  1.
    9000005    2    1    2  501    0 -0.58310526306E+02  0.19780755982E+02 -0.76045271454E+03  0.76294838487E+03  0.32420896347E+01 0.  0.
         13    1    3    3    0    0 -0.32477914788E+02  0.12681564035E+02 -0.43392230130E+03  0.43532080192E+03  0.00000000000E+00 0.  1.
          3    1    3    3  501    0 -0.25832611518E+02  0.70991919472E+01 -0.32653041324E+03  0.32762758295E+03  0.00000000000E+00 0.  1.
         -1    1    1    2    0  502  0.58310526306E+02 -0.19780755982E+02 -0.23432189623E+03  0.24227700436E+03  0.00000000000E+00 0. -1.
<mgrwt>
<rscale>  1 0.30000000E+03</rscale>
<asrwt>0</asrwt>
<pdfrwt beam="1">  1       21 0.19001455E-01 0.30000000E+03</pdfrwt>
<pdfrwt beam="2">0</pdfrwt>
<totfact> 0.26447048E+03</totfact>
</mgrwt>
</event>
<event>
 6    1  0.1198667E-001  0.3000000E+03  0.7818608E-02  0.1093470E+00
         21   -1    0    0  501  502  0.00000000000E+00  0.00000000000E+00  0.30346360080E+01  0.30346360080E+01  0.00000000000E+00 0. -1.
         13   -1    0    0    0    0 -0.00000000000E+00 -0.00000000000E+00 -0.10000000000E+04  0.10000000000E+04  0.00000000000E+00 0.  1.
    9000005    2    1    2  501    0 -0.46024374398E+02 -0.29307246688E+02 -0.56386169063E+03  0.56650748951E+03  0.36839879900E+01 0.  0.
         13    1    3    3    0    0 -0.23170207901E+02 -0.14963121909E+02 -0.26601961792E+03  0.26744567798E+03  0.00000000000E+00 0.  1.
          3    1    3    3  501    0 -0.22854166497E+02 -0.14344124779E+02 -0.29784207271E+03  0.29906181153E+03  0.00000000000E+00 0.  1.
         -3    1    1    2    0  502  0.46024374398E+02  0.29307246688E+02 -0.43310367336E+03  0.43652714649E+03  0.00000000000E+00 0. -1.
<mgrwt>
<rscale>  1 0.30000000E+03</rscale>
<asrwt>0</asrwt>
<pdfrwt beam="1">  1       21 0.11035063E-01 0.30000000E+03</pdfrwt>
<pdfrwt beam="2">0</pdfrwt>
<totfact> 0.72106125E+03</totfact>
</mgrwt>
</event>
<event>
 6    1  0.1198667E-001  0.3000000E+03  0.7818608E-02  0.1093470E+00
         21   -1    0    0  501  502  0.00000000000E+00  0.00000000000E+00  0.13434401919E+01  0.13434401919E+01  0.00000000000E+00 0. -1.
         13   -1    0    0    0    0 -0.00000000000E+00 -0.00000000000E+00 -0.10000000000E+04  0.10000000000E+04  0.00000000000E+00 0.  1.
    9000005    2    1    2  501    0 -0.68125104555E+01 -0.31925598020E+02 -0.72628085658E+03  0.72701849088E+03  0.25197886573E+01 0.  0.
         13    1    3    3    0    0 -0.37546574067E+00 -0.48157452915E+01 -0.94133111881E+02  0.94256963295E+02  0.00000000000E+00 0.  1.
          3    1    3    3  501    0 -0.64370447148E+01 -0.27109852729E+02 -0.63214774470E+03  0.63276152758E+03  0.00000000000E+00 0.  1.
         -3    1    1    2    0  502  0.68125104555E+01  0.31925598020E+02 -0.27237570323E+03  0.27432494932E+03  0.00000000000E+00 0. -1.
<mgrwt>
<rscale>  1 0.30000000E+03</rscale>
<asrwt>0</asrwt>
<pdfrwt beam="1">  1       21 0.48852474E-02 0.30000000E+03</pdfrwt>
<pdfrwt beam="2">0</pdfrwt>
<totfact> 0.29966960E+04</totfact>
</mgrwt>
</event>
<event>
 6    1  0.1198667E-001  0.3000000E+03  0.7818608E-02  0.1093470E+00
         21   -1    0    0  501  502  0.00000000000E+00  0.00000000000E+00  0.19417601639E+01  0.19417601639E+01  0.00000000000E+00 0. -1.
         13   -1    0    0    0    0 -0.00000000000E+00 -0.00000000000E+00 -0.10000000000E+04  0.10000000000E+04  0.00000000000E+00 0.  1.
    9000005    2    1    2  501    0  0.33394077412E+02 -0.98649673114E+01 -0.80568232419E+03  0.80643990619E+03  0.29720024310E+01 0.  0.
         13    1    3    3    0    0  0.29962845119E+02 -0.90886156064E+01 -0.74223370113E+03  0.74289382964E+03  0.00000000000E+00 0.  1.
          3    1    3    3  501    0  0.34312322933E+01 -0.77635170498E+00 -0.63448623065E+02  0.63546076558E+02  0.00000000000E+00 0.  1.
         -1    1    1    2    0  502 -0.33394077412E+02  0.98649673114E+01 -0.19237591564E+03  0.19550185397E+03  0.00000000000E+00 0. -1.
<mgrwt>
<rscale>  1 0.30000000E+03</rscale>
<asrwt>0</asrwt>
<pdfrwt beam="1">  1       21 0.70609609E-02 0.30000000E+03</pdfrwt>
<pdfrwt beam="2">0</pdfrwt>
<totfact> 0.15893541E+04</totfact>
</mgrwt>
</event>
<event>
 6    1  0.1198667E-001  0.3000000E+03  0.7818608E-02  0.1093470E+00
         21   -1    0    0  501  502  0.00000000000E+00  0.00000000000E+00  0.10459132161E+01  0.10459132161E+01  0.00000000000E+00 0. -1.
         13   -1    0    0    0    0 -0.00000000000E+00 -0.00000000000E+00 -0.10000000000E+04  0.10000000000E+04  0.00000000000E+00 0.  1.
    9000005    2    1    2  501    0  0.29769837522E+02  0.12416454303E+02 -0.51149399183E+03  0.51251980773E+03  0.31682928568E+01 0.  0.
         13    1    3    3    0    0  0.14063402379E+01  0.18141502527E-01 -0.17135557348E+02  0.17193180264E+02  0.00000000000E+00 0.  1.
          3    1    3    3  501    0  0.28363497284E+02  0.12398312800E+02 -0.49435843448E+03  0.49532662747E+03  0.00000000000E+00 0.  1.
         -1    1    1    2    0  502 -0.29769837522E+02 -0.12416454303E+02 -0.48746009496E+03  0.48852610548E+03  0.00000000000E+00 0. -1.
<mgrwt>
<rscale>  1 0.30000000E+03</rscale>
<asrwt>0</asrwt>
<pdfrwt beam="1">  1       21 0.38033288E-02 0.30000000E+03</pdfrwt>
<pdfrwt beam="2">0</pdfrwt>
<totfact> 0.45768697E+04</totfact>
</mgrwt>
</event>
<event>
 6    1  0.1198667E-001  0.3000000E+03  0.7818608E-02  0.1093470E+00
         21   -1    0    0  501  502  0.00000000000E+00  0.00000000000E+00  0.12542629342E+01  0.12542629342E+01  0.00000000000E+00 0. -1.
         13   -1    0    0    0    0 -0.00000000000E+00 -0.00000000000E+00 -0.10000000000E+04  0.10000000000E+04  0.00000000000E+00 0.  1.
    9000005    2    1    2  501    0 -0.33313797934E+02  0.11215386053E+02 -0.45024806258E+03  0.45163139866E+03  0.34653110942E+01 0.  0.
         13    1    3    3    0    0 -0.50075330266E+01  0.29961242441E+01 -0.70394082119E+02  0.70635535992E+02  0.00000000000E+00 0.  1.
          3    1    3    3  501    0 -0.28306264908E+02  0.82192618092E+01 -0.37985398046E+03  0.38099586267E+03  0.00000000000E+00 0.  1.
         -1    1    1    2    0  502  0.33313797934E+02 -0.11215386053E+02 -0.54849767448E+03  0.54962286427E+03  0.00000000000E+00 0. -1.
<mgrwt>
<rscale>  1 0.30000000E+03</rscale>
<asrwt>0</asrwt>
<pdfrwt beam="1">  1       21 0.45609657E-02 0.30000000E+03</pdfrwt>
<pdfrwt beam="2">0</pdfrwt>
<totfact> 0.33679837E+04</totfact>
</mgrwt>
</event>
<event>
 6    1  0.1198667E-001  0.3000000E+03  0.7818608E-02  0.1093470E+00
         21   -1    0    0  501  502  0.00000000000E+00  0.00000000000E+00  0.30040306901E+01  0.30040306901E+01  0.00000000000E+00 0. -1.
         13   -1    0    0    0    0 -0.00000000000E+00 -0.00000000000E+00 -0.10000000000E+04  0.10000000000E+04  0.00000000000E+00 0.  1.
    9000005    2    1    2  501    0  0.33193175679E+01 -0.37055049698E+02 -0.86632812045E+03  0.86714314116E+03  0.53591424484E+01 0.  0.
         13    1    3    3    0    0  0.28486477675E+01 -0.36488176788E+02 -0.82869134940E+03  0.82949915878E+03  0.00000000000E+00 0.  1.
          1    1    3    3  501    0  0.47066980038E+00 -0.56687290997E+00 -0.37636771046E+02  0.37643982384E+02  0.00000000000E+00 0.  1.
         -1    1    1    2    0  502 -0.33193175679E+01  0.37055049698E+02 -0.13066784886E+03  0.13586088953E+03  0.00000000000E+00 0. -1.
<mgrwt>
<rscale>  1 0.30000000E+03</rscale>
<asrwt>0</asrwt>
<pdfrwt beam="1">  1       21 0.10923771E-01 0.30000000E+03</pdfrwt>
<pdfrwt beam="2">0</pdfrwt>
<totfact> 0.73432972E+03</totfact>
</mgrwt>
</event>
<event>
 6    1  0.1198667E-001  0.3000000E+03  0.7818608E-02  0.1093470E+00
         21   -1    0    0  501  502  0.00000000000E+00  0.00000000000E+00  0.14382440108E+01  0.14382440108E+01  0.00000000000E+00 0. -1.
         13   -1    0    0    0    0 -0.00000000000E+00 -0.00000000000E+00 -0.10000000000E+04  0.10000000000E+04  0.00000000000E+00 0.  1.
    9000005    2    1    2  501    0  0.11736561020E+02 -0.32892582288E+02 -0.30738139711E+03  0.30937613889E+03  0.32562548088E+01 0.  0.
         13    1    3    3    0    0  0.39455796487E+01 -0.12208447509E+02 -0.99802466706E+02  0.10062378521E+03  0.00000000000E+00 0.  1.
          1    1    3    3  501    0  0.77909813718E+01 -0.20684134778E+02 -0.20757893040E+03  0.20875235368E+03  0.00000000000E+00 0.  1.
         -1    1    1    2    0  502 -0.11736561020E+02  0.32892582288E+02 -0.69118035888E+03  0.69206210512E+03  0.00000000000E+00 0. -1.
<mgrwt>
<rscale>  1 0.30000000E+03</rscale>
<asrwt>0</asrwt>
<pdfrwt beam="1">  1       21 0.52299892E-02 0.30000000E+03</pdfrwt>
<pdfrwt beam="2">0</pdfrwt>
<totfact> 0.26676479E+04</totfact>
</mgrwt>
</event>
<event>
 6    1  0.1198667E-001  0.3000000E+03  0.7818608E-02  0.1093470E+00
         21   -1    0    0  501  502  0.00000000000E+00  0.00000000000E+00  0.28175329300E+01  0.28175329300E+01  0.00000000000E+00 0. -1.
         13   -1    0    0    0    0 -0.00000000000E+00 -0.00000000000E+00 -0.10000000000E+04  0.10000000000E+04  0.00000000000E+00 0.  1.
    9000005    2    1    2  501    0  0.12826051688E+01 -0.40751862794E+02 -0.81939749504E+03  0.82041727066E+03  0.31438382486E+01 0.  0.
         13    1    3    3    0    0  0.16699797680E+01 -0.39697961775E+02 -0.79041495307E+03  0.79141298640E+03  0.00000000000E+00 0.  1.
          3    1    3    3  501    0 -0.38737459920E+00 -0.10539010181E+01 -0.28982541972E+02  0.29004284263E+02  0.00000000000E+00 0.  1.
         -1    1    1    2    0  502 -0.12826051688E+01  0.40751862794E+02 -0.17778497203E+03  0.18240026227E+03  0.00000000000E+00 0. -1.
<mgrwt>
<rscale>  1 0.30000000E+03</rscale>
<asrwt>0</asrwt>
<pdfrwt beam="1">  1       21 0.10245596E-01 0.30000000E+03</pdfrwt>
<pdfrwt beam="2">0</pdfrwt>
<totfact> 0.82379200E+03</totfact>
</mgrwt>
</event>
<event>
 6    1  0.1198667E-001  0.3000000E+03  0.7818608E-02  0.1093470E+00
         21   -1    0    0  501  502  0.00000000000E+00  0.00000000000E+00  0.54380262473E+01  0.54380262473E+01  0.00000000000E+00 0. -1.
         13   -1    0    0    0    0 -0.00000000000E+00 -0.00000000000E+00 -0.10000000000E+04  0.10000000000E+04  0.00000000000E+00 0.  1.
    9000005    2    1    2  501    0 -0.42437015179E+02 -0.44271554466E+02 -0.77627623112E+03  0.77870131500E+03  0.31749304201E+01 0.  0.
         13    1    3    3    0    0 -0.30351558190E+02 -0.31482978067E+02 -0.57125764451E+03  0.57292904570E+03  0.00000000000E+00 0.  1.
          1    1    3    3  501    0 -0.12085456989E+02 -0.12788576400E+02 -0.20501858661E+03  0.20577226930E+03  0.00000000000E+00 0.  1.
         -3    1    1    2    0  502  0.42437015179E+02  0.44271554466E+02 -0.21828574263E+03  0.22673671125E+03  0.00000000000E+00 0. -1.
<mgrwt>
<rscale>  1 0.30000000E+03</rscale>
<asrwt>0</asrwt>
<pdfrwt beam="1">  1       21 0.19774683E-01 0.30000000E+03</pdfrwt>
<pdfrwt beam="2">0</pdfrwt>
<totfact> 0.24516344E+03</totfact>
</mgrwt>
</event>
<event>
 6    1  0.1198667E-001  0.3000000E+03  0.7818608E-02  0.1093470E+00
         21   -1    0    0  501  502  0.00000000000E+00  0.00000000000E+00  0.40405319202E+01  0.40405319202E+01  0.00000000000E+00 0. -1.
         13   -1    0    0    0    0 -0.00000000000E+00 -0.00000000000E+00 -0.10000000000E+04  0.10000000000E+04  0.00000000000E+00 0.  1.
    9000005    2    1    2  501    0  0.45229768113E+02 -0.16494836313E+02 -0.82566452187E+03  0.82707109882E+03  0.26245520781E+01 0.  0.
         13    1    3    3    0    0  0.33359765572E+02 -0.13243945861E+02 -0.60558104132E+03  0.60664377823E+03  0.00000000000E+00 0.  1.
          3    1    3    3  501    0  0.11870002541E+02 -0.32508904522E+01 -0.22008348055E+03  0.22042732058E+03  0.00000000000E+00 0.  1.
         -3    1    1    2    0  502 -0.45229768113E+02  0.16494836313E+02 -0.17029494621E+03  0.17696943310E+03  0.00000000000E+00 0. -1.
<mgrwt>
<rscale>  1 0.30000000E+03</rscale>
<asrwt>0</asrwt>
<pdfrwt beam="1">  1       21 0.14692874E-01 0.30000000E+03</pdfrwt>
<pdfrwt beam="2">0</pdfrwt>
<totfact> 0.42785769E+03</totfact>
</mgrwt>
</event>
<event>
 6    1  0.1198667E-001  0.3000000E+03  0.7818608E-02  0.1093470E+00
         21   -1    0    0  501  502  0.00000000000E+00  0.00000000000E+00  0.28625462544E+01  0.28625462544E+01  0.00000000000E+00 0. -1.
         13   -1    0    0    0    0 -0.00000000000E+00 -0.00000000000E+00 -0.10000000000E+04  0.10000000000E+04  0.00000000000E+00 0.  1.
    9000005    2    1    2  501    0  0.30393833138E+02 -0.24537367685E+02 -0.84055799532E+03  0.84148412667E+03  0.56501717473E+01 0.  0.
         13    1    3    3    0    0  0.18475402187E+02 -0.17600015025E+02 -0.58096847190E+03  0.58152856022E+03  0.00000000000E+00 0.  1.
          3    1    3    3  501    0  0.11918430951E+02 -0.69373526595E+01 -0.25958952342E+03  0.25995556645E+03  0.00000000000E+00 0.  1.
         -3    1    1    2    0  502 -0.30393833138E+02  0.24537367685E+02 -0.15657945843E+03  0.16137841959E+03  0.00000000000E+00 0. -1.
<mgrwt>
<rscale>  1 0.30000000E+03</rscale>
<asrwt>0</asrwt>
<pdfrwt beam="1">  1       21 0.10409281E-01 0.30000000E+03</pdfrwt>
<pdfrwt beam="2">0</pdfrwt>
<totfact> 0.80074214E+03</totfact>
</mgrwt>
</event>
<event>
 6    1  0.1198667E-001  0.3000000E+03  0.7818608E-02  0.1093470E+00
         21   -1    0    0  501  502  0.00000000000E+00  0.00000000000E+00  0.14723538920E+01  0.14723538920E+01  0.00000000000E+00 0. -1.
         13   -1    0    0    0    0 -0.00000000000E+00 -0.00000000000E+00 -0.10000000000E+04  0.10000000000E+04  0.00000000000E+00 0.  1.
    9000005    2    1    2  501    0 -0.86416638171E+01 -0.36997554147E+02 -0.56118703733E+03  0.56248453464E+03  0.38030874509E+01 0.  0.
         13    1    3    3    0    0 -0.77126366314E+01 -0.33863735824E+02 -0.49507234331E+03  0.49628909164E+03  0.00000000000E+00 0.  1.
          1    1    3    3  501    0 -0.92902718577E+00 -0.31338183229E+01 -0.66114694022E+02  0.66195443003E+02  0.00000000000E+00 0.  1.
         -3    1    1    2    0  502  0.86416638171E+01  0.36997554147E+02 -0.43734060877E+03  0.43898781925E+03  0.00000000000E+00 0. -1.
<mgrwt>
<rscale>  1 0.30000000E+03</rscale>
<asrwt>0</asrwt>
<pdfrwt beam="1">  1       21 0.53540254E-02 0.30000000E+03</pdfrwt>
<pdfrwt beam="2">0</pdfrwt>
<totfact> 0.25628293E+04</totfact>
</mgrwt>
</event>
<event>
 6    1  0.1198667E-001  0.3000000E+03  0.7818608E-02  0.1093470E+00
         21   -1    0    0  501  502  0.00000000000E+00  0.00000000000E+00  0.30593367787E+01  0.30593367787E+01  0.00000000000E+00 0. -1.
         13   -1    0    0    0    0 -0.00000000000E+00 -0.00000000000E+00 -0.10000000000E+04  0.10000000000E+04  0.00000000000E+00 0.  1.
    9000005    2    1    2  501    0 -0.23511202556E+02 -0.44831777415E+02 -0.69852158360E+03  0.70037697523E+03  0.57305988131E+01 0.  0.
         13    1    3    3    0    0 -0.16461289568E+02 -0.26787266667E+02 -0.45628778803E+03  0.45736973798E+03  0.00000000000E+00 0.  1.
          3    1    3    3  501    0 -0.70499129878E+01 -0.18044510748E+02 -0.24223379557E+03  0.24300723725E+03  0.00000000000E+00 0.  1.
         -1    1    1    2    0  502  0.23511202556E+02  0.44831777415E+02 -0.29841907962E+03  0.30268236155E+03  0.00000000000E+00 0. -1.
<mgrwt>
<rscale>  1 0.30000000E+03</rscale>
<asrwt>0</asrwt>
<pdfrwt beam="1">  1       21 0.11124884E-01 0.30000000E+03</pdfrwt>
<pdfrwt beam="2">0</pdfrwt>
<totfact> 0.71061440E+03</totfact>
</mgrwt>
</event>
<event>
 6    1  0.1198667E-001  0.3000000E+03  0.7818608E-02  0.1093470E+00
         21   -1    0    0  501  502  0.00000000000E+00  0.00000000000E+00  0.59510947481E+01  0.59510947481E+01  0.00000000000E+00 0. -1.
         13   -1    0    0    0    0 -0.00000000000E+00 -0.00000000000E+00 -0.10000000000E+04  0.10000000000E+04  0.00000000000E+00 0.  1.
    9000005    2    1    2  501    0  0.30734060268E+02 -0.69172826816E+02 -0.59300106982E+03  0.59782264838E+03  0.34910855528E+01 0.  0.
         13    1    3    3    0    0  0.22311558553E+02 -0.47127406733E+02 -0.40009012787E+03  0.40347355370E+03  0.00000000000E+00 0.  1.
          1    1    3    3  501    0  0.84225017149E+01 -0.22045420083E+02 -0.19291094194E+03  0.19434909468E+03  0.00000000000E+00 0.  1.
         -3    1    1    2    0  502 -0.30734060268E+02  0.69172826816E+02 -0.40104783543E+03  0.40812844637E+03  0.00000000000E+00 0. -1.
<mgrwt>
<rscale>  1 0.30000000E+03</rscale>
<asrwt>0</asrwt>
<pdfrwt beam="1">  1       21 0.21640390E-01 0.30000000E+03</pdfrwt>
<pdfrwt beam="2">0</pdfrwt>
<totfact> 0.20629754E+03</totfact>
</mgrwt>
</event>
<event>
 6    1  0.1198667E-001  0.3000000E+03  0.7818608E-02  0.1093470E+00
         21   -1    0    0  501  502  0.00000000000E+00  0.00000000000E+00  0.93817733664E+00  0.93817733664E+00  0.00000000000E+00 0. -1.
         13   -1    0    0    0    0 -0.00000000000E+00 -0.00000000000E+00 -0.10000000000E+04  0.10000000000E+04  0.00000000000E+00 0.  1.
    9000005    2    1    2  501    0 -0.59698939136E+01  0.29937403970E+02 -0.51617622908E+03  0.51708863018E+03  0.32960898296E+01 0.  0.
         13    1    3    3    0    0 -0.16401861212E+01  0.10919812215E+02 -0.21248473673E+03  0.21277146391E+03  0.00000000000E+00 0.  1.
          3    1    3    3  501    0 -0.43297077924E+01  0.19017591755E+02 -0.30369149235E+03  0.30431716627E+03  0.00000000000E+00 0.  1.
         -3    1    1    2    0  502  0.59698939136E+01 -0.29937403970E+02 -0.48288559359E+03  0.48384954716E+03  0.00000000000E+00 0. -1.
<mgrwt>
<rscale>  1 0.30000000E+03</rscale>
<asrwt>0</asrwt>
<pdfrwt beam="1">  1       21 0.34115611E-02 0.30000000E+03</pdfrwt>
<pdfrwt beam="2">0</pdfrwt>
<totfact> 0.54918564E+04</totfact>
</mgrwt>
</event>
<event>
 6    1  0.1198667E-001  0.3000000E+03  0.7818608E-02  0.1093470E+00
         21   -1    0    0  501  502  0.00000000000E+00  0.00000000000E+00  0.50960023697E+01  0.50960023697E+01  0.00000000000E+00 0. -1.
         13   -1    0    0    0    0 -0.00000000000E+00 -0.00000000000E+00 -0.10000000000E+04  0.10000000000E+04  0.00000000000E+00 0.  1.
    9000005    2    1    2  501    0  0.56945809389E+02 -0.22115231877E+02 -0.75666881533E+03  0.75915310092E+03  0.58159999521E+01 0.  0.
         13    1    3    3    0    0  0.87305470563E+01 -0.12427799569E+01 -0.10457487137E+03  0.10494603697E+03  0.00000000000E+00 0.  1.
          1    1    3    3  501    0  0.48215262332E+02 -0.20872451920E+02 -0.65209394396E+03  0.65420706395E+03  0.00000000000E+00 0.  1.
         -1    1    1    2    0  502 -0.56945809389E+02  0.22115231877E+02 -0.23823518230E+03  0.24594290145E+03  0.00000000000E+00 0. -1.
<mgrwt>
<rscale>  1 0.30000000E+03</rscale>
<asrwt>0</asrwt>
<pdfrwt beam="1">  1       21 0.18530957E-01 0.30000000E+03</pdfrwt>
<pdfrwt beam="2">0</pdfrwt>
<totfact> 0.27732193E+03</totfact>
</mgrwt>
</event>
<event>
 6    1  0.1198667E-001  0.3000000E+03  0.7818608E-02  0.1093470E+00
         21   -1    0    0  501  502  0.00000000000E+00  0.00000000000E+00  0.94726931639E+00  0.94726931639E+00  0.00000000000E+00 0. -1.
         13   -1    0    0    0    0 -0.00000000000E+00 -0.00000000000E+00 -0.10000000000E+04  0.10000000000E+04  0.00000000000E+00 0.  1.
    9000005    2    1    2  501    0 -0.16052592027E+02  0.25985079601E+02 -0.54856070214E+03  0.54942099339E+03  0.34167192177E+01 0.  0.
         13    1    3    3    0    0 -0.35324150911E+01  0.54254173039E+01 -0.93308145740E+02  0.93532471210E+02  0.00000000000E+00 0.  1.
          3    1    3    3  501    0 -0.12520176936E+02  0.20559662297E+02 -0.45525255640E+03  0.45588852218E+03  0.00000000000E+00 0.  1.
         -1    1    1    2    0  502  0.16052592027E+02 -0.25985079601E+02 -0.45049202855E+03  0.45152627593E+03  0.00000000000E+00 0. -1.
<mgrwt>
<rscale>  1 0.30000000E+03</rscale>
<asrwt>0</asrwt>
<pdfrwt beam="1">  1       21 0.34446230E-02 0.30000000E+03</pdfrwt>
<pdfrwt beam="2">0</pdfrwt>
<totfact> 0.54040061E+04</totfact>
</mgrwt>
</event>
<event>
 6    1  0.1198667E-001  0.3000000E+03  0.7818608E-02  0.1093470E+00
         21   -1    0    0  501  502  0.00000000000E+00  0.00000000000E+00  0.19101787011E+01  0.19101787011E+01  0.00000000000E+00 0. -1.
         13   -1    0    0    0    0 -0.00000000000E+00 -0.00000000000E+00 -0.10000000000E+04  0.10000000000E+04  0.00000000000E+00 0.  1.
    9000005    2    1    2  501    0  0.37890186837E+02 -0.19454362415E+02 -0.39103354021E+03  0.39336152256E+03  0.34524469592E+01 0.  0.
         13    1    3    3    0    0  0.36667013024E+02 -0.19014087427E+02 -0.37263783742E+03  0.37491994244E+03  0.00000000000E+00 0.  1.
          3    1    3    3  501    0  0.12231738135E+01 -0.44027498801E+00 -0.18395702789E+02  0.18441580121E+02  0.00000000000E+00 0.  1.
         -1    1    1    2    0  502 -0.37890186837E+02  0.19454362415E+02 -0.60705628109E+03  0.60854865614E+03  0.00000000000E+00 0. -1.
<mgrwt>
<rscale>  1 0.30000000E+03</rscale>
<asrwt>0</asrwt>
<pdfrwt beam="1">  1       21 0.69461190E-02 0.30000000E+03</pdfrwt>
<pdfrwt beam="2">0</pdfrwt>
<totfact> 0.16353666E+04</totfact>
</mgrwt>
</event>
<event>
 6    1  0.1198667E-001  0.3000000E+03  0.7818608E-02  0.1093470E+00
         21   -1    0    0  501  502  0.00000000000E+00  0.00000000000E+00  0.22155043294E+01  0.22155043294E+01  0.00000000000E+00 0. -1.
         13   -1    0    0    0    0 -0.00000000000E+00 -0.00000000000E+00 -0.10000000000E+04  0.10000000000E+04  0.00000000000E+00 0.  1.
    9000005    2    1    2  501    0  0.38260731029E+02  0.25949034110E+02 -0.58987323651E+03  0.59169287248E+03  0.35755116364E+01 0.  0.
         13    1    3    3    0    0  0.14954582618E+02  0.10784733418E+02 -0.21422548895E+03  0.21501746472E+03  0.00000000000E+00 0.  1.
          3    1    3    3  501    0  0.23306148411E+02  0.15164300692E+02 -0.37564774755E+03  0.37667540776E+03  0.00000000000E+00 0.  1.
         -3    1    1    2    0  502 -0.38260731029E+02 -0.25949034110E+02 -0.40791125916E+03  0.41052263185E+03  0.00000000000E+00 0. -1.
<mgrwt>
<rscale>  1 0.30000000E+03</rscale>
<asrwt>0</asrwt>
<pdfrwt beam="1">  1       21 0.80563964E-02 0.30000000E+03</pdfrwt>
<pdfrwt beam="2">0</pdfrwt>
<totfact> 0.12617191E+04</totfact>
</mgrwt>
</event>
<event>
 6    1  0.1198667E-001  0.3000000E+03  0.7818608E-02  0.1093470E+00
         21   -1    0    0  501  502  0.00000000000E+00  0.00000000000E+00  0.14176823615E+01  0.14176823615E+01  0.00000000000E+00 0. -1.
         13   -1    0    0    0    0 -0.00000000000E+00 -0.00000000000E+00 -0.10000000000E+04  0.10000000000E+04  0.00000000000E+00 0.  1.
    9000005    2    1    2  501    0  0.37075670533E+02  0.54746354229E+01 -0.53593291360E+03  0.53725278920E+03  0.34488627260E+01 0.  0.
         13    1    3    3    0    0  0.18852335313E+02  0.13352591486E+01 -0.25578054252E+03  0.25647783412E+03  0.00000000000E+00 0.  1.
          1    1    3    3  501    0  0.18223335220E+02  0.41393762743E+01 -0.28015237108E+03  0.28077495509E+03  0.00000000000E+00 0.  1.
         -1    1    1    2    0  502 -0.37075670533E+02 -0.54746354229E+01 -0.46264940404E+03  0.46416489316E+03  0.00000000000E+00 0. -1.
<mgrwt>
<rscale>  1 0.30000000E+03</rscale>
<asrwt>0</asrwt>
<pdfrwt beam="1">  1       21 0.51552195E-02 0.30000000E+03</pdfrwt>
<pdfrwt beam="2">0</pdfrwt>
<totfact> 0.27340781E+04</totfact>
</mgrwt>
</event>
<event>
 6    1  0.1198667E-001  0.3000000E+03  0.7818608E-02  0.1093470E+00
         21   -1    0    0  501  502  0.00000000000E+00  0.00000000000E+00  0.11916126141E+01  0.11916126141E+01  0.00000000000E+00 0. -1.
         13   -1    0    0    0    0 -0.00000000000E+00 -0.00000000000E+00 -0.10000000000E+04  0.10000000000E+04  0.00000000000E+00 0.  1.
    9000005    2    1    2  501    0  0.33875130805E+02 -0.46292027436E+01 -0.55746041738E+03  0.55852132376E+03  0.38727438692E+01 0.  0.
         13    1    3    3    0    0  0.12544276440E+02 -0.11844970597E+01 -0.23530713781E+03  0.23564424671E+03  0.00000000000E+00 0.  1.
          1    1    3    3  501    0  0.21330854365E+02 -0.34447056839E+01 -0.32215327957E+03  0.32287707705E+03  0.00000000000E+00 0.  1.
         -3    1    1    2    0  502 -0.33875130805E+02  0.46292027436E+01 -0.44134797001E+03  0.44267028886E+03  0.00000000000E+00 0. -1.
<mgrwt>
<rscale>  1 0.30000000E+03</rscale>
<asrwt>0</asrwt>
<pdfrwt beam="1">  1       21 0.43331459E-02 0.30000000E+03</pdfrwt>
<pdfrwt beam="2">0</pdfrwt>
<totfact> 0.36736430E+04</totfact>
</mgrwt>
</event>
<event>
 6    1  0.1198667E-001  0.3000000E+03  0.7818608E-02  0.1093470E+00
         21   -1    0    0  501  502  0.00000000000E+00  0.00000000000E+00  0.12161446209E+01  0.12161446209E+01  0.00000000000E+00 0. -1.
         13   -1    0    0    0    0 -0.00000000000E+00 -0.00000000000E+00 -0.10000000000E+04  0.10000000000E+04  0.00000000000E+00 0.  1.
    9000005    2    1    2  501    0  0.46124585998E+00 -0.34549007830E+02 -0.43993942413E+03  0.44130459355E+03  0.30332640149E+01 0.  0.
         13    1    3    3    0    0  0.90391646801E+00 -0.20633745954E+02 -0.27968214003E+03  0.28044369843E+03  0.00000000000E+00 0.  1.
          1    1    3    3  501    0 -0.44267060803E+00 -0.13915261876E+02 -0.16025728410E+03  0.16086089512E+03  0.00000000000E+00 0.  1.
         -1    1    1    2    0  502 -0.46124585998E+00  0.34549007830E+02 -0.55884443125E+03  0.55991155107E+03  0.00000000000E+00 0. -1.
<mgrwt>
<rscale>  1 0.30000000E+03</rscale>
<asrwt>0</asrwt>
<pdfrwt beam="1">  1       21 0.44223534E-02 0.30000000E+03</pdfrwt>
<pdfrwt beam="2">0</pdfrwt>
<totfact> 0.35490382E+04</totfact>
</mgrwt>
</event>
<event>
 6    1  0.1198667E-001  0.3000000E+03  0.7818608E-02  0.1093470E+00
         21   -1    0    0  501  502  0.00000000000E+00  0.00000000000E+00  0.20535395135E+01  0.20535395135E+01  0.00000000000E+00 0. -1.
         13   -1    0    0    0    0 -0.00000000000E+00 -0.00000000000E+00 -0.10000000000E+04  0.10000000000E+04  0.00000000000E+00 0.  1.
    9000005    2    1    2  501    0  0.28668635287E+02  0.20688756156E+02 -0.81031908688E+03  0.81112437304E+03  0.74706566524E+01 0.  0.
         13    1    3    3    0    0  0.28555292277E+02  0.19694554827E+02 -0.80119559965E+03  0.80194617594E+03  0.00000000000E+00 0.  1.
          3    1    3    3  501    0  0.11334300998E+00  0.99420132849E+00 -0.91234872258E+01  0.91781971040E+01  0.00000000000E+00 0.  1.
         -3    1    1    2    0  502 -0.28668635287E+02 -0.20688756156E+02 -0.18762737361E+03  0.19092916647E+03  0.00000000000E+00 0. -1.
<mgrwt>
<rscale>  1 0.30000000E+03</rscale>
<asrwt>0</asrwt>
<pdfrwt beam="1">  1       21 0.74674322E-02 0.30000000E+03</pdfrwt>
<pdfrwt beam="2">0</pdfrwt>
<totfact> 0.14413862E+04</totfact>
</mgrwt>
</event>
<event>
 6    1  0.1198667E-001  0.3000000E+03  0.7818608E-02  0.1093470E+00
         21   -1    0    0  501  502  0.00000000000E+00  0.00000000000E+00  0.18208114714E+01  0.18208114714E+01  0.00000000000E+00 0. -1.
         13   -1    0    0    0    0 -0.00000000000E+00 -0.00000000000E+00 -0.10000000000E+04  0.10000000000E+04  0.00000000000E+00 0.  1.
    9000005    2    1    2  501    0  0.28904308750E+02  0.18073372212E+02 -0.79990842720E+03  0.80064079098E+03  0.31746538071E+01 0.  0.
         13    1    3    3    0    0  0.16243345947E+02  0.92531070118E+01 -0.40563751932E+03  0.40606805262E+03  0.00000000000E+00 0.  1.
          1    1    3    3  501    0  0.12660962802E+02  0.88202652005E+01 -0.39427090788E+03  0.39457273837E+03  0.00000000000E+00 0.  1.
         -1    1    1    2    0  502 -0.28904308750E+02 -0.18073372212E+02 -0.19827076133E+03  0.20118002049E+03  0.00000000000E+00 0. -1.
<mgrwt>
<rscale>  1 0.30000000E+03</rscale>
<asrwt>0</asrwt>
<pdfrwt beam="1">  1       21 0.66211466E-02 0.30000000E+03</pdfrwt>
<pdfrwt beam="2">0</pdfrwt>
<totfact> 0.17772310E+04</totfact>
</mgrwt>
</event>
<event>
 6    1  0.1198667E-001  0.3000000E+03  0.7818608E-02  0.1093470E+00
         21   -1    0    0  501  502  0.00000000000E+00  0.00000000000E+00  0.13611623755E+01  0.13611623755E+01  0.00000000000E+00 0. -1.
         13   -1    0    0    0    0 -0.00000000000E+00 -0.00000000000E+00 -0.10000000000E+04  0.10000000000E+04  0.00000000000E+00 0.  1.
    9000005    2    1    2  501    0  0.29245513438E+02 -0.80192727399E+01 -0.77908509130E+03  0.77972304220E+03  0.86506793994E+01 0.  0.
         13    1    3    3    0    0  0.27674298632E+02 -0.69893697870E+01 -0.65249514346E+03  0.65311915478E+03  0.00000000000E+00 0.  1.
          1    1    3    3  501    0  0.15712148054E+01 -0.10299029529E+01 -0.12658994784E+03  0.12660388742E+03  0.00000000000E+00 0.  1.
         -3    1    1    2    0  502 -0.29245513438E+02  0.80192727399E+01 -0.21955374632E+03  0.22163812018E+03  0.00000000000E+00 0. -1.
<mgrwt>
<rscale>  1 0.30000000E+03</rscale>
<asrwt>0</asrwt>
<pdfrwt beam="1">  1       21 0.49496918E-02 0.30000000E+03</pdfrwt>
<pdfrwt beam="2">0</pdfrwt>
<totfact> 0.29305405E+04</totfact>
</mgrwt>
</event>
<event>
 6    1  0.1198667E-001  0.3000000E+03  0.7818608E-02  0.1093470E+00
         21   -1    0    0  501  502  0.00000000000E+00  0.00000000000E+00  0.10771635307E+02  0.10771635307E+02  0.00000000000E+00 0. -1.
         13   -1    0    0    0    0 -0.00000000000E+00 -0.00000000000E+00 -0.10000000000E+04  0.10000000000E+04  0.00000000000E+00 0.  1.
    9000005    2    1    2  501    0  0.82466770931E+02  0.54283214501E+01 -0.80020683383E+03  0.80447240091E+03  0.38251721450E+01 0.  0.
         13    1    3    3    0    0  0.63061429324E+02  0.42708300697E+01 -0.62727176264E+03  0.63044813273E+03  0.00000000000E+00 0.  1.
          1    1    3    3  501    0  0.19405341608E+02  0.11574913804E+01 -0.17293507119E+03  0.17402426818E+03  0.00000000000E+00 0.  1.
         -3    1    1    2    0  502 -0.82466770931E+02 -0.54283214501E+01 -0.18902153086E+03  0.20629923439E+03  0.00000000000E+00 0. -1.
<mgrwt>
<rscale>  1 0.30000000E+03</rscale>
<asrwt>0</asrwt>
<pdfrwt beam="1">  1       21 0.39169666E-01 0.30000000E+03</pdfrwt>
<pdfrwt beam="2">0</pdfrwt>
<totfact> 0.63100619E+02</totfact>
</mgrwt>
</event>
<event>
 6    1  0.1198667E-001  0.3000000E+03  0.7818608E-02  0.1093470E+00
         21   -1    0    0  501  502  0.00000000000E+00  0.00000000000E+00  0.18718072636E+01  0.18718072636E+01  0.00000000000E+00 0. -1.
         13   -1    0    0    0    0 -0.00000000000E+00 -0.00000000000E+00 -0.10000000000E+04  0.10000000000E+04  0.00000000000E+00 0.  1.
    9000005    2    1    2  501    0  0.50299965880E+01 -0.29645719816E+02 -0.85889435897E+03  0.85942802876E+03  0.35842961535E+01 0.  0.
         13    1    3    3    0    0  0.12249876072E+01 -0.17202147093E+02 -0.47240941099E+03  0.47272409083E+03  0.00000000000E+00 0.  1.
          1    1    3    3  501    0  0.38050089807E+01 -0.12443572723E+02 -0.38648494798E+03  0.38670393793E+03  0.00000000000E+00 0.  1.
         -1    1    1    2    0  502 -0.50299965880E+01  0.29645719816E+02 -0.13923383377E+03  0.14244377851E+03  0.00000000000E+00 0. -1.
<mgrwt>
<rscale>  1 0.30000000E+03</rscale>
<asrwt>0</asrwt>
<pdfrwt beam="1">  1       21 0.68065862E-02 0.30000000E+03</pdfrwt>
<pdfrwt beam="2">0</pdfrwt>
<totfact> 0.16940692E+04</totfact>
</mgrwt>
</event>
<event>
 6    1  0.1198667E-001  0.3000000E+03  0.7818608E-02  0.1093470E+00
         21   -1    0    0  501  502  0.00000000000E+00  0.00000000000E+00  0.18812771279E+01  0.18812771279E+01  0.00000000000E+00 0. -1.
         13   -1    0    0    0    0 -0.00000000000E+00 -0.00000000000E+00 -0.10000000000E+04  0.10000000000E+04  0.00000000000E+00 0.  1.
    9000005    2    1    2  501    0 -0.10389977720E+02 -0.29947044149E+02 -0.84066352272E+03  0.84126708988E+03  0.32219548781E+01 0.  0.
         13    1    3    3    0    0 -0.66101955837E+01 -0.22164890353E+02 -0.58423801874E+03  0.58469568118E+03  0.00000000000E+00 0.  1.
          3    1    3    3  501    0 -0.37797821363E+01 -0.77821537961E+01 -0.25642550398E+03  0.25657140870E+03  0.00000000000E+00 0.  1.
         -1    1    1    2    0  502  0.10389977720E+02  0.29947044149E+02 -0.15745520015E+03  0.16061418725E+03  0.00000000000E+00 0. -1.
<mgrwt>
<rscale>  1 0.30000000E+03</rscale>
<asrwt>0</asrwt>
<pdfrwt beam="1">  1       21 0.68410222E-02 0.30000000E+03</pdfrwt>
<pdfrwt beam="2">0</pdfrwt>
<totfact> 0.16792851E+04</totfact>
</mgrwt>
</event>
<event>
 6    1  0.1198667E-001  0.3000000E+03  0.7818608E-02  0.1093470E+00
         21   -1    0    0  501  502  0.00000000000E+00  0.00000000000E+00  0.17664550385E+01  0.17664550385E+01  0.00000000000E+00 0. -1.
         13   -1    0    0    0    0 -0.00000000000E+00 -0.00000000000E+00 -0.10000000000E+04  0.10000000000E+04  0.00000000000E+00 0.  1.
    9000005    2    1    2  501    0  0.29623320999E+02  0.17728786771E+02 -0.78406234830E+03  0.78483062926E+03  0.36741765493E+01 0.  0.
         13    1    3    3    0    0  0.14980623808E+01  0.14259749705E+01 -0.32695640548E+02  0.32760990620E+02  0.00000000000E+00 0.  1.
          1    1    3    3  501    0  0.28125258618E+02  0.16302811801E+02 -0.75136670775E+03  0.75206963864E+03  0.00000000000E+00 0.  1.
         -1    1    1    2    0  502 -0.29623320999E+02 -0.17728786771E+02 -0.21417119666E+03  0.21693582578E+03  0.00000000000E+00 0. -1.
<mgrwt>
<rscale>  1 0.30000000E+03</rscale>
<asrwt>0</asrwt>
<pdfrwt beam="1">  1       21 0.64234864E-02 0.30000000E+03</pdfrwt>
<pdfrwt beam="2">0</pdfrwt>
<totfact> 0.18730004E+04</totfact>
</mgrwt>
</event>
<event>
 6    1  0.1198667E-001  0.3000000E+03  0.7818608E-02  0.1093470E+00
         21   -1    0    0  501  502  0.00000000000E+00  0.00000000000E+00  0.24199836588E+01  0.24199836588E+01  0.00000000000E+00 0. -1.
         13   -1    0    0    0    0 -0.00000000000E+00 -0.00000000000E+00 -0.10000000000E+04  0.10000000000E+04  0.00000000000E+00 0.  1.
    9000005    2    1    2  501    0 -0.30770166740E+02 -0.12763942145E+02 -0.86731451716E+03  0.86796247491E+03  0.38294655068E+01 0.  0.
         13    1    3    3    0    0 -0.15940728152E+02 -0.48067635416E+01 -0.40699622346E+03  0.40733663928E+03  0.00000000000E+00 0.  1.
          3    1    3    3  501    0 -0.14829438589E+02 -0.79571786033E+01 -0.46031829370E+03  0.46062583564E+03  0.00000000000E+00 0.  1.
         -1    1    1    2    0  502  0.30770166740E+02  0.12763942145E+02 -0.13026549918E+03  0.13445750875E+03  0.00000000000E+00 0. -1.
<mgrwt>
<rscale>  1 0.30000000E+03</rscale>
<asrwt>0</asrwt>
<pdfrwt beam="1">  1       21 0.87999591E-02 0.30000000E+03</pdfrwt>
<pdfrwt beam="2">0</pdfrwt>
<totfact> 0.10799281E+04</totfact>
</mgrwt>
</event>
<event>
 6    1  0.1198667E-001  0.3000000E+03  0.7818608E-02  0.1093470E+00
         21   -1    0    0  501  502  0.00000000000E+00  0.00000000000E+00  0.34573065339E+01  0.34573065339E+01  0.00000000000E+00 0. -1.
         13   -1    0    0    0    0 -0.00000000000E+00 -0.00000000000E+00 -0.10000000000E+04  0.10000000000E+04  0.00000000000E+00 0.  1.
    9000005    2    1    2  501    0  0.25906334598E+02  0.25689818425E+02 -0.89160145654E+03  0.89235479463E+03  0.35801198351E+01 0.  0.
         13    1    3    3    0    0  0.45622770200E+01  0.47689213157E+01 -0.19732631177E+03  0.19743664883E+03  0.00000000000E+00 0.  1.
          1    1    3    3  501    0  0.21344057578E+02  0.20920897109E+02 -0.69427514477E+03  0.69491814581E+03  0.00000000000E+00 0.  1.
         -3    1    1    2    0  502 -0.25906334598E+02 -0.25689818425E+02 -0.10494123693E+03  0.11110251190E+03  0.00000000000E+00 0. -1.
<mgrwt>
<rscale>  1 0.30000000E+03</rscale>
<asrwt>0</asrwt>
<pdfrwt beam="1">  1       21 0.12572050E-01 0.30000000E+03</pdfrwt>
<pdfrwt beam="2">0</pdfrwt>
<totfact> 0.56937662E+03</totfact>
</mgrwt>
</event>
<event>
 6    1  0.1198667E-001  0.3000000E+03  0.7818608E-02  0.1093470E+00
         21   -1    0    0  501  502  0.00000000000E+00  0.00000000000E+00  0.25772937362E+01  0.25772937362E+01  0.00000000000E+00 0. -1.
         13   -1    0    0    0    0 -0.00000000000E+00 -0.00000000000E+00 -0.10000000000E+04  0.10000000000E+04  0.00000000000E+00 0.  1.
    9000005    2    1    2  501    0  0.29149888372E+02  0.28116478163E+02 -0.80059061029E+03  0.80162176049E+03  0.34451809355E+01 0.  0.
         13    1    3    3    0    0  0.11940219758E+02  0.92066122082E+01 -0.29586782183E+03  0.29625174861E+03  0.00000000000E+00 0.  1.
          3    1    3    3  501    0  0.17209668614E+02  0.18909865955E+02 -0.50472278846E+03  0.50537001189E+03  0.00000000000E+00 0.  1.
         -3    1    1    2    0  502 -0.29149888372E+02 -0.28116478163E+02 -0.19683209597E+03  0.20095553324E+03  0.00000000000E+00 0. -1.
<mgrwt>
<rscale>  1 0.30000000E+03</rscale>
<asrwt>0</asrwt>
<pdfrwt beam="1">  1       21 0.93719970E-02 0.30000000E+03</pdfrwt>
<pdfrwt beam="2">0</pdfrwt>
<totfact> 0.96581489E+03</totfact>
</mgrwt>
</event>
<event>
 6    1  0.1198667E-001  0.3000000E+03  0.7818608E-02  0.1093470E+00
         21   -1    0    0  501  502  0.00000000000E+00  0.00000000000E+00  0.97973101740E+00  0.97973101740E+00  0.00000000000E+00 0. -1.
         13   -1    0    0    0    0 -0.00000000000E+00 -0.00000000000E+00 -0.10000000000E+04  0.10000000000E+04  0.00000000000E+00 0.  1.
    9000005    2    1    2  501    0  0.37352985432E+01 -0.30858357146E+02 -0.46155792674E+03  0.46261929415E+03  0.38341775310E+01 0.  0.
         13    1    3    3    0    0  0.17863471270E+01 -0.24440653601E+02 -0.34582350338E+03  0.34669068646E+03  0.00000000000E+00 0.  1.
          3    1    3    3  501    0  0.19489514162E+01 -0.64177035458E+01 -0.11573442336E+03  0.11592860769E+03  0.00000000000E+00 0.  1.
         -1    1    1    2    0  502 -0.37352985432E+01  0.30858357146E+02 -0.53746234224E+03  0.53836043687E+03  0.00000000000E+00 0. -1.
<mgrwt>
<rscale>  1 0.30000000E+03</rscale>
<asrwt>0</asrwt>
<pdfrwt beam="1">  1       21 0.35626658E-02 0.30000000E+03</pdfrwt>
<pdfrwt beam="2">0</pdfrwt>
<totfact> 0.51075306E+04</totfact>
</mgrwt>
</event>
<event>
 6    1  0.1198667E-001  0.3000000E+03  0.7818608E-02  0.1093470E+00
         21   -1    0    0  501  502  0.00000000000E+00  0.00000000000E+00  0.24502673498E+01  0.24502673498E+01  0.00000000000E+00 0. -1.
         13   -1    0    0    0    0 -0.00000000000E+00 -0.00000000000E+00 -0.10000000000E+04  0.10000000000E+04  0.00000000000E+00 0.  1.
    9000005    2    1    2  501    0  0.46582267699E+02 -0.72625525998E+01 -0.65029022425E+03  0.65200509545E+03  0.32582820910E+01 0.  0.
         13    1    3    3    0    0  0.34933695172E+02 -0.67705693649E+01 -0.48267733563E+03  0.48398720437E+03  0.00000000000E+00 0.  1.
          1    1    3    3  501    0  0.11648572526E+02 -0.49198323486E+00 -0.16761288862E+03  0.16801789108E+03  0.00000000000E+00 0.  1.
         -1    1    1    2    0  502 -0.46582267699E+02  0.72625525998E+01 -0.34725950840E+03  0.35044517190E+03  0.00000000000E+00 0. -1.
<mgrwt>
<rscale>  1 0.30000000E+03</rscale>
<asrwt>0</asrwt>
<pdfrwt beam="1">  1       21 0.89100819E-02 0.30000000E+03</pdfrwt>
<pdfrwt beam="2">0</pdfrwt>
<totfact> 0.10564277E+04</totfact>
</mgrwt>
</event>
<event>
 6    1  0.1198667E-001  0.3000000E+03  0.7818608E-02  0.1093470E+00
         21   -1    0    0  501  502  0.00000000000E+00  0.00000000000E+00  0.31102578108E+01  0.31102578108E+01  0.00000000000E+00 0. -1.
         13   -1    0    0    0    0 -0.00000000000E+00 -0.00000000000E+00 -0.10000000000E+04  0.10000000000E+04  0.00000000000E+00 0.  1.
    9000005    2    1    2  501    0 -0.19758842235E+02 -0.49062929132E+02 -0.34205666099E+03  0.34614454555E+03  0.39628551262E+01 0.  0.
         13    1    3    3    0    0  0.11377237350E+00 -0.32658908493E+00 -0.40392906198E+01  0.40540687334E+01  0.00000000000E+00 0.  1.
          1    1    3    3  501    0 -0.19872614609E+02 -0.48736340047E+02 -0.33801737037E+03  0.34209047681E+03  0.00000000000E+00 0.  1.
         -3    1    1    2    0  502  0.19758842235E+02  0.49062929132E+02 -0.65483308120E+03  0.65696571227E+03  0.00000000000E+00 0. -1.
<mgrwt>
<rscale>  1 0.30000000E+03</rscale>
<asrwt>0</asrwt>
<pdfrwt beam="1">  1       21 0.11310052E-01 0.30000000E+03</pdfrwt>
<pdfrwt beam="2">0</pdfrwt>
<totfact> 0.68978446E+03</totfact>
</mgrwt>
</event>
<event>
 6    1  0.1198667E-001  0.3000000E+03  0.7818608E-02  0.1093470E+00
         21   -1    0    0  501  502  0.00000000000E+00  0.00000000000E+00  0.38427940807E+01  0.38427940807E+01  0.00000000000E+00 0. -1.
         13   -1    0    0    0    0 -0.00000000000E+00 -0.00000000000E+00 -0.10000000000E+04  0.10000000000E+04  0.00000000000E+00 0.  1.
    9000005    2    1    2  501    0  0.55486180853E+02  0.27187042529E+02 -0.46242890843E+03  0.46654981340E+03  0.32220312194E+01 0.  0.
         13    1    3    3    0    0  0.53291013792E+02  0.25954841313E+02 -0.44775909806E+03  0.45166557964E+03  0.00000000000E+00 0.  1.
          1    1    3    3  501    0  0.21951670616E+01  0.12322012165E+01 -0.14669810373E+02  0.14884233760E+02  0.00000000000E+00 0.  1.
         -3    1    1    2    0  502 -0.55486180853E+02 -0.27187042529E+02 -0.53372829749E+03  0.53729298068E+03  0.00000000000E+00 0. -1.
<mgrwt>
<rscale>  1 0.30000000E+03</rscale>
<asrwt>0</asrwt>
<pdfrwt beam="1">  1       21 0.13973826E-01 0.30000000E+03</pdfrwt>
<pdfrwt beam="2">0</pdfrwt>
<totfact> 0.46927827E+03</totfact>
</mgrwt>
</event>
<event>
 6    1  0.1198667E-001  0.3000000E+03  0.7818608E-02  0.1093470E+00
         21   -1    0    0  501  502  0.00000000000E+00  0.00000000000E+00  0.29796571268E+01  0.29796571268E+01  0.00000000000E+00 0. -1.
         13   -1    0    0    0    0 -0.00000000000E+00 -0.00000000000E+00 -0.10000000000E+04  0.10000000000E+04  0.00000000000E+00 0.  1.
    9000005    2    1    2  501    0 -0.33715319311E+02 -0.54616931624E+01 -0.88948412641E+03  0.89014973778E+03  0.42416609369E+01 0.  0.
         13    1    3    3    0    0 -0.18900013219E+02 -0.33539784724E+01 -0.55292623789E+03  0.55325932818E+03  0.00000000000E+00 0.  1.
          1    1    3    3  501    0 -0.14815306092E+02 -0.21077146900E+01 -0.33655788852E+03  0.33689040960E+03  0.00000000000E+00 0.  1.
         -3    1    1    2    0  502  0.33715319311E+02  0.54616931624E+01 -0.10753621647E+03  0.11282991935E+03  0.00000000000E+00 0. -1.
<mgrwt>
<rscale>  1 0.30000000E+03</rscale>
<asrwt>0</asrwt>
<pdfrwt beam="1">  1       21 0.10835140E-01 0.30000000E+03</pdfrwt>
<pdfrwt beam="2">0</pdfrwt>
<totfact> 0.74516198E+03</totfact>
</mgrwt>
</event>
<event>
 6    1  0.1198667E-001  0.3000000E+03  0.7818608E-02  0.1093470E+00
         21   -1    0    0  501  502  0.00000000000E+00  0.00000000000E+00  0.21484558751E+01  0.21484558751E+01  0.00000000000E+00 0. -1.
         13   -1    0    0    0    0 -0.00000000000E+00 -0.00000000000E+00 -0.10000000000E+04  0.10000000000E+04  0.00000000000E+00 0.  1.
    9000005    2    1    2  501    0 -0.34139566127E+02  0.22949255334E+02 -0.72724531099E+03  0.72843343673E+03  0.61115537736E+01 0.  0.
         13    1    3    3    0    0 -0.16457171322E+02  0.86583691675E+01 -0.28747127166E+03  0.28807210534E+03  0.00000000000E+00 0.  1.
          3    1    3    3  501    0 -0.17682394805E+02  0.14290886166E+02 -0.43977403933E+03  0.44036133139E+03  0.00000000000E+00 0.  1.
         -3    1    1    2    0  502  0.34139566127E+02 -0.22949255334E+02 -0.27060623313E+03  0.27371501915E+03  0.00000000000E+00 0. -1.
<mgrwt>
<rscale>  1 0.30000000E+03</rscale>
<asrwt>0</asrwt>
<pdfrwt beam="1">  1       21 0.78125833E-02 0.30000000E+03</pdfrwt>
<pdfrwt beam="2">0</pdfrwt>
<totfact> 0.13316620E+04</totfact>
</mgrwt>
</event>
<event>
 6    1  0.1198667E-001  0.3000000E+03  0.7818608E-02  0.1093470E+00
         21   -1    0    0  501  502  0.00000000000E+00  0.00000000000E+00  0.58774098479E+01  0.58774098479E+01  0.00000000000E+00 0. -1.
         13   -1    0    0    0    0 -0.00000000000E+00 -0.00000000000E+00 -0.10000000000E+04  0.10000000000E+04  0.00000000000E+00 0.  1.
    9000005    2    1    2  501    0 -0.23847339429E+02 -0.45003891816E+02 -0.87283703528E+03  0.87433185995E+03  0.42030104709E+01 0.  0.
         13    1    3    3    0    0 -0.12625394435E+02 -0.19463404698E+02 -0.38854726102E+03  0.38923925644E+03  0.00000000000E+00 0.  1.
          3    1    3    3  501    0 -0.11221944994E+02 -0.25540487118E+02 -0.48428977426E+03  0.48509260351E+03  0.00000000000E+00 0.  1.
         -1    1    1    2    0  502  0.23847339429E+02  0.45003891816E+02 -0.12128555487E+03  0.13154554990E+03  0.00000000000E+00 0. -1.
<mgrwt>
<rscale>  1 0.30000000E+03</rscale>
<asrwt>0</asrwt>
<pdfrwt beam="1">  1       21 0.21372445E-01 0.30000000E+03</pdfrwt>
<pdfrwt beam="2">0</pdfrwt>
<totfact> 0.21129476E+03</totfact>
</mgrwt>
</event>
<event>
 6    1  0.1198667E-001  0.3000000E+03  0.7818608E-02  0.1093470E+00
         21   -1    0    0  501  502  0.00000000000E+00  0.00000000000E+00  0.33017543430E+01  0.33017543430E+01  0.00000000000E+00 0. -1.
         13   -1    0    0    0    0 -0.00000000000E+00 -0.00000000000E+00 -0.10000000000E+04  0.10000000000E+04  0.00000000000E+00 0.  1.
    9000005    2    1    2  501    0  0.28778457581E+02  0.17160451969E+02 -0.90578604883E+03  0.90641156772E+03  0.32989548250E+01 0.  0.
         13    1    3    3    0    0  0.14076206722E+02  0.69236493797E+01 -0.45140534716E+03  0.45167783204E+03  0.00000000000E+00 0.  1.
          1    1    3    3  501    0  0.14702250859E+02  0.10236802589E+02 -0.45438070168E+03  0.45473373568E+03  0.00000000000E+00 0.  1.
         -1    1    1    2    0  502 -0.28778457581E+02 -0.17160451969E+02 -0.90912196823E+02  0.96890186622E+02  0.00000000000E+00 0. -1.
<mgrwt>
<rscale>  1 0.30000000E+03</rscale>
<asrwt>0</asrwt>
<pdfrwt beam="1">  1       21 0.12006405E-01 0.30000000E+03</pdfrwt>
<pdfrwt beam="2">0</pdfrwt>
<totfact> 0.61911212E+03</totfact>
</mgrwt>
</event>
<event>
 6    1  0.1198667E-001  0.3000000E+03  0.7818608E-02  0.1093470E+00
         21   -1    0    0  501  502  0.00000000000E+00  0.00000000000E+00  0.14596736150E+01  0.14596736150E+01  0.00000000000E+00 0. -1.
         13   -1    0    0    0    0 -0.00000000000E+00 -0.00000000000E+00 -0.10000000000E+04  0.10000000000E+04  0.00000000000E+00 0.  1.
    9000005    2    1    2  501    0  0.31073132857E+02 -0.57743972803E+01 -0.77975792351E+03  0.78040623425E+03  0.35479462634E+01 0.  0.
         13    1    3    3    0    0  0.29945099502E+01  0.49064556799E+00 -0.73777431072E+02  0.73839807411E+02  0.00000000000E+00 0.  1.
          3    1    3    3  501    0  0.28078622906E+02 -0.62650428483E+01 -0.70598049244E+03  0.70656642683E+03  0.00000000000E+00 0.  1.
         -1    1    1    2    0  502 -0.31073132857E+02  0.57743972803E+01 -0.21878240288E+03  0.22105343937E+03  0.00000000000E+00 0. -1.
<mgrwt>
<rscale>  1 0.30000000E+03</rscale>
<asrwt>0</asrwt>
<pdfrwt beam="1">  1       21 0.53079152E-02 0.30000000E+03</pdfrwt>
<pdfrwt beam="2">0</pdfrwt>
<totfact> 0.26010388E+04</totfact>
</mgrwt>
</event>
<event>
 6    1  0.1198667E-001  0.3000000E+03  0.7818608E-02  0.1093470E+00
         21   -1    0    0  501  502  0.00000000000E+00  0.00000000000E+00  0.13169129562E+01  0.13169129562E+01  0.00000000000E+00 0. -1.
         13   -1    0    0    0    0 -0.00000000000E+00 -0.00000000000E+00 -0.10000000000E+04  0.10000000000E+04  0.00000000000E+00 0.  1.
    9000005    2    1    2  501    0  0.68587183740E+01 -0.31670265217E+02 -0.27812700102E+03  0.28003255792E+03  0.36819941921E+01 0.  0.
         13    1    3    3    0    0  0.16255577857E+01 -0.86480460031E+01 -0.62378162200E+02  0.62995763804E+02  0.00000000000E+00 0.  1.
          3    1    3    3  501    0  0.52331605883E+01 -0.23022219214E+02 -0.21574883882E+03  0.21703679411E+03  0.00000000000E+00 0.  1.
         -3    1    1    2    0  502 -0.68587183740E+01  0.31670265217E+02 -0.72055608603E+03  0.72128435504E+03  0.00000000000E+00 0. -1.
<mgrwt>
<rscale>  1 0.30000000E+03</rscale>
<asrwt>0</asrwt>
<pdfrwt beam="1">  1       21 0.47887845E-02 0.30000000E+03</pdfrwt>
<pdfrwt beam="2">0</pdfrwt>
<totfact> 0.31001695E+04</totfact>
</mgrwt>
</event>
<event>
 6    1  0.1198667E-001  0.3000000E+03  0.7818608E-02  0.1093470E+00
         21   -1    0    0  501  502  0.00000000000E+00  0.00000000000E+00  0.24128667841E+01  0.24128667841E+01  0.00000000000E+00 0. -1.
         13   -1    0    0    0    0 -0.00000000000E+00 -0.00000000000E+00 -0.10000000000E+04  0.10000000000E+04  0.00000000000E+00 0.  1.
    9000005    2    1    2  501    0 -0.72819261467E+01 -0.35285783819E+02 -0.83923871978E+03  0.84001726024E+03  0.30423231221E+01 0.  0.
         13    1    3    3    0    0 -0.46252754683E+01 -0.19955074221E+02 -0.50964775064E+03  0.51005923959E+03  0.00000000000E+00 0.  1.
          3    1    3    3  501    0 -0.26566506784E+01 -0.15330709598E+02 -0.32959096915E+03  0.32995802065E+03  0.00000000000E+00 0.  1.
         -3    1    1    2    0  502  0.72819261467E+01  0.35285783819E+02 -0.15834841343E+03  0.16239560654E+03  0.00000000000E+00 0. -1.
<mgrwt>
<rscale>  1 0.30000000E+03</rscale>
<asrwt>0</asrwt>
<pdfrwt beam="1">  1       21 0.87740795E-02 0.30000000E+03</pdfrwt>
<pdfrwt beam="2">0</pdfrwt>
<totfact> 0.10855660E+04</totfact>
</mgrwt>
</event>
<event>
 6    1  0.1198667E-001  0.3000000E+03  0.7818608E-02  0.1093470E+00
         21   -1    0    0  501  502  0.00000000000E+00  0.00000000000E+00  0.15933722849E+02  0.15933722849E+02  0.00000000000E+00 0. -1.
         13   -1    0    0    0    0 -0.00000000000E+00 -0.00000000000E+00 -0.10000000000E+04  0.10000000000E+04  0.00000000000E+00 0.  1.
    9000005    2    1    2  501    0 -0.27300405106E+01  0.45139453164E+02 -0.96627448195E+03  0.96733772168E+03  0.32969633469E+01 0.  0.
         13    1    3    3    0    0 -0.21588629345E+01  0.42684124613E+02 -0.92435398391E+03  0.92534149521E+03  0.00000000000E+00 0.  1.
          3    1    3    3  501    0 -0.57117757616E+00  0.24553285512E+01 -0.41920498035E+02  0.41996226469E+02  0.00000000000E+00 0.  1.
         -1    1    1    2    0  502  0.27300405106E+01 -0.45139453164E+02 -0.17791795204E+02  0.48596001170E+02  0.00000000000E+00 0. -1.
<mgrwt>
<rscale>  1 0.30000000E+03</rscale>
<asrwt>0</asrwt>
<pdfrwt beam="1">  1       21 0.57940933E-01 0.30000000E+03</pdfrwt>
<pdfrwt beam="2">0</pdfrwt>
<totfact> 0.27154749E+02</totfact>
</mgrwt>
</event>
<event>
 6    1  0.1198667E-001  0.3000000E+03  0.7818608E-02  0.1093470E+00
         21   -1    0    0  501  502  0.00000000000E+00  0.00000000000E+00  0.27205801428E+01  0.27205801428E+01  0.00000000000E+00 0. -1.
         13   -1    0    0    0    0 -0.00000000000E+00 -0.00000000000E+00 -0.10000000000E+04  0.10000000000E+04  0.00000000000E+00 0.  1.
    9000005    2    1    2  501    0 -0.50370330713E+02 -0.33947694287E+01 -0.37608363348E+03  0.37947672763E+03  0.38720498012E+01 0.  0.
         13    1    3    3    0    0 -0.39685172101E+01  0.74082521146E+00 -0.28005157660E+02  0.28294642715E+02  0.00000000000E+00 0.  1.
          1    1    3    3  501    0 -0.46401813503E+02 -0.41355946402E+01 -0.34807847582E+03  0.35118208492E+03  0.00000000000E+00 0.  1.
         -1    1    1    2    0  502  0.50370330713E+02  0.33947694287E+01 -0.62119578638E+03  0.62324385251E+03  0.00000000000E+00 0. -1.
<mgrwt>
<rscale>  1 0.30000000E+03</rscale>
<asrwt>0</asrwt>
<pdfrwt beam="1">  1       21 0.98930396E-02 0.30000000E+03</pdfrwt>
<pdfrwt beam="2">0</pdfrwt>
<totfact> 0.87700536E+03</totfact>
</mgrwt>
</event>
<event>
 6    1  0.1198667E-001  0.3000000E+03  0.7818608E-02  0.1093470E+00
         21   -1    0    0  501  502  0.00000000000E+00  0.00000000000E+00  0.18780002222E+01  0.18780002222E+01  0.00000000000E+00 0. -1.
         13   -1    0    0    0    0 -0.00000000000E+00 -0.00000000000E+00 -0.10000000000E+04  0.10000000000E+04  0.00000000000E+00 0.  1.
    9000005    2    1    2  501    0 -0.37804764943E+02  0.19280953191E+02 -0.59766281642E+03  0.59917648180E+03  0.32647812256E+01 0.  0.
         13    1    3    3    0    0 -0.94153075643E+00  0.40884988259E+00 -0.89061113033E+01  0.89650687079E+01  0.00000000000E+00 0.  1.
          3    1    3    3  501    0 -0.36863234186E+02  0.18872103308E+02 -0.58875670512E+03  0.59021141309E+03  0.00000000000E+00 0.  1.
         -3    1    1    2    0  502  0.37804764943E+02 -0.19280953191E+02 -0.40045918335E+03  0.40270151842E+03  0.00000000000E+00 0. -1.
<mgrwt>
<rscale>  1 0.30000000E+03</rscale>
<asrwt>0</asrwt>
<pdfrwt beam="1">  1       21 0.68291061E-02 0.30000000E+03</pdfrwt>
<pdfrwt beam="2">0</pdfrwt>
<totfact> 0.16843784E+04</totfact>
</mgrwt>
</event>
<event>
 6    1  0.1198667E-001  0.3000000E+03  0.7818608E-02  0.1093470E+00
         21   -1    0    0  501  502  0.00000000000E+00  0.00000000000E+00  0.18950232293E+01  0.18950232293E+01  0.00000000000E+00 0. -1.
         13   -1    0    0    0    0 -0.00000000000E+00 -0.00000000000E+00 -0.10000000000E+04  0.10000000000E+04  0.00000000000E+00 0.  1.
    9000005    2    1    2  501    0 -0.40596657762E+02  0.93512424698E+01 -0.63966125607E+03  0.64103849319E+03  0.53191057539E+01 0.  0.
         13    1    3    3    0    0 -0.12753984463E+01 -0.18012077429E-01 -0.99879477969E+01  0.10069064844E+02  0.00000000000E+00 0.  1.
          3    1    3    3  501    0 -0.39321259316E+02  0.93692545473E+01 -0.62967330827E+03  0.63096942835E+03  0.00000000000E+00 0.  1.
         -3    1    1    2    0  502  0.40596657762E+02 -0.93512424698E+01 -0.35844372070E+03  0.36085653003E+03  0.00000000000E+00 0. -1.
<mgrwt>
<rscale>  1 0.30000000E+03</rscale>
<asrwt>0</asrwt>
<pdfrwt beam="1">  1       21 0.68910081E-02 0.30000000E+03</pdfrwt>
<pdfrwt beam="2">0</pdfrwt>
<totfact> 0.16581743E+04</totfact>
</mgrwt>
</event>
<event>
 6    1  0.1198667E-001  0.3000000E+03  0.7818608E-02  0.1093470E+00
         21   -1    0    0  501  502  0.00000000000E+00  0.00000000000E+00  0.18677323428E+01  0.18677323428E+01  0.00000000000E+00 0. -1.
         13   -1    0    0    0    0 -0.00000000000E+00 -0.00000000000E+00 -0.10000000000E+04  0.10000000000E+04  0.00000000000E+00 0.  1.
    9000005    2    1    2  501    0  0.15389304657E+02  0.29164652366E+02 -0.82234625246E+03  0.82301547269E+03  0.37015807196E+01 0.  0.
         13    1    3    3    0    0  0.14166155827E+02  0.27772719025E+02 -0.79132813726E+03  0.79194205894E+03  0.00000000000E+00 0.  1.
          3    1    3    3  501    0  0.12231488301E+01  0.13919333410E+01 -0.31018115199E+02  0.31073413748E+02  0.00000000000E+00 0.  1.
         -3    1    1    2    0  502 -0.15389304657E+02 -0.29164652366E+02 -0.17578601519E+03  0.17885225965E+03  0.00000000000E+00 0. -1.
<mgrwt>
<rscale>  1 0.30000000E+03</rscale>
<asrwt>0</asrwt>
<pdfrwt beam="1">  1       21 0.67917683E-02 0.30000000E+03</pdfrwt>
<pdfrwt beam="2">0</pdfrwt>
<totfact> 0.17004925E+04</totfact>
</mgrwt>
</event>
<event>
 6    1  0.1198667E-001  0.3000000E+03  0.7818608E-02  0.1093470E+00
         21   -1    0    0  501  502  0.00000000000E+00  0.00000000000E+00  0.10619996419E+01  0.10619996419E+01  0.00000000000E+00 0. -1.
         13   -1    0    0    0    0 -0.00000000000E+00 -0.00000000000E+00 -0.10000000000E+04  0.10000000000E+04  0.00000000000E+00 0.  1.
    9000005    2    1    2  501    0  0.29259946834E+02  0.13316732730E+02 -0.57155541896E+03  0.57247204322E+03  0.38940302659E+01 0.  0.
         13    1    3    3    0    0  0.16193176556E+01  0.18027080125E+01 -0.38203557823E+02  0.38280331453E+02  0.00000000000E+00 0.  1.
          3    1    3    3  501    0  0.27640629179E+02  0.11514024717E+02 -0.53335186114E+03  0.53419171177E+03  0.00000000000E+00 0.  1.
         -1    1    1    2    0  502 -0.29259946834E+02 -0.13316732730E+02 -0.42738258140E+03  0.42858995642E+03  0.00000000000E+00 0. -1.
<mgrwt>
<rscale>  1 0.30000000E+03</rscale>
<asrwt>0</asrwt>
<pdfrwt beam="1">  1       21 0.38618250E-02 0.30000000E+03</pdfrwt>
<pdfrwt beam="2">0</pdfrwt>
<totfact> 0.44609513E+04</totfact>
</mgrwt>
</event>
<event>
 6    1  0.1198667E-001  0.3000000E+03  0.7818608E-02  0.1093470E+00
         21   -1    0    0  501  502  0.00000000000E+00  0.00000000000E+00  0.17216997341E+02  0.17216997341E+02  0.00000000000E+00 0. -1.
         13   -1    0    0    0    0 -0.00000000000E+00 -0.00000000000E+00 -0.10000000000E+04  0.10000000000E+04  0.00000000000E+00 0.  1.
    9000005    2    1    2  501    0  0.51430101474E+02  0.45693977853E+02 -0.92447050807E+03  0.92703195438E+03  0.30869389056E+01 0.  0.
         13    1    3    3    0    0  0.40766465204E+02  0.37814491292E+02 -0.74970397518E+03  0.75176318800E+03  0.00000000000E+00 0.  1.
          1    1    3    3  501    0  0.10663636270E+02  0.78794865610E+01 -0.17476653289E+03  0.17526876637E+03  0.00000000000E+00 0.  1.
         -1    1    1    2    0  502 -0.51430101474E+02 -0.45693977853E+02 -0.58312494589E+02  0.90185042966E+02  0.00000000000E+00 0. -1.
<mgrwt>
<rscale>  1 0.30000000E+03</rscale>
<asrwt>0</asrwt>
<pdfrwt beam="1">  1       21 0.62607395E-01 0.30000000E+03</pdfrwt>
<pdfrwt beam="2">0</pdfrwt>
<totfact> 0.22811102E+02</totfact>
</mgrwt>
</event>
<event>
 6    1  0.1198667E-001  0.3000000E+03  0.7818608E-02  0.1093470E+00
         21   -1    0    0  501  502  0.00000000000E+00  0.00000000000E+00  0.15750537250E+01  0.15750537250E+01  0.00000000000E+00 0. -1.
         13   -1    0    0    0    0 -0.00000000000E+00 -0.00000000000E+00 -0.10000000000E+04  0.10000000000E+04  0.00000000000E+00 0.  1.
    9000005    2    1    2  501    0  0.29609543475E+02 -0.64196117321E+01 -0.82224086861E+03  0.82280490604E+03  0.31513356339E+01 0.  0.
         13    1    3    3    0    0  0.34648238527E+01 -0.27307635343E+00 -0.72735628776E+02  0.72818618969E+02  0.00000000000E+00 0.  1.
          1    1    3    3  501    0  0.26144719623E+02 -0.61465353786E+01 -0.74950523983E+03  0.74998628707E+03  0.00000000000E+00 0.  1.
         -3    1    1    2    0  502 -0.29609543475E+02  0.64196117321E+01 -0.17618407767E+03  0.17877014769E+03  0.00000000000E+00 0. -1.
<mgrwt>
<rscale>  1 0.30000000E+03</rscale>
<asrwt>0</asrwt>
<pdfrwt beam="1">  1       21 0.57274802E-02 0.30000000E+03</pdfrwt>
<pdfrwt beam="2">0</pdfrwt>
<totfact> 0.22828644E+04</totfact>
</mgrwt>
</event>
<event>
 6    1  0.1198667E-001  0.3000000E+03  0.7818608E-02  0.1093470E+00
         21   -1    0    0  501  502  0.00000000000E+00  0.00000000000E+00  0.15737519365E+01  0.15737519365E+01  0.00000000000E+00 0. -1.
         13   -1    0    0    0    0 -0.00000000000E+00 -0.00000000000E+00 -0.10000000000E+04  0.10000000000E+04  0.00000000000E+00 0.  1.
    9000005    2    1    2  501    0  0.15233321525E+02 -0.36355770954E+02 -0.45244123599E+03  0.45416765992E+03  0.33756670299E+01 0.  0.
         13    1    3    3    0    0  0.70910397487E+00 -0.10880391261E+01 -0.97003023649E+01  0.97868546304E+01  0.00000000000E+00 0.  1.
          3    1    3    3  501    0  0.14524217550E+02 -0.35267731828E+02 -0.44274093363E+03  0.44438080529E+03  0.00000000000E+00 0.  1.
         -3    1    1    2    0  502 -0.15233321525E+02  0.36355770954E+02 -0.54598501207E+03  0.54740609201E+03  0.00000000000E+00 0. -1.
<mgrwt>
<rscale>  1 0.30000000E+03</rscale>
<asrwt>0</asrwt>
<pdfrwt beam="1">  1       21 0.57227464E-02 0.30000000E+03</pdfrwt>
<pdfrwt beam="2">0</pdfrwt>
<totfact> 0.22861136E+04</totfact>
</mgrwt>
</event>
<event>
 6    1  0.1198667E-001  0.3000000E+03  0.7818608E-02  0.1093470E+00
         21   -1    0    0  501  502  0.00000000000E+00  0.00000000000E+00  0.40954842417E+01  0.40954842417E+01  0.00000000000E+00 0. -1.
         13   -1    0    0    0    0 -0.00000000000E+00 -0.00000000000E+00 -0.10000000000E+04  0.10000000000E+04  0.00000000000E+00 0.  1.
    9000005    2    1    2  501    0  0.38816137228E+02  0.94743306012E+00 -0.89692632977E+03  0.89777393685E+03  0.36892424373E+01 0.  0.
         13    1    3    3    0    0  0.13869136670E+02  0.35547841436E-01 -0.36155476007E+03  0.36182067208E+03  0.00000000000E+00 0.  1.
          3    1    3    3  501    0  0.24947000558E+02  0.91188521869E+00 -0.53537156970E+03  0.53595326477E+03  0.00000000000E+00 0.  1.
         -3    1    1    2    0  502 -0.38816137228E+02 -0.94743306012E+00 -0.98978185988E+02  0.10632154739E+03  0.00000000000E+00 0. -1.
<mgrwt>
<rscale>  1 0.30000000E+03</rscale>
<asrwt>0</asrwt>
<pdfrwt beam="1">  1       21 0.14892701E-01 0.30000000E+03</pdfrwt>
<pdfrwt beam="2">0</pdfrwt>
<totfact> 0.41730957E+03</totfact>
</mgrwt>
</event>
<event>
 6    1  0.1198667E-001  0.3000000E+03  0.7818608E-02  0.1093470E+00
         21   -1    0    0  501  502  0.00000000000E+00  0.00000000000E+00  0.11594386349E+01  0.11594386349E+01  0.00000000000E+00 0. -1.
         13   -1    0    0    0    0 -0.00000000000E+00 -0.00000000000E+00 -0.10000000000E+04  0.10000000000E+04  0.00000000000E+00 0.  1.
    9000005    2    1    2  501    0 -0.33731669640E+02 -0.39039822075E+01 -0.51781268483E+03  0.51893450708E+03  0.31590265556E+01 0.  0.
         13    1    3    3    0    0 -0.28378137940E+02 -0.42883343595E+01 -0.44453128481E+03  0.44545681239E+03  0.00000000000E+00 0.  1.
          1    1    3    3  501    0 -0.53535317006E+01  0.38435215204E+00 -0.73281400022E+02  0.73477694693E+02  0.00000000000E+00 0.  1.
         -1    1    1    2    0  502  0.33731669640E+02  0.39039822075E+01 -0.48102787653E+03  0.48222493156E+03  0.00000000000E+00 0. -1.
<mgrwt>
<rscale>  1 0.30000000E+03</rscale>
<asrwt>0</asrwt>
<pdfrwt beam="1">  1       21 0.42161494E-02 0.30000000E+03</pdfrwt>
<pdfrwt beam="2">0</pdfrwt>
<totfact> 0.38476273E+04</totfact>
</mgrwt>
</event>
<event>
 6    1  0.1198667E-001  0.3000000E+03  0.7818608E-02  0.1093470E+00
         21   -1    0    0  501  502  0.00000000000E+00  0.00000000000E+00  0.13342401947E+01  0.13342401947E+01  0.00000000000E+00 0. -1.
         13   -1    0    0    0    0 -0.00000000000E+00 -0.00000000000E+00 -0.10000000000E+04  0.10000000000E+04  0.00000000000E+00 0.  1.
    9000005    2    1    2  501    0  0.29583943974E+02 -0.16154040504E+02 -0.69057732277E+03  0.69140739753E+03  0.33147967274E+01 0.  0.
         13    1    3    3    0    0  0.28181983956E+02 -0.16072792640E+02 -0.66651325114E+03  0.66730238485E+03  0.00000000000E+00 0.  1.
          3    1    3    3  501    0  0.14019600184E+01 -0.81247864489E-01 -0.24064071625E+02  0.24105012679E+02  0.00000000000E+00 0.  1.
         -3    1    1    2    0  502 -0.29583943974E+02  0.16154040504E+02 -0.30808843704E+03  0.30992684266E+03  0.00000000000E+00 0. -1.
<mgrwt>
<rscale>  1 0.30000000E+03</rscale>
<asrwt>0</asrwt>
<pdfrwt beam="1">  1       21 0.48517928E-02 0.30000000E+03</pdfrwt>
<pdfrwt beam="2">0</pdfrwt>
<totfact> 0.30319626E+04</totfact>
</mgrwt>
</event>
<event>
 6    1  0.1198667E-001  0.3000000E+03  0.7818608E-02  0.1093470E+00
         21   -1    0    0  501  502  0.00000000000E+00  0.00000000000E+00  0.10569126423E+01  0.10569126423E+01  0.00000000000E+00 0. -1.
         13   -1    0    0    0    0 -0.00000000000E+00 -0.00000000000E+00 -0.10000000000E+04  0.10000000000E+04  0.00000000000E+00 0.  1.
    9000005    2    1    2  501    0 -0.11650200058E+02  0.28818114651E+02 -0.64332708574E+03  0.64408499288E+03  0.30867314250E+01 0.  0.
         13    1    3    3    0    0 -0.12740651781E+01  0.59054176201E+01 -0.13847511410E+03  0.13860683397E+03  0.00000000000E+00 0.  1.
          1    1    3    3  501    0 -0.10376134880E+02  0.22912697031E+02 -0.50485197164E+03  0.50547815891E+03  0.00000000000E+00 0.  1.
         -3    1    1    2    0  502  0.11650200058E+02 -0.28818114651E+02 -0.35561600162E+03  0.35697191977E+03  0.00000000000E+00 0. -1.
<mgrwt>
<rscale>  1 0.30000000E+03</rscale>
<asrwt>0</asrwt>
<pdfrwt beam="1">  1       21 0.38433268E-02 0.30000000E+03</pdfrwt>
<pdfrwt beam="2">0</pdfrwt>
<totfact> 0.44971050E+04</totfact>
</mgrwt>
</event>
<event>
 6    1  0.1198667E-001  0.3000000E+03  0.7818608E-02  0.1093470E+00
         21   -1    0    0  501  502  0.00000000000E+00  0.00000000000E+00  0.13780632154E+01  0.13780632154E+01  0.00000000000E+00 0. -1.
         13   -1    0    0    0    0 -0.00000000000E+00 -0.00000000000E+00 -0.10000000000E+04  0.10000000000E+04  0.00000000000E+00 0.  1.
    9000005    2    1    2  501    0  0.68935459442E+01  0.34362132008E+02 -0.65130982487E+03  0.65230216864E+03  0.80841911849E+01 0.  0.
         13    1    3    3    0    0  0.10684299004E+00  0.19835919281E+02 -0.38385364802E+03  0.38436583902E+03  0.00000000000E+00 0.  1.
          1    1    3    3  501    0  0.67867029542E+01  0.14526212727E+02 -0.26745617685E+03  0.26793632962E+03  0.00000000000E+00 0.  1.
         -3    1    1    2    0  502 -0.68935459442E+01 -0.34362132008E+02 -0.34731211191E+03  0.34907589458E+03  0.00000000000E+00 0. -1.
<mgrwt>
<rscale>  1 0.30000000E+03</rscale>
<asrwt>0</asrwt>
<pdfrwt beam="1">  1       21 0.50111495E-02 0.30000000E+03</pdfrwt>
<pdfrwt beam="2">0</pdfrwt>
<totfact> 0.28695481E+04</totfact>
</mgrwt>
</event>
<event>
 6    1  0.1198667E-001  0.3000000E+03  0.7818608E-02  0.1093470E+00
         21   -1    0    0  501  502  0.00000000000E+00  0.00000000000E+00  0.16910129084E+01  0.16910129084E+01  0.00000000000E+00 0. -1.
         13   -1    0    0    0    0 -0.00000000000E+00 -0.00000000000E+00 -0.10000000000E+04  0.10000000000E+04  0.00000000000E+00 0.  1.
    9000005    2    1    2  501    0 -0.31172851590E+00  0.34665148306E+02 -0.24378727286E+03  0.24637334005E+03  0.81128662193E+01 0.  0.
         13    1    3    3    0    0  0.71781122880E+00  0.58250504984E+01 -0.24388377089E+02  0.25084644772E+02  0.00000000000E+00 0.  1.
          3    1    3    3  501    0 -0.10295397447E+01  0.28840097807E+02 -0.21939889577E+03  0.22128869528E+03  0.00000000000E+00 0.  1.
         -3    1    1    2    0  502  0.31172851590E+00 -0.34665148306E+02 -0.75452171423E+03  0.75531767285E+03  0.00000000000E+00 0. -1.
<mgrwt>
<rscale>  1 0.30000000E+03</rscale>
<asrwt>0</asrwt>
<pdfrwt beam="1">  1       21 0.61491508E-02 0.30000000E+03</pdfrwt>
<pdfrwt beam="2">0</pdfrwt>
<totfact> 0.20197524E+04</totfact>
</mgrwt>
</event>
<event>
 6    1  0.1198667E-001  0.3000000E+03  0.7818608E-02  0.1093470E+00
         21   -1    0    0  501  502  0.00000000000E+00  0.00000000000E+00  0.16423860472E+01  0.16423860472E+01  0.00000000000E+00 0. -1.
         13   -1    0    0    0    0 -0.00000000000E+00 -0.00000000000E+00 -0.10000000000E+04  0.10000000000E+04  0.00000000000E+00 0.  1.
    9000005    2    1    2  501    0  0.56507491691E+01 -0.39599510391E+02 -0.42357189804E+03  0.42546648287E+03  0.29194252574E+01 0.  0.
         13    1    3    3    0    0  0.49828085272E+01 -0.35117560062E+02 -0.38457054117E+03  0.38620276091E+03  0.00000000000E+00 0.  1.
          3    1    3    3  501    0  0.66794064184E+00 -0.44819503283E+01 -0.39001356877E+02  0.39263721955E+02  0.00000000000E+00 0.  1.
         -1    1    1    2    0  502 -0.56507491691E+01  0.39599510391E+02 -0.57478571591E+03  0.57617590318E+03  0.00000000000E+00 0. -1.
<mgrwt>
<rscale>  1 0.30000000E+03</rscale>
<asrwt>0</asrwt>
<pdfrwt beam="1">  1       21 0.59723255E-02 0.30000000E+03</pdfrwt>
<pdfrwt beam="2">0</pdfrwt>
<totfact> 0.21240329E+04</totfact>
</mgrwt>
</event>
<event>
 6    1  0.1198667E-001  0.3000000E+03  0.7818608E-02  0.1093470E+00
         21   -1    0    0  501  502  0.00000000000E+00  0.00000000000E+00  0.23420579280E+01  0.23420579280E+01  0.00000000000E+00 0. -1.
         13   -1    0    0    0    0 -0.00000000000E+00 -0.00000000000E+00 -0.10000000000E+04  0.10000000000E+04  0.00000000000E+00 0.  1.
    9000005    2    1    2  501    0 -0.27402784562E+02  0.29214538847E+02 -0.77463123175E+03  0.77574701077E+03  0.11201679625E+02 0.  0.
         13    1    3    3    0    0 -0.27438408944E+01  0.53133381097E+01 -0.61687328568E+02  0.61976501438E+02  0.00000000000E+00 0.  1.
          1    1    3    3  501    0 -0.24658943668E+02  0.23901200737E+02 -0.71294390319E+03  0.71377050933E+03  0.00000000000E+00 0.  1.
         -1    1    1    2    0  502  0.27402784562E+02 -0.29214538847E+02 -0.22302671032E+03  0.22659504716E+03  0.00000000000E+00 0. -1.
<mgrwt>
<rscale>  1 0.30000000E+03</rscale>
<asrwt>0</asrwt>
<pdfrwt beam="1">  1       21 0.85165922E-02 0.30000000E+03</pdfrwt>
<pdfrwt beam="2">0</pdfrwt>
<totfact> 0.11441845E+04</totfact>
</mgrwt>
</event>
<event>
 6    1  0.1198667E-001  0.3000000E+03  0.7818608E-02  0.1093470E+00
         21   -1    0    0  501  502  0.00000000000E+00  0.00000000000E+00  0.13421746480E+01  0.13421746480E+01  0.00000000000E+00 0. -1.
         13   -1    0    0    0    0 -0.00000000000E+00 -0.00000000000E+00 -0.10000000000E+04  0.10000000000E+04  0.00000000000E+00 0.  1.
    9000005    2    1    2  501    0  0.35647025169E+01 -0.31779953291E+02 -0.74231152046E+03  0.74300886172E+03  0.36197590426E+01 0.  0.
         13    1    3    3    0    0  0.19281625798E+01 -0.13924235817E+02 -0.28613699394E+03  0.28648207877E+03  0.00000000000E+00 0.  1.
          1    1    3    3  501    0  0.16365399371E+01 -0.17855717474E+02 -0.45617452652E+03  0.45652678296E+03  0.00000000000E+00 0.  1.
         -3    1    1    2    0  502 -0.35647025169E+01  0.31779953291E+02 -0.25634630489E+03  0.25833331292E+03  0.00000000000E+00 0. -1.
<mgrwt>
<rscale>  1 0.30000000E+03</rscale>
<asrwt>0</asrwt>
<pdfrwt beam="1">  1       21 0.48806454E-02 0.30000000E+03</pdfrwt>
<pdfrwt beam="2">0</pdfrwt>
<totfact> 0.30015091E+04</totfact>
</mgrwt>
</event>
<event>
 6    1  0.1198667E-001  0.3000000E+03  0.7818608E-02  0.1093470E+00
         21   -1    0    0  501  502  0.00000000000E+00  0.00000000000E+00  0.16554758062E+01  0.16554758062E+01  0.00000000000E+00 0. -1.
         13   -1    0    0    0    0 -0.00000000000E+00 -0.00000000000E+00 -0.10000000000E+04  0.10000000000E+04  0.00000000000E+00 0.  1.
    9000005    2    1    2  501    0 -0.81852437227E+00  0.31968794270E+02 -0.80836804086E+03  0.80900621417E+03  0.30807940580E+01 0.  0.
         13    1    3    3    0    0 -0.98764865638E+00  0.52237193975E+01 -0.11591012057E+03  0.11603197295E+03  0.00000000000E+00 0.  1.
          3    1    3    3  501    0  0.16912428410E+00  0.26745074872E+02 -0.69245792029E+03  0.69297424123E+03  0.00000000000E+00 0.  1.
         -1    1    1    2    0  502  0.81852437227E+00 -0.31968794270E+02 -0.18997648333E+03  0.19264926163E+03  0.00000000000E+00 0. -1.
<mgrwt>
<rscale>  1 0.30000000E+03</rscale>
<asrwt>0</asrwt>
<pdfrwt beam="1">  1       21 0.60199247E-02 0.30000000E+03</pdfrwt>
<pdfrwt beam="2">0</pdfrwt>
<totfact> 0.20951520E+04</totfact>
</mgrwt>
</event>
<event>
 6    1  0.1198667E-001  0.3000000E+03  0.7818608E-02  0.1093470E+00
         21   -1    0    0  501  502  0.00000000000E+00  0.00000000000E+00  0.79733588705E+01  0.79733588705E+01  0.00000000000E+00 0. -1.
         13   -1    0    0    0    0 -0.00000000000E+00 -0.00000000000E+00 -0.10000000000E+04  0.10000000000E+04  0.00000000000E+00 0.  1.
    9000005    2    1    2  501    0 -0.11227945136E+02 -0.74128074592E+02 -0.76956829244E+03  0.77322081875E+03  0.37469472213E+01 0.  0.
         13    1    3    3    0    0 -0.83704214007E+01 -0.52226659349E+02 -0.52554652487E+03  0.52820151241E+03  0.00000000000E+00 0.  1.
          1    1    3    3  501    0 -0.28575237350E+01 -0.21901415243E+02 -0.24402176757E+03  0.24501930634E+03  0.00000000000E+00 0.  1.
         -1    1    1    2    0  502  0.11227945136E+02  0.74128074592E+02 -0.22245834869E+03  0.23475254012E+03  0.00000000000E+00 0. -1.
<mgrwt>
<rscale>  1 0.30000000E+03</rscale>
<asrwt>0</asrwt>
<pdfrwt beam="1">  1       21 0.28994093E-01 0.30000000E+03</pdfrwt>
<pdfrwt beam="2">0</pdfrwt>
<totfact> 0.11638614E+03</totfact>
</mgrwt>
</event>
<event>
 6    1  0.1198667E-001  0.3000000E+03  0.7818608E-02  0.1093470E+00
         21   -1    0    0  501  502  0.00000000000E+00  0.00000000000E+00  0.12148621693E+01  0.12148621693E+01  0.00000000000E+00 0. -1.
         13   -1    0    0    0    0 -0.00000000000E+00 -0.00000000000E+00 -0.10000000000E+04  0.10000000000E+04  0.00000000000E+00 0.  1.
    9000005    2    1    2  501    0  0.90056553308E+01  0.30832600009E+02 -0.69105604805E+03  0.69181391881E+03  0.40355505743E+01 0.  0.
         13    1    3    3    0    0  0.72135084531E+01  0.28184224558E+02 -0.60635203005E+03  0.60704956105E+03  0.00000000000E+00 0.  1.
          1    1    3    3  501    0  0.17921468777E+01  0.26483754506E+01 -0.84704017993E+02  0.84764357764E+02  0.00000000000E+00 0.  1.
         -3    1    1    2    0  502 -0.90056553308E+01 -0.30832600009E+02 -0.30772908978E+03  0.30940094336E+03  0.00000000000E+00 0. -1.
<mgrwt>
<rscale>  1 0.30000000E+03</rscale>
<asrwt>0</asrwt>
<pdfrwt beam="1">  1       21 0.44176899E-02 0.30000000E+03</pdfrwt>
<pdfrwt beam="2">0</pdfrwt>
<totfact> 0.35553891E+04</totfact>
</mgrwt>
</event>
<event>
 6    1  0.1198667E-001  0.3000000E+03  0.7818608E-02  0.1093470E+00
         21   -1    0    0  501  502  0.00000000000E+00  0.00000000000E+00  0.27413993120E+01  0.27413993120E+01  0.00000000000E+00 0. -1.
         13   -1    0    0    0    0 -0.00000000000E+00 -0.00000000000E+00 -0.10000000000E+04  0.10000000000E+04  0.00000000000E+00 0.  1.
    9000005    2    1    2  501    0  0.12385950490E+02 -0.36343358064E+02 -0.83925792881E+03  0.84014231026E+03  0.33134547750E+01 0.  0.
         13    1    3    3    0    0  0.71577499917E+01 -0.23121686343E+02 -0.55957485061E+03  0.56009807998E+03  0.00000000000E+00 0.  1.
          1    1    3    3  501    0  0.52282004987E+01 -0.13221671722E+02 -0.27968307820E+03  0.28004423028E+03  0.00000000000E+00 0.  1.
         -3    1    1    2    0  502 -0.12385950490E+02  0.36343358064E+02 -0.15800067188E+03  0.16259908905E+03  0.00000000000E+00 0. -1.
<mgrwt>
<rscale>  1 0.30000000E+03</rscale>
<asrwt>0</asrwt>
<pdfrwt beam="1">  1       21 0.99687458E-02 0.30000000E+03</pdfrwt>
<pdfrwt beam="2">0</pdfrwt>
<totfact> 0.86514488E+03</totfact>
</mgrwt>
</event>
<event>
 6    1  0.1198667E-001  0.3000000E+03  0.7818608E-02  0.1093470E+00
         21   -1    0    0  501  502  0.00000000000E+00  0.00000000000E+00  0.23074929683E+01  0.23074929683E+01  0.00000000000E+00 0. -1.
         13   -1    0    0    0    0 -0.00000000000E+00 -0.00000000000E+00 -0.10000000000E+04  0.10000000000E+04  0.00000000000E+00 0.  1.
    9000005    2    1    2  501    0  0.34997770121E+02 -0.15352990587E+02 -0.80214065800E+03  0.80305618458E+03  0.30070163603E+01 0.  0.
         13    1    3    3    0    0  0.23995773316E+02 -0.11378772966E+02 -0.58019006083E+03  0.58079753813E+03  0.00000000000E+00 0.  1.
          3    1    3    3  501    0  0.11001996806E+02 -0.39742176208E+01 -0.22195059717E+03  0.22225864645E+03  0.00000000000E+00 0.  1.
         -3    1    1    2    0  502 -0.34997770121E+02  0.15352990587E+02 -0.19555184903E+03  0.19925130839E+03  0.00000000000E+00 0. -1.
<mgrwt>
<rscale>  1 0.30000000E+03</rscale>
<asrwt>0</asrwt>
<pdfrwt beam="1">  1       21 0.83909012E-02 0.30000000E+03</pdfrwt>
<pdfrwt beam="2">0</pdfrwt>
<totfact> 0.11745678E+04</totfact>
</mgrwt>
</event>
<event>
 6    1  0.1198667E-001  0.3000000E+03  0.7818608E-02  0.1093470E+00
         21   -1    0    0  501  502  0.00000000000E+00  0.00000000000E+00  0.32019601154E+01  0.32019601154E+01  0.00000000000E+00 0. -1.
         13   -1    0    0    0    0 -0.00000000000E+00 -0.00000000000E+00 -0.10000000000E+04  0.10000000000E+04  0.00000000000E+00 0.  1.
    9000005    2    1    2  501    0  0.37745648912E+02  0.58457028999E+01 -0.86832766291E+03  0.86917381376E+03  0.33588845549E+01 0.  0.
         13    1    3    3    0    0  0.21683924043E+02  0.49105492102E+01 -0.51793009916E+03  0.51840707332E+03  0.00000000000E+00 0.  1.
          1    1    3    3  501    0  0.16061724869E+02  0.93515368968E+00 -0.35039756375E+03  0.35076674044E+03  0.00000000000E+00 0.  1.
         -1    1    1    2    0  502 -0.37745648912E+02 -0.58457028999E+01 -0.12847037697E+03  0.13402814635E+03  0.00000000000E+00 0. -1.
<mgrwt>
<rscale>  1 0.30000000E+03</rscale>
<asrwt>0</asrwt>
<pdfrwt beam="1">  1       21 0.11643516E-01 0.30000000E+03</pdfrwt>
<pdfrwt beam="2">0</pdfrwt>
<totfact> 0.65451535E+03</totfact>
</mgrwt>
</event>
<event>
 6    1  0.1198667E-001  0.3000000E+03  0.7818608E-02  0.1093470E+00
         21   -1    0    0  501  502  0.00000000000E+00  0.00000000000E+00  0.38294377499E+01  0.38294377499E+01  0.00000000000E+00 0. -1.
         13   -1    0    0    0    0 -0.00000000000E+00 -0.00000000000E+00 -0.10000000000E+04  0.10000000000E+04  0.00000000000E+00 0.  1.
    9000005    2    1    2  501    0 -0.28019224958E+02  0.30830280605E+02 -0.86910351702E+03  0.87010727372E+03  0.31876815463E+01 0.  0.
         13    1    3    3    0    0 -0.93379064014E+01  0.82008634949E+01 -0.26739741396E+03  0.26768606175E+03  0.00000000000E+00 0.  1.
          3    1    3    3  501    0 -0.18681318556E+02  0.22629417110E+02 -0.60170610306E+03  0.60242121198E+03  0.00000000000E+00 0.  1.
         -1    1    1    2    0  502  0.28019224958E+02 -0.30830280605E+02 -0.12706704523E+03  0.13372216403E+03  0.00000000000E+00 0. -1.
<mgrwt>
<rscale>  1 0.30000000E+03</rscale>
<asrwt>0</asrwt>
<pdfrwt beam="1">  1       21 0.13925258E-01 0.30000000E+03</pdfrwt>
<pdfrwt beam="2">0</pdfrwt>
<totfact> 0.47228891E+03</totfact>
</mgrwt>
</event>
<event>
 6    1  0.1198667E-001  0.3000000E+03  0.7818608E-02  0.1093470E+00
         21   -1    0    0  501  502  0.00000000000E+00  0.00000000000E+00  0.17229815555E+01  0.17229815555E+01  0.00000000000E+00 0. -1.
         13   -1    0    0    0    0 -0.00000000000E+00 -0.00000000000E+00 -0.10000000000E+04  0.10000000000E+04  0.00000000000E+00 0.  1.
    9000005    2    1    2  501    0 -0.36610037472E+02 -0.10582663288E+02 -0.69674440727E+03  0.69779173405E+03  0.28718367860E+01 0.  0.
         13    1    3    3    0    0 -0.45446274038E+01 -0.12980632818E+01 -0.70546568623E+02  0.70704716611E+02  0.00000000000E+00 0.  1.
          1    1    3    3  501    0 -0.32065410068E+02 -0.92846000058E+01 -0.62619783864E+03  0.62708701744E+03  0.00000000000E+00 0.  1.
         -1    1    1    2    0  502  0.36610037472E+02  0.10582663288E+02 -0.30153261118E+03  0.30393124750E+03  0.00000000000E+00 0. -1.
<mgrwt>
<rscale>  1 0.30000000E+03</rscale>
<asrwt>0</asrwt>
<pdfrwt beam="1">  1       21 0.62654007E-02 0.30000000E+03</pdfrwt>
<pdfrwt beam="2">0</pdfrwt>
<totfact> 0.19554636E+04</totfact>
</mgrwt>
</event>
<event>
 6    1  0.1198667E-001  0.3000000E+03  0.7818608E-02  0.1093470E+00
         21   -1    0    0  501  502  0.00000000000E+00  0.00000000000E+00  0.10695267665E+01  0.10695267665E+01  0.00000000000E+00 0. -1.
         13   -1    0    0    0    0 -0.00000000000E+00 -0.00000000000E+00 -0.10000000000E+04  0.10000000000E+04  0.00000000000E+00 0.  1.
    9000005    2    1    2  501    0 -0.31633443177E+02 -0.22292757005E+01 -0.61739187122E+03  0.61821531270E+03  0.34359595970E+01 0.  0.
         13    1    3    3    0    0 -0.28170803641E+02 -0.93553061622E+00 -0.53957641787E+03  0.54031211361E+03  0.00000000000E+00 0.  1.
          3    1    3    3  501    0 -0.34626395360E+01 -0.12937450843E+01 -0.77815453351E+02  0.77903199094E+02  0.00000000000E+00 0.  1.
         -1    1    1    2    0  502  0.31633443177E+02  0.22292757005E+01 -0.38153860202E+03  0.38285421406E+03  0.00000000000E+00 0. -1.
<mgrwt>
<rscale>  1 0.30000000E+03</rscale>
<asrwt>0</asrwt>
<pdfrwt beam="1">  1       21 0.38891964E-02 0.30000000E+03</pdfrwt>
<pdfrwt beam="2">0</pdfrwt>
<totfact> 0.44082859E+04</totfact>
</mgrwt>
</event>
<event>
 6    1  0.1198667E-001  0.3000000E+03  0.7818608E-02  0.1093470E+00
         21   -1    0    0  501  502  0.00000000000E+00  0.00000000000E+00  0.20354849478E+01  0.20354849478E+01  0.00000000000E+00 0. -1.
         13   -1    0    0    0    0 -0.00000000000E+00 -0.00000000000E+00 -0.10000000000E+04  0.10000000000E+04  0.00000000000E+00 0.  1.
    9000005    2    1    2  501    0 -0.43694473225E+02 -0.10248116007E+02 -0.54350237600E+03  0.54536266256E+03  0.33719622090E+01 0.  0.
         13    1    3    3    0    0 -0.21545133860E+02 -0.33298268421E+01 -0.26517571833E+03  0.26607037064E+03  0.00000000000E+00 0.  1.
          1    1    3    3  501    0 -0.22149339365E+02 -0.69182891652E+01 -0.27832665767E+03  0.27929229193E+03  0.00000000000E+00 0.  1.
         -3    1    1    2    0  502  0.43694473225E+02  0.10248116007E+02 -0.45446213905E+03  0.45667282238E+03  0.00000000000E+00 0. -1.
<mgrwt>
<rscale>  1 0.30000000E+03</rscale>
<asrwt>0</asrwt>
<pdfrwt beam="1">  1       21 0.74017791E-02 0.30000000E+03</pdfrwt>
<pdfrwt beam="2">0</pdfrwt>
<totfact> 0.14638331E+04</totfact>
</mgrwt>
</event>
<event>
 6    1  0.1198667E-001  0.3000000E+03  0.7818608E-02  0.1093470E+00
         21   -1    0    0  501  502  0.00000000000E+00  0.00000000000E+00  0.16063907062E+01  0.16063907062E+01  0.00000000000E+00 0. -1.
         13   -1    0    0    0    0 -0.00000000000E+00 -0.00000000000E+00 -0.10000000000E+04  0.10000000000E+04  0.00000000000E+00 0.  1.
    9000005    2    1    2  501    0  0.19189116992E+01 -0.39426195293E+02 -0.58226850049E+03  0.58361331268E+03  0.31280955725E+01 0.  0.
         13    1    3    3    0    0 -0.80157453641E+00 -0.13532298669E+02 -0.19535633163E+03  0.19582610126E+03  0.00000000000E+00 0.  1.
          3    1    3    3  501    0  0.27204862356E+01 -0.25893896624E+02 -0.38691216886E+03  0.38778721142E+03  0.00000000000E+00 0.  1.
         -3    1    1    2    0  502 -0.19189116992E+01  0.39426195293E+02 -0.41612510881E+03  0.41799307803E+03  0.00000000000E+00 0. -1.
<mgrwt>
<rscale>  1 0.30000000E+03</rscale>
<asrwt>0</asrwt>
<pdfrwt beam="1">  1       21 0.58414331E-02 0.30000000E+03</pdfrwt>
<pdfrwt beam="2">0</pdfrwt>
<totfact> 0.22067315E+04</totfact>
</mgrwt>
</event>
<event>
 6    1  0.1198667E-001  0.3000000E+03  0.7818608E-02  0.1093470E+00
         21   -1    0    0  501  502  0.00000000000E+00  0.00000000000E+00  0.51156130924E+01  0.51156130924E+01  0.00000000000E+00 0. -1.
         13   -1    0    0    0    0 -0.00000000000E+00 -0.00000000000E+00 -0.10000000000E+04  0.10000000000E+04  0.00000000000E+00 0.  1.
    9000005    2    1    2  501    0 -0.50523177845E+02 -0.17145349976E+02 -0.83202088970E+03  0.83373570398E+03  0.31478032726E+01 0.  0.
         13    1    3    3    0    0 -0.39742055181E+02 -0.12848402856E+02 -0.66839947820E+03  0.66970319908E+03  0.00000000000E+00 0.  1.
          1    1    3    3  501    0 -0.10781122664E+02 -0.42969471192E+01 -0.16362141150E+03  0.16403250489E+03  0.00000000000E+00 0.  1.
         -3    1    1    2    0  502  0.50523177845E+02  0.17145349976E+02 -0.16286349721E+03  0.17137990911E+03  0.00000000000E+00 0. -1.
<mgrwt>
<rscale>  1 0.30000000E+03</rscale>
<asrwt>0</asrwt>
<pdfrwt beam="1">  1       21 0.18602269E-01 0.30000000E+03</pdfrwt>
<pdfrwt beam="2">0</pdfrwt>
<totfact> 0.27531606E+03</totfact>
</mgrwt>
</event>
<event>
 6    1  0.1198667E-001  0.3000000E+03  0.7818608E-02  0.1093470E+00
         21   -1    0    0  501  502  0.00000000000E+00  0.00000000000E+00  0.23455035725E+01  0.23455035725E+01  0.00000000000E+00 0. -1.
         13   -1    0    0    0    0 -0.00000000000E+00 -0.00000000000E+00 -0.10000000000E+04  0.10000000000E+04  0.00000000000E+00 0.  1.
    9000005    2    1    2  501    0 -0.41756884243E+02 -0.12960573613E+02 -0.71334107793E+03  0.71468992169E+03  0.38179645891E+01 0.  0.
         13    1    3    3    0    0 -0.30801766615E+02 -0.89188127588E+01 -0.49617854005E+03  0.49721367404E+03  0.00000000000E+00 0.  1.
          3    1    3    3  501    0 -0.10955117629E+02 -0.40417608546E+01 -0.21716253788E+03  0.21747624765E+03  0.00000000000E+00 0.  1.
         -1    1    1    2    0  502  0.41756884243E+02  0.12960573613E+02 -0.28431341850E+03  0.28765558188E+03  0.00000000000E+00 0. -1.
<mgrwt>
<rscale>  1 0.30000000E+03</rscale>
<asrwt>0</asrwt>
<pdfrwt beam="1">  1       21 0.85291219E-02 0.30000000E+03</pdfrwt>
<pdfrwt beam="2">0</pdfrwt>
<totfact> 0.11412216E+04</totfact>
</mgrwt>
</event>
<event>
 6    1  0.1198667E-001  0.3000000E+03  0.7818608E-02  0.1093470E+00
         21   -1    0    0  501  502  0.00000000000E+00  0.00000000000E+00  0.46122352948E+01  0.46122352948E+01  0.00000000000E+00 0. -1.
         13   -1    0    0    0    0 -0.00000000000E+00 -0.00000000000E+00 -0.10000000000E+04  0.10000000000E+04  0.00000000000E+00 0.  1.
    9000005    2    1    2  501    0  0.66285575603E+02  0.12594230044E+02 -0.54216793736E+03  0.54639765231E+03  0.72062460745E+01 0.  0.
         13    1    3    3    0    0  0.25771891316E+02  0.16216778459E+01 -0.21768356140E+03  0.21920983811E+03  0.00000000000E+00 0.  1.
          1    1    3    3  501    0  0.40513684288E+02  0.10972552198E+02 -0.32448437596E+03  0.32718781420E+03  0.00000000000E+00 0.  1.
         -3    1    1    2    0  502 -0.66285575603E+02 -0.12594230044E+02 -0.45321982734E+03  0.45821458299E+03  0.00000000000E+00 0. -1.
<mgrwt>
<rscale>  1 0.30000000E+03</rscale>
<asrwt>0</asrwt>
<pdfrwt beam="1">  1       21 0.16771800E-01 0.30000000E+03</pdfrwt>
<pdfrwt beam="2">0</pdfrwt>
<totfact> 0.33450801E+03</totfact>
</mgrwt>
</event>
<event>
 6    1  0.1198667E-001  0.3000000E+03  0.7818608E-02  0.1093470E+00
         21   -1    0    0  501  502  0.00000000000E+00  0.00000000000E+00  0.24867551919E+01  0.24867551919E+01  0.00000000000E+00 0. -1.
         13   -1    0    0    0    0 -0.00000000000E+00 -0.00000000000E+00 -0.10000000000E+04  0.10000000000E+04  0.00000000000E+00 0.  1.
    9000005    2    1    2  501    0  0.18694394289E+02 -0.24377619782E+02 -0.89342798483E+03  0.89396261009E+03  0.34402686466E+01 0.  0.
         13    1    3    3    0    0  0.11928609411E+02 -0.18133173244E+02 -0.62477948066E+03  0.62515638295E+03  0.00000000000E+00 0.  1.
          1    1    3    3  501    0  0.67657848773E+01 -0.62444465388E+01 -0.26864850417E+03  0.26880622714E+03  0.00000000000E+00 0.  1.
         -3    1    1    2    0  502 -0.18694394289E+02  0.24377619782E+02 -0.10408525998E+03  0.10852414510E+03  0.00000000000E+00 0. -1.
<mgrwt>
<rscale>  1 0.30000000E+03</rscale>
<asrwt>0</asrwt>
<pdfrwt beam="1">  1       21 0.90427652E-02 0.30000000E+03</pdfrwt>
<pdfrwt beam="2">0</pdfrwt>
<totfact> 0.10291276E+04</totfact>
</mgrwt>
</event>
<event>
 6    1  0.1198667E-001  0.3000000E+03  0.7818608E-02  0.1093470E+00
         21   -1    0    0  501  502  0.00000000000E+00  0.00000000000E+00  0.28074091591E+01  0.28074091591E+01  0.00000000000E+00 0. -1.
         13   -1    0    0    0    0 -0.00000000000E+00 -0.00000000000E+00 -0.10000000000E+04  0.10000000000E+04  0.00000000000E+00 0.  1.
    9000005    2    1    2  501    0  0.20278565608E+02 -0.32775502738E+02 -0.84248598769E+03  0.84337219705E+03  0.29273698697E+01 0.  0.
         13    1    3    3    0    0  0.19018315784E+02 -0.31796427881E+02 -0.80445174827E+03  0.80530449177E+03  0.00000000000E+00 0.  1.
          3    1    3    3  501    0  0.12602498239E+01 -0.97907485712E+00 -0.38034239420E+02  0.38067705282E+02  0.00000000000E+00 0.  1.
         -3    1    1    2    0  502 -0.20278565608E+02  0.32775502738E+02 -0.15470660315E+03  0.15943521211E+03  0.00000000000E+00 0. -1.
<mgrwt>
<rscale>  1 0.30000000E+03</rscale>
<asrwt>0</asrwt>
<pdfrwt beam="1">  1       21 0.10208782E-01 0.30000000E+03</pdfrwt>
<pdfrwt beam="2">0</pdfrwt>
<totfact> 0.82911508E+03</totfact>
</mgrwt>
</event>
<event>
 6    1  0.1198667E-001  0.3000000E+03  0.7818608E-02  0.1093470E+00
         21   -1    0    0  501  502  0.00000000000E+00  0.00000000000E+00  0.10298114437E+01  0.10298114437E+01  0.00000000000E+00 0. -1.
         13   -1    0    0    0    0 -0.00000000000E+00 -0.00000000000E+00 -0.10000000000E+04  0.10000000000E+04  0.00000000000E+00 0.  1.
    9000005    2    1    2  501    0 -0.31469771945E+02 -0.17609925766E+01 -0.58465295639E+03  0.58551541156E+03  0.39711606621E+01 0.  0.
         13    1    3    3    0    0 -0.96803826703E+00 -0.29224200382E-01 -0.35577096514E+02  0.35590276039E+02  0.00000000000E+00 0.  1.
          3    1    3    3  501    0 -0.30501733678E+02 -0.17317683763E+01 -0.54907585988E+03  0.54992513552E+03  0.00000000000E+00 0.  1.
         -3    1    1    2    0  502  0.31469771945E+02  0.17609925766E+01 -0.41431723216E+03  0.41551439988E+03  0.00000000000E+00 0. -1.
<mgrwt>
<rscale>  1 0.30000000E+03</rscale>
<asrwt>0</asrwt>
<pdfrwt beam="1">  1       21 0.37447768E-02 0.30000000E+03</pdfrwt>
<pdfrwt beam="2">0</pdfrwt>
<totfact> 0.46977098E+04</totfact>
</mgrwt>
</event>
<event>
 6    1  0.1198667E-001  0.3000000E+03  0.7818608E-02  0.1093470E+00
         21   -1    0    0  501  502  0.00000000000E+00  0.00000000000E+00  0.20499742478E+01  0.20499742478E+01  0.00000000000E+00 0. -1.
         13   -1    0    0    0    0 -0.00000000000E+00 -0.00000000000E+00 -0.10000000000E+04  0.10000000000E+04  0.00000000000E+00 0.  1.
    9000005    2    1    2  501    0  0.42983734377E+02  0.20766132502E+01 -0.65305629456E+03  0.65448185206E+03  0.34723293954E+01 0.  0.
         13    1    3    3    0    0  0.22875072629E+02  0.18827672619E+01 -0.37144738366E+03  0.37215584449E+03  0.00000000000E+00 0.  1.
          3    1    3    3  501    0  0.20108661748E+02  0.19384598830E+00 -0.28160891090E+03  0.28232600757E+03  0.00000000000E+00 0.  1.
         -1    1    1    2    0  502 -0.42983734377E+02 -0.20766132502E+01 -0.34489373120E+03  0.34756812219E+03  0.00000000000E+00 0. -1.
<mgrwt>
<rscale>  1 0.30000000E+03</rscale>
<asrwt>0</asrwt>
<pdfrwt beam="1">  1       21 0.74544675E-02 0.30000000E+03</pdfrwt>
<pdfrwt beam="2">0</pdfrwt>
<totfact> 0.14457772E+04</totfact>
</mgrwt>
</event>
<event>
 6    1  0.1198667E-001  0.3000000E+03  0.7818608E-02  0.1093470E+00
         21   -1    0    0  501  502  0.00000000000E+00  0.00000000000E+00  0.10985419386E+02  0.10985419386E+02  0.00000000000E+00 0. -1.
         13   -1    0    0    0    0 -0.00000000000E+00 -0.00000000000E+00 -0.10000000000E+04  0.10000000000E+04  0.00000000000E+00 0.  1.
    9000005    2    1    2  501    0  0.70072650920E+01 -0.89665156675E+02 -0.75390331074E+03  0.75925887865E+03  0.38601542428E+01 0.  0.
         13    1    3    3    0    0  0.22989547109E+01 -0.45026960072E+02 -0.36514735372E+03  0.36792023898E+03  0.00000000000E+00 0.  1.
          1    1    3    3  501    0  0.47083103811E+01 -0.44638196603E+02 -0.38875595702E+03  0.39133863967E+03  0.00000000000E+00 0.  1.
         -3    1    1    2    0  502 -0.70072650920E+01  0.89665156675E+02 -0.23511126988E+03  0.25172654073E+03  0.00000000000E+00 0. -1.
<mgrwt>
<rscale>  1 0.30000000E+03</rscale>
<asrwt>0</asrwt>
<pdfrwt beam="1">  1       21 0.39947064E-01 0.30000000E+03</pdfrwt>
<pdfrwt beam="2">0</pdfrwt>
<totfact> 0.60569084E+02</totfact>
</mgrwt>
</event>
<event>
 6    1  0.1198667E-001  0.3000000E+03  0.7818608E-02  0.1093470E+00
         21   -1    0    0  501  502  0.00000000000E+00  0.00000000000E+00  0.91140449633E+00  0.91140449633E+00  0.00000000000E+00 0. -1.
         13   -1    0    0    0    0 -0.00000000000E+00 -0.00000000000E+00 -0.10000000000E+04  0.10000000000E+04  0.00000000000E+00 0.  1.
    9000005    2    1    2  501    0  0.96730178406E+01  0.28407899730E+02 -0.54277870029E+03  0.54361577090E+03  0.29686420680E+01 0.  0.
         13    1    3    3    0    0  0.56130551899E+00  0.38894977035E+01 -0.59351634178E+02  0.59481591572E+02  0.00000000000E+00 0.  1.
          3    1    3    3  501    0  0.91117123216E+01  0.24518402026E+02 -0.48342706611E+03  0.48413417932E+03  0.00000000000E+00 0.  1.
         -3    1    1    2    0  502 -0.96730178406E+01 -0.28407899730E+02 -0.45630989521E+03  0.45729563360E+03  0.00000000000E+00 0. -1.
<mgrwt>
<rscale>  1 0.30000000E+03</rscale>
<asrwt>0</asrwt>
<pdfrwt beam="1">  1       21 0.33142052E-02 0.30000000E+03</pdfrwt>
<pdfrwt beam="2">0</pdfrwt>
<totfact> 0.57639014E+04</totfact>
</mgrwt>
</event>
<event>
 6    1  0.1198667E-001  0.3000000E+03  0.7818608E-02  0.1093470E+00
         21   -1    0    0  501  502  0.00000000000E+00  0.00000000000E+00  0.19406199869E+01  0.19406199869E+01  0.00000000000E+00 0. -1.
         13   -1    0    0    0    0 -0.00000000000E+00 -0.00000000000E+00 -0.10000000000E+04  0.10000000000E+04  0.00000000000E+00 0.  1.
    9000005    2    1    2  501    0  0.19411489340E+02 -0.38803508072E+02 -0.57563385424E+03  0.57729271527E+03  0.54796713216E+01 0.  0.
         13    1    3    3    0    0  0.76214462172E+01 -0.21354605032E+02 -0.29885949525E+03  0.29971837364E+03  0.00000000000E+00 0.  1.
          3    1    3    3  501    0  0.11790043123E+02 -0.17448903039E+02 -0.27677435900E+03  0.27757434163E+03  0.00000000000E+00 0.  1.
         -3    1    1    2    0  502 -0.19411489340E+02  0.38803508072E+02 -0.42242552577E+03  0.42464790472E+03  0.00000000000E+00 0. -1.
<mgrwt>
<rscale>  1 0.30000000E+03</rscale>
<asrwt>0</asrwt>
<pdfrwt beam="1">  1       21 0.70568148E-02 0.30000000E+03</pdfrwt>
<pdfrwt beam="2">0</pdfrwt>
<totfact> 0.15909807E+04</totfact>
</mgrwt>
</event>
<event>
 6    1  0.1198667E-001  0.3000000E+03  0.7818608E-02  0.1093470E+00
         21   -1    0    0  501  502  0.00000000000E+00  0.00000000000E+00  0.22044618953E+01  0.22044618953E+01  0.00000000000E+00 0. -1.
         13   -1    0    0    0    0 -0.00000000000E+00 -0.00000000000E+00 -0.10000000000E+04  0.10000000000E+04  0.00000000000E+00 0.  1.
    9000005    2    1    2  501    0  0.72685927315E+01 -0.32962516846E+02 -0.84702613821E+03  0.84770277290E+03  0.27115342589E+01 0.  0.
         13    1    3    3    0    0  0.11968079451E+01 -0.76939103109E+01 -0.17059894419E+03  0.17077654512E+03  0.00000000000E+00 0.  1.
          3    1    3    3  501    0  0.60717847864E+01 -0.25268606535E+02 -0.67642719402E+03  0.67692622778E+03  0.00000000000E+00 0.  1.
         -3    1    1    2    0  502 -0.72685927315E+01  0.32962516846E+02 -0.15076939989E+03  0.15450168899E+03  0.00000000000E+00 0. -1.
<mgrwt>
<rscale>  1 0.30000000E+03</rscale>
<asrwt>0</asrwt>
<pdfrwt beam="1">  1       21 0.80162420E-02 0.30000000E+03</pdfrwt>
<pdfrwt beam="2">0</pdfrwt>
<totfact> 0.12728441E+04</totfact>
</mgrwt>
</event>
<event>
 6    1  0.1198667E-001  0.3000000E+03  0.7818608E-02  0.1093470E+00
         21   -1    0    0  501  502  0.00000000000E+00  0.00000000000E+00  0.27134656560E+01  0.27134656560E+01  0.00000000000E+00 0. -1.
         13   -1    0    0    0    0 -0.00000000000E+00 -0.00000000000E+00 -0.10000000000E+04  0.10000000000E+04  0.00000000000E+00 0.  1.
    9000005    2    1    2  501    0  0.34283845781E+02  0.24963813340E+02 -0.78948971215E+03  0.79063307200E+03  0.28416362429E+01 0.  0.
         13    1    3    3    0    0  0.48390304678E+01  0.34933202061E+01 -0.93951121709E+02  0.94140494859E+02  0.00000000000E+00 0.  1.
          1    1    3    3  501    0  0.29444815313E+02  0.21470493133E+02 -0.69553859044E+03  0.69649257714E+03  0.00000000000E+00 0.  1.
         -1    1    1    2    0  502 -0.34283845781E+02 -0.24963813340E+02 -0.20779682220E+03  0.21208039366E+03  0.00000000000E+00 0. -1.
<mgrwt>
<rscale>  1 0.30000000E+03</rscale>
<asrwt>0</asrwt>
<pdfrwt beam="1">  1       21 0.98671686E-02 0.30000000E+03</pdfrwt>
<pdfrwt beam="2">0</pdfrwt>
<totfact> 0.88111543E+03</totfact>
</mgrwt>
</event>
<event>
 6    1  0.1198667E-001  0.3000000E+03  0.7818608E-02  0.1093470E+00
         21   -1    0    0  501  502  0.00000000000E+00  0.00000000000E+00  0.26554803262E+01  0.26554803262E+01  0.00000000000E+00 0. -1.
         13   -1    0    0    0    0 -0.00000000000E+00 -0.00000000000E+00 -0.10000000000E+04  0.10000000000E+04  0.00000000000E+00 0.  1.
    9000005    2    1    2  501    0 -0.47793149805E+02 -0.15040045101E+02 -0.61420469751E+03  0.61625347275E+03  0.32471708032E+01 0.  0.
         13    1    3    3    0    0 -0.82435019963E+01 -0.35793377729E+01 -0.12041392464E+03  0.12074883118E+03  0.00000000000E+00 0.  1.
          3    1    3    3  501    0 -0.39549647808E+02 -0.11460707328E+02 -0.49379077286E+03  0.49550464157E+03  0.00000000000E+00 0.  1.
         -3    1    1    2    0  502  0.47793149805E+02  0.15040045101E+02 -0.38313982217E+03  0.38640200757E+03  0.00000000000E+00 0. -1.
<mgrwt>
<rscale>  1 0.30000000E+03</rscale>
<asrwt>0</asrwt>
<pdfrwt beam="1">  1       21 0.96563125E-02 0.30000000E+03</pdfrwt>
<pdfrwt beam="2">0</pdfrwt>
<totfact> 0.91574099E+03</totfact>
</mgrwt>
</event>
<event>
 6    1  0.1198667E-001  0.3000000E+03  0.7818608E-02  0.1093470E+00
         21   -1    0    0  501  502  0.00000000000E+00  0.00000000000E+00  0.11531055905E+01  0.11531055905E+01  0.00000000000E+00 0. -1.
         13   -1    0    0    0    0 -0.00000000000E+00 -0.00000000000E+00 -0.10000000000E+04  0.10000000000E+04  0.00000000000E+00 0.  1.
    9000005    2    1    2  501    0  0.10128279292E+02  0.31251865364E+02 -0.62236666884E+03  0.62324224126E+03  0.33704130621E+01 0.  0.
         13    1    3    3    0    0  0.39295996389E+01  0.12704946350E+02 -0.28357776936E+03  0.28388943040E+03  0.00000000000E+00 0.  1.
          3    1    3    3  501    0  0.61986796529E+01  0.18546919014E+02 -0.33878889947E+03  0.33935281086E+03  0.00000000000E+00 0.  1.
         -1    1    1    2    0  502 -0.10128279292E+02 -0.31251865364E+02 -0.37648022557E+03  0.37791086433E+03  0.00000000000E+00 0. -1.
<mgrwt>
<rscale>  1 0.30000000E+03</rscale>
<asrwt>0</asrwt>
<pdfrwt beam="1">  1       21 0.41931201E-02 0.30000000E+03</pdfrwt>
<pdfrwt beam="2">0</pdfrwt>
<totfact> 0.38833811E+04</totfact>
</mgrwt>
</event>
<event>
 6    1  0.1198667E-001  0.3000000E+03  0.7818608E-02  0.1093470E+00
         21   -1    0    0  501  502  0.00000000000E+00  0.00000000000E+00  0.17713313285E+01  0.17713313285E+01  0.00000000000E+00 0. -1.
         13   -1    0    0    0    0 -0.00000000000E+00 -0.00000000000E+00 -0.10000000000E+04  0.10000000000E+04  0.00000000000E+00 0.  1.
    9000005    2    1    2  501    0 -0.11745677999E+01 -0.39505650262E+02 -0.67023015998E+03  0.67140017987E+03  0.27673399445E+01 0.  0.
         13    1    3    3    0    0 -0.12461899929E+01 -0.34594946179E+02 -0.57073070526E+03  0.57177959146E+03  0.00000000000E+00 0.  1.
          3    1    3    3  501    0  0.71622193025E-01 -0.49107040833E+01 -0.99499454728E+02  0.99620588411E+02  0.00000000000E+00 0.  1.
         -3    1    1    2    0  502  0.11745677999E+01  0.39505650262E+02 -0.32799850869E+03  0.33037115145E+03  0.00000000000E+00 0. -1.
<mgrwt>
<rscale>  1 0.30000000E+03</rscale>
<asrwt>0</asrwt>
<pdfrwt beam="1">  1       21 0.64412184E-02 0.30000000E+03</pdfrwt>
<pdfrwt beam="2">0</pdfrwt>
<totfact> 0.18640873E+04</totfact>
</mgrwt>
</event>
<event>
 6    1  0.1198667E-001  0.3000000E+03  0.7818608E-02  0.1093470E+00
         21   -1    0    0  501  502  0.00000000000E+00  0.00000000000E+00  0.85051432713E+01  0.85051432713E+01  0.00000000000E+00 0. -1.
         13   -1    0    0    0    0 -0.00000000000E+00 -0.00000000000E+00 -0.10000000000E+04  0.10000000000E+04  0.00000000000E+00 0.  1.
    9000005    2    1    2  501    0  0.88802750418E+02  0.12623149673E+02 -0.38709480783E+03  0.39748575610E+03  0.10356817299E+02 0.  0.
         13    1    3    3    0    0  0.63865811101E+02  0.13372338808E+02 -0.27180513854E+03  0.27952762763E+03  0.00000000000E+00 0.  1.
          3    1    3    3  501    0  0.24936939318E+02 -0.74918913554E+00 -0.11528966929E+03  0.11795812847E+03  0.00000000000E+00 0.  1.
         -3    1    1    2    0  502 -0.88802750418E+02 -0.12623149673E+02 -0.60440004890E+03  0.61101938718E+03  0.00000000000E+00 0. -1.
<mgrwt>
<rscale>  1 0.30000000E+03</rscale>
<asrwt>0</asrwt>
<pdfrwt beam="1">  1       21 0.30927859E-01 0.30000000E+03</pdfrwt>
<pdfrwt beam="2">0</pdfrwt>
<totfact> 0.10228633E+03</totfact>
</mgrwt>
</event>
<event>
 6    1  0.1198667E-001  0.3000000E+03  0.7818608E-02  0.1093470E+00
         21   -1    0    0  501  502  0.00000000000E+00  0.00000000000E+00  0.15140571589E+01  0.15140571589E+01  0.00000000000E+00 0. -1.
         13   -1    0    0    0    0 -0.00000000000E+00 -0.00000000000E+00 -0.10000000000E+04  0.10000000000E+04  0.00000000000E+00 0.  1.
    9000005    2    1    2  501    0  0.25735913081E+02  0.26818679699E+02 -0.63396784991E+03  0.63510578913E+03  0.79088475178E+01 0.  0.
         13    1    3    3    0    0  0.18171262633E+02  0.14095374369E+02 -0.41692078680E+03  0.41755456749E+03  0.00000000000E+00 0.  1.
          1    1    3    3  501    0  0.75646504481E+01  0.12723305329E+02 -0.21704706311E+03  0.21755122164E+03  0.00000000000E+00 0.  1.
         -3    1    1    2    0  502 -0.25735913081E+02 -0.26818679699E+02 -0.36451809293E+03  0.36640826802E+03  0.00000000000E+00 0. -1.
<mgrwt>
<rscale>  1 0.30000000E+03</rscale>
<asrwt>0</asrwt>
<pdfrwt beam="1">  1       21 0.55056740E-02 0.30000000E+03</pdfrwt>
<pdfrwt beam="2">0</pdfrwt>
<totfact> 0.24430915E+04</totfact>
</mgrwt>
</event>
<event>
 6    1  0.1198667E-001  0.3000000E+03  0.7818608E-02  0.1093470E+00
         21   -1    0    0  501  502  0.00000000000E+00  0.00000000000E+00  0.31296384081E+01  0.31296384081E+01  0.00000000000E+00 0. -1.
         13   -1    0    0    0    0 -0.00000000000E+00 -0.00000000000E+00 -0.10000000000E+04  0.10000000000E+04  0.00000000000E+00 0.  1.
    9000005    2    1    2  501    0  0.80226391164E+01  0.29683732572E+02 -0.91738619368E+03  0.91790511338E+03  0.26233747975E+01 0.  0.
         13    1    3    3    0    0  0.34067126363E+01  0.83145968477E+01 -0.27950587939E+03  0.27965027235E+03  0.00000000000E+00 0.  1.
          3    1    3    3  501    0  0.46159264801E+01  0.21369135724E+02 -0.63788031429E+03  0.63825484103E+03  0.00000000000E+00 0.  1.
         -3    1    1    2    0  502 -0.80226391164E+01 -0.29683732572E+02 -0.79484167913E+02  0.85224525031E+02  0.00000000000E+00 0. -1.
<mgrwt>
<rscale>  1 0.30000000E+03</rscale>
<asrwt>0</asrwt>
<pdfrwt beam="1">  1       21 0.11380527E-01 0.30000000E+03</pdfrwt>
<pdfrwt beam="2">0</pdfrwt>
<totfact> 0.68209701E+03</totfact>
</mgrwt>
</event>
<event>
 6    1  0.1198667E-001  0.3000000E+03  0.7818608E-02  0.1093470E+00
         21   -1    0    0  501  502  0.00000000000E+00  0.00000000000E+00  0.26528580463E+01  0.26528580463E+01  0.00000000000E+00 0. -1.
         13   -1    0    0    0    0 -0.00000000000E+00 -0.00000000000E+00 -0.10000000000E+04  0.10000000000E+04  0.00000000000E+00 0.  1.
    9000005    2    1    2  501    0  0.18864744793E+02  0.33418003512E+02 -0.83276628074E+03  0.83365729174E+03  0.34871437110E+01 0.  0.
         13    1    3    3    0    0  0.34704312209E+01  0.90904705417E+01 -0.20088356534E+03  0.20111908754E+03  0.00000000000E+00 0.  1.
          1    1    3    3  501    0  0.15394313572E+02  0.24327532970E+02 -0.63188271540E+03  0.63253820420E+03  0.00000000000E+00 0.  1.
         -3    1    1    2    0  502 -0.18864744793E+02 -0.33418003512E+02 -0.16458086121E+03  0.16899556631E+03  0.00000000000E+00 0. -1.
<mgrwt>
<rscale>  1 0.30000000E+03</rscale>
<asrwt>0</asrwt>
<pdfrwt beam="1">  1       21 0.96467769E-02 0.30000000E+03</pdfrwt>
<pdfrwt beam="2">0</pdfrwt>
<totfact> 0.91735585E+03</totfact>
</mgrwt>
</event>
<event>
 6    1  0.1198667E-001  0.3000000E+03  0.7818608E-02  0.1093470E+00
         21   -1    0    0  501  502  0.00000000000E+00  0.00000000000E+00  0.11638198138E+02  0.11638198138E+02  0.00000000000E+00 0. -1.
         13   -1    0    0    0    0 -0.00000000000E+00 -0.00000000000E+00 -0.10000000000E+04  0.10000000000E+04  0.00000000000E+00 0.  1.
    9000005    2    1    2  501    0 -0.56551687558E+02 -0.75169233661E+02 -0.74171096217E+03  0.74765875997E+03  0.31564067358E+01 0.  0.
         13    1    3    3    0    0 -0.45946154103E+02 -0.61351863119E+02 -0.61376302984E+03  0.61853064353E+03  0.00000000000E+00 0.  1.
          3    1    3    3  501    0 -0.10605533454E+02 -0.13817370542E+02 -0.12794793233E+03  0.12912811644E+03  0.00000000000E+00 0.  1.
         -1    1    1    2    0  502  0.56551687558E+02  0.75169233661E+02 -0.24665083970E+03  0.26397943817E+03  0.00000000000E+00 0. -1.
<mgrwt>
<rscale>  1 0.30000000E+03</rscale>
<asrwt>0</asrwt>
<pdfrwt beam="1">  1       21 0.42320810E-01 0.30000000E+03</pdfrwt>
<pdfrwt beam="2">0</pdfrwt>
<totfact> 0.53655601E+02</totfact>
</mgrwt>
</event>
<event>
 6    1  0.1198667E-001  0.3000000E+03  0.7818608E-02  0.1093470E+00
         21   -1    0    0  501  502  0.00000000000E+00  0.00000000000E+00  0.27579160162E+01  0.27579160162E+01  0.00000000000E+00 0. -1.
         13   -1    0    0    0    0 -0.00000000000E+00 -0.00000000000E+00 -0.10000000000E+04  0.10000000000E+04  0.00000000000E+00 0.  1.
    9000005    2    1    2  501    0  0.32766052688E+02 -0.35533815025E+00 -0.89026339919E+03  0.89087324560E+03  0.35326073298E+01 0.  0.
         13    1    3    3    0    0  0.70559972462E+01  0.12551685868E+01 -0.21009062363E+03  0.21021282711E+03  0.00000000000E+00 0.  1.
          3    1    3    3  501    0  0.25710055442E+02 -0.16105067370E+01 -0.68017277556E+03  0.68066041848E+03  0.00000000000E+00 0.  1.
         -1    1    1    2    0  502 -0.32766052688E+02  0.35533815025E+00 -0.10697868480E+03  0.11188467042E+03  0.00000000000E+00 0. -1.
<mgrwt>
<rscale>  1 0.30000000E+03</rscale>
<asrwt>0</asrwt>
<pdfrwt beam="1">  1       21 0.10028807E-01 0.30000000E+03</pdfrwt>
<pdfrwt beam="2">0</pdfrwt>
<totfact> 0.85590879E+03</totfact>
</mgrwt>
</event>
<event>
 6    1  0.1198667E-001  0.3000000E+03  0.7818608E-02  0.1093470E+00
         21   -1    0    0  501  502  0.00000000000E+00  0.00000000000E+00  0.14147063619E+01  0.14147063619E+01  0.00000000000E+00 0. -1.
         13   -1    0    0    0    0 -0.00000000000E+00 -0.00000000000E+00 -0.10000000000E+04  0.10000000000E+04  0.00000000000E+00 0.  1.
    9000005    2    1    2  501    0 -0.19056800508E+02 -0.32086724910E+02 -0.53601432614E+03  0.53734076879E+03  0.55699565329E+01 0.  0.
         13    1    3    3    0    0 -0.12230320046E+02 -0.24687545571E+02 -0.41033716852E+03  0.41126104545E+03  0.00000000000E+00 0.  1.
          3    1    3    3  501    0 -0.68264804626E+01 -0.73991793393E+01 -0.12567715763E+03  0.12607972335E+03  0.00000000000E+00 0.  1.
         -1    1    1    2    0  502  0.19056800508E+02  0.32086724910E+02 -0.46257096749E+03  0.46407393757E+03  0.00000000000E+00 0. -1.
<mgrwt>
<rscale>  1 0.30000000E+03</rscale>
<asrwt>0</asrwt>
<pdfrwt beam="1">  1       21 0.51443976E-02 0.30000000E+03</pdfrwt>
<pdfrwt beam="2">0</pdfrwt>
<totfact> 0.27439053E+04</totfact>
</mgrwt>
</event>
<event>
 6    1  0.1198667E-001  0.3000000E+03  0.7818608E-02  0.1093470E+00
         21   -1    0    0  501  502  0.00000000000E+00  0.00000000000E+00  0.14544360688E+01  0.14544360688E+01  0.00000000000E+00 0. -1.
         13   -1    0    0    0    0 -0.00000000000E+00 -0.00000000000E+00 -0.10000000000E+04  0.10000000000E+04  0.00000000000E+00 0.  1.
    9000005    2    1    2  501    0 -0.10031111034E+02 -0.31957076845E+02 -0.73660577043E+03  0.73738184497E+03  0.46953503308E+01 0.  0.
         13    1    3    3    0    0 -0.88516340996E+01 -0.27546552672E+02 -0.66636062175E+03  0.66698848731E+03  0.00000000000E+00 0.  1.
          3    1    3    3  501    0 -0.11794769344E+01 -0.44105241725E+01 -0.70245148679E+02  0.70393357657E+02  0.00000000000E+00 0.  1.
         -1    1    1    2    0  502  0.10031111034E+02  0.31957076845E+02 -0.26193979351E+03  0.26407259110E+03  0.00000000000E+00 0. -1.
<mgrwt>
<rscale>  1 0.30000000E+03</rscale>
<asrwt>0</asrwt>
<pdfrwt beam="1">  1       21 0.52888696E-02 0.30000000E+03</pdfrwt>
<pdfrwt beam="2">0</pdfrwt>
<totfact> 0.26170788E+04</totfact>
</mgrwt>
</event>
<event>
 6    1  0.1198667E-001  0.3000000E+03  0.7818608E-02  0.1093470E+00
         21   -1    0    0  501  502  0.00000000000E+00  0.00000000000E+00  0.39121596425E+01  0.39121596425E+01  0.00000000000E+00 0. -1.
         13   -1    0    0    0    0 -0.00000000000E+00 -0.00000000000E+00 -0.10000000000E+04  0.10000000000E+04  0.00000000000E+00 0.  1.
    9000005    2    1    2  501    0 -0.32213004479E+02 -0.46922233508E+02 -0.70570977342E+03  0.70800880479E+03  0.32878113570E+01 0.  0.
         13    1    3    3    0    0 -0.33115896833E+01 -0.51173424789E+01 -0.88961376996E+02  0.89169952435E+02  0.00000000000E+00 0.  1.
          1    1    3    3  501    0 -0.28901414796E+02 -0.41804891030E+02 -0.61674839643E+03  0.61883885236E+03  0.00000000000E+00 0.  1.
         -1    1    1    2    0  502  0.32213004479E+02  0.46922233508E+02 -0.29037806693E+03  0.29590335485E+03  0.00000000000E+00 0. -1.
<mgrwt>
<rscale>  1 0.30000000E+03</rscale>
<asrwt>0</asrwt>
<pdfrwt beam="1">  1       21 0.14226065E-01 0.30000000E+03</pdfrwt>
<pdfrwt beam="2">0</pdfrwt>
<totfact> 0.45409385E+03</totfact>
</mgrwt>
</event>
<event>
 6    1  0.1198667E-001  0.3000000E+03  0.7818608E-02  0.1093470E+00
         21   -1    0    0  501  502  0.00000000000E+00  0.00000000000E+00  0.16887905736E+01  0.16887905736E+01  0.00000000000E+00 0. -1.
         13   -1    0    0    0    0 -0.00000000000E+00 -0.00000000000E+00 -0.10000000000E+04  0.10000000000E+04  0.00000000000E+00 0.  1.
    9000005    2    1    2  501    0 -0.32596400847E+00  0.30343892533E+02 -0.83570226370E+03  0.83627256617E+03  0.57160566843E+01 0.  0.
         13    1    3    3    0    0 -0.19069529246E+01  0.20193330527E+02 -0.49481049466E+03  0.49522604202E+03  0.00000000000E+00 0.  1.
          1    1    3    3  501    0  0.15809889161E+01  0.10150562007E+02 -0.34089176903E+03  0.34104652414E+03  0.00000000000E+00 0.  1.
         -3    1    1    2    0  502  0.32596400847E+00 -0.30343892533E+02 -0.16260894573E+03  0.16541622441E+03  0.00000000000E+00 0. -1.
<mgrwt>
<rscale>  1 0.30000000E+03</rscale>
<asrwt>0</asrwt>
<pdfrwt beam="1">  1       21 0.61410696E-02 0.30000000E+03</pdfrwt>
<pdfrwt beam="2">0</pdfrwt>
<totfact> 0.20243431E+04</totfact>
</mgrwt>
</event>
<event>
 6    1  0.1198667E-001  0.3000000E+03  0.7818608E-02  0.1093470E+00
         21   -1    0    0  501  502  0.00000000000E+00  0.00000000000E+00  0.11314455570E+01  0.11314455570E+01  0.00000000000E+00 0. -1.
         13   -1    0    0    0    0 -0.00000000000E+00 -0.00000000000E+00 -0.10000000000E+04  0.10000000000E+04  0.00000000000E+00 0.  1.
    9000005    2    1    2  501    0 -0.29439362391E+02  0.10022213174E+02 -0.68871199245E+03  0.68941969769E+03  0.28618516582E+01 0.  0.
         13    1    3    3    0    0 -0.28354480084E+02  0.91546457252E+01 -0.66482595270E+03  0.66549329934E+03  0.00000000000E+00 0.  1.
          3    1    3    3  501    0 -0.10848823071E+01  0.86756744858E+00 -0.23886039750E+02  0.23926398346E+02  0.00000000000E+00 0.  1.
         -3    1    1    2    0  502  0.29439362391E+02 -0.10022213174E+02 -0.31015656199E+03  0.31171174787E+03  0.00000000000E+00 0. -1.
<mgrwt>
<rscale>  1 0.30000000E+03</rscale>
<asrwt>0</asrwt>
<pdfrwt beam="1">  1       21 0.41143562E-02 0.30000000E+03</pdfrwt>
<pdfrwt beam="2">0</pdfrwt>
<totfact> 0.40096582E+04</totfact>
</mgrwt>
</event>
<event>
 6    1  0.1198667E-001  0.3000000E+03  0.7818608E-02  0.1093470E+00
         21   -1    0    0  501  502  0.00000000000E+00  0.00000000000E+00  0.11410711117E+01  0.11410711117E+01  0.00000000000E+00 0. -1.
         13   -1    0    0    0    0 -0.00000000000E+00 -0.00000000000E+00 -0.10000000000E+04  0.10000000000E+04  0.00000000000E+00 0.  1.
    9000005    2    1    2  501    0  0.24803596522E+01 -0.31791847777E+02 -0.33968366206E+03  0.34119493227E+03  0.34810586876E+01 0.  0.
         13    1    3    3    0    0  0.31209044909E+01 -0.19321376272E+02 -0.20157876562E+03  0.20252667571E+03  0.00000000000E+00 0.  1.
          1    1    3    3  501    0 -0.64054483869E+00 -0.12470471506E+02 -0.13810489644E+03  0.13866825656E+03  0.00000000000E+00 0.  1.
         -3    1    1    2    0  502 -0.24803596522E+01  0.31791847777E+02 -0.65917526683E+03  0.65994613884E+03  0.00000000000E+00 0. -1.
<mgrwt>
<rscale>  1 0.30000000E+03</rscale>
<asrwt>0</asrwt>
<pdfrwt beam="1">  1       21 0.41493582E-02 0.30000000E+03</pdfrwt>
<pdfrwt beam="2">0</pdfrwt>
<totfact> 0.39527636E+04</totfact>
</mgrwt>
</event>
<event>
 6    1  0.1198667E-001  0.3000000E+03  0.7818608E-02  0.1093470E+00
         21   -1    0    0  501  502  0.00000000000E+00  0.00000000000E+00  0.24558724381E+01  0.24558724381E+01  0.00000000000E+00 0. -1.
         13   -1    0    0    0    0 -0.00000000000E+00 -0.00000000000E+00 -0.10000000000E+04  0.10000000000E+04  0.00000000000E+00 0.  1.
    9000005    2    1    2  501    0  0.28769114770E+02  0.36770605338E+02 -0.66505464295E+03  0.66670448114E+03  0.41770420696E+01 0.  0.
         13    1    3    3    0    0  0.37037445643E+01  0.28888592159E+01 -0.59698307587E+02  0.59882811892E+02  0.00000000000E+00 0.  1.
          1    1    3    3  501    0  0.25065370206E+02  0.33881746122E+02 -0.60535633536E+03  0.60682166924E+03  0.00000000000E+00 0.  1.
         -3    1    1    2    0  502 -0.28769114770E+02 -0.36770605338E+02 -0.33248948461E+03  0.33575139130E+03  0.00000000000E+00 0. -1.
<mgrwt>
<rscale>  1 0.30000000E+03</rscale>
<asrwt>0</asrwt>
<pdfrwt beam="1">  1       21 0.89304641E-02 0.30000000E+03</pdfrwt>
<pdfrwt beam="2">0</pdfrwt>
<totfact> 0.10521632E+04</totfact>
</mgrwt>
</event>
<event>
 6    1  0.1198667E-001  0.3000000E+03  0.7818608E-02  0.1093470E+00
         21   -1    0    0  501  502  0.00000000000E+00  0.00000000000E+00  0.22634471415E+01  0.22634471415E+01  0.00000000000E+00 0. -1.
         13   -1    0    0    0    0 -0.00000000000E+00 -0.00000000000E+00 -0.10000000000E+04  0.10000000000E+04  0.00000000000E+00 0.  1.
    9000005    2    1    2  501    0  0.47186894625E+02  0.35443194600E+01 -0.50003681905E+03  0.50231926000E+03  0.69751942748E+01 0.  0.
         13    1    3    3    0    0  0.44978805011E+02  0.19885980011E+01 -0.47857628990E+03  0.48068941394E+03  0.00000000000E+00 0.  1.
          3    1    3    3  501    0  0.22080896138E+01  0.15557214589E+01 -0.21460529145E+02  0.21629846051E+02  0.00000000000E+00 0.  1.
         -1    1    1    2    0  502 -0.47186894625E+02 -0.35443194600E+01 -0.49769973381E+03  0.49994418715E+03  0.00000000000E+00 0. -1.
<mgrwt>
<rscale>  1 0.30000000E+03</rscale>
<asrwt>0</asrwt>
<pdfrwt beam="1">  1       21 0.82307342E-02 0.30000000E+03</pdfrwt>
<pdfrwt beam="2">0</pdfrwt>
<totfact> 0.12151066E+04</totfact>
</mgrwt>
</event>
<event>
 6    1  0.1198667E-001  0.3000000E+03  0.7818608E-02  0.1093470E+00
         21   -1    0    0  501  502  0.00000000000E+00  0.00000000000E+00  0.34605190670E+01  0.34605190670E+01  0.00000000000E+00 0. -1.
         13   -1    0    0    0    0 -0.00000000000E+00 -0.00000000000E+00 -0.10000000000E+04  0.10000000000E+04  0.00000000000E+00 0.  1.
    9000005    2    1    2  501    0 -0.32627480006E+02  0.43086881645E+02 -0.69585764513E+03  0.69795994918E+03  0.30325809797E+01 0.  0.
         13    1    3    3    0    0 -0.77304228446E+01  0.11957716698E+02 -0.19387964815E+03  0.19440181170E+03  0.00000000000E+00 0.  1.
          1    1    3    3  501    0 -0.24897057161E+02  0.31129164947E+02 -0.50197799698E+03  0.50355813748E+03  0.00000000000E+00 0.  1.
         -3    1    1    2    0  502  0.32627480006E+02 -0.43086881645E+02 -0.30068183580E+03  0.30550056989E+03  0.00000000000E+00 0. -1.
<mgrwt>
<rscale>  1 0.30000000E+03</rscale>
<asrwt>0</asrwt>
<pdfrwt beam="1">  1       21 0.12583732E-01 0.30000000E+03</pdfrwt>
<pdfrwt beam="2">0</pdfrwt>
<totfact> 0.56841388E+03</totfact>
</mgrwt>
</event>
<event>
 6    1  0.1198667E-001  0.3000000E+03  0.7818608E-02  0.1093470E+00
         21   -1    0    0  501  502  0.00000000000E+00  0.00000000000E+00  0.35983213044E+01  0.35983213044E+01  0.00000000000E+00 0. -1.
         13   -1    0    0    0    0 -0.00000000000E+00 -0.00000000000E+00 -0.10000000000E+04  0.10000000000E+04  0.00000000000E+00 0.  1.
    9000005    2    1    2  501    0  0.25205925764E+02  0.18841012127E+02 -0.92534382443E+03  0.92588383691E+03  0.30600019736E+01 0.  0.
         13    1    3    3    0    0  0.21920232325E+02  0.16824125208E+02 -0.78152151175E+03  0.78200985998E+03  0.00000000000E+00 0.  1.
          3    1    3    3  501    0  0.32856934390E+01  0.20168869189E+01 -0.14382231268E+03  0.14387397693E+03  0.00000000000E+00 0.  1.
         -1    1    1    2    0  502 -0.25205925764E+02 -0.18841012127E+02 -0.71057854267E+02  0.77714484394E+02  0.00000000000E+00 0. -1.
<mgrwt>
<rscale>  1 0.30000000E+03</rscale>
<asrwt>0</asrwt>
<pdfrwt beam="1">  1       21 0.13084832E-01 0.30000000E+03</pdfrwt>
<pdfrwt beam="2">0</pdfrwt>
<totfact> 0.52932616E+03</totfact>
</mgrwt>
</event>
<event>
 6    1  0.1198667E-001  0.3000000E+03  0.7818608E-02  0.1093470E+00
         21   -1    0    0  501  502  0.00000000000E+00  0.00000000000E+00  0.26079856703E+01  0.26079856703E+01  0.00000000000E+00 0. -1.
         13   -1    0    0    0    0 -0.00000000000E+00 -0.00000000000E+00 -0.10000000000E+04  0.10000000000E+04  0.00000000000E+00 0.  1.
    9000005    2    1    2  501    0  0.21507231308E+02  0.21866324141E+02 -0.89937533423E+03  0.89990469114E+03  0.34298951853E+01 0.  0.
         13    1    3    3    0    0  0.13091069600E+00  0.65306851742E+00 -0.11995618594E+02  0.12014095952E+02  0.00000000000E+00 0.  1.
          1    1    3    3  501    0  0.21376320612E+02  0.21213255623E+02 -0.88737971564E+03  0.88789059519E+03  0.00000000000E+00 0.  1.
         -1    1    1    2    0  502 -0.21507231308E+02 -0.21866324141E+02 -0.98016680096E+02  0.10270329453E+03  0.00000000000E+00 0. -1.
<mgrwt>
<rscale>  1 0.30000000E+03</rscale>
<asrwt>0</asrwt>
<pdfrwt beam="1">  1       21 0.94836043E-02 0.30000000E+03</pdfrwt>
<pdfrwt beam="2">0</pdfrwt>
<totfact> 0.94567754E+03</totfact>
</mgrwt>
</event>
<event>
 6    1  0.1198667E-001  0.3000000E+03  0.7818608E-02  0.1093470E+00
         21   -1    0    0  501  502  0.00000000000E+00  0.00000000000E+00  0.52026431919E+01  0.52026431919E+01  0.00000000000E+00 0. -1.
         13   -1    0    0    0    0 -0.00000000000E+00 -0.00000000000E+00 -0.10000000000E+04  0.10000000000E+04  0.00000000000E+00 0.  1.
    9000005    2    1    2  501    0  0.35915104594E+02 -0.12261462884E+02 -0.92477396687E+03  0.92555646721E+03  0.27651370657E+01 0.  0.
         13    1    3    3    0    0  0.35315982506E+02 -0.12320468982E+02 -0.90328906121E+03  0.90406312870E+03  0.00000000000E+00 0.  1.
          3    1    3    3  501    0  0.59912208882E+00  0.59006097472E-01 -0.21484905669E+02  0.21493338517E+02  0.00000000000E+00 0.  1.
         -3    1    1    2    0  502 -0.35915104594E+02  0.12261462884E+02 -0.70023389934E+02  0.79646175978E+02  0.00000000000E+00 0. -1.
<mgrwt>
<rscale>  1 0.30000000E+03</rscale>
<asrwt>0</asrwt>
<pdfrwt beam="1">  1       21 0.18918742E-01 0.30000000E+03</pdfrwt>
<pdfrwt beam="2">0</pdfrwt>
<totfact> 0.26666577E+03</totfact>
</mgrwt>
</event>
<event>
 6    1  0.1198667E-001  0.3000000E+03  0.7818608E-02  0.1093470E+00
         21   -1    0    0  501  502  0.00000000000E+00  0.00000000000E+00  0.11365537971E+01  0.11365537971E+01  0.00000000000E+00 0. -1.
         13   -1    0    0    0    0 -0.00000000000E+00 -0.00000000000E+00 -0.10000000000E+04  0.10000000000E+04  0.00000000000E+00 0.  1.
    9000005    2    1    2  501    0  0.23380521473E+02  0.24138221910E+02 -0.48162055024E+03  0.48280315148E+03  0.33505398129E+01 0.  0.
         13    1    3    3    0    0  0.20338374349E+01  0.14239008977E+01 -0.26320008687E+02  0.26436846366E+02  0.00000000000E+00 0.  1.
          1    1    3    3  501    0  0.21346684038E+02  0.22714321012E+02 -0.45530054156E+03  0.45636630511E+03  0.00000000000E+00 0.  1.
         -3    1    1    2    0  502 -0.23380521473E+02 -0.24138221910E+02 -0.51724289596E+03  0.51833340232E+03  0.00000000000E+00 0. -1.
<mgrwt>
<rscale>  1 0.30000000E+03</rscale>
<asrwt>0</asrwt>
<pdfrwt beam="1">  1       21 0.41329316E-02 0.30000000E+03</pdfrwt>
<pdfrwt beam="2">0</pdfrwt>
<totfact> 0.39793068E+04</totfact>
</mgrwt>
</event>
<event>
 6    1  0.1198667E-001  0.3000000E+03  0.7818608E-02  0.1093470E+00
         21   -1    0    0  501  502  0.00000000000E+00  0.00000000000E+00  0.13557820725E+01  0.13557820725E+01  0.00000000000E+00 0. -1.
         13   -1    0    0    0    0 -0.00000000000E+00 -0.00000000000E+00 -0.10000000000E+04  0.10000000000E+04  0.00000000000E+00 0.  1.
    9000005    2    1    2  501    0  0.34450562035E+02 -0.45236500030E+01 -0.66294013605E+03  0.66385832250E+03  0.33081297438E+01 0.  0.
         13    1    3    3    0    0  0.10294990167E+02  0.14106502650E+00 -0.19020658104E+03  0.19048503928E+03  0.00000000000E+00 0.  1.
          3    1    3    3  501    0  0.24155571868E+02 -0.46647150295E+01 -0.47273355502E+03  0.47337328321E+03  0.00000000000E+00 0.  1.
         -3    1    1    2    0  502 -0.34450562035E+02  0.45236500030E+01 -0.33570408187E+03  0.33749745958E+03  0.00000000000E+00 0. -1.
<mgrwt>
<rscale>  1 0.30000000E+03</rscale>
<asrwt>0</asrwt>
<pdfrwt beam="1">  1       21 0.49301270E-02 0.30000000E+03</pdfrwt>
<pdfrwt beam="2">0</pdfrwt>
<totfact> 0.29503819E+04</totfact>
</mgrwt>
</event>
<event>
 6    1  0.1198667E-001  0.3000000E+03  0.7818608E-02  0.1093470E+00
         21   -1    0    0  501  502  0.00000000000E+00  0.00000000000E+00  0.16602472970E+01  0.16602472970E+01  0.00000000000E+00 0. -1.
         13   -1    0    0    0    0 -0.00000000000E+00 -0.00000000000E+00 -0.10000000000E+04  0.10000000000E+04  0.00000000000E+00 0.  1.
    9000005    2    1    2  501    0 -0.30127527008E+02 -0.17388699886E+02 -0.75882915654E+03  0.75963677645E+03  0.40383845836E+01 0.  0.
         13    1    3    3    0    0 -0.26457065813E+02 -0.14792149177E+02 -0.62924359877E+03  0.62997324594E+03  0.00000000000E+00 0.  1.
          1    1    3    3  501    0 -0.36704611955E+01 -0.25965507085E+01 -0.12958555777E+03  0.12966353051E+03  0.00000000000E+00 0.  1.
         -3    1    1    2    0  502  0.30127527008E+02  0.17388699886E+02 -0.23951059616E+03  0.24202347085E+03  0.00000000000E+00 0. -1.
<mgrwt>
<rscale>  1 0.30000000E+03</rscale>
<asrwt>0</asrwt>
<pdfrwt beam="1">  1       21 0.60372756E-02 0.30000000E+03</pdfrwt>
<pdfrwt beam="2">0</pdfrwt>
<totfact> 0.20847761E+04</totfact>
</mgrwt>
</event>
<event>
 6    1  0.1198667E-001  0.3000000E+03  0.7818608E-02  0.1093470E+00
         21   -1    0    0  501  502  0.00000000000E+00  0.00000000000E+00  0.38432049497E+01  0.38432049497E+01  0.00000000000E+00 0. -1.
         13   -1    0    0    0    0 -0.00000000000E+00 -0.00000000000E+00 -0.10000000000E+04  0.10000000000E+04  0.00000000000E+00 0.  1.
    9000005    2    1    2  501    0 -0.49972081988E+02  0.28324602339E+02 -0.68506770848E+03  0.68749543452E+03  0.57197203565E+01 0.  0.
         13    1    3    3    0    0 -0.15995660753E+01  0.22849420739E+01 -0.32849588286E+02  0.32967787649E+02  0.00000000000E+00 0.  1.
          3    1    3    3  501    0 -0.48372515913E+02  0.26039660265E+02 -0.65221812020E+03  0.65452764687E+03  0.00000000000E+00 0.  1.
         -1    1    1    2    0  502  0.49972081988E+02 -0.28324602339E+02 -0.31108908657E+03  0.31634777043E+03  0.00000000000E+00 0. -1.
<mgrwt>
<rscale>  1 0.30000000E+03</rscale>
<asrwt>0</asrwt>
<pdfrwt beam="1">  1       21 0.13975320E-01 0.30000000E+03</pdfrwt>
<pdfrwt beam="2">0</pdfrwt>
<totfact> 0.46918611E+03</totfact>
</mgrwt>
</event>
<event>
 6    1  0.1198667E-001  0.3000000E+03  0.7818608E-02  0.1093470E+00
         21   -1    0    0  501  502  0.00000000000E+00  0.00000000000E+00  0.69812534196E+01  0.69812534196E+01  0.00000000000E+00 0. -1.
         13   -1    0    0    0    0 -0.00000000000E+00 -0.00000000000E+00 -0.10000000000E+04  0.10000000000E+04  0.00000000000E+00 0.  1.
    9000005    2    1    2  501    0 -0.73376907714E+02  0.38739618685E+02 -0.44031590646E+03  0.44808469938E+03  0.41075167717E+01 0.  0.
         13    1    3    3    0    0 -0.33996494566E+01  0.23464894407E+01 -0.26299904538E+02  0.26622332877E+02  0.00000000000E+00 0.  1.
          3    1    3    3  501    0 -0.69977258258E+02  0.36393129245E+02 -0.41401600192E+03  0.42146236650E+03  0.00000000000E+00 0.  1.
         -3    1    1    2    0  502  0.73376907714E+02 -0.38739618685E+02 -0.55270284012E+03  0.55889655404E+03  0.00000000000E+00 0. -1.
<mgrwt>
<rscale>  1 0.30000000E+03</rscale>
<asrwt>0</asrwt>
<pdfrwt beam="1">  1       21 0.25386430E-01 0.30000000E+03</pdfrwt>
<pdfrwt beam="2">0</pdfrwt>
<totfact> 0.15134150E+03</totfact>
</mgrwt>
</event>
<event>
 6    1  0.1198667E-001  0.3000000E+03  0.7818608E-02  0.1093470E+00
         21   -1    0    0  501  502  0.00000000000E+00  0.00000000000E+00  0.39533459824E+01  0.39533459824E+01  0.00000000000E+00 0. -1.
         13   -1    0    0    0    0 -0.00000000000E+00 -0.00000000000E+00 -0.10000000000E+04  0.10000000000E+04  0.00000000000E+00 0.  1.
    9000005    2    1    2  501    0 -0.36302236949E+02  0.27550009372E+02 -0.84371697323E+03  0.84495275771E+03  0.31585457976E+01 0.  0.
         13    1    3    3    0    0 -0.20651290296E+02  0.13776323128E+02 -0.46671285334E+03  0.46737260333E+03  0.00000000000E+00 0.  1.
          3    1    3    3  501    0 -0.15650946653E+02  0.13773686244E+02 -0.37700411989E+03  0.37758015438E+03  0.00000000000E+00 0.  1.
         -1    1    1    2    0  502  0.36302236949E+02 -0.27550009372E+02 -0.15232968078E+03  0.15900058827E+03  0.00000000000E+00 0. -1.
<mgrwt>
<rscale>  1 0.30000000E+03</rscale>
<asrwt>0</asrwt>
<pdfrwt beam="1">  1       21 0.14375834E-01 0.30000000E+03</pdfrwt>
<pdfrwt beam="2">0</pdfrwt>
<totfact> 0.44542187E+03</totfact>
</mgrwt>
</event>
<event>
 6    1  0.1198667E-001  0.3000000E+03  0.7818608E-02  0.1093470E+00
         21   -1    0    0  501  502  0.00000000000E+00  0.00000000000E+00  0.13172453764E+01  0.13172453764E+01  0.00000000000E+00 0. -1.
         13   -1    0    0    0    0 -0.00000000000E+00 -0.00000000000E+00 -0.10000000000E+04  0.10000000000E+04  0.00000000000E+00 0.  1.
    9000005    2    1    2  501    0 -0.30912706525E+02  0.18488566112E+01 -0.75963850204E+03  0.76027540588E+03  0.30042146888E+01 0.  0.
         13    1    3    3    0    0 -0.27541912870E+02  0.71443982700E+00 -0.67726763627E+03  0.67782779415E+03  0.00000000000E+00 0.  1.
          3    1    3    3  501    0 -0.33707936549E+01  0.11344167842E+01 -0.82370865773E+02  0.82447611727E+02  0.00000000000E+00 0.  1.
         -1    1    1    2    0  502  0.30912706525E+02 -0.18488566112E+01 -0.23904425258E+03  0.24104183950E+03  0.00000000000E+00 0. -1.
<mgrwt>
<rscale>  1 0.30000000E+03</rscale>
<asrwt>0</asrwt>
<pdfrwt beam="1">  1       21 0.47899933E-02 0.30000000E+03</pdfrwt>
<pdfrwt beam="2">0</pdfrwt>
<totfact> 0.30988385E+04</totfact>
</mgrwt>
</event>
<event>
 6    1  0.1198667E-001  0.3000000E+03  0.7818608E-02  0.1093470E+00
         21   -1    0    0  501  502  0.00000000000E+00  0.00000000000E+00  0.10561586355E+01  0.10561586355E+01  0.00000000000E+00 0. -1.
         13   -1    0    0    0    0 -0.00000000000E+00 -0.00000000000E+00 -0.10000000000E+04  0.10000000000E+04  0.00000000000E+00 0.  1.
    9000005    2    1    2  501    0 -0.31202330074E+02  0.86178506535E+01 -0.53263604466E+03  0.53362614888E+03  0.28032028697E+01 0.  0.
         13    1    3    3    0    0 -0.20473387794E+02  0.42702625033E+01 -0.34520099599E+03  0.34583395204E+03  0.00000000000E+00 0.  1.
          1    1    3    3  501    0 -0.10728942280E+02  0.43475881502E+01 -0.18743504867E+03  0.18779219684E+03  0.00000000000E+00 0.  1.
         -3    1    1    2    0  502  0.31202330074E+02 -0.86178506535E+01 -0.46630779670E+03  0.46743000975E+03  0.00000000000E+00 0. -1.
<mgrwt>
<rscale>  1 0.30000000E+03</rscale>
<asrwt>0</asrwt>
<pdfrwt beam="1">  1       21 0.38405850E-02 0.30000000E+03</pdfrwt>
<pdfrwt beam="2">0</pdfrwt>
<totfact> 0.45025029E+04</totfact>
</mgrwt>
</event>
<event>
 6    1  0.1198667E-001  0.3000000E+03  0.7818608E-02  0.1093470E+00
         21   -1    0    0  501  502  0.00000000000E+00  0.00000000000E+00  0.30249987358E+01  0.30249987358E+01  0.00000000000E+00 0. -1.
         13   -1    0    0    0    0 -0.00000000000E+00 -0.00000000000E+00 -0.10000000000E+04  0.10000000000E+04  0.00000000000E+00 0.  1.
    9000005    2    1    2  501    0  0.32800685902E+02  0.50949894520E+01 -0.89829712528E+03  0.89891367792E+03  0.24962277131E+01 0.  0.
         13    1    3    3    0    0  0.64666965510E+01  0.55060450844E+00 -0.15289922532E+03  0.15303690546E+03  0.00000000000E+00 0.  1.
          1    1    3    3  501    0  0.26333989351E+02  0.45443849436E+01 -0.74539789996E+03  0.74587677246E+03  0.00000000000E+00 0.  1.
         -3    1    1    2    0  502 -0.32800685902E+02 -0.50949894520E+01 -0.98677875984E+02  0.10411132082E+03  0.00000000000E+00 0. -1.
<mgrwt>
<rscale>  1 0.30000000E+03</rscale>
<asrwt>0</asrwt>
<pdfrwt beam="1">  1       21 0.11000019E-01 0.30000000E+03</pdfrwt>
<pdfrwt beam="2">0</pdfrwt>
<totfact> 0.72520007E+03</totfact>
</mgrwt>
</event>
<event>
 6    1  0.1198667E-001  0.3000000E+03  0.7818608E-02  0.1093470E+00
         21   -1    0    0  501  502  0.00000000000E+00  0.00000000000E+00  0.19944487974E+01  0.19944487974E+01  0.00000000000E+00 0. -1.
         13   -1    0    0    0    0 -0.00000000000E+00 -0.00000000000E+00 -0.10000000000E+04  0.10000000000E+04  0.00000000000E+00 0.  1.
    9000005    2    1    2  501    0 -0.14039849258E+01  0.43711863922E+02 -0.56662961416E+03  0.56840720581E+03  0.10243717758E+02 0.  0.
         13    1    3    3    0    0 -0.39625977325E+01  0.35282630415E+02 -0.41205112944E+03  0.41357792430E+03  0.00000000000E+00 0.  1.
          3    1    3    3  501    0  0.25586128067E+01  0.84292335070E+01 -0.15457848472E+03  0.15482928152E+03  0.00000000000E+00 0.  1.
         -3    1    1    2    0  502  0.14039849258E+01 -0.43711863922E+02 -0.43137593704E+03  0.43358724298E+03  0.00000000000E+00 0. -1.
<mgrwt>
<rscale>  1 0.30000000E+03</rscale>
<asrwt>0</asrwt>
<pdfrwt beam="1">  1       21 0.72525564E-02 0.30000000E+03</pdfrwt>
<pdfrwt beam="2">0</pdfrwt>
<totfact> 0.15168663E+04</totfact>
</mgrwt>
</event>
<event>
 6    1  0.1198667E-001  0.3000000E+03  0.7818608E-02  0.1093470E+00
         21   -1    0    0  501  502  0.00000000000E+00  0.00000000000E+00  0.27285480023E+01  0.27285480023E+01  0.00000000000E+00 0. -1.
         13   -1    0    0    0    0 -0.00000000000E+00 -0.00000000000E+00 -0.10000000000E+04  0.10000000000E+04  0.00000000000E+00 0.  1.
    9000005    2    1    2  501    0  0.16977555584E+01 -0.41301041240E+02 -0.80485332272E+03  0.80592053278E+03  0.32211301886E+01 0.  0.
         13    1    3    3    0    0 -0.88666607409E+00 -0.13657183542E+02 -0.25712672871E+03  0.25749069781E+03  0.00000000000E+00 0.  1.
          3    1    3    3  501    0  0.25844216325E+01 -0.27643857698E+02 -0.54772659401E+03  0.54842983497E+03  0.00000000000E+00 0.  1.
         -3    1    1    2    0  502 -0.16977555584E+01  0.41301041240E+02 -0.19241812928E+03  0.19680801522E+03  0.00000000000E+00 0. -1.
<mgrwt>
<rscale>  1 0.30000000E+03</rscale>
<asrwt>0</asrwt>
<pdfrwt beam="1">  1       21 0.99220137E-02 0.30000000E+03</pdfrwt>
<pdfrwt beam="2">0</pdfrwt>
<totfact> 0.87243697E+03</totfact>
</mgrwt>
</event>
<event>
 6    1  0.1198667E-001  0.3000000E+03  0.7818608E-02  0.1093470E+00
         21   -1    0    0  501  502  0.00000000000E+00  0.00000000000E+00  0.43214289586E+01  0.43214289586E+01  0.00000000000E+00 0. -1.
         13   -1    0    0    0    0 -0.00000000000E+00 -0.00000000000E+00 -0.10000000000E+04  0.10000000000E+04  0.00000000000E+00 0.  1.
    9000005    2    1    2  501    0  0.29717993496E+02 -0.77446391762E+01 -0.94177895417E+03  0.94228670262E+03  0.36732596284E+01 0.  0.
         13    1    3    3    0    0  0.16317028505E+02 -0.57920090994E+01 -0.56017324717E+03  0.56044077264E+03  0.00000000000E+00 0.  1.
          3    1    3    3  501    0  0.13400964991E+02 -0.19526300769E+01 -0.38160570700E+03  0.38184592998E+03  0.00000000000E+00 0.  1.
         -3    1    1    2    0  502 -0.29717993496E+02  0.77446391762E+01 -0.53899616867E+02  0.62034726338E+02  0.00000000000E+00 0. -1.
<mgrwt>
<rscale>  1 0.30000000E+03</rscale>
<asrwt>0</asrwt>
<pdfrwt beam="1">  1       21 0.15714320E-01 0.30000000E+03</pdfrwt>
<pdfrwt beam="2">0</pdfrwt>
<totfact> 0.37773262E+03</totfact>
</mgrwt>
</event>
<event>
 6    1  0.1198667E-001  0.3000000E+03  0.7818608E-02  0.1093470E+00
         21   -1    0    0  501  502  0.00000000000E+00  0.00000000000E+00  0.39992480853E+01  0.39992480853E+01  0.00000000000E+00 0. -1.
         13   -1    0    0    0    0 -0.00000000000E+00 -0.00000000000E+00 -0.10000000000E+04  0.10000000000E+04  0.00000000000E+00 0.  1.
    9000005    2    1    2  501    0 -0.50880269975E+02  0.18151113026E+02 -0.75862824673E+03  0.76055732278E+03  0.35156402805E+01 0.  0.
         13    1    3    3    0    0 -0.11645804664E+02  0.26292238499E+01 -0.16398792373E+03  0.16442194718E+03  0.00000000000E+00 0.  1.
          3    1    3    3  501    0 -0.39234465311E+02  0.15521889176E+02 -0.59464032300E+03  0.59613537560E+03  0.00000000000E+00 0.  1.
         -3    1    1    2    0  502  0.50880269975E+02 -0.18151113026E+02 -0.23737250519E+03  0.24344192530E+03  0.00000000000E+00 0. -1.
<mgrwt>
<rscale>  1 0.30000000E+03</rscale>
<asrwt>0</asrwt>
<pdfrwt beam="1">  1       21 0.14542751E-01 0.30000000E+03</pdfrwt>
<pdfrwt beam="2">0</pdfrwt>
<totfact> 0.43604398E+03</totfact>
</mgrwt>
</event>
<event>
 6    1  0.1198667E-001  0.3000000E+03  0.7818608E-02  0.1093470E+00
         21   -1    0    0  501  502  0.00000000000E+00  0.00000000000E+00  0.14785332069E+01  0.14785332069E+01  0.00000000000E+00 0. -1.
         13   -1    0    0    0    0 -0.00000000000E+00 -0.00000000000E+00 -0.10000000000E+04  0.10000000000E+04  0.00000000000E+00 0.  1.
    9000005    2    1    2  501    0 -0.22439260425E+02  0.29451089267E+02 -0.36852957678E+03  0.37039956148E+03  0.33013813937E+01 0.  0.
         13    1    3    3    0    0 -0.22140746921E+01  0.17473229169E+01 -0.23276360350E+02  0.23446624816E+02  0.00000000000E+00 0.  1.
          3    1    3    3  501    0 -0.20225185733E+02  0.27703766351E+02 -0.34525321643E+03  0.34695293666E+03  0.00000000000E+00 0.  1.
         -3    1    1    2    0  502  0.22439260425E+02 -0.29451089267E+02 -0.62999189002E+03  0.63107897173E+03  0.00000000000E+00 0. -1.
<mgrwt>
<rscale>  1 0.30000000E+03</rscale>
<asrwt>0</asrwt>
<pdfrwt beam="1">  1       21 0.53764957E-02 0.30000000E+03</pdfrwt>
<pdfrwt beam="2">0</pdfrwt>
<totfact> 0.25445228E+04</totfact>
</mgrwt>
</event>
<event>
 6    1  0.1198667E-001  0.3000000E+03  0.7818608E-02  0.1093470E+00
         21   -1    0    0  501  502  0.00000000000E+00  0.00000000000E+00  0.10298838509E+02  0.10298838509E+02  0.00000000000E+00 0. -1.
         13   -1    0    0    0    0 -0.00000000000E+00 -0.00000000000E+00 -0.10000000000E+04  0.10000000000E+04  0.00000000000E+00 0.  1.
    9000005    2    1    2  501    0 -0.13054511151E+02  0.91779517697E+02 -0.28966794917E+03  0.30415409521E+03  0.28797099782E+01 0.  0.
         13    1    3    3    0    0 -0.19130136783E+01  0.19991268689E+02 -0.60314637137E+02  0.63570165157E+02  0.00000000000E+00 0.  1.
          1    1    3    3  501    0 -0.11141497473E+02  0.71788249009E+02 -0.22935331203E+03  0.24058393006E+03  0.00000000000E+00 0.  1.
         -3    1    1    2    0  502  0.13054511151E+02 -0.91779517697E+02 -0.70003321232E+03  0.70614474330E+03  0.00000000000E+00 0. -1.
<mgrwt>
<rscale>  1 0.30000000E+03</rscale>
<asrwt>0</asrwt>
<pdfrwt beam="1">  1       21 0.37450401E-01 0.30000000E+03</pdfrwt>
<pdfrwt beam="2">0</pdfrwt>
<totfact> 0.69250221E+02</totfact>
</mgrwt>
</event>
<event>
 6    1  0.1198667E-001  0.3000000E+03  0.7818608E-02  0.1093470E+00
         21   -1    0    0  501  502  0.00000000000E+00  0.00000000000E+00  0.26176818786E+01  0.26176818786E+01  0.00000000000E+00 0. -1.
         13   -1    0    0    0    0 -0.00000000000E+00 -0.00000000000E+00 -0.10000000000E+04  0.10000000000E+04  0.00000000000E+00 0.  1.
    9000005    2    1    2  501    0 -0.19547249225E+02  0.24123871014E+02 -0.89698812698E+03  0.89753176598E+03  0.33933608983E+01 0.  0.
         13    1    3    3    0    0 -0.90309081124E+01  0.90678299907E+01 -0.39854155919E+03  0.39874698399E+03  0.00000000000E+00 0.  1.
          3    1    3    3  501    0 -0.10516341112E+02  0.15056041024E+02 -0.49844656779E+03  0.49878478199E+03  0.00000000000E+00 0.  1.
         -1    1    1    2    0  502  0.19547249225E+02 -0.24123871014E+02 -0.10039419114E+03  0.10508591590E+03  0.00000000000E+00 0. -1.
<mgrwt>
<rscale>  1 0.30000000E+03</rscale>
<asrwt>0</asrwt>
<pdfrwt beam="1">  1       21 0.95188633E-02 0.30000000E+03</pdfrwt>
<pdfrwt beam="2">0</pdfrwt>
<totfact> 0.93944654E+03</totfact>
</mgrwt>
</event>
<event>
 6    1  0.1198667E-001  0.3000000E+03  0.7818608E-02  0.1093470E+00
         21   -1    0    0  501  502  0.00000000000E+00  0.00000000000E+00  0.10966881010E+01  0.10966881010E+01  0.00000000000E+00 0. -1.
         13   -1    0    0    0    0 -0.00000000000E+00 -0.00000000000E+00 -0.10000000000E+04  0.10000000000E+04  0.00000000000E+00 0.  1.
    9000005    2    1    2  501    0 -0.31802246561E+02  0.88663358331E+01 -0.52040542942E+03  0.52146118239E+03  0.31557846846E+01 0.  0.
         13    1    3    3    0    0 -0.78347447798E+01  0.25080881861E+01 -0.10983742744E+03  0.11014505980E+03  0.00000000000E+00 0.  1.
          3    1    3    3  501    0 -0.23967501781E+02  0.63582476470E+01 -0.41056800198E+03  0.41131612259E+03  0.00000000000E+00 0.  1.
         -3    1    1    2    0  502  0.31802246561E+02 -0.88663358331E+01 -0.47849788248E+03  0.47963550571E+03  0.00000000000E+00 0. -1.
<mgrwt>
<rscale>  1 0.30000000E+03</rscale>
<asrwt>0</asrwt>
<pdfrwt beam="1">  1       21 0.39879651E-02 0.30000000E+03</pdfrwt>
<pdfrwt beam="2">0</pdfrwt>
<totfact> 0.42261215E+04</totfact>
</mgrwt>
</event>
<event>
 6    1  0.1198667E-001  0.3000000E+03  0.7818608E-02  0.1093470E+00
         21   -1    0    0  501  502  0.00000000000E+00  0.00000000000E+00  0.22345456750E+01  0.22345456750E+01  0.00000000000E+00 0. -1.
         13   -1    0    0    0    0 -0.00000000000E+00 -0.00000000000E+00 -0.10000000000E+04  0.10000000000E+04  0.00000000000E+00 0.  1.
    9000005    2    1    2  501    0  0.43793851125E+02  0.15584122565E+02 -0.58700423703E+03  0.58885149824E+03  0.33684442280E+01 0.  0.
         13    1    3    3    0    0  0.29794029991E+02  0.89182321428E+01 -0.39186795750E+03  0.39310013382E+03  0.00000000000E+00 0.  1.
          1    1    3    3  501    0  0.13999821134E+02  0.66658904221E+01 -0.19513627952E+03  0.19575136442E+03  0.00000000000E+00 0.  1.
         -1    1    1    2    0  502 -0.43793851125E+02 -0.15584122565E+02 -0.41076121730E+03  0.41338304744E+03  0.00000000000E+00 0. -1.
<mgrwt>
<rscale>  1 0.30000000E+03</rscale>
<asrwt>0</asrwt>
<pdfrwt beam="1">  1       21 0.81256378E-02 0.30000000E+03</pdfrwt>
<pdfrwt beam="2">0</pdfrwt>
<totfact> 0.12428831E+04</totfact>
</mgrwt>
</event>
<event>
 6    1  0.1198667E-001  0.3000000E+03  0.7818608E-02  0.1093470E+00
         21   -1    0    0  501  502  0.00000000000E+00  0.00000000000E+00  0.14273186316E+01  0.14273186316E+01  0.00000000000E+00 0. -1.
         13   -1    0    0    0    0 -0.00000000000E+00 -0.00000000000E+00 -0.10000000000E+04  0.10000000000E+04  0.00000000000E+00 0.  1.
    9000005    2    1    2  501    0 -0.13679145100E+02  0.27085999664E+02 -0.79687193493E+03  0.79745682689E+03  0.34263219189E+01 0.  0.
         13    1    3    3    0    0 -0.65405192165E+01  0.13129437519E+02 -0.34070342465E+03  0.34101903772E+03  0.00000000000E+00 0.  1.
          3    1    3    3  501    0 -0.71386258836E+01  0.13956562146E+02 -0.45616851028E+03  0.45643778916E+03  0.00000000000E+00 0.  1.
         -1    1    1    2    0  502  0.13679145100E+02 -0.27085999664E+02 -0.20170074644E+03  0.20397049174E+03  0.00000000000E+00 0. -1.
<mgrwt>
<rscale>  1 0.30000000E+03</rscale>
<asrwt>0</asrwt>
<pdfrwt beam="1">  1       21 0.51902605E-02 0.30000000E+03</pdfrwt>
<pdfrwt beam="2">0</pdfrwt>
<totfact> 0.27026296E+04</totfact>
</mgrwt>
</event>
<event>
 6    1  0.1198667E-001  0.3000000E+03  0.7818608E-02  0.1093470E+00
         21   -1    0    0  501  502  0.00000000000E+00  0.00000000000E+00  0.12241143482E+01  0.12241143482E+01  0.00000000000E+00 0. -1.
         13   -1    0    0    0    0 -0.00000000000E+00 -0.00000000000E+00 -0.10000000000E+04  0.10000000000E+04  0.00000000000E+00 0.  1.
    9000005    2    1    2  501    0 -0.54484718443E+01 -0.31510395012E+02 -0.70003334377E+03  0.70077495530E+03  0.40329585749E+01 0.  0.
         13    1    3    3    0    0 -0.24218329407E+01 -0.97668282909E+01 -0.25934739505E+03  0.25954253510E+03  0.00000000000E+00 0.  1.
          3    1    3    3  501    0 -0.30266389035E+01 -0.21743566722E+02 -0.44068594872E+03  0.44123242020E+03  0.00000000000E+00 0.  1.
         -1    1    1    2    0  502  0.54484718443E+01  0.31510395012E+02 -0.29874254188E+03  0.30044915904E+03  0.00000000000E+00 0. -1.
<mgrwt>
<rscale>  1 0.30000000E+03</rscale>
<asrwt>0</asrwt>
<pdfrwt beam="1">  1       21 0.44513343E-02 0.30000000E+03</pdfrwt>
<pdfrwt beam="2">0</pdfrwt>
<totfact> 0.35099609E+04</totfact>
</mgrwt>
</event>
<event>
 6    1  0.1198667E-001  0.3000000E+03  0.7818608E-02  0.1093470E+00
         21   -1    0    0  501  502  0.00000000000E+00  0.00000000000E+00  0.96728730656E+00  0.96728730656E+00  0.00000000000E+00 0. -1.
         13   -1    0    0    0    0 -0.00000000000E+00 -0.00000000000E+00 -0.10000000000E+04  0.10000000000E+04  0.00000000000E+00 0.  1.
    9000005    2    1    2  501    0 -0.29086944018E+02 -0.91616218762E+01 -0.41021229075E+03  0.41135769196E+03  0.33228939357E+01 0.  0.
         13    1    3    3    0    0 -0.18403251189E+02 -0.41649578881E+01 -0.25823376153E+03  0.25892219319E+03  0.00000000000E+00 0.  1.
          3    1    3    3  501    0 -0.10683692830E+02 -0.49966639881E+01 -0.15197852922E+03  0.15243549878E+03  0.00000000000E+00 0.  1.
         -1    1    1    2    0  502  0.29086944018E+02  0.91616218762E+01 -0.58882042194E+03  0.58960959534E+03  0.00000000000E+00 0. -1.
<mgrwt>
<rscale>  1 0.30000000E+03</rscale>
<asrwt>0</asrwt>
<pdfrwt beam="1">  1       21 0.35174158E-02 0.30000000E+03</pdfrwt>
<pdfrwt beam="2">0</pdfrwt>
<totfact> 0.52181222E+04</totfact>
</mgrwt>
</event>
<event>
 6    1  0.1198667E-001  0.3000000E+03  0.7818608E-02  0.1093470E+00
         21   -1    0    0  501  502  0.00000000000E+00  0.00000000000E+00  0.23803907409E+01  0.23803907409E+01  0.00000000000E+00 0. -1.
         13   -1    0    0    0    0 -0.00000000000E+00 -0.00000000000E+00 -0.10000000000E+04  0.10000000000E+04  0.00000000000E+00 0.  1.
    9000005    2    1    2  501    0  0.10898891665E+02 -0.29529717794E+02 -0.88155833946E+03  0.88212645766E+03  0.33453506871E+01 0.  0.
         13    1    3    3    0    0  0.88716084064E+01 -0.25705971257E+02 -0.78571618284E+03  0.78618663330E+03  0.00000000000E+00 0.  1.
          1    1    3    3  501    0  0.20272832589E+01 -0.38237465364E+01 -0.95842156614E+02  0.95939824366E+02  0.00000000000E+00 0.  1.
         -1    1    1    2    0  502 -0.10898891665E+02  0.29529717794E+02 -0.11606126980E+03  0.12025393308E+03  0.00000000000E+00 0. -1.
<mgrwt>
<rscale>  1 0.30000000E+03</rscale>
<asrwt>0</asrwt>
<pdfrwt beam="1">  1       21 0.86559846E-02 0.30000000E+03</pdfrwt>
<pdfrwt beam="2">0</pdfrwt>
<totfact> 0.11118694E+04</totfact>
</mgrwt>
</event>
<event>
 6    1  0.1198667E-001  0.3000000E+03  0.7818608E-02  0.1093470E+00
         21   -1    0    0  501  502  0.00000000000E+00  0.00000000000E+00  0.32666375869E+01  0.32666375869E+01  0.00000000000E+00 0. -1.
         13   -1    0    0    0    0 -0.00000000000E+00 -0.00000000000E+00 -0.10000000000E+04  0.10000000000E+04  0.00000000000E+00 0.  1.
    9000005    2    1    2  501    0 -0.35788089673E+02 -0.17062722917E+02 -0.85906155926E+03  0.85999958185E+03  0.63713664430E+01 0.  0.
         13    1    3    3    0    0 -0.33206562952E+02 -0.16160231803E+02 -0.82598399846E+03  0.82680916458E+03  0.00000000000E+00 0.  1.
          3    1    3    3  501    0 -0.25815267214E+01 -0.90249111389E+00 -0.33077560793E+02  0.33190417268E+02  0.00000000000E+00 0.  1.
         -1    1    1    2    0  502  0.35788089673E+02  0.17062722917E+02 -0.13767180316E+03  0.14326705574E+03  0.00000000000E+00 0. -1.
<mgrwt>
<rscale>  1 0.30000000E+03</rscale>
<asrwt>0</asrwt>
<pdfrwt beam="1">  1       21 0.11878707E-01 0.30000000E+03</pdfrwt>
<pdfrwt beam="2">0</pdfrwt>
<totfact> 0.63123748E+03</totfact>
</mgrwt>
</event>
<event>
 6    1  0.1198667E-001  0.3000000E+03  0.7818608E-02  0.1093470E+00
         21   -1    0    0  501  502  0.00000000000E+00  0.00000000000E+00  0.14281449873E+01  0.14281449873E+01  0.00000000000E+00 0. -1.
         13   -1    0    0    0    0 -0.00000000000E+00 -0.00000000000E+00 -0.10000000000E+04  0.10000000000E+04  0.00000000000E+00 0.  1.
    9000005    2    1    2  501    0  0.23793408076E+01  0.37562615650E+02 -0.46884774590E+03  0.47036859736E+03  0.34347029186E+01 0.  0.
         13    1    3    3    0    0  0.32594665302E+01  0.31457982691E+02 -0.39184982720E+03  0.39312404642E+03  0.00000000000E+00 0.  1.
          3    1    3    3  501    0 -0.88012572260E+00  0.61046329592E+01 -0.76997918706E+02  0.77244550940E+02  0.00000000000E+00 0.  1.
         -3    1    1    2    0  502 -0.23793408076E+01 -0.37562615650E+02 -0.52972410911E+03  0.53105954763E+03  0.00000000000E+00 0. -1.
<mgrwt>
<rscale>  1 0.30000000E+03</rscale>
<asrwt>0</asrwt>
<pdfrwt beam="1">  1       21 0.51932655E-02 0.30000000E+03</pdfrwt>
<pdfrwt beam="2">0</pdfrwt>
<totfact> 0.26999589E+04</totfact>
</mgrwt>
</event>
<event>
 6    1  0.1198667E-001  0.3000000E+03  0.7818608E-02  0.1093470E+00
         21   -1    0    0  501  502  0.00000000000E+00  0.00000000000E+00  0.16952392330E+01  0.16952392330E+01  0.00000000000E+00 0. -1.
         13   -1    0    0    0    0 -0.00000000000E+00 -0.00000000000E+00 -0.10000000000E+04  0.10000000000E+04  0.00000000000E+00 0.  1.
    9000005    2    1    2  501    0  0.37055853772E+02  0.13462433301E+02 -0.63282066592E+03  0.63409083638E+03  0.74040637030E+01 0.  0.
         13    1    3    3    0    0  0.17022944593E+02  0.28185137321E+01 -0.24445266586E+03  0.24506087102E+03  0.00000000000E+00 0.  1.
          3    1    3    3  501    0  0.20032909179E+02  0.10643919569E+02 -0.38836800006E+03  0.38902996536E+03  0.00000000000E+00 0.  1.
         -3    1    1    2    0  502 -0.37055853772E+02 -0.13462433301E+02 -0.36548409485E+03  0.36760440285E+03  0.00000000000E+00 0. -1.
<mgrwt>
<rscale>  1 0.30000000E+03</rscale>
<asrwt>0</asrwt>
<pdfrwt beam="1">  1       21 0.61645193E-02 0.30000000E+03</pdfrwt>
<pdfrwt beam="2">0</pdfrwt>
<totfact> 0.20110666E+04</totfact>
</mgrwt>
</event>
<event>
 6    1  0.1198667E-001  0.3000000E+03  0.7818608E-02  0.1093470E+00
         21   -1    0    0  501  502  0.00000000000E+00  0.00000000000E+00  0.14811082254E+01  0.14811082254E+01  0.00000000000E+00 0. -1.
         13   -1    0    0    0    0 -0.00000000000E+00 -0.00000000000E+00 -0.10000000000E+04  0.10000000000E+04  0.00000000000E+00 0.  1.
    9000005    2    1    2  501    0 -0.18156772268E+02  0.26713645445E+02 -0.76272535822E+03  0.76348556689E+03  0.10814413358E+02 0.  0.
         13    1    3    3    0    0 -0.14296938293E+02  0.13727142751E+02 -0.52552043700E+03  0.52589406404E+03  0.00000000000E+00 0.  1.
          1    1    3    3  501    0 -0.38598339751E+01  0.12986502694E+02 -0.23720492123E+03  0.23759150284E+03  0.00000000000E+00 0.  1.
         -3    1    1    2    0  502  0.18156772268E+02 -0.26713645445E+02 -0.23579353355E+03  0.23799554134E+03  0.00000000000E+00 0. -1.
<mgrwt>
<rscale>  1 0.30000000E+03</rscale>
<asrwt>0</asrwt>
<pdfrwt beam="1">  1       21 0.53858594E-02 0.30000000E+03</pdfrwt>
<pdfrwt beam="2">0</pdfrwt>
<totfact> 0.25369537E+04</totfact>
</mgrwt>
</event>
<event>
 6    1  0.1198667E-001  0.3000000E+03  0.7818608E-02  0.1093470E+00
         21   -1    0    0  501  502  0.00000000000E+00  0.00000000000E+00  0.11707077073E+01  0.11707077073E+01  0.00000000000E+00 0. -1.
         13   -1    0    0    0    0 -0.00000000000E+00 -0.00000000000E+00 -0.10000000000E+04  0.10000000000E+04  0.00000000000E+00 0.  1.
    9000005    2    1    2  501    0  0.33873059682E+02 -0.42422436707E+01 -0.49050870442E+03  0.49170510449E+03  0.31208762769E+01 0.  0.
         13    1    3    3    0    0  0.27521816443E+02 -0.23179641563E+01 -0.40260625006E+03  0.40355249464E+03  0.00000000000E+00 0.  1.
          3    1    3    3  501    0  0.63512432393E+01 -0.19242795144E+01 -0.87902454355E+02  0.88152609854E+02  0.00000000000E+00 0.  1.
         -3    1    1    2    0  502 -0.33873059682E+02  0.42422436707E+01 -0.50832058788E+03  0.50946560322E+03  0.00000000000E+00 0. -1.
<mgrwt>
<rscale>  1 0.30000000E+03</rscale>
<asrwt>0</asrwt>
<pdfrwt beam="1">  1       21 0.42571279E-02 0.30000000E+03</pdfrwt>
<pdfrwt beam="2">0</pdfrwt>
<totfact> 0.37852594E+04</totfact>
</mgrwt>
</event>
<event>
 6    1  0.1198667E-001  0.3000000E+03  0.7818608E-02  0.1093470E+00
         21   -1    0    0  501  502  0.00000000000E+00  0.00000000000E+00  0.72251078373E+01  0.72251078373E+01  0.00000000000E+00 0. -1.
         13   -1    0    0    0    0 -0.00000000000E+00 -0.00000000000E+00 -0.10000000000E+04  0.10000000000E+04  0.00000000000E+00 0.  1.
    9000005    2    1    2  501    0 -0.64552644122E+02  0.31245047863E+02 -0.76655851911E+03  0.76991277289E+03  0.32276564757E+01 0.  0.
         13    1    3    3    0    0 -0.42601821415E+02  0.20092877278E+02 -0.51882335986E+03  0.52095711689E+03  0.00000000000E+00 0.  1.
          1    1    3    3  501    0 -0.21950822707E+02  0.11152170585E+02 -0.24773515925E+03  0.24895565600E+03  0.00000000000E+00 0.  1.
         -3    1    1    2    0  502  0.64552644122E+02 -0.31245047863E+02 -0.22621637305E+03  0.23731233494E+03  0.00000000000E+00 0. -1.
<mgrwt>
<rscale>  1 0.30000000E+03</rscale>
<asrwt>0</asrwt>
<pdfrwt beam="1">  1       21 0.26273175E-01 0.30000000E+03</pdfrwt>
<pdfrwt beam="2">0</pdfrwt>
<totfact> 0.14146039E+03</totfact>
</mgrwt>
</event>
<event>
 6    1  0.1198667E-001  0.3000000E+03  0.7818608E-02  0.1093470E+00
         21   -1    0    0  501  502  0.00000000000E+00  0.00000000000E+00  0.11847958902E+01  0.11847958902E+01  0.00000000000E+00 0. -1.
         13   -1    0    0    0    0 -0.00000000000E+00 -0.00000000000E+00 -0.10000000000E+04  0.10000000000E+04  0.00000000000E+00 0.  1.
    9000005    2    1    2  501    0 -0.27718585823E+02 -0.19415604401E+02 -0.55910510358E+03  0.56017429919E+03  0.71723724449E+01 0.  0.
         13    1    3    3    0    0 -0.19344332133E+01  0.48013184872E+00 -0.38418818789E+02  0.38470484733E+02  0.00000000000E+00 0.  1.
          1    1    3    3  501    0 -0.25784152610E+02 -0.19895736250E+02 -0.52068628479E+03  0.52170381446E+03  0.00000000000E+00 0.  1.
         -1    1    1    2    0  502  0.27718585823E+02  0.19415604401E+02 -0.43971010053E+03  0.44101049670E+03  0.00000000000E+00 0. -1.
<mgrwt>
<rscale>  1 0.30000000E+03</rscale>
<asrwt>0</asrwt>
<pdfrwt beam="1">  1       21 0.43083578E-02 0.30000000E+03</pdfrwt>
<pdfrwt beam="2">0</pdfrwt>
<totfact> 0.37094718E+04</totfact>
</mgrwt>
</event>
<event>
 6    1  0.1198667E-001  0.3000000E+03  0.7818608E-02  0.1093470E+00
         21   -1    0    0  501  502  0.00000000000E+00  0.00000000000E+00  0.21190712928E+01  0.21190712928E+01  0.00000000000E+00 0. -1.
         13   -1    0    0    0    0 -0.00000000000E+00 -0.00000000000E+00 -0.10000000000E+04  0.10000000000E+04  0.00000000000E+00 0.  1.
    9000005    2    1    2  501    0  0.38283423426E+02  0.76857048573E+01 -0.76390892111E+03  0.76491116479E+03  0.27494909689E+01 0.  0.
         13    1    3    3    0    0  0.46141272203E+01  0.32153129727E+00 -0.10411011331E+03  0.10421280750E+03  0.00000000000E+00 0.  1.
          1    1    3    3  501    0  0.33669296206E+02  0.73641735600E+01 -0.65979880780E+03  0.66069835729E+03  0.00000000000E+00 0.  1.
         -1    1    1    2    0  502 -0.38283423426E+02 -0.76857048573E+01 -0.23397200760E+03  0.23720790650E+03  0.00000000000E+00 0. -1.
<mgrwt>
<rscale>  1 0.30000000E+03</rscale>
<asrwt>0</asrwt>
<pdfrwt beam="1">  1       21 0.77057300E-02 0.30000000E+03</pdfrwt>
<pdfrwt beam="2">0</pdfrwt>
<totfact> 0.13642127E+04</totfact>
</mgrwt>
</event>
<event>
 6    1  0.1198667E-001  0.3000000E+03  0.7818608E-02  0.1093470E+00
         21   -1    0    0  501  502  0.00000000000E+00  0.00000000000E+00  0.19187364742E+01  0.19187364742E+01  0.00000000000E+00 0. -1.
         13   -1    0    0    0    0 -0.00000000000E+00 -0.00000000000E+00 -0.10000000000E+04  0.10000000000E+04  0.00000000000E+00 0.  1.
    9000005    2    1    2  501    0 -0.33238795820E+02 -0.22032602082E+02 -0.70538013004E+03  0.70651357970E+03  0.31713325190E+01 0.  0.
         13    1    3    3    0    0 -0.20780321939E+02 -0.14902376755E+02 -0.43025467451E+03  0.43101390645E+03  0.00000000000E+00 0.  1.
          1    1    3    3  501    0 -0.12458473881E+02 -0.71302253273E+01 -0.27512545553E+03  0.27549967326E+03  0.00000000000E+00 0.  1.
         -3    1    1    2    0  502  0.33238795820E+02  0.22032602082E+02 -0.29270113349E+03  0.29540515677E+03  0.00000000000E+00 0. -1.
<mgrwt>
<rscale>  1 0.30000000E+03</rscale>
<asrwt>0</asrwt>
<pdfrwt beam="1">  1       21 0.69772383E-02 0.30000000E+03</pdfrwt>
<pdfrwt beam="2">0</pdfrwt>
<totfact> 0.16226993E+04</totfact>
</mgrwt>
</event>
<event>
 6    1  0.1198667E-001  0.3000000E+03  0.7818608E-02  0.1093470E+00
         21   -1    0    0  501  502  0.00000000000E+00  0.00000000000E+00  0.25047751767E+01  0.25047751767E+01  0.00000000000E+00 0. -1.
         13   -1    0    0    0    0 -0.00000000000E+00 -0.00000000000E+00 -0.10000000000E+04  0.10000000000E+04  0.00000000000E+00 0.  1.
    9000005    2    1    2  501    0  0.44185830052E+02  0.22041302869E+02 -0.53164202857E+03  0.53404196228E+03  0.10925398039E+02 0.  0.
         13    1    3    3    0    0  0.36715720073E+02  0.20545143340E+02 -0.40744642400E+03  0.40961290927E+03  0.00000000000E+00 0.  1.
          3    1    3    3  501    0  0.74701099783E+01  0.14961595287E+01 -0.12419560457E+03  0.12442905300E+03  0.00000000000E+00 0.  1.
         -1    1    1    2    0  502 -0.44185830052E+02 -0.22041302869E+02 -0.46585319625E+03  0.46846281290E+03  0.00000000000E+00 0. -1.
<mgrwt>
<rscale>  1 0.30000000E+03</rscale>
<asrwt>0</asrwt>
<pdfrwt beam="1">  1       21 0.91082926E-02 0.30000000E+03</pdfrwt>
<pdfrwt beam="2">0</pdfrwt>
<totfact> 0.10160369E+04</totfact>
</mgrwt>
</event>
<event>
 6    1  0.1198667E-001  0.3000000E+03  0.7818608E-02  0.1093470E+00
         21   -1    0    0  501  502  0.00000000000E+00  0.00000000000E+00  0.92997424465E+00  0.92997424465E+00  0.00000000000E+00 0. -1.
         13   -1    0    0    0    0 -0.00000000000E+00 -0.00000000000E+00 -0.10000000000E+04  0.10000000000E+04  0.00000000000E+00 0.  1.
    9000005    2    1    2  501    0 -0.29837107357E+02  0.51530788574E+01 -0.54628719497E+03  0.54713585898E+03  0.33379025921E+01 0.  0.
         13    1    3    3    0    0 -0.24328965212E+02  0.29121682251E+01 -0.44581394697E+03  0.44648679105E+03  0.00000000000E+00 0.  1.
          3    1    3    3  501    0 -0.55081421442E+01  0.22409106323E+01 -0.10047324800E+03  0.10064906793E+03  0.00000000000E+00 0.  1.
         -1    1    1    2    0  502  0.29837107357E+02 -0.51530788574E+01 -0.45278283078E+03  0.45379411527E+03  0.00000000000E+00 0. -1.
<mgrwt>
<rscale>  1 0.30000000E+03</rscale>
<asrwt>0</asrwt>
<pdfrwt beam="1">  1       21 0.33817317E-02 0.30000000E+03</pdfrwt>
<pdfrwt beam="2">0</pdfrwt>
<totfact> 0.55730431E+04</totfact>
</mgrwt>
</event>
<event>
 6    1  0.1198667E-001  0.3000000E+03  0.7818608E-02  0.1093470E+00
         21   -1    0    0  501  502  0.00000000000E+00  0.00000000000E+00  0.15539526624E+01  0.15539526624E+01  0.00000000000E+00 0. -1.
         13   -1    0    0    0    0 -0.00000000000E+00 -0.00000000000E+00 -0.10000000000E+04  0.10000000000E+04  0.00000000000E+00 0.  1.
    9000005    2    1    2  501    0 -0.36339395663E+02 -0.10595959137E+02 -0.63635769764E+03  0.63749242076E+03  0.35554393123E+01 0.  0.
         13    1    3    3    0    0 -0.11578258959E+02 -0.51136814880E+01 -0.20940825691E+03  0.20979042848E+03  0.00000000000E+00 0.  1.
          3    1    3    3  501    0 -0.24761136704E+02 -0.54822776492E+01 -0.42694944074E+03  0.42770199228E+03  0.00000000000E+00 0.  1.
         -1    1    1    2    0  502  0.36339395663E+02  0.10595959137E+02 -0.36208834969E+03  0.36406153190E+03  0.00000000000E+00 0. -1.
<mgrwt>
<rscale>  1 0.30000000E+03</rscale>
<asrwt>0</asrwt>
<pdfrwt beam="1">  1       21 0.56507489E-02 0.30000000E+03</pdfrwt>
<pdfrwt beam="2">0</pdfrwt>
<totfact> 0.23364193E+04</totfact>
</mgrwt>
</event>
<event>
 6    1  0.1198667E-001  0.3000000E+03  0.7818608E-02  0.1093470E+00
         21   -1    0    0  501  502  0.00000000000E+00  0.00000000000E+00  0.22586677521E+01  0.22586677521E+01  0.00000000000E+00 0. -1.
         13   -1    0    0    0    0 -0.00000000000E+00 -0.00000000000E+00 -0.10000000000E+04  0.10000000000E+04  0.00000000000E+00 0.  1.
    9000005    2    1    2  501    0  0.16709404997E+02 -0.40125849325E+02 -0.70053691305E+03  0.70189263307E+03  0.34660949382E+01 0.  0.
         13    1    3    3    0    0  0.14646887526E+02 -0.35740400201E+02 -0.60350494720E+03  0.60473971989E+03  0.00000000000E+00 0.  1.
          3    1    3    3  501    0  0.20625174707E+01 -0.43854491242E+01 -0.97031965847E+02  0.97152913175E+02  0.00000000000E+00 0.  1.
         -1    1    1    2    0  502 -0.16709404997E+02  0.40125849325E+02 -0.29720441920E+03  0.30036603468E+03  0.00000000000E+00 0. -1.
<mgrwt>
<rscale>  1 0.30000000E+03</rscale>
<asrwt>0</asrwt>
<pdfrwt beam="1">  1       21 0.82133546E-02 0.30000000E+03</pdfrwt>
<pdfrwt beam="2">0</pdfrwt>
<totfact> 0.12196339E+04</totfact>
</mgrwt>
</event>
<event>
 6    1  0.1198667E-001  0.3000000E+03  0.7818608E-02  0.1093470E+00
         21   -1    0    0  501  502  0.00000000000E+00  0.00000000000E+00  0.10490654774E+01  0.10490654774E+01  0.00000000000E+00 0. -1.
         13   -1    0    0    0    0 -0.00000000000E+00 -0.00000000000E+00 -0.10000000000E+04  0.10000000000E+04  0.00000000000E+00 0.  1.
    9000005    2    1    2  501    0  0.25702229301E+02  0.19482706214E+02 -0.49012739295E+03  0.49120440591E+03  0.40898204819E+01 0.  0.
         13    1    3    3    0    0  0.19500285438E+02  0.14033366803E+02 -0.33762833689E+03  0.33848203850E+03  0.00000000000E+00 0.  1.
          3    1    3    3  501    0  0.62019438627E+01  0.54493394110E+01 -0.15249905606E+03  0.15272236741E+03  0.00000000000E+00 0.  1.
         -3    1    1    2    0  502 -0.25702229301E+02 -0.19482706214E+02 -0.50882354157E+03  0.50984465957E+03  0.00000000000E+00 0. -1.
<mgrwt>
<rscale>  1 0.30000000E+03</rscale>
<asrwt>0</asrwt>
<pdfrwt beam="1">  1       21 0.38147916E-02 0.30000000E+03</pdfrwt>
<pdfrwt beam="2">0</pdfrwt>
<totfact> 0.45537847E+04</totfact>
</mgrwt>
</event>
<event>
 6    1  0.1198667E-001  0.3000000E+03  0.7818608E-02  0.1093470E+00
         21   -1    0    0  501  502  0.00000000000E+00  0.00000000000E+00  0.16037870544E+01  0.16037870544E+01  0.00000000000E+00 0. -1.
         13   -1    0    0    0    0 -0.00000000000E+00 -0.00000000000E+00 -0.10000000000E+04  0.10000000000E+04  0.00000000000E+00 0.  1.
    9000005    2    1    2  501    0 -0.71367265070E+01  0.30758698930E+02 -0.80655675592E+03  0.80718308934E+03  0.37025373657E+01 0.  0.
         13    1    3    3    0    0 -0.35221675892E+01  0.85020739165E+01 -0.21558430687E+03  0.21578063930E+03  0.00000000000E+00 0.  1.
          3    1    3    3  501    0 -0.36145589179E+01  0.22256625013E+02 -0.59097244904E+03  0.59140245005E+03  0.00000000000E+00 0.  1.
         -1    1    1    2    0  502  0.71367265070E+01 -0.30758698930E+02 -0.19183945703E+03  0.19442069771E+03  0.00000000000E+00 0. -1.
<mgrwt>
<rscale>  1 0.30000000E+03</rscale>
<asrwt>0</asrwt>
<pdfrwt beam="1">  1       21 0.58319652E-02 0.30000000E+03</pdfrwt>
<pdfrwt beam="2">0</pdfrwt>
<totfact> 0.22129074E+04</totfact>
</mgrwt>
</event>
<event>
 6    1  0.1198667E-001  0.3000000E+03  0.7818608E-02  0.1093470E+00
         21   -1    0    0  501  502  0.00000000000E+00  0.00000000000E+00  0.90835952154E+01  0.90835952154E+01  0.00000000000E+00 0. -1.
         13   -1    0    0    0    0 -0.00000000000E+00 -0.00000000000E+00 -0.10000000000E+04  0.10000000000E+04  0.00000000000E+00 0.  1.
    9000005    2    1    2  501    0 -0.25608407512E+02 -0.88375501981E+02 -0.62554529958E+03  0.63230506026E+03  0.60619729761E+01 0.  0.
         13    1    3    3    0    0 -0.13470374628E+02 -0.53666433564E+02 -0.39071182649E+03  0.39461027412E+03  0.00000000000E+00 0.  1.
          3    1    3    3  501    0 -0.12138032884E+02 -0.34709068417E+02 -0.23483347310E+03  0.23769478614E+03  0.00000000000E+00 0.  1.
         -3    1    1    2    0  502  0.25608407512E+02  0.88375501981E+02 -0.36537110520E+03  0.37677853496E+03  0.00000000000E+00 0. -1.
<mgrwt>
<rscale>  1 0.30000000E+03</rscale>
<asrwt>0</asrwt>
<pdfrwt beam="1">  1       21 0.33031325E-01 0.30000000E+03</pdfrwt>
<pdfrwt beam="2">0</pdfrwt>
<totfact> 0.89548953E+02</totfact>
</mgrwt>
</event>
<event>
 6    1  0.1198667E-001  0.3000000E+03  0.7818608E-02  0.1093470E+00
         21   -1    0    0  501  502  0.00000000000E+00  0.00000000000E+00  0.26482812552E+01  0.26482812552E+01  0.00000000000E+00 0. -1.
         13   -1    0    0    0    0 -0.00000000000E+00 -0.00000000000E+00 -0.10000000000E+04  0.10000000000E+04  0.00000000000E+00 0.  1.
    9000005    2    1    2  501    0  0.18746878081E+02  0.23496929101E+02 -0.90486509908E+03  0.90539949755E+03  0.79907144304E+01 0.  0.
         13    1    3    3    0    0  0.17538515499E+02  0.20534472648E+02 -0.71917152427E+03  0.71967836247E+03  0.00000000000E+00 0.  1.
          3    1    3    3  501    0  0.12083625819E+01  0.29624564531E+01 -0.18569357482E+03  0.18572113508E+03  0.00000000000E+00 0.  1.
         -1    1    1    2    0  502 -0.18746878081E+02 -0.23496929101E+02 -0.92486619663E+02  0.97248783703E+02  0.00000000000E+00 0. -1.
<mgrwt>
<rscale>  1 0.30000000E+03</rscale>
<asrwt>0</asrwt>
<pdfrwt beam="1">  1       21 0.96301340E-02 0.30000000E+03</pdfrwt>
<pdfrwt beam="2">0</pdfrwt>
<totfact> 0.92018483E+03</totfact>
</mgrwt>
</event>
<event>
 6    1  0.1198667E-001  0.3000000E+03  0.7818608E-02  0.1093470E+00
         21   -1    0    0  501  502  0.00000000000E+00  0.00000000000E+00  0.10724379897E+02  0.10724379897E+02  0.00000000000E+00 0. -1.
         13   -1    0    0    0    0 -0.00000000000E+00 -0.00000000000E+00 -0.10000000000E+04  0.10000000000E+04  0.00000000000E+00 0.  1.
    9000005    2    1    2  501    0 -0.19345146921E+00 -0.77821527667E+02 -0.82798559855E+03  0.83164144200E+03  0.33330259154E+01 0.  0.
         13    1    3    3    0    0 -0.13587377645E+01 -0.62299747562E+02 -0.65632023455E+03  0.65927183695E+03  0.00000000000E+00 0.  1.
          3    1    3    3  501    0  0.11652862953E+01 -0.15521780105E+02 -0.17166536400E+03  0.17236960505E+03  0.00000000000E+00 0.  1.
         -1    1    1    2    0  502  0.19345146921E+00  0.77821527667E+02 -0.16129002156E+03  0.17908293790E+03  0.00000000000E+00 0. -1.
<mgrwt>
<rscale>  1 0.30000000E+03</rscale>
<asrwt>0</asrwt>
<pdfrwt beam="1">  1       21 0.38997827E-01 0.30000000E+03</pdfrwt>
<pdfrwt beam="2">0</pdfrwt>
<totfact> 0.63680030E+02</totfact>
</mgrwt>
</event>
<event>
 6    1  0.1198667E-001  0.3000000E+03  0.7818608E-02  0.1093470E+00
         21   -1    0    0  501  502  0.00000000000E+00  0.00000000000E+00  0.18942439872E+01  0.18942439872E+01  0.00000000000E+00 0. -1.
         13   -1    0    0    0    0 -0.00000000000E+00 -0.00000000000E+00 -0.10000000000E+04  0.10000000000E+04  0.00000000000E+00 0.  1.
    9000005    2    1    2  501    0 -0.91112139469E+01  0.33410976878E+02 -0.19814707491E+03  0.20118630780E+03  0.37894005754E+01 0.  0.
         13    1    3    3    0    0 -0.37023014367E+01  0.20592336811E+02 -0.11791533334E+03  0.11975715932E+03  0.00000000000E+00 0.  1.
          3    1    3    3  501    0 -0.54089125102E+01  0.12818640067E+02 -0.80231741568E+02  0.81429148483E+02  0.00000000000E+00 0.  1.
         -1    1    1    2    0  502  0.91112139469E+01 -0.33410976878E+02 -0.79995868111E+03  0.80070793619E+03  0.00000000000E+00 0. -1.
<mgrwt>
<rscale>  1 0.30000000E+03</rscale>
<asrwt>0</asrwt>
<pdfrwt beam="1">  1       21 0.68881745E-02 0.30000000E+03</pdfrwt>
<pdfrwt beam="2">0</pdfrwt>
<totfact> 0.16593601E+04</totfact>
</mgrwt>
</event>
<event>
 6    1  0.1198667E-001  0.3000000E+03  0.7818608E-02  0.1093470E+00
         21   -1    0    0  501  502  0.00000000000E+00  0.00000000000E+00  0.35217219992E+01  0.35217219992E+01  0.00000000000E+00 0. -1.
         13   -1    0    0    0    0 -0.00000000000E+00 -0.00000000000E+00 -0.10000000000E+04  0.10000000000E+04  0.00000000000E+00 0.  1.
    9000005    2    1    2  501    0  0.22758095691E+02  0.21368519964E+02 -0.92488643733E+03  0.92541963358E+03  0.34686728455E+01 0.  0.
         13    1    3    3    0    0  0.12533010446E+02  0.14069097085E+02 -0.54698549623E+03  0.54730992036E+03  0.00000000000E+00 0.  1.
          1    1    3    3  501    0  0.10225085244E+02  0.72994228797E+01 -0.37790094110E+03  0.37810971322E+03  0.00000000000E+00 0.  1.
         -1    1    1    2    0  502 -0.22758095691E+02 -0.21368519964E+02 -0.71591840669E+02  0.78102088418E+02  0.00000000000E+00 0. -1.
<mgrwt>
<rscale>  1 0.30000000E+03</rscale>
<asrwt>0</asrwt>
<pdfrwt beam="1">  1       21 0.12806289E-01 0.30000000E+03</pdfrwt>
<pdfrwt beam="2">0</pdfrwt>
<totfact> 0.55053300E+03</totfact>
</mgrwt>
</event>
<event>
 6    1  0.1198667E-001  0.3000000E+03  0.7818608E-02  0.1093470E+00
         21   -1    0    0  501  502  0.00000000000E+00  0.00000000000E+00  0.11164580134E+02  0.11164580134E+02  0.00000000000E+00 0. -1.
         13   -1    0    0    0    0 -0.00000000000E+00 -0.00000000000E+00 -0.10000000000E+04  0.10000000000E+04  0.00000000000E+00 0.  1.
    9000005    2    1    2  501    0 -0.10490939823E+03  0.10101269162E+02 -0.46017360975E+03  0.47209934573E+03  0.31660141506E+01 0.  0.
         13    1    3    3    0    0 -0.54465665901E+01  0.11813548414E+01 -0.25560700797E+02  0.26161233001E+02  0.00000000000E+00 0.  1.
          1    1    3    3  501    0 -0.99462831640E+02  0.89199143207E+01 -0.43461290896E+03  0.44593811272E+03  0.00000000000E+00 0.  1.
         -1    1    1    2    0  502  0.10490939823E+03 -0.10101269162E+02 -0.52866181011E+03  0.53906523441E+03  0.00000000000E+00 0. -1.
<mgrwt>
<rscale>  1 0.30000000E+03</rscale>
<asrwt>0</asrwt>
<pdfrwt beam="1">  1       21 0.40598559E-01 0.30000000E+03</pdfrwt>
<pdfrwt beam="2">0</pdfrwt>
<totfact> 0.58554848E+02</totfact>
</mgrwt>
</event>
<event>
 6    1  0.1198667E-001  0.3000000E+03  0.7818608E-02  0.1093470E+00
         21   -1    0    0  501  502  0.00000000000E+00  0.00000000000E+00  0.28765234264E+01  0.28765234264E+01  0.00000000000E+00 0. -1.
         13   -1    0    0    0    0 -0.00000000000E+00 -0.00000000000E+00 -0.10000000000E+04  0.10000000000E+04  0.00000000000E+00 0.  1.
    9000005    2    1    2  501    0 -0.27733478469E+02  0.43160549987E+02 -0.64314509364E+03  0.64519974967E+03  0.38892921022E+01 0.  0.
         13    1    3    3    0    0 -0.11364418512E+02  0.21243403487E+02 -0.30445269760E+03  0.30540444868E+03  0.00000000000E+00 0.  1.
          3    1    3    3  501    0 -0.16369059957E+02  0.21917146499E+02 -0.33869239604E+03  0.33979530099E+03  0.00000000000E+00 0.  1.
         -1    1    1    2    0  502  0.27733478469E+02 -0.43160549987E+02 -0.35397838293E+03  0.35767677376E+03  0.00000000000E+00 0. -1.
<mgrwt>
<rscale>  1 0.30000000E+03</rscale>
<asrwt>0</asrwt>
<pdfrwt beam="1">  1       21 0.10460107E-01 0.30000000E+03</pdfrwt>
<pdfrwt beam="2">0</pdfrwt>
<totfact> 0.79378407E+03</totfact>
</mgrwt>
</event>
<event>
 6    1  0.1198667E-001  0.3000000E+03  0.7818608E-02  0.1093470E+00
         21   -1    0    0  501  502  0.00000000000E+00  0.00000000000E+00  0.12958142313E+01  0.12958142313E+01  0.00000000000E+00 0. -1.
         13   -1    0    0    0    0 -0.00000000000E+00 -0.00000000000E+00 -0.10000000000E+04  0.10000000000E+04  0.00000000000E+00 0.  1.
    9000005    2    1    2  501    0  0.99121467183E+01 -0.31266256698E+02 -0.69734970120E+03  0.69816159506E+03  0.75615870224E+01 0.  0.
         13    1    3    3    0    0  0.10450670252E+02 -0.22370369829E+02 -0.49392460461E+03  0.49454136834E+03  0.00000000000E+00 0.  1.
          1    1    3    3  501    0 -0.53852353366E+00 -0.88958868684E+01 -0.20342509659E+03  0.20362022673E+03  0.00000000000E+00 0.  1.
         -1    1    1    2    0  502 -0.99121467183E+01  0.31266256698E+02 -0.30135448457E+03  0.30313421917E+03  0.00000000000E+00 0. -1.
<mgrwt>
<rscale>  1 0.30000000E+03</rscale>
<asrwt>0</asrwt>
<pdfrwt beam="1">  1       21 0.47120617E-02 0.30000000E+03</pdfrwt>
<pdfrwt beam="2">0</pdfrwt>
<totfact> 0.31865164E+04</totfact>
</mgrwt>
</event>
<event>
 6    1  0.1198667E-001  0.3000000E+03  0.7818608E-02  0.1093470E+00
         21   -1    0    0  501  502  0.00000000000E+00  0.00000000000E+00  0.31128997636E+01  0.31128997636E+01  0.00000000000E+00 0. -1.
         13   -1    0    0    0    0 -0.00000000000E+00 -0.00000000000E+00 -0.10000000000E+04  0.10000000000E+04  0.00000000000E+00 0.  1.
    9000005    2    1    2  501    0 -0.13939345240E+02 -0.34863938606E+02 -0.86922568522E+03  0.87004435936E+03  0.37544439526E+01 0.  0.
         13    1    3    3    0    0 -0.27872508663E+01 -0.45028085773E+01 -0.10241514786E+03  0.10255197006E+03  0.00000000000E+00 0.  1.
          1    1    3    3  501    0 -0.11152094373E+02 -0.30361130028E+02 -0.76681053736E+03  0.76749238930E+03  0.00000000000E+00 0.  1.
         -1    1    1    2    0  502  0.13939345240E+02  0.34863938606E+02 -0.12766141502E+03  0.13306854040E+03  0.00000000000E+00 0. -1.
<mgrwt>
<rscale>  1 0.30000000E+03</rscale>
<asrwt>0</asrwt>
<pdfrwt beam="1">  1       21 0.11319659E-01 0.30000000E+03</pdfrwt>
<pdfrwt beam="2">0</pdfrwt>
<totfact> 0.68872888E+03</totfact>
</mgrwt>
</event>
<event>
 6    1  0.1198667E-001  0.3000000E+03  0.7818608E-02  0.1093470E+00
         21   -1    0    0  501  502  0.00000000000E+00  0.00000000000E+00  0.93938986047E+00  0.93938986047E+00  0.00000000000E+00 0. -1.
         13   -1    0    0    0    0 -0.00000000000E+00 -0.00000000000E+00 -0.10000000000E+04  0.10000000000E+04  0.00000000000E+00 0.  1.
    9000005    2    1    2  501    0 -0.28311020536E+02  0.11293716943E+02 -0.46081163509E+03  0.46182806456E+03  0.29557154814E+01 0.  0.
         13    1    3    3    0    0 -0.27121307812E+02  0.10651217487E+02 -0.42949329744E+03  0.43048055277E+03  0.00000000000E+00 0.  1.
          3    1    3    3  501    0 -0.11897127245E+01  0.64249945525E+00 -0.31318337649E+02  0.31347511784E+02  0.00000000000E+00 0.  1.
         -3    1    1    2    0  502  0.28311020536E+02 -0.11293716943E+02 -0.53824897505E+03  0.53911132530E+03  0.00000000000E+00 0. -1.
<mgrwt>
<rscale>  1 0.30000000E+03</rscale>
<asrwt>0</asrwt>
<pdfrwt beam="1">  1       21 0.34159703E-02 0.30000000E+03</pdfrwt>
<pdfrwt beam="2">0</pdfrwt>
<totfact> 0.54800124E+04</totfact>
</mgrwt>
</event>
<event>
 6    1  0.1198667E-001  0.3000000E+03  0.7818608E-02  0.1093470E+00
         21   -1    0    0  501  502  0.00000000000E+00  0.00000000000E+00  0.27168302057E+01  0.27168302057E+01  0.00000000000E+00 0. -1.
         13   -1    0    0    0    0 -0.00000000000E+00 -0.00000000000E+00 -0.10000000000E+04  0.10000000000E+04  0.00000000000E+00 0.  1.
    9000005    2    1    2  501    0 -0.30608907673E+02  0.41015768183E+02 -0.40716287269E+03  0.41038148302E+03  0.34868670300E+01 0.  0.
         13    1    3    3    0    0 -0.17991134931E+02  0.22781240572E+02 -0.24301276440E+03  0.24474041251E+03  0.00000000000E+00 0.  1.
          3    1    3    3  501    0 -0.12617772742E+02  0.18234527612E+02 -0.16415010830E+03  0.16564107051E+03  0.00000000000E+00 0.  1.
         -3    1    1    2    0  502  0.30608907673E+02 -0.41015768183E+02 -0.59012029710E+03  0.59233534718E+03  0.00000000000E+00 0. -1.
<mgrwt>
<rscale>  1 0.30000000E+03</rscale>
<asrwt>0</asrwt>
<pdfrwt beam="1">  1       21 0.98794034E-02 0.30000000E+03</pdfrwt>
<pdfrwt beam="2">0</pdfrwt>
<totfact> 0.87916805E+03</totfact>
</mgrwt>
</event>
<event>
 6    1  0.1198667E-001  0.3000000E+03  0.7818608E-02  0.1093470E+00
         21   -1    0    0  501  502  0.00000000000E+00  0.00000000000E+00  0.19801730688E+01  0.19801730688E+01  0.00000000000E+00 0. -1.
         13   -1    0    0    0    0 -0.00000000000E+00 -0.00000000000E+00 -0.10000000000E+04  0.10000000000E+04  0.00000000000E+00 0.  1.
    9000005    2    1    2  501    0  0.36835386256E+02 -0.22254118083E+02 -0.37527133744E+03  0.37774642468E+03  0.34195335013E+01 0.  0.
         13    1    3    3    0    0  0.29271100106E+02 -0.18245776311E+02 -0.31122479940E+03  0.31313029463E+03  0.00000000000E+00 0.  1.
          3    1    3    3  501    0  0.75642861497E+01 -0.40083417718E+01 -0.64046538035E+02  0.64616130053E+02  0.00000000000E+00 0.  1.
         -1    1    1    2    0  502 -0.36835386256E+02  0.22254118083E+02 -0.62274848950E+03  0.62423374838E+03  0.00000000000E+00 0. -1.
<mgrwt>
<rscale>  1 0.30000000E+03</rscale>
<asrwt>0</asrwt>
<pdfrwt beam="1">  1       21 0.72006445E-02 0.30000000E+03</pdfrwt>
<pdfrwt beam="2">0</pdfrwt>
<totfact> 0.15360015E+04</totfact>
</mgrwt>
</event>
<event>
 6    1  0.1198667E-001  0.3000000E+03  0.7818608E-02  0.1093470E+00
         21   -1    0    0  501  502  0.00000000000E+00  0.00000000000E+00  0.30354009714E+01  0.30354009714E+01  0.00000000000E+00 0. -1.
         13   -1    0    0    0    0 -0.00000000000E+00 -0.00000000000E+00 -0.10000000000E+04  0.10000000000E+04  0.00000000000E+00 0.  1.
    9000005    2    1    2  501    0 -0.10982682610E+02 -0.37280733883E+02 -0.85381025511E+03  0.85469916595E+03  0.28705603111E+01 0.  0.
         13    1    3    3    0    0 -0.24494448101E+01 -0.49290140502E+01 -0.12692743909E+03  0.12704672272E+03  0.00000000000E+00 0.  1.
          1    1    3    3  501    0 -0.85332377995E+01 -0.32351719833E+02 -0.72688281602E+03  0.72765244323E+03  0.00000000000E+00 0.  1.
         -1    1    1    2    0  502  0.10982682610E+02  0.37280733883E+02 -0.14315434392E+03  0.14833623502E+03  0.00000000000E+00 0. -1.
<mgrwt>
<rscale>  1 0.30000000E+03</rscale>
<asrwt>0</asrwt>
<pdfrwt beam="1">  1       21 0.11037845E-01 0.30000000E+03</pdfrwt>
<pdfrwt beam="2">0</pdfrwt>
<totfact> 0.72073426E+03</totfact>
</mgrwt>
</event>
<event>
 6    1  0.1198667E-001  0.3000000E+03  0.7818608E-02  0.1093470E+00
         21   -1    0    0  501  502  0.00000000000E+00  0.00000000000E+00  0.25222954619E+01  0.25222954619E+01  0.00000000000E+00 0. -1.
         13   -1    0    0    0    0 -0.00000000000E+00 -0.00000000000E+00 -0.10000000000E+04  0.10000000000E+04  0.00000000000E+00 0.  1.
    9000005    2    1    2  501    0 -0.27578550285E+02 -0.17166722900E+02 -0.88084093764E+03  0.88144625240E+03  0.33860947369E+01 0.  0.
         13    1    3    3    0    0 -0.25653346853E+02 -0.16009331410E+02 -0.83938052858E+03  0.83992503514E+03  0.00000000000E+00 0.  1.
          1    1    3    3  501    0 -0.19252034321E+01 -0.11573914896E+01 -0.41460409064E+02  0.41521217264E+02  0.00000000000E+00 0.  1.
         -1    1    1    2    0  502  0.27578550285E+02  0.17166722900E+02 -0.11663676690E+03  0.12107604306E+03  0.00000000000E+00 0. -1.
<mgrwt>
<rscale>  1 0.30000000E+03</rscale>
<asrwt>0</asrwt>
<pdfrwt beam="1">  1       21 0.91720028E-02 0.30000000E+03</pdfrwt>
<pdfrwt beam="2">0</pdfrwt>
<totfact> 0.10035489E+04</totfact>
</mgrwt>
</event>
<event>
 6    1  0.1198667E-001  0.3000000E+03  0.7818608E-02  0.1093470E+00
         21   -1    0    0  501  502  0.00000000000E+00  0.00000000000E+00  0.15779297360E+01  0.15779297360E+01  0.00000000000E+00 0. -1.
         13   -1    0    0    0    0 -0.00000000000E+00 -0.00000000000E+00 -0.10000000000E+04  0.10000000000E+04  0.00000000000E+00 0.  1.
    9000005    2    1    2  501    0  0.29791714702E+02  0.20852831753E+02 -0.69988391614E+03  0.70083316033E+03  0.26899238700E+01 0.  0.
         13    1    3    3    0    0  0.26135354556E+02  0.18917318232E+02 -0.60622838305E+03  0.60708629873E+03  0.00000000000E+00 0.  1.
          3    1    3    3  501    0  0.36563601466E+01  0.19355135212E+01 -0.93655533089E+02  0.93746861602E+02  0.00000000000E+00 0.  1.
         -1    1    1    2    0  502 -0.29791714702E+02 -0.20852831753E+02 -0.29853815412E+03  0.30074476940E+03  0.00000000000E+00 0. -1.
<mgrwt>
<rscale>  1 0.30000000E+03</rscale>
<asrwt>0</asrwt>
<pdfrwt beam="1">  1       21 0.57379384E-02 0.30000000E+03</pdfrwt>
<pdfrwt beam="2">0</pdfrwt>
<totfact> 0.22757108E+04</totfact>
</mgrwt>
</event>
<event>
 6    1  0.1198667E-001  0.3000000E+03  0.7818608E-02  0.1093470E+00
         21   -1    0    0  501  502  0.00000000000E+00  0.00000000000E+00  0.13327453164E+01  0.13327453164E+01  0.00000000000E+00 0. -1.
         13   -1    0    0    0    0 -0.00000000000E+00 -0.00000000000E+00 -0.10000000000E+04  0.10000000000E+04  0.00000000000E+00 0.  1.
    9000005    2    1    2  501    0  0.26692396810E+02  0.15066432408E+02 -0.77061046460E+03  0.77122542050E+03  0.29461219371E+01 0.  0.
         13    1    3    3    0    0  0.16299711161E+01  0.10836543992E+01 -0.34228538511E+02  0.34284456555E+02  0.00000000000E+00 0.  1.
          3    1    3    3  501    0  0.25062425694E+02  0.13982778009E+02 -0.73638192609E+03  0.73694096394E+03  0.00000000000E+00 0.  1.
         -3    1    1    2    0  502 -0.26692396810E+02 -0.15066432408E+02 -0.22805679008E+03  0.23010732482E+03  0.00000000000E+00 0. -1.
<mgrwt>
<rscale>  1 0.30000000E+03</rscale>
<asrwt>0</asrwt>
<pdfrwt beam="1">  1       21 0.48463568E-02 0.30000000E+03</pdfrwt>
<pdfrwt beam="2">0</pdfrwt>
<totfact> 0.30377542E+04</totfact>
</mgrwt>
</event>
<event>
 6    1  0.1198667E-001  0.3000000E+03  0.7818608E-02  0.1093470E+00
         21   -1    0    0  501  502  0.00000000000E+00  0.00000000000E+00  0.17967755234E+01  0.17967755234E+01  0.00000000000E+00 0. -1.
         13   -1    0    0    0    0 -0.00000000000E+00 -0.00000000000E+00 -0.10000000000E+04  0.10000000000E+04  0.00000000000E+00 0.  1.
    9000005    2    1    2  501    0 -0.20876935238E+02 -0.26010839391E+02 -0.19058505560E+03  0.19349020194E+03  0.18397390584E+01 0.  0.
         13    1    3    3    0    0 -0.12621536464E+02 -0.15510181127E+02 -0.11936881155E+03  0.12103215305E+03  0.00000000000E+00 0.  1.
          3    1    3    3  501    0 -0.82553987744E+01 -0.10500658263E+02 -0.71216244045E+02  0.72458048889E+02  0.00000000000E+00 0.  1.
         -1    1    1    2    0  502  0.20876935238E+02  0.26010839391E+02 -0.80761816888E+03  0.80830657358E+03  0.00000000000E+00 0. -1.
<mgrwt>
<rscale>  1 0.30000000E+03</rscale>
<asrwt>0</asrwt>
<pdfrwt beam="1">  1       21 0.65337430E-02 0.30000000E+03</pdfrwt>
<pdfrwt beam="2">0</pdfrwt>
<totfact> 0.18186251E+04</totfact>
</mgrwt>
</event>
<event>
 6    1  0.1198667E-001  0.3000000E+03  0.7818608E-02  0.1093470E+00
         21   -1    0    0  501  502  0.00000000000E+00  0.00000000000E+00  0.47629076058E+01  0.47629076058E+01  0.00000000000E+00 0. -1.
         13   -1    0    0    0    0 -0.00000000000E+00 -0.00000000000E+00 -0.10000000000E+04  0.10000000000E+04  0.00000000000E+00 0.  1.
    9000005    2    1    2  501    0 -0.61238889998E+01 -0.47591099357E+02 -0.85858496535E+03  0.85993121708E+03  0.33377584397E+01 0.  0.
         13    1    3    3    0    0 -0.63514608715E+01 -0.45488492407E+02 -0.81143625028E+03  0.81273509354E+03  0.00000000000E+00 0.  1.
          1    1    3    3  501    0  0.22757187169E+00 -0.21026069494E+01 -0.47148715067E+02  0.47196123542E+02  0.00000000000E+00 0.  1.
         -1    1    1    2    0  502  0.61238889998E+01  0.47591099357E+02 -0.13665212704E+03  0.14483169052E+03  0.00000000000E+00 0. -1.
<mgrwt>
<rscale>  1 0.30000000E+03</rscale>
<asrwt>0</asrwt>
<pdfrwt beam="1">  1       21 0.17319701E-01 0.30000000E+03</pdfrwt>
<pdfrwt beam="2">0</pdfrwt>
<totfact> 0.31495791E+03</totfact>
</mgrwt>
</event>
<event>
 6    1  0.1198667E-001  0.3000000E+03  0.7818608E-02  0.1093470E+00
         21   -1    0    0  501  502  0.00000000000E+00  0.00000000000E+00  0.15104459413E+01  0.15104459413E+01  0.00000000000E+00 0. -1.
         13   -1    0    0    0    0 -0.00000000000E+00 -0.00000000000E+00 -0.10000000000E+04  0.10000000000E+04  0.00000000000E+00 0.  1.
    9000005    2    1    2  501    0 -0.35532591135E+02 -0.13892149252E+02 -0.40824987781E+03  0.41003903305E+03  0.29135979528E+01 0.  0.
         13    1    3    3    0    0 -0.34541041621E+02 -0.13987132684E+02 -0.39709581408E+03  0.39884058093E+03  0.00000000000E+00 0.  1.
          3    1    3    3  501    0 -0.99154951442E+00  0.94983432141E-01 -0.11154063733E+02  0.11198452127E+02  0.00000000000E+00 0.  1.
         -1    1    1    2    0  502  0.35532591135E+02  0.13892149252E+02 -0.59023967625E+03  0.59147141289E+03  0.00000000000E+00 0. -1.
<mgrwt>
<rscale>  1 0.30000000E+03</rscale>
<asrwt>0</asrwt>
<pdfrwt beam="1">  1       21 0.54925423E-02 0.30000000E+03</pdfrwt>
<pdfrwt beam="2">0</pdfrwt>
<totfact> 0.24531154E+04</totfact>
</mgrwt>
</event>
<event>
 6    1  0.1198667E-001  0.3000000E+03  0.7818608E-02  0.1093470E+00
         21   -1    0    0  501  502  0.00000000000E+00  0.00000000000E+00  0.15332224482E+01  0.15332224482E+01  0.00000000000E+00 0. -1.
         13   -1    0    0    0    0 -0.00000000000E+00 -0.00000000000E+00 -0.10000000000E+04  0.10000000000E+04  0.00000000000E+00 0.  1.
    9000005    2    1    2  501    0 -0.22014501680E+02  0.22901219679E+02 -0.78999550856E+03  0.79065559409E+03  0.58532703303E+01 0.  0.
         13    1    3    3    0    0 -0.90541794509E+01  0.10454954846E+02 -0.27634110033E+03  0.27668698556E+03  0.00000000000E+00 0.  1.
          3    1    3    3  501    0 -0.12960322229E+02  0.12446264833E+02 -0.51365440823E+03  0.51396860853E+03  0.00000000000E+00 0.  1.
         -1    1    1    2    0  502  0.22014501680E+02 -0.22901219679E+02 -0.20847126899E+03  0.21087762836E+03  0.00000000000E+00 0. -1.
<mgrwt>
<rscale>  1 0.30000000E+03</rscale>
<asrwt>0</asrwt>
<pdfrwt beam="1">  1       21 0.55753661E-02 0.30000000E+03</pdfrwt>
<pdfrwt beam="2">0</pdfrwt>
<totfact> 0.23909334E+04</totfact>
</mgrwt>
</event>
<event>
 6    1  0.1198667E-001  0.3000000E+03  0.7818608E-02  0.1093470E+00
         21   -1    0    0  501  502  0.00000000000E+00  0.00000000000E+00  0.20823396494E+01  0.20823396494E+01  0.00000000000E+00 0. -1.
         13   -1    0    0    0    0 -0.00000000000E+00 -0.00000000000E+00 -0.10000000000E+04  0.10000000000E+04  0.00000000000E+00 0.  1.
    9000005    2    1    2  501    0 -0.82024197657E+01 -0.31770255377E+02 -0.84686793583E+03  0.84750987091E+03  0.33244132647E+01 0.  0.
         13    1    3    3    0    0 -0.61348946024E+01 -0.21845284467E+02 -0.62138232052E+03  0.62179646319E+03  0.00000000000E+00 0.  1.
          1    1    3    3  501    0 -0.20675251633E+01 -0.99249709100E+01 -0.22548561532E+03  0.22571340772E+03  0.00000000000E+00 0.  1.
         -1    1    1    2    0  502  0.82024197657E+01  0.31770255377E+02 -0.15104972452E+03  0.15457246874E+03  0.00000000000E+00 0. -1.
<mgrwt>
<rscale>  1 0.30000000E+03</rscale>
<asrwt>0</asrwt>
<pdfrwt beam="1">  1       21 0.75721601E-02 0.30000000E+03</pdfrwt>
<pdfrwt beam="2">0</pdfrwt>
<totfact> 0.14066596E+04</totfact>
</mgrwt>
</event>
<event>
 6    1  0.1198667E-001  0.3000000E+03  0.7818608E-02  0.1093470E+00
         21   -1    0    0  501  502  0.00000000000E+00  0.00000000000E+00  0.11840578040E+01  0.11840578040E+01  0.00000000000E+00 0. -1.
         13   -1    0    0    0    0 -0.00000000000E+00 -0.00000000000E+00 -0.10000000000E+04  0.10000000000E+04  0.00000000000E+00 0.  1.
    9000005    2    1    2  501    0 -0.20065046313E+02 -0.22805034732E+02 -0.73320013713E+03  0.73383703315E+03  0.34167874136E+01 0.  0.
         13    1    3    3    0    0 -0.59619442198E+01 -0.48648401628E+01 -0.20416332024E+03  0.20430827878E+03  0.00000000000E+00 0.  1.
          1    1    3    3  501    0 -0.14103102094E+02 -0.17940194569E+02 -0.52903681689E+03  0.52952875437E+03  0.00000000000E+00 0.  1.
         -1    1    1    2    0  502  0.20065046313E+02  0.22805034732E+02 -0.26561580507E+03  0.26734702466E+03  0.00000000000E+00 0. -1.
<mgrwt>
<rscale>  1 0.30000000E+03</rscale>
<asrwt>0</asrwt>
<pdfrwt beam="1">  1       21 0.43056738E-02 0.30000000E+03</pdfrwt>
<pdfrwt beam="2">0</pdfrwt>
<totfact> 0.37133837E+04</totfact>
</mgrwt>
</event>
<event>
 6    1  0.1198667E-001  0.3000000E+03  0.7818608E-02  0.1093470E+00
         21   -1    0    0  501  502  0.00000000000E+00  0.00000000000E+00  0.24448422293E+01  0.24448422293E+01  0.00000000000E+00 0. -1.
         13   -1    0    0    0    0 -0.00000000000E+00 -0.00000000000E+00 -0.10000000000E+04  0.10000000000E+04  0.00000000000E+00 0.  1.
    9000005    2    1    2  501    0  0.40788172534E+02  0.15010283625E+02 -0.73689621776E+03  0.73818726592E+03  0.39268529010E+01 0.  0.
         13    1    3    3    0    0  0.22189909050E+02  0.95373123504E+01 -0.38377526462E+03  0.38453453177E+03  0.00000000000E+00 0.  1.
          1    1    3    3  501    0  0.18598263484E+02  0.54729712747E+01 -0.35312095314E+03  0.35365273414E+03  0.00000000000E+00 0.  1.
         -3    1    1    2    0  502 -0.40788172534E+02 -0.15010283625E+02 -0.26065894001E+03  0.26425757631E+03  0.00000000000E+00 0. -1.
<mgrwt>
<rscale>  1 0.30000000E+03</rscale>
<asrwt>0</asrwt>
<pdfrwt beam="1">  1       21 0.88903541E-02 0.30000000E+03</pdfrwt>
<pdfrwt beam="2">0</pdfrwt>
<totfact> 0.10605803E+04</totfact>
</mgrwt>
</event>
<event>
 6    1  0.1198667E-001  0.3000000E+03  0.7818608E-02  0.1093470E+00
         21   -1    0    0  501  502  0.00000000000E+00  0.00000000000E+00  0.10997735235E+01  0.10997735235E+01  0.00000000000E+00 0. -1.
         13   -1    0    0    0    0 -0.00000000000E+00 -0.00000000000E+00 -0.10000000000E+04  0.10000000000E+04  0.00000000000E+00 0.  1.
    9000005    2    1    2  501    0 -0.25735587460E+01 -0.32065679416E+02 -0.61001611711E+03  0.61088741913E+03  0.53800297532E+01 0.  0.
         13    1    3    3    0    0 -0.29292728863E-01 -0.21172077013E+02 -0.36124165160E+03  0.36186155993E+03  0.00000000000E+00 0.  1.
          1    1    3    3  501    0 -0.25442660171E+01 -0.10893602404E+02 -0.24877446550E+03  0.24902585920E+03  0.00000000000E+00 0.  1.
         -1    1    1    2    0  502  0.25735587460E+01  0.32065679416E+02 -0.38888410937E+03  0.39021235439E+03  0.00000000000E+00 0. -1.
<mgrwt>
<rscale>  1 0.30000000E+03</rscale>
<asrwt>0</asrwt>
<pdfrwt beam="1">  1       21 0.39991849E-02 0.30000000E+03</pdfrwt>
<pdfrwt beam="2">0</pdfrwt>
<totfact> 0.42061757E+04</totfact>
</mgrwt>
</event>
<event>
 6    1  0.1198667E-001  0.3000000E+03  0.7818608E-02  0.1093470E+00
         21   -1    0    0  501  502  0.00000000000E+00  0.00000000000E+00  0.15659679473E+01  0.15659679473E+01  0.00000000000E+00 0. -1.
         13   -1    0    0    0    0 -0.00000000000E+00 -0.00000000000E+00 -0.10000000000E+04  0.10000000000E+04  0.00000000000E+00 0.  1.
    9000005    2    1    2  501    0 -0.28475760698E+02 -0.25833243063E+02 -0.38365915817E+03  0.38559001796E+03  0.26621260069E+01 0.  0.
         13    1    3    3    0    0 -0.18983552016E+02 -0.17422546572E+02 -0.26924037758E+03  0.27047051835E+03  0.00000000000E+00 0.  1.
          3    1    3    3  501    0 -0.94922086826E+01 -0.84106964911E+01 -0.11441878058E+03  0.11511949961E+03  0.00000000000E+00 0.  1.
         -3    1    1    2    0  502  0.28475760698E+02  0.25833243063E+02 -0.61477487389E+03  0.61597594998E+03  0.00000000000E+00 0. -1.
<mgrwt>
<rscale>  1 0.30000000E+03</rscale>
<asrwt>0</asrwt>
<pdfrwt beam="1">  1       21 0.56944409E-02 0.30000000E+03</pdfrwt>
<pdfrwt beam="2">0</pdfrwt>
<totfact> 0.23056912E+04</totfact>
</mgrwt>
</event>
<event>
 6    1  0.1198667E-001  0.3000000E+03  0.7818608E-02  0.1093470E+00
         21   -1    0    0  501  502  0.00000000000E+00  0.00000000000E+00  0.53686847485E+01  0.53686847485E+01  0.00000000000E+00 0. -1.
         13   -1    0    0    0    0 -0.00000000000E+00 -0.00000000000E+00 -0.10000000000E+04  0.10000000000E+04  0.00000000000E+00 0.  1.
    9000005    2    1    2  501    0  0.44190773459E+02 -0.10360580197E+02 -0.89188571737E+03  0.89304404825E+03  0.27153604061E+01 0.  0.
         13    1    3    3    0    0  0.15635211469E+02 -0.29634386119E+01 -0.29127155765E+03  0.29170595144E+03  0.00000000000E+00 0.  1.
          1    1    3    3  501    0  0.28555561990E+02 -0.73971415849E+01 -0.60061415972E+03  0.60133809681E+03  0.00000000000E+00 0.  1.
         -3    1    1    2    0  502 -0.44190773459E+02  0.10360580197E+02 -0.10274559788E+03  0.11232463650E+03  0.00000000000E+00 0. -1.
<mgrwt>
<rscale>  1 0.30000000E+03</rscale>
<asrwt>0</asrwt>
<pdfrwt beam="1">  1       21 0.19522531E-01 0.30000000E+03</pdfrwt>
<pdfrwt beam="2">0</pdfrwt>
<totfact> 0.25122777E+03</totfact>
</mgrwt>
</event>
<event>
 6    1  0.1198667E-001  0.3000000E+03  0.7818608E-02  0.1093470E+00
         21   -1    0    0  501  502  0.00000000000E+00  0.00000000000E+00  0.10542174641E+01  0.10542174641E+01  0.00000000000E+00 0. -1.
         13   -1    0    0    0    0 -0.00000000000E+00 -0.00000000000E+00 -0.10000000000E+04  0.10000000000E+04  0.00000000000E+00 0.  1.
    9000005    2    1    2  501    0 -0.13428285033E+02 -0.27654288735E+02 -0.65672121527E+03  0.65745163749E+03  0.38500037241E+01 0.  0.
         13    1    3    3    0    0 -0.47871490925E+01 -0.65028012408E+01 -0.18989098906E+03  0.19006259745E+03  0.00000000000E+00 0.  1.
          3    1    3    3  501    0 -0.86411359407E+01 -0.21151487494E+02 -0.46683022621E+03  0.46738904005E+03  0.00000000000E+00 0.  1.
         -3    1    1    2    0  502  0.13428285033E+02  0.27654288735E+02 -0.34222456726E+03  0.34360257997E+03  0.00000000000E+00 0. -1.
<mgrwt>
<rscale>  1 0.30000000E+03</rscale>
<asrwt>0</asrwt>
<pdfrwt beam="1">  1       21 0.38335261E-02 0.30000000E+03</pdfrwt>
<pdfrwt beam="2">0</pdfrwt>
<totfact> 0.45164466E+04</totfact>
</mgrwt>
</event>
<event>
 6    1  0.1198667E-001  0.3000000E+03  0.7818608E-02  0.1093470E+00
         21   -1    0    0  501  502  0.00000000000E+00  0.00000000000E+00  0.45728160524E+01  0.45728160524E+01  0.00000000000E+00 0. -1.
         13   -1    0    0    0    0 -0.00000000000E+00 -0.00000000000E+00 -0.10000000000E+04  0.10000000000E+04  0.00000000000E+00 0.  1.
    9000005    2    1    2  501    0 -0.42191037125E+02 -0.46018462178E+02 -0.68951547066E+03  0.69235532967E+03  0.51512883130E+01 0.  0.
         13    1    3    3    0    0 -0.23210493728E+02 -0.21510384994E+02 -0.34983512134E+03  0.35126348487E+03  0.00000000000E+00 0.  1.
          1    1    3    3  501    0 -0.18980543397E+02 -0.24508077184E+02 -0.33968034932E+03  0.34109184480E+03  0.00000000000E+00 0.  1.
         -3    1    1    2    0  502  0.42191037125E+02  0.46018462178E+02 -0.30591171329E+03  0.31221748638E+03  0.00000000000E+00 0. -1.
<mgrwt>
<rscale>  1 0.30000000E+03</rscale>
<asrwt>0</asrwt>
<pdfrwt beam="1">  1       21 0.16628457E-01 0.30000000E+03</pdfrwt>
<pdfrwt beam="2">0</pdfrwt>
<totfact> 0.33992078E+03</totfact>
</mgrwt>
</event>
<event>
 6    1  0.1198667E-001  0.3000000E+03  0.7818608E-02  0.1093470E+00
         21   -1    0    0  501  502  0.00000000000E+00  0.00000000000E+00  0.28524337020E+01  0.28524337020E+01  0.00000000000E+00 0. -1.
         13   -1    0    0    0    0 -0.00000000000E+00 -0.00000000000E+00 -0.10000000000E+04  0.10000000000E+04  0.00000000000E+00 0.  1.
    9000005    2    1    2  501    0 -0.29699735323E+02  0.12702718787E+02 -0.89776442144E+03  0.89835151110E+03  0.33238154240E+01 0.  0.
         13    1    3    3    0    0 -0.55219141944E+01  0.27746472886E+01 -0.20904069076E+03  0.20913201715E+03  0.00000000000E+00 0.  1.
          3    1    3    3  501    0 -0.24177821129E+02  0.99280714979E+01 -0.68872373069E+03  0.68921949395E+03  0.00000000000E+00 0.  1.
         -1    1    1    2    0  502  0.29699735323E+02 -0.12702718787E+02 -0.99383144858E+02  0.10450092260E+03  0.00000000000E+00 0. -1.
<mgrwt>
<rscale>  1 0.30000000E+03</rscale>
<asrwt>0</asrwt>
<pdfrwt beam="1">  1       21 0.10372508E-01 0.30000000E+03</pdfrwt>
<pdfrwt beam="2">0</pdfrwt>
<totfact> 0.80583429E+03</totfact>
</mgrwt>
</event>
<event>
 6    1  0.1198667E-001  0.3000000E+03  0.7818608E-02  0.1093470E+00
         21   -1    0    0  501  502  0.00000000000E+00  0.00000000000E+00  0.57954126351E+01  0.57954126351E+01  0.00000000000E+00 0. -1.
         13   -1    0    0    0    0 -0.00000000000E+00 -0.00000000000E+00 -0.10000000000E+04  0.10000000000E+04  0.00000000000E+00 0.  1.
    9000005    2    1    2  501    0  0.36473709726E+02  0.61530619118E+02 -0.66906865023E+03  0.67288442422E+03  0.20593806015E+01 0.  0.
         13    1    3    3    0    0  0.27860811997E+02  0.46540194449E+02 -0.51521748219E+03  0.51806492692E+03  0.00000000000E+00 0.  1.
          3    1    3    3  501    0  0.86128977285E+01  0.14990424669E+02 -0.15385116803E+03  0.15481949730E+03  0.00000000000E+00 0.  1.
         -3    1    1    2    0  502 -0.36473709726E+02 -0.61530619118E+02 -0.32513593714E+03  0.33291098842E+03  0.00000000000E+00 0. -1.
<mgrwt>
<rscale>  1 0.30000000E+03</rscale>
<asrwt>0</asrwt>
<pdfrwt beam="1">  1       21 0.21074272E-01 0.30000000E+03</pdfrwt>
<pdfrwt beam="2">0</pdfrwt>
<totfact> 0.21706803E+03</totfact>
</mgrwt>
</event>
<event>
 6    1  0.1198667E-001  0.3000000E+03  0.7818608E-02  0.1093470E+00
         21   -1    0    0  501  502  0.00000000000E+00  0.00000000000E+00  0.56579334697E+01  0.56579334697E+01  0.00000000000E+00 0. -1.
         13   -1    0    0    0    0 -0.00000000000E+00 -0.00000000000E+00 -0.10000000000E+04  0.10000000000E+04  0.00000000000E+00 0.  1.
    9000005    2    1    2  501    0  0.61624886044E+02  0.27399280203E+02 -0.27530862123E+03  0.28346859362E+03  0.33555191083E+01 0.  0.
         13    1    3    3    0    0  0.43551610144E+02  0.19166598258E+02 -0.18772228681E+03  0.19365887070E+03  0.00000000000E+00 0.  1.
          1    1    3    3  501    0  0.18073275900E+02  0.82326819451E+01 -0.87586334414E+02  0.89809722914E+02  0.00000000000E+00 0.  1.
         -1    1    1    2    0  502 -0.61624886044E+02 -0.27399280203E+02 -0.71903344530E+03  0.72218933985E+03  0.00000000000E+00 0. -1.
<mgrwt>
<rscale>  1 0.30000000E+03</rscale>
<asrwt>0</asrwt>
<pdfrwt beam="1">  1       21 0.20574347E-01 0.30000000E+03</pdfrwt>
<pdfrwt beam="2">0</pdfrwt>
<totfact> 0.22728344E+03</totfact>
</mgrwt>
</event>
<event>
 6    1  0.1198667E-001  0.3000000E+03  0.7818608E-02  0.1093470E+00
         21   -1    0    0  501  502  0.00000000000E+00  0.00000000000E+00  0.22635271323E+01  0.22635271323E+01  0.00000000000E+00 0. -1.
         13   -1    0    0    0    0 -0.00000000000E+00 -0.00000000000E+00 -0.10000000000E+04  0.10000000000E+04  0.00000000000E+00 0.  1.
    9000005    2    1    2  501    0 -0.21597553369E+02  0.40174966984E+02 -0.35865365994E+03  0.36155507232E+03  0.30232847931E+01 0.  0.
         13    1    3    3    0    0 -0.95995087506E+01  0.14888371914E+02 -0.13554927681E+03  0.13670194084E+03  0.00000000000E+00 0.  1.
          3    1    3    3  501    0 -0.11998044619E+02  0.25286595070E+02 -0.22310438313E+03  0.22485313148E+03  0.00000000000E+00 0.  1.
         -1    1    1    2    0  502  0.21597553369E+02 -0.40174966984E+02 -0.63908281293E+03  0.64070845481E+03  0.00000000000E+00 0. -1.
<mgrwt>
<rscale>  1 0.30000000E+03</rscale>
<asrwt>0</asrwt>
<pdfrwt beam="1">  1       21 0.82310251E-02 0.30000000E+03</pdfrwt>
<pdfrwt beam="2">0</pdfrwt>
<totfact> 0.12150310E+04</totfact>
</mgrwt>
</event>
<event>
 6    1  0.1198667E-001  0.3000000E+03  0.7818608E-02  0.1093470E+00
         21   -1    0    0  501  502  0.00000000000E+00  0.00000000000E+00  0.14676300496E+01  0.14676300496E+01  0.00000000000E+00 0. -1.
         13   -1    0    0    0    0 -0.00000000000E+00 -0.00000000000E+00 -0.10000000000E+04  0.10000000000E+04  0.00000000000E+00 0.  1.
    9000005    2    1    2  501    0 -0.89844661530E+01  0.34230725589E+02 -0.68900742466E+03  0.68992605183E+03  0.37765780953E+01 0.  0.
         13    1    3    3    0    0 -0.90858508656E+01  0.33909474374E+02 -0.68637246732E+03  0.68726964798E+03  0.00000000000E+00 0.  1.
          1    1    3    3  501    0  0.10138471263E+00  0.32125121429E+00 -0.26349573442E+01  0.26564038489E+01  0.00000000000E+00 0.  1.
         -3    1    1    2    0  502  0.89844661530E+01 -0.34230725589E+02 -0.30952494529E+03  0.31154157822E+03  0.00000000000E+00 0. -1.
<mgrwt>
<rscale>  1 0.30000000E+03</rscale>
<asrwt>0</asrwt>
<pdfrwt beam="1">  1       21 0.53368478E-02 0.30000000E+03</pdfrwt>
<pdfrwt beam="2">0</pdfrwt>
<totfact> 0.25769616E+04</totfact>
</mgrwt>
</event>
<event>
 6    1  0.1198667E-001  0.3000000E+03  0.7818608E-02  0.1093470E+00
         21   -1    0    0  501  502  0.00000000000E+00  0.00000000000E+00  0.14734783228E+01  0.14734783228E+01  0.00000000000E+00 0. -1.
         13   -1    0    0    0    0 -0.00000000000E+00 -0.00000000000E+00 -0.10000000000E+04  0.10000000000E+04  0.00000000000E+00 0.  1.
    9000005    2    1    2  501    0 -0.31816355421E+02 -0.31157767890E+01 -0.77565049783E+03  0.77631639861E+03  0.33863601267E+01 0.  0.
         13    1    3    3    0    0 -0.33880139912E+00 -0.18714426958E+00 -0.21638567170E+02  0.21642028522E+02  0.00000000000E+00 0.  1.
          3    1    3    3  501    0 -0.31477554022E+02 -0.29286325194E+01 -0.75401193066E+03  0.75467437009E+03  0.00000000000E+00 0.  1.
         -1    1    1    2    0  502  0.31816355421E+02  0.31157767890E+01 -0.22287602385E+03  0.22515707971E+03  0.00000000000E+00 0. -1.
<mgrwt>
<rscale>  1 0.30000000E+03</rscale>
<asrwt>0</asrwt>
<pdfrwt beam="1">  1       21 0.53581143E-02 0.30000000E+03</pdfrwt>
<pdfrwt beam="2">0</pdfrwt>
<totfact> 0.25594830E+04</totfact>
</mgrwt>
</event>
<event>
 6    1  0.1198667E-001  0.3000000E+03  0.7818608E-02  0.1093470E+00
         21   -1    0    0  501  502  0.00000000000E+00  0.00000000000E+00  0.13461117078E+01  0.13461117078E+01  0.00000000000E+00 0. -1.
         13   -1    0    0    0    0 -0.00000000000E+00 -0.00000000000E+00 -0.10000000000E+04  0.10000000000E+04  0.00000000000E+00 0.  1.
    9000005    2    1    2  501    0 -0.58205799464E+01 -0.34372046576E+02 -0.65305379700E+03  0.65399220021E+03  0.33495392291E+01 0.  0.
         13    1    3    3    0    0  0.16059884039E+00 -0.18843681161E+01 -0.48104225915E+02  0.48141387455E+02  0.00000000000E+00 0.  1.
          3    1    3    3  501    0 -0.59811787868E+01 -0.32487678460E+02 -0.60494957109E+03  0.60585081275E+03  0.00000000000E+00 0.  1.
         -1    1    1    2    0  502  0.58205799464E+01  0.34372046576E+02 -0.34560009129E+03  0.34735391150E+03  0.00000000000E+00 0. -1.
<mgrwt>
<rscale>  1 0.30000000E+03</rscale>
<asrwt>0</asrwt>
<pdfrwt beam="1">  1       21 0.48949620E-02 0.30000000E+03</pdfrwt>
<pdfrwt beam="2">0</pdfrwt>
<totfact> 0.29865751E+04</totfact>
</mgrwt>
</event>
<event>
 6    1  0.1198667E-001  0.3000000E+03  0.7818608E-02  0.1093470E+00
         21   -1    0    0  501  502  0.00000000000E+00  0.00000000000E+00  0.19282066567E+01  0.19282066567E+01  0.00000000000E+00 0. -1.
         13   -1    0    0    0    0 -0.00000000000E+00 -0.00000000000E+00 -0.10000000000E+04  0.10000000000E+04  0.00000000000E+00 0.  1.
    9000005    2    1    2  501    0  0.11760288783E+01 -0.39987398489E+02 -0.70403513827E+03  0.70518264290E+03  0.40876458514E+01 0.  0.
         13    1    3    3    0    0 -0.69424995105E+00 -0.26946628400E+02 -0.45110995458E+03  0.45191458694E+03  0.00000000000E+00 0.  1.
          1    1    3    3  501    0  0.18702788293E+01 -0.13040770089E+02 -0.25292518368E+03  0.25326805596E+03  0.00000000000E+00 0.  1.
         -1    1    1    2    0  502 -0.11760288783E+01  0.39987398489E+02 -0.29403665508E+03  0.29674556376E+03  0.00000000000E+00 0. -1.
<mgrwt>
<rscale>  1 0.30000000E+03</rscale>
<asrwt>0</asrwt>
<pdfrwt beam="1">  1       21 0.70116754E-02 0.30000000E+03</pdfrwt>
<pdfrwt beam="2">0</pdfrwt>
<totfact> 0.16088554E+04</totfact>
</mgrwt>
</event>
<event>
 6    1  0.1198667E-001  0.3000000E+03  0.7818608E-02  0.1093470E+00
         21   -1    0    0  501  502  0.00000000000E+00  0.00000000000E+00  0.12301309640E+01  0.12301309640E+01  0.00000000000E+00 0. -1.
         13   -1    0    0    0    0 -0.00000000000E+00 -0.00000000000E+00 -0.10000000000E+04  0.10000000000E+04  0.00000000000E+00 0.  1.
    9000005    2    1    2  501    0 -0.13562166596E+02 -0.27204011678E+02 -0.74801706816E+03  0.74864161626E+03  0.32779140916E+01 0.  0.
         13    1    3    3    0    0 -0.10268734924E+02 -0.22977466572E+02 -0.63186331004E+03  0.63236433601E+03  0.00000000000E+00 0.  1.
          3    1    3    3  501    0 -0.32934316719E+01 -0.42265451051E+01 -0.11615375812E+03  0.11627728025E+03  0.00000000000E+00 0.  1.
         -1    1    1    2    0  502  0.13562166596E+02  0.27204011678E+02 -0.25075280087E+03  0.25258851470E+03  0.00000000000E+00 0. -1.
<mgrwt>
<rscale>  1 0.30000000E+03</rscale>
<asrwt>0</asrwt>
<pdfrwt beam="1">  1       21 0.44732129E-02 0.30000000E+03</pdfrwt>
<pdfrwt beam="2">0</pdfrwt>
<totfact> 0.34808986E+04</totfact>
</mgrwt>
</event>
<event>
 6    1  0.1198667E-001  0.3000000E+03  0.7818608E-02  0.1093470E+00
         21   -1    0    0  501  502  0.00000000000E+00  0.00000000000E+00  0.50411326641E+01  0.50411326641E+01  0.00000000000E+00 0. -1.
         13   -1    0    0    0    0 -0.00000000000E+00 -0.00000000000E+00 -0.10000000000E+04  0.10000000000E+04  0.00000000000E+00 0.  1.
    9000005    2    1    2  501    0  0.22824969920E+02 -0.21999450023E+02 -0.94695136494E+03  0.94751135481E+03  0.74782944294E+01 0.  0.
         13    1    3    3    0    0  0.10946883930E+02 -0.14131307142E+02 -0.44765580336E+03  0.44801255160E+03  0.00000000000E+00 0.  1.
          1    1    3    3  501    0  0.11878085990E+02 -0.78681428805E+01 -0.49929556158E+03  0.49949880322E+03  0.00000000000E+00 0.  1.
         -3    1    1    2    0  502 -0.22824969920E+02  0.21999450023E+02 -0.48007502397E+02  0.57529777850E+02  0.00000000000E+00 0. -1.
<mgrwt>
<rscale>  1 0.30000000E+03</rscale>
<asrwt>0</asrwt>
<pdfrwt beam="1">  1       21 0.18331430E-01 0.30000000E+03</pdfrwt>
<pdfrwt beam="2">0</pdfrwt>
<totfact> 0.28304955E+03</totfact>
</mgrwt>
</event>
<event>
 6    1  0.1198667E-001  0.3000000E+03  0.7818608E-02  0.1093470E+00
         21   -1    0    0  501  502  0.00000000000E+00  0.00000000000E+00  0.19125279795E+01  0.19125279795E+01  0.00000000000E+00 0. -1.
         13   -1    0    0    0    0 -0.00000000000E+00 -0.00000000000E+00 -0.10000000000E+04  0.10000000000E+04  0.00000000000E+00 0.  1.
    9000005    2    1    2  501    0 -0.29039678997E+02  0.32198202366E+02 -0.44185557315E+03  0.44399322152E+03  0.36886374138E+01 0.  0.
         13    1    3    3    0    0 -0.19925743769E+02  0.24501384412E+02 -0.32393012900E+03  0.32546594534E+03  0.00000000000E+00 0.  1.
          3    1    3    3  501    0 -0.91139352286E+01  0.76968179544E+01 -0.11792544415E+03  0.11852727618E+03  0.00000000000E+00 0.  1.
         -3    1    1    2    0  502  0.29039678997E+02 -0.32198202366E+02 -0.55623189887E+03  0.55791930646E+03  0.00000000000E+00 0. -1.
<mgrwt>
<rscale>  1 0.30000000E+03</rscale>
<asrwt>0</asrwt>
<pdfrwt beam="1">  1       21 0.69546619E-02 0.30000000E+03</pdfrwt>
<pdfrwt beam="2">0</pdfrwt>
<totfact> 0.16318741E+04</totfact>
</mgrwt>
</event>
<event>
 6    1  0.1198667E-001  0.3000000E+03  0.7818608E-02  0.1093470E+00
         21   -1    0    0  501  502  0.00000000000E+00  0.00000000000E+00  0.41062951236E+01  0.41062951236E+01  0.00000000000E+00 0. -1.
         13   -1    0    0    0    0 -0.00000000000E+00 -0.00000000000E+00 -0.10000000000E+04  0.10000000000E+04  0.00000000000E+00 0.  1.
    9000005    2    1    2  501    0 -0.16792623924E+02  0.26485532254E+02 -0.93560672045E+03  0.93615045558E+03  0.58535878431E+01 0.  0.
         13    1    3    3    0    0 -0.47155019602E+01  0.52169103085E+01 -0.27833421766E+03  0.27842303933E+03  0.00000000000E+00 0.  1.
          3    1    3    3  501    0 -0.12077121964E+02  0.21268621946E+02 -0.65727250280E+03  0.65772741625E+03  0.00000000000E+00 0.  1.
         -1    1    1    2    0  502  0.16792623924E+02 -0.26485532254E+02 -0.60286984422E+02  0.67955839541E+02  0.00000000000E+00 0. -1.
<mgrwt>
<rscale>  1 0.30000000E+03</rscale>
<asrwt>0</asrwt>
<pdfrwt beam="1">  1       21 0.14932014E-01 0.30000000E+03</pdfrwt>
<pdfrwt beam="2">0</pdfrwt>
<totfact> 0.41527973E+03</totfact>
</mgrwt>
</event>
<event>
 6    1  0.1198667E-001  0.3000000E+03  0.7818608E-02  0.1093470E+00
         21   -1    0    0  501  502  0.00000000000E+00  0.00000000000E+00  0.16801583250E+01  0.16801583250E+01  0.00000000000E+00 0. -1.
         13   -1    0    0    0    0 -0.00000000000E+00 -0.00000000000E+00 -0.10000000000E+04  0.10000000000E+04  0.00000000000E+00 0.  1.
    9000005    2    1    2  501    0 -0.26997999103E+02  0.22479103817E+02 -0.75288908274E+03  0.75374778953E+03  0.77173344573E+01 0.  0.
         13    1    3    3    0    0 -0.16212334905E+01  0.47291062801E+01 -0.10256321449E+03  0.10268498337E+03  0.00000000000E+00 0.  1.
          3    1    3    3  501    0 -0.25376765612E+02  0.17749997537E+02 -0.65032586826E+03  0.65106280616E+03  0.00000000000E+00 0.  1.
         -3    1    1    2    0  502  0.26997999103E+02 -0.22479103817E+02 -0.24543075893E+03  0.24793236879E+03  0.00000000000E+00 0. -1.
<mgrwt>
<rscale>  1 0.30000000E+03</rscale>
<asrwt>0</asrwt>
<pdfrwt beam="1">  1       21 0.61096795E-02 0.30000000E+03</pdfrwt>
<pdfrwt beam="2">0</pdfrwt>
<totfact> 0.20423293E+04</totfact>
</mgrwt>
</event>
<event>
 6    1  0.1198667E-001  0.3000000E+03  0.7818608E-02  0.1093470E+00
         21   -1    0    0  501  502  0.00000000000E+00  0.00000000000E+00  0.17284672017E+01  0.17284672017E+01  0.00000000000E+00 0. -1.
         13   -1    0    0    0    0 -0.00000000000E+00 -0.00000000000E+00 -0.10000000000E+04  0.10000000000E+04  0.00000000000E+00 0.  1.
    9000005    2    1    2  501    0 -0.32337722979E+01  0.39626178293E+02 -0.64359556899E+03  0.64483110017E+03  0.33466455262E+01 0.  0.
         13    1    3    3    0    0  0.14181897947E+00  0.14409312016E+02 -0.21793793173E+03  0.21841380559E+03  0.00000000000E+00 0.  1.
          1    1    3    3  501    0 -0.33755912774E+01  0.25216866277E+02 -0.42565763726E+03  0.42641729458E+03  0.00000000000E+00 0.  1.
         -1    1    1    2    0  502  0.32337722979E+01 -0.39626178293E+02 -0.35467596381E+03  0.35689736703E+03  0.00000000000E+00 0. -1.
<mgrwt>
<rscale>  1 0.30000000E+03</rscale>
<asrwt>0</asrwt>
<pdfrwt beam="1">  1       21 0.62853485E-02 0.30000000E+03</pdfrwt>
<pdfrwt beam="2">0</pdfrwt>
<totfact> 0.19447514E+04</totfact>
</mgrwt>
</event>
<event>
 6    1  0.1198667E-001  0.3000000E+03  0.7818608E-02  0.1093470E+00
         21   -1    0    0  501  502  0.00000000000E+00  0.00000000000E+00  0.42243641166E+01  0.42243641166E+01  0.00000000000E+00 0. -1.
         13   -1    0    0    0    0 -0.00000000000E+00 -0.00000000000E+00 -0.10000000000E+04  0.10000000000E+04  0.00000000000E+00 0.  1.
    9000005    2    1    2  501    0 -0.29000674041E+00 -0.32686889296E+02 -0.93182454504E+03  0.93240334452E+03  0.32399534384E+01 0.  0.
         13    1    3    3    0    0  0.13117978218E+01 -0.81196463214E+01 -0.23972091014E+03  0.23986196911E+03  0.00000000000E+00 0.  1.
          1    1    3    3  501    0 -0.16018045622E+01 -0.24567242974E+02 -0.69210363491E+03  0.69254137541E+03  0.00000000000E+00 0.  1.
         -3    1    1    2    0  502  0.29000674041E+00  0.32686889296E+02 -0.63951090842E+02  0.71821019595E+02  0.00000000000E+00 0. -1.
<mgrwt>
<rscale>  1 0.30000000E+03</rscale>
<asrwt>0</asrwt>
<pdfrwt beam="1">  1       21 0.15361356E-01 0.30000000E+03</pdfrwt>
<pdfrwt beam="2">0</pdfrwt>
<totfact> 0.39402795E+03</totfact>
</mgrwt>
</event>
<event>
 6    1  0.1198667E-001  0.3000000E+03  0.7818608E-02  0.1093470E+00
         21   -1    0    0  501  502  0.00000000000E+00  0.00000000000E+00  0.14961976528E+01  0.14961976528E+01  0.00000000000E+00 0. -1.
         13   -1    0    0    0    0 -0.00000000000E+00 -0.00000000000E+00 -0.10000000000E+04  0.10000000000E+04  0.00000000000E+00 0.  1.
    9000005    2    1    2  501    0 -0.32478572393E+02  0.11228088274E+02 -0.72810517087E+03  0.72892263413E+03  0.31841885991E+01 0.  0.
         13    1    3    3    0    0 -0.80746710907E+01  0.27628767943E+01 -0.15328675562E+03  0.15352414549E+03  0.00000000000E+00 0.  1.
          1    1    3    3  501    0 -0.24403901302E+02  0.84652114796E+01 -0.57481841525E+03  0.57539848863E+03  0.00000000000E+00 0.  1.
         -1    1    1    2    0  502  0.32478572393E+02 -0.11228088274E+02 -0.27039863147E+03  0.27257356353E+03  0.00000000000E+00 0. -1.
<mgrwt>
<rscale>  1 0.30000000E+03</rscale>
<asrwt>0</asrwt>
<pdfrwt beam="1">  1       21 0.54407302E-02 0.30000000E+03</pdfrwt>
<pdfrwt beam="2">0</pdfrwt>
<totfact> 0.24932902E+04</totfact>
</mgrwt>
</event>
<event>
 6    1  0.1198667E-001  0.3000000E+03  0.7818608E-02  0.1093470E+00
         21   -1    0    0  501  502  0.00000000000E+00  0.00000000000E+00  0.24461414922E+02  0.24461414922E+02  0.00000000000E+00 0. -1.
         13   -1    0    0    0    0 -0.00000000000E+00 -0.00000000000E+00 -0.10000000000E+04  0.10000000000E+04  0.00000000000E+00 0.  1.
    9000005    2    1    2  501    0  0.81558533006E+02 -0.15116914398E-01 -0.92482731688E+03  0.92842273908E+03  0.33796245970E+01 0.  0.
         13    1    3    3    0    0  0.46631033121E+02  0.46479624949E+00 -0.54689744128E+03  0.54888202791E+03  0.00000000000E+00 0.  1.
          1    1    3    3  501    0  0.34927499885E+02 -0.47991316388E+00 -0.37792987560E+03  0.37954071117E+03  0.00000000000E+00 0.  1.
         -3    1    1    2    0  502 -0.81558533006E+02  0.15116914398E-01 -0.50711268196E+02  0.96038675838E+02  0.00000000000E+00 0. -1.
<mgrwt>
<rscale>  1 0.30000000E+03</rscale>
<asrwt>0</asrwt>
<pdfrwt beam="1">  1       21 0.88950787E-01 0.30000000E+03</pdfrwt>
<pdfrwt beam="2">0</pdfrwt>
<totfact> 0.99086781E+01</totfact>
</mgrwt>
</event>
<event>
 6    1  0.1198667E-001  0.3000000E+03  0.7818608E-02  0.1093470E+00
         21   -1    0    0  501  502  0.00000000000E+00  0.00000000000E+00  0.10865650126E+01  0.10865650126E+01  0.00000000000E+00 0. -1.
         13   -1    0    0    0    0 -0.00000000000E+00 -0.00000000000E+00 -0.10000000000E+04  0.10000000000E+04  0.00000000000E+00 0.  1.
    9000005    2    1    2  501    0  0.53606625107E+01  0.29803182791E+02 -0.69514162600E+03  0.69580918567E+03  0.34023885768E+01 0.  0.
         13    1    3    3    0    0  0.50692273278E+01  0.19000490583E+02 -0.45005550618E+03  0.45048493244E+03  0.00000000000E+00 0.  1.
          1    1    3    3  501    0  0.29143518285E+00  0.10802692208E+02 -0.24508611982E+03  0.24532425323E+03  0.00000000000E+00 0.  1.
         -1    1    1    2    0  502 -0.53606625107E+01 -0.29803182791E+02 -0.30377180898E+03  0.30527737935E+03  0.00000000000E+00 0. -1.
<mgrwt>
<rscale>  1 0.30000000E+03</rscale>
<asrwt>0</asrwt>
<pdfrwt beam="1">  1       21 0.39511538E-02 0.30000000E+03</pdfrwt>
<pdfrwt beam="2">0</pdfrwt>
<totfact> 0.42926127E+04</totfact>
</mgrwt>
</event>
<event>
 6    1  0.1198667E-001  0.3000000E+03  0.7818608E-02  0.1093470E+00
         21   -1    0    0  501  502  0.00000000000E+00  0.00000000000E+00  0.37711617202E+01  0.37711617202E+01  0.00000000000E+00 0. -1.
         13   -1    0    0    0    0 -0.00000000000E+00 -0.00000000000E+00 -0.10000000000E+04  0.10000000000E+04  0.00000000000E+00 0.  1.
    9000005    2    1    2  501    0  0.42525243422E+02  0.22559510757E+02 -0.80931410172E+03  0.81075705188E+03  0.45115494697E+01 0.  0.
         13    1    3    3    0    0  0.40176268510E+02  0.22257270015E+02 -0.77698314775E+03  0.77833946996E+03  0.00000000000E+00 0.  1.
          3    1    3    3  501    0  0.23489749119E+01  0.30224074263E+00 -0.32330953972E+02  0.32417581917E+02  0.00000000000E+00 0.  1.
         -3    1    1    2    0  502 -0.42525243422E+02 -0.22559510757E+02 -0.18691473656E+03  0.19301410984E+03  0.00000000000E+00 0. -1.
<mgrwt>
<rscale>  1 0.30000000E+03</rscale>
<asrwt>0</asrwt>
<pdfrwt beam="1">  1       21 0.13713344E-01 0.30000000E+03</pdfrwt>
<pdfrwt beam="2">0</pdfrwt>
<totfact> 0.48576875E+03</totfact>
</mgrwt>
</event>
<event>
 6    1  0.1198667E-001  0.3000000E+03  0.7818608E-02  0.1093470E+00
         21   -1    0    0  501  502  0.00000000000E+00  0.00000000000E+00  0.13381582056E+02  0.13381582056E+02  0.00000000000E+00 0. -1.
         13   -1    0    0    0    0 -0.00000000000E+00 -0.00000000000E+00 -0.10000000000E+04  0.10000000000E+04  0.00000000000E+00 0.  1.
    9000005    2    1    2  501    0  0.59796738056E+02  0.27982218420E+02 -0.90932145056E+03  0.91172787776E+03  0.48547101580E+01 0.  0.
         13    1    3    3    0    0  0.58145402325E+02  0.26611318918E+02 -0.86916339525E+03  0.87151251153E+03  0.00000000000E+00 0.  1.
          1    1    3    3  501    0  0.16513357304E+01  0.13708995019E+01 -0.40158055309E+02  0.40215366234E+02  0.00000000000E+00 0.  1.
         -1    1    1    2    0  502 -0.59796738056E+02 -0.27982218420E+02 -0.77296967385E+02  0.10165370429E+03  0.00000000000E+00 0. -1.
<mgrwt>
<rscale>  1 0.30000000E+03</rscale>
<asrwt>0</asrwt>
<pdfrwt beam="1">  1       21 0.48660401E-01 0.30000000E+03</pdfrwt>
<pdfrwt beam="2">0</pdfrwt>
<totfact> 0.39844579E+02</totfact>
</mgrwt>
</event>
<event>
 6    1  0.1198667E-001  0.3000000E+03  0.7818608E-02  0.1093470E+00
         21   -1    0    0  501  502  0.00000000000E+00  0.00000000000E+00  0.20254311778E+01  0.20254311778E+01  0.00000000000E+00 0. -1.
         13   -1    0    0    0    0 -0.00000000000E+00 -0.00000000000E+00 -0.10000000000E+04  0.10000000000E+04  0.00000000000E+00 0.  1.
    9000005    2    1    2  501    0  0.27804119147E+02  0.23629096099E+02 -0.79181551300E+03  0.79266220727E+03  0.31882591722E+01 0.  0.
         13    1    3    3    0    0  0.11029111248E+02  0.11026797705E+02 -0.31726791568E+03  0.31765100642E+03  0.00000000000E+00 0.  1.
          3    1    3    3  501    0  0.16775007899E+02  0.12602298393E+02 -0.47454759732E+03  0.47501120085E+03  0.00000000000E+00 0.  1.
         -1    1    1    2    0  502 -0.27804119147E+02 -0.23629096099E+02 -0.20615905583E+03  0.20936322390E+03  0.00000000000E+00 0. -1.
<mgrwt>
<rscale>  1 0.30000000E+03</rscale>
<asrwt>0</asrwt>
<pdfrwt beam="1">  1       21 0.73652198E-02 0.30000000E+03</pdfrwt>
<pdfrwt beam="2">0</pdfrwt>
<totfact> 0.14765631E+04</totfact>
</mgrwt>
</event>
<event>
 6    1  0.1198667E-001  0.3000000E+03  0.7818608E-02  0.1093470E+00
         21   -1    0    0  501  502  0.00000000000E+00  0.00000000000E+00  0.18034718716E+01  0.18034718716E+01  0.00000000000E+00 0. -1.
         13   -1    0    0    0    0 -0.00000000000E+00 -0.00000000000E+00 -0.10000000000E+04  0.10000000000E+04  0.00000000000E+00 0.  1.
    9000005    2    1    2  501    0  0.33548667248E+02 -0.23781271066E+01 -0.80034636146E+03  0.80111501427E+03  0.99899563951E+01 0.  0.
         13    1    3    3    0    0  0.27522013116E+02 -0.20819584401E+01 -0.72589634773E+03  0.72642088586E+03  0.00000000000E+00 0.  1.
          3    1    3    3  501    0  0.60266541320E+01 -0.29616866647E+00 -0.74450013723E+02  0.74694128412E+02  0.00000000000E+00 0.  1.
         -1    1    1    2    0  502 -0.33548667248E+02  0.23781271066E+01 -0.19785016667E+03  0.20068845760E+03  0.00000000000E+00 0. -1.
<mgrwt>
<rscale>  1 0.30000000E+03</rscale>
<asrwt>0</asrwt>
<pdfrwt beam="1">  1       21 0.65580934E-02 0.30000000E+03</pdfrwt>
<pdfrwt beam="2">0</pdfrwt>
<totfact> 0.18069446E+04</totfact>
</mgrwt>
</event>
<event>
 6    1  0.1198667E-001  0.3000000E+03  0.7818608E-02  0.1093470E+00
         21   -1    0    0  501  502  0.00000000000E+00  0.00000000000E+00  0.97246562843E+00  0.97246562843E+00  0.00000000000E+00 0. -1.
         13   -1    0    0    0    0 -0.00000000000E+00 -0.00000000000E+00 -0.10000000000E+04  0.10000000000E+04  0.00000000000E+00 0.  1.
    9000005    2    1    2  501    0 -0.29287492797E+02 -0.93527201796E+01 -0.57455295903E+03  0.57538593422E+03  0.35552712019E+01 0.  0.
         13    1    3    3    0    0 -0.40118297049E+01 -0.22880744065E+01 -0.71715406068E+02  0.71863965446E+02  0.00000000000E+00 0.  1.
          3    1    3    3  501    0 -0.25275663092E+02 -0.70646457731E+01 -0.50283755296E+03  0.50352196877E+03  0.00000000000E+00 0.  1.
         -1    1    1    2    0  502  0.29287492797E+02  0.93527201796E+01 -0.42447457534E+03  0.42558653141E+03  0.00000000000E+00 0. -1.
<mgrwt>
<rscale>  1 0.30000000E+03</rscale>
<asrwt>0</asrwt>
<pdfrwt beam="1">  1       21 0.35362461E-02 0.30000000E+03</pdfrwt>
<pdfrwt beam="2">0</pdfrwt>
<totfact> 0.51716526E+04</totfact>
</mgrwt>
</event>
<event>
 6    1  0.1198667E-001  0.3000000E+03  0.7818608E-02  0.1093470E+00
         21   -1    0    0  501  502  0.00000000000E+00  0.00000000000E+00  0.18104464541E+01  0.18104464541E+01  0.00000000000E+00 0. -1.
         13   -1    0    0    0    0 -0.00000000000E+00 -0.00000000000E+00 -0.10000000000E+04  0.10000000000E+04  0.00000000000E+00 0.  1.
    9000005    2    1    2  501    0 -0.37426518275E+02  0.51903952849E+01 -0.72782351876E+03  0.72881689847E+03  0.43946065164E+01 0.  0.
         13    1    3    3    0    0 -0.41055638124E+01  0.17976475784E+01 -0.10053709260E+03  0.10063694242E+03  0.00000000000E+00 0.  1.
          1    1    3    3  501    0 -0.33320954463E+02  0.33927477065E+01 -0.62728642616E+03  0.62817995605E+03  0.00000000000E+00 0.  1.
         -3    1    1    2    0  502  0.37426518275E+02 -0.51903952849E+01 -0.27036603478E+03  0.27299354798E+03  0.00000000000E+00 0. -1.
<mgrwt>
<rscale>  1 0.30000000E+03</rscale>
<asrwt>0</asrwt>
<pdfrwt beam="1">  1       21 0.65834555E-02 0.30000000E+03</pdfrwt>
<pdfrwt beam="2">0</pdfrwt>
<totfact> 0.17949014E+04</totfact>
</mgrwt>
</event>
<event>
 6    1  0.1198667E-001  0.3000000E+03  0.7818608E-02  0.1093470E+00
         21   -1    0    0  501  502  0.00000000000E+00  0.00000000000E+00  0.91341092546E+00  0.91341092546E+00  0.00000000000E+00 0. -1.
         13   -1    0    0    0    0 -0.00000000000E+00 -0.00000000000E+00 -0.10000000000E+04  0.10000000000E+04  0.00000000000E+00 0.  1.
    9000005    2    1    2  501    0 -0.40300958848E+01  0.29840234336E+02 -0.51217159120E+03  0.51306825474E+03  0.35516097725E+01 0.  0.
         13    1    3    3    0    0 -0.29989189182E+01  0.12156304993E+02 -0.19341681599E+03  0.19382165507E+03  0.00000000000E+00 0.  1.
          3    1    3    3  501    0 -0.10311769666E+01  0.17683929343E+02 -0.31875477521E+03  0.31924659967E+03  0.00000000000E+00 0.  1.
         -1    1    1    2    0  502  0.40300958848E+01 -0.29840234336E+02 -0.48691499787E+03  0.48784515618E+03  0.00000000000E+00 0. -1.
<mgrwt>
<rscale>  1 0.30000000E+03</rscale>
<asrwt>0</asrwt>
<pdfrwt beam="1">  1       21 0.33215013E-02 0.30000000E+03</pdfrwt>
<pdfrwt beam="2">0</pdfrwt>
<totfact> 0.57427911E+04</totfact>
</mgrwt>
</event>
<event>
 6    1  0.1198667E-001  0.3000000E+03  0.7818608E-02  0.1093470E+00
         21   -1    0    0  501  502  0.00000000000E+00  0.00000000000E+00  0.28024446183E+01  0.28024446183E+01  0.00000000000E+00 0. -1.
         13   -1    0    0    0    0 -0.00000000000E+00 -0.00000000000E+00 -0.10000000000E+04  0.10000000000E+04  0.00000000000E+00 0.  1.
    9000005    2    1    2  501    0 -0.37626255231E+02  0.30469088379E+02 -0.70078457317E+03  0.70246137775E+03  0.29780522506E+01 0.  0.
         13    1    3    3    0    0 -0.41013858622E+01  0.25689441155E+01 -0.80375689856E+02  0.80521254086E+02  0.00000000000E+00 0.  1.
          3    1    3    3  501    0 -0.33524869369E+02  0.27900144263E+02 -0.62040888332E+03  0.62194012366E+03  0.00000000000E+00 0.  1.
         -3    1    1    2    0  502  0.37626255231E+02 -0.30469088379E+02 -0.29641298221E+03  0.30034106687E+03  0.00000000000E+00 0. -1.
<mgrwt>
<rscale>  1 0.30000000E+03</rscale>
<asrwt>0</asrwt>
<pdfrwt beam="1">  1       21 0.10190729E-01 0.30000000E+03</pdfrwt>
<pdfrwt beam="2">0</pdfrwt>
<totfact> 0.83174461E+03</totfact>
</mgrwt>
</event>
<event>
 6    1  0.1198667E-001  0.3000000E+03  0.7818608E-02  0.1093470E+00
         21   -1    0    0  501  502  0.00000000000E+00  0.00000000000E+00  0.99840111174E+00  0.99840111174E+00  0.00000000000E+00 0. -1.
         13   -1    0    0    0    0 -0.00000000000E+00 -0.00000000000E+00 -0.10000000000E+04  0.10000000000E+04  0.00000000000E+00 0.  1.
    9000005    2    1    2  501    0  0.22540256647E+02 -0.20421086033E+02 -0.43165326121E+03  0.43283537857E+03  0.98408891276E+01 0.  0.
         13    1    3    3    0    0  0.38851997485E+01 -0.62553839258E+01 -0.61029131945E+02  0.61471778493E+02  0.00000000000E+00 0.  1.
          3    1    3    3  501    0  0.18655056899E+02 -0.14165702107E+02 -0.37062412927E+03  0.37136360007E+03  0.00000000000E+00 0.  1.
         -3    1    1    2    0  502 -0.22540256647E+02  0.20421086033E+02 -0.56734833767E+03  0.56816302254E+03  0.00000000000E+00 0. -1.
<mgrwt>
<rscale>  1 0.30000000E+03</rscale>
<asrwt>0</asrwt>
<pdfrwt beam="1">  1       21 0.36305572E-02 0.30000000E+03</pdfrwt>
<pdfrwt beam="2">0</pdfrwt>
<totfact> 0.49483837E+04</totfact>
</mgrwt>
</event>
<event>
 6    1  0.1198667E-001  0.3000000E+03  0.7818608E-02  0.1093470E+00
         21   -1    0    0  501  502  0.00000000000E+00  0.00000000000E+00  0.16798465913E+01  0.16798465913E+01  0.00000000000E+00 0. -1.
         13   -1    0    0    0    0 -0.00000000000E+00 -0.00000000000E+00 -0.10000000000E+04  0.10000000000E+04  0.00000000000E+00 0.  1.
    9000005    2    1    2  501    0 -0.28490743903E+02 -0.19504048290E+02 -0.76565447501E+03  0.76646622392E+03  0.71810104929E+01 0.  0.
         13    1    3    3    0    0 -0.14236651755E+02 -0.65961184095E+01 -0.39803028843E+03  0.39833943006E+03  0.00000000000E+00 0.  1.
          1    1    3    3  501    0 -0.14254092148E+02 -0.12907929880E+02 -0.36762418658E+03  0.36812679386E+03  0.00000000000E+00 0.  1.
         -1    1    1    2    0  502  0.28490743903E+02  0.19504048290E+02 -0.23266567839E+03  0.23521362267E+03  0.00000000000E+00 0. -1.
<mgrwt>
<rscale>  1 0.30000000E+03</rscale>
<asrwt>0</asrwt>
<pdfrwt beam="1">  1       21 0.61085459E-02 0.30000000E+03</pdfrwt>
<pdfrwt beam="2">0</pdfrwt>
<totfact> 0.20429835E+04</totfact>
</mgrwt>
</event>
<event>
 6    1  0.1198667E-001  0.3000000E+03  0.7818608E-02  0.1093470E+00
         21   -1    0    0  501  502  0.00000000000E+00  0.00000000000E+00  0.11049918612E+01  0.11049918612E+01  0.00000000000E+00 0. -1.
         13   -1    0    0    0    0 -0.00000000000E+00 -0.00000000000E+00 -0.10000000000E+04  0.10000000000E+04  0.00000000000E+00 0.  1.
    9000005    2    1    2  501    0  0.18525500170E+02  0.24349805834E+02 -0.69204034323E+03  0.69272877265E+03  0.41483242335E+01 0.  0.
         13    1    3    3    0    0  0.12680755559E+02  0.19582359410E+02 -0.51831962738E+03  0.51884439526E+03  0.00000000000E+00 0.  1.
          3    1    3    3  501    0  0.58447446109E+01  0.47674464249E+01 -0.17372071585E+03  0.17388437739E+03  0.00000000000E+00 0.  1.
         -1    1    1    2    0  502 -0.18525500170E+02 -0.24349805834E+02 -0.30685466491E+03  0.30837621922E+03  0.00000000000E+00 0. -1.
<mgrwt>
<rscale>  1 0.30000000E+03</rscale>
<asrwt>0</asrwt>
<pdfrwt beam="1">  1       21 0.40181607E-02 0.30000000E+03</pdfrwt>
<pdfrwt beam="2">0</pdfrwt>
<totfact> 0.41727750E+04</totfact>
</mgrwt>
</event>
<event>
 6    1  0.1198667E-001  0.3000000E+03  0.7818608E-02  0.1093470E+00
         21   -1    0    0  501  502  0.00000000000E+00  0.00000000000E+00  0.17533084835E+01  0.17533084835E+01  0.00000000000E+00 0. -1.
         13   -1    0    0    0    0 -0.00000000000E+00 -0.00000000000E+00 -0.10000000000E+04  0.10000000000E+04  0.00000000000E+00 0.  1.
    9000005    2    1    2  501    0 -0.73919176683E+01 -0.29682813840E+02 -0.84057689590E+03  0.84114361285E+03  0.41652874875E+01 0.  0.
         13    1    3    3    0    0 -0.44001736858E+01 -0.23237448918E+02 -0.61400892626E+03  0.61446423988E+03  0.00000000000E+00 0.  1.
          1    1    3    3  501    0 -0.29917439826E+01 -0.64453649214E+01 -0.22656796964E+03  0.22667937297E+03  0.00000000000E+00 0.  1.
         -3    1    1    2    0  502  0.73919176683E+01  0.29682813840E+02 -0.15766979561E+03  0.16060969564E+03  0.00000000000E+00 0. -1.
<mgrwt>
<rscale>  1 0.30000000E+03</rscale>
<asrwt>0</asrwt>
<pdfrwt beam="1">  1       21 0.63756807E-02 0.30000000E+03</pdfrwt>
<pdfrwt beam="2">0</pdfrwt>
<totfact> 0.18973610E+04</totfact>
</mgrwt>
</event>
<event>
 6    1  0.1198667E-001  0.3000000E+03  0.7818608E-02  0.1093470E+00
         21   -1    0    0  501  502  0.00000000000E+00  0.00000000000E+00  0.16979932485E+01  0.16979932485E+01  0.00000000000E+00 0. -1.
         13   -1    0    0    0    0 -0.00000000000E+00 -0.00000000000E+00 -0.10000000000E+04  0.10000000000E+04  0.00000000000E+00 0.  1.
    9000005    2    1    2  501    0  0.22016221801E+01  0.33222622614E+02 -0.79349191834E+03  0.79419916889E+03  0.37822753449E+01 0.  0.
         13    1    3    3    0    0  0.10579970827E+01  0.12169427311E+02 -0.33520965155E+03  0.33543214636E+03  0.00000000000E+00 0.  1.
          3    1    3    3  501    0  0.11436250974E+01  0.21053195303E+02 -0.45828226679E+03  0.45876702253E+03  0.00000000000E+00 0.  1.
         -3    1    1    2    0  502 -0.22016221801E+01 -0.33222622614E+02 -0.20481008841E+03  0.20749882436E+03  0.00000000000E+00 0. -1.
<mgrwt>
<rscale>  1 0.30000000E+03</rscale>
<asrwt>0</asrwt>
<pdfrwt beam="1">  1       21 0.61745339E-02 0.30000000E+03</pdfrwt>
<pdfrwt beam="2">0</pdfrwt>
<totfact> 0.20054378E+04</totfact>
</mgrwt>
</event>
<event>
 6    1  0.1198667E-001  0.3000000E+03  0.7818608E-02  0.1093470E+00
         21   -1    0    0  501  502  0.00000000000E+00  0.00000000000E+00  0.52173687914E+01  0.52173687914E+01  0.00000000000E+00 0. -1.
         13   -1    0    0    0    0 -0.00000000000E+00 -0.00000000000E+00 -0.10000000000E+04  0.10000000000E+04  0.00000000000E+00 0.  1.
    9000005    2    1    2  501    0  0.21471449418E+02  0.21610106826E+02 -0.95308784808E+03  0.95357944864E+03  0.30494028518E+01 0.  0.
         13    1    3    3    0    0  0.62297868681E+01  0.66345702966E+01 -0.24375911918E+03  0.24392895677E+03  0.00000000000E+00 0.  1.
          1    1    3    3  501    0  0.15241662550E+02  0.14975536529E+02 -0.70932872891E+03  0.70965049188E+03  0.00000000000E+00 0.  1.
         -3    1    1    2    0  502 -0.21471449418E+02 -0.21610106826E+02 -0.41694783126E+02  0.51637920146E+02  0.00000000000E+00 0. -1.
<mgrwt>
<rscale>  1 0.30000000E+03</rscale>
<asrwt>0</asrwt>
<pdfrwt beam="1">  1       21 0.18972290E-01 0.30000000E+03</pdfrwt>
<pdfrwt beam="2">0</pdfrwt>
<totfact> 0.26524153E+03</totfact>
</mgrwt>
</event>
<event>
 6    1  0.1198667E-001  0.3000000E+03  0.7818608E-02  0.1093470E+00
         21   -1    0    0  501  502  0.00000000000E+00  0.00000000000E+00  0.10704580720E+01  0.10704580720E+01  0.00000000000E+00 0. -1.
         13   -1    0    0    0    0 -0.00000000000E+00 -0.00000000000E+00 -0.10000000000E+04  0.10000000000E+04  0.00000000000E+00 0.  1.
    9000005    2    1    2  501    0 -0.32383205701E+02  0.35896823011E+01 -0.53036578952E+03  0.53137529321E+03  0.32052617800E+01 0.  0.
         13    1    3    3    0    0 -0.21722448027E+02  0.11429603591E+01 -0.33901747378E+03  0.33971461351E+03  0.00000000000E+00 0.  1.
          3    1    3    3  501    0 -0.10660757673E+02  0.24467219420E+01 -0.19134831574E+03  0.19166067969E+03  0.00000000000E+00 0.  1.
         -1    1    1    2    0  502  0.32383205701E+02 -0.35896823011E+01 -0.46856375240E+03  0.46969516486E+03  0.00000000000E+00 0. -1.
<mgrwt>
<rscale>  1 0.30000000E+03</rscale>
<asrwt>0</asrwt>
<pdfrwt beam="1">  1       21 0.38925830E-02 0.30000000E+03</pdfrwt>
<pdfrwt beam="2">0</pdfrwt>
<totfact> 0.44018377E+04</totfact>
</mgrwt>
</event>
<event>
 6    1  0.1198667E-001  0.3000000E+03  0.7818608E-02  0.1093470E+00
         21   -1    0    0  501  502  0.00000000000E+00  0.00000000000E+00  0.11598900351E+01  0.11598900351E+01  0.00000000000E+00 0. -1.
         13   -1    0    0    0    0 -0.00000000000E+00 -0.00000000000E+00 -0.10000000000E+04  0.10000000000E+04  0.00000000000E+00 0.  1.
    9000005    2    1    2  501    0 -0.29606599654E+02  0.12609688647E+02 -0.33888733928E+03  0.34042301765E+03  0.27653630218E+01 0.  0.
         13    1    3    3    0    0 -0.34698305648E+01  0.21953671166E+01 -0.50387175910E+02  0.50554197225E+02  0.00000000000E+00 0.  1.
          1    1    3    3  501    0 -0.26136769089E+02  0.10414321530E+02 -0.28850016337E+03  0.28986882042E+03  0.00000000000E+00 0.  1.
         -1    1    1    2    0  502  0.29606599654E+02 -0.12609688647E+02 -0.65995277069E+03  0.66073687239E+03  0.00000000000E+00 0. -1.
<mgrwt>
<rscale>  1 0.30000000E+03</rscale>
<asrwt>0</asrwt>
<pdfrwt beam="1">  1       21 0.42177908E-02 0.30000000E+03</pdfrwt>
<pdfrwt beam="2">0</pdfrwt>
<totfact> 0.38450984E+04</totfact>
</mgrwt>
</event>
<event>
 6    1  0.1198667E-001  0.3000000E+03  0.7818608E-02  0.1093470E+00
         21   -1    0    0  501  502  0.00000000000E+00  0.00000000000E+00  0.12646054968E+01  0.12646054968E+01  0.00000000000E+00 0. -1.
         13   -1    0    0    0    0 -0.00000000000E+00 -0.00000000000E+00 -0.10000000000E+04  0.10000000000E+04  0.00000000000E+00 0.  1.
    9000005    2    1    2  501    0 -0.15216570796E+02 -0.32078447396E+02 -0.50956372389E+03  0.51080615247E+03  0.26769167548E+01 0.  0.
         13    1    3    3    0    0 -0.85104780055E+01 -0.17714910549E+02 -0.30094747828E+03  0.30158851267E+03  0.00000000000E+00 0.  1.
          1    1    3    3  501    0 -0.67060927904E+01 -0.14363536847E+02 -0.20861624561E+03  0.20921763980E+03  0.00000000000E+00 0.  1.
         -1    1    1    2    0  502  0.15216570796E+02  0.32078447396E+02 -0.48917167061E+03  0.49045845303E+03  0.00000000000E+00 0. -1.
<mgrwt>
<rscale>  1 0.30000000E+03</rscale>
<asrwt>0</asrwt>
<pdfrwt beam="1">  1       21 0.45985751E-02 0.30000000E+03</pdfrwt>
<pdfrwt beam="2">0</pdfrwt>
<totfact> 0.33213261E+04</totfact>
</mgrwt>
</event>
<event>
 6    1  0.1198667E-001  0.3000000E+03  0.7818608E-02  0.1093470E+00
         21   -1    0    0  501  502  0.00000000000E+00  0.00000000000E+00  0.20691419517E+01  0.20691419517E+01  0.00000000000E+00 0. -1.
         13   -1    0    0    0    0 -0.00000000000E+00 -0.00000000000E+00 -0.10000000000E+04  0.10000000000E+04  0.00000000000E+00 0.  1.
    9000005    2    1    2  501    0  0.31810779544E+02  0.16131248538E+02 -0.80759434116E+03  0.80841963244E+03  0.78447026327E+01 0.  0.
         13    1    3    3    0    0  0.26712217038E+01  0.40551851751E+00 -0.30262431565E+02  0.30382801630E+02  0.00000000000E+00 0.  1.
          3    1    3    3  501    0  0.29139557840E+02  0.15725730021E+02 -0.77733190960E+03  0.77803683081E+03  0.00000000000E+00 0.  1.
         -1    1    1    2    0  502 -0.31810779544E+02 -0.16131248538E+02 -0.19033651689E+03  0.19364950951E+03  0.00000000000E+00 0. -1.
<mgrwt>
<rscale>  1 0.30000000E+03</rscale>
<asrwt>0</asrwt>
<pdfrwt beam="1">  1       21 0.75241684E-02 0.30000000E+03</pdfrwt>
<pdfrwt beam="2">0</pdfrwt>
<totfact> 0.14224107E+04</totfact>
</mgrwt>
</event>
<event>
 6    1  0.1198667E-001  0.3000000E+03  0.7818608E-02  0.1093470E+00
         21   -1    0    0  501  502  0.00000000000E+00  0.00000000000E+00  0.10620047419E+01  0.10620047419E+01  0.00000000000E+00 0. -1.
         13   -1    0    0    0    0 -0.00000000000E+00 -0.00000000000E+00 -0.10000000000E+04  0.10000000000E+04  0.00000000000E+00 0.  1.
    9000005    2    1    2  501    0  0.21350944312E+02 -0.23762307089E+02 -0.40843460890E+03  0.40969514791E+03  0.32824397692E+01 0.  0.
         13    1    3    3    0    0  0.41072353252E+01 -0.28443437909E+01 -0.60216484836E+02  0.60423378916E+02  0.00000000000E+00 0.  1.
          1    1    3    3  501    0  0.17243708986E+02 -0.20917963298E+02 -0.34821812406E+03  0.34927176899E+03  0.00000000000E+00 0.  1.
         -3    1    1    2    0  502 -0.21350944312E+02  0.23762307089E+02 -0.59050338636E+03  0.59136685683E+03  0.00000000000E+00 0. -1.
<mgrwt>
<rscale>  1 0.30000000E+03</rscale>
<asrwt>0</asrwt>
<pdfrwt beam="1">  1       21 0.38618436E-02 0.30000000E+03</pdfrwt>
<pdfrwt beam="2">0</pdfrwt>
<totfact> 0.44609153E+04</totfact>
</mgrwt>
</event>
<event>
 6    1  0.1198667E-001  0.3000000E+03  0.7818608E-02  0.1093470E+00
         21   -1    0    0  501  502  0.00000000000E+00  0.00000000000E+00  0.24350347870E+01  0.24350347870E+01  0.00000000000E+00 0. -1.
         13   -1    0    0    0    0 -0.00000000000E+00 -0.00000000000E+00 -0.10000000000E+04  0.10000000000E+04  0.00000000000E+00 0.  1.
    9000005    2    1    2  501    0  0.61752265155E+01  0.41870432575E+02 -0.75593850091E+03  0.75712988850E+03  0.33740695601E+01 0.  0.
         13    1    3    3    0    0  0.47089921097E+01  0.38299126750E+02 -0.68243545799E+03  0.68352553138E+03  0.00000000000E+00 0.  1.
          1    1    3    3  501    0  0.14662344058E+01  0.35713058254E+01 -0.73503042918E+02  0.73604357119E+02  0.00000000000E+00 0.  1.
         -3    1    1    2    0  502 -0.61752265155E+01 -0.41870432575E+02 -0.24162646430E+03  0.24530514629E+03  0.00000000000E+00 0. -1.
<mgrwt>
<rscale>  1 0.30000000E+03</rscale>
<asrwt>0</asrwt>
<pdfrwt beam="1">  1       21 0.88546906E-02 0.30000000E+03</pdfrwt>
<pdfrwt beam="2">0</pdfrwt>
<totfact> 0.10681503E+04</totfact>
</mgrwt>
</event>
<event>
 6    1  0.1198667E-001  0.3000000E+03  0.7818608E-02  0.1093470E+00
         21   -1    0    0  501  502  0.00000000000E+00  0.00000000000E+00  0.39363538590E+01  0.39363538590E+01  0.00000000000E+00 0. -1.
         13   -1    0    0    0    0 -0.00000000000E+00 -0.00000000000E+00 -0.10000000000E+04  0.10000000000E+04  0.00000000000E+00 0.  1.
    9000005    2    1    2  501    0 -0.50833331146E+01  0.32646219041E+02 -0.92469637820E+03  0.92529220070E+03  0.32632684136E+01 0.  0.
         13    1    3    3    0    0 -0.56280950958E+00  0.13144007853E+02 -0.38442248067E+03  0.38464753391E+03  0.00000000000E+00 0.  1.
          1    1    3    3  501    0 -0.45205236050E+01  0.19502211188E+02 -0.54027389753E+03  0.54064466679E+03  0.00000000000E+00 0.  1.
         -1    1    1    2    0  502  0.50833331146E+01 -0.32646219041E+02 -0.71367267938E+02  0.78644153160E+02  0.00000000000E+00 0. -1.
<mgrwt>
<rscale>  1 0.30000000E+03</rscale>
<asrwt>0</asrwt>
<pdfrwt beam="1">  1       21 0.14314044E-01 0.30000000E+03</pdfrwt>
<pdfrwt beam="2">0</pdfrwt>
<totfact> 0.44896953E+03</totfact>
</mgrwt>
</event>
<event>
 6    1  0.1198667E-001  0.3000000E+03  0.7818608E-02  0.1093470E+00
         21   -1    0    0  501  502  0.00000000000E+00  0.00000000000E+00  0.13493839726E+01  0.13493839726E+01  0.00000000000E+00 0. -1.
         13   -1    0    0    0    0 -0.00000000000E+00 -0.00000000000E+00 -0.10000000000E+04  0.10000000000E+04  0.00000000000E+00 0.  1.
    9000005    2    1    2  501    0 -0.32098857024E+02 -0.16880643005E+02 -0.57279296889E+03  0.57395023990E+03  0.34351038128E+01 0.  0.
         13    1    3    3    0    0 -0.93145410598E+01 -0.39137147665E+01 -0.18010937269E+03  0.18039252748E+03  0.00000000000E+00 0.  1.
          1    1    3    3  501    0 -0.22784315964E+02 -0.12966928239E+02 -0.39268359621E+03  0.39355771243E+03  0.00000000000E+00 0.  1.
         -3    1    1    2    0  502  0.32098857024E+02  0.16880643005E+02 -0.42585764713E+03  0.42739914407E+03  0.00000000000E+00 0. -1.
<mgrwt>
<rscale>  1 0.30000000E+03</rscale>
<asrwt>0</asrwt>
<pdfrwt beam="1">  1       21 0.49068612E-02 0.30000000E+03</pdfrwt>
<pdfrwt beam="2">0</pdfrwt>
<totfact> 0.29742508E+04</totfact>
</mgrwt>
</event>
<event>
 6    1  0.1198667E-001  0.3000000E+03  0.7818608E-02  0.1093470E+00
         21   -1    0    0  501  502  0.00000000000E+00  0.00000000000E+00  0.15887833650E+01  0.15887833650E+01  0.00000000000E+00 0. -1.
         13   -1    0    0    0    0 -0.00000000000E+00 -0.00000000000E+00 -0.10000000000E+04  0.10000000000E+04  0.00000000000E+00 0.  1.
    9000005    2    1    2  501    0 -0.23342275470E+02 -0.29346575437E+02 -0.66032720723E+03  0.66143164214E+03  0.73289355334E+01 0.  0.
         13    1    3    3    0    0 -0.28069261788E+01 -0.83358249164E+00 -0.68120311691E+02  0.68183213178E+02  0.00000000000E+00 0.  1.
          3    1    3    3  501    0 -0.20535349291E+02 -0.28512992945E+02 -0.59220689554E+03  0.59324842896E+03  0.00000000000E+00 0.  1.
         -3    1    1    2    0  502  0.23342275470E+02  0.29346575437E+02 -0.33808400940E+03  0.34015714123E+03  0.00000000000E+00 0. -1.
<mgrwt>
<rscale>  1 0.30000000E+03</rscale>
<asrwt>0</asrwt>
<pdfrwt beam="1">  1       21 0.57774062E-02 0.30000000E+03</pdfrwt>
<pdfrwt beam="2">0</pdfrwt>
<totfact> 0.22490212E+04</totfact>
</mgrwt>
</event>
<event>
 6    1  0.1198667E-001  0.3000000E+03  0.7818608E-02  0.1093470E+00
         21   -1    0    0  501  502  0.00000000000E+00  0.00000000000E+00  0.42033632568E+01  0.42033632568E+01  0.00000000000E+00 0. -1.
         13   -1    0    0    0    0 -0.00000000000E+00 -0.00000000000E+00 -0.10000000000E+04  0.10000000000E+04  0.00000000000E+00 0.  1.
    9000005    2    1    2  501    0 -0.19672037671E+02  0.61502662638E+02 -0.46388173951E+03  0.46838340798E+03  0.52136397449E+01 0.  0.
         13    1    3    3    0    0 -0.78895948530E+01  0.33209686580E+02 -0.24420054535E+03  0.24657460401E+03  0.00000000000E+00 0.  1.
          1    1    3    3  501    0 -0.11782442818E+02  0.28292976058E+02 -0.21968119416E+03  0.22180880397E+03  0.00000000000E+00 0.  1.
         -3    1    1    2    0  502  0.19672037671E+02 -0.61502662638E+02 -0.53191489723E+03  0.53581995528E+03  0.00000000000E+00 0. -1.
<mgrwt>
<rscale>  1 0.30000000E+03</rscale>
<asrwt>0</asrwt>
<pdfrwt beam="1">  1       21 0.15284990E-01 0.30000000E+03</pdfrwt>
<pdfrwt beam="2">0</pdfrwt>
<totfact> 0.39768916E+03</totfact>
</mgrwt>
</event>
<event>
 6    1  0.1198667E-001  0.3000000E+03  0.7818608E-02  0.1093470E+00
         21   -1    0    0  501  502  0.00000000000E+00  0.00000000000E+00  0.16645573394E+01  0.16645573394E+01  0.00000000000E+00 0. -1.
         13   -1    0    0    0    0 -0.00000000000E+00 -0.00000000000E+00 -0.10000000000E+04  0.10000000000E+04  0.00000000000E+00 0.  1.
    9000005    2    1    2  501    0 -0.36889661060E+02  0.51287760963E+01 -0.70276001234E+03  0.70375184119E+03  0.28049224147E+01 0.  0.
         13    1    3    3    0    0 -0.29025297962E+02  0.29698337866E+01 -0.55802906733E+03  0.55879130972E+03  0.00000000000E+00 0.  1.
          3    1    3    3  501    0 -0.78643630979E+01  0.21589423097E+01 -0.14473094501E+03  0.14496053146E+03  0.00000000000E+00 0.  1.
         -1    1    1    2    0  502  0.36889661060E+02 -0.51287760963E+01 -0.29557543032E+03  0.29791271615E+03  0.00000000000E+00 0. -1.
<mgrwt>
<rscale>  1 0.30000000E+03</rscale>
<asrwt>0</asrwt>
<pdfrwt beam="1">  1       21 0.60529485E-02 0.30000000E+03</pdfrwt>
<pdfrwt beam="2">0</pdfrwt>
<totfact> 0.20754722E+04</totfact>
</mgrwt>
</event>
<event>
 6    1  0.1198667E-001  0.3000000E+03  0.7818608E-02  0.1093470E+00
         21   -1    0    0  501  502  0.00000000000E+00  0.00000000000E+00  0.40745332285E+01  0.40745332285E+01  0.00000000000E+00 0. -1.
         13   -1    0    0    0    0 -0.00000000000E+00 -0.00000000000E+00 -0.10000000000E+04  0.10000000000E+04  0.00000000000E+00 0.  1.
    9000005    2    1    2  501    0 -0.17201953597E+02 -0.29878430714E+02 -0.92026835466E+03  0.92093232708E+03  0.58205369984E+01 0.  0.
         13    1    3    3    0    0 -0.95610013143E+01 -0.14972093087E+02 -0.39975634673E+03  0.40015086289E+03  0.00000000000E+00 0.  1.
          1    1    3    3  501    0 -0.76409522824E+01 -0.14906337627E+02 -0.52051200792E+03  0.52078146419E+03  0.00000000000E+00 0.  1.
         -1    1    1    2    0  502  0.17201953597E+02  0.29878430714E+02 -0.75657112112E+02  0.83142206145E+02  0.00000000000E+00 0. -1.
<mgrwt>
<rscale>  1 0.30000000E+03</rscale>
<asrwt>0</asrwt>
<pdfrwt beam="1">  1       21 0.14816516E-01 0.30000000E+03</pdfrwt>
<pdfrwt beam="2">0</pdfrwt>
<totfact> 0.42128527E+03</totfact>
</mgrwt>
</event>
<event>
 6    1  0.1198667E-001  0.3000000E+03  0.7818608E-02  0.1093470E+00
         21   -1    0    0  501  502  0.00000000000E+00  0.00000000000E+00  0.95202120229E+00  0.95202120229E+00  0.00000000000E+00 0. -1.
         13   -1    0    0    0    0 -0.00000000000E+00 -0.00000000000E+00 -0.10000000000E+04  0.10000000000E+04  0.00000000000E+00 0.  1.
    9000005    2    1    2  501    0 -0.85213270305E+01 -0.29548362653E+02 -0.49130032628E+03  0.49227393303E+03  0.34490270689E+01 0.  0.
         13    1    3    3    0    0 -0.58666985216E+01 -0.24762973570E+02 -0.39661575670E+03  0.39743135441E+03  0.00000000000E+00 0.  1.
          3    1    3    3  501    0 -0.26546285089E+01 -0.47853890825E+01 -0.94684569584E+02  0.94842578616E+02  0.00000000000E+00 0.  1.
         -3    1    1    2    0  502  0.85213270305E+01  0.29548362653E+02 -0.50774765252E+03  0.50867808817E+03  0.00000000000E+00 0. -1.
<mgrwt>
<rscale>  1 0.30000000E+03</rscale>
<asrwt>0</asrwt>
<pdfrwt beam="1">  1       21 0.34619026E-02 0.30000000E+03</pdfrwt>
<pdfrwt beam="2">0</pdfrwt>
<totfact> 0.53589591E+04</totfact>
</mgrwt>
</event>
<event>
 6    1  0.1198667E-001  0.3000000E+03  0.7818608E-02  0.1093470E+00
         21   -1    0    0  501  502  0.00000000000E+00  0.00000000000E+00  0.76813085418E+01  0.76813085418E+01  0.00000000000E+00 0. -1.
         13   -1    0    0    0    0 -0.00000000000E+00 -0.00000000000E+00 -0.10000000000E+04  0.10000000000E+04  0.00000000000E+00 0.  1.
    9000005    2    1    2  501    0 -0.34933709066E+02  0.76046320170E+02 -0.34768879587E+03  0.35764199501E+03  0.41098645281E+01 0.  0.
         13    1    3    3    0    0 -0.18077606922E+02  0.43217416098E+02 -0.19979635675E+03  0.20521483644E+03  0.00000000000E+00 0.  1.
          1    1    3    3  501    0 -0.16856102144E+02  0.32828904072E+02 -0.14789243912E+03  0.15242715857E+03  0.00000000000E+00 0.  1.
         -3    1    1    2    0  502  0.34933709066E+02 -0.76046320170E+02 -0.64462989559E+03  0.65003931353E+03  0.00000000000E+00 0. -1.
<mgrwt>
<rscale>  1 0.30000000E+03</rscale>
<asrwt>0</asrwt>
<pdfrwt beam="1">  1       21 0.27932090E-01 0.30000000E+03</pdfrwt>
<pdfrwt beam="2">0</pdfrwt>
<totfact> 0.12534190E+03</totfact>
</mgrwt>
</event>
<event>
 6    1  0.1198667E-001  0.3000000E+03  0.7818608E-02  0.1093470E+00
         21   -1    0    0  501  502  0.00000000000E+00  0.00000000000E+00  0.42875353127E+01  0.42875353127E+01  0.00000000000E+00 0. -1.
         13   -1    0    0    0    0 -0.00000000000E+00 -0.00000000000E+00 -0.10000000000E+04  0.10000000000E+04  0.00000000000E+00 0.  1.
    9000005    2    1    2  501    0  0.16051848512E+02  0.28305393679E+02 -0.93355687370E+03  0.93412932380E+03  0.32093604685E+01 0.  0.
         13    1    3    3    0    0  0.42963873860E+01  0.10380350416E+02 -0.30300396296E+03  0.30321215706E+03  0.00000000000E+00 0.  1.
          3    1    3    3  501    0  0.11755461126E+02  0.17925043263E+02 -0.63055291074E+03  0.63091716674E+03  0.00000000000E+00 0.  1.
         -3    1    1    2    0  502 -0.16051848512E+02 -0.28305393679E+02 -0.62155590989E+02  0.70158211516E+02  0.00000000000E+00 0. -1.
<mgrwt>
<rscale>  1 0.30000000E+03</rscale>
<asrwt>0</asrwt>
<pdfrwt beam="1">  1       21 0.15591070E-01 0.30000000E+03</pdfrwt>
<pdfrwt beam="2">0</pdfrwt>
<totfact> 0.38330838E+03</totfact>
</mgrwt>
</event>
<event>
 6    1  0.1198667E-001  0.3000000E+03  0.7818608E-02  0.1093470E+00
         21   -1    0    0  501  502  0.00000000000E+00  0.00000000000E+00  0.20082846238E+01  0.20082846238E+01  0.00000000000E+00 0. -1.
         13   -1    0    0    0    0 -0.00000000000E+00 -0.00000000000E+00 -0.10000000000E+04  0.10000000000E+04  0.00000000000E+00 0.  1.
    9000005    2    1    2  501    0 -0.39294017455E+02  0.93462032577E+01 -0.71544745282E+03  0.71659169150E+03  0.26876135979E+01 0.  0.
         13    1    3    3    0    0 -0.24401901824E+02  0.68889340757E+01 -0.46177356463E+03  0.46246917218E+03  0.00000000000E+00 0.  1.
          1    1    3    3  501    0 -0.14892115631E+02  0.24572691820E+01 -0.25367388819E+03  0.25412251933E+03  0.00000000000E+00 0.  1.
         -3    1    1    2    0  502  0.39294017455E+02 -0.93462032577E+01 -0.28254426256E+03  0.28541659312E+03  0.00000000000E+00 0. -1.
<mgrwt>
<rscale>  1 0.30000000E+03</rscale>
<asrwt>0</asrwt>
<pdfrwt beam="1">  1       21 0.73028686E-02 0.30000000E+03</pdfrwt>
<pdfrwt beam="2">0</pdfrwt>
<totfact> 0.14986643E+04</totfact>
</mgrwt>
</event>
<event>
 6    1  0.1198667E-001  0.3000000E+03  0.7818608E-02  0.1093470E+00
         21   -1    0    0  501  502  0.00000000000E+00  0.00000000000E+00  0.22433970452E+01  0.22433970452E+01  0.00000000000E+00 0. -1.
         13   -1    0    0    0    0 -0.00000000000E+00 -0.00000000000E+00 -0.10000000000E+04  0.10000000000E+04  0.00000000000E+00 0.  1.
    9000005    2    1    2  501    0  0.22391863749E+02 -0.29574781257E+02 -0.81006748278E+03  0.81092358866E+03  0.34171244152E+01 0.  0.
         13    1    3    3    0    0  0.70987257679E+01 -0.11014775996E+02 -0.25807069260E+03  0.25840317254E+03  0.00000000000E+00 0.  1.
          3    1    3    3  501    0  0.15293137981E+02 -0.18560005261E+02 -0.55199679018E+03  0.55252041612E+03  0.00000000000E+00 0.  1.
         -3    1    1    2    0  502 -0.22391863749E+02  0.29574781257E+02 -0.18768912017E+03  0.19131980838E+03  0.00000000000E+00 0. -1.
<mgrwt>
<rscale>  1 0.30000000E+03</rscale>
<asrwt>0</asrwt>
<pdfrwt beam="1">  1       21 0.81578246E-02 0.30000000E+03</pdfrwt>
<pdfrwt beam="2">0</pdfrwt>
<totfact> 0.12342737E+04</totfact>
</mgrwt>
</event>
<event>
 6    1  0.1198667E-001  0.3000000E+03  0.7818608E-02  0.1093470E+00
         21   -1    0    0  501  502  0.00000000000E+00  0.00000000000E+00  0.17588816811E+01  0.17588816811E+01  0.00000000000E+00 0. -1.
         13   -1    0    0    0    0 -0.00000000000E+00 -0.00000000000E+00 -0.10000000000E+04  0.10000000000E+04  0.00000000000E+00 0.  1.
    9000005    2    1    2  501    0 -0.21012333912E+01  0.37465694114E+02 -0.72097956632E+03  0.72196956517E+03  0.45193542165E+01 0.  0.
         13    1    3    3    0    0 -0.34002238980E+01  0.31604357278E+02 -0.61085099827E+03  0.61167747956E+03  0.00000000000E+00 0.  1.
          3    1    3    3  501    0  0.12989905068E+01  0.58613368363E+01 -0.11012856806E+03  0.11029208561E+03  0.00000000000E+00 0.  1.
         -3    1    1    2    0  502  0.21012333912E+01 -0.37465694114E+02 -0.27726155200E+03  0.27978931651E+03  0.00000000000E+00 0. -1.
<mgrwt>
<rscale>  1 0.30000000E+03</rscale>
<asrwt>0</asrwt>
<pdfrwt beam="1">  1       21 0.63959469E-02 0.30000000E+03</pdfrwt>
<pdfrwt beam="2">0</pdfrwt>
<totfact> 0.18869744E+04</totfact>
</mgrwt>
</event>
<event>
 6    1  0.1198667E-001  0.3000000E+03  0.7818608E-02  0.1093470E+00
         21   -1    0    0  501  502  0.00000000000E+00  0.00000000000E+00  0.13512187414E+01  0.13512187414E+01  0.00000000000E+00 0. -1.
         13   -1    0    0    0    0 -0.00000000000E+00 -0.00000000000E+00 -0.10000000000E+04  0.10000000000E+04  0.00000000000E+00 0.  1.
    9000005    2    1    2  501    0  0.19753312131E+02  0.30048810881E+02 -0.59946716933E+03  0.60055316026E+03  0.31759763434E+01 0.  0.
         13    1    3    3    0    0  0.32260157558E+01  0.34890368108E+01 -0.67554290694E+02  0.67721213417E+02  0.00000000000E+00 0.  1.
          3    1    3    3  501    0  0.16527296375E+02  0.26559774070E+02 -0.53191287864E+03  0.53283194685E+03  0.00000000000E+00 0.  1.
         -3    1    1    2    0  502 -0.19753312131E+02 -0.30048810881E+02 -0.39918161193E+03  0.40079805848E+03  0.00000000000E+00 0. -1.
<mgrwt>
<rscale>  1 0.30000000E+03</rscale>
<asrwt>0</asrwt>
<pdfrwt beam="1">  1       21 0.49135331E-02 0.30000000E+03</pdfrwt>
<pdfrwt beam="2">0</pdfrwt>
<totfact> 0.29673753E+04</totfact>
</mgrwt>
</event>
<event>
 6    1  0.1198667E-001  0.3000000E+03  0.7818608E-02  0.1093470E+00
         21   -1    0    0  501  502  0.00000000000E+00  0.00000000000E+00  0.45740927676E+01  0.45740927676E+01  0.00000000000E+00 0. -1.
         13   -1    0    0    0    0 -0.00000000000E+00 -0.00000000000E+00 -0.10000000000E+04  0.10000000000E+04  0.00000000000E+00 0.  1.
    9000005    2    1    2  501    0 -0.32006191514E+02 -0.34558554090E+02 -0.85798573903E+03  0.85928648217E+03  0.38781586827E+01 0.  0.
         13    1    3    3    0    0 -0.14774275704E+02 -0.13983078572E+02 -0.34508402625E+03  0.34568307867E+03  0.00000000000E+00 0.  1.
          3    1    3    3  501    0 -0.17231915810E+02 -0.20575475518E+02 -0.51290171278E+03  0.51360340350E+03  0.00000000000E+00 0.  1.
         -3    1    1    2    0  502  0.32006191514E+02  0.34558554090E+02 -0.13744016820E+03  0.14528761059E+03  0.00000000000E+00 0. -1.
<mgrwt>
<rscale>  1 0.30000000E+03</rscale>
<asrwt>0</asrwt>
<pdfrwt beam="1">  1       21 0.16633100E-01 0.30000000E+03</pdfrwt>
<pdfrwt beam="2">0</pdfrwt>
<totfact> 0.33974343E+03</totfact>
</mgrwt>
</event>
<event>
 6    1  0.1198667E-001  0.3000000E+03  0.7818608E-02  0.1093470E+00
         21   -1    0    0  501  502  0.00000000000E+00  0.00000000000E+00  0.13040374279E+01  0.13040374279E+01  0.00000000000E+00 0. -1.
         13   -1    0    0    0    0 -0.00000000000E+00 -0.00000000000E+00 -0.10000000000E+04  0.10000000000E+04  0.00000000000E+00 0.  1.
    9000005    2    1    2  501    0 -0.16111057753E+01  0.34390396917E+02 -0.64806425080E+03  0.64898615205E+03  0.32337774493E+01 0.  0.
         13    1    3    3    0    0 -0.95723280607E+00  0.10487417211E+02 -0.17255969003E+03  0.17288073588E+03  0.00000000000E+00 0.  1.
          1    1    3    3  501    0 -0.65387296926E+00  0.23902979705E+02 -0.47550456077E+03  0.47610541617E+03  0.00000000000E+00 0.  1.
         -1    1    1    2    0  502  0.16111057753E+01 -0.34390396917E+02 -0.35063171177E+03  0.35231788538E+03  0.00000000000E+00 0. -1.
<mgrwt>
<rscale>  1 0.30000000E+03</rscale>
<asrwt>0</asrwt>
<pdfrwt beam="1">  1       21 0.47419643E-02 0.30000000E+03</pdfrwt>
<pdfrwt beam="2">0</pdfrwt>
<totfact> 0.31524203E+04</totfact>
</mgrwt>
</event>
<event>
 6    1  0.1198667E-001  0.3000000E+03  0.7818608E-02  0.1093470E+00
         21   -1    0    0  501  502  0.00000000000E+00  0.00000000000E+00  0.13460837612E+01  0.13460837612E+01  0.00000000000E+00 0. -1.
         13   -1    0    0    0    0 -0.00000000000E+00 -0.00000000000E+00 -0.10000000000E+04  0.10000000000E+04  0.00000000000E+00 0.  1.
    9000005    2    1    2  501    0 -0.30982536532E+02 -0.13233641054E+02 -0.30583517173E+03  0.30770867158E+03  0.37983518661E+01 0.  0.
         13    1    3    3    0    0 -0.12336924709E+02 -0.32758504004E+01 -0.11651891410E+03  0.11721598974E+03  0.00000000000E+00 0.  1.
          3    1    3    3  501    0 -0.18645611824E+02 -0.99577906535E+01 -0.18931625762E+03  0.19049268184E+03  0.00000000000E+00 0.  1.
         -1    1    1    2    0  502  0.30982536532E+02  0.13233641054E+02 -0.69281874451E+03  0.69363741218E+03  0.00000000000E+00 0. -1.
<mgrwt>
<rscale>  1 0.30000000E+03</rscale>
<asrwt>0</asrwt>
<pdfrwt beam="1">  1       21 0.48948604E-02 0.30000000E+03</pdfrwt>
<pdfrwt beam="2">0</pdfrwt>
<totfact> 0.29866807E+04</totfact>
</mgrwt>
</event>
<event>
 6    1  0.1198667E-001  0.3000000E+03  0.7818608E-02  0.1093470E+00
         21   -1    0    0  501  502  0.00000000000E+00  0.00000000000E+00  0.11198820392E+01  0.11198820392E+01  0.00000000000E+00 0. -1.
         13   -1    0    0    0    0 -0.00000000000E+00 -0.00000000000E+00 -0.10000000000E+04  0.10000000000E+04  0.00000000000E+00 0.  1.
    9000005    2    1    2  501    0 -0.14513343192E+02 -0.30002494691E+02 -0.48460970985E+03  0.48577064174E+03  0.39697200888E+01 0.  0.
         13    1    3    3    0    0 -0.27741972393E+01 -0.34629825323E+01 -0.78598535814E+02  0.78723682907E+02  0.00000000000E+00 0.  1.
          1    1    3    3  501    0 -0.11739145952E+02 -0.26539512159E+02 -0.40601117404E+03  0.40704695884E+03  0.00000000000E+00 0.  1.
         -3    1    1    2    0  502  0.14513343192E+02  0.30002494691E+02 -0.51427040811E+03  0.51534924030E+03  0.00000000000E+00 0. -1.
<mgrwt>
<rscale>  1 0.30000000E+03</rscale>
<asrwt>0</asrwt>
<pdfrwt beam="1">  1       21 0.40723069E-02 0.30000000E+03</pdfrwt>
<pdfrwt beam="2">0</pdfrwt>
<totfact> 0.40797134E+04</totfact>
</mgrwt>
</event>
<event>
 6    1  0.1198667E-001  0.3000000E+03  0.7818608E-02  0.1093470E+00
         21   -1    0    0  501  502  0.00000000000E+00  0.00000000000E+00  0.25156997818E+01  0.25156997818E+01  0.00000000000E+00 0. -1.
         13   -1    0    0    0    0 -0.00000000000E+00 -0.00000000000E+00 -0.10000000000E+04  0.10000000000E+04  0.00000000000E+00 0.  1.
    9000005    2    1    2  501    0 -0.43011455859E+02 -0.18948876700E+02 -0.67269303778E+03  0.67434134152E+03  0.33580565918E+01 0.  0.
         13    1    3    3    0    0 -0.12364621650E+02 -0.40556126281E+01 -0.17474124657E+03  0.17522509842E+03  0.00000000000E+00 0.  1.
          1    1    3    3  501    0 -0.30646834210E+02 -0.14893264072E+02 -0.49795179121E+03  0.49911624310E+03  0.00000000000E+00 0.  1.
         -1    1    1    2    0  502  0.43011455859E+02  0.18948876700E+02 -0.32479126244E+03  0.32817435826E+03  0.00000000000E+00 0. -1.
<mgrwt>
<rscale>  1 0.30000000E+03</rscale>
<asrwt>0</asrwt>
<pdfrwt beam="1">  1       21 0.91480185E-02 0.30000000E+03</pdfrwt>
<pdfrwt beam="2">0</pdfrwt>
<totfact> 0.10082228E+04</totfact>
</mgrwt>
</event>
<event>
 6    1  0.1198667E-001  0.3000000E+03  0.7818608E-02  0.1093470E+00
         21   -1    0    0  501  502  0.00000000000E+00  0.00000000000E+00  0.18066660918E+01  0.18066660918E+01  0.00000000000E+00 0. -1.
         13   -1    0    0    0    0 -0.00000000000E+00 -0.00000000000E+00 -0.10000000000E+04  0.10000000000E+04  0.00000000000E+00 0.  1.
    9000005    2    1    2  501    0  0.88163596677E+01 -0.36930108483E+02 -0.72325555503E+03  0.72425965501E+03  0.34480243335E+01 0.  0.
         13    1    3    3    0    0 -0.70390926552E-01 -0.13704823630E+01 -0.37696849874E+02  0.37721819511E+02  0.00000000000E+00 0.  1.
          3    1    3    3  501    0  0.88867505942E+01 -0.35559626120E+02 -0.68555870516E+03  0.68653783549E+03  0.00000000000E+00 0.  1.
         -3    1    1    2    0  502 -0.88163596677E+01  0.36930108483E+02 -0.27493777887E+03  0.27754701109E+03  0.00000000000E+00 0. -1.
<mgrwt>
<rscale>  1 0.30000000E+03</rscale>
<asrwt>0</asrwt>
<pdfrwt beam="1">  1       21 0.65697087E-02 0.30000000E+03</pdfrwt>
<pdfrwt beam="2">0</pdfrwt>
<totfact> 0.18014137E+04</totfact>
</mgrwt>
</event>
<event>
 6    1  0.1198667E-001  0.3000000E+03  0.7818608E-02  0.1093470E+00
         21   -1    0    0  501  502  0.00000000000E+00  0.00000000000E+00  0.17775343664E+01  0.17775343664E+01  0.00000000000E+00 0. -1.
         13   -1    0    0    0    0 -0.00000000000E+00 -0.00000000000E+00 -0.10000000000E+04  0.10000000000E+04  0.00000000000E+00 0.  1.
    9000005    2    1    2  501    0 -0.39426524322E+02 -0.11682233193E+02 -0.60639940224E+03  0.60780261334E+03  0.35855753558E+01 0.  0.
         13    1    3    3    0    0 -0.35528462887E+02 -0.98093800644E+01 -0.55427301555E+03  0.55549713895E+03  0.00000000000E+00 0.  1.
          1    1    3    3  501    0 -0.38980614345E+01 -0.18728531289E+01 -0.52126386689E+02  0.52305474388E+02  0.00000000000E+00 0.  1.
         -3    1    1    2    0  502  0.39426524322E+02  0.11682233193E+02 -0.39182306339E+03  0.39397492103E+03  0.00000000000E+00 0. -1.
<mgrwt>
<rscale>  1 0.30000000E+03</rscale>
<asrwt>0</asrwt>
<pdfrwt beam="1">  1       21 0.64637750E-02 0.30000000E+03</pdfrwt>
<pdfrwt beam="2">0</pdfrwt>
<totfact> 0.18528436E+04</totfact>
</mgrwt>
</event>
<event>
 6    1  0.1198667E-001  0.3000000E+03  0.7818608E-02  0.1093470E+00
         21   -1    0    0  501  502  0.00000000000E+00  0.00000000000E+00  0.97195528353E+00  0.97195528353E+00  0.00000000000E+00 0. -1.
         13   -1    0    0    0    0 -0.00000000000E+00 -0.00000000000E+00 -0.10000000000E+04  0.10000000000E+04  0.00000000000E+00 0.  1.
    9000005    2    1    2  501    0  0.18407246274E+02 -0.24682163698E+02 -0.44476347338E+03  0.44585282306E+03  0.47070859967E+01 0.  0.
         13    1    3    3    0    0  0.12523977761E+02 -0.18303481672E+02 -0.29040915430E+03  0.29125477569E+03  0.00000000000E+00 0.  1.
          3    1    3    3  501    0  0.58832685124E+01 -0.63786820266E+01 -0.15435431908E+03  0.15459804737E+03  0.00000000000E+00 0.  1.
         -3    1    1    2    0  502 -0.18407246274E+02  0.24682163698E+02 -0.55426457134E+03  0.55511913223E+03  0.00000000000E+00 0. -1.
<mgrwt>
<rscale>  1 0.30000000E+03</rscale>
<asrwt>0</asrwt>
<pdfrwt beam="1">  1       21 0.35343903E-02 0.30000000E+03</pdfrwt>
<pdfrwt beam="2">0</pdfrwt>
<totfact> 0.51762038E+04</totfact>
</mgrwt>
</event>
<event>
 6    1  0.1198667E-001  0.3000000E+03  0.7818608E-02  0.1093470E+00
         21   -1    0    0  501  502  0.00000000000E+00  0.00000000000E+00  0.16856068837E+01  0.16856068837E+01  0.00000000000E+00 0. -1.
         13   -1    0    0    0    0 -0.00000000000E+00 -0.00000000000E+00 -0.10000000000E+04  0.10000000000E+04  0.00000000000E+00 0.  1.
    9000005    2    1    2  501    0  0.15761598016E+02  0.27903379838E+02 -0.81159932230E+03  0.81224024735E+03  0.37057902105E+01 0.  0.
         13    1    3    3    0    0  0.46384778093E+01  0.94743513913E+01 -0.30950465479E+03  0.30968437182E+03  0.00000000000E+00 0.  1.
          1    1    3    3  501    0  0.11123120207E+02  0.18429028447E+02 -0.50209466751E+03  0.50255587554E+03  0.00000000000E+00 0.  1.
         -3    1    1    2    0  502 -0.15761598016E+02 -0.27903379838E+02 -0.18671507081E+03  0.18944535953E+03  0.00000000000E+00 0. -1.
<mgrwt>
<rscale>  1 0.30000000E+03</rscale>
<asrwt>0</asrwt>
<pdfrwt beam="1">  1       21 0.61294925E-02 0.30000000E+03</pdfrwt>
<pdfrwt beam="2">0</pdfrwt>
<totfact> 0.20309479E+04</totfact>
</mgrwt>
</event>
<event>
 6    1  0.1198667E-001  0.3000000E+03  0.7818608E-02  0.1093470E+00
         21   -1    0    0  501  502  0.00000000000E+00  0.00000000000E+00  0.27631941023E+01  0.27631941023E+01  0.00000000000E+00 0. -1.
         13   -1    0    0    0    0 -0.00000000000E+00 -0.00000000000E+00 -0.10000000000E+04  0.10000000000E+04  0.00000000000E+00 0.  1.
    9000005    2    1    2  501    0 -0.34330836215E+02 -0.98870683646E+01 -0.86625736862E+03  0.86699878999E+03  0.29517298344E+01 0.  0.
         13    1    3    3    0    0 -0.24247308755E+02 -0.83170713147E+01 -0.62818485280E+03  0.62870765459E+03  0.00000000000E+00 0.  1.
          3    1    3    3  501    0 -0.10083527460E+02 -0.15699970500E+01 -0.23807251582E+03  0.23829113539E+03  0.00000000000E+00 0.  1.
         -3    1    1    2    0  502  0.34330836215E+02  0.98870683646E+01 -0.13097943728E+03  0.13576440412E+03  0.00000000000E+00 0. -1.
<mgrwt>
<rscale>  1 0.30000000E+03</rscale>
<asrwt>0</asrwt>
<pdfrwt beam="1">  1       21 0.10048000E-01 0.30000000E+03</pdfrwt>
<pdfrwt beam="2">0</pdfrwt>
<totfact> 0.85298901E+03</totfact>
</mgrwt>
</event>
<event>
 6    1  0.1198667E-001  0.3000000E+03  0.7818608E-02  0.1093470E+00
         21   -1    0    0  501  502  0.00000000000E+00  0.00000000000E+00  0.16377221938E+01  0.16377221938E+01  0.00000000000E+00 0. -1.
         13   -1    0    0    0    0 -0.00000000000E+00 -0.00000000000E+00 -0.10000000000E+04  0.10000000000E+04  0.00000000000E+00 0.  1.
    9000005    2    1    2  501    0  0.24335742661E+02  0.20382801962E+02 -0.80908927981E+03  0.80972119149E+03  0.39061821119E+01 0.  0.
         13    1    3    3    0    0  0.12653208364E+02  0.13117448164E+02 -0.46334354965E+03  0.46370186125E+03  0.00000000000E+00 0.  1.
          3    1    3    3  501    0  0.11682534296E+02  0.72653537983E+01 -0.34574573016E+03  0.34601933024E+03  0.00000000000E+00 0.  1.
         -1    1    1    2    0  502 -0.24335742661E+02 -0.20382801962E+02 -0.18927299800E+03  0.19191653070E+03  0.00000000000E+00 0. -1.
<mgrwt>
<rscale>  1 0.30000000E+03</rscale>
<asrwt>0</asrwt>
<pdfrwt beam="1">  1       21 0.59553660E-02 0.30000000E+03</pdfrwt>
<pdfrwt beam="2">0</pdfrwt>
<totfact> 0.21344732E+04</totfact>
</mgrwt>
</event>
<event>
 6    1  0.1198667E-001  0.3000000E+03  0.7818608E-02  0.1093470E+00
         21   -1    0    0  501  502  0.00000000000E+00  0.00000000000E+00  0.13481843287E+01  0.13481843287E+01  0.00000000000E+00 0. -1.
         13   -1    0    0    0    0 -0.00000000000E+00 -0.00000000000E+00 -0.10000000000E+04  0.10000000000E+04  0.00000000000E+00 0.  1.
    9000005    2    1    2  501    0  0.61690785690E+01  0.32757441117E+02 -0.30812621496E+03  0.31001851426E+03  0.76555443796E+01 0.  0.
         13    1    3    3    0    0  0.59028145758E+01  0.30940297215E+02 -0.26703686694E+03  0.26888814313E+03  0.00000000000E+00 0.  1.
          3    1    3    3  501    0  0.26626399323E+00  0.18171439015E+01 -0.41089348028E+02  0.41130371136E+02  0.00000000000E+00 0.  1.
         -1    1    1    2    0  502 -0.61690785690E+01 -0.32757441117E+02 -0.69052560071E+03  0.69132967006E+03  0.00000000000E+00 0. -1.
<mgrwt>
<rscale>  1 0.30000000E+03</rscale>
<asrwt>0</asrwt>
<pdfrwt beam="1">  1       21 0.49024988E-02 0.30000000E+03</pdfrwt>
<pdfrwt beam="2">0</pdfrwt>
<totfact> 0.29787598E+04</totfact>
</mgrwt>
</event>
<event>
 6    1  0.1198667E-001  0.3000000E+03  0.7818608E-02  0.1093470E+00
         21   -1    0    0  501  502  0.00000000000E+00  0.00000000000E+00  0.15014143523E+01  0.15014143523E+01  0.00000000000E+00 0. -1.
         13   -1    0    0    0    0 -0.00000000000E+00 -0.00000000000E+00 -0.10000000000E+04  0.10000000000E+04  0.00000000000E+00 0.  1.
    9000005    2    1    2  501    0  0.23016706925E+01 -0.38444683258E+02 -0.54642836120E+03  0.54779360178E+03  0.32534391629E+01 0.  0.
         13    1    3    3    0    0  0.22868700943E+01 -0.23406368172E+02 -0.35168773650E+03  0.35247319309E+03  0.00000000000E+00 0.  1.
          1    1    3    3  501    0  0.14800598193E-01 -0.15038315086E+02 -0.19474062470E+03  0.19532040868E+03  0.00000000000E+00 0.  1.
         -3    1    1    2    0  502 -0.23016706925E+01  0.38444683258E+02 -0.45207022445E+03  0.45370781258E+03  0.00000000000E+00 0. -1.
<mgrwt>
<rscale>  1 0.30000000E+03</rscale>
<asrwt>0</asrwt>
<pdfrwt beam="1">  1       21 0.54597001E-02 0.30000000E+03</pdfrwt>
<pdfrwt beam="2">0</pdfrwt>
<totfact> 0.24784641E+04</totfact>
</mgrwt>
</event>
<event>
 6    1  0.1198667E-001  0.3000000E+03  0.7818608E-02  0.1093470E+00
         21   -1    0    0  501  502  0.00000000000E+00  0.00000000000E+00  0.16462821524E+01  0.16462821524E+01  0.00000000000E+00 0. -1.
         13   -1    0    0    0    0 -0.00000000000E+00 -0.00000000000E+00 -0.10000000000E+04  0.10000000000E+04  0.00000000000E+00 0.  1.
    9000005    2    1    2  501    0 -0.29922785929E+02  0.74754316497E+01 -0.82181654030E+03  0.82243514898E+03  0.81174609592E+01 0.  0.
         13    1    3    3    0    0 -0.17939903482E+01 -0.46050250020E-01 -0.12192192251E+03  0.12193512911E+03  0.00000000000E+00 0.  1.
          1    1    3    3  501    0 -0.28128795581E+02  0.75214818997E+01 -0.69989461779E+03  0.70050001987E+03  0.00000000000E+00 0.  1.
         -3    1    1    2    0  502  0.29922785929E+02 -0.74754316497E+01 -0.17653717754E+03  0.17921113317E+03  0.00000000000E+00 0. -1.
<mgrwt>
<rscale>  1 0.30000000E+03</rscale>
<asrwt>0</asrwt>
<pdfrwt beam="1">  1       21 0.59864932E-02 0.30000000E+03</pdfrwt>
<pdfrwt beam="2">0</pdfrwt>
<totfact> 0.21153722E+04</totfact>
</mgrwt>
</event>
<event>
 6    1  0.1198667E-001  0.3000000E+03  0.7818608E-02  0.1093470E+00
         21   -1    0    0  501  502  0.00000000000E+00  0.00000000000E+00  0.44636593193E+01  0.44636593193E+01  0.00000000000E+00 0. -1.
         13   -1    0    0    0    0 -0.00000000000E+00 -0.00000000000E+00 -0.10000000000E+04  0.10000000000E+04  0.00000000000E+00 0.  1.
    9000005    2    1    2  501    0 -0.48755487493E+02 -0.16256481097E+02 -0.81846687512E+03  0.82008642002E+03  0.35128181387E+01 0.  0.
         13    1    3    3    0    0 -0.11522751225E+02 -0.23079789453E+01 -0.18314949170E+03  0.18352612041E+03  0.00000000000E+00 0.  1.
          1    1    3    3  501    0 -0.37232736268E+02 -0.13948502152E+02 -0.63531738342E+03  0.63656029961E+03  0.00000000000E+00 0.  1.
         -1    1    1    2    0  502  0.48755487493E+02  0.16256481097E+02 -0.17706946556E+03  0.18437723930E+03  0.00000000000E+00 0. -1.
<mgrwt>
<rscale>  1 0.30000000E+03</rscale>
<asrwt>0</asrwt>
<pdfrwt beam="1">  1       21 0.16231523E-01 0.30000000E+03</pdfrwt>
<pdfrwt beam="2">0</pdfrwt>
<totfact> 0.35561020E+03</totfact>
</mgrwt>
</event>
<event>
 6    1  0.1198667E-001  0.3000000E+03  0.7818608E-02  0.1093470E+00
         21   -1    0    0  501  502  0.00000000000E+00  0.00000000000E+00  0.22754845768E+01  0.22754845768E+01  0.00000000000E+00 0. -1.
         13   -1    0    0    0    0 -0.00000000000E+00 -0.00000000000E+00 -0.10000000000E+04  0.10000000000E+04  0.00000000000E+00 0.  1.
    9000005    2    1    2  501    0 -0.33473468973E+02  0.16725407127E+01 -0.85476351499E+03  0.85543843829E+03  0.55663836936E+01 0.  0.
         13    1    3    3    0    0 -0.10894052098E+02  0.29392230870E+01 -0.31208124025E+03  0.31228515802E+03  0.00000000000E+00 0.  1.
          3    1    3    3  501    0 -0.22579416875E+02 -0.12666823744E+01 -0.54268227474E+03  0.54315328027E+03  0.00000000000E+00 0.  1.
         -3    1    1    2    0  502  0.33473468973E+02 -0.16725407127E+01 -0.14296100043E+03  0.14683704628E+03  0.00000000000E+00 0. -1.
<mgrwt>
<rscale>  1 0.30000000E+03</rscale>
<asrwt>0</asrwt>
<pdfrwt beam="1">  1       21 0.82745068E-02 0.30000000E+03</pdfrwt>
<pdfrwt beam="2">0</pdfrwt>
<totfact> 0.12038175E+04</totfact>
</mgrwt>
</event>
<event>
 6    1  0.1198667E-001  0.3000000E+03  0.7818608E-02  0.1093470E+00
         21   -1    0    0  501  502  0.00000000000E+00  0.00000000000E+00  0.53976855870E+01  0.53976855870E+01  0.00000000000E+00 0. -1.
         13   -1    0    0    0    0 -0.00000000000E+00 -0.00000000000E+00 -0.10000000000E+04  0.10000000000E+04  0.00000000000E+00 0.  1.
    9000005    2    1    2  501    0 -0.27193864078E+02 -0.44853136330E+02 -0.84912213560E+03  0.85075036905E+03  0.40594587188E+01 0.  0.
         13    1    3    3    0    0 -0.15623630234E+02 -0.22794306709E+02 -0.42526175689E+03  0.42615870296E+03  0.00000000000E+00 0.  1.
          3    1    3    3  501    0 -0.11570233843E+02 -0.22058829621E+02 -0.42386037871E+03  0.42459166609E+03  0.00000000000E+00 0.  1.
         -3    1    1    2    0  502  0.27193864078E+02  0.44853136330E+02 -0.14548017882E+03  0.15464731653E+03  0.00000000000E+00 0. -1.
<mgrwt>
<rscale>  1 0.30000000E+03</rscale>
<asrwt>0</asrwt>
<pdfrwt beam="1">  1       21 0.19627989E-01 0.30000000E+03</pdfrwt>
<pdfrwt beam="2">0</pdfrwt>
<totfact> 0.24866530E+03</totfact>
</mgrwt>
</event>
<event>
 6    1  0.1198667E-001  0.3000000E+03  0.7818608E-02  0.1093470E+00
         21   -1    0    0  501  502  0.00000000000E+00  0.00000000000E+00  0.96769707454E+00  0.96769707454E+00  0.00000000000E+00 0. -1.
         13   -1    0    0    0    0 -0.00000000000E+00 -0.00000000000E+00 -0.10000000000E+04  0.10000000000E+04  0.00000000000E+00 0.  1.
    9000005    2    1    2  501    0  0.30309332288E+02 -0.54519953191E+01 -0.45476627976E+03  0.45583112350E+03  0.46112977979E+01 0.  0.
         13    1    3    3    0    0  0.50548192338E+01  0.66628141323E+00 -0.65050148800E+02  0.65249651243E+02  0.00000000000E+00 0.  1.
          1    1    3    3  501    0  0.25254513055E+02 -0.61182767324E+01 -0.38971613096E+03  0.39058147226E+03  0.00000000000E+00 0.  1.
         -3    1    1    2    0  502 -0.30309332288E+02  0.54519953191E+01 -0.54426602317E+03  0.54513657358E+03  0.00000000000E+00 0. -1.
<mgrwt>
<rscale>  1 0.30000000E+03</rscale>
<asrwt>0</asrwt>
<pdfrwt beam="1">  1       21 0.35189059E-02 0.30000000E+03</pdfrwt>
<pdfrwt beam="2">0</pdfrwt>
<totfact> 0.52144214E+04</totfact>
</mgrwt>
</event>
<event>
 6    1  0.1198667E-001  0.3000000E+03  0.7818608E-02  0.1093470E+00
         21   -1    0    0  501  502  0.00000000000E+00  0.00000000000E+00  0.17903496321E+01  0.17903496321E+01  0.00000000000E+00 0. -1.
         13   -1    0    0    0    0 -0.00000000000E+00 -0.00000000000E+00 -0.10000000000E+04  0.10000000000E+04  0.00000000000E+00 0.  1.
    9000005    2    1    2  501    0  0.33700783336E+02 -0.45039895489E+01 -0.79677865720E+03  0.79750996945E+03  0.31454858258E+01 0.  0.
         13    1    3    3    0    0  0.10048428647E+02 -0.16817272238E-01 -0.24817913930E+03  0.24838248003E+03  0.00000000000E+00 0.  1.
          3    1    3    3  501    0  0.23652354689E+02 -0.44871722767E+01 -0.54859951789E+03  0.54912748942E+03  0.00000000000E+00 0.  1.
         -1    1    1    2    0  502 -0.33700783336E+02  0.45039895489E+01 -0.20143099317E+03  0.20428038018E+03  0.00000000000E+00 0. -1.
<mgrwt>
<rscale>  1 0.30000000E+03</rscale>
<asrwt>0</asrwt>
<pdfrwt beam="1">  1       21 0.65103760E-02 0.30000000E+03</pdfrwt>
<pdfrwt beam="2">0</pdfrwt>
<totfact> 0.18299436E+04</totfact>
</mgrwt>
</event>
<event>
 6    1  0.1198667E-001  0.3000000E+03  0.7818608E-02  0.1093470E+00
         21   -1    0    0  501  502  0.00000000000E+00  0.00000000000E+00  0.12599080620E+01  0.12599080620E+01  0.00000000000E+00 0. -1.
         13   -1    0    0    0    0 -0.00000000000E+00 -0.00000000000E+00 -0.10000000000E+04  0.10000000000E+04  0.00000000000E+00 0.  1.
    9000005    2    1    2  501    0  0.32868536664E+02 -0.97528801086E+01 -0.61741500683E+03  0.61839664277E+03  0.61365922971E+01 0.  0.
         13    1    3    3    0    0  0.19634011134E+02 -0.77806751606E+01 -0.41802969104E+03  0.41856284581E+03  0.00000000000E+00 0.  1.
          3    1    3    3  501    0  0.13234525530E+02 -0.19722049480E+01 -0.19938531579E+03  0.19983379697E+03  0.00000000000E+00 0.  1.
         -3    1    1    2    0  502 -0.32868536664E+02  0.97528801086E+01 -0.38132508511E+03  0.38286326529E+03  0.00000000000E+00 0. -1.
<mgrwt>
<rscale>  1 0.30000000E+03</rscale>
<asrwt>0</asrwt>
<pdfrwt beam="1">  1       21 0.45814935E-02 0.30000000E+03</pdfrwt>
<pdfrwt beam="2">0</pdfrwt>
<totfact> 0.33423907E+04</totfact>
</mgrwt>
</event>
<event>
 6    1  0.1198667E-001  0.3000000E+03  0.7818608E-02  0.1093470E+00
         21   -1    0    0  501  502  0.00000000000E+00  0.00000000000E+00  0.18613403237E+01  0.18613403237E+01  0.00000000000E+00 0. -1.
         13   -1    0    0    0    0 -0.00000000000E+00 -0.00000000000E+00 -0.10000000000E+04  0.10000000000E+04  0.00000000000E+00 0.  1.
    9000005    2    1    2  501    0  0.35520015719E+02  0.96401352093E+01 -0.75755457699E+03  0.75847829949E+03  0.67668275379E+01 0.  0.
         13    1    3    3    0    0  0.23609087584E+01  0.11474192090E+01 -0.28502442195E+02  0.28623061892E+02  0.00000000000E+00 0.  1.
          1    1    3    3  501    0  0.33159106960E+02  0.84927160003E+01 -0.72905213479E+03  0.72985523760E+03  0.00000000000E+00 0.  1.
         -1    1    1    2    0  502 -0.35520015719E+02 -0.96401352093E+01 -0.24058408269E+03  0.24338304083E+03  0.00000000000E+00 0. -1.
<mgrwt>
<rscale>  1 0.30000000E+03</rscale>
<asrwt>0</asrwt>
<pdfrwt beam="1">  1       21 0.67685245E-02 0.30000000E+03</pdfrwt>
<pdfrwt beam="2">0</pdfrwt>
<totfact> 0.17106436E+04</totfact>
</mgrwt>
</event>
<event>
 6    1  0.1198667E-001  0.3000000E+03  0.7818608E-02  0.1093470E+00
         21   -1    0    0  501  502  0.00000000000E+00  0.00000000000E+00  0.62232937999E+01  0.62232937999E+01  0.00000000000E+00 0. -1.
         13   -1    0    0    0    0 -0.00000000000E+00 -0.00000000000E+00 -0.10000000000E+04  0.10000000000E+04  0.00000000000E+00 0.  1.
    9000005    2    1    2  501    0 -0.32843800837E+02 -0.16458113936E+02 -0.94205347853E+03  0.94278137510E+03  0.47307565668E+01 0.  0.
         13    1    3    3    0    0 -0.55800974446E+01 -0.30843678857E+01 -0.21377536422E+03  0.21387042143E+03  0.00000000000E+00 0.  1.
          1    1    3    3  501    0 -0.27263703392E+02 -0.13373746050E+02 -0.72827811431E+03  0.72891095367E+03  0.00000000000E+00 0.  1.
         -1    1    1    2    0  502  0.32843800837E+02  0.16458113936E+02 -0.51723227673E+02  0.63441918702E+02  0.00000000000E+00 0. -1.
<mgrwt>
<rscale>  1 0.30000000E+03</rscale>
<asrwt>0</asrwt>
<pdfrwt beam="1">  1       21 0.22630207E-01 0.30000000E+03</pdfrwt>
<pdfrwt beam="2">0</pdfrwt>
<totfact> 0.18926596E+03</totfact>
</mgrwt>
</event>
<event>
 6    1  0.1198667E-001  0.3000000E+03  0.7818608E-02  0.1093470E+00
         21   -1    0    0  501  502  0.00000000000E+00  0.00000000000E+00  0.32537900262E+01  0.32537900262E+01  0.00000000000E+00 0. -1.
         13   -1    0    0    0    0 -0.00000000000E+00 -0.00000000000E+00 -0.10000000000E+04  0.10000000000E+04  0.00000000000E+00 0.  1.
    9000005    2    1    2  501    0  0.34431062492E+02 -0.22986333015E+02 -0.84330022143E+03  0.84432128558E+03  0.30496306856E+01 0.  0.
         13    1    3    3    0    0  0.10348872856E+02 -0.74300635106E+01 -0.23299080945E+03  0.23333885724E+03  0.00000000000E+00 0.  1.
          3    1    3    3  501    0  0.24082189636E+02 -0.15556269504E+02 -0.61030941199E+03  0.61098242834E+03  0.00000000000E+00 0.  1.
         -1    1    1    2    0  502 -0.34431062492E+02  0.22986333015E+02 -0.15344598854E+03  0.15893250444E+03  0.00000000000E+00 0. -1.
<mgrwt>
<rscale>  1 0.30000000E+03</rscale>
<asrwt>0</asrwt>
<pdfrwt beam="1">  1       21 0.11831989E-01 0.30000000E+03</pdfrwt>
<pdfrwt beam="2">0</pdfrwt>
<totfact> 0.63576205E+03</totfact>
</mgrwt>
</event>
<event>
 6    1  0.1198667E-001  0.3000000E+03  0.7818608E-02  0.1093470E+00
         21   -1    0    0  501  502  0.00000000000E+00  0.00000000000E+00  0.10032004903E+01  0.10032004903E+01  0.00000000000E+00 0. -1.
         13   -1    0    0    0    0 -0.00000000000E+00 -0.00000000000E+00 -0.10000000000E+04  0.10000000000E+04  0.00000000000E+00 0.  1.
    9000005    2    1    2  501    0 -0.13854345761E+02  0.28132222069E+02 -0.43529585707E+03  0.43643069202E+03  0.24291846597E+01 0.  0.
         13    1    3    3    0    0 -0.12169422993E+02  0.24769433856E+02 -0.39308889855E+03  0.39405647041E+03  0.00000000000E+00 0.  1.
          1    1    3    3  501    0 -0.16849227689E+01  0.33627882136E+01 -0.42206958527E+02  0.42374221614E+02  0.00000000000E+00 0.  1.
         -3    1    1    2    0  502  0.13854345761E+02 -0.28132222069E+02 -0.56370094244E+03  0.56457250847E+03  0.00000000000E+00 0. -1.
<mgrwt>
<rscale>  1 0.30000000E+03</rscale>
<asrwt>0</asrwt>
<pdfrwt beam="1">  1       21 0.36480095E-02 0.30000000E+03</pdfrwt>
<pdfrwt beam="2">0</pdfrwt>
<totfact> 0.49087354E+04</totfact>
</mgrwt>
</event>
<event>
 6    1  0.1198667E-001  0.3000000E+03  0.7818608E-02  0.1093470E+00
         21   -1    0    0  501  502  0.00000000000E+00  0.00000000000E+00  0.10945633888E+01  0.10945633888E+01  0.00000000000E+00 0. -1.
         13   -1    0    0    0    0 -0.00000000000E+00 -0.00000000000E+00 -0.10000000000E+04  0.10000000000E+04  0.00000000000E+00 0.  1.
    9000005    2    1    2  501    0 -0.25773585869E+02  0.20566410092E+02 -0.52421404992E+03  0.52525933188E+03  0.31209988590E+01 0.  0.
         13    1    3    3    0    0 -0.18404282749E+02  0.12986968029E+02 -0.34722555413E+03  0.34795540577E+03  0.00000000000E+00 0.  1.
          1    1    3    3  501    0 -0.73693031199E+01  0.75794420622E+01 -0.17698849579E+03  0.17730392611E+03  0.00000000000E+00 0.  1.
         -1    1    1    2    0  502  0.25773585869E+02 -0.20566410092E+02 -0.47469138669E+03  0.47583523151E+03  0.00000000000E+00 0. -1.
<mgrwt>
<rscale>  1 0.30000000E+03</rscale>
<asrwt>0</asrwt>
<pdfrwt beam="1">  1       21 0.39802389E-02 0.30000000E+03</pdfrwt>
<pdfrwt beam="2">0</pdfrwt>
<totfact> 0.42399429E+04</totfact>
</mgrwt>
</event>
<event>
 6    1  0.1198667E-001  0.3000000E+03  0.7818608E-02  0.1093470E+00
         21   -1    0    0  501  502  0.00000000000E+00  0.00000000000E+00  0.43105229848E+01  0.43105229848E+01  0.00000000000E+00 0. -1.
         13   -1    0    0    0    0 -0.00000000000E+00 -0.00000000000E+00 -0.10000000000E+04  0.10000000000E+04  0.00000000000E+00 0.  1.
    9000005    2    1    2  501    0  0.22182117508E+02 -0.26848641306E+02 -0.92348804780E+03  0.92414854785E+03  0.27327975134E+01 0.  0.
         13    1    3    3    0    0  0.48045557699E+01 -0.64871700826E+01 -0.24362876028E+03  0.24376246628E+03  0.00000000000E+00 0.  1.
          3    1    3    3  501    0  0.17377561738E+02 -0.20361471223E+02 -0.67985928752E+03  0.68038608157E+03  0.00000000000E+00 0.  1.
         -1    1    1    2    0  502 -0.22182117508E+02  0.26848641306E+02 -0.72201429211E+02  0.80161975133E+02  0.00000000000E+00 0. -1.
<mgrwt>
<rscale>  1 0.30000000E+03</rscale>
<asrwt>0</asrwt>
<pdfrwt beam="1">  1       21 0.15674662E-01 0.30000000E+03</pdfrwt>
<pdfrwt beam="2">0</pdfrwt>
<totfact> 0.37951351E+03</totfact>
</mgrwt>
</event>
<event>
 6    1  0.1198667E-001  0.3000000E+03  0.7818608E-02  0.1093470E+00
         21   -1    0    0  501  502  0.00000000000E+00  0.00000000000E+00  0.99636733500E+01  0.99636733500E+01  0.00000000000E+00 0. -1.
         13   -1    0    0    0    0 -0.00000000000E+00 -0.00000000000E+00 -0.10000000000E+04  0.10000000000E+04  0.00000000000E+00 0.  1.
    9000005    2    1    2  501    0  0.18628914400E+02  0.78748149467E+02 -0.79058838633E+03  0.79472476332E+03  0.30241240138E+01 0.  0.
         13    1    3    3    0    0  0.63277922722E+01  0.22242774688E+02 -0.23466232069E+03  0.23579903887E+03  0.00000000000E+00 0.  1.
          1    1    3    3  501    0  0.12301122128E+02  0.56505374779E+02 -0.55592606564E+03  0.55892572444E+03  0.00000000000E+00 0.  1.
         -3    1    1    2    0  502 -0.18628914400E+02 -0.78748149467E+02 -0.19944794032E+03  0.21523891003E+03  0.00000000000E+00 0. -1.
<mgrwt>
<rscale>  1 0.30000000E+03</rscale>
<asrwt>0</asrwt>
<pdfrwt beam="1">  1       21 0.36231616E-01 0.30000000E+03</pdfrwt>
<pdfrwt beam="2">0</pdfrwt>
<totfact> 0.74133035E+02</totfact>
</mgrwt>
</event>
<event>
 6    1  0.1198667E-001  0.3000000E+03  0.7818608E-02  0.1093470E+00
         21   -1    0    0  501  502  0.00000000000E+00  0.00000000000E+00  0.15844690605E+01  0.15844690605E+01  0.00000000000E+00 0. -1.
         13   -1    0    0    0    0 -0.00000000000E+00 -0.00000000000E+00 -0.10000000000E+04  0.10000000000E+04  0.00000000000E+00 0.  1.
    9000005    2    1    2  501    0  0.26919826314E+02 -0.22717680241E+02 -0.73038200091E+03  0.73124626742E+03  0.47398653140E+01 0.  0.
         13    1    3    3    0    0  0.18913459114E+02 -0.13008451441E+02 -0.47574912285E+03  0.47630259986E+03  0.00000000000E+00 0.  1.
          3    1    3    3  501    0  0.80063672003E+01 -0.97092287996E+01 -0.25463287806E+03  0.25494366756E+03  0.00000000000E+00 0.  1.
         -3    1    1    2    0  502 -0.26919826314E+02  0.22717680241E+02 -0.26803353003E+03  0.27033820164E+03  0.00000000000E+00 0. -1.
<mgrwt>
<rscale>  1 0.30000000E+03</rscale>
<asrwt>0</asrwt>
<pdfrwt beam="1">  1       21 0.57617178E-02 0.30000000E+03</pdfrwt>
<pdfrwt beam="2">0</pdfrwt>
<totfact> 0.22595726E+04</totfact>
</mgrwt>
</event>
<event>
 6    1  0.1198667E-001  0.3000000E+03  0.7818608E-02  0.1093470E+00
         21   -1    0    0  501  502  0.00000000000E+00  0.00000000000E+00  0.38302721478E+01  0.38302721478E+01  0.00000000000E+00 0. -1.
         13   -1    0    0    0    0 -0.00000000000E+00 -0.00000000000E+00 -0.10000000000E+04  0.10000000000E+04  0.00000000000E+00 0.  1.
    9000005    2    1    2  501    0  0.47822994794E+02 -0.13928968361E+02 -0.79569583098E+03  0.79726106263E+03  0.35059333059E+01 0.  0.
         13    1    3    3    0    0  0.21263276300E+02 -0.45393606529E+01 -0.35794829410E+03  0.35860802273E+03  0.00000000000E+00 0.  1.
          1    1    3    3  501    0  0.26559718493E+02 -0.93896077079E+01 -0.43774753687E+03  0.43865303990E+03  0.00000000000E+00 0.  1.
         -1    1    1    2    0  502 -0.47822994794E+02  0.13928968361E+02 -0.20047389688E+03  0.20656920951E+03  0.00000000000E+00 0. -1.
<mgrwt>
<rscale>  1 0.30000000E+03</rscale>
<asrwt>0</asrwt>
<pdfrwt beam="1">  1       21 0.13928292E-01 0.30000000E+03</pdfrwt>
<pdfrwt beam="2">0</pdfrwt>
<totfact> 0.47209998E+03</totfact>
</mgrwt>
</event>
<event>
 6    1  0.1198667E-001  0.3000000E+03  0.7818608E-02  0.1093470E+00
         21   -1    0    0  501  502  0.00000000000E+00  0.00000000000E+00  0.15002409129E+01  0.15002409129E+01  0.00000000000E+00 0. -1.
         13   -1    0    0    0    0 -0.00000000000E+00 -0.00000000000E+00 -0.10000000000E+04  0.10000000000E+04  0.00000000000E+00 0.  1.
    9000005    2    1    2  501    0  0.50581419585E+01  0.30810459699E+02 -0.79496351381E+03  0.79558309164E+03  0.32554834848E+01 0.  0.
         13    1    3    3    0    0  0.21816306364E+01  0.22345380012E+02 -0.56928866135E+03  0.56973121335E+03  0.00000000000E+00 0.  1.
          1    1    3    3  501    0  0.28765113221E+01  0.84650796877E+01 -0.22567485247E+03  0.22585187829E+03  0.00000000000E+00 0.  1.
         -1    1    1    2    0  502 -0.50581419585E+01 -0.30810459699E+02 -0.20353624527E+03  0.20591714928E+03  0.00000000000E+00 0. -1.
<mgrwt>
<rscale>  1 0.30000000E+03</rscale>
<asrwt>0</asrwt>
<pdfrwt beam="1">  1       21 0.54554330E-02 0.30000000E+03</pdfrwt>
<pdfrwt beam="2">0</pdfrwt>
<totfact> 0.24817872E+04</totfact>
</mgrwt>
</event>
<event>
 6    1  0.1198667E-001  0.3000000E+03  0.7818608E-02  0.1093470E+00
         21   -1    0    0  501  502  0.00000000000E+00  0.00000000000E+00  0.11270608008E+01  0.11270608008E+01  0.00000000000E+00 0. -1.
         13   -1    0    0    0    0 -0.00000000000E+00 -0.00000000000E+00 -0.10000000000E+04  0.10000000000E+04  0.00000000000E+00 0.  1.
    9000005    2    1    2  501    0  0.33464656452E+02  0.12946036503E+01 -0.50437747455E+03  0.50549884955E+03  0.33001260170E+01 0.  0.
         13    1    3    3    0    0  0.28246239638E+02  0.22900932872E+01 -0.42570201958E+03  0.42664423594E+03  0.00000000000E+00 0.  1.
          1    1    3    3  501    0  0.52184168142E+01 -0.99548963695E+00 -0.78675454967E+02  0.78854613613E+02  0.00000000000E+00 0.  1.
         -1    1    1    2    0  502 -0.33464656452E+02 -0.12946036503E+01 -0.49449546465E+03  0.49562821125E+03  0.00000000000E+00 0. -1.
<mgrwt>
<rscale>  1 0.30000000E+03</rscale>
<asrwt>0</asrwt>
<pdfrwt beam="1">  1       21 0.40984116E-02 0.30000000E+03</pdfrwt>
<pdfrwt beam="2">0</pdfrwt>
<totfact> 0.40359999E+04</totfact>
</mgrwt>
</event>
<event>
 6    1  0.1198667E-001  0.3000000E+03  0.7818608E-02  0.1093470E+00
         21   -1    0    0  501  502  0.00000000000E+00  0.00000000000E+00  0.20414357456E+01  0.20414357456E+01  0.00000000000E+00 0. -1.
         13   -1    0    0    0    0 -0.00000000000E+00 -0.00000000000E+00 -0.10000000000E+04  0.10000000000E+04  0.00000000000E+00 0.  1.
    9000005    2    1    2  501    0  0.34057285578E+02 -0.24333238621E+02 -0.68649733761E+03  0.68778023721E+03  0.33248980746E+01 0.  0.
         13    1    3    3    0    0  0.21731793507E+02 -0.13810298808E+02 -0.43459347322E+03  0.43535558130E+03  0.00000000000E+00 0.  1.
          1    1    3    3  501    0  0.12325492071E+02 -0.10522939813E+02 -0.25190386439E+03  0.25242465591E+03  0.00000000000E+00 0.  1.
         -3    1    1    2    0  502 -0.34057285578E+02  0.24333238621E+02 -0.31146122664E+03  0.31426119853E+03  0.00000000000E+00 0. -1.
<mgrwt>
<rscale>  1 0.30000000E+03</rscale>
<asrwt>0</asrwt>
<pdfrwt beam="1">  1       21 0.74234184E-02 0.30000000E+03</pdfrwt>
<pdfrwt beam="2">0</pdfrwt>
<totfact> 0.14563764E+04</totfact>
</mgrwt>
</event>
<event>
 6    1  0.1198667E-001  0.3000000E+03  0.7818608E-02  0.1093470E+00
         21   -1    0    0  501  502  0.00000000000E+00  0.00000000000E+00  0.75808521863E+01  0.75808521863E+01  0.00000000000E+00 0. -1.
         13   -1    0    0    0    0 -0.00000000000E+00 -0.00000000000E+00 -0.10000000000E+04  0.10000000000E+04  0.00000000000E+00 0.  1.
    9000005    2    1    2  501    0  0.37008939304E+02  0.78647297380E+02 -0.47045663495E+03  0.47843066197E+03  0.33754953202E+01 0.  0.
         13    1    3    3    0    0  0.24603688555E+02  0.48504677108E+02 -0.29570067132E+03  0.30066082586E+03  0.00000000000E+00 0.  1.
          1    1    3    3  501    0  0.12405250749E+02  0.30142620273E+02 -0.17475596363E+03  0.17776983610E+03  0.00000000000E+00 0.  1.
         -1    1    1    2    0  502 -0.37008939304E+02 -0.78647297380E+02 -0.52196251286E+03  0.52915019022E+03  0.00000000000E+00 0. -1.
<mgrwt>
<rscale>  1 0.30000000E+03</rscale>
<asrwt>0</asrwt>
<pdfrwt beam="1">  1       21 0.27566793E-01 0.30000000E+03</pdfrwt>
<pdfrwt beam="2">0</pdfrwt>
<totfact> 0.12865322E+03</totfact>
</mgrwt>
</event>
<event>
 6    1  0.1198667E-001  0.3000000E+03  0.7818608E-02  0.1093470E+00
         21   -1    0    0  501  502  0.00000000000E+00  0.00000000000E+00  0.13493436271E+01  0.13493436271E+01  0.00000000000E+00 0. -1.
         13   -1    0    0    0    0 -0.00000000000E+00 -0.00000000000E+00 -0.10000000000E+04  0.10000000000E+04  0.00000000000E+00 0.  1.
    9000005    2    1    2  501    0  0.29906104438E+02 -0.60023854648E+01 -0.77724015353E+03  0.77784763338E+03  0.37789922975E+01 0.  0.
         13    1    3    3    0    0  0.30672614043E+01  0.35234430237E+00 -0.95155151157E+02  0.95205225858E+02  0.00000000000E+00 0.  1.
          1    1    3    3  501    0  0.26838843034E+02 -0.63547297672E+01 -0.68208500237E+03  0.68264240752E+03  0.00000000000E+00 0.  1.
         -1    1    1    2    0  502 -0.29906104438E+02  0.60023854648E+01 -0.22141050285E+03  0.22350171025E+03  0.00000000000E+00 0. -1.
<mgrwt>
<rscale>  1 0.30000000E+03</rscale>
<asrwt>0</asrwt>
<pdfrwt beam="1">  1       21 0.49067144E-02 0.30000000E+03</pdfrwt>
<pdfrwt beam="2">0</pdfrwt>
<totfact> 0.29744023E+04</totfact>
</mgrwt>
</event>
<event>
 6    1  0.1198667E-001  0.3000000E+03  0.7818608E-02  0.1093470E+00
         21   -1    0    0  501  502  0.00000000000E+00  0.00000000000E+00  0.27613369825E+01  0.27613369825E+01  0.00000000000E+00 0. -1.
         13   -1    0    0    0    0 -0.00000000000E+00 -0.00000000000E+00 -0.10000000000E+04  0.10000000000E+04  0.00000000000E+00 0.  1.
    9000005    2    1    2  501    0  0.32751857990E+02 -0.14114253227E+02 -0.86662310536E+03  0.86736443802E+03  0.36831040626E+01 0.  0.
         13    1    3    3    0    0  0.10669062865E+02 -0.44446936235E+01 -0.24084943162E+03  0.24112659105E+03  0.00000000000E+00 0.  1.
          3    1    3    3  501    0  0.22082795125E+02 -0.96695596032E+01 -0.62577367374E+03  0.62623784697E+03  0.00000000000E+00 0.  1.
         -1    1    1    2    0  502 -0.32751857990E+02  0.14114253227E+02 -0.13061555766E+03  0.13539689896E+03  0.00000000000E+00 0. -1.
<mgrwt>
<rscale>  1 0.30000000E+03</rscale>
<asrwt>0</asrwt>
<pdfrwt beam="1">  1       21 0.10041247E-01 0.30000000E+03</pdfrwt>
<pdfrwt beam="2">0</pdfrwt>
<totfact> 0.85401462E+03</totfact>
</mgrwt>
</event>
<event>
 6    1  0.1198667E-001  0.3000000E+03  0.7818608E-02  0.1093470E+00
         21   -1    0    0  501  502  0.00000000000E+00  0.00000000000E+00  0.24200623188E+01  0.24200623188E+01  0.00000000000E+00 0. -1.
         13   -1    0    0    0    0 -0.00000000000E+00 -0.00000000000E+00 -0.10000000000E+04  0.10000000000E+04  0.00000000000E+00 0.  1.
    9000005    2    1    2  501    0  0.31543315769E+02 -0.16840831295E+02 -0.84261560870E+03  0.84338378461E+03  0.40681400082E+01 0.  0.
         13    1    3    3    0    0  0.31312800097E+02 -0.17036547678E+02 -0.83830827900E+03  0.83906585323E+03  0.00000000000E+00 0.  1.
          1    1    3    3  501    0  0.23051567163E+00  0.19571638234E+00 -0.43073296939E+01  0.43179313878E+01  0.00000000000E+00 0.  1.
         -3    1    1    2    0  502 -0.31543315769E+02  0.16840831295E+02 -0.15496432899E+03  0.15903627771E+03  0.00000000000E+00 0. -1.
<mgrwt>
<rscale>  1 0.30000000E+03</rscale>
<asrwt>0</asrwt>
<pdfrwt beam="1">  1       21 0.88002452E-02 0.30000000E+03</pdfrwt>
<pdfrwt beam="2">0</pdfrwt>
<totfact> 0.10798660E+04</totfact>
</mgrwt>
</event>
<event>
 6    1  0.1198667E-001  0.3000000E+03  0.7818608E-02  0.1093470E+00
         21   -1    0    0  501  502  0.00000000000E+00  0.00000000000E+00  0.21486897254E+01  0.21486897254E+01  0.00000000000E+00 0. -1.
         13   -1    0    0    0    0 -0.00000000000E+00 -0.00000000000E+00 -0.10000000000E+04  0.10000000000E+04  0.00000000000E+00 0.  1.
    9000005    2    1    2  501    0 -0.36006584322E+02 -0.24134470736E+02 -0.67571549061E+03  0.67710956423E+03  0.26440363740E+01 0.  0.
         13    1    3    3    0    0 -0.69370158441E+01 -0.34585655262E+01 -0.12391048144E+03  0.12415269339E+03  0.00000000000E+00 0.  1.
          1    1    3    3  501    0 -0.29069568478E+02 -0.20675905210E+02 -0.55180500917E+03  0.55295687084E+03  0.00000000000E+00 0.  1.
         -3    1    1    2    0  502  0.36006584322E+02  0.24134470736E+02 -0.32213581967E+03  0.32503912550E+03  0.00000000000E+00 0. -1.
<mgrwt>
<rscale>  1 0.30000000E+03</rscale>
<asrwt>0</asrwt>
<pdfrwt beam="1">  1       21 0.78134337E-02 0.30000000E+03</pdfrwt>
<pdfrwt beam="2">0</pdfrwt>
<totfact> 0.13314077E+04</totfact>
</mgrwt>
</event>
<event>
 6    1  0.1198667E-001  0.3000000E+03  0.7818608E-02  0.1093470E+00
         21   -1    0    0  501  502  0.00000000000E+00  0.00000000000E+00  0.23422142606E+01  0.23422142606E+01  0.00000000000E+00 0. -1.
         13   -1    0    0    0    0 -0.00000000000E+00 -0.00000000000E+00 -0.10000000000E+04  0.10000000000E+04  0.00000000000E+00 0.  1.
    9000005    2    1    2  501    0 -0.37613980661E+02  0.29822982875E+02 -0.55846920244E+03  0.56053814733E+03  0.33079750048E+01 0.  0.
         13    1    3    3    0    0 -0.10704632109E+02  0.95287787511E+01 -0.18184981517E+03  0.18241365642E+03  0.00000000000E+00 0.  1.
          1    1    3    3  501    0 -0.26909348552E+02  0.20294204124E+02 -0.37661938727E+03  0.37812449091E+03  0.00000000000E+00 0.  1.
         -3    1    1    2    0  502  0.37613980661E+02 -0.29822982875E+02 -0.43918858330E+03  0.44180406693E+03  0.00000000000E+00 0. -1.
<mgrwt>
<rscale>  1 0.30000000E+03</rscale>
<asrwt>0</asrwt>
<pdfrwt beam="1">  1       21 0.85171607E-02 0.30000000E+03</pdfrwt>
<pdfrwt beam="2">0</pdfrwt>
<totfact> 0.11440498E+04</totfact>
</mgrwt>
</event>
<event>
 6    1  0.1198667E-001  0.3000000E+03  0.7818608E-02  0.1093470E+00
         21   -1    0    0  501  502  0.00000000000E+00  0.00000000000E+00  0.46259924684E+01  0.46259924684E+01  0.00000000000E+00 0. -1.
         13   -1    0    0    0    0 -0.00000000000E+00 -0.00000000000E+00 -0.10000000000E+04  0.10000000000E+04  0.00000000000E+00 0.  1.
    9000005    2    1    2  501    0  0.56368665377E+02 -0.21190754410E+02 -0.73075334342E+03  0.73323960670E+03  0.36602453261E+01 0.  0.
         13    1    3    3    0    0  0.23975944099E+02 -0.10919671578E+02 -0.32318543254E+03  0.32425747321E+03  0.00000000000E+00 0.  1.
          3    1    3    3  501    0  0.32392721278E+02 -0.10271082833E+02 -0.40756791088E+03  0.40898213349E+03  0.00000000000E+00 0.  1.
         -3    1    1    2    0  502 -0.56368665377E+02  0.21190754410E+02 -0.26462066411E+03  0.27138638577E+03  0.00000000000E+00 0. -1.
<mgrwt>
<rscale>  1 0.30000000E+03</rscale>
<asrwt>0</asrwt>
<pdfrwt beam="1">  1       21 0.16821826E-01 0.30000000E+03</pdfrwt>
<pdfrwt beam="2">0</pdfrwt>
<totfact> 0.33264916E+03</totfact>
</mgrwt>
</event>
<event>
 6    1  0.1198667E-001  0.3000000E+03  0.7818608E-02  0.1093470E+00
         21   -1    0    0  501  502  0.00000000000E+00  0.00000000000E+00  0.15781015475E+01  0.15781015475E+01  0.00000000000E+00 0. -1.
         13   -1    0    0    0    0 -0.00000000000E+00 -0.00000000000E+00 -0.10000000000E+04  0.10000000000E+04  0.00000000000E+00 0.  1.
    9000005    2    1    2  501    0 -0.30357252778E+02 -0.35462382877E+01 -0.81862064477E+03  0.81919764912E+03  0.32999509397E+01 0.  0.
         13    1    3    3    0    0 -0.16623619798E+02 -0.28856796153E+00 -0.44047628201E+03  0.44078995340E+03  0.00000000000E+00 0.  1.
          3    1    3    3  501    0 -0.13733632980E+02 -0.32576703262E+01 -0.37814436276E+03  0.37840769571E+03  0.00000000000E+00 0.  1.
         -1    1    1    2    0  502  0.30357252778E+02  0.35462382877E+01 -0.17980125368E+03  0.18238045243E+03  0.00000000000E+00 0. -1.
<mgrwt>
<rscale>  1 0.30000000E+03</rscale>
<asrwt>0</asrwt>
<pdfrwt beam="1">  1       21 0.57385632E-02 0.30000000E+03</pdfrwt>
<pdfrwt beam="2">0</pdfrwt>
<totfact> 0.22752846E+04</totfact>
</mgrwt>
</event>
<event>
 6    1  0.1198667E-001  0.3000000E+03  0.7818608E-02  0.1093470E+00
         21   -1    0    0  501  502  0.00000000000E+00  0.00000000000E+00  0.17271139227E+01  0.17271139227E+01  0.00000000000E+00 0. -1.
         13   -1    0    0    0    0 -0.00000000000E+00 -0.00000000000E+00 -0.10000000000E+04  0.10000000000E+04  0.00000000000E+00 0.  1.
    9000005    2    1    2  501    0  0.37763796128E+02 -0.30203691294E+01 -0.70388361475E+03  0.70491021750E+03  0.33233565536E+01 0.  0.
         13    1    3    3    0    0  0.24834707048E+02 -0.96116090967E+00 -0.48287808379E+03  0.48351724924E+03  0.00000000000E+00 0.  1.
          3    1    3    3  501    0  0.12929089079E+02 -0.20592082197E+01 -0.22100553096E+03  0.22139296826E+03  0.00000000000E+00 0.  1.
         -1    1    1    2    0  502 -0.37763796128E+02  0.30203691294E+01 -0.29438927133E+03  0.29681689642E+03  0.00000000000E+00 0. -1.
<mgrwt>
<rscale>  1 0.30000000E+03</rscale>
<asrwt>0</asrwt>
<pdfrwt beam="1">  1       21 0.62804275E-02 0.30000000E+03</pdfrwt>
<pdfrwt beam="2">0</pdfrwt>
<totfact> 0.19473856E+04</totfact>
</mgrwt>
</event>
<event>
 6    1  0.1198667E-001  0.3000000E+03  0.7818608E-02  0.1093470E+00
         21   -1    0    0  501  502  0.00000000000E+00  0.00000000000E+00  0.24324623803E+01  0.24324623803E+01  0.00000000000E+00 0. -1.
         13   -1    0    0    0    0 -0.00000000000E+00 -0.00000000000E+00 -0.10000000000E+04  0.10000000000E+04  0.00000000000E+00 0.  1.
    9000005    2    1    2  501    0 -0.21676780393E+02 -0.29705584968E+02 -0.83160132070E+03  0.83244102217E+03  0.67077725932E+01 0.  0.
         13    1    3    3    0    0 -0.15471548212E+02 -0.21992124129E+02 -0.66749915304E+03  0.66804052395E+03  0.00000000000E+00 0.  1.
          1    1    3    3  501    0 -0.62052321812E+01 -0.77134608386E+01 -0.16410216766E+03  0.16440049823E+03  0.00000000000E+00 0.  1.
         -1    1    1    2    0  502  0.21676780393E+02  0.29705584968E+02 -0.16596621692E+03  0.16999144021E+03  0.00000000000E+00 0. -1.
<mgrwt>
<rscale>  1 0.30000000E+03</rscale>
<asrwt>0</asrwt>
<pdfrwt beam="1">  1       21 0.88453364E-02 0.30000000E+03</pdfrwt>
<pdfrwt beam="2">0</pdfrwt>
<totfact> 0.10701494E+04</totfact>
</mgrwt>
</event>
<event>
 6    1  0.1198667E-001  0.3000000E+03  0.7818608E-02  0.1093470E+00
         21   -1    0    0  501  502  0.00000000000E+00  0.00000000000E+00  0.51732214096E+01  0.51732214096E+01  0.00000000000E+00 0. -1.
         13   -1    0    0    0    0 -0.00000000000E+00 -0.00000000000E+00 -0.10000000000E+04  0.10000000000E+04  0.00000000000E+00 0.  1.
    9000005    2    1    2  501    0 -0.32009126569E+02  0.15078298729E+02 -0.93492938050E+03  0.93560571769E+03  0.36294860650E+01 0.  0.
         13    1    3    3    0    0 -0.30908814372E+02  0.13935361585E+02 -0.87845771121E+03  0.87911176735E+03  0.00000000000E+00 0.  1.
          1    1    3    3  501    0 -0.11003121966E+01  0.11429371448E+01 -0.56471669292E+02  0.56493950339E+02  0.00000000000E+00 0.  1.
         -3    1    1    2    0  502  0.32009126569E+02 -0.15078298729E+02 -0.59897398091E+02  0.69567503723E+02  0.00000000000E+00 0. -1.
<mgrwt>
<rscale>  1 0.30000000E+03</rscale>
<asrwt>0</asrwt>
<pdfrwt beam="1">  1       21 0.18811754E-01 0.30000000E+03</pdfrwt>
<pdfrwt beam="2">0</pdfrwt>
<totfact> 0.26954506E+03</totfact>
</mgrwt>
</event>
<event>
 6    1  0.1198667E-001  0.3000000E+03  0.7818608E-02  0.1093470E+00
         21   -1    0    0  501  502  0.00000000000E+00  0.00000000000E+00  0.13194570122E+01  0.13194570122E+01  0.00000000000E+00 0. -1.
         13   -1    0    0    0    0 -0.00000000000E+00 -0.00000000000E+00 -0.10000000000E+04  0.10000000000E+04  0.00000000000E+00 0.  1.
    9000005    2    1    2  501    0  0.23275195084E+02 -0.27419657456E+02 -0.51222957657E+03  0.51354070076E+03  0.71651869280E+01 0.  0.
         13    1    3    3    0    0  0.18292300533E+02 -0.23623709577E+02 -0.45195263330E+03  0.45293914675E+03  0.00000000000E+00 0.  1.
          1    1    3    3  501    0  0.49828945507E+01 -0.37959478787E+01 -0.60276943264E+02  0.60601554004E+02  0.00000000000E+00 0.  1.
         -3    1    1    2    0  502 -0.23275195084E+02  0.27419657456E+02 -0.48645096642E+03  0.48777875625E+03  0.00000000000E+00 0. -1.
<mgrwt>
<rscale>  1 0.30000000E+03</rscale>
<asrwt>0</asrwt>
<pdfrwt beam="1">  1       21 0.47980356E-02 0.30000000E+03</pdfrwt>
<pdfrwt beam="2">0</pdfrwt>
<totfact> 0.30900057E+04</totfact>
</mgrwt>
</event>
<event>
 6    1  0.1198667E-001  0.3000000E+03  0.7818608E-02  0.1093470E+00
         21   -1    0    0  501  502  0.00000000000E+00  0.00000000000E+00  0.37963842876E+01  0.37963842876E+01  0.00000000000E+00 0. -1.
         13   -1    0    0    0    0 -0.00000000000E+00 -0.00000000000E+00 -0.10000000000E+04  0.10000000000E+04  0.00000000000E+00 0.  1.
    9000005    2    1    2  501    0  0.58066475809E+02 -0.89208092830E+01 -0.64803917292E+03  0.65071031025E+03  0.42239532997E+01 0.  0.
         13    1    3    3    0    0  0.39416192592E+02 -0.80323819731E+01 -0.44032382140E+03  0.44215746414E+03  0.00000000000E+00 0.  1.
          1    1    3    3  501    0  0.18650283218E+02 -0.88842730988E+00 -0.20771535152E+03  0.20855284612E+03  0.00000000000E+00 0.  1.
         -3    1    1    2    0  502 -0.58066475809E+02  0.89208092830E+01 -0.34816444279E+03  0.35308607403E+03  0.00000000000E+00 0. -1.
<mgrwt>
<rscale>  1 0.30000000E+03</rscale>
<asrwt>0</asrwt>
<pdfrwt beam="1">  1       21 0.13805063E-01 0.30000000E+03</pdfrwt>
<pdfrwt beam="2">0</pdfrwt>
<totfact> 0.47986477E+03</totfact>
</mgrwt>
</event>
<event>
 6    1  0.1198667E-001  0.3000000E+03  0.7818608E-02  0.1093470E+00
         21   -1    0    0  501  502  0.00000000000E+00  0.00000000000E+00  0.28924118000E+01  0.28924118000E+01  0.00000000000E+00 0. -1.
         13   -1    0    0    0    0 -0.00000000000E+00 -0.00000000000E+00 -0.10000000000E+04  0.10000000000E+04  0.00000000000E+00 0.  1.
    9000005    2    1    2  501    0 -0.28147542276E+02  0.16910430649E+02 -0.89554744129E+03  0.89615577216E+03  0.34207567915E+01 0.  0.
         13    1    3    3    0    0 -0.31679329543E+00  0.79194622621E+00 -0.23100621944E+02  0.23116363706E+02  0.00000000000E+00 0.  1.
          3    1    3    3  501    0 -0.27830748980E+02  0.16118484423E+02 -0.87244681934E+03  0.87303940845E+03  0.00000000000E+00 0.  1.
         -1    1    1    2    0  502  0.28147542276E+02 -0.16910430649E+02 -0.10156014691E+03  0.10673663964E+03  0.00000000000E+00 0. -1.
<mgrwt>
<rscale>  1 0.30000000E+03</rscale>
<asrwt>0</asrwt>
<pdfrwt beam="1">  1       21 0.10517883E-01 0.30000000E+03</pdfrwt>
<pdfrwt beam="2">0</pdfrwt>
<totfact> 0.78598547E+03</totfact>
</mgrwt>
</event>
<event>
 6    1  0.1198667E-001  0.3000000E+03  0.7818608E-02  0.1093470E+00
         21   -1    0    0  501  502  0.00000000000E+00  0.00000000000E+00  0.14483296892E+01  0.14483296892E+01  0.00000000000E+00 0. -1.
         13   -1    0    0    0    0 -0.00000000000E+00 -0.00000000000E+00 -0.10000000000E+04  0.10000000000E+04  0.00000000000E+00 0.  1.
    9000005    2    1    2  501    0 -0.34063097753E+02 -0.60530875283E+01 -0.70629697120E+03  0.70715299562E+03  0.36073818552E+01 0.  0.
         13    1    3    3    0    0 -0.15299939278E+02 -0.12303797400E+01 -0.29142221612E+03  0.29182616405E+03  0.00000000000E+00 0.  1.
          1    1    3    3  501    0 -0.18763158475E+02 -0.48227077883E+01 -0.41487475508E+03  0.41532683157E+03  0.00000000000E+00 0.  1.
         -1    1    1    2    0  502  0.34063097753E+02  0.60530875283E+01 -0.29225469912E+03  0.29429533406E+03  0.00000000000E+00 0. -1.
<mgrwt>
<rscale>  1 0.30000000E+03</rscale>
<asrwt>0</asrwt>
<pdfrwt beam="1">  1       21 0.52666645E-02 0.30000000E+03</pdfrwt>
<pdfrwt beam="2">0</pdfrwt>
<totfact> 0.26359738E+04</totfact>
</mgrwt>
</event>
<event>
 6    1  0.1198667E-001  0.3000000E+03  0.7818608E-02  0.1093470E+00
         21   -1    0    0  501  502  0.00000000000E+00  0.00000000000E+00  0.46312989440E+01  0.46312989440E+01  0.00000000000E+00 0. -1.
         13   -1    0    0    0    0 -0.00000000000E+00 -0.00000000000E+00 -0.10000000000E+04  0.10000000000E+04  0.00000000000E+00 0.  1.
    9000005    2    1    2  501    0  0.44359211115E+02 -0.42021707612E+02 -0.71844400823E+03  0.72104559934E+03  0.33763662649E+01 0.  0.
         13    1    3    3    0    0  0.17412592085E+02 -0.18700850695E+02 -0.29465917617E+03  0.29576502545E+03  0.00000000000E+00 0.  1.
          1    1    3    3  501    0  0.26946619030E+02 -0.23320856917E+02 -0.42378483206E+03  0.42528057389E+03  0.00000000000E+00 0.  1.
         -3    1    1    2    0  502 -0.44359211115E+02  0.42021707612E+02 -0.27692469283E+03  0.28358569960E+03  0.00000000000E+00 0. -1.
<mgrwt>
<rscale>  1 0.30000000E+03</rscale>
<asrwt>0</asrwt>
<pdfrwt beam="1">  1       21 0.16841123E-01 0.30000000E+03</pdfrwt>
<pdfrwt beam="2">0</pdfrwt>
<totfact> 0.33193627E+03</totfact>
</mgrwt>
</event>
<event>
 6    1  0.1198667E-001  0.3000000E+03  0.7818608E-02  0.1093470E+00
         21   -1    0    0  501  502  0.00000000000E+00  0.00000000000E+00  0.14302312465E+01  0.14302312465E+01  0.00000000000E+00 0. -1.
         13   -1    0    0    0    0 -0.00000000000E+00 -0.00000000000E+00 -0.10000000000E+04  0.10000000000E+04  0.00000000000E+00 0.  1.
    9000005    2    1    2  501    0  0.35374431023E+02 -0.84825838642E+01 -0.63382758773E+03  0.63487851154E+03  0.31636771864E+01 0.  0.
         13    1    3    3    0    0  0.25582927698E+02 -0.53793274882E+01 -0.43306189338E+03  0.43385023551E+03  0.00000000000E+00 0.  1.
          1    1    3    3  501    0  0.97915033249E+01 -0.31032563760E+01 -0.20076569435E+03  0.20102827603E+03  0.00000000000E+00 0.  1.
         -1    1    1    2    0  502 -0.35374431023E+02  0.84825838642E+01 -0.36474218102E+03  0.36655171970E+03  0.00000000000E+00 0. -1.
<mgrwt>
<rscale>  1 0.30000000E+03</rscale>
<asrwt>0</asrwt>
<pdfrwt beam="1">  1       21 0.52008519E-02 0.30000000E+03</pdfrwt>
<pdfrwt beam="2">0</pdfrwt>
<totfact> 0.26932345E+04</totfact>
</mgrwt>
</event>
<event>
 6    1  0.1198667E-001  0.3000000E+03  0.7818608E-02  0.1093470E+00
         21   -1    0    0  501  502  0.00000000000E+00  0.00000000000E+00  0.17499570990E+01  0.17499570990E+01  0.00000000000E+00 0. -1.
         13   -1    0    0    0    0 -0.00000000000E+00 -0.00000000000E+00 -0.10000000000E+04  0.10000000000E+04  0.00000000000E+00 0.  1.
    9000005    2    1    2  501    0  0.23348572938E+01  0.34338901727E+02 -0.78319404687E+03  0.78395718137E+03  0.33668145512E+01 0.  0.
         13    1    3    3    0    0  0.28196076908E+01  0.19534731930E+02 -0.46430789799E+03  0.46472721038E+03  0.00000000000E+00 0.  1.
          1    1    3    3  501    0 -0.48475039696E+00  0.14804169797E+02 -0.31888614889E+03  0.31922997099E+03  0.00000000000E+00 0.  1.
         -3    1    1    2    0  502 -0.23348572938E+01 -0.34338901727E+02 -0.21505599603E+03  0.21779277573E+03  0.00000000000E+00 0. -1.
<mgrwt>
<rscale>  1 0.30000000E+03</rscale>
<asrwt>0</asrwt>
<pdfrwt beam="1">  1       21 0.63634938E-02 0.30000000E+03</pdfrwt>
<pdfrwt beam="2">0</pdfrwt>
<totfact> 0.19036496E+04</totfact>
</mgrwt>
</event>
<event>
 6    1  0.1198667E-001  0.3000000E+03  0.7818608E-02  0.1093470E+00
         21   -1    0    0  501  502  0.00000000000E+00  0.00000000000E+00  0.12899732541E+01  0.12899732541E+01  0.00000000000E+00 0. -1.
         13   -1    0    0    0    0 -0.00000000000E+00 -0.00000000000E+00 -0.10000000000E+04  0.10000000000E+04  0.00000000000E+00 0.  1.
    9000005    2    1    2  501    0  0.35805666927E+02 -0.84926646073E+00 -0.47781453168E+03  0.47916462066E+03  0.30397325170E+01 0.  0.
         13    1    3    3    0    0  0.30161954317E+02  0.37769281056E+00 -0.39816158105E+03  0.39930255542E+03  0.00000000000E+00 0.  1.
          3    1    3    3  501    0  0.56437126094E+01 -0.12269592713E+01 -0.79652950627E+02  0.79862065241E+02  0.00000000000E+00 0.  1.
         -3    1    1    2    0  502 -0.35805666927E+02  0.84926646073E+00 -0.52089549507E+03  0.52212535259E+03  0.00000000000E+00 0. -1.
<mgrwt>
<rscale>  1 0.30000000E+03</rscale>
<asrwt>0</asrwt>
<pdfrwt beam="1">  1       21 0.46908217E-02 0.30000000E+03</pdfrwt>
<pdfrwt beam="2">0</pdfrwt>
<totfact> 0.32110872E+04</totfact>
</mgrwt>
</event>
<event>
 6    1  0.1198667E-001  0.3000000E+03  0.7818608E-02  0.1093470E+00
         21   -1    0    0  501  502  0.00000000000E+00  0.00000000000E+00  0.15822118680E+01  0.15822118680E+01  0.00000000000E+00 0. -1.
         13   -1    0    0    0    0 -0.00000000000E+00 -0.00000000000E+00 -0.10000000000E+04  0.10000000000E+04  0.00000000000E+00 0.  1.
    9000005    2    1    2  501    0 -0.37590839114E+02  0.12808433688E+02 -0.49733837731E+03  0.49893153485E+03  0.31761236977E+01 0.  0.
         13    1    3    3    0    0 -0.12497681896E+02  0.27042824118E+01 -0.15737743918E+03  0.15789605302E+03  0.00000000000E+00 0.  1.
          3    1    3    3  501    0 -0.25093157218E+02  0.10104151276E+02 -0.33996093813E+03  0.34103548183E+03  0.00000000000E+00 0.  1.
         -1    1    1    2    0  502  0.37590839114E+02 -0.12808433688E+02 -0.50107941082E+03  0.50265067702E+03  0.00000000000E+00 0. -1.
<mgrwt>
<rscale>  1 0.30000000E+03</rscale>
<asrwt>0</asrwt>
<pdfrwt beam="1">  1       21 0.57535098E-02 0.30000000E+03</pdfrwt>
<pdfrwt beam="2">0</pdfrwt>
<totfact> 0.22651232E+04</totfact>
</mgrwt>
</event>
<event>
 6    1  0.1198667E-001  0.3000000E+03  0.7818608E-02  0.1093470E+00
         21   -1    0    0  501  502  0.00000000000E+00  0.00000000000E+00  0.16015435992E+01  0.16015435992E+01  0.00000000000E+00 0. -1.
         13   -1    0    0    0    0 -0.00000000000E+00 -0.00000000000E+00 -0.10000000000E+04  0.10000000000E+04  0.00000000000E+00 0.  1.
    9000005    2    1    2  501    0  0.40061338446E+01 -0.39438438010E+02 -0.56254858029E+03  0.56395265007E+03  0.32010676685E+01 0.  0.
         13    1    3    3    0    0  0.16788238883E+01 -0.29392804999E+02 -0.40906250086E+03  0.41012057379E+03  0.00000000000E+00 0.  1.
          3    1    3    3  501    0  0.23273099563E+01 -0.10045633011E+02 -0.15348607943E+03  0.15383207628E+03  0.00000000000E+00 0.  1.
         -3    1    1    2    0  502 -0.40061338446E+01  0.39438438010E+02 -0.43584987611E+03  0.43764889353E+03  0.00000000000E+00 0. -1.
<mgrwt>
<rscale>  1 0.30000000E+03</rscale>
<asrwt>0</asrwt>
<pdfrwt beam="1">  1       21 0.58238072E-02 0.30000000E+03</pdfrwt>
<pdfrwt beam="2">0</pdfrwt>
<totfact> 0.22182505E+04</totfact>
</mgrwt>
</event>
<event>
 6    1  0.1198667E-001  0.3000000E+03  0.7818608E-02  0.1093470E+00
         21   -1    0    0  501  502  0.00000000000E+00  0.00000000000E+00  0.13907595969E+01  0.13907595969E+01  0.00000000000E+00 0. -1.
         13   -1    0    0    0    0 -0.00000000000E+00 -0.00000000000E+00 -0.10000000000E+04  0.10000000000E+04  0.00000000000E+00 0.  1.
    9000005    2    1    2  501    0  0.25644754957E+02 -0.18576836432E+02 -0.76290219729E+03  0.76356611310E+03  0.32701888394E+01 0.  0.
         13    1    3    3    0    0  0.26599536580E+01 -0.32639354270E+01 -0.96185515088E+02  0.96277629493E+02  0.00000000000E+00 0.  1.
          1    1    3    3  501    0  0.22984801299E+02 -0.15312901005E+02 -0.66671668220E+03  0.66728848361E+03  0.00000000000E+00 0.  1.
         -3    1    1    2    0  502 -0.25644754957E+02  0.18576836432E+02 -0.23570704311E+03  0.23782464650E+03  0.00000000000E+00 0. -1.
<mgrwt>
<rscale>  1 0.30000000E+03</rscale>
<asrwt>0</asrwt>
<pdfrwt beam="1">  1       21 0.50573183E-02 0.30000000E+03</pdfrwt>
<pdfrwt beam="2">0</pdfrwt>
<totfact> 0.28250192E+04</totfact>
</mgrwt>
</event>
<event>
 6    1  0.1198667E-001  0.3000000E+03  0.7818608E-02  0.1093470E+00
         21   -1    0    0  501  502  0.00000000000E+00  0.00000000000E+00  0.33607641022E+01  0.33607641022E+01  0.00000000000E+00 0. -1.
         13   -1    0    0    0    0 -0.00000000000E+00 -0.00000000000E+00 -0.10000000000E+04  0.10000000000E+04  0.00000000000E+00 0.  1.
    9000005    2    1    2  501    0  0.10178693710E+01 -0.31187123858E+02 -0.92104468847E+03  0.92157929705E+03  0.33778451818E+01 0.  0.
         13    1    3    3    0    0  0.21077680259E+01 -0.14814603855E+02 -0.42584379187E+03  0.42610661840E+03  0.00000000000E+00 0.  1.
          1    1    3    3  501    0 -0.10898986549E+01 -0.16372520003E+02 -0.49520089660E+03  0.49547267865E+03  0.00000000000E+00 0.  1.
         -3    1    1    2    0  502 -0.10178693710E+01  0.31187123858E+02 -0.75594547429E+02  0.81781467055E+02  0.00000000000E+00 0. -1.
<mgrwt>
<rscale>  1 0.30000000E+03</rscale>
<asrwt>0</asrwt>
<pdfrwt beam="1">  1       21 0.12220986E-01 0.30000000E+03</pdfrwt>
<pdfrwt beam="2">0</pdfrwt>
<totfact> 0.59950252E+03</totfact>
</mgrwt>
</event>
<event>
 6    1  0.1198667E-001  0.3000000E+03  0.7818608E-02  0.1093470E+00
         21   -1    0    0  501  502  0.00000000000E+00  0.00000000000E+00  0.26049185033E+01  0.26049185033E+01  0.00000000000E+00 0. -1.
         13   -1    0    0    0    0 -0.00000000000E+00 -0.00000000000E+00 -0.10000000000E+04  0.10000000000E+04  0.00000000000E+00 0.  1.
    9000005    2    1    2  501    0  0.28956066332E+02 -0.14455798252E+02 -0.88618104268E+03  0.88677751971E+03  0.31788651235E+01 0.  0.
         13    1    3    3    0    0  0.12189944888E+02 -0.43740358698E+01 -0.34549235707E+03  0.34573500797E+03  0.00000000000E+00 0.  1.
          3    1    3    3  501    0  0.16766121444E+02 -0.10081762382E+02 -0.54068868561E+03  0.54104251174E+03  0.00000000000E+00 0.  1.
         -3    1    1    2    0  502 -0.28956066332E+02  0.14455798252E+02 -0.11121403882E+03  0.11582739879E+03  0.00000000000E+00 0. -1.
<mgrwt>
<rscale>  1 0.30000000E+03</rscale>
<asrwt>0</asrwt>
<pdfrwt beam="1">  1       21 0.94724509E-02 0.30000000E+03</pdfrwt>
<pdfrwt beam="2">0</pdfrwt>
<totfact> 0.94766147E+03</totfact>
</mgrwt>
</event>
<event>
 6    1  0.1198667E-001  0.3000000E+03  0.7818608E-02  0.1093470E+00
         21   -1    0    0  501  502  0.00000000000E+00  0.00000000000E+00  0.13719480313E+01  0.13719480313E+01  0.00000000000E+00 0. -1.
         13   -1    0    0    0    0 -0.00000000000E+00 -0.00000000000E+00 -0.10000000000E+04  0.10000000000E+04  0.00000000000E+00 0.  1.
    9000005    2    1    2  501    0 -0.21479404222E+02 -0.22726492095E+02 -0.76655510845E+03  0.76720169082E+03  0.37204648438E+01 0.  0.
         13    1    3    3    0    0 -0.48346607110E+01 -0.75541103716E+01 -0.21672192495E+03  0.21690742560E+03  0.00000000000E+00 0.  1.
          1    1    3    3  501    0 -0.16644743511E+02 -0.15172381724E+02 -0.54983318350E+03  0.55029426522E+03  0.00000000000E+00 0.  1.
         -1    1    1    2    0  502  0.21479404222E+02  0.22726492095E+02 -0.23207294352E+03  0.23417025721E+03  0.00000000000E+00 0. -1.
<mgrwt>
<rscale>  1 0.30000000E+03</rscale>
<asrwt>0</asrwt>
<pdfrwt beam="1">  1       21 0.49889125E-02 0.30000000E+03</pdfrwt>
<pdfrwt beam="2">0</pdfrwt>
<totfact> 0.28913865E+04</totfact>
</mgrwt>
</event>
<event>
 6    1  0.1198667E-001  0.3000000E+03  0.7818608E-02  0.1093470E+00
         21   -1    0    0  501  502  0.00000000000E+00  0.00000000000E+00  0.21592888230E+01  0.21592888230E+01  0.00000000000E+00 0. -1.
         13   -1    0    0    0    0 -0.00000000000E+00 -0.00000000000E+00 -0.10000000000E+04  0.10000000000E+04  0.00000000000E+00 0.  1.
    9000005    2    1    2  501    0 -0.31073722721E+02 -0.32405373946E+02 -0.62627392026E+03  0.62788991442E+03  0.33221870935E+01 0.  0.
         13    1    3    3    0    0 -0.12838633099E+02 -0.12009265895E+02 -0.26351363715E+03  0.26409939404E+03  0.00000000000E+00 0.  1.
          1    1    3    3  501    0 -0.18235089622E+02 -0.20396108051E+02 -0.36276028311E+03  0.36379052038E+03  0.00000000000E+00 0.  1.
         -3    1    1    2    0  502  0.31073722721E+02  0.32405373946E+02 -0.37156679092E+03  0.37426937440E+03  0.00000000000E+00 0. -1.
<mgrwt>
<rscale>  1 0.30000000E+03</rscale>
<asrwt>0</asrwt>
<pdfrwt beam="1">  1       21 0.78519759E-02 0.30000000E+03</pdfrwt>
<pdfrwt beam="2">0</pdfrwt>
<totfact> 0.13199631E+04</totfact>
</mgrwt>
</event>
<event>
 6    1  0.1198667E-001  0.3000000E+03  0.7818608E-02  0.1093470E+00
         21   -1    0    0  501  502  0.00000000000E+00  0.00000000000E+00  0.18872138883E+01  0.18872138883E+01  0.00000000000E+00 0. -1.
         13   -1    0    0    0    0 -0.00000000000E+00 -0.00000000000E+00 -0.10000000000E+04  0.10000000000E+04  0.00000000000E+00 0.  1.
    9000005    2    1    2  501    0  0.15513250658E+02  0.35870547714E+02 -0.70679059054E+03  0.70795528508E+03  0.10972222200E+02 0.  0.
         13    1    3    3    0    0  0.55365830622E+01  0.23285749243E+02 -0.36156496674E+03  0.36235632331E+03  0.00000000000E+00 0.  1.
          1    1    3    3  501    0  0.99766675961E+01  0.12584798471E+02 -0.34522562380E+03  0.34559896177E+03  0.00000000000E+00 0.  1.
         -1    1    1    2    0  502 -0.15513250658E+02 -0.35870547714E+02 -0.29132219558E+03  0.29393192881E+03  0.00000000000E+00 0. -1.
<mgrwt>
<rscale>  1 0.30000000E+03</rscale>
<asrwt>0</asrwt>
<pdfrwt beam="1">  1       21 0.68626104E-02 0.30000000E+03</pdfrwt>
<pdfrwt beam="2">0</pdfrwt>
<totfact> 0.16701173E+04</totfact>
</mgrwt>
</event>
<event>
 6    1  0.1198667E-001  0.3000000E+03  0.7818608E-02  0.1093470E+00
         21   -1    0    0  501  502  0.00000000000E+00  0.00000000000E+00  0.16835049967E+01  0.16835049967E+01  0.00000000000E+00 0. -1.
         13   -1    0    0    0    0 -0.00000000000E+00 -0.00000000000E+00 -0.10000000000E+04  0.10000000000E+04  0.00000000000E+00 0.  1.
    9000005    2    1    2  501    0  0.20142597621E+02  0.35640352434E+02 -0.47700488346E+03  0.47876691960E+03  0.28540306947E+01 0.  0.
         13    1    3    3    0    0  0.13290157314E+02  0.21128680154E+02 -0.29900099506E+03  0.30004107128E+03  0.00000000000E+00 0.  1.
          3    1    3    3  501    0  0.68524403070E+01  0.14511672281E+02 -0.17800388840E+03  0.17872584832E+03  0.00000000000E+00 0.  1.
         -3    1    1    2    0  502 -0.20142597621E+02 -0.35640352434E+02 -0.52131161154E+03  0.52291658540E+03  0.00000000000E+00 0. -1.
<mgrwt>
<rscale>  1 0.30000000E+03</rscale>
<asrwt>0</asrwt>
<pdfrwt beam="1">  1       21 0.61218493E-02 0.30000000E+03</pdfrwt>
<pdfrwt beam="2">0</pdfrwt>
<totfact> 0.20353268E+04</totfact>
</mgrwt>
</event>
<event>
 6    1  0.1198667E-001  0.3000000E+03  0.7818608E-02  0.1093470E+00
         21   -1    0    0  501  502  0.00000000000E+00  0.00000000000E+00  0.17807700295E+01  0.17807700295E+01  0.00000000000E+00 0. -1.
         13   -1    0    0    0    0 -0.00000000000E+00 -0.00000000000E+00 -0.10000000000E+04  0.10000000000E+04  0.00000000000E+00 0.  1.
    9000005    2    1    2  501    0  0.13503220614E+02 -0.38326049477E+02 -0.62191565673E+03  0.62328955181E+03  0.77174007602E+01 0.  0.
         13    1    3    3    0    0  0.75414908554E+01 -0.15387775543E+02 -0.21337653712E+03  0.21406355205E+03  0.00000000000E+00 0.  1.
          1    1    3    3  501    0  0.59617297586E+01 -0.22938273934E+02 -0.40853911961E+03  0.40922599977E+03  0.00000000000E+00 0.  1.
         -1    1    1    2    0  502 -0.13503220614E+02  0.38326049477E+02 -0.37630357324E+03  0.37849121822E+03  0.00000000000E+00 0. -1.
<mgrwt>
<rscale>  1 0.30000000E+03</rscale>
<asrwt>0</asrwt>
<pdfrwt beam="1">  1       21 0.64755410E-02 0.30000000E+03</pdfrwt>
<pdfrwt beam="2">0</pdfrwt>
<totfact> 0.18470201E+04</totfact>
</mgrwt>
</event>
<event>
 6    1  0.1198667E-001  0.3000000E+03  0.7818608E-02  0.1093470E+00
         21   -1    0    0  501  502  0.00000000000E+00  0.00000000000E+00  0.18713310676E+01  0.18713310676E+01  0.00000000000E+00 0. -1.
         13   -1    0    0    0    0 -0.00000000000E+00 -0.00000000000E+00 -0.10000000000E+04  0.10000000000E+04  0.00000000000E+00 0.  1.
    9000005    2    1    2  501    0  0.27927972073E+02 -0.12127139827E+02 -0.85440352748E+03  0.85495654138E+03  0.42732572129E+01 0.  0.
         13    1    3    3    0    0  0.17499775106E+02 -0.94021438302E+01 -0.58624769390E+03  0.58658418069E+03  0.00000000000E+00 0.  1.
          1    1    3    3  501    0  0.10428196967E+02 -0.27249959969E+01 -0.26815583358E+03  0.26837236069E+03  0.00000000000E+00 0.  1.
         -1    1    1    2    0  502 -0.27927972073E+02  0.12127139827E+02 -0.14372514145E+03  0.14691478969E+03  0.00000000000E+00 0. -1.
<mgrwt>
<rscale>  1 0.30000000E+03</rscale>
<asrwt>0</asrwt>
<pdfrwt beam="1">  1       21 0.68048546E-02 0.30000000E+03</pdfrwt>
<pdfrwt beam="2">0</pdfrwt>
<totfact> 0.16948179E+04</totfact>
</mgrwt>
</event>
<event>
 6    1  0.1198667E-001  0.3000000E+03  0.7818608E-02  0.1093470E+00
         21   -1    0    0  501  502  0.00000000000E+00  0.00000000000E+00  0.16954075574E+01  0.16954075574E+01  0.00000000000E+00 0. -1.
         13   -1    0    0    0    0 -0.00000000000E+00 -0.00000000000E+00 -0.10000000000E+04  0.10000000000E+04  0.00000000000E+00 0.  1.
    9000005    2    1    2  501    0 -0.31692505485E+02  0.21425332199E+02 -0.67711563342E+03  0.67823628006E+03  0.74438433289E+01 0.  0.
         13    1    3    3    0    0 -0.14630541888E+02  0.97542886501E+01 -0.24768918300E+03  0.24831256568E+03  0.00000000000E+00 0.  1.
          1    1    3    3  501    0 -0.17061963597E+02  0.11671043549E+02 -0.42942645042E+03  0.42992371437E+03  0.00000000000E+00 0.  1.
         -3    1    1    2    0  502  0.31692505485E+02 -0.21425332199E+02 -0.32118895903E+03  0.32345912750E+03  0.00000000000E+00 0. -1.
<mgrwt>
<rscale>  1 0.30000000E+03</rscale>
<asrwt>0</asrwt>
<pdfrwt beam="1">  1       21 0.61651314E-02 0.30000000E+03</pdfrwt>
<pdfrwt beam="2">0</pdfrwt>
<totfact> 0.20107219E+04</totfact>
</mgrwt>
</event>
<event>
 6    1  0.1198667E-001  0.3000000E+03  0.7818608E-02  0.1093470E+00
         21   -1    0    0  501  502  0.00000000000E+00  0.00000000000E+00  0.32211105646E+01  0.32211105646E+01  0.00000000000E+00 0. -1.
         13   -1    0    0    0    0 -0.00000000000E+00 -0.00000000000E+00 -0.10000000000E+04  0.10000000000E+04  0.00000000000E+00 0.  1.
    9000005    2    1    2  501    0 -0.38032734648E+02  0.25137883388E+00 -0.87064417326E+03  0.87147696944E+03  0.20687522889E+01 0.  0.
         13    1    3    3    0    0 -0.21543788959E+00 -0.10153242664E+00 -0.32455501568E+01  0.32542768995E+01  0.00000000000E+00 0.  1.
          3    1    3    3  501    0 -0.37817296758E+02  0.35291126053E+00 -0.86739862311E+03  0.86822269254E+03  0.00000000000E+00 0.  1.
         -3    1    1    2    0  502  0.38032734648E+02 -0.25137883388E+00 -0.12613471617E+03  0.13174414112E+03  0.00000000000E+00 0. -1.
<mgrwt>
<rscale>  1 0.30000000E+03</rscale>
<asrwt>0</asrwt>
<pdfrwt beam="1">  1       21 0.11713154E-01 0.30000000E+03</pdfrwt>
<pdfrwt beam="2">0</pdfrwt>
<totfact> 0.64749122E+03</totfact>
</mgrwt>
</event>
<event>
 6    1  0.1198667E-001  0.3000000E+03  0.7818608E-02  0.1093470E+00
         21   -1    0    0  501  502  0.00000000000E+00  0.00000000000E+00  0.43502906816E+01  0.43502906816E+01  0.00000000000E+00 0. -1.
         13   -1    0    0    0    0 -0.00000000000E+00 -0.00000000000E+00 -0.10000000000E+04  0.10000000000E+04  0.00000000000E+00 0.  1.
    9000005    2    1    2  501    0 -0.63895567090E+01  0.37320791806E+02 -0.90890129908E+03  0.90969853627E+03  0.40233655189E+01 0.  0.
         13    1    3    3    0    0 -0.62368548327E+01  0.36406830806E+02 -0.89744993960E+03  0.89820974709E+03  0.00000000000E+00 0.  1.
          3    1    3    3  501    0 -0.15270187629E+00  0.91396099927E+00 -0.11451359488E+02  0.11488789174E+02  0.00000000000E+00 0.  1.
         -1    1    1    2    0  502  0.63895567090E+01 -0.37320791806E+02 -0.86748410234E+02  0.94651754416E+02  0.00000000000E+00 0. -1.
<mgrwt>
<rscale>  1 0.30000000E+03</rscale>
<asrwt>0</asrwt>
<pdfrwt beam="1">  1       21 0.15819272E-01 0.30000000E+03</pdfrwt>
<pdfrwt beam="2">0</pdfrwt>
<totfact> 0.37307973E+03</totfact>
</mgrwt>
</event>
<event>
 6    1  0.1198667E-001  0.3000000E+03  0.7818608E-02  0.1093470E+00
         21   -1    0    0  501  502  0.00000000000E+00  0.00000000000E+00  0.13482760247E+01  0.13482760247E+01  0.00000000000E+00 0. -1.
         13   -1    0    0    0    0 -0.00000000000E+00 -0.00000000000E+00 -0.10000000000E+04  0.10000000000E+04  0.00000000000E+00 0.  1.
    9000005    2    1    2  501    0  0.85670408356E+01 -0.34876862977E+02 -0.41483574008E+03  0.41642871505E+03  0.58646150888E+01 0.  0.
         13    1    3    3    0    0  0.33053188868E+01 -0.59826631814E+01 -0.96087266892E+02  0.96330058914E+02  0.00000000000E+00 0.  1.
          1    1    3    3  501    0  0.52617219488E+01 -0.28894199796E+02 -0.31874847319E+03  0.32009865614E+03  0.00000000000E+00 0.  1.
         -3    1    1    2    0  502 -0.85670408356E+01  0.34876862977E+02 -0.58381598389E+03  0.58491956097E+03  0.00000000000E+00 0. -1.
<mgrwt>
<rscale>  1 0.30000000E+03</rscale>
<asrwt>0</asrwt>
<pdfrwt beam="1">  1       21 0.49028322E-02 0.30000000E+03</pdfrwt>
<pdfrwt beam="2">0</pdfrwt>
<totfact> 0.29784148E+04</totfact>
</mgrwt>
</event>
<event>
 6    1  0.1198667E-001  0.3000000E+03  0.7818608E-02  0.1093470E+00
         21   -1    0    0  501  502  0.00000000000E+00  0.00000000000E+00  0.46292365876E+01  0.46292365876E+01  0.00000000000E+00 0. -1.
         13   -1    0    0    0    0 -0.00000000000E+00 -0.00000000000E+00 -0.10000000000E+04  0.10000000000E+04  0.00000000000E+00 0.  1.
    9000005    2    1    2  501    0  0.66553803608E+01  0.30714129203E+02 -0.94316559084E+03  0.94369458419E+03  0.32380007868E+01 0.  0.
         13    1    3    3    0    0  0.76871018446E+00  0.87614653484E+01 -0.23590415971E+03  0.23606805536E+03  0.00000000000E+00 0.  1.
          3    1    3    3  501    0  0.58866701763E+01  0.21952663854E+02 -0.70726143113E+03  0.70762652883E+03  0.00000000000E+00 0.  1.
         -3    1    1    2    0  502 -0.66553803608E+01 -0.30714129203E+02 -0.52205172569E+02  0.60934652402E+02  0.00000000000E+00 0. -1.
<mgrwt>
<rscale>  1 0.30000000E+03</rscale>
<asrwt>0</asrwt>
<pdfrwt beam="1">  1       21 0.16833623E-01 0.30000000E+03</pdfrwt>
<pdfrwt beam="2">0</pdfrwt>
<totfact> 0.33221307E+03</totfact>
</mgrwt>
</event>
<event>
 6    1  0.1198667E-001  0.3000000E+03  0.7818608E-02  0.1093470E+00
         21   -1    0    0  501  502  0.00000000000E+00  0.00000000000E+00  0.17408884846E+01  0.17408884846E+01  0.00000000000E+00 0. -1.
         13   -1    0    0    0    0 -0.00000000000E+00 -0.00000000000E+00 -0.10000000000E+04  0.10000000000E+04  0.00000000000E+00 0.  1.
    9000005    2    1    2  501    0  0.39584890820E+02  0.44297144672E+01 -0.64618876461E+03  0.64742448310E+03  0.34577251836E+01 0.  0.
         13    1    3    3    0    0  0.66477396750E+01  0.12168734654E+01 -0.13060297821E+03  0.13077771653E+03  0.00000000000E+00 0.  1.
          1    1    3    3  501    0  0.32937151145E+02  0.32128410018E+01 -0.51558578640E+03  0.51664676657E+03  0.00000000000E+00 0.  1.
         -3    1    1    2    0  502 -0.39584890820E+02 -0.44297144672E+01 -0.35207034691E+03  0.35431640538E+03  0.00000000000E+00 0. -1.
<mgrwt>
<rscale>  1 0.30000000E+03</rscale>
<asrwt>0</asrwt>
<pdfrwt beam="1">  1       21 0.63305169E-02 0.30000000E+03</pdfrwt>
<pdfrwt beam="2">0</pdfrwt>
<totfact> 0.19208287E+04</totfact>
</mgrwt>
</event>
<event>
 6    1  0.1198667E-001  0.3000000E+03  0.7818608E-02  0.1093470E+00
         21   -1    0    0  501  502  0.00000000000E+00  0.00000000000E+00  0.11585961896E+01  0.11585961896E+01  0.00000000000E+00 0. -1.
         13   -1    0    0    0    0 -0.00000000000E+00 -0.00000000000E+00 -0.10000000000E+04  0.10000000000E+04  0.00000000000E+00 0.  1.
    9000005    2    1    2  501    0  0.55780350278E+01 -0.30949676853E+02 -0.68898231139E+03  0.68970771061E+03  0.33322208499E+01 0.  0.
         13    1    3    3    0    0  0.84409071743E+00 -0.12943951910E+01 -0.26389986759E+02  0.26435191491E+02  0.00000000000E+00 0.  1.
          3    1    3    3  501    0  0.47339443104E+01 -0.29655281662E+02 -0.66259232463E+03  0.66327251911E+03  0.00000000000E+00 0.  1.
         -1    1    1    2    0  502 -0.55780350278E+01  0.30949676853E+02 -0.30985909243E+03  0.31145088558E+03  0.00000000000E+00 0. -1.
<mgrwt>
<rscale>  1 0.30000000E+03</rscale>
<asrwt>0</asrwt>
<pdfrwt beam="1">  1       21 0.42130859E-02 0.30000000E+03</pdfrwt>
<pdfrwt beam="2">0</pdfrwt>
<totfact> 0.38523538E+04</totfact>
</mgrwt>
</event>
<event>
 6    1  0.1198667E-001  0.3000000E+03  0.7818608E-02  0.1093470E+00
         21   -1    0    0  501  502  0.00000000000E+00  0.00000000000E+00  0.23722399988E+01  0.23722399988E+01  0.00000000000E+00 0. -1.
         13   -1    0    0    0    0 -0.00000000000E+00 -0.00000000000E+00 -0.10000000000E+04  0.10000000000E+04  0.00000000000E+00 0.  1.
    9000005    2    1    2  501    0 -0.90693770506E+01 -0.47385366739E+02 -0.56415754406E+03  0.56622541301E+03  0.31396244423E+01 0.  0.
         13    1    3    3    0    0  0.14796403734E+00 -0.55515583647E+00 -0.45390869477E+01  0.45753034520E+01  0.00000000000E+00 0.  1.
          1    1    3    3  501    0 -0.92173410879E+01 -0.46830210903E+02 -0.55961845711E+03  0.56165010956E+03  0.00000000000E+00 0.  1.
         -3    1    1    2    0  502  0.90693770506E+01  0.47385366739E+02 -0.43347021595E+03  0.43614682699E+03  0.00000000000E+00 0. -1.
<mgrwt>
<rscale>  1 0.30000000E+03</rscale>
<asrwt>0</asrwt>
<pdfrwt beam="1">  1       21 0.86263455E-02 0.30000000E+03</pdfrwt>
<pdfrwt beam="2">0</pdfrwt>
<totfact> 0.11186232E+04</totfact>
</mgrwt>
</event>
<event>
 6    1  0.1198667E-001  0.3000000E+03  0.7818608E-02  0.1093470E+00
         21   -1    0    0  501  502  0.00000000000E+00  0.00000000000E+00  0.59036848401E+01  0.59036848401E+01  0.00000000000E+00 0. -1.
         13   -1    0    0    0    0 -0.00000000000E+00 -0.00000000000E+00 -0.10000000000E+04  0.10000000000E+04  0.00000000000E+00 0.  1.
    9000005    2    1    2  501    0 -0.31393359701E+02 -0.75123387574E+01 -0.95343672558E+03  0.95398855707E+03  0.32556198898E+01 0.  0.
         13    1    3    3    0    0 -0.80834723702E+01 -0.51029843410E+00 -0.23086072863E+03  0.23100276828E+03  0.00000000000E+00 0.  1.
          3    1    3    3  501    0 -0.23309887331E+02 -0.70020403233E+01 -0.72257599695E+03  0.72298578879E+03  0.00000000000E+00 0.  1.
         -1    1    1    2    0  502  0.31393359701E+02  0.75123387574E+01 -0.40659589576E+02  0.51915127771E+02  0.00000000000E+00 0. -1.
<mgrwt>
<rscale>  1 0.30000000E+03</rscale>
<asrwt>0</asrwt>
<pdfrwt beam="1">  1       21 0.21467990E-01 0.30000000E+03</pdfrwt>
<pdfrwt beam="2">0</pdfrwt>
<totfact> 0.20949259E+03</totfact>
</mgrwt>
</event>
<event>
 6    1  0.1198667E-001  0.3000000E+03  0.7818608E-02  0.1093470E+00
         21   -1    0    0  501  502  0.00000000000E+00  0.00000000000E+00  0.12641480247E+01  0.12641480247E+01  0.00000000000E+00 0. -1.
         13   -1    0    0    0    0 -0.00000000000E+00 -0.00000000000E+00 -0.10000000000E+04  0.10000000000E+04  0.00000000000E+00 0.  1.
    9000005    2    1    2  501    0 -0.29163021004E+02 -0.10472262148E+02 -0.74390377433E+03  0.74455509508E+03  0.30518966585E+01 0.  0.
         13    1    3    3    0    0 -0.31191452934E+01 -0.76417420999E+00 -0.58626167109E+02  0.58714057086E+02  0.00000000000E+00 0.  1.
          3    1    3    3  501    0 -0.26043875710E+02 -0.97080879384E+01 -0.68527760722E+03  0.68584103799E+03  0.00000000000E+00 0.  1.
         -1    1    1    2    0  502  0.29163021004E+02  0.10472262148E+02 -0.25483207764E+03  0.25670905295E+03  0.00000000000E+00 0. -1.
<mgrwt>
<rscale>  1 0.30000000E+03</rscale>
<asrwt>0</asrwt>
<pdfrwt beam="1">  1       21 0.45969116E-02 0.30000000E+03</pdfrwt>
<pdfrwt beam="2">0</pdfrwt>
<totfact> 0.33233683E+04</totfact>
</mgrwt>
</event>
<event>
 6    1  0.1198667E-001  0.3000000E+03  0.7818608E-02  0.1093470E+00
         21   -1    0    0  501  502  0.00000000000E+00  0.00000000000E+00  0.94836002879E+00  0.94836002879E+00  0.00000000000E+00 0. -1.
         13   -1    0    0    0    0 -0.00000000000E+00 -0.00000000000E+00 -0.10000000000E+04  0.10000000000E+04  0.00000000000E+00 0.  1.
    9000005    2    1    2  501    0  0.30562490702E+02 -0.24641884665E+01 -0.49633647962E+03  0.49729900730E+03  0.40328143811E+01 0.  0.
         13    1    3    3    0    0  0.61230276782E+01  0.12746844124E+00 -0.77152453826E+02  0.77395147442E+02  0.00000000000E+00 0.  1.
          3    1    3    3  501    0  0.24439463024E+02 -0.25916569078E+01 -0.41918402580E+03  0.41990385985E+03  0.00000000000E+00 0.  1.
         -3    1    1    2    0  502 -0.30562490702E+02  0.24641884665E+01 -0.50271516035E+03  0.50364935273E+03  0.00000000000E+00 0. -1.
<mgrwt>
<rscale>  1 0.30000000E+03</rscale>
<asrwt>0</asrwt>
<pdfrwt beam="1">  1       21 0.34485892E-02 0.30000000E+03</pdfrwt>
<pdfrwt beam="2">0</pdfrwt>
<totfact> 0.53936143E+04</totfact>
</mgrwt>
</event>
<event>
 6    1  0.1198667E-001  0.3000000E+03  0.7818608E-02  0.1093470E+00
         21   -1    0    0  501  502  0.00000000000E+00  0.00000000000E+00  0.39147096913E+01  0.39147096913E+01  0.00000000000E+00 0. -1.
         13   -1    0    0    0    0 -0.00000000000E+00 -0.00000000000E+00 -0.10000000000E+04  0.10000000000E+04  0.00000000000E+00 0.  1.
    9000005    2    1    2  501    0  0.26065985963E+02 -0.31859407611E+02 -0.87597173294E+03  0.87694335803E+03  0.29527639412E+01 0.  0.
         13    1    3    3    0    0  0.19881486859E+02 -0.22443256171E+02 -0.64903825920E+03  0.64973043269E+03  0.00000000000E+00 0.  1.
          1    1    3    3  501    0  0.61844991040E+01 -0.94161514404E+01 -0.22693347374E+03  0.22721292534E+03  0.00000000000E+00 0.  1.
         -1    1    1    2    0  502 -0.26065985963E+02  0.31859407611E+02 -0.12011355737E+03  0.12697135166E+03  0.00000000000E+00 0. -1.
<mgrwt>
<rscale>  1 0.30000000E+03</rscale>
<asrwt>0</asrwt>
<pdfrwt beam="1">  1       21 0.14235338E-01 0.30000000E+03</pdfrwt>
<pdfrwt beam="2">0</pdfrwt>
<totfact> 0.45354966E+03</totfact>
</mgrwt>
</event>
<event>
 6    1  0.1198667E-001  0.3000000E+03  0.7818608E-02  0.1093470E+00
         21   -1    0    0  501  502  0.00000000000E+00  0.00000000000E+00  0.12815087266E+01  0.12815087266E+01  0.00000000000E+00 0. -1.
         13   -1    0    0    0    0 -0.00000000000E+00 -0.00000000000E+00 -0.10000000000E+04  0.10000000000E+04  0.00000000000E+00 0.  1.
    9000005    2    1    2  501    0 -0.33949639865E+02 -0.93537542026E+01 -0.58254078484E+03  0.58361662620E+03  0.38117724410E+01 0.  0.
         13    1    3    3    0    0 -0.31750718000E+02 -0.77082359819E+01 -0.53625287275E+03  0.53724730668E+03  0.00000000000E+00 0.  1.
          1    1    3    3  501    0 -0.21989218650E+01 -0.16455182207E+01 -0.46287912091E+02  0.46369319526E+02  0.00000000000E+00 0.  1.
         -1    1    1    2    0  502  0.33949639865E+02  0.93537542026E+01 -0.41617770643E+03  0.41766488252E+03  0.00000000000E+00 0. -1.
<mgrwt>
<rscale>  1 0.30000000E+03</rscale>
<asrwt>0</asrwt>
<pdfrwt beam="1">  1       21 0.46600416E-02 0.30000000E+03</pdfrwt>
<pdfrwt beam="2">0</pdfrwt>
<totfact> 0.32472249E+04</totfact>
</mgrwt>
</event>
<event>
 6    1  0.1198667E-001  0.3000000E+03  0.7818608E-02  0.1093470E+00
         21   -1    0    0  501  502  0.00000000000E+00  0.00000000000E+00  0.31062481897E+01  0.31062481897E+01  0.00000000000E+00 0. -1.
         13   -1    0    0    0    0 -0.00000000000E+00 -0.00000000000E+00 -0.10000000000E+04  0.10000000000E+04  0.00000000000E+00 0.  1.
    9000005    2    1    2  501    0 -0.16872230372E+02  0.47777063390E+02 -0.70620076490E+03  0.70803043999E+03  0.45015184301E+01 0.  0.
         13    1    3    3    0    0 -0.15500007259E+02  0.40744287679E+02 -0.58917877476E+03  0.59078928209E+03  0.00000000000E+00 0.  1.
          1    1    3    3  501    0 -0.13722231124E+01  0.70327757109E+01 -0.11702199014E+03  0.11724115791E+03  0.00000000000E+00 0.  1.
         -1    1    1    2    0  502  0.16872230372E+02 -0.47777063390E+02 -0.29069298691E+03  0.29507580820E+03  0.00000000000E+00 0. -1.
<mgrwt>
<rscale>  1 0.30000000E+03</rscale>
<asrwt>0</asrwt>
<pdfrwt beam="1">  1       21 0.11295472E-01 0.30000000E+03</pdfrwt>
<pdfrwt beam="2">0</pdfrwt>
<totfact> 0.69139115E+03</totfact>
</mgrwt>
</event>
<event>
 6    1  0.1198667E-001  0.3000000E+03  0.7818608E-02  0.1093470E+00
         21   -1    0    0  501  502  0.00000000000E+00  0.00000000000E+00  0.65729733765E+01  0.65729733765E+01  0.00000000000E+00 0. -1.
         13   -1    0    0    0    0 -0.00000000000E+00 -0.00000000000E+00 -0.10000000000E+04  0.10000000000E+04  0.00000000000E+00 0.  1.
    9000005    2    1    2  501    0  0.34284451122E+02 -0.14256293506E+02 -0.94408806337E+03  0.94482348926E+03  0.32386686633E+01 0.  0.
         13    1    3    3    0    0  0.17708584126E+01 -0.98657196141E+00 -0.36451640923E+02  0.36507963374E+02  0.00000000000E+00 0.  1.
          1    1    3    3  501    0  0.32513592709E+02 -0.13269721544E+02 -0.90763642245E+03  0.90831552589E+03  0.00000000000E+00 0.  1.
         -3    1    1    2    0  502 -0.34284451122E+02  0.14256293506E+02 -0.49338963256E+02  0.61749484114E+02  0.00000000000E+00 0. -1.
<mgrwt>
<rscale>  1 0.30000000E+03</rscale>
<asrwt>0</asrwt>
<pdfrwt beam="1">  1       21 0.23901772E-01 0.30000000E+03</pdfrwt>
<pdfrwt beam="2">0</pdfrwt>
<totfact> 0.17024335E+03</totfact>
</mgrwt>
</event>
<event>
 6    1  0.1198667E-001  0.3000000E+03  0.7818608E-02  0.1093470E+00
         21   -1    0    0  501  502  0.00000000000E+00  0.00000000000E+00  0.14922614476E+01  0.14922614476E+01  0.00000000000E+00 0. -1.
         13   -1    0    0    0    0 -0.00000000000E+00 -0.00000000000E+00 -0.10000000000E+04  0.10000000000E+04  0.00000000000E+00 0.  1.
    9000005    2    1    2  501    0 -0.42731435792E+00  0.30462517182E+02 -0.80670419812E+03  0.80728426555E+03  0.28415804276E+01 0.  0.
         13    1    3    3    0    0 -0.31798306493E+00  0.29294369226E+02 -0.78707708002E+03  0.78762211185E+03  0.00000000000E+00 0.  1.
          1    1    3    3  501    0 -0.10933129299E+00  0.11681479559E+01 -0.19627118098E+02  0.19662153692E+02  0.00000000000E+00 0.  1.
         -1    1    1    2    0  502  0.42731435792E+00 -0.30462517182E+02 -0.19180354043E+03  0.19420799590E+03  0.00000000000E+00 0. -1.
<mgrwt>
<rscale>  1 0.30000000E+03</rscale>
<asrwt>0</asrwt>
<pdfrwt beam="1">  1       21 0.54264167E-02 0.30000000E+03</pdfrwt>
<pdfrwt beam="2">0</pdfrwt>
<totfact> 0.25045677E+04</totfact>
</mgrwt>
</event>
<event>
 6    1  0.1198667E-001  0.3000000E+03  0.7818608E-02  0.1093470E+00
         21   -1    0    0  501  502  0.00000000000E+00  0.00000000000E+00  0.69200603403E+01  0.69200603403E+01  0.00000000000E+00 0. -1.
         13   -1    0    0    0    0 -0.00000000000E+00 -0.00000000000E+00 -0.10000000000E+04  0.10000000000E+04  0.00000000000E+00 0.  1.
    9000005    2    1    2  501    0  0.29775587928E+02 -0.26247078114E+02 -0.93895498264E+03  0.93980072096E+03  0.36661906961E+01 0.  0.
         13    1    3    3    0    0 -0.11297922143E-01 -0.42783552017E+00 -0.12999329838E+02  0.13006373327E+02  0.00000000000E+00 0.  1.
          1    1    3    3  501    0  0.29786885850E+02 -0.25819242594E+02 -0.92595565280E+03  0.92679434764E+03  0.00000000000E+00 0.  1.
         -1    1    1    2    0  502 -0.29775587928E+02  0.26247078114E+02 -0.54124957021E+02  0.67119339377E+02  0.00000000000E+00 0. -1.
<mgrwt>
<rscale>  1 0.30000000E+03</rscale>
<asrwt>0</asrwt>
<pdfrwt beam="1">  1       21 0.25163909E-01 0.30000000E+03</pdfrwt>
<pdfrwt beam="2">0</pdfrwt>
<totfact> 0.15397664E+03</totfact>
</mgrwt>
</event>
<event>
 6    1  0.1198667E-001  0.3000000E+03  0.7818608E-02  0.1093470E+00
         21   -1    0    0  501  502  0.00000000000E+00  0.00000000000E+00  0.31195489052E+01  0.31195489052E+01  0.00000000000E+00 0. -1.
         13   -1    0    0    0    0 -0.00000000000E+00 -0.00000000000E+00 -0.10000000000E+04  0.10000000000E+04  0.00000000000E+00 0.  1.
    9000005    2    1    2  501    0  0.37750446125E+02 -0.59887016107E+01 -0.86398979213E+03  0.86484124992E+03  0.33265496009E+01 0.  0.
         13    1    3    3    0    0  0.25744435256E+02 -0.55067182182E+01 -0.57868448087E+03  0.57928302952E+03  0.00000000000E+00 0.  1.
          3    1    3    3  501    0  0.12006010869E+02 -0.48198339249E+00 -0.28530531126E+03  0.28555822040E+03  0.00000000000E+00 0.  1.
         -1    1    1    2    0  502 -0.37750446125E+02  0.59887016107E+01 -0.13289065897E+03  0.13827829899E+03  0.00000000000E+00 0. -1.
<mgrwt>
<rscale>  1 0.30000000E+03</rscale>
<asrwt>0</asrwt>
<pdfrwt beam="1">  1       21 0.11343838E-01 0.30000000E+03</pdfrwt>
<pdfrwt beam="2">0</pdfrwt>
<totfact> 0.68608294E+03</totfact>
</mgrwt>
</event>
<event>
 6    1  0.1198667E-001  0.3000000E+03  0.7818608E-02  0.1093470E+00
         21   -1    0    0  501  502  0.00000000000E+00  0.00000000000E+00  0.20010922433E+02  0.20010922433E+02  0.00000000000E+00 0. -1.
         13   -1    0    0    0    0 -0.00000000000E+00 -0.00000000000E+00 -0.10000000000E+04  0.10000000000E+04  0.00000000000E+00 0.  1.
    9000005    2    1    2  501    0 -0.81182650575E+02 -0.30434394018E+02 -0.89295706916E+03  0.89716367753E+03  0.36690348140E+01 0.  0.
         13    1    3    3    0    0 -0.58911521899E+02 -0.23818190109E+02 -0.65316781187E+03  0.65625152499E+03  0.00000000000E+00 0.  1.
          3    1    3    3  501    0 -0.22271128676E+02 -0.66162039089E+01 -0.23978925729E+03  0.24091215254E+03  0.00000000000E+00 0.  1.
         -3    1    1    2    0  502  0.81182650575E+02  0.30434394018E+02 -0.87032008406E+02  0.12284724491E+03  0.00000000000E+00 0. -1.
<mgrwt>
<rscale>  1 0.30000000E+03</rscale>
<asrwt>0</asrwt>
<pdfrwt beam="1">  1       21 0.72767144E-01 0.30000000E+03</pdfrwt>
<pdfrwt beam="2">0</pdfrwt>
<totfact> 0.16111955E+02</totfact>
</mgrwt>
</event>
<event>
 6    1  0.1198667E-001  0.3000000E+03  0.7818608E-02  0.1093470E+00
         21   -1    0    0  501  502  0.00000000000E+00  0.00000000000E+00  0.18545643246E+01  0.18545643246E+01  0.00000000000E+00 0. -1.
         13   -1    0    0    0    0 -0.00000000000E+00 -0.00000000000E+00 -0.10000000000E+04  0.10000000000E+04  0.00000000000E+00 0.  1.
    9000005    2    1    2  501    0 -0.39345592356E+02  0.16853649689E+02 -0.54624001567E+03  0.54792656367E+03  0.36391363354E+01 0.  0.
         13    1    3    3    0    0 -0.49769815186E+01  0.11207960715E+01 -0.56316106510E+02  0.56546709730E+02  0.00000000000E+00 0.  1.
          3    1    3    3  501    0 -0.34368610837E+02  0.15732853617E+02 -0.48992390916E+03  0.49137985394E+03  0.00000000000E+00 0.  1.
         -1    1    1    2    0  502  0.39345592356E+02 -0.16853649689E+02 -0.45190542001E+03  0.45392800065E+03  0.00000000000E+00 0. -1.
<mgrwt>
<rscale>  1 0.30000000E+03</rscale>
<asrwt>0</asrwt>
<pdfrwt beam="1">  1       21 0.67438845E-02 0.30000000E+03</pdfrwt>
<pdfrwt beam="2">0</pdfrwt>
<totfact> 0.17215066E+04</totfact>
</mgrwt>
</event>
<event>
 6    1  0.1198667E-001  0.3000000E+03  0.7818608E-02  0.1093470E+00
         21   -1    0    0  501  502  0.00000000000E+00  0.00000000000E+00  0.93921597533E+01  0.93921597533E+01  0.00000000000E+00 0. -1.
         13   -1    0    0    0    0 -0.00000000000E+00 -0.00000000000E+00 -0.10000000000E+04  0.10000000000E+04  0.00000000000E+00 0.  1.
    9000005    2    1    2  501    0  0.25601354424E+02 -0.16792344388E+02 -0.97414145691E+03  0.97462789709E+03  0.32476964437E+01 0.  0.
         13    1    3    3    0    0  0.19506893808E+02 -0.14001452269E+02 -0.73226306584E+03  0.73265664343E+03  0.00000000000E+00 0.  1.
          1    1    3    3  501    0  0.60944606161E+01 -0.27908921187E+01 -0.24187839108E+03  0.24197125366E+03  0.00000000000E+00 0.  1.
         -1    1    1    2    0  502 -0.25601354424E+02  0.16792344388E+02 -0.16466383334E+02  0.34764262663E+02  0.00000000000E+00 0. -1.
<mgrwt>
<rscale>  1 0.30000000E+03</rscale>
<asrwt>0</asrwt>
<pdfrwt beam="1">  1       21 0.34153380E-01 0.30000000E+03</pdfrwt>
<pdfrwt beam="2">0</pdfrwt>
<totfact> 0.83660788E+02</totfact>
</mgrwt>
</event>
<event>
 6    1  0.1198667E-001  0.3000000E+03  0.7818608E-02  0.1093470E+00
         21   -1    0    0  501  502  0.00000000000E+00  0.00000000000E+00  0.12957963781E+01  0.12957963781E+01  0.00000000000E+00 0. -1.
         13   -1    0    0    0    0 -0.00000000000E+00 -0.00000000000E+00 -0.10000000000E+04  0.10000000000E+04  0.00000000000E+00 0.  1.
    9000005    2    1    2  501    0  0.34519711275E+01  0.33974006450E+02 -0.65542747993E+03  0.65632469868E+03  0.32832042429E+01 0.  0.
         13    1    3    3    0    0  0.18714993658E+01  0.85107515739E+01 -0.14808810096E+03  0.14834426531E+03  0.00000000000E+00 0.  1.
          1    1    3    3  501    0  0.15804717617E+01  0.25463254876E+02 -0.50733937897E+03  0.50798043338E+03  0.00000000000E+00 0.  1.
         -3    1    1    2    0  502 -0.34519711275E+01 -0.33974006450E+02 -0.34327672369E+03  0.34497109769E+03  0.00000000000E+00 0. -1.
<mgrwt>
<rscale>  1 0.30000000E+03</rscale>
<asrwt>0</asrwt>
<pdfrwt beam="1">  1       21 0.47119968E-02 0.30000000E+03</pdfrwt>
<pdfrwt beam="2">0</pdfrwt>
<totfact> 0.31865910E+04</totfact>
</mgrwt>
</event>
<event>
 6    1  0.1198667E-001  0.3000000E+03  0.7818608E-02  0.1093470E+00
         21   -1    0    0  501  502  0.00000000000E+00  0.00000000000E+00  0.27954480799E+01  0.27954480799E+01  0.00000000000E+00 0. -1.
         13   -1    0    0    0    0 -0.00000000000E+00 -0.00000000000E+00 -0.10000000000E+04  0.10000000000E+04  0.00000000000E+00 0.  1.
    9000005    2    1    2  501    0 -0.36201759869E+02 -0.25568252861E+02 -0.22652821912E+03  0.23084576520E+03  0.32295940279E+01 0.  0.
         13    1    3    3    0    0 -0.89012810676E+01 -0.80350737551E+01 -0.61717473317E+02  0.62871628956E+02  0.00000000000E+00 0.  1.
          3    1    3    3  501    0 -0.27300478802E+02 -0.17533179106E+02 -0.16481074581E+03  0.16797413624E+03  0.00000000000E+00 0.  1.
         -1    1    1    2    0  502  0.36201759869E+02  0.25568252861E+02 -0.77067633280E+03  0.77194968288E+03  0.00000000000E+00 0. -1.
<mgrwt>
<rscale>  1 0.30000000E+03</rscale>
<asrwt>0</asrwt>
<pdfrwt beam="1">  1       21 0.10165287E-01 0.30000000E+03</pdfrwt>
<pdfrwt beam="2">0</pdfrwt>
<totfact> 0.83547201E+03</totfact>
</mgrwt>
</event>
<event>
 6    1  0.1198667E-001  0.3000000E+03  0.7818608E-02  0.1093470E+00
         21   -1    0    0  501  502  0.00000000000E+00  0.00000000000E+00  0.31860939386E+01  0.31860939386E+01  0.00000000000E+00 0. -1.
         13   -1    0    0    0    0 -0.00000000000E+00 -0.00000000000E+00 -0.10000000000E+04  0.10000000000E+04  0.00000000000E+00 0.  1.
    9000005    2    1    2  501    0  0.14779879692E+02 -0.39551296255E+02 -0.83114910939E+03  0.83222535361E+03  0.27289676178E+01 0.  0.
         13    1    3    3    0    0  0.13290091346E+02 -0.35127323481E+02 -0.72134922322E+03  0.72232628170E+03  0.00000000000E+00 0.  1.
          1    1    3    3  501    0  0.14897883460E+01 -0.44239727739E+01 -0.10979988617E+03  0.10989907191E+03  0.00000000000E+00 0.  1.
         -3    1    1    2    0  502 -0.14779879692E+02  0.39551296255E+02 -0.16566479667E+03  0.17096074033E+03  0.00000000000E+00 0. -1.
<mgrwt>
<rscale>  1 0.30000000E+03</rscale>
<asrwt>0</asrwt>
<pdfrwt beam="1">  1       21 0.11585821E-01 0.30000000E+03</pdfrwt>
<pdfrwt beam="2">0</pdfrwt>
<totfact> 0.66042148E+03</totfact>
</mgrwt>
</event>
<event>
 6    1  0.1198667E-001  0.3000000E+03  0.7818608E-02  0.1093470E+00
         21   -1    0    0  501  502  0.00000000000E+00  0.00000000000E+00  0.78514752442E+01  0.78514752442E+01  0.00000000000E+00 0. -1.
         13   -1    0    0    0    0 -0.00000000000E+00 -0.00000000000E+00 -0.10000000000E+04  0.10000000000E+04  0.00000000000E+00 0.  1.
    9000005    2    1    2  501    0  0.74771511290E+02  0.43547518878E+02 -0.60398654854E+03  0.61016204229E+03  0.32865996772E+01 0.  0.
         13    1    3    3    0    0  0.18233327230E+02  0.10617619921E+02 -0.13755468285E+03  0.13916349682E+03  0.00000000000E+00 0.  1.
          3    1    3    3  501    0  0.56538184060E+02  0.32929898956E+02 -0.46643186569E+03  0.47099854547E+03  0.00000000000E+00 0.  1.
         -3    1    1    2    0  502 -0.74771511290E+02 -0.43547518878E+02 -0.38816197622E+03  0.39768943295E+03  0.00000000000E+00 0. -1.
<mgrwt>
<rscale>  1 0.30000000E+03</rscale>
<asrwt>0</asrwt>
<pdfrwt beam="1">  1       21 0.28550879E-01 0.30000000E+03</pdfrwt>
<pdfrwt beam="2">0</pdfrwt>
<totfact> 0.12000776E+03</totfact>
</mgrwt>
</event>
<event>
 6    1  0.1198667E-001  0.3000000E+03  0.7818608E-02  0.1093470E+00
         21   -1    0    0  501  502  0.00000000000E+00  0.00000000000E+00  0.26832288308E+01  0.26832288308E+01  0.00000000000E+00 0. -1.
         13   -1    0    0    0    0 -0.00000000000E+00 -0.00000000000E+00 -0.10000000000E+04  0.10000000000E+04  0.00000000000E+00 0.  1.
    9000005    2    1    2  501    0 -0.44627572683E+02  0.24116154088E+02 -0.40272890506E+03  0.40593542645E+03  0.44486333060E+01 0.  0.
         13    1    3    3    0    0 -0.26570665298E+02  0.12072263648E+02 -0.23803045392E+03  0.23981292042E+03  0.00000000000E+00 0.  1.
          3    1    3    3  501    0 -0.18056907386E+02  0.12043890440E+02 -0.16469845114E+03  0.16612250603E+03  0.00000000000E+00 0.  1.
         -1    1    1    2    0  502  0.44627572683E+02 -0.24116154088E+02 -0.59458786611E+03  0.59674780239E+03  0.00000000000E+00 0. -1.
<mgrwt>
<rscale>  1 0.30000000E+03</rscale>
<asrwt>0</asrwt>
<pdfrwt beam="1">  1       21 0.97572163E-02 0.30000000E+03</pdfrwt>
<pdfrwt beam="2">0</pdfrwt>
<totfact> 0.89891621E+03</totfact>
</mgrwt>
</event>
<event>
 6    1  0.1198667E-001  0.3000000E+03  0.7818608E-02  0.1093470E+00
         21   -1    0    0  501  502  0.00000000000E+00  0.00000000000E+00  0.13524750057E+01  0.13524750057E+01  0.00000000000E+00 0. -1.
         13   -1    0    0    0    0 -0.00000000000E+00 -0.00000000000E+00 -0.10000000000E+04  0.10000000000E+04  0.00000000000E+00 0.  1.
    9000005    2    1    2  501    0 -0.32476697102E+02 -0.56678696795E+01 -0.71967830064E+03  0.72044201109E+03  0.36019894063E+01 0.  0.
         13    1    3    3    0    0 -0.17279119983E+01  0.46678636955E+00 -0.44776865694E+02  0.44812624011E+02  0.00000000000E+00 0.  1.
          3    1    3    3  501    0 -0.30748785104E+02 -0.61346560490E+01 -0.67490143494E+03  0.67562938708E+03  0.00000000000E+00 0.  1.
         -3    1    1    2    0  502  0.32476697102E+02  0.56678696795E+01 -0.27896922436E+03  0.28091046392E+03  0.00000000000E+00 0. -1.
<mgrwt>
<rscale>  1 0.30000000E+03</rscale>
<asrwt>0</asrwt>
<pdfrwt beam="1">  1       21 0.49181013E-02 0.30000000E+03</pdfrwt>
<pdfrwt beam="2">0</pdfrwt>
<totfact> 0.29626819E+04</totfact>
</mgrwt>
</event>
<event>
 6    1  0.1198667E-001  0.3000000E+03  0.7818608E-02  0.1093470E+00
         21   -1    0    0  501  502  0.00000000000E+00  0.00000000000E+00  0.26347690352E+01  0.26347690352E+01  0.00000000000E+00 0. -1.
         13   -1    0    0    0    0 -0.00000000000E+00 -0.00000000000E+00 -0.10000000000E+04  0.10000000000E+04  0.00000000000E+00 0.  1.
    9000005    2    1    2  501    0 -0.49907689733E+02  0.62246838971E+01 -0.59722604441E+03  0.59934716347E+03  0.29240479290E+01 0.  0.
         13    1    3    3    0    0 -0.98815763821E+00 -0.22343632708E+00 -0.96974400129E+01  0.97502165162E+01  0.00000000000E+00 0.  1.
          3    1    3    3  501    0 -0.48919532095E+02  0.64481202242E+01 -0.58752860440E+03  0.58959694696E+03  0.00000000000E+00 0.  1.
         -3    1    1    2    0  502  0.49907689733E+02 -0.62246838971E+01 -0.40013918655E+03  0.40328760556E+03  0.00000000000E+00 0. -1.
<mgrwt>
<rscale>  1 0.30000000E+03</rscale>
<asrwt>0</asrwt>
<pdfrwt beam="1">  1       21 0.95809985E-02 0.30000000E+03</pdfrwt>
<pdfrwt beam="2">0</pdfrwt>
<totfact> 0.92861535E+03</totfact>
</mgrwt>
</event>
<event>
 6    1  0.1198667E-001  0.3000000E+03  0.7818608E-02  0.1093470E+00
         21   -1    0    0  501  502  0.00000000000E+00  0.00000000000E+00  0.10132607598E+01  0.10132607598E+01  0.00000000000E+00 0. -1.
         13   -1    0    0    0    0 -0.00000000000E+00 -0.00000000000E+00 -0.10000000000E+04  0.10000000000E+04  0.00000000000E+00 0.  1.
    9000005    2    1    2  501    0  0.26760064753E+02  0.17065024142E+02 -0.50934032808E+03  0.51033931191E+03  0.33656145069E+01 0.  0.
         13    1    3    3    0    0  0.12496426207E+02  0.75644192473E+01 -0.20832371612E+03  0.20883522645E+03  0.00000000000E+00 0.  1.
          3    1    3    3  501    0  0.14263638546E+02  0.95006048943E+01 -0.30101661196E+03  0.30150408546E+03  0.00000000000E+00 0.  1.
         -3    1    1    2    0  502 -0.26760064753E+02 -0.17065024142E+02 -0.48964641116E+03  0.49067394885E+03  0.00000000000E+00 0. -1.
<mgrwt>
<rscale>  1 0.30000000E+03</rscale>
<asrwt>0</asrwt>
<pdfrwt beam="1">  1       21 0.36845924E-02 0.30000000E+03</pdfrwt>
<pdfrwt beam="2">0</pdfrwt>
<totfact> 0.48272336E+04</totfact>
</mgrwt>
</event>
<event>
 6    1  0.1198667E-001  0.3000000E+03  0.7818608E-02  0.1093470E+00
         21   -1    0    0  501  502  0.00000000000E+00  0.00000000000E+00  0.23556885806E+01  0.23556885806E+01  0.00000000000E+00 0. -1.
         13   -1    0    0    0    0 -0.00000000000E+00 -0.00000000000E+00 -0.10000000000E+04  0.10000000000E+04  0.00000000000E+00 0.  1.
    9000005    2    1    2  501    0 -0.42095250689E+02 -0.81990273069E+00 -0.74744900311E+03  0.74864251457E+03  0.35944383222E+01 0.  0.
         13    1    3    3    0    0 -0.40033630389E+01  0.75848603515E+00 -0.61453810407E+02  0.61588741100E+02  0.00000000000E+00 0.  1.
          3    1    3    3  501    0 -0.38091887650E+02 -0.15783887658E+01 -0.68599519271E+03  0.68705377347E+03  0.00000000000E+00 0.  1.
         -3    1    1    2    0  502  0.42095250689E+02  0.81990273069E+00 -0.25019530830E+03  0.25371317401E+03  0.00000000000E+00 0. -1.
<mgrwt>
<rscale>  1 0.30000000E+03</rscale>
<asrwt>0</asrwt>
<pdfrwt beam="1">  1       21 0.85661584E-02 0.30000000E+03</pdfrwt>
<pdfrwt beam="2">0</pdfrwt>
<totfact> 0.11325316E+04</totfact>
</mgrwt>
</event>
<event>
 6    1  0.1198667E-001  0.3000000E+03  0.7818608E-02  0.1093470E+00
         21   -1    0    0  501  502  0.00000000000E+00  0.00000000000E+00  0.17027863795E+01  0.17027863795E+01  0.00000000000E+00 0. -1.
         13   -1    0    0    0    0 -0.00000000000E+00 -0.00000000000E+00 -0.10000000000E+04  0.10000000000E+04  0.00000000000E+00 0.  1.
    9000005    2    1    2  501    0  0.22959037521E+02  0.27131753289E+02 -0.74879742947E+03  0.74968415268E+03  0.80925248836E+01 0.  0.
         13    1    3    3    0    0  0.71122644488E+01  0.33284779267E+01 -0.16566369630E+03  0.16584970107E+03  0.00000000000E+00 0.  1.
          3    1    3    3  501    0  0.15846773072E+02  0.23803275362E+02 -0.58313373316E+03  0.58383445161E+03  0.00000000000E+00 0.  1.
         -3    1    1    2    0  502 -0.22959037521E+02 -0.27131753289E+02 -0.24949978415E+03  0.25201863370E+03  0.00000000000E+00 0. -1.
<mgrwt>
<rscale>  1 0.30000000E+03</rscale>
<asrwt>0</asrwt>
<pdfrwt beam="1">  1       21 0.61919635E-02 0.30000000E+03</pdfrwt>
<pdfrwt beam="2">0</pdfrwt>
<totfact> 0.19956995E+04</totfact>
</mgrwt>
</event>
<event>
 6    1  0.1198667E-001  0.3000000E+03  0.7818608E-02  0.1093470E+00
         21   -1    0    0  501  502  0.00000000000E+00  0.00000000000E+00  0.28743353626E+01  0.28743353626E+01  0.00000000000E+00 0. -1.
         13   -1    0    0    0    0 -0.00000000000E+00 -0.00000000000E+00 -0.10000000000E+04  0.10000000000E+04  0.00000000000E+00 0.  1.
    9000005    2    1    2  501    0  0.39886165375E+02 -0.30206415925E+02 -0.67759686150E+03  0.67945202663E+03  0.37704145458E+01 0.  0.
         13    1    3    3    0    0  0.48821668137E+01 -0.40137761980E+01 -0.70286755657E+02  0.70570347689E+02  0.00000000000E+00 0.  1.
          3    1    3    3  501    0  0.35003998562E+02 -0.26192639727E+02 -0.60731010584E+03  0.60888167894E+03  0.00000000000E+00 0.  1.
         -3    1    1    2    0  502 -0.39886165375E+02  0.30206415925E+02 -0.31952880314E+03  0.32342230873E+03  0.00000000000E+00 0. -1.
<mgrwt>
<rscale>  1 0.30000000E+03</rscale>
<asrwt>0</asrwt>
<pdfrwt beam="1">  1       21 0.10452151E-01 0.30000000E+03</pdfrwt>
<pdfrwt beam="2">0</pdfrwt>
<totfact> 0.79486725E+03</totfact>
</mgrwt>
</event>
<event>
 6    1  0.1198667E-001  0.3000000E+03  0.7818608E-02  0.1093470E+00
         21   -1    0    0  501  502  0.00000000000E+00  0.00000000000E+00  0.10930350744E+01  0.10930350744E+01  0.00000000000E+00 0. -1.
         13   -1    0    0    0    0 -0.00000000000E+00 -0.00000000000E+00 -0.10000000000E+04  0.10000000000E+04  0.00000000000E+00 0.  1.
    9000005    2    1    2  501    0 -0.19084845311E+01 -0.30671018831E+02 -0.68180641336E+03  0.68250691875E+03  0.33697385584E+01 0.  0.
         13    1    3    3    0    0 -0.67815250645E+00 -0.45093770212E+01 -0.12871503971E+03  0.12879579115E+03  0.00000000000E+00 0.  1.
          1    1    3    3  501    0 -0.12303320246E+01 -0.26161641810E+02 -0.55309137365E+03  0.55371112760E+03  0.00000000000E+00 0.  1.
         -3    1    1    2    0  502  0.19084845311E+01  0.30671018831E+02 -0.31710055156E+03  0.31858611632E+03  0.00000000000E+00 0. -1.
<mgrwt>
<rscale>  1 0.30000000E+03</rscale>
<asrwt>0</asrwt>
<pdfrwt beam="1">  1       21 0.39746814E-02 0.30000000E+03</pdfrwt>
<pdfrwt beam="2">0</pdfrwt>
<totfact> 0.42499285E+04</totfact>
</mgrwt>
</event>
<event>
 6    1  0.1198667E-001  0.3000000E+03  0.7818608E-02  0.1093470E+00
         21   -1    0    0  501  502  0.00000000000E+00  0.00000000000E+00  0.20478550918E+01  0.20478550918E+01  0.00000000000E+00 0. -1.
         13   -1    0    0    0    0 -0.00000000000E+00 -0.00000000000E+00 -0.10000000000E+04  0.10000000000E+04  0.00000000000E+00 0.  1.
    9000005    2    1    2  501    0 -0.30073223039E+02 -0.33743279929E+02 -0.49662044562E+03  0.49868269897E+03  0.30918541089E+01 0.  0.
         13    1    3    3    0    0 -0.46963772750E+01 -0.39221549908E+01 -0.61210890752E+02  0.61515952450E+02  0.00000000000E+00 0.  1.
          1    1    3    3  501    0 -0.25376845764E+02 -0.29821124938E+02 -0.43540955487E+03  0.43716674652E+03  0.00000000000E+00 0.  1.
         -1    1    1    2    0  502  0.30073223039E+02  0.33743279929E+02 -0.50133169929E+03  0.50336515612E+03  0.00000000000E+00 0. -1.
<mgrwt>
<rscale>  1 0.30000000E+03</rscale>
<asrwt>0</asrwt>
<pdfrwt beam="1">  1       21 0.74467615E-02 0.30000000E+03</pdfrwt>
<pdfrwt beam="2">0</pdfrwt>
<totfact> 0.14483969E+04</totfact>
</mgrwt>
</event>
<event>
 6    1  0.1198667E-001  0.3000000E+03  0.7818608E-02  0.1093470E+00
         21   -1    0    0  501  502  0.00000000000E+00  0.00000000000E+00  0.15387202083E+01  0.15387202083E+01  0.00000000000E+00 0. -1.
         13   -1    0    0    0    0 -0.00000000000E+00 -0.00000000000E+00 -0.10000000000E+04  0.10000000000E+04  0.00000000000E+00 0.  1.
    9000005    2    1    2  501    0 -0.38465487015E+02 -0.53360666834E+01 -0.43280927775E+03  0.43455525068E+03  0.25154905207E+01 0.  0.
         13    1    3    3    0    0 -0.21210189498E+02 -0.34977265614E+01 -0.25194997482E+03  0.25286537138E+03  0.00000000000E+00 0.  1.
          3    1    3    3  501    0 -0.17255297516E+02 -0.18383401220E+01 -0.18085930293E+03  0.18168987931E+03  0.00000000000E+00 0.  1.
         -1    1    1    2    0  502  0.38465487015E+02  0.53360666834E+01 -0.56565200204E+03  0.56698346953E+03  0.00000000000E+00 0. -1.
<mgrwt>
<rscale>  1 0.30000000E+03</rscale>
<asrwt>0</asrwt>
<pdfrwt beam="1">  1       21 0.55953580E-02 0.30000000E+03</pdfrwt>
<pdfrwt beam="2">0</pdfrwt>
<totfact> 0.23762872E+04</totfact>
</mgrwt>
</event>
<event>
 6    1  0.1198667E-001  0.3000000E+03  0.7818608E-02  0.1093470E+00
         21   -1    0    0  501  502  0.00000000000E+00  0.00000000000E+00  0.24606525478E+01  0.24606525478E+01  0.00000000000E+00 0. -1.
         13   -1    0    0    0    0 -0.00000000000E+00 -0.00000000000E+00 -0.10000000000E+04  0.10000000000E+04  0.00000000000E+00 0.  1.
    9000005    2    1    2  501    0 -0.18844232809E+02 -0.24306901505E+02 -0.89189535946E+03  0.89243073494E+03  0.30584080035E+01 0.  0.
         13    1    3    3    0    0 -0.77132804506E+01 -0.76439375488E+01 -0.30292614849E+03  0.30312072828E+03  0.00000000000E+00 0.  1.
          1    1    3    3  501    0 -0.11130952359E+02 -0.16662963956E+02 -0.58896921097E+03  0.58931000665E+03  0.00000000000E+00 0.  1.
         -1    1    1    2    0  502  0.18844232809E+02  0.24306901505E+02 -0.10564398799E+03  0.11002991761E+03  0.00000000000E+00 0. -1.
<mgrwt>
<rscale>  1 0.30000000E+03</rscale>
<asrwt>0</asrwt>
<pdfrwt beam="1">  1       21 0.89478463E-02 0.30000000E+03</pdfrwt>
<pdfrwt beam="2">0</pdfrwt>
<totfact> 0.10485470E+04</totfact>
</mgrwt>
</event>
<event>
 6    1  0.1198667E-001  0.3000000E+03  0.7818608E-02  0.1093470E+00
         21   -1    0    0  501  502  0.00000000000E+00  0.00000000000E+00  0.26881359369E+01  0.26881359369E+01  0.00000000000E+00 0. -1.
         13   -1    0    0    0    0 -0.00000000000E+00 -0.00000000000E+00 -0.10000000000E+04  0.10000000000E+04  0.00000000000E+00 0.  1.
    9000005    2    1    2  501    0 -0.41778201944E+02  0.90348717226E+00 -0.79510668661E+03  0.79621012685E+03  0.31126457221E+01 0.  0.
         13    1    3    3    0    0 -0.10029849768E+02  0.10528164791E+01 -0.17266671977E+03  0.17296098527E+03  0.00000000000E+00 0.  1.
          3    1    3    3  501    0 -0.31748352175E+02 -0.14932930685E+00 -0.62243996684E+03  0.62324914159E+03  0.00000000000E+00 0.  1.
         -1    1    1    2    0  502  0.41778201944E+02 -0.90348717226E+00 -0.20220517745E+03  0.20647800908E+03  0.00000000000E+00 0. -1.
<mgrwt>
<rscale>  1 0.30000000E+03</rscale>
<asrwt>0</asrwt>
<pdfrwt beam="1">  1       21 0.97750604E-02 0.30000000E+03</pdfrwt>
<pdfrwt beam="2">0</pdfrwt>
<totfact> 0.89599015E+03</totfact>
</mgrwt>
</event>
<event>
 6    1  0.1198667E-001  0.3000000E+03  0.7818608E-02  0.1093470E+00
         21   -1    0    0  501  502  0.00000000000E+00  0.00000000000E+00  0.17639539683E+01  0.17639539683E+01  0.00000000000E+00 0. -1.
         13   -1    0    0    0    0 -0.00000000000E+00 -0.00000000000E+00 -0.10000000000E+04  0.10000000000E+04  0.00000000000E+00 0.  1.
    9000005    2    1    2  501    0 -0.11101605909E+02  0.31442397111E+02 -0.19678063539E+03  0.19961518645E+03  0.34255227045E+01 0.  0.
         13    1    3    3    0    0 -0.78771905603E+01  0.17485943879E+02 -0.10941425865E+03  0.11108234946E+03  0.00000000000E+00 0.  1.
          3    1    3    3  501    0 -0.32244153487E+01  0.13956453232E+02 -0.87366376737E+02  0.88532836989E+02  0.00000000000E+00 0.  1.
         -1    1    1    2    0  502  0.11101605909E+02 -0.31442397111E+02 -0.80145541064E+03  0.80214876752E+03  0.00000000000E+00 0. -1.
<mgrwt>
<rscale>  1 0.30000000E+03</rscale>
<asrwt>0</asrwt>
<pdfrwt beam="1">  1       21 0.64143916E-02 0.30000000E+03</pdfrwt>
<pdfrwt beam="2">0</pdfrwt>
<totfact> 0.18775975E+04</totfact>
</mgrwt>
</event>
<event>
 6    1  0.1198667E-001  0.3000000E+03  0.7818608E-02  0.1093470E+00
         21   -1    0    0  501  502  0.00000000000E+00  0.00000000000E+00  0.15070603078E+01  0.15070603078E+01  0.00000000000E+00 0. -1.
         13   -1    0    0    0    0 -0.00000000000E+00 -0.00000000000E+00 -0.10000000000E+04  0.10000000000E+04  0.00000000000E+00 0.  1.
    9000005    2    1    2  501    0 -0.20061433726E+02 -0.33103196773E+02 -0.49760518127E+03  0.49912590093E+03  0.41792096814E+01 0.  0.
         13    1    3    3    0    0 -0.38386366481E+01 -0.76332163218E+01 -0.90589184390E+02  0.90991216341E+02  0.00000000000E+00 0.  1.
          3    1    3    3  501    0 -0.16222797077E+02 -0.25469980451E+02 -0.40701599688E+03  0.40813468459E+03  0.00000000000E+00 0.  1.
         -1    1    1    2    0  502  0.20061433726E+02  0.33103196773E+02 -0.50088775842E+03  0.50238115937E+03  0.00000000000E+00 0. -1.
<mgrwt>
<rscale>  1 0.30000000E+03</rscale>
<asrwt>0</asrwt>
<pdfrwt beam="1">  1       21 0.54802309E-02 0.30000000E+03</pdfrwt>
<pdfrwt beam="2">0</pdfrwt>
<totfact> 0.24625708E+04</totfact>
</mgrwt>
</event>
<event>
 6    1  0.1198667E-001  0.3000000E+03  0.7818608E-02  0.1093470E+00
         21   -1    0    0  501  502  0.00000000000E+00  0.00000000000E+00  0.20616180378E+01  0.20616180378E+01  0.00000000000E+00 0. -1.
         13   -1    0    0    0    0 -0.00000000000E+00 -0.00000000000E+00 -0.10000000000E+04  0.10000000000E+04  0.00000000000E+00 0.  1.
    9000005    2    1    2  501    0  0.37265514958E+02  0.92285508245E+01 -0.23402301321E+03  0.23718216651E+03  0.38372701916E+01 0.  0.
         13    1    3    3    0    0  0.28070454528E+02  0.65810344884E+01 -0.18513217398E+03  0.18736376991E+03  0.00000000000E+00 0.  1.
          1    1    3    3  501    0  0.91950604297E+01  0.26475163361E+01 -0.48890839234E+02  0.49818396602E+02  0.00000000000E+00 0.  1.
         -3    1    1    2    0  502 -0.37265514958E+02 -0.92285508245E+01 -0.76391536875E+03  0.76487945153E+03  0.00000000000E+00 0. -1.
<mgrwt>
<rscale>  1 0.30000000E+03</rscale>
<asrwt>0</asrwt>
<pdfrwt beam="1">  1       21 0.74968087E-02 0.30000000E+03</pdfrwt>
<pdfrwt beam="2">0</pdfrwt>
<totfact> 0.14315126E+04</totfact>
</mgrwt>
</event>
<event>
 6    1  0.1198667E-001  0.3000000E+03  0.7818608E-02  0.1093470E+00
         21   -1    0    0  501  502  0.00000000000E+00  0.00000000000E+00  0.16107724896E+01  0.16107724896E+01  0.00000000000E+00 0. -1.
         13   -1    0    0    0    0 -0.00000000000E+00 -0.00000000000E+00 -0.10000000000E+04  0.10000000000E+04  0.00000000000E+00 0.  1.
    9000005    2    1    2  501    0 -0.12084498723E+02 -0.28974275182E+02 -0.81080589069E+03  0.81141862758E+03  0.29074178285E+01 0.  0.
         13    1    3    3    0    0 -0.41779102794E+01 -0.13703223519E+02 -0.36111596389E+03  0.36140001750E+03  0.00000000000E+00 0.  1.
          1    1    3    3  501    0 -0.79065884439E+01 -0.15271051663E+02 -0.44968992680E+03  0.45001861009E+03  0.00000000000E+00 0.  1.
         -3    1    1    2    0  502  0.12084498723E+02  0.28974275182E+02 -0.18758333682E+03  0.19019214491E+03  0.00000000000E+00 0. -1.
<mgrwt>
<rscale>  1 0.30000000E+03</rscale>
<asrwt>0</asrwt>
<pdfrwt beam="1">  1       21 0.58573669E-02 0.30000000E+03</pdfrwt>
<pdfrwt beam="2">0</pdfrwt>
<totfact> 0.21963984E+04</totfact>
</mgrwt>
</event>
<event>
 6    1  0.1198667E-001  0.3000000E+03  0.7818608E-02  0.1093470E+00
         21   -1    0    0  501  502  0.00000000000E+00  0.00000000000E+00  0.45891091255E+01  0.45891091255E+01  0.00000000000E+00 0. -1.
         13   -1    0    0    0    0 -0.00000000000E+00 -0.00000000000E+00 -0.10000000000E+04  0.10000000000E+04  0.00000000000E+00 0.  1.
    9000005    2    1    2  501    0 -0.58762992160E+02 -0.15071153359E+02 -0.72062165010E+03  0.72318307550E+03  0.42390089606E+01 0.  0.
         13    1    3    3    0    0 -0.39304571086E+02 -0.80444463954E+01 -0.47990221726E+03  0.48157626660E+03  0.00000000000E+00 0.  1.
          1    1    3    3  501    0 -0.19458421073E+02 -0.70267069634E+01 -0.24071943284E+03  0.24160680890E+03  0.00000000000E+00 0.  1.
         -1    1    1    2    0  502  0.58762992160E+02  0.15071153359E+02 -0.27478924078E+03  0.28140603362E+03  0.00000000000E+00 0. -1.
<mgrwt>
<rscale>  1 0.30000000E+03</rscale>
<asrwt>0</asrwt>
<pdfrwt beam="1">  1       21 0.16687705E-01 0.30000000E+03</pdfrwt>
<pdfrwt beam="2">0</pdfrwt>
<totfact> 0.33766782E+03</totfact>
</mgrwt>
</event>
<event>
 6    1  0.1198667E-001  0.3000000E+03  0.7818608E-02  0.1093470E+00
         21   -1    0    0  501  502  0.00000000000E+00  0.00000000000E+00  0.14434382516E+01  0.14434382516E+01  0.00000000000E+00 0. -1.
         13   -1    0    0    0    0 -0.00000000000E+00 -0.00000000000E+00 -0.10000000000E+04  0.10000000000E+04  0.00000000000E+00 0.  1.
    9000005    2    1    2  501    0  0.26178141653E+02  0.19057362967E+02 -0.76028135567E+03  0.76097815590E+03  0.33964389106E+01 0.  0.
         13    1    3    3    0    0  0.23809747549E+02  0.16866969093E+02 -0.65948100919E+03  0.66012620021E+03  0.00000000000E+00 0.  1.
          1    1    3    3  501    0  0.23683941046E+01  0.21903938735E+01 -0.10080034648E+03  0.10085195569E+03  0.00000000000E+00 0.  1.
         -3    1    1    2    0  502 -0.26178141653E+02 -0.19057362967E+02 -0.23827520608E+03  0.24046528235E+03  0.00000000000E+00 0. -1.
<mgrwt>
<rscale>  1 0.30000000E+03</rscale>
<asrwt>0</asrwt>
<pdfrwt beam="1">  1       21 0.52488774E-02 0.30000000E+03</pdfrwt>
<pdfrwt beam="2">0</pdfrwt>
<totfact> 0.26512621E+04</totfact>
</mgrwt>
</event>
<event>
 6    1  0.1198667E-001  0.3000000E+03  0.7818608E-02  0.1093470E+00
         21   -1    0    0  501  502  0.00000000000E+00  0.00000000000E+00  0.28881395223E+01  0.28881395223E+01  0.00000000000E+00 0. -1.
         13   -1    0    0    0    0 -0.00000000000E+00 -0.00000000000E+00 -0.10000000000E+04  0.10000000000E+04  0.00000000000E+00 0.  1.
    9000005    2    1    2  501    0 -0.88767102644E+01 -0.47576761130E+02 -0.71595894262E+03  0.71760002655E+03  0.32009996365E+01 0.  0.
         13    1    3    3    0    0 -0.80257958411E+00 -0.73903331003E+01 -0.12562465474E+03  0.12584440805E+03  0.00000000000E+00 0.  1.
          1    1    3    3  501    0 -0.80741306802E+01 -0.40186428030E+02 -0.59033428788E+03  0.59175561850E+03  0.00000000000E+00 0.  1.
         -3    1    1    2    0  502  0.88767102644E+01  0.47576761130E+02 -0.28115291785E+03  0.28528811297E+03  0.00000000000E+00 0. -1.
<mgrwt>
<rscale>  1 0.30000000E+03</rscale>
<asrwt>0</asrwt>
<pdfrwt beam="1">  1       21 0.10502348E-01 0.30000000E+03</pdfrwt>
<pdfrwt beam="2">0</pdfrwt>
<totfact> 0.78807099E+03</totfact>
</mgrwt>
</event>
<event>
 6    1  0.1198667E-001  0.3000000E+03  0.7818608E-02  0.1093470E+00
         21   -1    0    0  501  502  0.00000000000E+00  0.00000000000E+00  0.10014426953E+01  0.10014426953E+01  0.00000000000E+00 0. -1.
         13   -1    0    0    0    0 -0.00000000000E+00 -0.00000000000E+00 -0.10000000000E+04  0.10000000000E+04  0.00000000000E+00 0.  1.
    9000005    2    1    2  501    0 -0.26988242876E+02  0.15288331546E+02 -0.58695820785E+03  0.58779526182E+03  0.46080061057E+01 0.  0.
         13    1    3    3    0    0 -0.25196279794E+02  0.13099075963E+02 -0.51623042946E+03  0.51701092310E+03  0.00000000000E+00 0.  1.
          3    1    3    3  501    0 -0.17919630822E+01  0.21892555832E+01 -0.70727778393E+02  0.70784338721E+02  0.00000000000E+00 0.  1.
         -3    1    1    2    0  502  0.26988242876E+02 -0.15288331546E+02 -0.41204034946E+03  0.41320618088E+03  0.00000000000E+00 0. -1.
<mgrwt>
<rscale>  1 0.30000000E+03</rscale>
<asrwt>0</asrwt>
<pdfrwt beam="1">  1       21 0.36416175E-02 0.30000000E+03</pdfrwt>
<pdfrwt beam="2">0</pdfrwt>
<totfact> 0.49231984E+04</totfact>
</mgrwt>
</event>
<event>
 6    1  0.1198667E-001  0.3000000E+03  0.7818608E-02  0.1093470E+00
         21   -1    0    0  501  502  0.00000000000E+00  0.00000000000E+00  0.95820962902E+00  0.95820962902E+00  0.00000000000E+00 0. -1.
         13   -1    0    0    0    0 -0.00000000000E+00 -0.00000000000E+00 -0.10000000000E+04  0.10000000000E+04  0.00000000000E+00 0.  1.
    9000005    2    1    2  501    0 -0.16743217919E+02  0.25349790405E+02 -0.58579837908E+03  0.58659959177E+03  0.40488159260E+01 0.  0.
         13    1    3    3    0    0 -0.43203344007E+01  0.99908392137E+01 -0.21518541289E+03  0.21546053949E+03  0.00000000000E+00 0.  1.
          1    1    3    3  501    0 -0.12422883518E+02  0.15358951191E+02 -0.37061296619E+03  0.37113905228E+03  0.00000000000E+00 0.  1.
         -3    1    1    2    0  502  0.16743217919E+02 -0.25349790405E+02 -0.41324341129E+03  0.41435861786E+03  0.00000000000E+00 0. -1.
<mgrwt>
<rscale>  1 0.30000000E+03</rscale>
<asrwt>0</asrwt>
<pdfrwt beam="1">  1       21 0.34844060E-02 0.30000000E+03</pdfrwt>
<pdfrwt beam="2">0</pdfrwt>
<totfact> 0.53011641E+04</totfact>
</mgrwt>
</event>
<event>
 6    1  0.1198667E-001  0.3000000E+03  0.7818608E-02  0.1093470E+00
         21   -1    0    0  501  502  0.00000000000E+00  0.00000000000E+00  0.14947740977E+01  0.14947740977E+01  0.00000000000E+00 0. -1.
         13   -1    0    0    0    0 -0.00000000000E+00 -0.00000000000E+00 -0.10000000000E+04  0.10000000000E+04  0.00000000000E+00 0.  1.
    9000005    2    1    2  501    0  0.83691715190E+01 -0.37309245542E+02 -0.56510729780E+03  0.56641341743E+03  0.39847942300E+01 0.  0.
         13    1    3    3    0    0  0.62301924986E+01 -0.32213777160E+02 -0.46769005609E+03  0.46883955817E+03  0.00000000000E+00 0.  1.
          3    1    3    3  501    0  0.21389790204E+01 -0.50954683827E+01 -0.97417241712E+02  0.97573859266E+02  0.00000000000E+00 0.  1.
         -1    1    1    2    0  502 -0.83691715190E+01  0.37309245542E+02 -0.43339792810E+03  0.43508135667E+03  0.00000000000E+00 0. -1.
<mgrwt>
<rscale>  1 0.30000000E+03</rscale>
<asrwt>0</asrwt>
<pdfrwt beam="1">  1       21 0.54355536E-02 0.30000000E+03</pdfrwt>
<pdfrwt beam="2">0</pdfrwt>
<totfact> 0.24973597E+04</totfact>
</mgrwt>
</event>
<event>
 6    1  0.1198667E-001  0.3000000E+03  0.7818608E-02  0.1093470E+00
         21   -1    0    0  501  502  0.00000000000E+00  0.00000000000E+00  0.73983482782E+01  0.73983482782E+01  0.00000000000E+00 0. -1.
         13   -1    0    0    0    0 -0.00000000000E+00 -0.00000000000E+00 -0.10000000000E+04  0.10000000000E+04  0.00000000000E+00 0.  1.
    9000005    2    1    2  501    0 -0.46290221415E+02  0.31338112952E+02 -0.87902149927E+03  0.88080722319E+03  0.42078865216E+01 0.  0.
         13    1    3    3    0    0 -0.33642010723E+02  0.23714093769E+02 -0.67242545997E+03  0.67368400778E+03  0.00000000000E+00 0.  1.
          3    1    3    3  501    0 -0.12648210692E+02  0.76240191826E+01 -0.20659603931E+03  0.20712321541E+03  0.00000000000E+00 0.  1.
         -3    1    1    2    0  502  0.46290221415E+02 -0.31338112952E+02 -0.11358015245E+03  0.12659112509E+03  0.00000000000E+00 0. -1.
<mgrwt>
<rscale>  1 0.30000000E+03</rscale>
<asrwt>0</asrwt>
<pdfrwt beam="1">  1       21 0.26903141E-01 0.30000000E+03</pdfrwt>
<pdfrwt beam="2">0</pdfrwt>
<totfact> 0.13500242E+03</totfact>
</mgrwt>
</event>
<event>
 6    1  0.1198667E-001  0.3000000E+03  0.7818608E-02  0.1093470E+00
         21   -1    0    0  501  502  0.00000000000E+00  0.00000000000E+00  0.31697534398E+01  0.31697534398E+01  0.00000000000E+00 0. -1.
         13   -1    0    0    0    0 -0.00000000000E+00 -0.00000000000E+00 -0.10000000000E+04  0.10000000000E+04  0.00000000000E+00 0.  1.
    9000005    2    1    2  501    0  0.21098675173E+02 -0.28856951135E+02 -0.11251372886E+03  0.11813100785E+03  0.42092885554E+01 0.  0.
         13    1    3    3    0    0  0.35935910661E+01 -0.54957575884E+01 -0.26378202828E+02  0.27183208653E+02  0.00000000000E+00 0.  1.
          1    1    3    3  501    0  0.17505084107E+02 -0.23361193547E+02 -0.86135526036E+02  0.90947799199E+02  0.00000000000E+00 0.  1.
         -3    1    1    2    0  502 -0.21098675173E+02  0.28856951135E+02 -0.88431651770E+03  0.88503874559E+03  0.00000000000E+00 0. -1.
<mgrwt>
<rscale>  1 0.30000000E+03</rscale>
<asrwt>0</asrwt>
<pdfrwt beam="1">  1       21 0.11526400E-01 0.30000000E+03</pdfrwt>
<pdfrwt beam="2">0</pdfrwt>
<totfact> 0.66658792E+03</totfact>
</mgrwt>
</event>
<event>
 6    1  0.1198667E-001  0.3000000E+03  0.7818608E-02  0.1093470E+00
         21   -1    0    0  501  502  0.00000000000E+00  0.00000000000E+00  0.14345997237E+01  0.14345997237E+01  0.00000000000E+00 0. -1.
         13   -1    0    0    0    0 -0.00000000000E+00 -0.00000000000E+00 -0.10000000000E+04  0.10000000000E+04  0.00000000000E+00 0.  1.
    9000005    2    1    2  501    0  0.13560002568E+02 -0.35168140529E+02 -0.53946710439E+03  0.54079166093E+03  0.31924960437E+01 0.  0.
         13    1    3    3    0    0  0.24034789502E+01 -0.58265186439E+01 -0.74513907054E+02  0.74779993147E+02  0.00000000000E+00 0.  1.
          3    1    3    3  501    0  0.11156523618E+02 -0.29341621885E+02 -0.46495319734E+03  0.46601166778E+03  0.00000000000E+00 0.  1.
         -3    1    1    2    0  502 -0.13560002568E+02  0.35168140529E+02 -0.45909829588E+03  0.46064293879E+03  0.00000000000E+00 0. -1.
<mgrwt>
<rscale>  1 0.30000000E+03</rscale>
<asrwt>0</asrwt>
<pdfrwt beam="1">  1       21 0.52167373E-02 0.30000000E+03</pdfrwt>
<pdfrwt beam="2">0</pdfrwt>
<totfact> 0.26792380E+04</totfact>
</mgrwt>
</event>
<event>
 6    1  0.1198667E-001  0.3000000E+03  0.7818608E-02  0.1093470E+00
         21   -1    0    0  501  502  0.00000000000E+00  0.00000000000E+00  0.17830081765E+01  0.17830081765E+01  0.00000000000E+00 0. -1.
         13   -1    0    0    0    0 -0.00000000000E+00 -0.00000000000E+00 -0.10000000000E+04  0.10000000000E+04  0.00000000000E+00 0.  1.
    9000005    2    1    2  501    0 -0.91193924712E+01 -0.39984231499E+02 -0.61579575110E+03  0.61716903620E+03  0.33630456869E+01 0.  0.
         13    1    3    3    0    0  0.94500133350E-01 -0.83623969091E+00 -0.19807122840E+02  0.19824992870E+02  0.00000000000E+00 0.  1.
          1    1    3    3  501    0 -0.92138926045E+01 -0.39147991808E+02 -0.59598862826E+03  0.59734404333E+03  0.00000000000E+00 0.  1.
         -1    1    1    2    0  502  0.91193924712E+01  0.39984231499E+02 -0.38242124072E+03  0.38461397198E+03  0.00000000000E+00 0. -1.
<mgrwt>
<rscale>  1 0.30000000E+03</rscale>
<asrwt>0</asrwt>
<pdfrwt beam="1">  1       21 0.64836798E-02 0.30000000E+03</pdfrwt>
<pdfrwt beam="2">0</pdfrwt>
<totfact> 0.18430085E+04</totfact>
</mgrwt>
</event>
<event>
 6    1  0.1198667E-001  0.3000000E+03  0.7818608E-02  0.1093470E+00
         21   -1    0    0  501  502  0.00000000000E+00  0.00000000000E+00  0.15659866730E+01  0.15659866730E+01  0.00000000000E+00 0. -1.
         13   -1    0    0    0    0 -0.00000000000E+00 -0.00000000000E+00 -0.10000000000E+04  0.10000000000E+04  0.00000000000E+00 0.  1.
    9000005    2    1    2  501    0 -0.35244698088E+02 -0.13472893617E+02 -0.64840895943E+03  0.64951308446E+03  0.30595099455E+01 0.  0.
         13    1    3    3    0    0 -0.19585145478E+02 -0.77286190872E+01 -0.38733437098E+03  0.38790620570E+03  0.00000000000E+00 0.  1.
          3    1    3    3  501    0 -0.15659552609E+02 -0.57442745297E+01 -0.26107458845E+03  0.26160687876E+03  0.00000000000E+00 0.  1.
         -1    1    1    2    0  502  0.35244698088E+02  0.13472893617E+02 -0.35002505389E+03  0.35205290222E+03  0.00000000000E+00 0. -1.
<mgrwt>
<rscale>  1 0.30000000E+03</rscale>
<asrwt>0</asrwt>
<pdfrwt beam="1">  1       21 0.56945090E-02 0.30000000E+03</pdfrwt>
<pdfrwt beam="2">0</pdfrwt>
<totfact> 0.23056438E+04</totfact>
</mgrwt>
</event>
<event>
 6    1  0.1198667E-001  0.3000000E+03  0.7818608E-02  0.1093470E+00
         21   -1    0    0  501  502  0.00000000000E+00  0.00000000000E+00  0.10972463539E+01  0.10972463539E+01  0.00000000000E+00 0. -1.
         13   -1    0    0    0    0 -0.00000000000E+00 -0.00000000000E+00 -0.10000000000E+04  0.10000000000E+04  0.00000000000E+00 0.  1.
    9000005    2    1    2  501    0  0.30626773830E+02 -0.53840024562E+01 -0.66944875133E+03  0.67017893861E+03  0.33454958003E+01 0.  0.
         13    1    3    3    0    0  0.15871748677E+02 -0.43638253162E+01 -0.33924356517E+03  0.33964268266E+03  0.00000000000E+00 0.  1.
          3    1    3    3  501    0  0.14755025153E+02 -0.10201771400E+01 -0.33020518617E+03  0.33053625595E+03  0.00000000000E+00 0.  1.
         -3    1    1    2    0  502 -0.30626773830E+02  0.53840024562E+01 -0.32945400231E+03  0.33091830774E+03  0.00000000000E+00 0. -1.
<mgrwt>
<rscale>  1 0.30000000E+03</rscale>
<asrwt>0</asrwt>
<pdfrwt beam="1">  1       21 0.39899952E-02 0.30000000E+03</pdfrwt>
<pdfrwt beam="2">0</pdfrwt>
<totfact> 0.42225017E+04</totfact>
</mgrwt>
</event>
<event>
 6    1  0.1198667E-001  0.3000000E+03  0.7818608E-02  0.1093470E+00
         21   -1    0    0  501  502  0.00000000000E+00  0.00000000000E+00  0.13238003637E+01  0.13238003637E+01  0.00000000000E+00 0. -1.
         13   -1    0    0    0    0 -0.00000000000E+00 -0.00000000000E+00 -0.10000000000E+04  0.10000000000E+04  0.00000000000E+00 0.  1.
    9000005    2    1    2  501    0 -0.30958411223E+02 -0.37593842181E+01 -0.75620519721E+03  0.75685551364E+03  0.33781721704E+01 0.  0.
         13    1    3    3    0    0 -0.16647643933E+02 -0.38955843511E+00 -0.41283890043E+03  0.41317460415E+03  0.00000000000E+00 0.  1.
          3    1    3    3  501    0 -0.14310767290E+02 -0.33698257830E+01 -0.34336629678E+03  0.34368090950E+03  0.00000000000E+00 0.  1.
         -3    1    1    2    0  502  0.30958411223E+02  0.37593842181E+01 -0.24247100243E+03  0.24446828672E+03  0.00000000000E+00 0. -1.
<mgrwt>
<rscale>  1 0.30000000E+03</rscale>
<asrwt>0</asrwt>
<pdfrwt beam="1">  1       21 0.48138297E-02 0.30000000E+03</pdfrwt>
<pdfrwt beam="2">0</pdfrwt>
<totfact> 0.30727734E+04</totfact>
</mgrwt>
</event>
<event>
 6    1  0.1198667E-001  0.3000000E+03  0.7818608E-02  0.1093470E+00
         21   -1    0    0  501  502  0.00000000000E+00  0.00000000000E+00  0.38230345500E+01  0.38230345500E+01  0.00000000000E+00 0. -1.
         13   -1    0    0    0    0 -0.00000000000E+00 -0.00000000000E+00 -0.10000000000E+04  0.10000000000E+04  0.00000000000E+00 0.  1.
    9000005    2    1    2  501    0 -0.34634253765E+02 -0.15156231295E+01 -0.91360419075E+03  0.91426806948E+03  0.34142149623E+01 0.  0.
         13    1    3    3    0    0 -0.30636222207E+02 -0.37639787170E+00 -0.81779000936E+03  0.81836374504E+03  0.00000000000E+00 0.  1.
          3    1    3    3  501    0 -0.39980315580E+01 -0.11392252578E+01 -0.95814181394E+02  0.95904324442E+02  0.00000000000E+00 0.  1.
         -1    1    1    2    0  502  0.34634253765E+02  0.15156231295E+01 -0.82572774697E+02  0.89554965069E+02  0.00000000000E+00 0. -1.
<mgrwt>
<rscale>  1 0.30000000E+03</rscale>
<asrwt>0</asrwt>
<pdfrwt beam="1">  1       21 0.13901973E-01 0.30000000E+03</pdfrwt>
<pdfrwt beam="2">0</pdfrwt>
<totfact> 0.47374249E+03</totfact>
</mgrwt>
</event>
<event>
 6    1  0.1198667E-001  0.3000000E+03  0.7818608E-02  0.1093470E+00
         21   -1    0    0  501  502  0.00000000000E+00  0.00000000000E+00  0.11494959189E+01  0.11494959189E+01  0.00000000000E+00 0. -1.
         13   -1    0    0    0    0 -0.00000000000E+00 -0.00000000000E+00 -0.10000000000E+04  0.10000000000E+04  0.00000000000E+00 0.  1.
    9000005    2    1    2  501    0  0.13360071682E+02  0.29882713655E+02 -0.62687587902E+03  0.62773740482E+03  0.30681623270E+01 0.  0.
         13    1    3    3    0    0  0.12955875958E+02  0.29225532218E+02 -0.60060174698E+03  0.60145194732E+03  0.00000000000E+00 0.  1.
          1    1    3    3  501    0  0.40419572409E+00  0.65718143728E+00 -0.26274132035E+02  0.26285457497E+02  0.00000000000E+00 0.  1.
         -3    1    1    2    0  502 -0.13360071682E+02 -0.29882713655E+02 -0.37197462506E+03  0.37341209110E+03  0.00000000000E+00 0. -1.
<mgrwt>
<rscale>  1 0.30000000E+03</rscale>
<asrwt>0</asrwt>
<pdfrwt beam="1">  1       21 0.41799940E-02 0.30000000E+03</pdfrwt>
<pdfrwt beam="2">0</pdfrwt>
<totfact> 0.39039917E+04</totfact>
</mgrwt>
</event>
<event>
 6    1  0.1198667E-001  0.3000000E+03  0.7818608E-02  0.1093470E+00
         21   -1    0    0  501  502  0.00000000000E+00  0.00000000000E+00  0.26595107195E+01  0.26595107195E+01  0.00000000000E+00 0. -1.
         13   -1    0    0    0    0 -0.00000000000E+00 -0.00000000000E+00 -0.10000000000E+04  0.10000000000E+04  0.00000000000E+00 0.  1.
    9000005    2    1    2  501    0 -0.12241207725E+02  0.31169621837E+02 -0.87972702007E+03  0.88037165101E+03  0.36361480461E+01 0.  0.
         13    1    3    3    0    0 -0.45028583989E+01  0.98425162770E+01 -0.24405558688E+03  0.24429547754E+03  0.00000000000E+00 0.  1.
          3    1    3    3  501    0 -0.77383493266E+01  0.21327105560E+02 -0.63567143319E+03  0.63607617347E+03  0.00000000000E+00 0.  1.
         -3    1    1    2    0  502  0.12241207725E+02 -0.31169621837E+02 -0.11761346921E+03  0.12228785971E+03  0.00000000000E+00 0. -1.
<mgrwt>
<rscale>  1 0.30000000E+03</rscale>
<asrwt>0</asrwt>
<pdfrwt beam="1">  1       21 0.96709685E-02 0.30000000E+03</pdfrwt>
<pdfrwt beam="2">0</pdfrwt>
<totfact> 0.91326745E+03</totfact>
</mgrwt>
</event>
<event>
 6    1  0.1198667E-001  0.3000000E+03  0.7818608E-02  0.1093470E+00
         21   -1    0    0  501  502  0.00000000000E+00  0.00000000000E+00  0.13807584570E+01  0.13807584570E+01  0.00000000000E+00 0. -1.
         13   -1    0    0    0    0 -0.00000000000E+00 -0.00000000000E+00 -0.10000000000E+04  0.10000000000E+04  0.00000000000E+00 0.  1.
    9000005    2    1    2  501    0  0.25470224547E+02  0.25070046670E+02 -0.36635233187E+03  0.36810460650E+03  0.31194032184E+01 0.  0.
         13    1    3    3    0    0  0.15124183262E+02  0.12764858128E+02 -0.19858432650E+03  0.19956807674E+03  0.00000000000E+00 0.  1.
          3    1    3    3  501    0  0.10346041285E+02  0.12305188542E+02 -0.16776800537E+03  0.16853652976E+03  0.00000000000E+00 0.  1.
         -1    1    1    2    0  502 -0.25470224547E+02 -0.25070046670E+02 -0.63226690967E+03  0.63327615196E+03  0.00000000000E+00 0. -1.
<mgrwt>
<rscale>  1 0.30000000E+03</rscale>
<asrwt>0</asrwt>
<pdfrwt beam="1">  1       21 0.50209504E-02 0.30000000E+03</pdfrwt>
<pdfrwt beam="2">0</pdfrwt>
<totfact> 0.28600044E+04</totfact>
</mgrwt>
</event>
<event>
 6    1  0.1198667E-001  0.3000000E+03  0.7818608E-02  0.1093470E+00
         21   -1    0    0  501  502  0.00000000000E+00  0.00000000000E+00  0.16745045405E+01  0.16745045405E+01  0.00000000000E+00 0. -1.
         13   -1    0    0    0    0 -0.00000000000E+00 -0.00000000000E+00 -0.10000000000E+04  0.10000000000E+04  0.00000000000E+00 0.  1.
    9000005    2    1    2  501    0  0.29688329573E+02 -0.62517720339E+01 -0.83376879452E+03  0.83434432379E+03  0.62901793510E+01 0.  0.
         13    1    3    3    0    0  0.12165912778E+02 -0.21756926448E+01 -0.42532565778E+03  0.42550518004E+03  0.00000000000E+00 0.  1.
          3    1    3    3  501    0  0.17522416795E+02 -0.40760793891E+01 -0.40844313674E+03  0.40883914375E+03  0.00000000000E+00 0.  1.
         -1    1    1    2    0  502 -0.29688329573E+02  0.62517720339E+01 -0.16455670094E+03  0.16733018075E+03  0.00000000000E+00 0. -1.
<mgrwt>
<rscale>  1 0.30000000E+03</rscale>
<asrwt>0</asrwt>
<pdfrwt beam="1">  1       21 0.60891203E-02 0.30000000E+03</pdfrwt>
<pdfrwt beam="2">0</pdfrwt>
<totfact> 0.20542446E+04</totfact>
</mgrwt>
</event>
<event>
 6    1  0.1198667E-001  0.3000000E+03  0.7818608E-02  0.1093470E+00
         21   -1    0    0  501  502  0.00000000000E+00  0.00000000000E+00  0.75541524444E+01  0.75541524444E+01  0.00000000000E+00 0. -1.
         13   -1    0    0    0    0 -0.00000000000E+00 -0.00000000000E+00 -0.10000000000E+04  0.10000000000E+04  0.00000000000E+00 0.  1.
    9000005    2    1    2  501    0 -0.39468811273E+02  0.66868828978E+02 -0.72237680056E+03  0.72654433500E+03  0.30333790527E+01 0.  0.
         13    1    3    3    0    0 -0.18286270858E+02  0.28240204410E+02 -0.30752575184E+03  0.30936060657E+03  0.00000000000E+00 0.  1.
          1    1    3    3  501    0 -0.21182540414E+02  0.38628624568E+02 -0.41485104872E+03  0.41718372844E+03  0.00000000000E+00 0.  1.
         -3    1    1    2    0  502  0.39468811273E+02 -0.66868828978E+02 -0.27006904700E+03  0.28100981744E+03  0.00000000000E+00 0. -1.
<mgrwt>
<rscale>  1 0.30000000E+03</rscale>
<asrwt>0</asrwt>
<pdfrwt beam="1">  1       21 0.27469703E-01 0.30000000E+03</pdfrwt>
<pdfrwt beam="2">0</pdfrwt>
<totfact> 0.12955464E+03</totfact>
</mgrwt>
</event>
<event>
 6    1  0.1198667E-001  0.3000000E+03  0.7818608E-02  0.1093470E+00
         21   -1    0    0  501  502  0.00000000000E+00  0.00000000000E+00  0.15031124107E+01  0.15031124107E+01  0.00000000000E+00 0. -1.
         13   -1    0    0    0    0 -0.00000000000E+00 -0.00000000000E+00 -0.10000000000E+04  0.10000000000E+04  0.00000000000E+00 0.  1.
    9000005    2    1    2  501    0  0.63591840767E+01  0.35790492901E+02 -0.67033368542E+03  0.67133272327E+03  0.43562514265E+01 0.  0.
         13    1    3    3    0    0  0.43612579842E+01  0.32021078876E+02 -0.58329186768E+03  0.58418641971E+03  0.00000000000E+00 0.  1.
          1    1    3    3  501    0  0.19979260925E+01  0.37694140247E+01 -0.87041817732E+02  0.87146303563E+02  0.00000000000E+00 0.  1.
         -3    1    1    2    0  502 -0.63591840767E+01 -0.35790492901E+02 -0.32816320217E+03  0.33017038914E+03  0.00000000000E+00 0. -1.
<mgrwt>
<rscale>  1 0.30000000E+03</rscale>
<asrwt>0</asrwt>
<pdfrwt beam="1">  1       21 0.54658748E-02 0.30000000E+03</pdfrwt>
<pdfrwt beam="2">0</pdfrwt>
<totfact> 0.24736675E+04</totfact>
</mgrwt>
</event>
<event>
 6    1  0.1198667E-001  0.3000000E+03  0.7818608E-02  0.1093470E+00
         21   -1    0    0  501  502  0.00000000000E+00  0.00000000000E+00  0.42417061949E+01  0.42417061949E+01  0.00000000000E+00 0. -1.
         13   -1    0    0    0    0 -0.00000000000E+00 -0.00000000000E+00 -0.10000000000E+04  0.10000000000E+04  0.00000000000E+00 0.  1.
    9000005    2    1    2  501    0 -0.69241994312E+01 -0.38239311882E+02 -0.90047536949E+03  0.90133871704E+03  0.67381203770E+01 0.  0.
         13    1    3    3    0    0 -0.13104455910E+01 -0.72753216159E+00 -0.30128885640E+02  0.30166145273E+02  0.00000000000E+00 0.  1.
          3    1    3    3  501    0 -0.56137538401E+01 -0.37511779720E+02 -0.87034648385E+03  0.87117257177E+03  0.00000000000E+00 0.  1.
         -1    1    1    2    0  502  0.69241994312E+01  0.38239311882E+02 -0.95282924314E+02  0.10290298915E+03  0.00000000000E+00 0. -1.
<mgrwt>
<rscale>  1 0.30000000E+03</rscale>
<asrwt>0</asrwt>
<pdfrwt beam="1">  1       21 0.15424419E-01 0.30000000E+03</pdfrwt>
<pdfrwt beam="2">0</pdfrwt>
<totfact> 0.39104180E+03</totfact>
</mgrwt>
</event>
<event>
 6    1  0.1198667E-001  0.3000000E+03  0.7818608E-02  0.1093470E+00
         21   -1    0    0  501  502  0.00000000000E+00  0.00000000000E+00  0.10033113224E+01  0.10033113224E+01  0.00000000000E+00 0. -1.
         13   -1    0    0    0    0 -0.00000000000E+00 -0.00000000000E+00 -0.10000000000E+04  0.10000000000E+04  0.00000000000E+00 0.  1.
    9000005    2    1    2  501    0  0.21930928377E+02  0.21600841149E+02 -0.61495218802E+03  0.61572712409E+03  0.24770627818E+01 0.  0.
         13    1    3    3    0    0  0.21615972506E+02  0.20799992179E+02 -0.60132523938E+03  0.60207303000E+03  0.00000000000E+00 0.  1.
          1    1    3    3  501    0  0.31495587123E+00  0.80084896976E+00 -0.13626948643E+02  0.13654094096E+02  0.00000000000E+00 0.  1.
         -3    1    1    2    0  502 -0.21930928377E+02 -0.21600841149E+02 -0.38404450066E+03  0.38527618723E+03  0.00000000000E+00 0. -1.
<mgrwt>
<rscale>  1 0.30000000E+03</rscale>
<asrwt>0</asrwt>
<pdfrwt beam="1">  1       21 0.36484125E-02 0.30000000E+03</pdfrwt>
<pdfrwt beam="2">0</pdfrwt>
<totfact> 0.49078257E+04</totfact>
</mgrwt>
</event>
<event>
 6    1  0.1198667E-001  0.3000000E+03  0.7818608E-02  0.1093470E+00
         21   -1    0    0  501  502  0.00000000000E+00  0.00000000000E+00  0.24824621538E+01  0.24824621538E+01  0.00000000000E+00 0. -1.
         13   -1    0    0    0    0 -0.00000000000E+00 -0.00000000000E+00 -0.10000000000E+04  0.10000000000E+04  0.00000000000E+00 0.  1.
    9000005    2    1    2  501    0  0.26426955683E+02 -0.23553983401E+02 -0.85128222352E+03  0.85202336048E+03  0.30345674752E+01 0.  0.
         13    1    3    3    0    0  0.14844263150E+02 -0.12485542938E+02 -0.43228165613E+03  0.43271661762E+03  0.00000000000E+00 0.  1.
          1    1    3    3  501    0  0.11582692533E+02 -0.11068440463E+02 -0.41900056739E+03  0.41930674286E+03  0.00000000000E+00 0.  1.
         -1    1    1    2    0  502 -0.26426955683E+02  0.23553983401E+02 -0.14623531433E+03  0.15045910168E+03  0.00000000000E+00 0. -1.
<mgrwt>
<rscale>  1 0.30000000E+03</rscale>
<asrwt>0</asrwt>
<pdfrwt beam="1">  1       21 0.90271541E-02 0.30000000E+03</pdfrwt>
<pdfrwt beam="2">0</pdfrwt>
<totfact> 0.10322839E+04</totfact>
</mgrwt>
</event>
<event>
 6    1  0.1198667E-001  0.3000000E+03  0.7818608E-02  0.1093470E+00
         21   -1    0    0  501  502  0.00000000000E+00  0.00000000000E+00  0.10959879269E+01  0.10959879269E+01  0.00000000000E+00 0. -1.
         13   -1    0    0    0    0 -0.00000000000E+00 -0.00000000000E+00 -0.10000000000E+04  0.10000000000E+04  0.00000000000E+00 0.  1.
    9000005    2    1    2  501    0 -0.20387618016E+02  0.25080511135E+02 -0.42553715487E+03  0.42681884233E+03  0.69113669064E+01 0.  0.
         13    1    3    3    0    0 -0.13458977983E+02  0.20958817360E+02 -0.30800031565E+03  0.30900584226E+03  0.00000000000E+00 0.  1.
          3    1    3    3  501    0 -0.69286400331E+01  0.41216937750E+01 -0.11753683922E+03  0.11781300007E+03  0.00000000000E+00 0.  1.
         -1    1    1    2    0  502  0.20387618016E+02 -0.25080511135E+02 -0.57336685721E+03  0.57427714559E+03  0.00000000000E+00 0. -1.
<mgrwt>
<rscale>  1 0.30000000E+03</rscale>
<asrwt>0</asrwt>
<pdfrwt beam="1">  1       21 0.39854190E-02 0.30000000E+03</pdfrwt>
<pdfrwt beam="2">0</pdfrwt>
<totfact> 0.42306684E+04</totfact>
</mgrwt>
</event>
<event>
 6    1  0.1198667E-001  0.3000000E+03  0.7818608E-02  0.1093470E+00
         21   -1    0    0  501  502  0.00000000000E+00  0.00000000000E+00  0.12780782325E+01  0.12780782325E+01  0.00000000000E+00 0. -1.
         13   -1    0    0    0    0 -0.00000000000E+00 -0.00000000000E+00 -0.10000000000E+04  0.10000000000E+04  0.00000000000E+00 0.  1.
    9000005    2    1    2  501    0  0.14480862448E+02  0.32564979796E+02 -0.52129588379E+03  0.52252365786E+03  0.33765784227E+01 0.  0.
         13    1    3    3    0    0  0.40509008111E+01  0.12894277646E+02 -0.20516153654E+03  0.20560624570E+03  0.00000000000E+00 0.  1.
          1    1    3    3  501    0  0.10429961636E+02  0.19670702150E+02 -0.31613434725E+03  0.31691741216E+03  0.00000000000E+00 0.  1.
         -3    1    1    2    0  502 -0.14480862448E+02 -0.32564979796E+02 -0.47742603798E+03  0.47875442037E+03  0.00000000000E+00 0. -1.
<mgrwt>
<rscale>  1 0.30000000E+03</rscale>
<asrwt>0</asrwt>
<pdfrwt beam="1">  1       21 0.46475670E-02 0.30000000E+03</pdfrwt>
<pdfrwt beam="2">0</pdfrwt>
<totfact> 0.32620525E+04</totfact>
</mgrwt>
</event>
<event>
 6    1  0.1198667E-001  0.3000000E+03  0.7818608E-02  0.1093470E+00
         21   -1    0    0  501  502  0.00000000000E+00  0.00000000000E+00  0.73019592670E+01  0.73019592670E+01  0.00000000000E+00 0. -1.
         13   -1    0    0    0    0 -0.00000000000E+00 -0.00000000000E+00 -0.10000000000E+04  0.10000000000E+04  0.00000000000E+00 0.  1.
    9000005    2    1    2  501    0 -0.35251848601E+02 -0.20660096052E+02 -0.93866555162E+03  0.93955948900E+03  0.30794746579E+01 0.  0.
         13    1    3    3    0    0 -0.21473455784E+02 -0.11770592831E+02 -0.59242903029E+03  0.59293491387E+03  0.00000000000E+00 0.  1.
          1    1    3    3  501    0 -0.13778392818E+02 -0.88895032211E+01 -0.34623652133E+03  0.34662457513E+03  0.00000000000E+00 0.  1.
         -1    1    1    2    0  502  0.35251848601E+02  0.20660096052E+02 -0.54032489110E+02  0.67742470269E+02  0.00000000000E+00 0. -1.
<mgrwt>
<rscale>  1 0.30000000E+03</rscale>
<asrwt>0</asrwt>
<pdfrwt beam="1">  1       21 0.26552635E-01 0.30000000E+03</pdfrwt>
<pdfrwt beam="2">0</pdfrwt>
<totfact> 0.13854115E+03</totfact>
</mgrwt>
</event>
<event>
 6    1  0.1198667E-001  0.3000000E+03  0.7818608E-02  0.1093470E+00
         21   -1    0    0  501  502  0.00000000000E+00  0.00000000000E+00  0.74234946546E+01  0.74234946546E+01  0.00000000000E+00 0. -1.
         13   -1    0    0    0    0 -0.00000000000E+00 -0.00000000000E+00 -0.10000000000E+04  0.10000000000E+04  0.00000000000E+00 0.  1.
    9000005    2    1    2  501    0 -0.28972808900E+02 -0.77707692967E+02 -0.36049802886E+03  0.36992752632E+03  0.31043064365E+01 0.  0.
         13    1    3    3    0    0 -0.71238849748E+01 -0.22757884073E+02 -0.10099454930E+03  0.10377172068E+03  0.00000000000E+00 0.  1.
          1    1    3    3  501    0 -0.21848923925E+02 -0.54949808893E+02 -0.25950347955E+03  0.26615580564E+03  0.00000000000E+00 0.  1.
         -3    1    1    2    0  502  0.28972808900E+02  0.77707692967E+02 -0.63207847649E+03  0.63749596833E+03  0.00000000000E+00 0. -1.
<mgrwt>
<rscale>  1 0.30000000E+03</rscale>
<asrwt>0</asrwt>
<pdfrwt beam="1">  1       21 0.26994583E-01 0.30000000E+03</pdfrwt>
<pdfrwt beam="2">0</pdfrwt>
<totfact> 0.13410088E+03</totfact>
</mgrwt>
</event>
<event>
 6    1  0.1198667E-001  0.3000000E+03  0.7818608E-02  0.1093470E+00
         21   -1    0    0  501  502  0.00000000000E+00  0.00000000000E+00  0.13802470360E+01  0.13802470360E+01  0.00000000000E+00 0. -1.
         13   -1    0    0    0    0 -0.00000000000E+00 -0.00000000000E+00 -0.10000000000E+04  0.10000000000E+04  0.00000000000E+00 0.  1.
    9000005    2    1    2  501    0 -0.56312534441E+00  0.31299130639E+02 -0.76805116761E+03  0.76869628704E+03  0.33812642128E+01 0.  0.
         13    1    3    3    0    0 -0.61653876486E+00  0.13657658855E+02 -0.37580351689E+03  0.37605211750E+03  0.00000000000E+00 0.  1.
          1    1    3    3  501    0  0.53413420442E-01  0.17641471784E+02 -0.39224765072E+03  0.39264416954E+03  0.00000000000E+00 0.  1.
         -1    1    1    2    0  502  0.56312534441E+00 -0.31299130639E+02 -0.23056858535E+03  0.23268396000E+03  0.00000000000E+00 0. -1.
<mgrwt>
<rscale>  1 0.30000000E+03</rscale>
<asrwt>0</asrwt>
<pdfrwt beam="1">  1       21 0.50190907E-02 0.30000000E+03</pdfrwt>
<pdfrwt beam="2">0</pdfrwt>
<totfact> 0.28618115E+04</totfact>
</mgrwt>
</event>
<event>
 6    1  0.1198667E-001  0.3000000E+03  0.7818608E-02  0.1093470E+00
         21   -1    0    0  501  502  0.00000000000E+00  0.00000000000E+00  0.19904706048E+01  0.19904706048E+01  0.00000000000E+00 0. -1.
         13   -1    0    0    0    0 -0.00000000000E+00 -0.00000000000E+00 -0.10000000000E+04  0.10000000000E+04  0.00000000000E+00 0.  1.
    9000005    2    1    2  501    0  0.30885712115E+02  0.15653149018E+02 -0.81417621952E+03  0.81492461561E+03  0.45015997938E+01 0.  0.
         13    1    3    3    0    0  0.72610743819E+00  0.57846220286E+00 -0.10347710319E+02  0.10389271359E+02  0.00000000000E+00 0.  1.
          1    1    3    3  501    0  0.30159604676E+02  0.15074686815E+02 -0.80382850920E+03  0.80453534425E+03  0.00000000000E+00 0.  1.
         -3    1    1    2    0  502 -0.30885712115E+02 -0.15653149018E+02 -0.18383330987E+03  0.18706585500E+03  0.00000000000E+00 0. -1.
<mgrwt>
<rscale>  1 0.30000000E+03</rscale>
<asrwt>0</asrwt>
<pdfrwt beam="1">  1       21 0.72380902E-02 0.30000000E+03</pdfrwt>
<pdfrwt beam="2">0</pdfrwt>
<totfact> 0.15221621E+04</totfact>
</mgrwt>
</event>
<event>
 6    1  0.1198667E-001  0.3000000E+03  0.7818608E-02  0.1093470E+00
         21   -1    0    0  501  502  0.00000000000E+00  0.00000000000E+00  0.11728282372E+01  0.11728282372E+01  0.00000000000E+00 0. -1.
         13   -1    0    0    0    0 -0.00000000000E+00 -0.00000000000E+00 -0.10000000000E+04  0.10000000000E+04  0.00000000000E+00 0.  1.
    9000005    2    1    2  501    0  0.33979795492E+02 -0.61470292052E+00 -0.45386121674E+03  0.45514819830E+03  0.38566819791E+01 0.  0.
         13    1    3    3    0    0  0.27572959331E+02 -0.16496862723E+01 -0.37983119524E+03  0.38083425060E+03  0.00000000000E+00 0.  1.
          1    1    3    3  501    0  0.64068361612E+01  0.10349833518E+01 -0.74030021495E+02  0.74313947699E+02  0.00000000000E+00 0.  1.
         -1    1    1    2    0  502 -0.33979795492E+02  0.61470292052E+00 -0.54496595503E+03  0.54602462994E+03  0.00000000000E+00 0. -1.
<mgrwt>
<rscale>  1 0.30000000E+03</rscale>
<asrwt>0</asrwt>
<pdfrwt beam="1">  1       21 0.42648389E-02 0.30000000E+03</pdfrwt>
<pdfrwt beam="2">0</pdfrwt>
<totfact> 0.37736991E+04</totfact>
</mgrwt>
</event>
<event>
 6    1  0.1198667E-001  0.3000000E+03  0.7818608E-02  0.1093470E+00
         21   -1    0    0  501  502  0.00000000000E+00  0.00000000000E+00  0.47402503072E+01  0.47402503072E+01  0.00000000000E+00 0. -1.
         13   -1    0    0    0    0 -0.00000000000E+00 -0.00000000000E+00 -0.10000000000E+04  0.10000000000E+04  0.00000000000E+00 0.  1.
    9000005    2    1    2  501    0 -0.24940498722E+02  0.21706211267E+02 -0.93808232470E+03  0.93869143493E+03  0.70692298585E+01 0.  0.
         13    1    3    3    0    0 -0.58740258603E+01  0.92392398438E+01 -0.27475438417E+03  0.27497243381E+03  0.00000000000E+00 0.  1.
          3    1    3    3  501    0 -0.19066472862E+02  0.12466971423E+02 -0.66332794052E+03  0.66371900112E+03  0.00000000000E+00 0.  1.
         -3    1    1    2    0  502  0.24940498722E+02 -0.21706211267E+02 -0.57177424995E+02  0.66048815380E+02  0.00000000000E+00 0. -1.
<mgrwt>
<rscale>  1 0.30000000E+03</rscale>
<asrwt>0</asrwt>
<pdfrwt beam="1">  1       21 0.17237310E-01 0.30000000E+03</pdfrwt>
<pdfrwt beam="2">0</pdfrwt>
<totfact> 0.31778757E+03</totfact>
</mgrwt>
</event>
<event>
 6    1  0.1198667E-001  0.3000000E+03  0.7818608E-02  0.1093470E+00
         21   -1    0    0  501  502  0.00000000000E+00  0.00000000000E+00  0.28957365965E+01  0.28957365965E+01  0.00000000000E+00 0. -1.
         13   -1    0    0    0    0 -0.00000000000E+00 -0.00000000000E+00 -0.10000000000E+04  0.10000000000E+04  0.00000000000E+00 0.  1.
    9000005    2    1    2  501    0  0.47514121265E+02  0.10447709030E+02 -0.71222861187E+03  0.71389593871E+03  0.33270696262E+01 0.  0.
         13    1    3    3    0    0  0.74809963537E+01  0.15986318055E+01 -0.95373959418E+02  0.95680264763E+02  0.00000000000E+00 0.  1.
          1    1    3    3  501    0  0.40033124911E+02  0.88490772248E+01 -0.61685465246E+03  0.61821567395E+03  0.00000000000E+00 0.  1.
         -3    1    1    2    0  502 -0.47514121265E+02 -0.10447709030E+02 -0.28487565153E+03  0.28899979788E+03  0.00000000000E+00 0. -1.
<mgrwt>
<rscale>  1 0.30000000E+03</rscale>
<asrwt>0</asrwt>
<pdfrwt beam="1">  1       21 0.10529973E-01 0.30000000E+03</pdfrwt>
<pdfrwt beam="2">0</pdfrwt>
<totfact> 0.78436825E+03</totfact>
</mgrwt>
</event>
<event>
 6    1  0.1198667E-001  0.3000000E+03  0.7818608E-02  0.1093470E+00
         21   -1    0    0  501  502  0.00000000000E+00  0.00000000000E+00  0.25108789853E+01  0.25108789853E+01  0.00000000000E+00 0. -1.
         13   -1    0    0    0    0 -0.00000000000E+00 -0.00000000000E+00 -0.10000000000E+04  0.10000000000E+04  0.00000000000E+00 0.  1.
    9000005    2    1    2  501    0  0.20352658055E+01  0.45092287940E+02 -0.71522423899E+03  0.71665965831E+03  0.42304926320E+01 0.  0.
         13    1    3    3    0    0 -0.47612069754E+00  0.16923496494E+02 -0.29410217605E+03  0.29458907207E+03  0.00000000000E+00 0.  1.
          1    1    3    3  501    0  0.25113865031E+01  0.28168791446E+02 -0.42112206294E+03  0.42207058624E+03  0.00000000000E+00 0.  1.
         -3    1    1    2    0  502 -0.20352658055E+01 -0.45092287940E+02 -0.28226488202E+03  0.28585122067E+03  0.00000000000E+00 0. -1.
<mgrwt>
<rscale>  1 0.30000000E+03</rscale>
<asrwt>0</asrwt>
<pdfrwt beam="1">  1       21 0.91304883E-02 0.30000000E+03</pdfrwt>
<pdfrwt beam="2">0</pdfrwt>
<totfact> 0.10116598E+04</totfact>
</mgrwt>
</event>
<event>
 6    1  0.1198667E-001  0.3000000E+03  0.7818608E-02  0.1093470E+00
         21   -1    0    0  501  502  0.00000000000E+00  0.00000000000E+00  0.93868638206E+01  0.93868638206E+01  0.00000000000E+00 0. -1.
         13   -1    0    0    0    0 -0.00000000000E+00 -0.00000000000E+00 -0.10000000000E+04  0.10000000000E+04  0.00000000000E+00 0.  1.
    9000005    2    1    2  501    0  0.34758862068E+02  0.37129948665E+02 -0.92481409515E+03  0.92622241600E+03  0.44768003424E+01 0.  0.
         13    1    3    3    0    0  0.13054175834E+02  0.12723040651E+02 -0.36800281394E+03  0.36845401115E+03  0.00000000000E+00 0.  1.
          1    1    3    3  501    0  0.21704686234E+02  0.24406908014E+02 -0.55681128121E+03  0.55776840485E+03  0.00000000000E+00 0.  1.
         -1    1    1    2    0  502 -0.34758862068E+02 -0.37129948665E+02 -0.65799041030E+02  0.83164447817E+02  0.00000000000E+00 0. -1.
<mgrwt>
<rscale>  1 0.30000000E+03</rscale>
<asrwt>0</asrwt>
<pdfrwt beam="1">  1       21 0.34134122E-01 0.30000000E+03</pdfrwt>
<pdfrwt beam="2">0</pdfrwt>
<totfact> 0.83757087E+02</totfact>
</mgrwt>
</event>
<event>
 6    1  0.1198667E-001  0.3000000E+03  0.7818608E-02  0.1093470E+00
         21   -1    0    0  501  502  0.00000000000E+00  0.00000000000E+00  0.97142494513E+00  0.97142494513E+00  0.00000000000E+00 0. -1.
         13   -1    0    0    0    0 -0.00000000000E+00 -0.00000000000E+00 -0.10000000000E+04  0.10000000000E+04  0.00000000000E+00 0.  1.
    9000005    2    1    2  501    0 -0.27208975474E+02 -0.14821362362E+02 -0.46044437865E+03  0.46149673810E+03  0.31956718747E+01 0.  0.
         13    1    3    3    0    0 -0.91600588193E+00 -0.50296983860E+00 -0.89470508820E+01  0.90078723859E+01  0.00000000000E+00 0.  1.
          3    1    3    3  501    0 -0.26292969592E+02 -0.14318392523E+02 -0.45149732777E+03  0.45248886572E+03  0.00000000000E+00 0.  1.
         -1    1    1    2    0  502  0.27208975474E+02  0.14821362362E+02 -0.53858419640E+03  0.53947468684E+03  0.00000000000E+00 0. -1.
<mgrwt>
<rscale>  1 0.30000000E+03</rscale>
<asrwt>0</asrwt>
<pdfrwt beam="1">  1       21 0.35324618E-02 0.30000000E+03</pdfrwt>
<pdfrwt beam="2">0</pdfrwt>
<totfact> 0.51809398E+04</totfact>
</mgrwt>
</event>
<event>
 6    1  0.1198667E-001  0.3000000E+03  0.7818608E-02  0.1093470E+00
         21   -1    0    0  501  502  0.00000000000E+00  0.00000000000E+00  0.10231222832E+01  0.10231222832E+01  0.00000000000E+00 0. -1.
         13   -1    0    0    0    0 -0.00000000000E+00 -0.00000000000E+00 -0.10000000000E+04  0.10000000000E+04  0.00000000000E+00 0.  1.
    9000005    2    1    2  501    0 -0.30996637175E+02  0.67467732438E+01 -0.44966856047E+03  0.45079958783E+03  0.34847741405E+01 0.  0.
         13    1    3    3    0    0 -0.20134672448E+02  0.41543739139E+01 -0.31392289776E+03  0.31459537441E+03  0.00000000000E+00 0.  1.
          1    1    3    3  501    0 -0.10861964726E+02  0.25923993299E+01 -0.13574566270E+03  0.13620421343E+03  0.00000000000E+00 0.  1.
         -3    1    1    2    0  502  0.30996637175E+02 -0.67467732438E+01 -0.54930831725E+03  0.55022353445E+03  0.00000000000E+00 0. -1.
<mgrwt>
<rscale>  1 0.30000000E+03</rscale>
<asrwt>0</asrwt>
<pdfrwt beam="1">  1       21 0.37204525E-02 0.30000000E+03</pdfrwt>
<pdfrwt beam="2">0</pdfrwt>
<totfact> 0.47493919E+04</totfact>
</mgrwt>
</event>
<event>
 6    1  0.1198667E-001  0.3000000E+03  0.7818608E-02  0.1093470E+00
         21   -1    0    0  501  502  0.00000000000E+00  0.00000000000E+00  0.27828406572E+01  0.27828406572E+01  0.00000000000E+00 0. -1.
         13   -1    0    0    0    0 -0.00000000000E+00 -0.00000000000E+00 -0.10000000000E+04  0.10000000000E+04  0.00000000000E+00 0.  1.
    9000005    2    1    2  501    0 -0.32366010856E+02  0.41597589726E+02 -0.49722674679E+03  0.50002213140E+03  0.31266651559E+01 0.  0.
         13    1    3    3    0    0 -0.15660939501E+02  0.20164437430E+02 -0.25568949203E+03  0.25696105910E+03  0.00000000000E+00 0.  1.
          1    1    3    3  501    0 -0.16705071355E+02  0.21433152296E+02 -0.24153725476E+03  0.24306107229E+03  0.00000000000E+00 0.  1.
         -1    1    1    2    0  502  0.32366010856E+02 -0.41597589726E+02 -0.49999041255E+03  0.50276070926E+03  0.00000000000E+00 0. -1.
<mgrwt>
<rscale>  1 0.30000000E+03</rscale>
<asrwt>0</asrwt>
<pdfrwt beam="1">  1       21 0.10119442E-01 0.30000000E+03</pdfrwt>
<pdfrwt beam="2">0</pdfrwt>
<totfact> 0.84225319E+03</totfact>
</mgrwt>
</event>
<event>
 6    1  0.1198667E-001  0.3000000E+03  0.7818608E-02  0.1093470E+00
         21   -1    0    0  501  502  0.00000000000E+00  0.00000000000E+00  0.52017254843E+01  0.52017254843E+01  0.00000000000E+00 0. -1.
         13   -1    0    0    0    0 -0.00000000000E+00 -0.00000000000E+00 -0.10000000000E+04  0.10000000000E+04  0.00000000000E+00 0.  1.
    9000005    2    1    2  501    0  0.31868330029E+02 -0.19462438114E+02 -0.92734061351E+03  0.92809846366E+03  0.34304254662E+01 0.  0.
         13    1    3    3    0    0  0.26449845183E+02 -0.17091543068E+02 -0.80298348195E+03  0.80360076372E+03  0.00000000000E+00 0.  1.
          1    1    3    3  501    0  0.54184848464E+01 -0.23708950465E+01 -0.12435713156E+03  0.12449769994E+03  0.00000000000E+00 0.  1.
         -3    1    1    2    0  502 -0.31868330029E+02  0.19462438114E+02 -0.67457661002E+02  0.77103261825E+02  0.00000000000E+00 0. -1.
<mgrwt>
<rscale>  1 0.30000000E+03</rscale>
<asrwt>0</asrwt>
<pdfrwt beam="1">  1       21 0.18915405E-01 0.30000000E+03</pdfrwt>
<pdfrwt beam="2">0</pdfrwt>
<totfact> 0.26675490E+03</totfact>
</mgrwt>
</event>
<event>
 6    1  0.1198667E-001  0.3000000E+03  0.7818608E-02  0.1093470E+00
         21   -1    0    0  501  502  0.00000000000E+00  0.00000000000E+00  0.11374708886E+01  0.11374708886E+01  0.00000000000E+00 0. -1.
         13   -1    0    0    0    0 -0.00000000000E+00 -0.00000000000E+00 -0.10000000000E+04  0.10000000000E+04  0.00000000000E+00 0.  1.
    9000005    2    1    2  501    0  0.12570688438E+02  0.30250827042E+02 -0.61585951467E+03  0.61673606115E+03  0.27004736349E+01 0.  0.
         13    1    3    3    0    0  0.11834665554E+02  0.26555383174E+02 -0.55300491294E+03  0.55376861722E+03  0.00000000000E+00 0.  1.
          3    1    3    3  501    0  0.73602288394E+00  0.36954438685E+01 -0.62854601735E+02  0.62967443924E+02  0.00000000000E+00 0.  1.
         -3    1    1    2    0  502 -0.12570688438E+02 -0.30250827042E+02 -0.38300301444E+03  0.38440140974E+03  0.00000000000E+00 0. -1.
<mgrwt>
<rscale>  1 0.30000000E+03</rscale>
<asrwt>0</asrwt>
<pdfrwt beam="1">  1       21 0.41362665E-02 0.30000000E+03</pdfrwt>
<pdfrwt beam="2">0</pdfrwt>
<totfact> 0.39738956E+04</totfact>
</mgrwt>
</event>
<event>
 6    1  0.1198667E-001  0.3000000E+03  0.7818608E-02  0.1093470E+00
         21   -1    0    0  501  502  0.00000000000E+00  0.00000000000E+00  0.48555034665E+01  0.48555034665E+01  0.00000000000E+00 0. -1.
         13   -1    0    0    0    0 -0.00000000000E+00 -0.00000000000E+00 -0.10000000000E+04  0.10000000000E+04  0.00000000000E+00 0.  1.
    9000005    2    1    2  501    0 -0.11703875518E+02  0.28200125461E+02 -0.94916578607E+03  0.94966248222E+03  0.33034705496E+01 0.  0.
         13    1    3    3    0    0 -0.10741936160E+02  0.27491973487E+02 -0.91192970216E+03  0.91240724432E+03  0.00000000000E+00 0.  1.
          3    1    3    3  501    0 -0.96193935779E+00  0.70815197488E+00 -0.37236083906E+02  0.37255237903E+02  0.00000000000E+00 0.  1.
         -3    1    1    2    0  502  0.11703875518E+02 -0.28200125461E+02 -0.45978710467E+02  0.55193021247E+02  0.00000000000E+00 0. -1.
<mgrwt>
<rscale>  1 0.30000000E+03</rscale>
<asrwt>0</asrwt>
<pdfrwt beam="1">  1       21 0.17656413E-01 0.30000000E+03</pdfrwt>
<pdfrwt beam="2">0</pdfrwt>
<totfact> 0.30377325E+03</totfact>
</mgrwt>
</event>
<event>
 6    1  0.1198667E-001  0.3000000E+03  0.7818608E-02  0.1093470E+00
         21   -1    0    0  501  502  0.00000000000E+00  0.00000000000E+00  0.13110501667E+01  0.13110501667E+01  0.00000000000E+00 0. -1.
         13   -1    0    0    0    0 -0.00000000000E+00 -0.00000000000E+00 -0.10000000000E+04  0.10000000000E+04  0.00000000000E+00 0.  1.
    9000005    2    1    2  501    0  0.16867332510E+02  0.29086995000E+02 -0.68341415571E+03  0.68424834975E+03  0.32149231246E+01 0.  0.
         13    1    3    3    0    0  0.13320190895E+02  0.23269049747E+02 -0.51704405603E+03  0.51773876814E+03  0.00000000000E+00 0.  1.
          3    1    3    3  501    0  0.35471416146E+01  0.58179452531E+01 -0.16637009968E+03  0.16650958161E+03  0.00000000000E+00 0.  1.
         -3    1    1    2    0  502 -0.16867332510E+02 -0.29086995000E+02 -0.31527479412E+03  0.31706270041E+03  0.00000000000E+00 0. -1.
<mgrwt>
<rscale>  1 0.30000000E+03</rscale>
<asrwt>0</asrwt>
<pdfrwt beam="1">  1       21 0.47674652E-02 0.30000000E+03</pdfrwt>
<pdfrwt beam="2">0</pdfrwt>
<totfact> 0.31237922E+04</totfact>
</mgrwt>
</event>
<event>
 6    1  0.1198667E-001  0.3000000E+03  0.7818608E-02  0.1093470E+00
         21   -1    0    0  501  502  0.00000000000E+00  0.00000000000E+00  0.10837106585E+01  0.10837106585E+01  0.00000000000E+00 0. -1.
         13   -1    0    0    0    0 -0.00000000000E+00 -0.00000000000E+00 -0.10000000000E+04  0.10000000000E+04  0.00000000000E+00 0.  1.
    9000005    2    1    2  501    0 -0.31108969891E+02 -0.83280761031E+01 -0.59889142135E+03  0.59976461085E+03  0.30869082478E+01 0.  0.
         13    1    3    3    0    0 -0.27147818174E+01 -0.15350518304E+01 -0.66948150102E+02  0.67020752208E+02  0.00000000000E+00 0.  1.
          3    1    3    3  501    0 -0.28394188074E+02 -0.67930242727E+01 -0.53194327125E+03  0.53274385864E+03  0.00000000000E+00 0.  1.
         -3    1    1    2    0  502  0.31108969891E+02  0.83280761031E+01 -0.40002486799E+03  0.40131909981E+03  0.00000000000E+00 0. -1.
<mgrwt>
<rscale>  1 0.30000000E+03</rscale>
<asrwt>0</asrwt>
<pdfrwt beam="1">  1       21 0.39407743E-02 0.30000000E+03</pdfrwt>
<pdfrwt beam="2">0</pdfrwt>
<totfact> 0.43116571E+04</totfact>
</mgrwt>
</event>
<event>
 6    1  0.1198667E-001  0.3000000E+03  0.7818608E-02  0.1093470E+00
         21   -1    0    0  501  502  0.00000000000E+00  0.00000000000E+00  0.13274947230E+01  0.13274947230E+01  0.00000000000E+00 0. -1.
         13   -1    0    0    0    0 -0.00000000000E+00 -0.00000000000E+00 -0.10000000000E+04  0.10000000000E+04  0.00000000000E+00 0.  1.
    9000005    2    1    2  501    0 -0.73122473530E+01 -0.30060874884E+02 -0.76277980770E+03  0.76341471673E+03  0.34452186732E+01 0.  0.
         13    1    3    3    0    0 -0.62076140085E+01 -0.26534750590E+02 -0.64133670715E+03  0.64191541452E+03  0.00000000000E+00 0.  1.
          3    1    3    3  501    0 -0.11046333445E+01 -0.35261242944E+01 -0.12144310055E+03  0.12149930221E+03  0.00000000000E+00 0.  1.
         -3    1    1    2    0  502  0.73122473530E+01  0.30060874884E+02 -0.23589269758E+03  0.23791277799E+03  0.00000000000E+00 0. -1.
<mgrwt>
<rscale>  1 0.30000000E+03</rscale>
<asrwt>0</asrwt>
<pdfrwt beam="1">  1       21 0.48272637E-02 0.30000000E+03</pdfrwt>
<pdfrwt beam="2">0</pdfrwt>
<totfact> 0.30582340E+04</totfact>
</mgrwt>
</event>
<event>
 6    1  0.1198667E-001  0.3000000E+03  0.7818608E-02  0.1093470E+00
         21   -1    0    0  501  502  0.00000000000E+00  0.00000000000E+00  0.11499531842E+01  0.11499531842E+01  0.00000000000E+00 0. -1.
         13   -1    0    0    0    0 -0.00000000000E+00 -0.00000000000E+00 -0.10000000000E+04  0.10000000000E+04  0.00000000000E+00 0.  1.
    9000005    2    1    2  501    0 -0.26320595928E+02  0.16421094236E+02 -0.69983802501E+03  0.70053289563E+03  0.32635117755E+01 0.  0.
         13    1    3    3    0    0 -0.16224342511E+02  0.94509807319E+01 -0.38909259978E+03  0.38954537801E+03  0.00000000000E+00 0.  1.
          3    1    3    3  501    0 -0.10096253417E+02  0.69701135041E+01 -0.31074542523E+03  0.31098751762E+03  0.00000000000E+00 0.  1.
         -3    1    1    2    0  502  0.26320595928E+02 -0.16421094236E+02 -0.29901202181E+03  0.30061705755E+03  0.00000000000E+00 0. -1.
<mgrwt>
<rscale>  1 0.30000000E+03</rscale>
<asrwt>0</asrwt>
<pdfrwt beam="1">  1       21 0.41816568E-02 0.30000000E+03</pdfrwt>
<pdfrwt beam="2">0</pdfrwt>
<totfact> 0.39013714E+04</totfact>
</mgrwt>
</event>
<event>
 6    1  0.1198667E-001  0.3000000E+03  0.7818608E-02  0.1093470E+00
         21   -1    0    0  501  502  0.00000000000E+00  0.00000000000E+00  0.17781894829E+01  0.17781894829E+01  0.00000000000E+00 0. -1.
         13   -1    0    0    0    0 -0.00000000000E+00 -0.00000000000E+00 -0.10000000000E+04  0.10000000000E+04  0.00000000000E+00 0.  1.
    9000005    2    1    2  501    0 -0.32032435156E+01  0.41120240633E+02 -0.59998278872E+03  0.60140904302E+03  0.35150114656E+01 0.  0.
         13    1    3    3    0    0 -0.15423542652E+01  0.34331611074E+02 -0.48839386608E+03  0.48960147753E+03  0.00000000000E+00 0.  1.
          3    1    3    3  501    0 -0.16608892505E+01  0.67886295586E+01 -0.11158892264E+03  0.11180756549E+03  0.00000000000E+00 0.  1.
         -1    1    1    2    0  502  0.32032435156E+01 -0.41120240633E+02 -0.39823902180E+03  0.40036914647E+03  0.00000000000E+00 0. -1.
<mgrwt>
<rscale>  1 0.30000000E+03</rscale>
<asrwt>0</asrwt>
<pdfrwt beam="1">  1       21 0.64661572E-02 0.30000000E+03</pdfrwt>
<pdfrwt beam="2">0</pdfrwt>
<totfact> 0.18516623E+04</totfact>
</mgrwt>
</event>
<event>
 6    1  0.1198667E-001  0.3000000E+03  0.7818608E-02  0.1093470E+00
         21   -1    0    0  501  502  0.00000000000E+00  0.00000000000E+00  0.17490697863E+01  0.17490697863E+01  0.00000000000E+00 0. -1.
         13   -1    0    0    0    0 -0.00000000000E+00 -0.00000000000E+00 -0.10000000000E+04  0.10000000000E+04  0.00000000000E+00 0.  1.
    9000005    2    1    2  501    0  0.41031866344E+02  0.18225722447E+01 -0.41116059751E+03  0.41322379881E+03  0.37329789386E+01 0.  0.
         13    1    3    3    0    0  0.36079237962E+01  0.98991463441E+00 -0.44703866372E+02  0.44860146163E+02  0.00000000000E+00 0.  1.
          3    1    3    3  501    0  0.37423942548E+02  0.83265761031E+00 -0.36645673114E+03  0.36836365265E+03  0.00000000000E+00 0.  1.
         -3    1    1    2    0  502 -0.41031866344E+02 -0.18225722447E+01 -0.58709033270E+03  0.58852527098E+03  0.00000000000E+00 0. -1.
<mgrwt>
<rscale>  1 0.30000000E+03</rscale>
<asrwt>0</asrwt>
<pdfrwt beam="1">  1       21 0.63602672E-02 0.30000000E+03</pdfrwt>
<pdfrwt beam="2">0</pdfrwt>
<totfact> 0.19053200E+04</totfact>
</mgrwt>
</event>
<event>
 6    1  0.1198667E-001  0.3000000E+03  0.7818608E-02  0.1093470E+00
         21   -1    0    0  501  502  0.00000000000E+00  0.00000000000E+00  0.13754081397E+01  0.13754081397E+01  0.00000000000E+00 0. -1.
         13   -1    0    0    0    0 -0.00000000000E+00 -0.00000000000E+00 -0.10000000000E+04  0.10000000000E+04  0.00000000000E+00 0.  1.
    9000005    2    1    2  501    0  0.17154284358E+02 -0.32774804715E+02 -0.48237849402E+03  0.48380561494E+03  0.32255635067E+01 0.  0.
         13    1    3    3    0    0  0.10590698227E+02 -0.22885813160E+02 -0.33907864229E+03  0.34001507171E+03  0.00000000000E+00 0.  1.
          1    1    3    3  501    0  0.65635861304E+01 -0.98889915550E+01 -0.14329985173E+03  0.14379054323E+03  0.00000000000E+00 0.  1.
         -1    1    1    2    0  502 -0.17154284358E+02  0.32774804715E+02 -0.51624609784E+03  0.51756979320E+03  0.00000000000E+00 0. -1.
<mgrwt>
<rscale>  1 0.30000000E+03</rscale>
<asrwt>0</asrwt>
<pdfrwt beam="1">  1       21 0.50014947E-02 0.30000000E+03</pdfrwt>
<pdfrwt beam="2">0</pdfrwt>
<totfact> 0.28789982E+04</totfact>
</mgrwt>
</event>
<event>
 6    1  0.1198667E-001  0.3000000E+03  0.7818608E-02  0.1093470E+00
         21   -1    0    0  501  502  0.00000000000E+00  0.00000000000E+00  0.36780038357E+01  0.36780038357E+01  0.00000000000E+00 0. -1.
         13   -1    0    0    0    0 -0.00000000000E+00 -0.00000000000E+00 -0.10000000000E+04  0.10000000000E+04  0.00000000000E+00 0.  1.
    9000005    2    1    2  501    0 -0.25066612202E+02 -0.22680798383E+02 -0.91473092980E+03  0.91536121170E+03  0.32741854351E+01 0.  0.
         13    1    3    3    0    0 -0.17757724166E+02 -0.16588078386E+02 -0.69393829083E+03  0.69436363139E+03  0.00000000000E+00 0.  1.
          3    1    3    3  501    0 -0.73088880366E+01 -0.60927199973E+01 -0.22079263897E+03  0.22099758031E+03  0.00000000000E+00 0.  1.
         -3    1    1    2    0  502  0.25066612202E+02  0.22680798383E+02 -0.81591066363E+02  0.88316792134E+02  0.00000000000E+00 0. -1.
<mgrwt>
<rscale>  1 0.30000000E+03</rscale>
<asrwt>0</asrwt>
<pdfrwt beam="1">  1       21 0.13374588E-01 0.30000000E+03</pdfrwt>
<pdfrwt beam="2">0</pdfrwt>
<totfact> 0.50854579E+03</totfact>
</mgrwt>
</event>
<event>
 6    1  0.1198667E-001  0.3000000E+03  0.7818608E-02  0.1093470E+00
         21   -1    0    0  501  502  0.00000000000E+00  0.00000000000E+00  0.17749275268E+01  0.17749275268E+01  0.00000000000E+00 0. -1.
         13   -1    0    0    0    0 -0.00000000000E+00 -0.00000000000E+00 -0.10000000000E+04  0.10000000000E+04  0.00000000000E+00 0.  1.
    9000005    2    1    2  501    0 -0.33732541031E+02 -0.94104940283E+01 -0.77700625796E+03  0.77780125583E+03  0.31027289480E+01 0.  0.
         13    1    3    3    0    0 -0.33689842367E+02 -0.93942868938E+01 -0.77688170153E+03  0.77766859026E+03  0.00000000000E+00 0.  1.
          1    1    3    3  501    0 -0.42698664671E-01 -0.16207134448E-01 -0.12455643720E+00  0.13266556908E+00  0.00000000000E+00 0.  1.
         -3    1    1    2    0  502  0.33732541031E+02  0.94104940283E+01 -0.22121881451E+03  0.22397367170E+03  0.00000000000E+00 0. -1.
<mgrwt>
<rscale>  1 0.30000000E+03</rscale>
<asrwt>0</asrwt>
<pdfrwt beam="1">  1       21 0.64542955E-02 0.30000000E+03</pdfrwt>
<pdfrwt beam="2">0</pdfrwt>
<totfact> 0.18575560E+04</totfact>
</mgrwt>
</event>
<event>
 6    1  0.1198667E-001  0.3000000E+03  0.7818608E-02  0.1093470E+00
         21   -1    0    0  501  502  0.00000000000E+00  0.00000000000E+00  0.93214851930E+00  0.93214851930E+00  0.00000000000E+00 0. -1.
         13   -1    0    0    0    0 -0.00000000000E+00 -0.00000000000E+00 -0.10000000000E+04  0.10000000000E+04  0.00000000000E+00 0.  1.
    9000005    2    1    2  501    0 -0.28220556141E+02 -0.10866314634E+02 -0.55398759164E+03  0.55482575506E+03  0.38587831721E+01 0.  0.
         13    1    3    3    0    0 -0.69820839033E+01 -0.17357724388E+01 -0.10797040050E+03  0.10820984144E+03  0.00000000000E+00 0.  1.
          3    1    3    3  501    0 -0.21238472238E+02 -0.91305421953E+01 -0.44601719114E+03  0.44661591362E+03  0.00000000000E+00 0.  1.
         -1    1    1    2    0  502  0.28220556141E+02  0.10866314634E+02 -0.44508025984E+03  0.44610639346E+03  0.00000000000E+00 0. -1.
<mgrwt>
<rscale>  1 0.30000000E+03</rscale>
<asrwt>0</asrwt>
<pdfrwt beam="1">  1       21 0.33896381E-02 0.30000000E+03</pdfrwt>
<pdfrwt beam="2">0</pdfrwt>
<totfact> 0.55513427E+04</totfact>
</mgrwt>
</event>
<event>
 6    1  0.1198667E-001  0.3000000E+03  0.7818608E-02  0.1093470E+00
         21   -1    0    0  501  502  0.00000000000E+00  0.00000000000E+00  0.11673277987E+01  0.11673277987E+01  0.00000000000E+00 0. -1.
         13   -1    0    0    0    0 -0.00000000000E+00 -0.00000000000E+00 -0.10000000000E+04  0.10000000000E+04  0.00000000000E+00 0.  1.
    9000005    2    1    2  501    0  0.29852758166E+02 -0.12884706543E+02 -0.64944640159E+03  0.65027137609E+03  0.38770082323E+01 0.  0.
         13    1    3    3    0    0  0.18674595834E+02 -0.82055459976E+01 -0.36910697740E+03  0.36967016688E+03  0.00000000000E+00 0.  1.
          3    1    3    3  501    0  0.11178162332E+02 -0.46791605456E+01 -0.28033942419E+03  0.28060120921E+03  0.00000000000E+00 0.  1.
         -1    1    1    2    0  502 -0.29852758166E+02  0.12884706543E+02 -0.34938627061E+03  0.35089595171E+03  0.00000000000E+00 0. -1.
<mgrwt>
<rscale>  1 0.30000000E+03</rscale>
<asrwt>0</asrwt>
<pdfrwt beam="1">  1       21 0.42448373E-02 0.30000000E+03</pdfrwt>
<pdfrwt beam="2">0</pdfrwt>
<totfact> 0.38037994E+04</totfact>
</mgrwt>
</event>
<event>
 6    1  0.1198667E-001  0.3000000E+03  0.7818608E-02  0.1093470E+00
         21   -1    0    0  501  502  0.00000000000E+00  0.00000000000E+00  0.14983836906E+01  0.14983836906E+01  0.00000000000E+00 0. -1.
         13   -1    0    0    0    0 -0.00000000000E+00 -0.00000000000E+00 -0.10000000000E+04  0.10000000000E+04  0.00000000000E+00 0.  1.
    9000005    2    1    2  501    0  0.35622944426E+02  0.20274438589E+01 -0.69186648440E+03  0.69279430400E+03  0.34074502071E+01 0.  0.
         13    1    3    3    0    0  0.27635641384E+01  0.21176967966E-01 -0.38567742971E+02  0.38666633330E+02  0.00000000000E+00 0.  1.
          3    1    3    3  501    0  0.32859380288E+02  0.20062668909E+01 -0.65329874143E+03  0.65412767067E+03  0.00000000000E+00 0.  1.
         -3    1    1    2    0  502 -0.35622944426E+02 -0.20274438589E+01 -0.30663513191E+03  0.30870407969E+03  0.00000000000E+00 0. -1.
<mgrwt>
<rscale>  1 0.30000000E+03</rscale>
<asrwt>0</asrwt>
<pdfrwt beam="1">  1       21 0.54486795E-02 0.30000000E+03</pdfrwt>
<pdfrwt beam="2">0</pdfrwt>
<totfact> 0.24870608E+04</totfact>
</mgrwt>
</event>
<event>
 6    1  0.1198667E-001  0.3000000E+03  0.7818608E-02  0.1093470E+00
         21   -1    0    0  501  502  0.00000000000E+00  0.00000000000E+00  0.29469276653E+01  0.29469276653E+01  0.00000000000E+00 0. -1.
         13   -1    0    0    0    0 -0.00000000000E+00 -0.00000000000E+00 -0.10000000000E+04  0.10000000000E+04  0.00000000000E+00 0.  1.
    9000005    2    1    2  501    0 -0.18095082177E+02 -0.30286136978E+02 -0.87953078095E+03  0.88024333740E+03  0.30424174269E+01 0.  0.
         13    1    3    3    0    0 -0.91506597295E+01 -0.15932234729E+02 -0.49479359353E+03  0.49513459875E+03  0.00000000000E+00 0.  1.
          1    1    3    3  501    0 -0.89444224478E+01 -0.14353902249E+02 -0.38473718742E+03  0.38510873865E+03  0.00000000000E+00 0.  1.
         -3    1    1    2    0  502  0.18095082177E+02  0.30286136978E+02 -0.11752229139E+03  0.12270359027E+03  0.00000000000E+00 0. -1.
<mgrwt>
<rscale>  1 0.30000000E+03</rscale>
<asrwt>0</asrwt>
<pdfrwt beam="1">  1       21 0.10716123E-01 0.30000000E+03</pdfrwt>
<pdfrwt beam="2">0</pdfrwt>
<totfact> 0.76009197E+03</totfact>
</mgrwt>
</event>
<event>
 6    1  0.1198667E-001  0.3000000E+03  0.7818608E-02  0.1093470E+00
         21   -1    0    0  501  502  0.00000000000E+00  0.00000000000E+00  0.30518447880E+01  0.30518447880E+01  0.00000000000E+00 0. -1.
         13   -1    0    0    0    0 -0.00000000000E+00 -0.00000000000E+00 -0.10000000000E+04  0.10000000000E+04  0.00000000000E+00 0.  1.
    9000005    2    1    2  501    0  0.19077010586E+02  0.24796833878E+02 -0.91171221788E+03  0.91225547748E+03  0.34745733099E+01 0.  0.
         13    1    3    3    0    0  0.61190224420E+01  0.72588511102E+01 -0.23389700672E+03  0.23408960487E+03  0.00000000000E+00 0.  1.
          3    1    3    3  501    0  0.12957988144E+02  0.17537982768E+02 -0.67781521116E+03  0.67816587261E+03  0.00000000000E+00 0.  1.
         -3    1    1    2    0  502 -0.19077010586E+02 -0.24796833878E+02 -0.85235937336E+02  0.90796367310E+02  0.00000000000E+00 0. -1.
<mgrwt>
<rscale>  1 0.30000000E+03</rscale>
<asrwt>0</asrwt>
<pdfrwt beam="1">  1       21 0.11097641E-01 0.30000000E+03</pdfrwt>
<pdfrwt beam="2">0</pdfrwt>
<totfact> 0.71375882E+03</totfact>
</mgrwt>
</event>
<event>
 6    1  0.1198667E-001  0.3000000E+03  0.7818608E-02  0.1093470E+00
         21   -1    0    0  501  502  0.00000000000E+00  0.00000000000E+00  0.57692726522E+01  0.57692726522E+01  0.00000000000E+00 0. -1.
         13   -1    0    0    0    0 -0.00000000000E+00 -0.00000000000E+00 -0.10000000000E+04  0.10000000000E+04  0.00000000000E+00 0.  1.
    9000005    2    1    2  501    0  0.15578383933E+02 -0.46707712520E+02 -0.87973858411E+03  0.88113882967E+03  0.64315103274E+01 0.  0.
         13    1    3    3    0    0  0.82373404981E+01 -0.20095578517E+02 -0.33763475192E+03  0.33833254611E+03  0.00000000000E+00 0.  1.
          3    1    3    3  501    0  0.73410434354E+01 -0.26612134002E+02 -0.54210383219E+03  0.54280628356E+03  0.00000000000E+00 0.  1.
         -3    1    1    2    0  502 -0.15578383933E+02  0.46707712520E+02 -0.11449214324E+03  0.12463044298E+03  0.00000000000E+00 0. -1.
<mgrwt>
<rscale>  1 0.30000000E+03</rscale>
<asrwt>0</asrwt>
<pdfrwt beam="1">  1       21 0.20979218E-01 0.30000000E+03</pdfrwt>
<pdfrwt beam="2">0</pdfrwt>
<totfact> 0.21895744E+03</totfact>
</mgrwt>
</event>
<event>
 6    1  0.1198667E-001  0.3000000E+03  0.7818608E-02  0.1093470E+00
         21   -1    0    0  501  502  0.00000000000E+00  0.00000000000E+00  0.86938651225E+01  0.86938651225E+01  0.00000000000E+00 0. -1.
         13   -1    0    0    0    0 -0.00000000000E+00 -0.00000000000E+00 -0.10000000000E+04  0.10000000000E+04  0.00000000000E+00 0.  1.
    9000005    2    1    2  501    0 -0.40140545906E+02 -0.49229923244E+02 -0.86475477664E+03  0.86709550694E+03  0.43526619106E+01 0.  0.
         13    1    3    3    0    0 -0.25310123150E+02 -0.28014397615E+02 -0.49993663741E+03  0.50136020009E+03  0.00000000000E+00 0.  1.
          3    1    3    3  501    0 -0.14830422756E+02 -0.21215525629E+02 -0.36481813923E+03  0.36573530685E+03  0.00000000000E+00 0.  1.
         -1    1    1    2    0  502  0.40140545906E+02  0.49229923244E+02 -0.12655135824E+03  0.14159835818E+03  0.00000000000E+00 0. -1.
<mgrwt>
<rscale>  1 0.30000000E+03</rscale>
<asrwt>0</asrwt>
<pdfrwt beam="1">  1       21 0.31614122E-01 0.30000000E+03</pdfrwt>
<pdfrwt beam="2">0</pdfrwt>
<totfact> 0.97865050E+02</totfact>
</mgrwt>
</event>
<event>
 6    1  0.1198667E-001  0.3000000E+03  0.7818608E-02  0.1093470E+00
         21   -1    0    0  501  502  0.00000000000E+00  0.00000000000E+00  0.15235851537E+01  0.15235851537E+01  0.00000000000E+00 0. -1.
         13   -1    0    0    0    0 -0.00000000000E+00 -0.00000000000E+00 -0.10000000000E+04  0.10000000000E+04  0.00000000000E+00 0.  1.
    9000005    2    1    2  501    0 -0.28615305677E+02  0.26465199211E+02 -0.50198611705E+03  0.50350565546E+03  0.29395379228E+01 0.  0.
         13    1    3    3    0    0 -0.73092707548E+01  0.52116284374E+01 -0.10921725790E+03  0.10958556443E+03  0.00000000000E+00 0.  1.
          1    1    3    3  501    0 -0.21306034922E+02  0.21253570774E+02 -0.39276885915E+03  0.39392009102E+03  0.00000000000E+00 0.  1.
         -3    1    1    2    0  502  0.28615305677E+02 -0.26465199211E+02 -0.49649029780E+03  0.49801792970E+03  0.00000000000E+00 0. -1.
<mgrwt>
<rscale>  1 0.30000000E+03</rscale>
<asrwt>0</asrwt>
<pdfrwt beam="1">  1       21 0.55403213E-02 0.30000000E+03</pdfrwt>
<pdfrwt beam="2">0</pdfrwt>
<totfact> 0.24169447E+04</totfact>
</mgrwt>
</event>
<event>
 6    1  0.1198667E-001  0.3000000E+03  0.7818608E-02  0.1093470E+00
         21   -1    0    0  501  502  0.00000000000E+00  0.00000000000E+00  0.45451477034E+01  0.45451477034E+01  0.00000000000E+00 0. -1.
         13   -1    0    0    0    0 -0.00000000000E+00 -0.00000000000E+00 -0.10000000000E+04  0.10000000000E+04  0.00000000000E+00 0.  1.
    9000005    2    1    2  501    0  0.38384218925E+02 -0.26788388313E+02 -0.85906265232E+03  0.86034459907E+03  0.36362799437E+01 0.  0.
         13    1    3    3    0    0  0.84277844227E+01 -0.42234589439E+01 -0.18223509476E+03  0.18247875196E+03  0.00000000000E+00 0.  1.
          3    1    3    3  501    0  0.29956434503E+02 -0.22564929370E+02 -0.67682755756E+03  0.67786584711E+03  0.00000000000E+00 0.  1.
         -1    1    1    2    0  502 -0.38384218925E+02  0.26788388313E+02 -0.13639219998E+03  0.14420054863E+03  0.00000000000E+00 0. -1.
<mgrwt>
<rscale>  1 0.30000000E+03</rscale>
<asrwt>0</asrwt>
<pdfrwt beam="1">  1       21 0.16527845E-01 0.30000000E+03</pdfrwt>
<pdfrwt beam="2">0</pdfrwt>
<totfact> 0.34379838E+03</totfact>
</mgrwt>
</event>
<event>
 6    1  0.1198667E-001  0.3000000E+03  0.7818608E-02  0.1093470E+00
         21   -1    0    0  501  502  0.00000000000E+00  0.00000000000E+00  0.60711756045E+01  0.60711756045E+01  0.00000000000E+00 0. -1.
         13   -1    0    0    0    0 -0.00000000000E+00 -0.00000000000E+00 -0.10000000000E+04  0.10000000000E+04  0.00000000000E+00 0.  1.
    9000005    2    1    2  501    0  0.44335573760E+02  0.28191611659E+01 -0.91017895039E+03  0.91126805242E+03  0.31860400721E+01 0.  0.
         13    1    3    3    0    0  0.26371412413E+02  0.11256798054E+01 -0.51026144176E+03  0.51094369308E+03  0.00000000000E+00 0.  1.
          3    1    3    3  501    0  0.17964161347E+02  0.16934813605E+01 -0.39991750863E+03  0.40032435934E+03  0.00000000000E+00 0.  1.
         -1    1    1    2    0  502 -0.44335573760E+02 -0.28191611659E+01 -0.83749874005E+02  0.94803123187E+02  0.00000000000E+00 0. -1.
<mgrwt>
<rscale>  1 0.30000000E+03</rscale>
<asrwt>0</asrwt>
<pdfrwt beam="1">  1       21 0.22077049E-01 0.30000000E+03</pdfrwt>
<pdfrwt beam="2">0</pdfrwt>
<totfact> 0.19851828E+03</totfact>
</mgrwt>
</event>
<event>
 6    1  0.1198667E-001  0.3000000E+03  0.7818608E-02  0.1093470E+00
         21   -1    0    0  501  502  0.00000000000E+00  0.00000000000E+00  0.17834517537E+01  0.17834517537E+01  0.00000000000E+00 0. -1.
         13   -1    0    0    0    0 -0.00000000000E+00 -0.00000000000E+00 -0.10000000000E+04  0.10000000000E+04  0.00000000000E+00 0.  1.
    9000005    2    1    2  501    0 -0.21256153908E+02  0.24160546884E+02 -0.17712862755E+03  0.18006517301E+03  0.36550963642E+01 0.  0.
         13    1    3    3    0    0 -0.98447607934E+01  0.11352380834E+02 -0.72661555835E+02  0.74199040169E+02  0.00000000000E+00 0.  1.
          3    1    3    3  501    0 -0.11411393114E+02  0.12808166050E+02 -0.10446707172E+03  0.10586613284E+03  0.00000000000E+00 0.  1.
         -3    1    1    2    0  502  0.21256153908E+02 -0.24160546884E+02 -0.82108792070E+03  0.82171827874E+03  0.00000000000E+00 0. -1.
<mgrwt>
<rscale>  1 0.30000000E+03</rscale>
<asrwt>0</asrwt>
<pdfrwt beam="1">  1       21 0.64852928E-02 0.30000000E+03</pdfrwt>
<pdfrwt beam="2">0</pdfrwt>
<totfact> 0.18422150E+04</totfact>
</mgrwt>
</event>
<event>
 6    1  0.1198667E-001  0.3000000E+03  0.7818608E-02  0.1093470E+00
         21   -1    0    0  501  502  0.00000000000E+00  0.00000000000E+00  0.41024654020E+01  0.41024654020E+01  0.00000000000E+00 0. -1.
         13   -1    0    0    0    0 -0.00000000000E+00 -0.00000000000E+00 -0.10000000000E+04  0.10000000000E+04  0.00000000000E+00 0.  1.
    9000005    2    1    2  501    0  0.34465383925E+02  0.16615330315E+02 -0.90052903012E+03  0.90134506403E+03  0.25413521095E+01 0.  0.
         13    1    3    3    0    0  0.31469973479E+02  0.14656009372E+02 -0.80182631234E+03  0.80257746853E+03  0.00000000000E+00 0.  1.
          1    1    3    3  501    0  0.29954104460E+01  0.19593209428E+01 -0.98702717778E+02  0.98767595491E+02  0.00000000000E+00 0.  1.
         -3    1    1    2    0  502 -0.34465383925E+02 -0.16615330315E+02 -0.95368504481E+02  0.10275740138E+03  0.00000000000E+00 0. -1.
<mgrwt>
<rscale>  1 0.30000000E+03</rscale>
<asrwt>0</asrwt>
<pdfrwt beam="1">  1       21 0.14918087E-01 0.30000000E+03</pdfrwt>
<pdfrwt beam="2">0</pdfrwt>
<totfact> 0.41599712E+03</totfact>
</mgrwt>
</event>
<event>
 6    1  0.1198667E-001  0.3000000E+03  0.7818608E-02  0.1093470E+00
         21   -1    0    0  501  502  0.00000000000E+00  0.00000000000E+00  0.16437386964E+01  0.16437386964E+01  0.00000000000E+00 0. -1.
         13   -1    0    0    0    0 -0.00000000000E+00 -0.00000000000E+00 -0.10000000000E+04  0.10000000000E+04  0.00000000000E+00 0.  1.
    9000005    2    1    2  501    0  0.23855621755E+02  0.26689968483E+02 -0.72588352426E+03  0.72682955140E+03  0.96364355657E+01 0.  0.
         13    1    3    3    0    0  0.21915456070E+01  0.99208117123E+00 -0.11258904198E+03  0.11261473914E+03  0.00000000000E+00 0.  1.
          1    1    3    3  501    0  0.21664076148E+02  0.25697887312E+02 -0.61329448228E+03  0.61421481226E+03  0.00000000000E+00 0.  1.
         -1    1    1    2    0  502 -0.23855621755E+02 -0.26689968483E+02 -0.27247273705E+03  0.27481418730E+03  0.00000000000E+00 0. -1.
<mgrwt>
<rscale>  1 0.30000000E+03</rscale>
<asrwt>0</asrwt>
<pdfrwt beam="1">  1       21 0.59772442E-02 0.30000000E+03</pdfrwt>
<pdfrwt beam="2">0</pdfrwt>
<totfact> 0.21210199E+04</totfact>
</mgrwt>
</event>
<event>
 6    1  0.1198667E-001  0.3000000E+03  0.7818608E-02  0.1093470E+00
         21   -1    0    0  501  502  0.00000000000E+00  0.00000000000E+00  0.16157652320E+01  0.16157652320E+01  0.00000000000E+00 0. -1.
         13   -1    0    0    0    0 -0.00000000000E+00 -0.00000000000E+00 -0.10000000000E+04  0.10000000000E+04  0.00000000000E+00 0.  1.
    9000005    2    1    2  501    0 -0.31839708995E+02  0.13451121947E+02 -0.75407750434E+03  0.75487606781E+03  0.32086528199E+01 0.  0.
         13    1    3    3    0    0 -0.91453930537E+01  0.52643673794E+01 -0.24532891058E+03  0.24555574957E+03  0.00000000000E+00 0.  1.
          3    1    3    3  501    0 -0.22694315941E+02  0.81867545680E+01 -0.50874859376E+03  0.50932031824E+03  0.00000000000E+00 0.  1.
         -3    1    1    2    0  502  0.31839708995E+02 -0.13451121947E+02 -0.24430673043E+03  0.24673969742E+03  0.00000000000E+00 0. -1.
<mgrwt>
<rscale>  1 0.30000000E+03</rscale>
<asrwt>0</asrwt>
<pdfrwt beam="1">  1       21 0.58755223E-02 0.30000000E+03</pdfrwt>
<pdfrwt beam="2">0</pdfrwt>
<totfact> 0.21847163E+04</totfact>
</mgrwt>
</event>
<event>
 6    1  0.1198667E-001  0.3000000E+03  0.7818608E-02  0.1093470E+00
         21   -1    0    0  501  502  0.00000000000E+00  0.00000000000E+00  0.13761301445E+01  0.13761301445E+01  0.00000000000E+00 0. -1.
         13   -1    0    0    0    0 -0.00000000000E+00 -0.00000000000E+00 -0.10000000000E+04  0.10000000000E+04  0.00000000000E+00 0.  1.
    9000005    2    1    2  501    0 -0.18042007202E+02 -0.28041416758E+02 -0.71726197327E+03  0.71804531302E+03  0.35352771924E+01 0.  0.
         13    1    3    3    0    0 -0.76084212137E+01 -0.12837992726E+02 -0.28544693067E+03  0.28583675824E+03  0.00000000000E+00 0.  1.
          3    1    3    3  501    0 -0.10433585988E+02 -0.15203424031E+02 -0.43181504259E+03  0.43220855478E+03  0.00000000000E+00 0.  1.
         -3    1    1    2    0  502  0.18042007202E+02  0.28041416758E+02 -0.28136189659E+03  0.28333081712E+03  0.00000000000E+00 0. -1.
<mgrwt>
<rscale>  1 0.30000000E+03</rscale>
<asrwt>0</asrwt>
<pdfrwt beam="1">  1       21 0.50041202E-02 0.30000000E+03</pdfrwt>
<pdfrwt beam="2">0</pdfrwt>
<totfact> 0.28764236E+04</totfact>
</mgrwt>
</event>
<event>
 6    1  0.1198667E-001  0.3000000E+03  0.7818608E-02  0.1093470E+00
         21   -1    0    0  501  502  0.00000000000E+00  0.00000000000E+00  0.21013408860E+01  0.21013408860E+01  0.00000000000E+00 0. -1.
         13   -1    0    0    0    0 -0.00000000000E+00 -0.00000000000E+00 -0.10000000000E+04  0.10000000000E+04  0.00000000000E+00 0.  1.
    9000005    2    1    2  501    0 -0.20131348184E+02  0.29513887135E+02 -0.81264180807E+03  0.81343114830E+03  0.26803134334E+01 0.  0.
         13    1    3    3    0    0 -0.14170916864E+02  0.18525836938E+02 -0.52554088908E+03  0.52605821695E+03  0.00000000000E+00 0.  1.
          1    1    3    3  501    0 -0.59604313194E+01  0.10988050197E+02 -0.28710091899E+03  0.28737293135E+03  0.00000000000E+00 0.  1.
         -3    1    1    2    0  502  0.20131348184E+02 -0.29513887135E+02 -0.18525685104E+03  0.18867019259E+03  0.00000000000E+00 0. -1.
<mgrwt>
<rscale>  1 0.30000000E+03</rscale>
<asrwt>0</asrwt>
<pdfrwt beam="1">  1       21 0.76412557E-02 0.30000000E+03</pdfrwt>
<pdfrwt beam="2">0</pdfrwt>
<totfact> 0.13844512E+04</totfact>
</mgrwt>
</event>
<event>
 6    1  0.1198667E-001  0.3000000E+03  0.7818608E-02  0.1093470E+00
         21   -1    0    0  501  502  0.00000000000E+00  0.00000000000E+00  0.34784392816E+01  0.34784392816E+01  0.00000000000E+00 0. -1.
         13   -1    0    0    0    0 -0.00000000000E+00 -0.00000000000E+00 -0.10000000000E+04  0.10000000000E+04  0.00000000000E+00 0.  1.
    9000005    2    1    2  501    0 -0.27998086063E+02  0.27728473425E+02 -0.87121887276E+03  0.87212576641E+03  0.53166828308E+01 0.  0.
         13    1    3    3    0    0 -0.61127673198E+01  0.44169526925E+01 -0.20776978987E+03  0.20790661600E+03  0.00000000000E+00 0.  1.
          3    1    3    3  501    0 -0.21885318743E+02  0.23311520732E+02 -0.66344908290E+03  0.66421915041E+03  0.00000000000E+00 0.  1.
         -3    1    1    2    0  502  0.27998086063E+02 -0.27728473425E+02 -0.12530268796E+03  0.13135267287E+03  0.00000000000E+00 0. -1.
<mgrwt>
<rscale>  1 0.30000000E+03</rscale>
<asrwt>0</asrwt>
<pdfrwt beam="1">  1       21 0.12648897E-01 0.30000000E+03</pdfrwt>
<pdfrwt beam="2">0</pdfrwt>
<totfact> 0.56308845E+03</totfact>
</mgrwt>
</event>
<event>
 6    1  0.1198667E-001  0.3000000E+03  0.7818608E-02  0.1093470E+00
         21   -1    0    0  501  502  0.00000000000E+00  0.00000000000E+00  0.49987380963E+01  0.49987380963E+01  0.00000000000E+00 0. -1.
         13   -1    0    0    0    0 -0.00000000000E+00 -0.00000000000E+00 -0.10000000000E+04  0.10000000000E+04  0.00000000000E+00 0.  1.
    9000005    2    1    2  501    0  0.53184872105E+02 -0.38837355703E+02 -0.67835342153E+03  0.68157513717E+03  0.66582502709E+01 0.  0.
         13    1    3    3    0    0  0.31807675043E+02 -0.24188605837E+02 -0.44333486881E+03  0.44513214077E+03  0.00000000000E+00 0.  1.
          3    1    3    3  501    0  0.21377197062E+02 -0.14648749866E+02 -0.23501855272E+03  0.23644299641E+03  0.00000000000E+00 0.  1.
         -1    1    1    2    0  502 -0.53184872105E+02  0.38837355703E+02 -0.31664784038E+03  0.32342360092E+03  0.00000000000E+00 0. -1.
<mgrwt>
<rscale>  1 0.30000000E+03</rscale>
<asrwt>0</asrwt>
<pdfrwt beam="1">  1       21 0.18177268E-01 0.30000000E+03</pdfrwt>
<pdfrwt beam="2">0</pdfrwt>
<totfact> 0.28759477E+03</totfact>
</mgrwt>
</event>
<event>
 6    1  0.1198667E-001  0.3000000E+03  0.7818608E-02  0.1093470E+00
         21   -1    0    0  501  502  0.00000000000E+00  0.00000000000E+00  0.20628558425E+01  0.20628558425E+01  0.00000000000E+00 0. -1.
         13   -1    0    0    0    0 -0.00000000000E+00 -0.00000000000E+00 -0.10000000000E+04  0.10000000000E+04  0.00000000000E+00 0.  1.
    9000005    2    1    2  501    0 -0.52068163012E+01  0.34880182228E+02 -0.81409394241E+03  0.81486760784E+03  0.40661013179E+01 0.  0.
         13    1    3    3    0    0 -0.50284956534E+01  0.20127148439E+02 -0.47385040741E+03  0.47430432896E+03  0.00000000000E+00 0.  1.
          3    1    3    3  501    0 -0.17832064778E+00  0.14753033788E+02 -0.34024353501E+03  0.34056327888E+03  0.00000000000E+00 0.  1.
         -1    1    1    2    0  502  0.52068163012E+01 -0.34880182228E+02 -0.18384320174E+03  0.18719524800E+03  0.00000000000E+00 0. -1.
<mgrwt>
<rscale>  1 0.30000000E+03</rscale>
<asrwt>0</asrwt>
<pdfrwt beam="1">  1       21 0.75013098E-02 0.30000000E+03</pdfrwt>
<pdfrwt beam="2">0</pdfrwt>
<totfact> 0.14300090E+04</totfact>
</mgrwt>
</event>
<event>
 6    1  0.1198667E-001  0.3000000E+03  0.7818608E-02  0.1093470E+00
         21   -1    0    0  501  502  0.00000000000E+00  0.00000000000E+00  0.18575925992E+01  0.18575925992E+01  0.00000000000E+00 0. -1.
         13   -1    0    0    0    0 -0.00000000000E+00 -0.00000000000E+00 -0.10000000000E+04  0.10000000000E+04  0.00000000000E+00 0.  1.
    9000005    2    1    2  501    0  0.40157989825E+02 -0.73265170712E+00 -0.67973707180E+03  0.68092900450E+03  0.29362312996E+01 0.  0.
         13    1    3    3    0    0  0.29173281420E+00  0.27275941087E-01 -0.21678431467E+01  0.21875547812E+01  0.00000000000E+00 0.  1.
          1    1    3    3  501    0  0.39866257011E+02 -0.75992764821E+00 -0.67756922866E+03  0.67874144971E+03  0.00000000000E+00 0.  1.
         -3    1    1    2    0  502 -0.40157989825E+02  0.73265170712E+00 -0.31840533560E+03  0.32092858810E+03  0.00000000000E+00 0. -1.
<mgrwt>
<rscale>  1 0.30000000E+03</rscale>
<asrwt>0</asrwt>
<pdfrwt beam="1">  1       21 0.67548964E-02 0.30000000E+03</pdfrwt>
<pdfrwt beam="2">0</pdfrwt>
<totfact> 0.17166388E+04</totfact>
</mgrwt>
</event>
<event>
 6    1  0.1198667E-001  0.3000000E+03  0.7818608E-02  0.1093470E+00
         21   -1    0    0  501  502  0.00000000000E+00  0.00000000000E+00  0.28909008957E+01  0.28909008957E+01  0.00000000000E+00 0. -1.
         13   -1    0    0    0    0 -0.00000000000E+00 -0.00000000000E+00 -0.10000000000E+04  0.10000000000E+04  0.00000000000E+00 0.  1.
    9000005    2    1    2  501    0 -0.43850781488E+02  0.67234889256E+01 -0.78133497877E+03  0.78260343564E+03  0.39613247741E+01 0.  0.
         13    1    3    3    0    0 -0.43592275544E+02  0.67855845306E+01 -0.76820212343E+03  0.76946788957E+03  0.00000000000E+00 0.  1.
          3    1    3    3  501    0 -0.25850594408E+00 -0.62095605031E-01 -0.13132855341E+02  0.13135546072E+02  0.00000000000E+00 0.  1.
         -3    1    1    2    0  502  0.43850781488E+02 -0.67234889256E+01 -0.21577412034E+03  0.22028746525E+03  0.00000000000E+00 0. -1.
<mgrwt>
<rscale>  1 0.30000000E+03</rscale>
<asrwt>0</asrwt>
<pdfrwt beam="1">  1       21 0.10512389E-01 0.30000000E+03</pdfrwt>
<pdfrwt beam="2">0</pdfrwt>
<totfact> 0.78672206E+03</totfact>
</mgrwt>
</event>
<event>
 6    1  0.1198667E-001  0.3000000E+03  0.7818608E-02  0.1093470E+00
         21   -1    0    0  501  502  0.00000000000E+00  0.00000000000E+00  0.10905568391E+01  0.10905568391E+01  0.00000000000E+00 0. -1.
         13   -1    0    0    0    0 -0.00000000000E+00 -0.00000000000E+00 -0.10000000000E+04  0.10000000000E+04  0.00000000000E+00 0.  1.
    9000005    2    1    2  501    0  0.14407983180E+01 -0.32476972618E+02 -0.42021985254E+03  0.42148856241E+03  0.33247745283E+01 0.  0.
         13    1    3    3    0    0  0.71469384343E+00 -0.23465884337E+02 -0.28370290907E+03  0.28467261746E+03  0.00000000000E+00 0.  1.
          3    1    3    3  501    0  0.72610447455E+00 -0.90110882813E+01 -0.13651694347E+03  0.13681594495E+03  0.00000000000E+00 0.  1.
         -1    1    1    2    0  502 -0.14407983180E+01  0.32476972618E+02 -0.57868959062E+03  0.57960199443E+03  0.00000000000E+00 0. -1.
<mgrwt>
<rscale>  1 0.30000000E+03</rscale>
<asrwt>0</asrwt>
<pdfrwt beam="1">  1       21 0.39656696E-02 0.30000000E+03</pdfrwt>
<pdfrwt beam="2">0</pdfrwt>
<totfact> 0.42661990E+04</totfact>
</mgrwt>
</event>
<event>
 6    1  0.1198667E-001  0.3000000E+03  0.7818608E-02  0.1093470E+00
         21   -1    0    0  501  502  0.00000000000E+00  0.00000000000E+00  0.10410380016E+01  0.10410380016E+01  0.00000000000E+00 0. -1.
         13   -1    0    0    0    0 -0.00000000000E+00 -0.00000000000E+00 -0.10000000000E+04  0.10000000000E+04  0.00000000000E+00 0.  1.
    9000005    2    1    2  501    0  0.37514165287E+01 -0.29789211530E+02 -0.32081266927E+03  0.32223041302E+03  0.31937532598E+01 0.  0.
         13    1    3    3    0    0  0.19391458237E+01 -0.70452385562E+01 -0.87654293412E+02  0.87958347110E+02  0.00000000000E+00 0.  1.
          3    1    3    3  501    0  0.18122707050E+01 -0.22743972974E+02 -0.23315837586E+03  0.23427206591E+03  0.00000000000E+00 0.  1.
         -3    1    1    2    0  502 -0.37514165287E+01  0.29789211530E+02 -0.67814629273E+03  0.67881062498E+03  0.00000000000E+00 0. -1.
<mgrwt>
<rscale>  1 0.30000000E+03</rscale>
<asrwt>0</asrwt>
<pdfrwt beam="1">  1       21 0.37856007E-02 0.30000000E+03</pdfrwt>
<pdfrwt beam="2">0</pdfrwt>
<totfact> 0.46129364E+04</totfact>
</mgrwt>
</event>
<event>
 6    1  0.1198667E-001  0.3000000E+03  0.7818608E-02  0.1093470E+00
         21   -1    0    0  501  502  0.00000000000E+00  0.00000000000E+00  0.17582078322E+01  0.17582078322E+01  0.00000000000E+00 0. -1.
         13   -1    0    0    0    0 -0.00000000000E+00 -0.00000000000E+00 -0.10000000000E+04  0.10000000000E+04  0.00000000000E+00 0.  1.
    9000005    2    1    2  501    0  0.34966335645E+02 -0.16985980190E+02 -0.68556919581E+03  0.68667834388E+03  0.32950821589E+01 0.  0.
         13    1    3    3    0    0  0.20301118378E+02 -0.80598361911E+01 -0.38769925218E+03  0.38831405654E+03  0.00000000000E+00 0.  1.
          1    1    3    3  501    0  0.14665217267E+02 -0.89261439985E+01 -0.29786994363E+03  0.29836428734E+03  0.00000000000E+00 0.  1.
         -1    1    1    2    0  502 -0.34966335645E+02  0.16985980190E+02 -0.31267259636E+03  0.31507986395E+03  0.00000000000E+00 0. -1.
<mgrwt>
<rscale>  1 0.30000000E+03</rscale>
<asrwt>0</asrwt>
<pdfrwt beam="1">  1       21 0.63934965E-02 0.30000000E+03</pdfrwt>
<pdfrwt beam="2">0</pdfrwt>
<totfact> 0.18882255E+04</totfact>
</mgrwt>
</event>
<event>
 6    1  0.1198667E-001  0.3000000E+03  0.7818608E-02  0.1093470E+00
         21   -1    0    0  501  502  0.00000000000E+00  0.00000000000E+00  0.52039079112E+01  0.52039079112E+01  0.00000000000E+00 0. -1.
         13   -1    0    0    0    0 -0.00000000000E+00 -0.00000000000E+00 -0.10000000000E+04  0.10000000000E+04  0.00000000000E+00 0.  1.
    9000005    2    1    2  501    0 -0.41819191294E+02 -0.41478900080E+02 -0.78738195421E+03  0.78958858261E+03  0.32317273507E+01 0.  0.
         13    1    3    3    0    0 -0.38884850146E+02 -0.38296445586E+02 -0.73959375088E+03  0.74160472333E+03  0.00000000000E+00 0.  1.
          3    1    3    3  501    0 -0.29343411486E+01 -0.31824544943E+01 -0.47788203327E+02  0.47983859284E+02  0.00000000000E+00 0.  1.
         -3    1    1    2    0  502  0.41819191294E+02  0.41478900080E+02 -0.20741413788E+03  0.21561532530E+03  0.00000000000E+00 0. -1.
<mgrwt>
<rscale>  1 0.30000000E+03</rscale>
<asrwt>0</asrwt>
<pdfrwt beam="1">  1       21 0.18923341E-01 0.30000000E+03</pdfrwt>
<pdfrwt beam="2">0</pdfrwt>
<totfact> 0.26654301E+03</totfact>
</mgrwt>
</event>
<event>
 6    1  0.1198667E-001  0.3000000E+03  0.7818608E-02  0.1093470E+00
         21   -1    0    0  501  502  0.00000000000E+00  0.00000000000E+00  0.27532533488E+01  0.27532533488E+01  0.00000000000E+00 0. -1.
         13   -1    0    0    0    0 -0.00000000000E+00 -0.00000000000E+00 -0.10000000000E+04  0.10000000000E+04  0.00000000000E+00 0.  1.
    9000005    2    1    2  501    0 -0.91424072874E+01 -0.29033853349E+02 -0.90687386491E+03  0.90739180408E+03  0.36236741747E+01 0.  0.
         13    1    3    3    0    0  0.19277751802E+00 -0.23058624056E+01 -0.79692395244E+02  0.79725980861E+02  0.00000000000E+00 0.  1.
          3    1    3    3  501    0 -0.93351848054E+01 -0.26727990943E+02 -0.82718146966E+03  0.82766582322E+03  0.00000000000E+00 0.  1.
         -1    1    1    2    0  502  0.91424072874E+01  0.29033853349E+02 -0.90372881743E+02  0.95361449265E+02  0.00000000000E+00 0. -1.
<mgrwt>
<rscale>  1 0.30000000E+03</rscale>
<asrwt>0</asrwt>
<pdfrwt beam="1">  1       21 0.10011851E-01 0.30000000E+03</pdfrwt>
<pdfrwt beam="2">0</pdfrwt>
<totfact> 0.85850084E+03</totfact>
</mgrwt>
</event>
<event>
 6    1  0.1198667E-001  0.3000000E+03  0.7818608E-02  0.1093470E+00
         21   -1    0    0  501  502  0.00000000000E+00  0.00000000000E+00  0.15464017942E+01  0.15464017942E+01  0.00000000000E+00 0. -1.
         13   -1    0    0    0    0 -0.00000000000E+00 -0.00000000000E+00 -0.10000000000E+04  0.10000000000E+04  0.00000000000E+00 0.  1.
    9000005    2    1    2  501    0 -0.37395971019E+02  0.22195415625E+01 -0.64983242618E+03  0.65091824178E+03  0.29983909422E+01 0.  0.
         13    1    3    3    0    0 -0.14316819317E+02 -0.17380894278E+00 -0.26620327881E+03  0.26658804769E+03  0.00000000000E+00 0.  1.
          1    1    3    3  501    0 -0.23079151703E+02  0.23933505053E+01 -0.38362914737E+03  0.38433019408E+03  0.00000000000E+00 0.  1.
         -3    1    1    2    0  502  0.37395971019E+02 -0.22195415625E+01 -0.34862117203E+03  0.35062816002E+03  0.00000000000E+00 0. -1.
<mgrwt>
<rscale>  1 0.30000000E+03</rscale>
<asrwt>0</asrwt>
<pdfrwt beam="1">  1       21 0.56232911E-02 0.30000000E+03</pdfrwt>
<pdfrwt beam="2">0</pdfrwt>
<totfact> 0.23560527E+04</totfact>
</mgrwt>
</event>
<event>
 6    1  0.1198667E-001  0.3000000E+03  0.7818608E-02  0.1093470E+00
         21   -1    0    0  501  502  0.00000000000E+00  0.00000000000E+00  0.14002886419E+01  0.14002886419E+01  0.00000000000E+00 0. -1.
         13   -1    0    0    0    0 -0.00000000000E+00 -0.00000000000E+00 -0.10000000000E+04  0.10000000000E+04  0.00000000000E+00 0.  1.
    9000005    2    1    2  501    0  0.16091658859E+02  0.33369805460E+02 -0.55073258013E+03  0.55200352337E+03  0.53879120428E+01 0.  0.
         13    1    3    3    0    0  0.32408363723E+01  0.36330447853E+01 -0.91830612947E+02  0.91959575407E+02  0.00000000000E+00 0.  1.
          1    1    3    3  501    0  0.12850822486E+02  0.29736760675E+02 -0.45890196718E+03  0.46004394796E+03  0.00000000000E+00 0.  1.
         -3    1    1    2    0  502 -0.16091658859E+02 -0.33369805460E+02 -0.44786713123E+03  0.44939676527E+03  0.00000000000E+00 0. -1.
<mgrwt>
<rscale>  1 0.30000000E+03</rscale>
<asrwt>0</asrwt>
<pdfrwt beam="1">  1       21 0.50919694E-02 0.30000000E+03</pdfrwt>
<pdfrwt beam="2">0</pdfrwt>
<totfact> 0.27923009E+04</totfact>
</mgrwt>
</event>
<event>
 6    1  0.1198667E-001  0.3000000E+03  0.7818608E-02  0.1093470E+00
         21   -1    0    0  501  502  0.00000000000E+00  0.00000000000E+00  0.40646637814E+01  0.40646637814E+01  0.00000000000E+00 0. -1.
         13   -1    0    0    0    0 -0.00000000000E+00 -0.00000000000E+00 -0.10000000000E+04  0.10000000000E+04  0.00000000000E+00 0.  1.
    9000005    2    1    2  501    0  0.31231867375E+02 -0.36989831890E+02 -0.82443074957E+03  0.82585832146E+03  0.34970102616E+01 0.  0.
         13    1    3    3    0    0  0.16287411348E+02 -0.17877677054E+02 -0.38617378654E+03  0.38693033549E+03  0.00000000000E+00 0.  1.
          1    1    3    3  501    0  0.14944456027E+02 -0.19112154836E+02 -0.43825696303E+03  0.43892798597E+03  0.00000000000E+00 0.  1.
         -1    1    1    2    0  502 -0.31231867375E+02  0.36989831890E+02 -0.17150458665E+03  0.17820634232E+03  0.00000000000E+00 0. -1.
<mgrwt>
<rscale>  1 0.30000000E+03</rscale>
<asrwt>0</asrwt>
<pdfrwt beam="1">  1       21 0.14780627E-01 0.30000000E+03</pdfrwt>
<pdfrwt beam="2">0</pdfrwt>
<totfact> 0.42317755E+03</totfact>
</mgrwt>
</event>
<event>
 6    1  0.1198667E-001  0.3000000E+03  0.7818608E-02  0.1093470E+00
         21   -1    0    0  501  502  0.00000000000E+00  0.00000000000E+00  0.76346928285E+01  0.76346928285E+01  0.00000000000E+00 0. -1.
         13   -1    0    0    0    0 -0.00000000000E+00 -0.00000000000E+00 -0.10000000000E+04  0.10000000000E+04  0.00000000000E+00 0.  1.
    9000005    2    1    2  501    0 -0.36152039125E+02  0.17946841374E+02 -0.94300833738E+03  0.94387601095E+03  0.28531784721E+01 0.  0.
         13    1    3    3    0    0 -0.76534843414E+01  0.26747326409E+01 -0.20188247295E+03  0.20204520015E+03  0.00000000000E+00 0.  1.
          1    1    3    3  501    0 -0.28498554783E+02  0.15272108733E+02 -0.74112586442E+03  0.74183081080E+03  0.00000000000E+00 0.  1.
         -3    1    1    2    0  502  0.36152039125E+02 -0.17946841374E+02 -0.49356969794E+02  0.63758681883E+02  0.00000000000E+00 0. -1.
<mgrwt>
<rscale>  1 0.30000000E+03</rscale>
<asrwt>0</asrwt>
<pdfrwt beam="1">  1       21 0.27762578E-01 0.30000000E+03</pdfrwt>
<pdfrwt beam="2">0</pdfrwt>
<totfact> 0.12686293E+03</totfact>
</mgrwt>
</event>
<event>
 6    1  0.1198667E-001  0.3000000E+03  0.7818608E-02  0.1093470E+00
         21   -1    0    0  501  502  0.00000000000E+00  0.00000000000E+00  0.11472611201E+01  0.11472611201E+01  0.00000000000E+00 0. -1.
         13   -1    0    0    0    0 -0.00000000000E+00 -0.00000000000E+00 -0.10000000000E+04  0.10000000000E+04  0.00000000000E+00 0.  1.
    9000005    2    1    2  501    0  0.12358626793E+02  0.30551179747E+02 -0.61161987946E+03  0.61251453263E+03  0.30108952949E+01 0.  0.
         13    1    3    3    0    0  0.10291941210E+02  0.22999914622E+02 -0.44942512579E+03  0.45013094075E+03  0.00000000000E+00 0.  1.
          3    1    3    3  501    0  0.20666855828E+01  0.75512651255E+01 -0.16219475368E+03  0.16238359189E+03  0.00000000000E+00 0.  1.
         -1    1    1    2    0  502 -0.12358626793E+02 -0.30551179747E+02 -0.38723285942E+03  0.38863272849E+03  0.00000000000E+00 0. -1.
<mgrwt>
<rscale>  1 0.30000000E+03</rscale>
<asrwt>0</asrwt>
<pdfrwt beam="1">  1       21 0.41718674E-02 0.30000000E+03</pdfrwt>
<pdfrwt beam="2">0</pdfrwt>
<totfact> 0.39168374E+04</totfact>
</mgrwt>
</event>
<event>
 6    1  0.1198667E-001  0.3000000E+03  0.7818608E-02  0.1093470E+00
         21   -1    0    0  501  502  0.00000000000E+00  0.00000000000E+00  0.12731679314E+01  0.12731679314E+01  0.00000000000E+00 0. -1.
         13   -1    0    0    0    0 -0.00000000000E+00 -0.00000000000E+00 -0.10000000000E+04  0.10000000000E+04  0.00000000000E+00 0.  1.
    9000005    2    1    2  501    0  0.17436640326E+02  0.30917924282E+02 -0.47887117369E+03  0.48020708766E+03  0.46142793386E+01 0.  0.
         13    1    3    3    0    0  0.15917259672E+02  0.27509683351E+02 -0.40698065917E+03  0.40821979223E+03  0.00000000000E+00 0.  1.
          1    1    3    3  501    0  0.15193806543E+01  0.34082409315E+01 -0.71890514527E+02  0.71987295426E+02  0.00000000000E+00 0.  1.
         -3    1    1    2    0  502 -0.17436640326E+02 -0.30917924282E+02 -0.51985565837E+03  0.52106608027E+03  0.00000000000E+00 0. -1.
<mgrwt>
<rscale>  1 0.30000000E+03</rscale>
<asrwt>0</asrwt>
<pdfrwt beam="1">  1       21 0.46297113E-02 0.30000000E+03</pdfrwt>
<pdfrwt beam="2">0</pdfrwt>
<totfact> 0.32834619E+04</totfact>
</mgrwt>
</event>
<event>
 6    1  0.1198667E-001  0.3000000E+03  0.7818608E-02  0.1093470E+00
         21   -1    0    0  501  502  0.00000000000E+00  0.00000000000E+00  0.52001754814E+01  0.52001754814E+01  0.00000000000E+00 0. -1.
         13   -1    0    0    0    0 -0.00000000000E+00 -0.00000000000E+00 -0.10000000000E+04  0.10000000000E+04  0.00000000000E+00 0.  1.
    9000005    2    1    2  501    0 -0.56437232576E+02 -0.44743392999E+02 -0.51829294629E+03  0.52328116005E+03  0.29089256593E+01 0.  0.
         13    1    3    3    0    0 -0.70874438991E+01 -0.46390525916E+01 -0.57137775776E+02  0.57762254896E+02  0.00000000000E+00 0.  1.
          1    1    3    3  501    0 -0.49349788677E+02 -0.40104340408E+02 -0.46115517051E+03  0.46551890515E+03  0.00000000000E+00 0.  1.
         -3    1    1    2    0  502  0.56437232576E+02  0.44743392999E+02 -0.47650687823E+03  0.48191901543E+03  0.00000000000E+00 0. -1.
<mgrwt>
<rscale>  1 0.30000000E+03</rscale>
<asrwt>0</asrwt>
<pdfrwt beam="1">  1       21 0.18909769E-01 0.30000000E+03</pdfrwt>
<pdfrwt beam="2">0</pdfrwt>
<totfact> 0.26690553E+03</totfact>
</mgrwt>
</event>
<event>
 6    1  0.1198667E-001  0.3000000E+03  0.7818608E-02  0.1093470E+00
         21   -1    0    0  501  502  0.00000000000E+00  0.00000000000E+00  0.32779220054E+01  0.32779220054E+01  0.00000000000E+00 0. -1.
         13   -1    0    0    0    0 -0.00000000000E+00 -0.00000000000E+00 -0.10000000000E+04  0.10000000000E+04  0.00000000000E+00 0.  1.
    9000005    2    1    2  501    0 -0.19783743943E+02  0.32467125335E+02 -0.87268005240E+03  0.87353997511E+03  0.74902269833E+01 0.  0.
         13    1    3    3    0    0 -0.14036733479E+02  0.17198548264E+02 -0.54985467505E+03  0.55030262912E+03  0.00000000000E+00 0.  1.
          1    1    3    3  501    0 -0.57470104639E+01  0.15268577071E+02 -0.32282537735E+03  0.32323734598E+03  0.00000000000E+00 0.  1.
         -1    1    1    2    0  502  0.19783743943E+02 -0.32467125335E+02 -0.12404202559E+03  0.12973794690E+03  0.00000000000E+00 0. -1.
<mgrwt>
<rscale>  1 0.30000000E+03</rscale>
<asrwt>0</asrwt>
<pdfrwt beam="1">  1       21 0.11919742E-01 0.30000000E+03</pdfrwt>
<pdfrwt beam="2">0</pdfrwt>
<totfact> 0.62730286E+03</totfact>
</mgrwt>
</event>
<event>
 6    1  0.1198667E-001  0.3000000E+03  0.7818608E-02  0.1093470E+00
         21   -1    0    0  501  502  0.00000000000E+00  0.00000000000E+00  0.18317978722E+01  0.18317978722E+01  0.00000000000E+00 0. -1.
         13   -1    0    0    0    0 -0.00000000000E+00 -0.00000000000E+00 -0.10000000000E+04  0.10000000000E+04  0.00000000000E+00 0.  1.
    9000005    2    1    2  501    0 -0.31685125130E+02  0.26621674359E+02 -0.62496278151E+03  0.62633885962E+03  0.30377779364E+01 0.  0.
         13    1    3    3    0    0 -0.27873933911E+02  0.22177251694E+02 -0.52959576007E+03  0.53079229061E+03  0.00000000000E+00 0.  1.
          1    1    3    3  501    0 -0.38111912189E+01  0.44444226649E+01 -0.95367021436E+02  0.95546569006E+02  0.00000000000E+00 0.  1.
         -3    1    1    2    0  502  0.31685125130E+02 -0.26621674359E+02 -0.37320542062E+03  0.37549293825E+03  0.00000000000E+00 0. -1.
<mgrwt>
<rscale>  1 0.30000000E+03</rscale>
<asrwt>0</asrwt>
<pdfrwt beam="1">  1       21 0.66610972E-02 0.30000000E+03</pdfrwt>
<pdfrwt beam="2">0</pdfrwt>
<totfact> 0.17587920E+04</totfact>
</mgrwt>
</event>
<event>
 6    1  0.1198667E-001  0.3000000E+03  0.7818608E-02  0.1093470E+00
         21   -1    0    0  501  502  0.00000000000E+00  0.00000000000E+00  0.12920387919E+01  0.12920387919E+01  0.00000000000E+00 0. -1.
         13   -1    0    0    0    0 -0.00000000000E+00 -0.00000000000E+00 -0.10000000000E+04  0.10000000000E+04  0.00000000000E+00 0.  1.
    9000005    2    1    2  501    0 -0.32131361053E+02 -0.11724643114E+01 -0.72232418657E+03  0.72304432556E+03  0.26584176842E+01 0.  0.
         13    1    3    3    0    0 -0.42759649519E+01 -0.10324999886E+01 -0.10411464838E+03  0.10420753303E+03  0.00000000000E+00 0.  1.
          3    1    3    3  501    0 -0.27855396102E+02 -0.13996432283E+00 -0.61820953819E+03  0.61883679253E+03  0.00000000000E+00 0.  1.
         -3    1    1    2    0  502  0.32131361053E+02  0.11724643114E+01 -0.27638377464E+03  0.27824771323E+03  0.00000000000E+00 0. -1.
<mgrwt>
<rscale>  1 0.30000000E+03</rscale>
<asrwt>0</asrwt>
<pdfrwt beam="1">  1       21 0.46983328E-02 0.30000000E+03</pdfrwt>
<pdfrwt beam="2">0</pdfrwt>
<totfact> 0.32023644E+04</totfact>
</mgrwt>
</event>
<event>
 6    1  0.1198667E-001  0.3000000E+03  0.7818608E-02  0.1093470E+00
         21   -1    0    0  501  502  0.00000000000E+00  0.00000000000E+00  0.28881383677E+01  0.28881383677E+01  0.00000000000E+00 0. -1.
         13   -1    0    0    0    0 -0.00000000000E+00 -0.00000000000E+00 -0.10000000000E+04  0.10000000000E+04  0.00000000000E+00 0.  1.
    9000005    2    1    2  501    0 -0.37388337120E+02 -0.60464228680E+01 -0.85412871023E+03  0.85497387750E+03  0.31671109853E+01 0.  0.
         13    1    3    3    0    0 -0.31543008927E+02 -0.46667712532E+01 -0.74122962042E+03  0.74191515037E+03  0.00000000000E+00 0.  1.
          3    1    3    3  501    0 -0.58453281931E+01 -0.13796516148E+01 -0.11289908981E+03  0.11305872713E+03  0.00000000000E+00 0.  1.
         -1    1    1    2    0  502  0.37388337120E+02  0.60464228680E+01 -0.14298315140E+03  0.14791426086E+03  0.00000000000E+00 0. -1.
<mgrwt>
<rscale>  1 0.30000000E+03</rscale>
<asrwt>0</asrwt>
<pdfrwt beam="1">  1       21 0.10502343E-01 0.30000000E+03</pdfrwt>
<pdfrwt beam="2">0</pdfrwt>
<totfact> 0.78807155E+03</totfact>
</mgrwt>
</event>
<event>
 6    1  0.1198667E-001  0.3000000E+03  0.7818608E-02  0.1093470E+00
         21   -1    0    0  501  502  0.00000000000E+00  0.00000000000E+00  0.45000268514E+01  0.45000268514E+01  0.00000000000E+00 0. -1.
         13   -1    0    0    0    0 -0.00000000000E+00 -0.00000000000E+00 -0.10000000000E+04  0.10000000000E+04  0.00000000000E+00 0.  1.
    9000005    2    1    2  501    0  0.32777418208E+02 -0.49503755972E+02 -0.73120686124E+03  0.73362029339E+03  0.32062352182E+01 0.  0.
         13    1    3    3    0    0  0.11407690626E+02 -0.16346173984E+02 -0.26345875373E+03  0.26421174790E+03  0.00000000000E+00 0.  1.
          3    1    3    3  501    0  0.21369727582E+02 -0.33157581987E+02 -0.46774810751E+03  0.46940854549E+03  0.00000000000E+00 0.  1.
         -3    1    1    2    0  502 -0.32777418208E+02  0.49503755972E+02 -0.26429311191E+03  0.27087973346E+03  0.00000000000E+00 0. -1.
<mgrwt>
<rscale>  1 0.30000000E+03</rscale>
<asrwt>0</asrwt>
<pdfrwt beam="1">  1       21 0.16363769E-01 0.30000000E+03</pdfrwt>
<pdfrwt beam="2">0</pdfrwt>
<totfact> 0.35026495E+03</totfact>
</mgrwt>
</event>
<event>
 6    1  0.1198667E-001  0.3000000E+03  0.7818608E-02  0.1093470E+00
         21   -1    0    0  501  502  0.00000000000E+00  0.00000000000E+00  0.25327385771E+01  0.25327385771E+01  0.00000000000E+00 0. -1.
         13   -1    0    0    0    0 -0.00000000000E+00 -0.00000000000E+00 -0.10000000000E+04  0.10000000000E+04  0.00000000000E+00 0.  1.
    9000005    2    1    2  501    0 -0.38782780354E+02  0.14879271045E+02 -0.78126709738E+03  0.78237822990E+03  0.34525951794E+01 0.  0.
         13    1    3    3    0    0 -0.17830579702E+02  0.73375336856E+01 -0.39385563141E+03  0.39432730994E+03  0.00000000000E+00 0.  1.
          3    1    3    3  501    0 -0.20952200653E+02  0.75417373596E+01 -0.38741146597E+03  0.38805091996E+03  0.00000000000E+00 0.  1.
         -3    1    1    2    0  502  0.38782780354E+02 -0.14879271045E+02 -0.21620016404E+03  0.22015450868E+03  0.00000000000E+00 0. -1.
<mgrwt>
<rscale>  1 0.30000000E+03</rscale>
<asrwt>0</asrwt>
<pdfrwt beam="1">  1       21 0.92099779E-02 0.30000000E+03</pdfrwt>
<pdfrwt beam="2">0</pdfrwt>
<totfact> 0.99621505E+03</totfact>
</mgrwt>
</event>
<event>
 6    1  0.1198667E-001  0.3000000E+03  0.7818608E-02  0.1093470E+00
         21   -1    0    0  501  502  0.00000000000E+00  0.00000000000E+00  0.18364383542E+01  0.18364383542E+01  0.00000000000E+00 0. -1.
         13   -1    0    0    0    0 -0.00000000000E+00 -0.00000000000E+00 -0.10000000000E+04  0.10000000000E+04  0.00000000000E+00 0.  1.
    9000005    2    1    2  501    0  0.34586752842E+02  0.19754746472E+02 -0.68337180247E+03  0.68453477569E+03  0.20845254371E+01 0.  0.
         13    1    3    3    0    0  0.28180159106E+02  0.15140484933E+02 -0.54753905993E+03  0.54847276851E+03  0.00000000000E+00 0.  1.
          3    1    3    3  501    0  0.64065937364E+01  0.46142615390E+01 -0.13583274254E+03  0.13606200718E+03  0.00000000000E+00 0.  1.
         -1    1    1    2    0  502 -0.34586752842E+02 -0.19754746472E+02 -0.31479175918E+03  0.31730166266E+03  0.00000000000E+00 0. -1.
<mgrwt>
<rscale>  1 0.30000000E+03</rscale>
<asrwt>0</asrwt>
<pdfrwt beam="1">  1       21 0.66779717E-02 0.30000000E+03</pdfrwt>
<pdfrwt beam="2">0</pdfrwt>
<totfact> 0.17510920E+04</totfact>
</mgrwt>
</event>
<event>
 6    1  0.1198667E-001  0.3000000E+03  0.7818608E-02  0.1093470E+00
         21   -1    0    0  501  502  0.00000000000E+00  0.00000000000E+00  0.14602988119E+01  0.14602988119E+01  0.00000000000E+00 0. -1.
         13   -1    0    0    0    0 -0.00000000000E+00 -0.00000000000E+00 -0.10000000000E+04  0.10000000000E+04  0.00000000000E+00 0.  1.
    9000005    2    1    2  501    0  0.37786251948E+02  0.35941489277E+01 -0.54617269743E+03  0.54750366560E+03  0.38638958251E+01 0.  0.
         13    1    3    3    0    0  0.35444046025E+02  0.33100240416E+01 -0.49620024105E+03  0.49747554299E+03  0.00000000000E+00 0.  1.
          1    1    3    3  501    0  0.23422059234E+01  0.28412488613E+00 -0.49972456376E+02  0.50028122609E+02  0.00000000000E+00 0.  1.
         -1    1    1    2    0  502 -0.37786251948E+02 -0.35941489277E+01 -0.45236700376E+03  0.45395663321E+03  0.00000000000E+00 0. -1.
<mgrwt>
<rscale>  1 0.30000000E+03</rscale>
<asrwt>0</asrwt>
<pdfrwt beam="1">  1       21 0.53101887E-02 0.30000000E+03</pdfrwt>
<pdfrwt beam="2">0</pdfrwt>
<totfact> 0.25991343E+04</totfact>
</mgrwt>
</event>
<event>
 6    1  0.1198667E-001  0.3000000E+03  0.7818608E-02  0.1093470E+00
         21   -1    0    0  501  502  0.00000000000E+00  0.00000000000E+00  0.28698346873E+01  0.28698346873E+01  0.00000000000E+00 0. -1.
         13   -1    0    0    0    0 -0.00000000000E+00 -0.00000000000E+00 -0.10000000000E+04  0.10000000000E+04  0.00000000000E+00 0.  1.
    9000005    2    1    2  501    0  0.50167840476E+02  0.11732382744E+02 -0.63456664704E+03  0.63666392840E+03  0.34157221580E+01 0.  0.
         13    1    3    3    0    0  0.45669828026E+02  0.99353968823E+01 -0.56603650680E+03  0.56796282655E+03  0.00000000000E+00 0.  1.
          3    1    3    3  501    0  0.44980124501E+01  0.17969858621E+01 -0.68530140238E+02  0.68701101849E+02  0.00000000000E+00 0.  1.
         -3    1    1    2    0  502 -0.50167840476E+02 -0.11732382744E+02 -0.36256351827E+03  0.36620590629E+03  0.00000000000E+00 0. -1.
<mgrwt>
<rscale>  1 0.30000000E+03</rscale>
<asrwt>0</asrwt>
<pdfrwt beam="1">  1       21 0.10435785E-01 0.30000000E+03</pdfrwt>
<pdfrwt beam="2">0</pdfrwt>
<totfact> 0.79710233E+03</totfact>
</mgrwt>
</event>
<event>
 6    1  0.1198667E-001  0.3000000E+03  0.7818608E-02  0.1093470E+00
         21   -1    0    0  501  502  0.00000000000E+00  0.00000000000E+00  0.92307668349E+00  0.92307668349E+00  0.00000000000E+00 0. -1.
         13   -1    0    0    0    0 -0.00000000000E+00 -0.00000000000E+00 -0.10000000000E+04  0.10000000000E+04  0.00000000000E+00 0.  1.
    9000005    2    1    2  501    0 -0.21760038875E+02  0.20970565664E+02 -0.47884241714E+03  0.47981156719E+03  0.39768875944E+01 0.  0.
         13    1    3    3    0    0 -0.37033883384E+01  0.31306364370E+01 -0.56860824131E+02  0.57067234825E+02  0.00000000000E+00 0.  1.
          3    1    3    3  501    0 -0.18056650537E+02  0.17839929227E+02 -0.42198159301E+03  0.42274433236E+03  0.00000000000E+00 0.  1.
         -3    1    1    2    0  502  0.21760038875E+02 -0.20970565664E+02 -0.52023450617E+03  0.52111150949E+03  0.00000000000E+00 0. -1.
<mgrwt>
<rscale>  1 0.30000000E+03</rscale>
<asrwt>0</asrwt>
<pdfrwt beam="1">  1       21 0.33566496E-02 0.30000000E+03</pdfrwt>
<pdfrwt beam="2">0</pdfrwt>
<totfact> 0.56427676E+04</totfact>
</mgrwt>
</event>
<event>
 6    1  0.1198667E-001  0.3000000E+03  0.7818608E-02  0.1093470E+00
         21   -1    0    0  501  502  0.00000000000E+00  0.00000000000E+00  0.14555692553E+01  0.14555692553E+01  0.00000000000E+00 0. -1.
         13   -1    0    0    0    0 -0.00000000000E+00 -0.00000000000E+00 -0.10000000000E+04  0.10000000000E+04  0.00000000000E+00 0.  1.
    9000005    2    1    2  501    0  0.28999364105E+02  0.15631204265E+02 -0.24940033894E+03  0.25158746888E+03  0.32292060748E+01 0.  0.
         13    1    3    3    0    0  0.19429033858E+02  0.87455745515E+01 -0.15841901272E+03  0.15984541289E+03  0.00000000000E+00 0.  1.
          1    1    3    3  501    0  0.95703302461E+01  0.68856297139E+01 -0.90981326220E+02  0.91742055996E+02  0.00000000000E+00 0.  1.
         -3    1    1    2    0  502 -0.28999364105E+02 -0.15631204265E+02 -0.74914409181E+03  0.74986810037E+03  0.00000000000E+00 0. -1.
<mgrwt>
<rscale>  1 0.30000000E+03</rscale>
<asrwt>0</asrwt>
<pdfrwt beam="1">  1       21 0.52929903E-02 0.30000000E+03</pdfrwt>
<pdfrwt beam="2">0</pdfrwt>
<totfact> 0.26135955E+04</totfact>
</mgrwt>
</event>
<event>
 6    1  0.1198667E-001  0.3000000E+03  0.7818608E-02  0.1093470E+00
         21   -1    0    0  501  502  0.00000000000E+00  0.00000000000E+00  0.82909299042E+01  0.82909299042E+01  0.00000000000E+00 0. -1.
         13   -1    0    0    0    0 -0.00000000000E+00 -0.00000000000E+00 -0.10000000000E+04  0.10000000000E+04  0.00000000000E+00 0.  1.
    9000005    2    1    2  501    0 -0.32084561187E+02  0.17201172497E+02 -0.95792616560E+03  0.95862621368E+03  0.40471473542E+01 0.  0.
         13    1    3    3    0    0 -0.15963744950E+02  0.78294506094E+01 -0.51789689239E+03  0.51820201909E+03  0.00000000000E+00 0.  1.
          3    1    3    3  501    0 -0.16120816236E+02  0.93717218875E+01 -0.44002927322E+03  0.44042419459E+03  0.00000000000E+00 0.  1.
         -1    1    1    2    0  502  0.32084561187E+02 -0.17201172497E+02 -0.33782904491E+02  0.49664716224E+02  0.00000000000E+00 0. -1.
<mgrwt>
<rscale>  1 0.30000000E+03</rscale>
<asrwt>0</asrwt>
<pdfrwt beam="1">  1       21 0.30148900E-01 0.30000000E+03</pdfrwt>
<pdfrwt beam="2">0</pdfrwt>
<totfact> 0.10765600E+03</totfact>
</mgrwt>
</event>
<event>
 6    1  0.1198667E-001  0.3000000E+03  0.7818608E-02  0.1093470E+00
         21   -1    0    0  501  502  0.00000000000E+00  0.00000000000E+00  0.28229238764E+01  0.28229238764E+01  0.00000000000E+00 0. -1.
         13   -1    0    0    0    0 -0.00000000000E+00 -0.00000000000E+00 -0.10000000000E+04  0.10000000000E+04  0.00000000000E+00 0.  1.
    9000005    2    1    2  501    0  0.34598796224E+02  0.21901038571E+02 -0.81781972322E+03  0.81885066447E+03  0.32525103865E+01 0.  0.
         13    1    3    3    0    0  0.24878505347E+02  0.15473860739E+02 -0.61293279848E+03  0.61363262287E+03  0.00000000000E+00 0.  1.
          3    1    3    3  501    0  0.97202908773E+01  0.64271778317E+01 -0.20488692474E+03  0.20521804160E+03  0.00000000000E+00 0.  1.
         -1    1    1    2    0  502 -0.34598796224E+02 -0.21901038571E+02 -0.17935735290E+03  0.18397225941E+03  0.00000000000E+00 0. -1.
<mgrwt>
<rscale>  1 0.30000000E+03</rscale>
<asrwt>0</asrwt>
<pdfrwt beam="1">  1       21 0.10265199E-01 0.30000000E+03</pdfrwt>
<pdfrwt beam="2">0</pdfrwt>
<totfact> 0.82097864E+03</totfact>
</mgrwt>
</event>
<event>
 6    1  0.1198667E-001  0.3000000E+03  0.7818608E-02  0.1093470E+00
         21   -1    0    0  501  502  0.00000000000E+00  0.00000000000E+00  0.14998487936E+01  0.14998487936E+01  0.00000000000E+00 0. -1.
         13   -1    0    0    0    0 -0.00000000000E+00 -0.00000000000E+00 -0.10000000000E+04  0.10000000000E+04  0.00000000000E+00 0.  1.
    9000005    2    1    2  501    0 -0.16652577082E+02 -0.34829672344E+02 -0.52516453566E+03  0.52659246904E+03  0.33800201844E+01 0.  0.
         13    1    3    3    0    0 -0.16277969585E+00 -0.20838706942E+01 -0.28363371473E+02  0.28440285786E+02  0.00000000000E+00 0.  1.
          3    1    3    3  501    0 -0.16489797386E+02 -0.32745801649E+02 -0.49680116419E+03  0.49815218325E+03  0.00000000000E+00 0.  1.
         -3    1    1    2    0  502  0.16652577082E+02  0.34829672344E+02 -0.47333561555E+03  0.47490737975E+03  0.00000000000E+00 0. -1.
<mgrwt>
<rscale>  1 0.30000000E+03</rscale>
<asrwt>0</asrwt>
<pdfrwt beam="1">  1       21 0.54540071E-02 0.30000000E+03</pdfrwt>
<pdfrwt beam="2">0</pdfrwt>
<totfact> 0.24828992E+04</totfact>
</mgrwt>
</event>
<event>
 6    1  0.1198667E-001  0.3000000E+03  0.7818608E-02  0.1093470E+00
         21   -1    0    0  501  502  0.00000000000E+00  0.00000000000E+00  0.11550346914E+01  0.11550346914E+01  0.00000000000E+00 0. -1.
         13   -1    0    0    0    0 -0.00000000000E+00 -0.00000000000E+00 -0.10000000000E+04  0.10000000000E+04  0.00000000000E+00 0.  1.
    9000005    2    1    2  501    0  0.33625688201E+02 -0.34544206580E+01 -0.46317228080E+03  0.46441688172E+03  0.34436018618E+01 0.  0.
         13    1    3    3    0    0  0.32051766590E+02 -0.29813498225E+01 -0.42955280059E+03  0.43075725494E+03  0.00000000000E+00 0.  1.
          1    1    3    3  501    0  0.15739216112E+01 -0.47307083554E+00 -0.33619480208E+02  0.33659626776E+02  0.00000000000E+00 0.  1.
         -1    1    1    2    0  502 -0.33625688201E+02  0.34544206580E+01 -0.53567268451E+03  0.53673815297E+03  0.00000000000E+00 0. -1.
<mgrwt>
<rscale>  1 0.30000000E+03</rscale>
<asrwt>0</asrwt>
<pdfrwt beam="1">  1       21 0.42001350E-02 0.30000000E+03</pdfrwt>
<pdfrwt beam="2">0</pdfrwt>
<totfact> 0.38724356E+04</totfact>
</mgrwt>
</event>
<event>
 6    1  0.1198667E-001  0.3000000E+03  0.7818608E-02  0.1093470E+00
         21   -1    0    0  501  502  0.00000000000E+00  0.00000000000E+00  0.27616230180E+01  0.27616230180E+01  0.00000000000E+00 0. -1.
         13   -1    0    0    0    0 -0.00000000000E+00 -0.00000000000E+00 -0.10000000000E+04  0.10000000000E+04  0.00000000000E+00 0.  1.
    9000005    2    1    2  501    0 -0.36876907953E+02  0.71219415222E+01 -0.84885046794E+03  0.84969431775E+03  0.47632245989E+01 0.  0.
         13    1    3    3    0    0 -0.89971067029E+01  0.20139121584E+01 -0.16598023035E+03  0.16623609908E+03  0.00000000000E+00 0.  1.
          3    1    3    3  501    0 -0.27879801250E+02  0.51080293638E+01 -0.68287023759E+03  0.68345821867E+03  0.00000000000E+00 0.  1.
         -1    1    1    2    0  502  0.36876907953E+02 -0.71219415222E+01 -0.14838790904E+03  0.15306730526E+03  0.00000000000E+00 0. -1.
<mgrwt>
<rscale>  1 0.30000000E+03</rscale>
<asrwt>0</asrwt>
<pdfrwt beam="1">  1       21 0.10042287E-01 0.30000000E+03</pdfrwt>
<pdfrwt beam="2">0</pdfrwt>
<totfact> 0.85385653E+03</totfact>
</mgrwt>
</event>
<event>
 6    1  0.1198667E-001  0.3000000E+03  0.7818608E-02  0.1093470E+00
         21   -1    0    0  501  502  0.00000000000E+00  0.00000000000E+00  0.31411099854E+01  0.31411099854E+01  0.00000000000E+00 0. -1.
         13   -1    0    0    0    0 -0.00000000000E+00 -0.00000000000E+00 -0.10000000000E+04  0.10000000000E+04  0.00000000000E+00 0.  1.
    9000005    2    1    2  501    0 -0.38937697932E+02  0.37334914000E+02 -0.63196713617E+03  0.63428337027E+03  0.47846086006E+01 0.  0.
         13    1    3    3    0    0 -0.14990850928E+02  0.11544847803E+02 -0.23302149019E+03  0.23378841719E+03  0.00000000000E+00 0.  1.
          1    1    3    3  501    0 -0.23946847005E+02  0.25790066197E+02 -0.39894564598E+03  0.40049495308E+03  0.00000000000E+00 0.  1.
         -1    1    1    2    0  502  0.38937697932E+02 -0.37334914000E+02 -0.36489175385E+03  0.36885773972E+03  0.00000000000E+00 0. -1.
<mgrwt>
<rscale>  1 0.30000000E+03</rscale>
<asrwt>0</asrwt>
<pdfrwt beam="1">  1       21 0.11422242E-01 0.30000000E+03</pdfrwt>
<pdfrwt beam="2">0</pdfrwt>
<totfact> 0.67760715E+03</totfact>
</mgrwt>
</event>
<event>
 6    1  0.1198667E-001  0.3000000E+03  0.7818608E-02  0.1093470E+00
         21   -1    0    0  501  502  0.00000000000E+00  0.00000000000E+00  0.22205993917E+01  0.22205993917E+01  0.00000000000E+00 0. -1.
         13   -1    0    0    0    0 -0.00000000000E+00 -0.00000000000E+00 -0.10000000000E+04  0.10000000000E+04  0.00000000000E+00 0.  1.
    9000005    2    1    2  501    0 -0.25029840630E+02 -0.37473739896E+02 -0.64510552325E+03  0.64667926863E+03  0.14718198433E+01 0.  0.
         13    1    3    3    0    0 -0.24342091357E+02 -0.36120009168E+02 -0.62039986442E+03  0.62192699270E+03  0.00000000000E+00 0.  1.
          1    1    3    3  501    0 -0.68774927242E+00 -0.13537307282E+01 -0.24705658827E+02  0.24752275936E+02  0.00000000000E+00 0.  1.
         -1    1    1    2    0  502  0.25029840630E+02  0.37473739896E+02 -0.35267387736E+03  0.35554133076E+03  0.00000000000E+00 0. -1.
<mgrwt>
<rscale>  1 0.30000000E+03</rscale>
<asrwt>0</asrwt>
<pdfrwt beam="1">  1       21 0.80749239E-02 0.30000000E+03</pdfrwt>
<pdfrwt beam="2">0</pdfrwt>
<totfact> 0.12566363E+04</totfact>
</mgrwt>
</event>
<event>
 6    1  0.1198667E-001  0.3000000E+03  0.7818608E-02  0.1093470E+00
         21   -1    0    0  501  502  0.00000000000E+00  0.00000000000E+00  0.82918386119E+01  0.82918386119E+01  0.00000000000E+00 0. -1.
         13   -1    0    0    0    0 -0.00000000000E+00 -0.00000000000E+00 -0.10000000000E+04  0.10000000000E+04  0.00000000000E+00 0.  1.
    9000005    2    1    2  501    0  0.68145957546E+02  0.70313077190E+01 -0.82790425475E+03  0.83073894326E+03  0.29027567461E+01 0.  0.
         13    1    3    3    0    0  0.24966076738E+02  0.38882783301E+01 -0.31127439173E+03  0.31229820788E+03  0.00000000000E+00 0.  1.
          3    1    3    3  501    0  0.43179880808E+02  0.31430293889E+01 -0.51662986302E+03  0.51844073538E+03  0.00000000000E+00 0.  1.
         -1    1    1    2    0  502 -0.68145957546E+02 -0.70313077190E+01 -0.16380390664E+03  0.17755289535E+03  0.00000000000E+00 0. -1.
<mgrwt>
<rscale>  1 0.30000000E+03</rscale>
<asrwt>0</asrwt>
<pdfrwt beam="1">  1       21 0.30152204E-01 0.30000000E+03</pdfrwt>
<pdfrwt beam="2">0</pdfrwt>
<totfact> 0.10763238E+03</totfact>
</mgrwt>
</event>
<event>
 6    1  0.1198667E-001  0.3000000E+03  0.7818608E-02  0.1093470E+00
         21   -1    0    0  501  502  0.00000000000E+00  0.00000000000E+00  0.12450349554E+01  0.12450349554E+01  0.00000000000E+00 0. -1.
         13   -1    0    0    0    0 -0.00000000000E+00 -0.00000000000E+00 -0.10000000000E+04  0.10000000000E+04  0.00000000000E+00 0.  1.
    9000005    2    1    2  501    0 -0.15980238612E+02  0.28282767007E+02 -0.69332083843E+03  0.69408825311E+03  0.30716708267E+01 0.  0.
         13    1    3    3    0    0 -0.34948240441E+01  0.54796575962E+01 -0.16548608709E+03  0.16561366328E+03  0.00000000000E+00 0.  1.
          1    1    3    3  501    0 -0.12485414568E+02  0.22803109411E+02 -0.52783475134E+03  0.52847458983E+03  0.00000000000E+00 0.  1.
         -3    1    1    2    0  502  0.15980238612E+02 -0.28282767007E+02 -0.30543412661E+03  0.30715678185E+03  0.00000000000E+00 0. -1.
<mgrwt>
<rscale>  1 0.30000000E+03</rscale>
<asrwt>0</asrwt>
<pdfrwt beam="1">  1       21 0.45274094E-02 0.30000000E+03</pdfrwt>
<pdfrwt beam="2">0</pdfrwt>
<totfact> 0.34104853E+04</totfact>
</mgrwt>
</event>
<event>
 6    1  0.1198667E-001  0.3000000E+03  0.7818608E-02  0.1093470E+00
         21   -1    0    0  501  502  0.00000000000E+00  0.00000000000E+00  0.12707576395E+01  0.12707576395E+01  0.00000000000E+00 0. -1.
         13   -1    0    0    0    0 -0.00000000000E+00 -0.00000000000E+00 -0.10000000000E+04  0.10000000000E+04  0.00000000000E+00 0.  1.
    9000005    2    1    2  501    0  0.20771863292E+00  0.33848268092E+02 -0.64026723035E+03  0.64121414757E+03  0.82285104673E+01 0.  0.
         13    1    3    3    0    0  0.16005450674E+01  0.21636294991E+02 -0.47216096973E+03  0.47265915028E+03  0.00000000000E+00 0.  1.
          1    1    3    3  501    0 -0.13928264345E+01  0.12211973100E+02 -0.16810626062E+03  0.16855499729E+03  0.00000000000E+00 0.  1.
         -3    1    1    2    0  502 -0.20771863292E+00 -0.33848268092E+02 -0.35846201201E+03  0.36005661007E+03  0.00000000000E+00 0. -1.
<mgrwt>
<rscale>  1 0.30000000E+03</rscale>
<asrwt>0</asrwt>
<pdfrwt beam="1">  1       21 0.46209466E-02 0.30000000E+03</pdfrwt>
<pdfrwt beam="2">0</pdfrwt>
<totfact> 0.32940518E+04</totfact>
</mgrwt>
</event>
<event>
 6    1  0.1198667E-001  0.3000000E+03  0.7818608E-02  0.1093470E+00
         21   -1    0    0  501  502  0.00000000000E+00  0.00000000000E+00  0.27144274435E+01  0.27144274435E+01  0.00000000000E+00 0. -1.
         13   -1    0    0    0    0 -0.00000000000E+00 -0.00000000000E+00 -0.10000000000E+04  0.10000000000E+04  0.00000000000E+00 0.  1.
    9000005    2    1    2  501    0 -0.27860170223E+02 -0.38674419585E+02 -0.70036950148E+03  0.70199686380E+03  0.32028703847E+01 0.  0.
         13    1    3    3    0    0 -0.26470506079E+02 -0.35657291384E+02 -0.65856569615E+03  0.66006128978E+03  0.00000000000E+00 0.  1.
          3    1    3    3  501    0 -0.13896641438E+01 -0.30171282010E+01 -0.41803805328E+02  0.41935574026E+02  0.00000000000E+00 0.  1.
         -1    1    1    2    0  502  0.27860170223E+02  0.38674419585E+02 -0.29691607108E+03  0.30071756364E+03  0.00000000000E+00 0. -1.
<mgrwt>
<rscale>  1 0.30000000E+03</rscale>
<asrwt>0</asrwt>
<pdfrwt beam="1">  1       21 0.98706661E-02 0.30000000E+03</pdfrwt>
<pdfrwt beam="2">0</pdfrwt>
<totfact> 0.88055808E+03</totfact>
</mgrwt>
</event>
<event>
 6    1  0.1198667E-001  0.3000000E+03  0.7818608E-02  0.1093470E+00
         21   -1    0    0  501  502  0.00000000000E+00  0.00000000000E+00  0.13552530425E+01  0.13552530425E+01  0.00000000000E+00 0. -1.
         13   -1    0    0    0    0 -0.00000000000E+00 -0.00000000000E+00 -0.10000000000E+04  0.10000000000E+04  0.00000000000E+00 0.  1.
    9000005    2    1    2  501    0  0.35583044710E+01  0.31627692473E+02 -0.74969326181E+03  0.75037753606E+03  0.36725150156E+01 0.  0.
         13    1    3    3    0    0  0.26281510996E+01  0.28130292436E+02 -0.68599632852E+03  0.68657787852E+03  0.00000000000E+00 0.  1.
          1    1    3    3  501    0  0.93015337149E+00  0.34974000371E+01 -0.63696933288E+02  0.63799657543E+02  0.00000000000E+00 0.  1.
         -3    1    1    2    0  502 -0.35583044710E+01 -0.31627692473E+02 -0.24895148515E+03  0.25097771698E+03  0.00000000000E+00 0. -1.
<mgrwt>
<rscale>  1 0.30000000E+03</rscale>
<asrwt>0</asrwt>
<pdfrwt beam="1">  1       21 0.49282033E-02 0.30000000E+03</pdfrwt>
<pdfrwt beam="2">0</pdfrwt>
<totfact> 0.29523442E+04</totfact>
</mgrwt>
</event>
<event>
 6    1  0.1198667E-001  0.3000000E+03  0.7818608E-02  0.1093470E+00
         21   -1    0    0  501  502  0.00000000000E+00  0.00000000000E+00  0.46442983387E+01  0.46442983387E+01  0.00000000000E+00 0. -1.
         13   -1    0    0    0    0 -0.00000000000E+00 -0.00000000000E+00 -0.10000000000E+04  0.10000000000E+04  0.00000000000E+00 0.  1.
    9000005    2    1    2  501    0  0.18505812377E+02  0.24257976878E+02 -0.94681162915E+03  0.94730808369E+03  0.30707984838E+01 0.  0.
         13    1    3    3    0    0  0.17261742704E+02  0.21450973898E+02 -0.83233808265E+03  0.83279336926E+03  0.00000000000E+00 0.  1.
          3    1    3    3  501    0  0.12440696730E+01  0.28070029802E+01 -0.11447354649E+03  0.11451471443E+03  0.00000000000E+00 0.  1.
         -1    1    1    2    0  502 -0.18505812377E+02 -0.24257976878E+02 -0.48544072515E+02  0.57336214649E+02  0.00000000000E+00 0. -1.
<mgrwt>
<rscale>  1 0.30000000E+03</rscale>
<asrwt>0</asrwt>
<pdfrwt beam="1">  1       21 0.16888393E-01 0.30000000E+03</pdfrwt>
<pdfrwt beam="2">0</pdfrwt>
<totfact> 0.33019947E+03</totfact>
</mgrwt>
</event>
<event>
 6    1  0.1198667E-001  0.3000000E+03  0.7818608E-02  0.1093470E+00
         21   -1    0    0  501  502  0.00000000000E+00  0.00000000000E+00  0.60769664159E+01  0.60769664159E+01  0.00000000000E+00 0. -1.
         13   -1    0    0    0    0 -0.00000000000E+00 -0.00000000000E+00 -0.10000000000E+04  0.10000000000E+04  0.00000000000E+00 0.  1.
    9000005    2    1    2  501    0  0.23140994428E+02 -0.33223378951E+02 -0.92677541959E+03  0.92766714179E+03  0.37880177611E+01 0.  0.
         13    1    3    3    0    0  0.16059872008E+02 -0.23087306383E+02 -0.60235764676E+03  0.60301382888E+03  0.00000000000E+00 0.  1.
          1    1    3    3  501    0  0.70811224193E+01 -0.10136072568E+02 -0.32441777283E+03  0.32465331292E+03  0.00000000000E+00 0.  1.
         -3    1    1    2    0  502 -0.23140994428E+02  0.33223378951E+02 -0.67147613998E+02  0.78409824625E+02  0.00000000000E+00 0. -1.
<mgrwt>
<rscale>  1 0.30000000E+03</rscale>
<asrwt>0</asrwt>
<pdfrwt beam="1">  1       21 0.22098106E-01 0.30000000E+03</pdfrwt>
<pdfrwt beam="2">0</pdfrwt>
<totfact> 0.19815407E+03</totfact>
</mgrwt>
</event>
<event>
 6    1  0.1198667E-001  0.3000000E+03  0.7818608E-02  0.1093470E+00
         21   -1    0    0  501  502  0.00000000000E+00  0.00000000000E+00  0.14116551926E+01  0.14116551926E+01  0.00000000000E+00 0. -1.
         13   -1    0    0    0    0 -0.00000000000E+00 -0.00000000000E+00 -0.10000000000E+04  0.10000000000E+04  0.00000000000E+00 0.  1.
    9000005    2    1    2  501    0  0.13738743112E+02 -0.34746890320E+02 -0.54076067348E+03  0.54206181457E+03  0.35784606137E+01 0.  0.
         13    1    3    3    0    0  0.67606460821E+00 -0.23942022035E+01 -0.50464404898E+02  0.50525690785E+02  0.00000000000E+00 0.  1.
          1    1    3    3  501    0  0.13062678504E+02 -0.32352688117E+02 -0.49029626858E+03  0.49153612378E+03  0.00000000000E+00 0.  1.
         -1    1    1    2    0  502 -0.13738743112E+02  0.34746890320E+02 -0.45782767133E+03  0.45934984062E+03  0.00000000000E+00 0. -1.
<mgrwt>
<rscale>  1 0.30000000E+03</rscale>
<asrwt>0</asrwt>
<pdfrwt beam="1">  1       21 0.51333024E-02 0.30000000E+03</pdfrwt>
<pdfrwt beam="2">0</pdfrwt>
<totfact> 0.27540378E+04</totfact>
</mgrwt>
</event>
<event>
 6    1  0.1198667E-001  0.3000000E+03  0.7818608E-02  0.1093470E+00
         21   -1    0    0  501  502  0.00000000000E+00  0.00000000000E+00  0.94975576978E+00  0.94975576978E+00  0.00000000000E+00 0. -1.
         13   -1    0    0    0    0 -0.00000000000E+00 -0.00000000000E+00 -0.10000000000E+04  0.10000000000E+04  0.00000000000E+00 0.  1.
    9000005    2    1    2  501    0 -0.23964235394E+02  0.19067843557E+02 -0.45621093984E+03  0.45724728417E+03  0.29647955464E+01 0.  0.
         13    1    3    3    0    0 -0.15980436842E+02  0.13827160526E+02 -0.29794889589E+03  0.29869735400E+03  0.00000000000E+00 0.  1.
          1    1    3    3  501    0 -0.79837985518E+01  0.52406830314E+01 -0.15826204396E+03  0.15854993017E+03  0.00000000000E+00 0.  1.
         -3    1    1    2    0  502  0.23964235394E+02 -0.19067843557E+02 -0.54283930439E+03  0.54370247160E+03  0.00000000000E+00 0. -1.
<mgrwt>
<rscale>  1 0.30000000E+03</rscale>
<asrwt>0</asrwt>
<pdfrwt beam="1">  1       21 0.34536646E-02 0.30000000E+03</pdfrwt>
<pdfrwt beam="2">0</pdfrwt>
<totfact> 0.53803618E+04</totfact>
</mgrwt>
</event>
<event>
 6    1  0.1198667E-001  0.3000000E+03  0.7818608E-02  0.1093470E+00
         21   -1    0    0  501  502  0.00000000000E+00  0.00000000000E+00  0.51951424776E+01  0.51951424776E+01  0.00000000000E+00 0. -1.
         13   -1    0    0    0    0 -0.00000000000E+00 -0.00000000000E+00 -0.10000000000E+04  0.10000000000E+04  0.00000000000E+00 0.  1.
    9000005    2    1    2  501    0 -0.15638914122E+02  0.29272011137E+02 -0.94351379492E+03  0.94410341330E+03  0.33981659541E+01 0.  0.
         13    1    3    3    0    0 -0.13395807076E+01  0.48819391938E+01 -0.15722391427E+03  0.15730539414E+03  0.00000000000E+00 0.  1.
          1    1    3    3  501    0 -0.14299333415E+02  0.24390071943E+02 -0.78628988064E+03  0.78679801916E+03  0.00000000000E+00 0.  1.
         -1    1    1    2    0  502  0.15638914122E+02 -0.29272011137E+02 -0.51291062606E+02  0.61091729180E+02  0.00000000000E+00 0. -1.
<mgrwt>
<rscale>  1 0.30000000E+03</rscale>
<asrwt>0</asrwt>
<pdfrwt beam="1">  1       21 0.18891467E-01 0.30000000E+03</pdfrwt>
<pdfrwt beam="2">0</pdfrwt>
<totfact> 0.26739552E+03</totfact>
</mgrwt>
</event>
<event>
 6    1  0.1198667E-001  0.3000000E+03  0.7818608E-02  0.1093470E+00
         21   -1    0    0  501  502  0.00000000000E+00  0.00000000000E+00  0.20795773817E+01  0.20795773817E+01  0.00000000000E+00 0. -1.
         13   -1    0    0    0    0 -0.00000000000E+00 -0.00000000000E+00 -0.10000000000E+04  0.10000000000E+04  0.00000000000E+00 0.  1.
    9000005    2    1    2  501    0 -0.28448636141E+02 -0.12494814075E+02 -0.86548106267E+03  0.86604418000E+03  0.30994508773E+01 0.  0.
         13    1    3    3    0    0 -0.37866820809E+01 -0.27539144265E+01 -0.11740405997E+03  0.11749738849E+03  0.00000000000E+00 0.  1.
          3    1    3    3  501    0 -0.24661954060E+02 -0.97408996481E+01 -0.74807700270E+03  0.74854679151E+03  0.00000000000E+00 0.  1.
         -1    1    1    2    0  502  0.28448636141E+02  0.12494814075E+02 -0.13243935995E+03  0.13603539738E+03  0.00000000000E+00 0. -1.
<mgrwt>
<rscale>  1 0.30000000E+03</rscale>
<asrwt>0</asrwt>
<pdfrwt beam="1">  1       21 0.75621155E-02 0.30000000E+03</pdfrwt>
<pdfrwt beam="2">0</pdfrwt>
<totfact> 0.14099339E+04</totfact>
</mgrwt>
</event>
<event>
 6    1  0.1198667E-001  0.3000000E+03  0.7818608E-02  0.1093470E+00
         21   -1    0    0  501  502  0.00000000000E+00  0.00000000000E+00  0.13965301651E+01  0.13965301651E+01  0.00000000000E+00 0. -1.
         13   -1    0    0    0    0 -0.00000000000E+00 -0.00000000000E+00 -0.10000000000E+04  0.10000000000E+04  0.00000000000E+00 0.  1.
    9000005    2    1    2  501    0 -0.26625081879E+02  0.17240407883E+02 -0.76313623432E+03  0.76380245269E+03  0.33388558098E+01 0.  0.
         13    1    3    3    0    0 -0.22641222521E+02  0.15672900938E+02 -0.67725878165E+03  0.67781835480E+03  0.00000000000E+00 0.  1.
          3    1    3    3  501    0 -0.39838593573E+01  0.15675069448E+01 -0.85877452667E+02  0.85984097890E+02  0.00000000000E+00 0.  1.
         -3    1    1    2    0  502  0.26625081879E+02 -0.17240407883E+02 -0.23546723552E+03  0.23759407748E+03  0.00000000000E+00 0. -1.
<mgrwt>
<rscale>  1 0.30000000E+03</rscale>
<asrwt>0</asrwt>
<pdfrwt beam="1">  1       21 0.50783022E-02 0.30000000E+03</pdfrwt>
<pdfrwt beam="2">0</pdfrwt>
<totfact> 0.28051350E+04</totfact>
</mgrwt>
</event>
<event>
 6    1  0.1198667E-001  0.3000000E+03  0.7818608E-02  0.1093470E+00
         21   -1    0    0  501  502  0.00000000000E+00  0.00000000000E+00  0.12380713293E+01  0.12380713293E+01  0.00000000000E+00 0. -1.
         13   -1    0    0    0    0 -0.00000000000E+00 -0.00000000000E+00 -0.10000000000E+04  0.10000000000E+04  0.00000000000E+00 0.  1.
    9000005    2    1    2  501    0  0.18597700556E+02 -0.26254368010E+02 -0.70019598766E+03  0.70094357015E+03  0.35072919682E+01 0.  0.
         13    1    3    3    0    0  0.89259921566E+01 -0.13605089334E+02 -0.31801356810E+03  0.31842958607E+03  0.00000000000E+00 0.  1.
          1    1    3    3  501    0  0.96717083990E+01 -0.12649278676E+02 -0.38218241956E+03  0.38251398408E+03  0.00000000000E+00 0.  1.
         -1    1    1    2    0  502 -0.18597700556E+02  0.26254368010E+02 -0.29856594102E+03  0.30029450118E+03  0.00000000000E+00 0. -1.
<mgrwt>
<rscale>  1 0.30000000E+03</rscale>
<asrwt>0</asrwt>
<pdfrwt beam="1">  1       21 0.45020871E-02 0.30000000E+03</pdfrwt>
<pdfrwt beam="2">0</pdfrwt>
<totfact> 0.34431086E+04</totfact>
</mgrwt>
</event>
<event>
 6    1  0.1198667E-001  0.3000000E+03  0.7818608E-02  0.1093470E+00
         21   -1    0    0  501  502  0.00000000000E+00  0.00000000000E+00  0.37735420534E+01  0.37735420534E+01  0.00000000000E+00 0. -1.
         13   -1    0    0    0    0 -0.00000000000E+00 -0.00000000000E+00 -0.10000000000E+04  0.10000000000E+04  0.00000000000E+00 0.  1.
    9000005    2    1    2  501    0  0.42364756466E+02 -0.35093217731E+02 -0.72086891782E+03  0.72297453667E+03  0.37252475516E+01 0.  0.
         13    1    3    3    0    0  0.34035371473E+02 -0.27839355383E+02 -0.55593249524E+03  0.55766869688E+03  0.00000000000E+00 0.  1.
          1    1    3    3  501    0  0.83293849934E+01 -0.72538623481E+01 -0.16493642259E+03  0.16530583979E+03  0.00000000000E+00 0.  1.
         -1    1    1    2    0  502 -0.42364756466E+02  0.35093217731E+02 -0.27535754012E+03  0.28079900538E+03  0.00000000000E+00 0. -1.
<mgrwt>
<rscale>  1 0.30000000E+03</rscale>
<asrwt>0</asrwt>
<pdfrwt beam="1">  1       21 0.13722000E-01 0.30000000E+03</pdfrwt>
<pdfrwt beam="2">0</pdfrwt>
<totfact> 0.48520694E+03</totfact>
</mgrwt>
</event>
<event>
 6    1  0.1198667E-001  0.3000000E+03  0.7818608E-02  0.1093470E+00
         21   -1    0    0  501  502  0.00000000000E+00  0.00000000000E+00  0.57488033645E+01  0.57488033645E+01  0.00000000000E+00 0. -1.
         13   -1    0    0    0    0 -0.00000000000E+00 -0.00000000000E+00 -0.10000000000E+04  0.10000000000E+04  0.00000000000E+00 0.  1.
    9000005    2    1    2  501    0 -0.31402283994E+02  0.53706765419E+02 -0.78438376356E+03  0.78685417219E+03  0.33286128093E+01 0.  0.
         13    1    3    3    0    0 -0.25642169043E+02  0.41187272874E+02 -0.60698950237E+03  0.60892542094E+03  0.00000000000E+00 0.  1.
          3    1    3    3  501    0 -0.57601149509E+01  0.12519492544E+02 -0.17739426118E+03  0.17792875124E+03  0.00000000000E+00 0.  1.
         -3    1    1    2    0  502  0.31402283994E+02 -0.53706765419E+02 -0.20986743308E+03  0.21889463118E+03  0.00000000000E+00 0. -1.
<mgrwt>
<rscale>  1 0.30000000E+03</rscale>
<asrwt>0</asrwt>
<pdfrwt beam="1">  1       21 0.20904784E-01 0.30000000E+03</pdfrwt>
<pdfrwt beam="2">0</pdfrwt>
<totfact> 0.22045396E+03</totfact>
</mgrwt>
</event>
<event>
 6    1  0.1198667E-001  0.3000000E+03  0.7818608E-02  0.1093470E+00
         21   -1    0    0  501  502  0.00000000000E+00  0.00000000000E+00  0.12289681728E+01  0.12289681728E+01  0.00000000000E+00 0. -1.
         13   -1    0    0    0    0 -0.00000000000E+00 -0.00000000000E+00 -0.10000000000E+04  0.10000000000E+04  0.00000000000E+00 0.  1.
    9000005    2    1    2  501    0 -0.25488285998E+02 -0.22475872926E+02 -0.57794838664E+03  0.57903645724E+03  0.10201157005E+02 0.  0.
         13    1    3    3    0    0 -0.23337719130E+02 -0.15102794963E+02 -0.45543318220E+03  0.45628075458E+03  0.00000000000E+00 0.  1.
          3    1    3    3  501    0 -0.21505668681E+01 -0.73730779621E+01 -0.12251520444E+03  0.12275570266E+03  0.00000000000E+00 0.  1.
         -1    1    1    2    0  502  0.25488285998E+02  0.22475872926E+02 -0.42082264519E+03  0.42219251093E+03  0.00000000000E+00 0. -1.
<mgrwt>
<rscale>  1 0.30000000E+03</rscale>
<asrwt>0</asrwt>
<pdfrwt beam="1">  1       21 0.44689846E-02 0.30000000E+03</pdfrwt>
<pdfrwt beam="2">0</pdfrwt>
<totfact> 0.34864862E+04</totfact>
</mgrwt>
</event>
<event>
 6    1  0.1198667E-001  0.3000000E+03  0.7818608E-02  0.1093470E+00
         21   -1    0    0  501  502  0.00000000000E+00  0.00000000000E+00  0.12024540150E+01  0.12024540150E+01  0.00000000000E+00 0. -1.
         13   -1    0    0    0    0 -0.00000000000E+00 -0.00000000000E+00 -0.10000000000E+04  0.10000000000E+04  0.00000000000E+00 0.  1.
    9000005    2    1    2  501    0  0.28853146418E+02 -0.16214928819E+02 -0.64507483520E+03  0.64593469007E+03  0.38279041240E+01 0.  0.
         13    1    3    3    0    0  0.23908200210E+02 -0.12159877019E+02 -0.49994042487E+03  0.50065945818E+03  0.00000000000E+00 0.  1.
          1    1    3    3  501    0  0.49449462084E+01 -0.40550518001E+01 -0.14513441033E+03  0.14527523189E+03  0.00000000000E+00 0.  1.
         -3    1    1    2    0  502 -0.28853146418E+02  0.16214928819E+02 -0.35372271079E+03  0.35526776395E+03  0.00000000000E+00 0. -1.
<mgrwt>
<rscale>  1 0.30000000E+03</rscale>
<asrwt>0</asrwt>
<pdfrwt beam="1">  1       21 0.43725693E-02 0.30000000E+03</pdfrwt>
<pdfrwt beam="2">0</pdfrwt>
<totfact> 0.36177547E+04</totfact>
</mgrwt>
</event>
<event>
 6    1  0.1198667E-001  0.3000000E+03  0.7818608E-02  0.1093470E+00
         21   -1    0    0  501  502  0.00000000000E+00  0.00000000000E+00  0.12714015339E+02  0.12714015339E+02  0.00000000000E+00 0. -1.
         13   -1    0    0    0    0 -0.00000000000E+00 -0.00000000000E+00 -0.10000000000E+04  0.10000000000E+04  0.00000000000E+00 0.  1.
    9000005    2    1    2  501    0 -0.10212021835E+03 -0.45200748000E+02 -0.56281679045E+03  0.57379973732E+03  0.34281656306E+01 0.  0.
         13    1    3    3    0    0 -0.60380269416E+02 -0.25712887354E+02 -0.32341723298E+03  0.33000853944E+03  0.00000000000E+00 0.  1.
          1    1    3    3  501    0 -0.41739948935E+02 -0.19487860646E+02 -0.23939955747E+03  0.24379119788E+03  0.00000000000E+00 0.  1.
         -1    1    1    2    0  502  0.10212021835E+03  0.45200748000E+02 -0.42446919421E+03  0.43891427802E+03  0.00000000000E+00 0. -1.
<mgrwt>
<rscale>  1 0.30000000E+03</rscale>
<asrwt>0</asrwt>
<pdfrwt beam="1">  1       21 0.46232881E-01 0.30000000E+03</pdfrwt>
<pdfrwt beam="2">0</pdfrwt>
<totfact> 0.44470471E+02</totfact>
</mgrwt>
</event>
<event>
 6    1  0.1198667E-001  0.3000000E+03  0.7818608E-02  0.1093470E+00
         21   -1    0    0  501  502  0.00000000000E+00  0.00000000000E+00  0.97673633915E+01  0.97673633915E+01  0.00000000000E+00 0. -1.
         13   -1    0    0    0    0 -0.00000000000E+00 -0.00000000000E+00 -0.10000000000E+04  0.10000000000E+04  0.00000000000E+00 0.  1.
    9000005    2    1    2  501    0 -0.58871433390E+02  0.51110655871E+02 -0.18525866250E+03  0.20102683405E+03  0.35876402824E+01 0.  0.
         13    1    3    3    0    0 -0.24145638978E+02  0.21482442527E+02 -0.72386684635E+02  0.79273825005E+02  0.00000000000E+00 0.  1.
          3    1    3    3  501    0 -0.34725794412E+02  0.29628213344E+02 -0.11287197787E+03  0.12175300905E+03  0.00000000000E+00 0.  1.
         -3    1    1    2    0  502  0.58871433390E+02 -0.51110655871E+02 -0.80497397410E+03  0.80874052934E+03  0.00000000000E+00 0. -1.
<mgrwt>
<rscale>  1 0.30000000E+03</rscale>
<asrwt>0</asrwt>
<pdfrwt beam="1">  1       21 0.35517760E-01 0.30000000E+03</pdfrwt>
<pdfrwt beam="2">0</pdfrwt>
<totfact> 0.77222538E+02</totfact>
</mgrwt>
</event>
<event>
 6    1  0.1198667E-001  0.3000000E+03  0.7818608E-02  0.1093470E+00
         21   -1    0    0  501  502  0.00000000000E+00  0.00000000000E+00  0.18661397229E+01  0.18661397229E+01  0.00000000000E+00 0. -1.
         13   -1    0    0    0    0 -0.00000000000E+00 -0.00000000000E+00 -0.10000000000E+04  0.10000000000E+04  0.00000000000E+00 0.  1.
    9000005    2    1    2  501    0  0.29656307883E+02  0.29588053630E+02 -0.61939101326E+03  0.62081352697E+03  0.30427707909E+01 0.  0.
         13    1    3    3    0    0  0.20977515537E+01  0.16951061875E+01 -0.51366623586E+02  0.51437379066E+02  0.00000000000E+00 0.  1.
          3    1    3    3  501    0  0.27558556329E+02  0.27892947442E+02 -0.56802438967E+03  0.56937614791E+03  0.00000000000E+00 0.  1.
         -1    1    1    2    0  502 -0.29656307883E+02 -0.29588053630E+02 -0.37874284702E+03  0.38105261275E+03  0.00000000000E+00 0. -1.
<mgrwt>
<rscale>  1 0.30000000E+03</rscale>
<asrwt>0</asrwt>
<pdfrwt beam="1">  1       21 0.67859769E-02 0.30000000E+03</pdfrwt>
<pdfrwt beam="2">0</pdfrwt>
<totfact> 0.17030130E+04</totfact>
</mgrwt>
</event>
<event>
 6    1  0.1198667E-001  0.3000000E+03  0.7818608E-02  0.1093470E+00
         21   -1    0    0  501  502  0.00000000000E+00  0.00000000000E+00  0.78748808198E+01  0.78748808198E+01  0.00000000000E+00 0. -1.
         13   -1    0    0    0    0 -0.00000000000E+00 -0.00000000000E+00 -0.10000000000E+04  0.10000000000E+04  0.00000000000E+00 0.  1.
    9000005    2    1    2  501    0  0.85469131947E+02  0.20142923290E+02 -0.42469254060E+03  0.43368811582E+03  0.33042218296E+01 0.  0.
         13    1    3    3    0    0  0.23181964936E+02  0.41271465925E+01 -0.11053745553E+03  0.11301754692E+03  0.00000000000E+00 0.  1.
          3    1    3    3  501    0  0.62287167011E+02  0.16015776697E+02 -0.31415508507E+03  0.32067056890E+03  0.00000000000E+00 0.  1.
         -3    1    1    2    0  502 -0.85469131947E+02 -0.20142923290E+02 -0.56743257858E+03  0.57418676500E+03  0.00000000000E+00 0. -1.
<mgrwt>
<rscale>  1 0.30000000E+03</rscale>
<asrwt>0</asrwt>
<pdfrwt beam="1">  1       21 0.28635991E-01 0.30000000E+03</pdfrwt>
<pdfrwt beam="2">0</pdfrwt>
<totfact> 0.11929982E+03</totfact>
</mgrwt>
</event>
<event>
 6    1  0.1198667E-001  0.3000000E+03  0.7818608E-02  0.1093470E+00
         21   -1    0    0  501  502  0.00000000000E+00  0.00000000000E+00  0.27730775726E+01  0.27730775726E+01  0.00000000000E+00 0. -1.
         13   -1    0    0    0    0 -0.00000000000E+00 -0.00000000000E+00 -0.10000000000E+04  0.10000000000E+04  0.00000000000E+00 0.  1.
    9000005    2    1    2  501    0 -0.40716700399E+02 -0.25705550100E+02 -0.70105219056E+03  0.70270958963E+03  0.28228490750E+01 0.  0.
         13    1    3    3    0    0 -0.36587485357E+02 -0.23197988713E+02 -0.64209982145E+03  0.64355960988E+03  0.00000000000E+00 0.  1.
          1    1    3    3  501    0 -0.41292150423E+01 -0.25075613872E+01 -0.58952369111E+02  0.59149979753E+02  0.00000000000E+00 0.  1.
         -1    1    1    2    0  502  0.40716700399E+02  0.25705550100E+02 -0.29617473187E+03  0.30006348794E+03  0.00000000000E+00 0. -1.
<mgrwt>
<rscale>  1 0.30000000E+03</rscale>
<asrwt>0</asrwt>
<pdfrwt beam="1">  1       21 0.10083940E-01 0.30000000E+03</pdfrwt>
<pdfrwt beam="2">0</pdfrwt>
<totfact> 0.84756229E+03</totfact>
</mgrwt>
</event>
<event>
 6    1  0.1198667E-001  0.3000000E+03  0.7818608E-02  0.1093470E+00
         21   -1    0    0  501  502  0.00000000000E+00  0.00000000000E+00  0.94928386920E+01  0.94928386920E+01  0.00000000000E+00 0. -1.
         13   -1    0    0    0    0 -0.00000000000E+00 -0.00000000000E+00 -0.10000000000E+04  0.10000000000E+04  0.00000000000E+00 0.  1.
    9000005    2    1    2  501    0 -0.10315992341E+02 -0.40839358953E+02 -0.95031362312E+03  0.95127090597E+03  0.67883227446E+01 0.  0.
         13    1    3    3    0    0 -0.54618212479E+01 -0.21661327139E+02 -0.57880497251E+03  0.57923591117E+03  0.00000000000E+00 0.  1.
          1    1    3    3  501    0 -0.48541710927E+01 -0.19178031814E+02 -0.37150865061E+03  0.37203499480E+03  0.00000000000E+00 0.  1.
         -1    1    1    2    0  502  0.10315992341E+02  0.40839358953E+02 -0.40193538193E+02  0.58221932724E+02  0.00000000000E+00 0. -1.
<mgrwt>
<rscale>  1 0.30000000E+03</rscale>
<asrwt>0</asrwt>
<pdfrwt beam="1">  1       21 0.34519486E-01 0.30000000E+03</pdfrwt>
<pdfrwt beam="2">0</pdfrwt>
<totfact> 0.81859907E+02</totfact>
</mgrwt>
</event>
<event>
 6    1  0.1198667E-001  0.3000000E+03  0.7818608E-02  0.1093470E+00
         21   -1    0    0  501  502  0.00000000000E+00  0.00000000000E+00  0.18467688651E+01  0.18467688651E+01  0.00000000000E+00 0. -1.
         13   -1    0    0    0    0 -0.00000000000E+00 -0.00000000000E+00 -0.10000000000E+04  0.10000000000E+04  0.00000000000E+00 0.  1.
    9000005    2    1    2  501    0  0.35343308366E+00  0.36227316185E+02 -0.76766637472E+03  0.76852995778E+03  0.37536360156E+01 0.  0.
         13    1    3    3    0    0  0.20291051786E+01  0.16425908294E+02 -0.34833384038E+03  0.34872681584E+03  0.00000000000E+00 0.  1.
          1    1    3    3  501    0 -0.16756720950E+01  0.19801407891E+02 -0.41933253434E+03  0.41980314194E+03  0.00000000000E+00 0.  1.
         -1    1    1    2    0  502 -0.35343308366E+00 -0.36227316185E+02 -0.23048685641E+03  0.23331681108E+03  0.00000000000E+00 0. -1.
<mgrwt>
<rscale>  1 0.30000000E+03</rscale>
<asrwt>0</asrwt>
<pdfrwt beam="1">  1       21 0.67155373E-02 0.30000000E+03</pdfrwt>
<pdfrwt beam="2">0</pdfrwt>
<totfact> 0.17341355E+04</totfact>
</mgrwt>
</event>
<event>
 6    1  0.1198667E-001  0.3000000E+03  0.7818608E-02  0.1093470E+00
         21   -1    0    0  501  502  0.00000000000E+00  0.00000000000E+00  0.25516196339E+01  0.25516196339E+01  0.00000000000E+00 0. -1.
         13   -1    0    0    0    0 -0.00000000000E+00 -0.00000000000E+00 -0.10000000000E+04  0.10000000000E+04  0.00000000000E+00 0.  1.
    9000005    2    1    2  501    0  0.24784161491E+02  0.29673648947E+02 -0.82098161539E+03  0.82189919302E+03  0.35623819847E+01 0.  0.
         13    1    3    3    0    0  0.23169665536E+02  0.26831798882E+02 -0.76683515436E+03  0.76765417526E+03  0.00000000000E+00 0.  1.
          3    1    3    3  501    0  0.16144959546E+01  0.28418500650E+01 -0.54146461037E+02  0.54245017760E+02  0.00000000000E+00 0.  1.
         -3    1    1    2    0  502 -0.24784161491E+02 -0.29673648947E+02 -0.17646676497E+03  0.18065242662E+03  0.00000000000E+00 0. -1.
<mgrwt>
<rscale>  1 0.30000000E+03</rscale>
<asrwt>0</asrwt>
<pdfrwt beam="1">  1       21 0.92786364E-02 0.30000000E+03</pdfrwt>
<pdfrwt beam="2">0</pdfrwt>
<totfact> 0.98315904E+03</totfact>
</mgrwt>
</event>
<event>
 6    1  0.1198667E-001  0.3000000E+03  0.7818608E-02  0.1093470E+00
         21   -1    0    0  501  502  0.00000000000E+00  0.00000000000E+00  0.18879649982E+01  0.18879649982E+01  0.00000000000E+00 0. -1.
         13   -1    0    0    0    0 -0.00000000000E+00 -0.00000000000E+00 -0.10000000000E+04  0.10000000000E+04  0.00000000000E+00 0.  1.
    9000005    2    1    2  501    0  0.13807968871E+02 -0.38875203630E+02 -0.65311732096E+03  0.65443538668E+03  0.46366952071E+01 0.  0.
         13    1    3    3    0    0  0.95181225990E+00 -0.66376658558E+00 -0.23468623029E+02  0.23497293451E+02  0.00000000000E+00 0.  1.
          3    1    3    3  501    0  0.12856156611E+02 -0.38211437044E+02 -0.62964869793E+03  0.63093809323E+03  0.00000000000E+00 0.  1.
         -3    1    1    2    0  502 -0.13807968871E+02  0.38875203630E+02 -0.34499471404E+03  0.34745257831E+03  0.00000000000E+00 0. -1.
<mgrwt>
<rscale>  1 0.30000000E+03</rscale>
<asrwt>0</asrwt>
<pdfrwt beam="1">  1       21 0.68653417E-02 0.30000000E+03</pdfrwt>
<pdfrwt beam="2">0</pdfrwt>
<totfact> 0.16689629E+04</totfact>
</mgrwt>
</event>
<event>
 6    1  0.1198667E-001  0.3000000E+03  0.7818608E-02  0.1093470E+00
         21   -1    0    0  501  502  0.00000000000E+00  0.00000000000E+00  0.10289612674E+01  0.10289612674E+01  0.00000000000E+00 0. -1.
         13   -1    0    0    0    0 -0.00000000000E+00 -0.00000000000E+00 -0.10000000000E+04  0.10000000000E+04  0.00000000000E+00 0.  1.
    9000005    2    1    2  501    0 -0.29490132561E+02 -0.95447422114E+01 -0.62424009327E+03  0.62501825463E+03  0.33696507882E+01 0.  0.
         13    1    3    3    0    0 -0.26551183946E+02 -0.85833777484E+01 -0.57949974835E+03  0.58017117998E+03  0.00000000000E+00 0.  1.
          1    1    3    3  501    0 -0.29389486151E+01 -0.96136446294E+00 -0.44740344925E+02  0.44847074649E+02  0.00000000000E+00 0.  1.
         -3    1    1    2    0  502  0.29490132561E+02  0.95447422114E+01 -0.37473094546E+03  0.37601070664E+03  0.00000000000E+00 0. -1.
<mgrwt>
<rscale>  1 0.30000000E+03</rscale>
<asrwt>0</asrwt>
<pdfrwt beam="1">  1       21 0.37416852E-02 0.30000000E+03</pdfrwt>
<pdfrwt beam="2">0</pdfrwt>
<totfact> 0.47042293E+04</totfact>
</mgrwt>
</event>
<event>
 6    1  0.1198667E-001  0.3000000E+03  0.7818608E-02  0.1093470E+00
         21   -1    0    0  501  502  0.00000000000E+00  0.00000000000E+00  0.11689821582E+01  0.11689821582E+01  0.00000000000E+00 0. -1.
         13   -1    0    0    0    0 -0.00000000000E+00 -0.00000000000E+00 -0.10000000000E+04  0.10000000000E+04  0.00000000000E+00 0.  1.
    9000005    2    1    2  501    0  0.10644374817E+02 -0.30950457830E+02 -0.36063960436E+03  0.36213884688E+03  0.35194644016E+01 0.  0.
         13    1    3    3    0    0  0.52300288142E+01 -0.11958541242E+02 -0.12879943482E+03  0.12945908358E+03  0.00000000000E+00 0.  1.
          1    1    3    3  501    0  0.54143460028E+01 -0.18991916587E+02 -0.23184016954E+03  0.23267976330E+03  0.00000000000E+00 0.  1.
         -1    1    1    2    0  502 -0.10644374817E+02  0.30950457830E+02 -0.63819141348E+03  0.63903013528E+03  0.00000000000E+00 0. -1.
<mgrwt>
<rscale>  1 0.30000000E+03</rscale>
<asrwt>0</asrwt>
<pdfrwt beam="1">  1       21 0.42508532E-02 0.30000000E+03</pdfrwt>
<pdfrwt beam="2">0</pdfrwt>
<totfact> 0.37947070E+04</totfact>
</mgrwt>
</event>
<event>
 6    1  0.1198667E-001  0.3000000E+03  0.7818608E-02  0.1093470E+00
         21   -1    0    0  501  502  0.00000000000E+00  0.00000000000E+00  0.19752572565E+01  0.19752572565E+01  0.00000000000E+00 0. -1.
         13   -1    0    0    0    0 -0.00000000000E+00 -0.00000000000E+00 -0.10000000000E+04  0.10000000000E+04  0.00000000000E+00 0.  1.
    9000005    2    1    2  501    0 -0.22314627398E+02  0.30387014495E+02 -0.76403694013E+03  0.76496976150E+03  0.22308929930E+01 0.  0.
         13    1    3    3    0    0 -0.18664565601E+02  0.26302900513E+02 -0.64073632027E+03  0.64154753581E+03  0.00000000000E+00 0.  1.
          3    1    3    3  501    0 -0.36500617970E+01  0.40841139819E+01 -0.12330061986E+03  0.12342222569E+03  0.00000000000E+00 0.  1.
         -1    1    1    2    0  502  0.22314627398E+02 -0.30387014495E+02 -0.23398780261E+03  0.23700549576E+03  0.00000000000E+00 0. -1.
<mgrwt>
<rscale>  1 0.30000000E+03</rscale>
<asrwt>0</asrwt>
<pdfrwt beam="1">  1       21 0.71827688E-02 0.30000000E+03</pdfrwt>
<pdfrwt beam="2">0</pdfrwt>
<totfact> 0.15426757E+04</totfact>
</mgrwt>
</event>
<event>
 6    1  0.1198667E-001  0.3000000E+03  0.7818608E-02  0.1093470E+00
         21   -1    0    0  501  502  0.00000000000E+00  0.00000000000E+00  0.13245299138E+01  0.13245299138E+01  0.00000000000E+00 0. -1.
         13   -1    0    0    0    0 -0.00000000000E+00 -0.00000000000E+00 -0.10000000000E+04  0.10000000000E+04  0.00000000000E+00 0.  1.
    9000005    2    1    2  501    0 -0.21088613565E+02  0.24646473596E+02 -0.72498651546E+03  0.72572006303E+03  0.34617914639E+01 0.  0.
         13    1    3    3    0    0 -0.21186336431E+02  0.24198917072E+02 -0.71429434943E+03  0.71501808793E+03  0.00000000000E+00 0.  1.
          3    1    3    3  501    0  0.97722865866E-01  0.44755652404E+00 -0.10692166032E+02  0.10701975100E+02  0.00000000000E+00 0.  1.
         -1    1    1    2    0  502  0.21088613565E+02 -0.24646473596E+02 -0.27368895463E+03  0.27560446689E+03  0.00000000000E+00 0. -1.
<mgrwt>
<rscale>  1 0.30000000E+03</rscale>
<asrwt>0</asrwt>
<pdfrwt beam="1">  1       21 0.48164826E-02 0.30000000E+03</pdfrwt>
<pdfrwt beam="2">0</pdfrwt>
<totfact> 0.30698937E+04</totfact>
</mgrwt>
</event>
<event>
 6    1  0.1198667E-001  0.3000000E+03  0.7818608E-02  0.1093470E+00
         21   -1    0    0  501  502  0.00000000000E+00  0.00000000000E+00  0.78901543415E+01  0.78901543415E+01  0.00000000000E+00 0. -1.
         13   -1    0    0    0    0 -0.00000000000E+00 -0.00000000000E+00 -0.10000000000E+04  0.10000000000E+04  0.00000000000E+00 0.  1.
    9000005    2    1    2  501    0 -0.42471370213E+02  0.16932435261E+02 -0.92805127524E+03  0.92918802543E+03  0.45488977301E+01 0.  0.
         13    1    3    3    0    0 -0.17639619720E+01  0.83065490405E+00 -0.24782239681E+02  0.24858820427E+02  0.00000000000E+00 0.  1.
          3    1    3    3  501    0 -0.40707408241E+02  0.16101780357E+02 -0.90326903556E+03  0.90432920500E+03  0.00000000000E+00 0.  1.
         -1    1    1    2    0  502  0.42471370213E+02 -0.16932435261E+02 -0.64058570419E+02  0.78702128915E+02  0.00000000000E+00 0. -1.
<mgrwt>
<rscale>  1 0.30000000E+03</rscale>
<asrwt>0</asrwt>
<pdfrwt beam="1">  1       21 0.28691531E-01 0.30000000E+03</pdfrwt>
<pdfrwt beam="2">0</pdfrwt>
<totfact> 0.11884109E+03</totfact>
</mgrwt>
</event>
<event>
 6    1  0.1198667E-001  0.3000000E+03  0.7818608E-02  0.1093470E+00
         21   -1    0    0  501  502  0.00000000000E+00  0.00000000000E+00  0.54366615505E+01  0.54366615505E+01  0.00000000000E+00 0. -1.
         13   -1    0    0    0    0 -0.00000000000E+00 -0.00000000000E+00 -0.10000000000E+04  0.10000000000E+04  0.00000000000E+00 0.  1.
    9000005    2    1    2  501    0  0.20609550266E+02  0.33065152222E+02 -0.92383449201E+03  0.92468625862E+03  0.75133490302E+01 0.  0.
         13    1    3    3    0    0  0.10065664169E+02  0.22200064442E+02 -0.52807470978E+03  0.52863698278E+03  0.00000000000E+00 0.  1.
          3    1    3    3  501    0  0.10543886097E+02  0.10865087780E+02 -0.39575978223E+03  0.39604927584E+03  0.00000000000E+00 0.  1.
         -1    1    1    2    0  502 -0.20609550266E+02 -0.33065152222E+02 -0.70728846444E+02  0.80750402928E+02  0.00000000000E+00 0. -1.
<mgrwt>
<rscale>  1 0.30000000E+03</rscale>
<asrwt>0</asrwt>
<pdfrwt beam="1">  1       21 0.19769720E-01 0.30000000E+03</pdfrwt>
<pdfrwt beam="2">0</pdfrwt>
<totfact> 0.24528074E+03</totfact>
</mgrwt>
</event>
<event>
 6    1  0.1198667E-001  0.3000000E+03  0.7818608E-02  0.1093470E+00
         21   -1    0    0  501  502  0.00000000000E+00  0.00000000000E+00  0.34462286607E+01  0.34462286607E+01  0.00000000000E+00 0. -1.
         13   -1    0    0    0    0 -0.00000000000E+00 -0.00000000000E+00 -0.10000000000E+04  0.10000000000E+04  0.00000000000E+00 0.  1.
    9000005    2    1    2  501    0 -0.38274463967E+02 -0.48279473421E+01 -0.87632254143E+03  0.87717749812E+03  0.33049837976E+01 0.  0.
         13    1    3    3    0    0 -0.26320515964E+02 -0.33833599983E+01 -0.63629332122E+03  0.63684645505E+03  0.00000000000E+00 0.  1.
          3    1    3    3  501    0 -0.11953948003E+02 -0.14445873437E+01 -0.24002922021E+03  0.24033104306E+03  0.00000000000E+00 0.  1.
         -1    1    1    2    0  502  0.38274463967E+02  0.48279473421E+01 -0.12023122991E+03  0.12626873054E+03  0.00000000000E+00 0. -1.
<mgrwt>
<rscale>  1 0.30000000E+03</rscale>
<asrwt>0</asrwt>
<pdfrwt beam="1">  1       21 0.12531767E-01 0.30000000E+03</pdfrwt>
<pdfrwt beam="2">0</pdfrwt>
<totfact> 0.57271547E+03</totfact>
</mgrwt>
</event>
<event>
 6    1  0.1198667E-001  0.3000000E+03  0.7818608E-02  0.1093470E+00
         21   -1    0    0  501  502  0.00000000000E+00  0.00000000000E+00  0.30089837828E+01  0.30089837828E+01  0.00000000000E+00 0. -1.
         13   -1    0    0    0    0 -0.00000000000E+00 -0.00000000000E+00 -0.10000000000E+04  0.10000000000E+04  0.00000000000E+00 0.  1.
    9000005    2    1    2  501    0  0.19626229060E+02  0.46063626225E+02 -0.29486605457E+03  0.29910095833E+03  0.28890497483E+01 0.  0.
         13    1    3    3    0    0  0.18451430931E+02  0.41081467375E+02 -0.26477681386E+03  0.26857941735E+03  0.00000000000E+00 0.  1.
          1    1    3    3  501    0  0.11747981293E+01  0.49821588495E+01 -0.30089240706E+02  0.30521540979E+02  0.00000000000E+00 0.  1.
         -1    1    1    2    0  502 -0.19626229060E+02 -0.46063626225E+02 -0.70212496165E+03  0.70390802545E+03  0.00000000000E+00 0. -1.
<mgrwt>
<rscale>  1 0.30000000E+03</rscale>
<asrwt>0</asrwt>
<pdfrwt beam="1">  1       21 0.10941782E-01 0.30000000E+03</pdfrwt>
<pdfrwt beam="2">0</pdfrwt>
<totfact> 0.73215752E+03</totfact>
</mgrwt>
</event>
<event>
 6    1  0.1198667E-001  0.3000000E+03  0.7818608E-02  0.1093470E+00
         21   -1    0    0  501  502  0.00000000000E+00  0.00000000000E+00  0.13159269658E+01  0.13159269658E+01  0.00000000000E+00 0. -1.
         13   -1    0    0    0    0 -0.00000000000E+00 -0.00000000000E+00 -0.10000000000E+04  0.10000000000E+04  0.00000000000E+00 0.  1.
    9000005    2    1    2  501    0  0.25202552218E+02 -0.25414220127E+02 -0.57738515165E+03  0.57849938000E+03  0.26207058462E+01 0.  0.
         13    1    3    3    0    0  0.80590650237E+01 -0.98715280821E+01 -0.20102644740E+03  0.20142995843E+03  0.00000000000E+00 0.  1.
          1    1    3    3  501    0  0.17143487194E+02 -0.15542692045E+02 -0.37635870424E+03  0.37706942158E+03  0.00000000000E+00 0.  1.
         -1    1    1    2    0  502 -0.25202552218E+02  0.25414220127E+02 -0.42129892139E+03  0.42281654696E+03  0.00000000000E+00 0. -1.
<mgrwt>
<rscale>  1 0.30000000E+03</rscale>
<asrwt>0</asrwt>
<pdfrwt beam="1">  1       21 0.47851991E-02 0.30000000E+03</pdfrwt>
<pdfrwt beam="2">0</pdfrwt>
<totfact> 0.31041227E+04</totfact>
</mgrwt>
</event>
<event>
 6    1  0.1198667E-001  0.3000000E+03  0.7818608E-02  0.1093470E+00
         21   -1    0    0  501  502  0.00000000000E+00  0.00000000000E+00  0.94180531004E+00  0.94180531004E+00  0.00000000000E+00 0. -1.
         13   -1    0    0    0    0 -0.00000000000E+00 -0.00000000000E+00 -0.10000000000E+04  0.10000000000E+04  0.00000000000E+00 0.  1.
    9000005    2    1    2  501    0  0.26396796101E+02 -0.14830440158E+02 -0.42369590587E+03  0.42478341025E+03  0.24478918759E+01 0.  0.
         13    1    3    3    0    0  0.25542928464E+02 -0.13882431433E+02 -0.40924709862E+03  0.41027838211E+03  0.00000000000E+00 0.  1.
          1    1    3    3  501    0  0.85386763688E+00 -0.94800872515E+00 -0.14448807251E+02  0.14505028144E+02  0.00000000000E+00 0.  1.
         -3    1    1    2    0  502 -0.26396796101E+02  0.14830440158E+02 -0.57536228882E+03  0.57615839506E+03  0.00000000000E+00 0. -1.
<mgrwt>
<rscale>  1 0.30000000E+03</rscale>
<asrwt>0</asrwt>
<pdfrwt beam="1">  1       21 0.34247538E-02 0.30000000E+03</pdfrwt>
<pdfrwt beam="2">0</pdfrwt>
<totfact> 0.54565366E+04</totfact>
</mgrwt>
</event>
<event>
 6    1  0.1198667E-001  0.3000000E+03  0.7818608E-02  0.1093470E+00
         21   -1    0    0  501  502  0.00000000000E+00  0.00000000000E+00  0.27014791926E+01  0.27014791926E+01  0.00000000000E+00 0. -1.
         13   -1    0    0    0    0 -0.00000000000E+00 -0.00000000000E+00 -0.10000000000E+04  0.10000000000E+04  0.00000000000E+00 0.  1.
    9000005    2    1    2  501    0  0.44019993467E+02 -0.91551377631E+01 -0.74956016828E+03  0.75091611885E+03  0.36048990579E+01 0.  0.
         13    1    3    3    0    0  0.24072911468E+02 -0.32590016114E+01 -0.41293273302E+03  0.41364667067E+03  0.00000000000E+00 0.  1.
          3    1    3    3  501    0  0.19947081999E+02 -0.58961361517E+01 -0.33662743527E+03  0.33726944818E+03  0.00000000000E+00 0.  1.
         -3    1    1    2    0  502 -0.44019993467E+02  0.91551377631E+01 -0.24773835252E+03  0.25178536034E+03  0.00000000000E+00 0. -1.
<mgrwt>
<rscale>  1 0.30000000E+03</rscale>
<asrwt>0</asrwt>
<pdfrwt beam="1">  1       21 0.98235814E-02 0.30000000E+03</pdfrwt>
<pdfrwt beam="2">0</pdfrwt>
<totfact> 0.88810695E+03</totfact>
</mgrwt>
</event>
<event>
 6    1  0.1198667E-001  0.3000000E+03  0.7818608E-02  0.1093470E+00
         21   -1    0    0  501  502  0.00000000000E+00  0.00000000000E+00  0.15277778385E+01  0.15277778385E+01  0.00000000000E+00 0. -1.
         13   -1    0    0    0    0 -0.00000000000E+00 -0.00000000000E+00 -0.10000000000E+04  0.10000000000E+04  0.00000000000E+00 0.  1.
    9000005    2    1    2  501    0  0.30749271323E+02  0.24013073930E+02 -0.49403714997E+03  0.49558619281E+03  0.32899156280E+01 0.  0.
         13    1    3    3    0    0  0.55333768223E+01  0.45533738205E+01 -0.75822109091E+02  0.76159987521E+02  0.00000000000E+00 0.  1.
          1    1    3    3  501    0  0.25215894500E+02  0.19459700110E+02 -0.41821504088E+03  0.41942620529E+03  0.00000000000E+00 0.  1.
         -3    1    1    2    0  502 -0.30749271323E+02 -0.24013073930E+02 -0.50443507219E+03  0.50594158503E+03  0.00000000000E+00 0. -1.
<mgrwt>
<rscale>  1 0.30000000E+03</rscale>
<asrwt>0</asrwt>
<pdfrwt beam="1">  1       21 0.55555675E-02 0.30000000E+03</pdfrwt>
<pdfrwt beam="2">0</pdfrwt>
<totfact> 0.24055754E+04</totfact>
</mgrwt>
</event>
<event>
 6    1  0.1198667E-001  0.3000000E+03  0.7818608E-02  0.1093470E+00
         21   -1    0    0  501  502  0.00000000000E+00  0.00000000000E+00  0.16765355142E+01  0.16765355142E+01  0.00000000000E+00 0. -1.
         13   -1    0    0    0    0 -0.00000000000E+00 -0.00000000000E+00 -0.10000000000E+04  0.10000000000E+04  0.00000000000E+00 0.  1.
    9000005    2    1    2  501    0  0.21319201651E+02 -0.26685223270E+02 -0.77460580869E+03  0.77536657326E+03  0.35432436020E+01 0.  0.
         13    1    3    3    0    0  0.17243146458E+02 -0.23425489462E+02 -0.64416797927E+03  0.64482436769E+03  0.00000000000E+00 0.  1.
          1    1    3    3  501    0  0.40760551934E+01 -0.32597338077E+01 -0.13043782942E+03  0.13054220556E+03  0.00000000000E+00 0.  1.
         -1    1    1    2    0  502 -0.21319201651E+02  0.26685223270E+02 -0.22371765580E+03  0.22630996226E+03  0.00000000000E+00 0. -1.
<mgrwt>
<rscale>  1 0.30000000E+03</rscale>
<asrwt>0</asrwt>
<pdfrwt beam="1">  1       21 0.60965056E-02 0.30000000E+03</pdfrwt>
<pdfrwt beam="2">0</pdfrwt>
<totfact> 0.20499520E+04</totfact>
</mgrwt>
</event>
<event>
 6    1  0.1198667E-001  0.3000000E+03  0.7818608E-02  0.1093470E+00
         21   -1    0    0  501  502  0.00000000000E+00  0.00000000000E+00  0.10883342573E+01  0.10883342573E+01  0.00000000000E+00 0. -1.
         13   -1    0    0    0    0 -0.00000000000E+00 -0.00000000000E+00 -0.10000000000E+04  0.10000000000E+04  0.00000000000E+00 0.  1.
    9000005    2    1    2  501    0 -0.14514321693E+02  0.27015493947E+02 -0.67819543914E+03  0.67890919083E+03  0.53040822159E+01 0.  0.
         13    1    3    3    0    0 -0.14337558976E+01  0.65448495591E+01 -0.17377109255E+03  0.17390021080E+03  0.00000000000E+00 0.  1.
          1    1    3    3  501    0 -0.13080565795E+02  0.20470644388E+02 -0.50442434659E+03  0.50500898003E+03  0.00000000000E+00 0.  1.
         -1    1    1    2    0  502  0.14514321693E+02 -0.27015493947E+02 -0.32071622661E+03  0.32217914342E+03  0.00000000000E+00 0. -1.
<mgrwt>
<rscale>  1 0.30000000E+03</rscale>
<asrwt>0</asrwt>
<pdfrwt beam="1">  1       21 0.39575875E-02 0.30000000E+03</pdfrwt>
<pdfrwt beam="2">0</pdfrwt>
<totfact> 0.42808742E+04</totfact>
</mgrwt>
</event>
<event>
 6    1  0.1198667E-001  0.3000000E+03  0.7818608E-02  0.1093470E+00
         21   -1    0    0  501  502  0.00000000000E+00  0.00000000000E+00  0.32306072609E+01  0.32306072609E+01  0.00000000000E+00 0. -1.
         13   -1    0    0    0    0 -0.00000000000E+00 -0.00000000000E+00 -0.10000000000E+04  0.10000000000E+04  0.00000000000E+00 0.  1.
    9000005    2    1    2  501    0  0.15749450673E+02  0.54326161021E+02 -0.45385415530E+03  0.45737684295E+03  0.32565651979E+01 0.  0.
         13    1    3    3    0    0  0.71801131012E+01  0.21732173074E+02 -0.17271303621E+03  0.17422294409E+03  0.00000000000E+00 0.  1.
          3    1    3    3  501    0  0.85693375718E+01  0.32593987946E+02 -0.28114111909E+03  0.28315389886E+03  0.00000000000E+00 0.  1.
         -3    1    1    2    0  502 -0.15749450673E+02 -0.54326161021E+02 -0.54291523744E+03  0.54585376431E+03  0.00000000000E+00 0. -1.
<mgrwt>
<rscale>  1 0.30000000E+03</rscale>
<asrwt>0</asrwt>
<pdfrwt beam="1">  1       21 0.11747688E-01 0.30000000E+03</pdfrwt>
<pdfrwt beam="2">0</pdfrwt>
<totfact> 0.64404964E+03</totfact>
</mgrwt>
</event>
<event>
 6    1  0.1198667E-001  0.3000000E+03  0.7818608E-02  0.1093470E+00
         21   -1    0    0  501  502  0.00000000000E+00  0.00000000000E+00  0.99950451924E+00  0.99950451924E+00  0.00000000000E+00 0. -1.
         13   -1    0    0    0    0 -0.00000000000E+00 -0.00000000000E+00 -0.10000000000E+04  0.10000000000E+04  0.00000000000E+00 0.  1.
    9000005    2    1    2  501    0  0.26876567039E+02  0.14325853321E+02 -0.63003312319E+03  0.63077727160E+03  0.32634532759E+01 0.  0.
         13    1    3    3    0    0  0.58276697937E+01  0.46009626748E+01 -0.16246334065E+03  0.16263292301E+03  0.00000000000E+00 0.  1.
          1    1    3    3  501    0  0.21048897245E+02  0.97248906459E+01 -0.46756978254E+03  0.46814434859E+03  0.00000000000E+00 0.  1.
         -3    1    1    2    0  502 -0.26876567039E+02 -0.14325853321E+02 -0.36896737229E+03  0.37022223292E+03  0.00000000000E+00 0. -1.
<mgrwt>
<rscale>  1 0.30000000E+03</rscale>
<asrwt>0</asrwt>
<pdfrwt beam="1">  1       21 0.36345696E-02 0.30000000E+03</pdfrwt>
<pdfrwt beam="2">0</pdfrwt>
<totfact> 0.49392237E+04</totfact>
</mgrwt>
</event>
<event>
 6    1  0.1198667E-001  0.3000000E+03  0.7818608E-02  0.1093470E+00
         21   -1    0    0  501  502  0.00000000000E+00  0.00000000000E+00  0.25700833893E+01  0.25700833893E+01  0.00000000000E+00 0. -1.
         13   -1    0    0    0    0 -0.00000000000E+00 -0.00000000000E+00 -0.10000000000E+04  0.10000000000E+04  0.00000000000E+00 0.  1.
    9000005    2    1    2  501    0  0.36916133014E+02  0.29258858022E+02 -0.68308495380E+03  0.68471534094E+03  0.33410131564E+01 0.  0.
         13    1    3    3    0    0  0.32353169628E+02  0.26844757402E+02 -0.61452511953E+03  0.61596143639E+03  0.00000000000E+00 0.  1.
          3    1    3    3  501    0  0.45629633857E+01  0.24141006203E+01 -0.68559834264E+02  0.68753904551E+02  0.00000000000E+00 0.  1.
         -3    1    1    2    0  502 -0.36916133014E+02 -0.29258858022E+02 -0.31434496281E+03  0.31785474245E+03  0.00000000000E+00 0. -1.
<mgrwt>
<rscale>  1 0.30000000E+03</rscale>
<asrwt>0</asrwt>
<pdfrwt beam="1">  1       21 0.93457775E-02 0.30000000E+03</pdfrwt>
<pdfrwt beam="2">0</pdfrwt>
<totfact> 0.97063909E+03</totfact>
</mgrwt>
</event>
<event>
 6    1  0.1198667E-001  0.3000000E+03  0.7818608E-02  0.1093470E+00
         21   -1    0    0  501  502  0.00000000000E+00  0.00000000000E+00  0.14061387242E+02  0.14061387242E+02  0.00000000000E+00 0. -1.
         13   -1    0    0    0    0 -0.00000000000E+00 -0.00000000000E+00 -0.10000000000E+04  0.10000000000E+04  0.00000000000E+00 0.  1.
    9000005    2    1    2  501    0 -0.33546027913E+02  0.11142390575E+03 -0.59011633727E+03  0.60148909475E+03  0.33491534099E+01 0.  0.
         13    1    3    3    0    0 -0.30660423629E+02  0.98234944127E+02 -0.52030601103E+03  0.53038524767E+03  0.00000000000E+00 0.  1.
          3    1    3    3  501    0 -0.28856042837E+01  0.13188961620E+02 -0.69810326237E+02  0.71103847083E+02  0.00000000000E+00 0.  1.
         -3    1    1    2    0  502  0.33546027913E+02 -0.11142390575E+03 -0.39582227549E+03  0.41257229249E+03  0.00000000000E+00 0. -1.
<mgrwt>
<rscale>  1 0.30000000E+03</rscale>
<asrwt>0</asrwt>
<pdfrwt beam="1">  1       21 0.51132425E-01 0.30000000E+03</pdfrwt>
<pdfrwt beam="2">0</pdfrwt>
<totfact> 0.35787630E+02</totfact>
</mgrwt>
</event>
<event>
 6    1  0.1198667E-001  0.3000000E+03  0.7818608E-02  0.1093470E+00
         21   -1    0    0  501  502  0.00000000000E+00  0.00000000000E+00  0.18667577227E+01  0.18667577227E+01  0.00000000000E+00 0. -1.
         13   -1    0    0    0    0 -0.00000000000E+00 -0.00000000000E+00 -0.10000000000E+04  0.10000000000E+04  0.00000000000E+00 0.  1.
    9000005    2    1    2  501    0 -0.25468386515E+02  0.26952606554E+02 -0.75561133091E+03  0.75652626126E+03  0.29015277609E+01 0.  0.
         13    1    3    3    0    0 -0.43412232225E+01  0.32057500081E+01 -0.11721706415E+03  0.11734122541E+03  0.00000000000E+00 0.  1.
          3    1    3    3  501    0 -0.21127163293E+02  0.23746856546E+02 -0.63839426676E+03  0.63918503585E+03  0.00000000000E+00 0.  1.
         -1    1    1    2    0  502  0.25468386515E+02 -0.26952606554E+02 -0.24252191136E+03  0.24534049646E+03  0.00000000000E+00 0. -1.
<mgrwt>
<rscale>  1 0.30000000E+03</rscale>
<asrwt>0</asrwt>
<pdfrwt beam="1">  1       21 0.67882242E-02 0.30000000E+03</pdfrwt>
<pdfrwt beam="2">0</pdfrwt>
<totfact> 0.17020343E+04</totfact>
</mgrwt>
</event>
<event>
 6    1  0.1198667E-001  0.3000000E+03  0.7818608E-02  0.1093470E+00
         21   -1    0    0  501  502  0.00000000000E+00  0.00000000000E+00  0.13674220959E+01  0.13674220959E+01  0.00000000000E+00 0. -1.
         13   -1    0    0    0    0 -0.00000000000E+00 -0.00000000000E+00 -0.10000000000E+04  0.10000000000E+04  0.00000000000E+00 0.  1.
    9000005    2    1    2  501    0  0.33390564819E+02 -0.69107561206E+01 -0.69160656169E+03  0.69245373997E+03  0.31396598224E+01 0.  0.
         13    1    3    3    0    0  0.35033463495E+01 -0.16542437512E+01 -0.86561622338E+02  0.86648279959E+02  0.00000000000E+00 0.  1.
          3    1    3    3  501    0  0.29887218470E+02 -0.52565123693E+01 -0.60504493935E+03  0.60580546002E+03  0.00000000000E+00 0.  1.
         -1    1    1    2    0  502 -0.33390564819E+02  0.69107561206E+01 -0.30702601621E+03  0.30891368212E+03  0.00000000000E+00 0. -1.
<mgrwt>
<rscale>  1 0.30000000E+03</rscale>
<asrwt>0</asrwt>
<pdfrwt beam="1">  1       21 0.49724545E-02 0.30000000E+03</pdfrwt>
<pdfrwt beam="2">0</pdfrwt>
<totfact> 0.29077167E+04</totfact>
</mgrwt>
</event>
<event>
 6    1  0.1198667E-001  0.3000000E+03  0.7818608E-02  0.1093470E+00
         21   -1    0    0  501  502  0.00000000000E+00  0.00000000000E+00  0.18482757080E+01  0.18482757080E+01  0.00000000000E+00 0. -1.
         13   -1    0    0    0    0 -0.00000000000E+00 -0.00000000000E+00 -0.10000000000E+04  0.10000000000E+04  0.00000000000E+00 0.  1.
    9000005    2    1    2  501    0 -0.25451377892E+02 -0.32190291489E+02 -0.64677970673E+03  0.64808807130E+03  0.31892962868E+01 0.  0.
         13    1    3    3    0    0 -0.58083858599E+01 -0.66678555663E+01 -0.12074463477E+03  0.12106801588E+03  0.00000000000E+00 0.  1.
          3    1    3    3  501    0 -0.19642992032E+02 -0.25522435922E+02 -0.52603507196E+03  0.52702005541E+03  0.00000000000E+00 0.  1.
         -3    1    1    2    0  502  0.25451377892E+02  0.32190291489E+02 -0.35137201756E+03  0.35376020441E+03  0.00000000000E+00 0. -1.
<mgrwt>
<rscale>  1 0.30000000E+03</rscale>
<asrwt>0</asrwt>
<pdfrwt beam="1">  1       21 0.67210167E-02 0.30000000E+03</pdfrwt>
<pdfrwt beam="2">0</pdfrwt>
<totfact> 0.17316833E+04</totfact>
</mgrwt>
</event>
<event>
 6    1  0.1198667E-001  0.3000000E+03  0.7818608E-02  0.1093470E+00
         21   -1    0    0  501  502  0.00000000000E+00  0.00000000000E+00  0.13181634768E+01  0.13181634768E+01  0.00000000000E+00 0. -1.
         13   -1    0    0    0    0 -0.00000000000E+00 -0.00000000000E+00 -0.10000000000E+04  0.10000000000E+04  0.00000000000E+00 0.  1.
    9000005    2    1    2  501    0  0.43818086919E+01 -0.34817495299E+02 -0.43830717793E+03  0.43984579886E+03  0.10940124781E+02 0.  0.
         13    1    3    3    0    0  0.62761843521E+01 -0.27928095020E+02 -0.30266960142E+03  0.30402015822E+03  0.00000000000E+00 0.  1.
          3    1    3    3  501    0 -0.18943756602E+01 -0.68894002792E+01 -0.13563757651E+03  0.13582564064E+03  0.00000000000E+00 0.  1.
         -1    1    1    2    0  502 -0.43818086919E+01  0.34817495299E+02 -0.56037465860E+03  0.56147236461E+03  0.00000000000E+00 0. -1.
<mgrwt>
<rscale>  1 0.30000000E+03</rscale>
<asrwt>0</asrwt>
<pdfrwt beam="1">  1       21 0.47933318E-02 0.30000000E+03</pdfrwt>
<pdfrwt beam="2">0</pdfrwt>
<totfact> 0.30951670E+04</totfact>
</mgrwt>
</event>
<event>
 6    1  0.1198667E-001  0.3000000E+03  0.7818608E-02  0.1093470E+00
         21   -1    0    0  501  502  0.00000000000E+00  0.00000000000E+00  0.11159591976E+01  0.11159591976E+01  0.00000000000E+00 0. -1.
         13   -1    0    0    0    0 -0.00000000000E+00 -0.00000000000E+00 -0.10000000000E+04  0.10000000000E+04  0.00000000000E+00 0.  1.
    9000005    2    1    2  501    0  0.29003853836E+02 -0.13836331196E+02 -0.63204110397E+03  0.63286820577E+03  0.36798332182E+01 0.  0.
         13    1    3    3    0    0  0.19440125090E+02 -0.11133841389E+02 -0.43306623125E+03  0.43364529461E+03  0.00000000000E+00 0.  1.
          1    1    3    3  501    0  0.95637287465E+01 -0.27024898070E+01 -0.19897487272E+03  0.19922291116E+03  0.00000000000E+00 0.  1.
         -1    1    1    2    0  502 -0.29003853836E+02  0.13836331196E+02 -0.36684293683E+03  0.36824775343E+03  0.00000000000E+00 0. -1.
<mgrwt>
<rscale>  1 0.30000000E+03</rscale>
<asrwt>0</asrwt>
<pdfrwt beam="1">  1       21 0.40580420E-02 0.30000000E+03</pdfrwt>
<pdfrwt beam="2">0</pdfrwt>
<totfact> 0.41039138E+04</totfact>
</mgrwt>
</event>
<event>
 6    1  0.1198667E-001  0.3000000E+03  0.7818608E-02  0.1093470E+00
         21   -1    0    0  501  502  0.00000000000E+00  0.00000000000E+00  0.22129862572E+01  0.22129862572E+01  0.00000000000E+00 0. -1.
         13   -1    0    0    0    0 -0.00000000000E+00 -0.00000000000E+00 -0.10000000000E+04  0.10000000000E+04  0.00000000000E+00 0.  1.
    9000005    2    1    2  501    0 -0.21400126663E+02 -0.28934226469E+02 -0.82126845446E+03  0.82206316901E+03  0.32900866955E+01 0.  0.
         13    1    3    3    0    0 -0.16523974191E+02 -0.19971004389E+02 -0.57888924115E+03  0.57946927120E+03  0.00000000000E+00 0.  1.
          3    1    3    3  501    0 -0.48761524721E+01 -0.89632220795E+01 -0.24237921331E+03  0.24259389782E+03  0.00000000000E+00 0.  1.
         -1    1    1    2    0  502  0.21400126663E+02  0.28934226469E+02 -0.17651855928E+03  0.18014981724E+03  0.00000000000E+00 0. -1.
<mgrwt>
<rscale>  1 0.30000000E+03</rscale>
<asrwt>0</asrwt>
<pdfrwt beam="1">  1       21 0.80472397E-02 0.30000000E+03</pdfrwt>
<pdfrwt beam="2">0</pdfrwt>
<totfact> 0.12642429E+04</totfact>
</mgrwt>
</event>
<event>
 6    1  0.1198667E-001  0.3000000E+03  0.7818608E-02  0.1093470E+00
         21   -1    0    0  501  502  0.00000000000E+00  0.00000000000E+00  0.15872572818E+01  0.15872572818E+01  0.00000000000E+00 0. -1.
         13   -1    0    0    0    0 -0.00000000000E+00 -0.00000000000E+00 -0.10000000000E+04  0.10000000000E+04  0.00000000000E+00 0.  1.
    9000005    2    1    2  501    0  0.30176626066E+02 -0.12351985459E+02 -0.78637957177E+03  0.78706158076E+03  0.31465382689E+01 0.  0.
         13    1    3    3    0    0  0.21274476958E+02 -0.10193458210E+02 -0.57399025092E+03  0.57447481939E+03  0.00000000000E+00 0.  1.
          1    1    3    3  501    0  0.89021491080E+01 -0.21585272497E+01 -0.21238932086E+03  0.21258676138E+03  0.00000000000E+00 0.  1.
         -1    1    1    2    0  502 -0.30176626066E+02  0.12351985459E+02 -0.21203317094E+03  0.21452567652E+03  0.00000000000E+00 0. -1.
<mgrwt>
<rscale>  1 0.30000000E+03</rscale>
<asrwt>0</asrwt>
<pdfrwt beam="1">  1       21 0.57718568E-02 0.30000000E+03</pdfrwt>
<pdfrwt beam="2">0</pdfrwt>
<totfact> 0.22527449E+04</totfact>
</mgrwt>
</event>
<event>
 6    1  0.1198667E-001  0.3000000E+03  0.7818608E-02  0.1093470E+00
         21   -1    0    0  501  502  0.00000000000E+00  0.00000000000E+00  0.21988809763E+01  0.21988809763E+01  0.00000000000E+00 0. -1.
         13   -1    0    0    0    0 -0.00000000000E+00 -0.00000000000E+00 -0.10000000000E+04  0.10000000000E+04  0.00000000000E+00 0.  1.
    9000005    2    1    2  501    0  0.31760042682E+02 -0.12863202375E+02 -0.84068706091E+03  0.84139157534E+03  0.32994542715E+01 0.  0.
         13    1    3    3    0    0  0.26771039769E+02 -0.11841796108E+02 -0.69758792824E+03  0.69820185787E+03  0.00000000000E+00 0.  1.
          1    1    3    3  501    0  0.49890029126E+01 -0.10214062676E+01 -0.14309913267E+03  0.14318971748E+03  0.00000000000E+00 0.  1.
         -1    1    1    2    0  502 -0.31760042682E+02  0.12863202375E+02 -0.15711405812E+03  0.16080730563E+03  0.00000000000E+00 0. -1.
<mgrwt>
<rscale>  1 0.30000000E+03</rscale>
<asrwt>0</asrwt>
<pdfrwt beam="1">  1       21 0.79959477E-02 0.30000000E+03</pdfrwt>
<pdfrwt beam="2">0</pdfrwt>
<totfact> 0.12785242E+04</totfact>
</mgrwt>
</event>
<event>
 6    1  0.1198667E-001  0.3000000E+03  0.7818608E-02  0.1093470E+00
         21   -1    0    0  501  502  0.00000000000E+00  0.00000000000E+00  0.27059022755E+01  0.27059022755E+01  0.00000000000E+00 0. -1.
         13   -1    0    0    0    0 -0.00000000000E+00 -0.00000000000E+00 -0.10000000000E+04  0.10000000000E+04  0.00000000000E+00 0.  1.
    9000005    2    1    2  501    0  0.42830328471E+01  0.34578270451E+02 -0.86923213291E+03  0.86998865400E+03  0.10087420245E+02 0.  0.
         13    1    3    3    0    0 -0.14485873571E+01  0.24844171862E+02 -0.62556034927E+03  0.62605517477E+03  0.00000000000E+00 0.  1.
          1    1    3    3  501    0  0.57316202042E+01  0.97340985891E+01 -0.24367178365E+03  0.24393347923E+03  0.00000000000E+00 0.  1.
         -1    1    1    2    0  502 -0.42830328471E+01 -0.34578270451E+02 -0.12806196481E+03  0.13271724828E+03  0.00000000000E+00 0. -1.
<mgrwt>
<rscale>  1 0.30000000E+03</rscale>
<asrwt>0</asrwt>
<pdfrwt beam="1">  1       21 0.98396654E-02 0.30000000E+03</pdfrwt>
<pdfrwt beam="2">0</pdfrwt>
<totfact> 0.88551719E+03</totfact>
</mgrwt>
</event>
<event>
 6    1  0.1198667E-001  0.3000000E+03  0.7818608E-02  0.1093470E+00
         21   -1    0    0  501  502  0.00000000000E+00  0.00000000000E+00  0.48238708411E+01  0.48238708411E+01  0.00000000000E+00 0. -1.
         13   -1    0    0    0    0 -0.00000000000E+00 -0.00000000000E+00 -0.10000000000E+04  0.10000000000E+04  0.00000000000E+00 0.  1.
    9000005    2    1    2  501    0 -0.34327379427E+02 -0.42607864288E+02 -0.80684602551E+03  0.80870649013E+03  0.34466237516E+01 0.  0.
         13    1    3    3    0    0 -0.60049079372E+01 -0.58019269163E+01 -0.13327896551E+03  0.13354027079E+03  0.00000000000E+00 0.  1.
          3    1    3    3  501    0 -0.28322471490E+02 -0.36805937372E+02 -0.67356706000E+03  0.67516621934E+03  0.00000000000E+00 0.  1.
         -1    1    1    2    0  502  0.34327379427E+02  0.42607864288E+02 -0.18833010364E+03  0.19611738071E+03  0.00000000000E+00 0. -1.
<mgrwt>
<rscale>  1 0.30000000E+03</rscale>
<asrwt>0</asrwt>
<pdfrwt beam="1">  1       21 0.17541386E-01 0.30000000E+03</pdfrwt>
<pdfrwt beam="2">0</pdfrwt>
<totfact> 0.30752708E+03</totfact>
</mgrwt>
</event>
<event>
 6    1  0.1198667E-001  0.3000000E+03  0.7818608E-02  0.1093470E+00
         21   -1    0    0  501  502  0.00000000000E+00  0.00000000000E+00  0.24936185632E+01  0.24936185632E+01  0.00000000000E+00 0. -1.
         13   -1    0    0    0    0 -0.00000000000E+00 -0.00000000000E+00 -0.10000000000E+04  0.10000000000E+04  0.00000000000E+00 0.  1.
    9000005    2    1    2  501    0 -0.35379398503E+02  0.41489854748E+01 -0.84977408352E+03  0.85052734676E+03  0.34436376103E+01 0.  0.
         13    1    3    3    0    0 -0.65711247277E+01  0.47626555254E+00 -0.19058700616E+03  0.19070084799E+03  0.00000000000E+00 0.  1.
          3    1    3    3  501    0 -0.28808273776E+02  0.36727199223E+01 -0.65918707737E+03  0.65982649877E+03  0.00000000000E+00 0.  1.
         -3    1    1    2    0  502  0.35379398503E+02 -0.41489854748E+01 -0.14773229791E+03  0.15196627180E+03  0.00000000000E+00 0. -1.
<mgrwt>
<rscale>  1 0.30000000E+03</rscale>
<asrwt>0</asrwt>
<pdfrwt beam="1">  1       21 0.90677230E-02 0.30000000E+03</pdfrwt>
<pdfrwt beam="2">0</pdfrwt>
<totfact> 0.10241118E+04</totfact>
</mgrwt>
</event>
<event>
 6    1  0.1198667E-001  0.3000000E+03  0.7818608E-02  0.1093470E+00
         21   -1    0    0  501  502  0.00000000000E+00  0.00000000000E+00  0.13799530366E+01  0.13799530366E+01  0.00000000000E+00 0. -1.
         13   -1    0    0    0    0 -0.00000000000E+00 -0.00000000000E+00 -0.10000000000E+04  0.10000000000E+04  0.00000000000E+00 0.  1.
    9000005    2    1    2  501    0  0.23153578830E+02  0.25850649448E+02 -0.67152840290E+03  0.67245247181E+03  0.61307954875E+01 0.  0.
         13    1    3    3    0    0  0.16519100315E+02  0.16672753251E+02 -0.39997270270E+03  0.40066073464E+03  0.00000000000E+00 0.  1.
          3    1    3    3  501    0  0.66344785156E+01  0.91778961972E+01 -0.27155570020E+03  0.27179173717E+03  0.00000000000E+00 0.  1.
         -1    1    1    2    0  502 -0.23153578830E+02 -0.25850649448E+02 -0.32709164406E+03  0.32892748122E+03  0.00000000000E+00 0. -1.
<mgrwt>
<rscale>  1 0.30000000E+03</rscale>
<asrwt>0</asrwt>
<pdfrwt beam="1">  1       21 0.50180216E-02 0.30000000E+03</pdfrwt>
<pdfrwt beam="2">0</pdfrwt>
<totfact> 0.28628512E+04</totfact>
</mgrwt>
</event>
<event>
 6    1  0.1198667E-001  0.3000000E+03  0.7818608E-02  0.1093470E+00
         21   -1    0    0  501  502  0.00000000000E+00  0.00000000000E+00  0.16352293452E+01  0.16352293452E+01  0.00000000000E+00 0. -1.
         13   -1    0    0    0    0 -0.00000000000E+00 -0.00000000000E+00 -0.10000000000E+04  0.10000000000E+04  0.00000000000E+00 0.  1.
    9000005    2    1    2  501    0 -0.77658765826E+00 -0.38849408180E+02 -0.62422517555E+03  0.62548324380E+03  0.78954974544E+01 0.  0.
         13    1    3    3    0    0  0.86868727423E+00 -0.14500744331E+02 -0.29324377594E+03  0.29360336907E+03  0.00000000000E+00 0.  1.
          3    1    3    3  501    0 -0.16452749325E+01 -0.24348663849E+02 -0.33098139961E+03  0.33187987472E+03  0.00000000000E+00 0.  1.
         -3    1    1    2    0  502  0.77658765826E+00  0.38849408180E+02 -0.37413959511E+03  0.37615198555E+03  0.00000000000E+00 0. -1.
<mgrwt>
<rscale>  1 0.30000000E+03</rscale>
<asrwt>0</asrwt>
<pdfrwt beam="1">  1       21 0.59463011E-02 0.30000000E+03</pdfrwt>
<pdfrwt beam="2">0</pdfrwt>
<totfact> 0.21400863E+04</totfact>
</mgrwt>
</event>
<event>
 6    1  0.1198667E-001  0.3000000E+03  0.7818608E-02  0.1093470E+00
         21   -1    0    0  501  502  0.00000000000E+00  0.00000000000E+00  0.27273418703E+01  0.27273418703E+01  0.00000000000E+00 0. -1.
         13   -1    0    0    0    0 -0.00000000000E+00 -0.00000000000E+00 -0.10000000000E+04  0.10000000000E+04  0.00000000000E+00 0.  1.
    9000005    2    1    2  501    0 -0.43780257799E+02 -0.28256171870E+02 -0.47616999111E+03  0.47902598442E+03  0.35932009288E+01 0.  0.
         13    1    3    3    0    0 -0.42966745415E+02 -0.27381318439E+02 -0.46032793690E+03  0.46313895031E+03  0.00000000000E+00 0.  1.
          1    1    3    3  501    0 -0.81351238390E+00 -0.87485343134E+00 -0.15842054217E+02  0.15887034107E+02  0.00000000000E+00 0.  1.
         -1    1    1    2    0  502  0.43780257799E+02  0.28256171870E+02 -0.52110266702E+03  0.52370135745E+03  0.00000000000E+00 0. -1.
<mgrwt>
<rscale>  1 0.30000000E+03</rscale>
<asrwt>0</asrwt>
<pdfrwt beam="1">  1       21 0.99176277E-02 0.30000000E+03</pdfrwt>
<pdfrwt beam="2">0</pdfrwt>
<totfact> 0.87312617E+03</totfact>
</mgrwt>
</event>
<event>
 6    1  0.1198667E-001  0.3000000E+03  0.7818608E-02  0.1093470E+00
         21   -1    0    0  501  502  0.00000000000E+00  0.00000000000E+00  0.24997362153E+01  0.24997362153E+01  0.00000000000E+00 0. -1.
         13   -1    0    0    0    0 -0.00000000000E+00 -0.00000000000E+00 -0.10000000000E+04  0.10000000000E+04  0.00000000000E+00 0.  1.
    9000005    2    1    2  501    0 -0.31206730403E+02 -0.76994113644E+01 -0.88254030680E+03  0.88313084299E+03  0.30905940851E+01 0.  0.
         13    1    3    3    0    0 -0.25296772724E+02 -0.54813250686E+01 -0.73478412794E+03  0.73523988351E+03  0.00000000000E+00 0.  1.
          1    1    3    3  501    0 -0.59099576788E+01 -0.22180862958E+01 -0.14775617886E+03  0.14789095948E+03  0.00000000000E+00 0.  1.
         -3    1    1    2    0  502  0.31206730403E+02  0.76994113644E+01 -0.11495995699E+03  0.11936889322E+03  0.00000000000E+00 0. -1.
<mgrwt>
<rscale>  1 0.30000000E+03</rscale>
<asrwt>0</asrwt>
<pdfrwt beam="1">  1       21 0.90899690E-02 0.30000000E+03</pdfrwt>
<pdfrwt beam="2">0</pdfrwt>
<totfact> 0.10196721E+04</totfact>
</mgrwt>
</event>
<event>
 6    1  0.1198667E-001  0.3000000E+03  0.7818608E-02  0.1093470E+00
         21   -1    0    0  501  502  0.00000000000E+00  0.00000000000E+00  0.14006824561E+01  0.14006824561E+01  0.00000000000E+00 0. -1.
         13   -1    0    0    0    0 -0.00000000000E+00 -0.00000000000E+00 -0.10000000000E+04  0.10000000000E+04  0.00000000000E+00 0.  1.
    9000005    2    1    2  501    0 -0.20431648122E+02 -0.27132414556E+02 -0.29400336179E+03  0.29598656222E+03  0.40556264645E+01 0.  0.
         13    1    3    3    0    0 -0.46109022808E-01 -0.27872366960E+00 -0.76576340587E+01  0.76628436173E+01  0.00000000000E+00 0.  1.
          3    1    3    3  501    0 -0.20385539099E+02 -0.26853690887E+02 -0.28634572773E+03  0.28832371860E+03  0.00000000000E+00 0.  1.
         -1    1    1    2    0  502  0.20431648122E+02  0.27132414556E+02 -0.70459595575E+03  0.70541412024E+03  0.00000000000E+00 0. -1.
<mgrwt>
<rscale>  1 0.30000000E+03</rscale>
<asrwt>0</asrwt>
<pdfrwt beam="1">  1       21 0.50934015E-02 0.30000000E+03</pdfrwt>
<pdfrwt beam="2">0</pdfrwt>
<totfact> 0.27909614E+04</totfact>
</mgrwt>
</event>
<event>
 6    1  0.1198667E-001  0.3000000E+03  0.7818608E-02  0.1093470E+00
         21   -1    0    0  501  502  0.00000000000E+00  0.00000000000E+00  0.51639277481E+01  0.51639277481E+01  0.00000000000E+00 0. -1.
         13   -1    0    0    0    0 -0.00000000000E+00 -0.00000000000E+00 -0.10000000000E+04  0.10000000000E+04  0.00000000000E+00 0.  1.
    9000005    2    1    2  501    0  0.42505257724E+01  0.41441122908E+02 -0.90687318598E+03  0.90783508824E+03  0.31840803312E+01 0.  0.
         13    1    3    3    0    0  0.31861136554E+00  0.83541492473E+01 -0.20837584433E+03  0.20854348665E+03  0.00000000000E+00 0.  1.
          1    1    3    3  501    0  0.39319144069E+01  0.33086973661E+02 -0.69849734165E+03  0.69929160160E+03  0.00000000000E+00 0.  1.
         -1    1    1    2    0  502 -0.42505257724E+01 -0.41441122908E+02 -0.87962886276E+02  0.97328839504E+02  0.00000000000E+00 0. -1.
<mgrwt>
<rscale>  1 0.30000000E+03</rscale>
<asrwt>0</asrwt>
<pdfrwt beam="1">  1       21 0.18777959E-01 0.30000000E+03</pdfrwt>
<pdfrwt beam="2">0</pdfrwt>
<totfact> 0.27046402E+03</totfact>
</mgrwt>
</event>
<event>
 6    1  0.1198667E-001  0.3000000E+03  0.7818608E-02  0.1093470E+00
         21   -1    0    0  501  502  0.00000000000E+00  0.00000000000E+00  0.29484580089E+01  0.29484580089E+01  0.00000000000E+00 0. -1.
         13   -1    0    0    0    0 -0.00000000000E+00 -0.00000000000E+00 -0.10000000000E+04  0.10000000000E+04  0.00000000000E+00 0.  1.
    9000005    2    1    2  501    0 -0.14280913534E+02  0.29079099166E+02 -0.90083578088E+03  0.90142500660E+03  0.35213508207E+01 0.  0.
         13    1    3    3    0    0 -0.95064007669E+01  0.22488785929E+02 -0.65738556672E+03  0.65783881041E+03  0.00000000000E+00 0.  1.
          1    1    3    3  501    0 -0.47745127671E+01  0.65903132364E+01 -0.24345021416E+03  0.24358619619E+03  0.00000000000E+00 0.  1.
         -3    1    1    2    0  502  0.14280913534E+02 -0.29079099166E+02 -0.96215761111E+02  0.10152345141E+03  0.00000000000E+00 0. -1.
<mgrwt>
<rscale>  1 0.30000000E+03</rscale>
<asrwt>0</asrwt>
<pdfrwt beam="1">  1       21 0.10721688E-01 0.30000000E+03</pdfrwt>
<pdfrwt beam="2">0</pdfrwt>
<totfact> 0.75938383E+03</totfact>
</mgrwt>
</event>
<event>
 6    1  0.1198667E-001  0.3000000E+03  0.7818608E-02  0.1093470E+00
         21   -1    0    0  501  502  0.00000000000E+00  0.00000000000E+00  0.12734261907E+02  0.12734261907E+02  0.00000000000E+00 0. -1.
         13   -1    0    0    0    0 -0.00000000000E+00 -0.00000000000E+00 -0.10000000000E+04  0.10000000000E+04  0.00000000000E+00 0.  1.
    9000005    2    1    2  501    0  0.29213854261E+02 -0.92093333071E+02 -0.75513682223E+03  0.76130143816E+03  0.36916367612E+01 0.  0.
         13    1    3    3    0    0  0.88178952321E+00 -0.47207778371E+01 -0.33446295456E+02  0.33789317482E+02  0.00000000000E+00 0.  1.
          1    1    3    3  501    0  0.28332064737E+02 -0.87372555233E+02 -0.72169052677E+03  0.72751212068E+03  0.00000000000E+00 0.  1.
         -1    1    1    2    0  502 -0.29213854261E+02  0.92093333071E+02 -0.23212891586E+03  0.25143282375E+03  0.00000000000E+00 0. -1.
<mgrwt>
<rscale>  1 0.30000000E+03</rscale>
<asrwt>0</asrwt>
<pdfrwt beam="1">  1       21 0.46306505E-01 0.30000000E+03</pdfrwt>
<pdfrwt beam="2">0</pdfrwt>
<totfact> 0.44319483E+02</totfact>
</mgrwt>
</event>
<event>
 6    1  0.1198667E-001  0.3000000E+03  0.7818608E-02  0.1093470E+00
         21   -1    0    0  501  502  0.00000000000E+00  0.00000000000E+00  0.45804202621E+01  0.45804202621E+01  0.00000000000E+00 0. -1.
         13   -1    0    0    0    0 -0.00000000000E+00 -0.00000000000E+00 -0.10000000000E+04  0.10000000000E+04  0.00000000000E+00 0.  1.
    9000005    2    1    2  501    0 -0.41308494950E+02  0.23813421170E+02 -0.85406835864E+03  0.85540388562E+03  0.30944329899E+01 0.  0.
         13    1    3    3    0    0 -0.36315267860E+02  0.21880287979E+02 -0.74842161598E+03  0.74962154515E+03  0.00000000000E+00 0.  1.
          1    1    3    3  501    0 -0.49932270904E+01  0.19331331911E+01 -0.10564674266E+03  0.10578234047E+03  0.00000000000E+00 0.  1.
         -3    1    1    2    0  502  0.41308494950E+02 -0.23813421170E+02 -0.14135122110E+03  0.14917653464E+03  0.00000000000E+00 0. -1.
<mgrwt>
<rscale>  1 0.30000000E+03</rscale>
<asrwt>0</asrwt>
<pdfrwt beam="1">  1       21 0.16656109E-01 0.30000000E+03</pdfrwt>
<pdfrwt beam="2">0</pdfrwt>
<totfact> 0.33886651E+03</totfact>
</mgrwt>
</event>
<event>
 6    1  0.1198667E-001  0.3000000E+03  0.7818608E-02  0.1093470E+00
         21   -1    0    0  501  502  0.00000000000E+00  0.00000000000E+00  0.10470742238E+01  0.10470742238E+01  0.00000000000E+00 0. -1.
         13   -1    0    0    0    0 -0.00000000000E+00 -0.00000000000E+00 -0.10000000000E+04  0.10000000000E+04  0.00000000000E+00 0.  1.
    9000005    2    1    2  501    0 -0.24779452602E+02  0.18894553345E+02 -0.37016921035E+03  0.37149168651E+03  0.31310438659E+01 0.  0.
         13    1    3    3    0    0 -0.20006330698E+02  0.13888001420E+02 -0.29640211106E+03  0.29740097729E+03  0.00000000000E+00 0.  1.
          1    1    3    3  501    0 -0.47731219039E+01  0.50065519251E+01 -0.73767099293E+02  0.74090709222E+02  0.00000000000E+00 0.  1.
         -3    1    1    2    0  502  0.24779452602E+02 -0.18894553345E+02 -0.62878371543E+03  0.62955538772E+03  0.00000000000E+00 0. -1.
<mgrwt>
<rscale>  1 0.30000000E+03</rscale>
<asrwt>0</asrwt>
<pdfrwt beam="1">  1       21 0.38075507E-02 0.30000000E+03</pdfrwt>
<pdfrwt beam="2">0</pdfrwt>
<totfact> 0.45683459E+04</totfact>
</mgrwt>
</event>
<event>
 6    1  0.1198667E-001  0.3000000E+03  0.7818608E-02  0.1093470E+00
         21   -1    0    0  501  502  0.00000000000E+00  0.00000000000E+00  0.53653955481E+01  0.53653955481E+01  0.00000000000E+00 0. -1.
         13   -1    0    0    0    0 -0.00000000000E+00 -0.00000000000E+00 -0.10000000000E+04  0.10000000000E+04  0.00000000000E+00 0.  1.
    9000005    2    1    2  501    0 -0.14030978227E+02 -0.47836493856E+02 -0.86552740415E+03  0.86696789678E+03  0.32323714110E+01 0.  0.
         13    1    3    3    0    0 -0.23344358091E+01 -0.12966377105E+02 -0.22481161770E+03  0.22519733563E+03  0.00000000000E+00 0.  1.
          1    1    3    3  501    0 -0.11696542418E+02 -0.34870116751E+02 -0.64071578645E+03  0.64177056115E+03  0.00000000000E+00 0.  1.
         -3    1    1    2    0  502  0.14030978227E+02  0.47836493856E+02 -0.12910720031E+03  0.13839749877E+03  0.00000000000E+00 0. -1.
<mgrwt>
<rscale>  1 0.30000000E+03</rscale>
<asrwt>0</asrwt>
<pdfrwt beam="1">  1       21 0.19510570E-01 0.30000000E+03</pdfrwt>
<pdfrwt beam="2">0</pdfrwt>
<totfact> 0.25152082E+03</totfact>
</mgrwt>
</event>
<event>
 6    1  0.1198667E-001  0.3000000E+03  0.7818608E-02  0.1093470E+00
         21   -1    0    0  501  502  0.00000000000E+00  0.00000000000E+00  0.43218399757E+01  0.43218399757E+01  0.00000000000E+00 0. -1.
         13   -1    0    0    0    0 -0.00000000000E+00 -0.00000000000E+00 -0.10000000000E+04  0.10000000000E+04  0.00000000000E+00 0.  1.
    9000005    2    1    2  501    0 -0.58733932423E+02  0.42454996188E-01 -0.72295601316E+03  0.72534684824E+03  0.36023153597E+01 0.  0.
         13    1    3    3    0    0 -0.74531264362E+01  0.96268064517E+00 -0.83801222356E+02  0.84137510755E+02  0.00000000000E+00 0.  1.
          3    1    3    3  501    0 -0.51280805987E+02 -0.92022564898E+00 -0.63915479080E+03  0.64120933749E+03  0.00000000000E+00 0.  1.
         -3    1    1    2    0  502  0.58733932423E+02 -0.42454996188E-01 -0.27272214687E+03  0.27897499173E+03  0.00000000000E+00 0. -1.
<mgrwt>
<rscale>  1 0.30000000E+03</rscale>
<asrwt>0</asrwt>
<pdfrwt beam="1">  1       21 0.15715815E-01 0.30000000E+03</pdfrwt>
<pdfrwt beam="2">0</pdfrwt>
<totfact> 0.37766575E+03</totfact>
</mgrwt>
</event>
<event>
 6    1  0.1198667E-001  0.3000000E+03  0.7818608E-02  0.1093470E+00
         21   -1    0    0  501  502  0.00000000000E+00  0.00000000000E+00  0.14437353421E+01  0.14437353421E+01  0.00000000000E+00 0. -1.
         13   -1    0    0    0    0 -0.00000000000E+00 -0.00000000000E+00 -0.10000000000E+04  0.10000000000E+04  0.00000000000E+00 0.  1.
    9000005    2    1    2  501    0 -0.13437144918E+02  0.35378331188E+02 -0.49721788105E+03  0.49867902093E+03  0.47918156078E+01 0.  0.
         13    1    3    3    0    0 -0.13774494458E+02  0.35106396360E+02 -0.49194750827E+03  0.49339086600E+03  0.00000000000E+00 0.  1.
          3    1    3    3  501    0  0.33734954050E+00  0.27193482745E+00 -0.52703727816E+01  0.52881549259E+01  0.00000000000E+00 0.  1.
         -1    1    1    2    0  502  0.13437144918E+02 -0.35378331188E+02 -0.50133838361E+03  0.50276471441E+03  0.00000000000E+00 0. -1.
<mgrwt>
<rscale>  1 0.30000000E+03</rscale>
<asrwt>0</asrwt>
<pdfrwt beam="1">  1       21 0.52499578E-02 0.30000000E+03</pdfrwt>
<pdfrwt beam="2">0</pdfrwt>
<totfact> 0.26503297E+04</totfact>
</mgrwt>
</event>
<event>
 6    1  0.1198667E-001  0.3000000E+03  0.7818608E-02  0.1093470E+00
         21   -1    0    0  501  502  0.00000000000E+00  0.00000000000E+00  0.35832458129E+01  0.35832458129E+01  0.00000000000E+00 0. -1.
         13   -1    0    0    0    0 -0.00000000000E+00 -0.00000000000E+00 -0.10000000000E+04  0.10000000000E+04  0.00000000000E+00 0.  1.
    9000005    2    1    2  501    0 -0.41701289625E+02  0.81453039056E+01 -0.85139242158E+03  0.85246276216E+03  0.42850681172E+01 0.  0.
         13    1    3    3    0    0 -0.33365019884E+01  0.18764044185E+01 -0.73334822458E+02  0.73434660236E+02  0.00000000000E+00 0.  1.
          3    1    3    3  501    0 -0.38364787637E+02  0.62688994871E+01 -0.77805759913E+03  0.77902810192E+03  0.00000000000E+00 0.  1.
         -1    1    1    2    0  502  0.41701289625E+02 -0.81453039056E+01 -0.14502433260E+03  0.15112048365E+03  0.00000000000E+00 0. -1.
<mgrwt>
<rscale>  1 0.30000000E+03</rscale>
<asrwt>0</asrwt>
<pdfrwt beam="1">  1       21 0.13030012E-01 0.30000000E+03</pdfrwt>
<pdfrwt beam="2">0</pdfrwt>
<totfact> 0.53340133E+03</totfact>
</mgrwt>
</event>
<event>
 6    1  0.1198667E-001  0.3000000E+03  0.7818608E-02  0.1093470E+00
         21   -1    0    0  501  502  0.00000000000E+00  0.00000000000E+00  0.11790201667E+02  0.11790201667E+02  0.00000000000E+00 0. -1.
         13   -1    0    0    0    0 -0.00000000000E+00 -0.00000000000E+00 -0.10000000000E+04  0.10000000000E+04  0.00000000000E+00 0.  1.
    9000005    2    1    2  501    0  0.86112813132E+02  0.36007899003E+02 -0.23596875798E+03  0.25378059211E+03  0.33688005059E+01 0.  0.
         13    1    3    3    0    0  0.64735356558E+02  0.28378199062E+02 -0.18074197574E+03  0.19407125075E+03  0.00000000000E+00 0.  1.
          3    1    3    3  501    0  0.21377456574E+02  0.76296999412E+01 -0.55226782232E+02  0.59709341367E+02  0.00000000000E+00 0.  1.
         -3    1    1    2    0  502 -0.86112813132E+02 -0.36007899003E+02 -0.75224104036E+03  0.75800960955E+03  0.00000000000E+00 0. -1.
<mgrwt>
<rscale>  1 0.30000000E+03</rscale>
<asrwt>0</asrwt>
<pdfrwt beam="1">  1       21 0.42873551E-01 0.30000000E+03</pdfrwt>
<pdfrwt beam="2">0</pdfrwt>
<totfact> 0.52204261E+02</totfact>
</mgrwt>
</event>
<event>
 6    1  0.1198667E-001  0.3000000E+03  0.7818608E-02  0.1093470E+00
         21   -1    0    0  501  502  0.00000000000E+00  0.00000000000E+00  0.36906651567E+01  0.36906651567E+01  0.00000000000E+00 0. -1.
         13   -1    0    0    0    0 -0.00000000000E+00 -0.00000000000E+00 -0.10000000000E+04  0.10000000000E+04  0.00000000000E+00 0.  1.
    9000005    2    1    2  501    0  0.10330999022E+02  0.57561463898E+02 -0.63340172368E+03  0.63610123943E+03  0.26441586222E+01 0.  0.
         13    1    3    3    0    0  0.92980538396E+00  0.25471510058E+01 -0.26236878236E+02  0.26376624042E+02  0.00000000000E+00 0.  1.
          3    1    3    3  501    0  0.94011936382E+01  0.55014312892E+02 -0.60716484544E+03  0.60972461539E+03  0.00000000000E+00 0.  1.
         -1    1    1    2    0  502 -0.10330999022E+02 -0.57561463898E+02 -0.36290761116E+03  0.36758942573E+03  0.00000000000E+00 0. -1.
<mgrwt>
<rscale>  1 0.30000000E+03</rscale>
<asrwt>0</asrwt>
<pdfrwt beam="1">  1       21 0.13420629E-01 0.30000000E+03</pdfrwt>
<pdfrwt beam="2">0</pdfrwt>
<totfact> 0.50535709E+03</totfact>
</mgrwt>
</event>
<event>
 6    1  0.1198667E-001  0.3000000E+03  0.7818608E-02  0.1093470E+00
         21   -1    0    0  501  502  0.00000000000E+00  0.00000000000E+00  0.22006862990E+01  0.22006862990E+01  0.00000000000E+00 0. -1.
         13   -1    0    0    0    0 -0.00000000000E+00 -0.00000000000E+00 -0.10000000000E+04  0.10000000000E+04  0.00000000000E+00 0.  1.
    9000005    2    1    2  501    0  0.25351101613E+02  0.25210539206E+02 -0.82242443104E+03  0.82321856678E+03  0.53492313125E+01 0.  0.
         13    1    3    3    0    0  0.26516819974E+01  0.28518750544E+01 -0.13498350000E+03  0.13503966040E+03  0.00000000000E+00 0.  1.
          1    1    3    3  501    0  0.22699419616E+02  0.22358664152E+02 -0.68744093105E+03  0.68817890638E+03  0.00000000000E+00 0.  1.
         -3    1    1    2    0  502 -0.25351101613E+02 -0.25210539206E+02 -0.17537488266E+03  0.17898211952E+03  0.00000000000E+00 0. -1.
<mgrwt>
<rscale>  1 0.30000000E+03</rscale>
<asrwt>0</asrwt>
<pdfrwt beam="1">  1       21 0.80025125E-02 0.30000000E+03</pdfrwt>
<pdfrwt beam="2">0</pdfrwt>
<totfact> 0.12766825E+04</totfact>
</mgrwt>
</event>
<event>
 6    1  0.1198667E-001  0.3000000E+03  0.7818608E-02  0.1093470E+00
         21   -1    0    0  501  502  0.00000000000E+00  0.00000000000E+00  0.14913680466E+01  0.14913680466E+01  0.00000000000E+00 0. -1.
         13   -1    0    0    0    0 -0.00000000000E+00 -0.00000000000E+00 -0.10000000000E+04  0.10000000000E+04  0.00000000000E+00 0.  1.
    9000005    2    1    2  501    0  0.37776064257E+02 -0.61534542082E+01 -0.55958784674E+03  0.56090499544E+03  0.33105388056E+01 0.  0.
         13    1    3    3    0    0  0.28074546179E+02 -0.32380748251E+01 -0.40263783484E+03  0.40362840747E+03  0.00000000000E+00 0.  1.
          3    1    3    3  501    0  0.97015180782E+01 -0.29153793831E+01 -0.15695001190E+03  0.15727658797E+03  0.00000000000E+00 0.  1.
         -1    1    1    2    0  502 -0.37776064257E+02  0.61534542082E+01 -0.43892078522E+03  0.44058637261E+03  0.00000000000E+00 0. -1.
<mgrwt>
<rscale>  1 0.30000000E+03</rscale>
<asrwt>0</asrwt>
<pdfrwt beam="1">  1       21 0.54231680E-02 0.30000000E+03</pdfrwt>
<pdfrwt beam="2">0</pdfrwt>
<totfact> 0.25071383E+04</totfact>
</mgrwt>
</event>
<event>
 6    1  0.1198667E-001  0.3000000E+03  0.7818608E-02  0.1093470E+00
         21   -1    0    0  501  502  0.00000000000E+00  0.00000000000E+00  0.38245857633E+01  0.38245857633E+01  0.00000000000E+00 0. -1.
         13   -1    0    0    0    0 -0.00000000000E+00 -0.00000000000E+00 -0.10000000000E+04  0.10000000000E+04  0.00000000000E+00 0.  1.
    9000005    2    1    2  501    0  0.52689302401E+02 -0.12562697048E+02 -0.73976746066E+03  0.74175775726E+03  0.38328395532E+01 0.  0.
         13    1    3    3    0    0  0.14529160620E+02 -0.50840882901E+01 -0.20027064361E+03  0.20086133315E+03  0.00000000000E+00 0.  1.
          1    1    3    3  501    0  0.38160141781E+02 -0.74786087582E+01 -0.53949681705E+03  0.54089642411E+03  0.00000000000E+00 0.  1.
         -3    1    1    2    0  502 -0.52689302401E+02  0.12562697048E+02 -0.25640795358E+03  0.26206682851E+03  0.00000000000E+00 0. -1.
<mgrwt>
<rscale>  1 0.30000000E+03</rscale>
<asrwt>0</asrwt>
<pdfrwt beam="1">  1       21 0.13907614E-01 0.30000000E+03</pdfrwt>
<pdfrwt beam="2">0</pdfrwt>
<totfact> 0.47338974E+03</totfact>
</mgrwt>
</event>
<event>
 6    1  0.1198667E-001  0.3000000E+03  0.7818608E-02  0.1093470E+00
         21   -1    0    0  501  502  0.00000000000E+00  0.00000000000E+00  0.13899195516E+01  0.13899195516E+01  0.00000000000E+00 0. -1.
         13   -1    0    0    0    0 -0.00000000000E+00 -0.00000000000E+00 -0.10000000000E+04  0.10000000000E+04  0.00000000000E+00 0.  1.
    9000005    2    1    2  501    0 -0.27097093677E+02 -0.23882821679E+02 -0.59433772716E+03  0.59550720584E+03  0.93196901130E+01 0.  0.
         13    1    3    3    0    0 -0.68565556473E+01 -0.40312056604E+01 -0.81740090835E+02  0.82126155542E+02  0.00000000000E+00 0.  1.
          3    1    3    3  501    0 -0.20240538030E+02 -0.19851616019E+02 -0.51259763633E+03  0.51338105030E+03  0.00000000000E+00 0.  1.
         -3    1    1    2    0  502  0.27097093677E+02  0.23882821679E+02 -0.40427235329E+03  0.40588271371E+03  0.00000000000E+00 0. -1.
<mgrwt>
<rscale>  1 0.30000000E+03</rscale>
<asrwt>0</asrwt>
<pdfrwt beam="1">  1       21 0.50542636E-02 0.30000000E+03</pdfrwt>
<pdfrwt beam="2">0</pdfrwt>
<totfact> 0.28279321E+04</totfact>
</mgrwt>
</event>
<event>
 6    1  0.1198667E-001  0.3000000E+03  0.7818608E-02  0.1093470E+00
         21   -1    0    0  501  502  0.00000000000E+00  0.00000000000E+00  0.19612235567E+01  0.19612235567E+01  0.00000000000E+00 0. -1.
         13   -1    0    0    0    0 -0.00000000000E+00 -0.00000000000E+00 -0.10000000000E+04  0.10000000000E+04  0.00000000000E+00 0.  1.
    9000005    2    1    2  501    0  0.25207659086E+02  0.18486126728E+02 -0.85099845662E+03  0.85163484992E+03  0.10314139096E+02 0.  0.
         13    1    3    3    0    0  0.24414011203E+02  0.18652468341E+02 -0.84689047706E+03  0.84744760231E+03  0.00000000000E+00 0.  1.
          3    1    3    3  501    0  0.79364788278E+00 -0.16634161379E+00 -0.41079795608E+01  0.41872476123E+01  0.00000000000E+00 0.  1.
         -1    1    1    2    0  502 -0.25207659086E+02 -0.18486126728E+02 -0.14704031982E+03  0.15032637364E+03  0.00000000000E+00 0. -1.
<mgrwt>
<rscale>  1 0.30000000E+03</rscale>
<asrwt>0</asrwt>
<pdfrwt beam="1">  1       21 0.71317371E-02 0.30000000E+03</pdfrwt>
<pdfrwt beam="2">0</pdfrwt>
<totfact> 0.15619741E+04</totfact>
</mgrwt>
</event>
<event>
 6    1  0.1198667E-001  0.3000000E+03  0.7818608E-02  0.1093470E+00
         21   -1    0    0  501  502  0.00000000000E+00  0.00000000000E+00  0.24333849136E+01  0.24333849136E+01  0.00000000000E+00 0. -1.
         13   -1    0    0    0    0 -0.00000000000E+00 -0.00000000000E+00 -0.10000000000E+04  0.10000000000E+04  0.00000000000E+00 0.  1.
    9000005    2    1    2  501    0 -0.45215769445E+02 -0.60215301738E+01 -0.67978672745E+03  0.68139634403E+03  0.10500390957E+02 0.  0.
         13    1    3    3    0    0 -0.20473264367E+02  0.15563080436E+01 -0.34549640443E+03  0.34610596949E+03  0.00000000000E+00 0.  1.
          3    1    3    3  501    0 -0.24742505078E+02 -0.75778382174E+01 -0.33429032303E+03  0.33529037454E+03  0.00000000000E+00 0.  1.
         -1    1    1    2    0  502  0.45215769445E+02  0.60215301738E+01 -0.31777988763E+03  0.32103704088E+03  0.00000000000E+00 0. -1.
<mgrwt>
<rscale>  1 0.30000000E+03</rscale>
<asrwt>0</asrwt>
<pdfrwt beam="1">  1       21 0.88486911E-02 0.30000000E+03</pdfrwt>
<pdfrwt beam="2">0</pdfrwt>
<totfact> 0.10694318E+04</totfact>
</mgrwt>
</event>
<event>
 6    1  0.1198667E-001  0.3000000E+03  0.7818608E-02  0.1093470E+00
         21   -1    0    0  501  502  0.00000000000E+00  0.00000000000E+00  0.19961197226E+01  0.19961197226E+01  0.00000000000E+00 0. -1.
         13   -1    0    0    0    0 -0.00000000000E+00 -0.00000000000E+00 -0.10000000000E+04  0.10000000000E+04  0.00000000000E+00 0.  1.
    9000005    2    1    2  501    0  0.23925077859E+02  0.35156238655E+02 -0.65232992768E+03  0.65371627252E+03  0.15033084789E+01 0.  0.
         13    1    3    3    0    0  0.14650623152E+02  0.22795470815E+02 -0.41358917555E+03  0.41447591050E+03  0.00000000000E+00 0.  1.
          3    1    3    3  501    0  0.92744547069E+01  0.12360767840E+02 -0.23874075213E+03  0.23924036202E+03  0.00000000000E+00 0.  1.
         -1    1    1    2    0  502 -0.23925077859E+02 -0.35156238655E+02 -0.34567395259E+03  0.34827984720E+03  0.00000000000E+00 0. -1.
<mgrwt>
<rscale>  1 0.30000000E+03</rscale>
<asrwt>0</asrwt>
<pdfrwt beam="1">  1       21 0.72586325E-02 0.30000000E+03</pdfrwt>
<pdfrwt beam="2">0</pdfrwt>
<totfact> 0.15146503E+04</totfact>
</mgrwt>
</event>
<event>
 6    1  0.1198667E-001  0.3000000E+03  0.7818608E-02  0.1093470E+00
         21   -1    0    0  501  502  0.00000000000E+00  0.00000000000E+00  0.34650913934E+02  0.34650913934E+02  0.00000000000E+00 0. -1.
         13   -1    0    0    0    0 -0.00000000000E+00 -0.00000000000E+00 -0.10000000000E+04  0.10000000000E+04  0.00000000000E+00 0.  1.
    9000005    2    1    2  501    0 -0.99830660773E+02 -0.64464976239E+02 -0.84527785744E+02  0.14584944167E+03  0.22845309140E+01 0.  0.
         13    1    3    3    0    0 -0.59744705699E+02 -0.37250375959E+02 -0.50211000067E+02  0.86476383458E+02  0.00000000000E+00 0.  1.
          1    1    3    3  501    0 -0.40085955074E+02 -0.27214600281E+02 -0.34316785677E+02  0.59373058215E+02  0.00000000000E+00 0.  1.
         -1    1    1    2    0  502  0.99830660773E+02  0.64464976239E+02 -0.88082130032E+03  0.88880147226E+03  0.00000000000E+00 0. -1.
<mgrwt>
<rscale>  1 0.30000000E+03</rscale>
<asrwt>0</asrwt>
<pdfrwt beam="1">  1       21 0.12600359E+00 0.30000000E+03</pdfrwt>
<pdfrwt beam="2">0</pdfrwt>
<totfact> 0.39653659E+01</totfact>
</mgrwt>
</event>
<event>
 6    1  0.1198667E-001  0.3000000E+03  0.7818608E-02  0.1093470E+00
         21   -1    0    0  501  502  0.00000000000E+00  0.00000000000E+00  0.24550930371E+01  0.24550930371E+01  0.00000000000E+00 0. -1.
         13   -1    0    0    0    0 -0.00000000000E+00 -0.00000000000E+00 -0.10000000000E+04  0.10000000000E+04  0.00000000000E+00 0.  1.
    9000005    2    1    2  501    0  0.41729257373E+02 -0.11489112276E+01 -0.76787003875E+03  0.76901731544E+03  0.45369734946E+01 0.  0.
         13    1    3    3    0    0  0.54383719013E+01 -0.13826434212E+01 -0.12097869166E+03  0.12110875868E+03  0.00000000000E+00 0.  1.
          1    1    3    3  501    0  0.36290885471E+02  0.23373219369E+00 -0.64689134708E+03  0.64790855677E+03  0.00000000000E+00 0.  1.
         -1    1    1    2    0  502 -0.41729257373E+02  0.11489112276E+01 -0.22967486822E+03  0.23343777759E+03  0.00000000000E+00 0. -1.
<mgrwt>
<rscale>  1 0.30000000E+03</rscale>
<asrwt>0</asrwt>
<pdfrwt beam="1">  1       21 0.89276299E-02 0.30000000E+03</pdfrwt>
<pdfrwt beam="2">0</pdfrwt>
<totfact> 0.10527547E+04</totfact>
</mgrwt>
</event>
<event>
 6    1  0.1198667E-001  0.3000000E+03  0.7818608E-02  0.1093470E+00
         21   -1    0    0  501  502  0.00000000000E+00  0.00000000000E+00  0.33898471555E+01  0.33898471555E+01  0.00000000000E+00 0. -1.
         13   -1    0    0    0    0 -0.00000000000E+00 -0.00000000000E+00 -0.10000000000E+04  0.10000000000E+04  0.00000000000E+00 0.  1.
    9000005    2    1    2  501    0 -0.50222925140E+02  0.63841684825E+01 -0.74559407068E+03  0.74731920588E+03  0.35181573130E+01 0.  0.
         13    1    3    3    0    0 -0.35741317977E+01  0.30110559851E+00 -0.41126658895E+02  0.41282770674E+02  0.00000000000E+00 0.  1.
          3    1    3    3  501    0 -0.46648793342E+02  0.60830628840E+01 -0.70446741179E+03  0.70603643521E+03  0.00000000000E+00 0.  1.
         -3    1    1    2    0  502  0.50222925140E+02 -0.63841684825E+01 -0.25101608216E+03  0.25607064127E+03  0.00000000000E+00 0. -1.
<mgrwt>
<rscale>  1 0.30000000E+03</rscale>
<asrwt>0</asrwt>
<pdfrwt beam="1">  1       21 0.12326743E-01 0.30000000E+03</pdfrwt>
<pdfrwt beam="2">0</pdfrwt>
<totfact> 0.59017756E+03</totfact>
</mgrwt>
</event>
<event>
 6    1  0.1198667E-001  0.3000000E+03  0.7818608E-02  0.1093470E+00
         21   -1    0    0  501  502  0.00000000000E+00  0.00000000000E+00  0.15615693195E+01  0.15615693195E+01  0.00000000000E+00 0. -1.
         13   -1    0    0    0    0 -0.00000000000E+00 -0.00000000000E+00 -0.10000000000E+04  0.10000000000E+04  0.00000000000E+00 0.  1.
    9000005    2    1    2  501    0  0.29512980018E+02  0.57575197794E+01 -0.82156979643E+03  0.82215510677E+03  0.76107920220E+01 0.  0.
         13    1    3    3    0    0  0.53567496465E+01  0.94780300641E+00 -0.85193431559E+02  0.85366936679E+02  0.00000000000E+00 0.  1.
          3    1    3    3  501    0  0.24156230372E+02  0.48097167730E+01 -0.73637636487E+03  0.73678817009E+03  0.00000000000E+00 0.  1.
         -1    1    1    2    0  502 -0.29512980018E+02 -0.57575197794E+01 -0.17686863425E+03  0.17940646255E+03  0.00000000000E+00 0. -1.
<mgrwt>
<rscale>  1 0.30000000E+03</rscale>
<asrwt>0</asrwt>
<pdfrwt beam="1">  1       21 0.56784459E-02 0.30000000E+03</pdfrwt>
<pdfrwt beam="2">0</pdfrwt>
<totfact> 0.23168681E+04</totfact>
</mgrwt>
</event>
<event>
 6    1  0.1198667E-001  0.3000000E+03  0.7818608E-02  0.1093470E+00
         21   -1    0    0  501  502  0.00000000000E+00  0.00000000000E+00  0.36251725688E+01  0.36251725688E+01  0.00000000000E+00 0. -1.
         13   -1    0    0    0    0 -0.00000000000E+00 -0.00000000000E+00 -0.10000000000E+04  0.10000000000E+04  0.00000000000E+00 0.  1.
    9000005    2    1    2  501    0  0.39155036341E+02 -0.15177441924E+02 -0.85765220041E+03  0.85868574086E+03  0.32300290056E+01 0.  0.
         13    1    3    3    0    0  0.36300107391E+02 -0.13126959592E+02 -0.78369094013E+03  0.78464100359E+03  0.00000000000E+00 0.  1.
          1    1    3    3  501    0  0.28549289494E+01 -0.20504823323E+01 -0.73961260270E+02  0.74044737273E+02  0.00000000000E+00 0.  1.
         -3    1    1    2    0  502 -0.39155036341E+02  0.15177441924E+02 -0.13872262703E+03  0.14493943171E+03  0.00000000000E+00 0. -1.
<mgrwt>
<rscale>  1 0.30000000E+03</rscale>
<asrwt>0</asrwt>
<pdfrwt beam="1">  1       21 0.13182474E-01 0.30000000E+03</pdfrwt>
<pdfrwt beam="2">0</pdfrwt>
<totfact> 0.52218308E+03</totfact>
</mgrwt>
</event>
<event>
 6    1  0.1198667E-001  0.3000000E+03  0.7818608E-02  0.1093470E+00
         21   -1    0    0  501  502  0.00000000000E+00  0.00000000000E+00  0.71095743093E+01  0.71095743093E+01  0.00000000000E+00 0. -1.
         13   -1    0    0    0    0 -0.00000000000E+00 -0.00000000000E+00 -0.10000000000E+04  0.10000000000E+04  0.00000000000E+00 0.  1.
    9000005    2    1    2  501    0  0.26149021627E+02 -0.44646588491E+02 -0.89399901341E+03  0.89550043212E+03  0.31142840125E+01 0.  0.
         13    1    3    3    0    0  0.11991465439E+01 -0.26902281620E+01 -0.63195675571E+02  0.63264276578E+02  0.00000000000E+00 0.  1.
          1    1    3    3  501    0  0.24949875084E+02 -0.41956360329E+02 -0.83080333784E+03  0.83223615555E+03  0.00000000000E+00 0.  1.
         -3    1    1    2    0  502 -0.26149021627E+02  0.44646588491E+02 -0.98891412283E+02  0.11160914218E+03  0.00000000000E+00 0. -1.
<mgrwt>
<rscale>  1 0.30000000E+03</rscale>
<asrwt>0</asrwt>
<pdfrwt beam="1">  1       21 0.25853052E-01 0.30000000E+03</pdfrwt>
<pdfrwt beam="2">0</pdfrwt>
<totfact> 0.14602096E+03</totfact>
</mgrwt>
</event>
<event>
 6    1  0.1198667E-001  0.3000000E+03  0.7818608E-02  0.1093470E+00
         21   -1    0    0  501  502  0.00000000000E+00  0.00000000000E+00  0.21320532019E+01  0.21320532019E+01  0.00000000000E+00 0. -1.
         13   -1    0    0    0    0 -0.00000000000E+00 -0.00000000000E+00 -0.10000000000E+04  0.10000000000E+04  0.00000000000E+00 0.  1.
    9000005    2    1    2  501    0  0.11036909759E+02 -0.29814904438E+02 -0.86200542251E+03  0.86259937814E+03  0.36873878474E+01 0.  0.
         13    1    3    3    0    0  0.60284617192E+01 -0.15593123713E+02 -0.50214429760E+03  0.50242251489E+03  0.00000000000E+00 0.  1.
          1    1    3    3  501    0  0.50084480403E+01 -0.14221780725E+02 -0.35986112491E+03  0.36017686325E+03  0.00000000000E+00 0.  1.
         -3    1    1    2    0  502 -0.11036909759E+02  0.29814904438E+02 -0.13586252429E+03  0.13953267506E+03  0.00000000000E+00 0. -1.
<mgrwt>
<rscale>  1 0.30000000E+03</rscale>
<asrwt>0</asrwt>
<pdfrwt beam="1">  1       21 0.77529371E-02 0.30000000E+03</pdfrwt>
<pdfrwt beam="2">0</pdfrwt>
<totfact> 0.13496824E+04</totfact>
</mgrwt>
</event>
<event>
 6    1  0.1198667E-001  0.3000000E+03  0.7818608E-02  0.1093470E+00
         21   -1    0    0  501  502  0.00000000000E+00  0.00000000000E+00  0.55962844966E+01  0.55962844966E+01  0.00000000000E+00 0. -1.
         13   -1    0    0    0    0 -0.00000000000E+00 -0.00000000000E+00 -0.10000000000E+04  0.10000000000E+04  0.00000000000E+00 0.  1.
    9000005    2    1    2  501    0  0.53356251455E+02  0.37037837400E+02 -0.74539208813E+03  0.74825316425E+03  0.73987703189E+01 0.  0.
         13    1    3    3    0    0  0.31024998051E+02  0.25116230332E+02 -0.43190317185E+03  0.43374384766E+03  0.00000000000E+00 0.  1.
          3    1    3    3  501    0  0.22331253404E+02  0.11921607068E+02 -0.31348891627E+03  0.31450931659E+03  0.00000000000E+00 0.  1.
         -1    1    1    2    0  502 -0.53356251455E+02 -0.37037837400E+02 -0.24901162738E+03  0.25734312025E+03  0.00000000000E+00 0. -1.
<mgrwt>
<rscale>  1 0.30000000E+03</rscale>
<asrwt>0</asrwt>
<pdfrwt beam="1">  1       21 0.20350168E-01 0.30000000E+03</pdfrwt>
<pdfrwt beam="2">0</pdfrwt>
<totfact> 0.23209649E+03</totfact>
</mgrwt>
</event>
<event>
 6    1  0.1198667E-001  0.3000000E+03  0.7818608E-02  0.1093470E+00
         21   -1    0    0  501  502  0.00000000000E+00  0.00000000000E+00  0.14503475882E+01  0.14503475882E+01  0.00000000000E+00 0. -1.
         13   -1    0    0    0    0 -0.00000000000E+00 -0.00000000000E+00 -0.10000000000E+04  0.10000000000E+04  0.00000000000E+00 0.  1.
    9000005    2    1    2  501    0  0.27173326398E+02 -0.25346675378E+02 -0.60512820145E+03  0.60627787676E+03  0.34467438825E+01 0.  0.
         13    1    3    3    0    0  0.54381957115E+01 -0.59233923642E+01 -0.11127244973E+03  0.11156262196E+03  0.00000000000E+00 0.  1.
          3    1    3    3  501    0  0.21735130686E+02 -0.19423283013E+02 -0.49385575172E+03  0.49471525480E+03  0.00000000000E+00 0.  1.
         -1    1    1    2    0  502 -0.27173326398E+02  0.25346675378E+02 -0.39342145097E+03  0.39517247083E+03  0.00000000000E+00 0. -1.
<mgrwt>
<rscale>  1 0.30000000E+03</rscale>
<asrwt>0</asrwt>
<pdfrwt beam="1">  1       21 0.52740024E-02 0.30000000E+03</pdfrwt>
<pdfrwt beam="2">0</pdfrwt>
<totfact> 0.26297065E+04</totfact>
</mgrwt>
</event>
<event>
 6    1  0.1198667E-001  0.3000000E+03  0.7818608E-02  0.1093470E+00
         21   -1    0    0  501  502  0.00000000000E+00  0.00000000000E+00  0.17909059811E+01  0.17909059811E+01  0.00000000000E+00 0. -1.
         13   -1    0    0    0    0 -0.00000000000E+00 -0.00000000000E+00 -0.10000000000E+04  0.10000000000E+04  0.00000000000E+00 0.  1.
    9000005    2    1    2  501    0 -0.24028662841E+02  0.26250513760E+02 -0.76994869915E+03  0.77077299764E+03  0.18837332462E+01 0.  0.
         13    1    3    3    0    0 -0.21753752090E+02  0.24221952212E+02 -0.69419250264E+03  0.69495550895E+03  0.00000000000E+00 0.  1.
          3    1    3    3  501    0 -0.22749107515E+01  0.20285615476E+01 -0.75756196510E+02  0.75817488685E+02  0.00000000000E+00 0.  1.
         -1    1    1    2    0  502  0.24028662841E+02 -0.26250513760E+02 -0.22826039487E+03  0.23101790834E+03  0.00000000000E+00 0. -1.
<mgrwt>
<rscale>  1 0.30000000E+03</rscale>
<asrwt>0</asrwt>
<pdfrwt beam="1">  1       21 0.65123991E-02 0.30000000E+03</pdfrwt>
<pdfrwt beam="2">0</pdfrwt>
<totfact> 0.18289594E+04</totfact>
</mgrwt>
</event>
<event>
 6    1  0.1198667E-001  0.3000000E+03  0.7818608E-02  0.1093470E+00
         21   -1    0    0  501  502  0.00000000000E+00  0.00000000000E+00  0.10124492047E+02  0.10124492047E+02  0.00000000000E+00 0. -1.
         13   -1    0    0    0    0 -0.00000000000E+00 -0.00000000000E+00 -0.10000000000E+04  0.10000000000E+04  0.00000000000E+00 0.  1.
    9000005    2    1    2  501    0  0.26015383404E+01 -0.30242219021E+02 -0.97639239494E+03  0.97691072759E+03  0.95446828435E+01 0.  0.
         13    1    3    3    0    0  0.11922584187E+01 -0.22752593887E+02 -0.58388859035E+03  0.58433294273E+03  0.00000000000E+00 0.  1.
          3    1    3    3  501    0  0.14092799218E+01 -0.74896251341E+01 -0.39250380458E+03  0.39257778486E+03  0.00000000000E+00 0.  1.
         -3    1    1    2    0  502 -0.26015383404E+01  0.30242219021E+02 -0.13483113018E+02  0.33213764461E+02  0.00000000000E+00 0. -1.
<mgrwt>
<rscale>  1 0.30000000E+03</rscale>
<asrwt>0</asrwt>
<pdfrwt beam="1">  1       21 0.36816412E-01 0.30000000E+03</pdfrwt>
<pdfrwt beam="2">0</pdfrwt>
<totfact> 0.71731352E+02</totfact>
</mgrwt>
</event>
<event>
 6    1  0.1198667E-001  0.3000000E+03  0.7818608E-02  0.1093470E+00
         21   -1    0    0  501  502  0.00000000000E+00  0.00000000000E+00  0.10114524360E+01  0.10114524360E+01  0.00000000000E+00 0. -1.
         13   -1    0    0    0    0 -0.00000000000E+00 -0.00000000000E+00 -0.10000000000E+04  0.10000000000E+04  0.00000000000E+00 0.  1.
    9000005    2    1    2  501    0 -0.25256886195E+02 -0.16427156838E+02 -0.35987812437E+03  0.36119124737E+03  0.62522788517E+01 0.  0.
         13    1    3    3    0    0 -0.19117939793E+02 -0.91095777481E+01 -0.25656286736E+03  0.25743539955E+03  0.00000000000E+00 0.  1.
          1    1    3    3  501    0 -0.61389464016E+01 -0.73175790902E+01 -0.10331525701E+03  0.10375584782E+03  0.00000000000E+00 0.  1.
         -1    1    1    2    0  502  0.25256886195E+02  0.16427156838E+02 -0.63911042319E+03  0.63982020507E+03  0.00000000000E+00 0. -1.
<mgrwt>
<rscale>  1 0.30000000E+03</rscale>
<asrwt>0</asrwt>
<pdfrwt beam="1">  1       21 0.36780166E-02 0.30000000E+03</pdfrwt>
<pdfrwt beam="2">0</pdfrwt>
<totfact> 0.48417256E+04</totfact>
</mgrwt>
</event>
<event>
 6    1  0.1198667E-001  0.3000000E+03  0.7818608E-02  0.1093470E+00
         21   -1    0    0  501  502  0.00000000000E+00  0.00000000000E+00  0.56029571558E+01  0.56029571558E+01  0.00000000000E+00 0. -1.
         13   -1    0    0    0    0 -0.00000000000E+00 -0.00000000000E+00 -0.10000000000E+04  0.10000000000E+04  0.00000000000E+00 0.  1.
    9000005    2    1    2  501    0 -0.58346861345E+02  0.60665194610E+01 -0.80936527585E+03  0.81149496225E+03  0.32810254520E+01 0.  0.
         13    1    3    3    0    0 -0.27936424737E+02  0.16723733369E+01 -0.40084784548E+03  0.40182363779E+03  0.00000000000E+00 0.  1.
          3    1    3    3  501    0 -0.30410436608E+02  0.43941461241E+01 -0.40851743037E+03  0.40967132446E+03  0.00000000000E+00 0.  1.
         -1    1    1    2    0  502  0.58346861345E+02 -0.60665194610E+01 -0.18503176700E+03  0.19410799490E+03  0.00000000000E+00 0. -1.
<mgrwt>
<rscale>  1 0.30000000E+03</rscale>
<asrwt>0</asrwt>
<pdfrwt beam="1">  1       21 0.20374433E-01 0.30000000E+03</pdfrwt>
<pdfrwt beam="2">0</pdfrwt>
<totfact> 0.23156829E+03</totfact>
</mgrwt>
</event>
<event>
 6    1  0.1198667E-001  0.3000000E+03  0.7818608E-02  0.1093470E+00
         21   -1    0    0  501  502  0.00000000000E+00  0.00000000000E+00  0.18577483550E+01  0.18577483550E+01  0.00000000000E+00 0. -1.
         13   -1    0    0    0    0 -0.00000000000E+00 -0.00000000000E+00 -0.10000000000E+04  0.10000000000E+04  0.00000000000E+00 0.  1.
    9000005    2    1    2  501    0  0.79103214629E+01  0.30824818328E+02 -0.83337341018E+03  0.83404382244E+03  0.10252529357E+02 0.  0.
         13    1    3    3    0    0  0.67588660731E+01  0.22613648370E+02 -0.70995104481E+03  0.71034325885E+03  0.00000000000E+00 0.  1.
          3    1    3    3  501    0  0.11514553898E+01  0.82111699582E+01 -0.12342236536E+03  0.12370056359E+03  0.00000000000E+00 0.  1.
         -3    1    1    2    0  502 -0.79103214629E+01 -0.30824818328E+02 -0.16476884147E+03  0.16781392591E+03  0.00000000000E+00 0. -1.
<mgrwt>
<rscale>  1 0.30000000E+03</rscale>
<asrwt>0</asrwt>
<pdfrwt beam="1">  1       21 0.67554628E-02 0.30000000E+03</pdfrwt>
<pdfrwt beam="2">0</pdfrwt>
<totfact> 0.17163890E+04</totfact>
</mgrwt>
</event>
<event>
 6    1  0.1198667E-001  0.3000000E+03  0.7818608E-02  0.1093470E+00
         21   -1    0    0  501  502  0.00000000000E+00  0.00000000000E+00  0.19283760011E+01  0.19283760011E+01  0.00000000000E+00 0. -1.
         13   -1    0    0    0    0 -0.00000000000E+00 -0.00000000000E+00 -0.10000000000E+04  0.10000000000E+04  0.00000000000E+00 0.  1.
    9000005    2    1    2  501    0 -0.22439195441E+02 -0.31584561286E+02 -0.73386709647E+03  0.73489816354E+03  0.36460224877E+01 0.  0.
         13    1    3    3    0    0 -0.17043834247E+02 -0.24731683042E+02 -0.59472392412E+03  0.59548190094E+03  0.00000000000E+00 0.  1.
          1    1    3    3  501    0 -0.53953611940E+01 -0.68528782433E+01 -0.13914317236E+03  0.13941626260E+03  0.00000000000E+00 0.  1.
         -3    1    1    2    0  502  0.22439195441E+02  0.31584561286E+02 -0.26420452753E+03  0.26703021246E+03  0.00000000000E+00 0. -1.
<mgrwt>
<rscale>  1 0.30000000E+03</rscale>
<asrwt>0</asrwt>
<pdfrwt beam="1">  1       21 0.70122912E-02 0.30000000E+03</pdfrwt>
<pdfrwt beam="2">0</pdfrwt>
<totfact> 0.16086095E+04</totfact>
</mgrwt>
</event>
<event>
 6    1  0.1198667E-001  0.3000000E+03  0.7818608E-02  0.1093470E+00
         21   -1    0    0  501  502  0.00000000000E+00  0.00000000000E+00  0.12645413937E+01  0.12645413937E+01  0.00000000000E+00 0. -1.
         13   -1    0    0    0    0 -0.00000000000E+00 -0.00000000000E+00 -0.10000000000E+04  0.10000000000E+04  0.00000000000E+00 0.  1.
    9000005    2    1    2  501    0  0.21332749750E+02  0.26769080947E+02 -0.63221013120E+03  0.63314433612E+03  0.32296209620E+01 0.  0.
         13    1    3    3    0    0  0.12250138098E+02  0.14005817659E+02 -0.31792965877E+03  0.31847369866E+03  0.00000000000E+00 0.  1.
          1    1    3    3  501    0  0.90826116520E+01  0.12763263288E+02 -0.31428047243E+03  0.31467063745E+03  0.00000000000E+00 0.  1.
         -1    1    1    2    0  502 -0.21332749750E+02 -0.26769080947E+02 -0.36652532740E+03  0.36812020528E+03  0.00000000000E+00 0. -1.
<mgrwt>
<rscale>  1 0.30000000E+03</rscale>
<asrwt>0</asrwt>
<pdfrwt beam="1">  1       21 0.45983420E-02 0.30000000E+03</pdfrwt>
<pdfrwt beam="2">0</pdfrwt>
<totfact> 0.33216121E+04</totfact>
</mgrwt>
</event>
<event>
 6    1  0.1198667E-001  0.3000000E+03  0.7818608E-02  0.1093470E+00
         21   -1    0    0  501  502  0.00000000000E+00  0.00000000000E+00  0.12883354921E+01  0.12883354921E+01  0.00000000000E+00 0. -1.
         13   -1    0    0    0    0 -0.00000000000E+00 -0.00000000000E+00 -0.10000000000E+04  0.10000000000E+04  0.00000000000E+00 0.  1.
    9000005    2    1    2  501    0 -0.34349787542E+02  0.67784619045E+00 -0.37717973963E+03  0.37880757192E+03  0.70889473201E+01 0.  0.
         13    1    3    3    0    0 -0.32715075236E+02  0.22741827073E+01 -0.35178905410E+03  0.35331428876E+03  0.00000000000E+00 0.  1.
          1    1    3    3  501    0 -0.16347123054E+01 -0.15963365169E+01 -0.25390685532E+02  0.25493283162E+02  0.00000000000E+00 0.  1.
         -3    1    1    2    0  502  0.34349787542E+02 -0.67784619045E+00 -0.62153192487E+03  0.62248076357E+03  0.00000000000E+00 0. -1.
<mgrwt>
<rscale>  1 0.30000000E+03</rscale>
<asrwt>0</asrwt>
<pdfrwt beam="1">  1       21 0.46848662E-02 0.30000000E+03</pdfrwt>
<pdfrwt beam="2">0</pdfrwt>
<totfact> 0.32180300E+04</totfact>
</mgrwt>
</event>
<event>
 6    1  0.1198667E-001  0.3000000E+03  0.7818608E-02  0.1093470E+00
         21   -1    0    0  501  502  0.00000000000E+00  0.00000000000E+00  0.22934990142E+01  0.22934990142E+01  0.00000000000E+00 0. -1.
         13   -1    0    0    0    0 -0.00000000000E+00 -0.00000000000E+00 -0.10000000000E+04  0.10000000000E+04  0.00000000000E+00 0.  1.
    9000005    2    1    2  501    0 -0.40834728355E+02 -0.71114756386E+01 -0.74283840740E+03  0.74407693632E+03  0.11114833222E+02 0.  0.
         13    1    3    3    0    0 -0.40101683368E+02 -0.52125798505E+01 -0.67670824581E+03  0.67791545634E+03  0.00000000000E+00 0.  1.
          3    1    3    3  501    0 -0.73304498714E+00 -0.18988957881E+01 -0.66130161597E+02  0.66161479979E+02  0.00000000000E+00 0.  1.
         -1    1    1    2    0  502  0.40834728355E+02  0.71114756386E+01 -0.25486809358E+03  0.25821656270E+03  0.00000000000E+00 0. -1.
<mgrwt>
<rscale>  1 0.30000000E+03</rscale>
<asrwt>0</asrwt>
<pdfrwt beam="1">  1       21 0.83400140E-02 0.30000000E+03</pdfrwt>
<pdfrwt beam="2">0</pdfrwt>
<totfact> 0.11872204E+04</totfact>
</mgrwt>
</event>
<event>
 6    1  0.1198667E-001  0.3000000E+03  0.7818608E-02  0.1093470E+00
         21   -1    0    0  501  502  0.00000000000E+00  0.00000000000E+00  0.13907176628E+01  0.13907176628E+01  0.00000000000E+00 0. -1.
         13   -1    0    0    0    0 -0.00000000000E+00 -0.00000000000E+00 -0.10000000000E+04  0.10000000000E+04  0.00000000000E+00 0.  1.
    9000005    2    1    2  501    0 -0.14744533791E+02  0.33459417297E+02 -0.59348711829E+03  0.59462186231E+03  0.33564383741E+01 0.  0.
         13    1    3    3    0    0 -0.61487937785E+01  0.16288217104E+02 -0.30475771339E+03  0.30525461103E+03  0.00000000000E+00 0.  1.
          1    1    3    3  501    0 -0.85957400125E+01  0.17171200193E+02 -0.28872940490E+03  0.28936725128E+03  0.00000000000E+00 0.  1.
         -1    1    1    2    0  502  0.14744533791E+02 -0.33459417297E+02 -0.40512216405E+03  0.40676885535E+03  0.00000000000E+00 0. -1.
<mgrwt>
<rscale>  1 0.30000000E+03</rscale>
<asrwt>0</asrwt>
<pdfrwt beam="1">  1       21 0.50571658E-02 0.30000000E+03</pdfrwt>
<pdfrwt beam="2">0</pdfrwt>
<totfact> 0.28251645E+04</totfact>
</mgrwt>
</event>
<event>
 6    1  0.1198667E-001  0.3000000E+03  0.7818608E-02  0.1093470E+00
         21   -1    0    0  501  502  0.00000000000E+00  0.00000000000E+00  0.46164495646E+01  0.46164495646E+01  0.00000000000E+00 0. -1.
         13   -1    0    0    0    0 -0.00000000000E+00 -0.00000000000E+00 -0.10000000000E+04  0.10000000000E+04  0.00000000000E+00 0.  1.
    9000005    2    1    2  501    0 -0.60986354801E+02  0.12715666213E+02 -0.29812087059E+03  0.30457625904E+03  0.31016854456E+01 0.  0.
         13    1    3    3    0    0 -0.86474967104E+01  0.99803124551E+00 -0.38181339070E+02  0.39161076580E+02  0.00000000000E+00 0.  1.
          1    1    3    3  501    0 -0.52338858090E+02  0.11717634968E+02 -0.25993953152E+03  0.26541518246E+03  0.00000000000E+00 0.  1.
         -3    1    1    2    0  502  0.60986354801E+02 -0.12715666213E+02 -0.69726267985E+03  0.70004019052E+03  0.00000000000E+00 0. -1.
<mgrwt>
<rscale>  1 0.30000000E+03</rscale>
<asrwt>0</asrwt>
<pdfrwt beam="1">  1       21 0.16787125E-01 0.30000000E+03</pdfrwt>
<pdfrwt beam="2">0</pdfrwt>
<totfact> 0.33393694E+03</totfact>
</mgrwt>
</event>
<event>
 6    1  0.1198667E-001  0.3000000E+03  0.7818608E-02  0.1093470E+00
         21   -1    0    0  501  502  0.00000000000E+00  0.00000000000E+00  0.26871792526E+01  0.26871792526E+01  0.00000000000E+00 0. -1.
         13   -1    0    0    0    0 -0.00000000000E+00 -0.00000000000E+00 -0.10000000000E+04  0.10000000000E+04  0.00000000000E+00 0.  1.
    9000005    2    1    2  501    0  0.37089286080E+02 -0.77895519587E+01 -0.84055985221E+03  0.84141788457E+03  0.26266077088E+01 0.  0.
         13    1    3    3    0    0  0.12886525133E+02 -0.15372515151E+01 -0.29825664904E+03  0.29853886576E+03  0.00000000000E+00 0.  1.
          1    1    3    3  501    0  0.24202760947E+02 -0.62523004436E+01 -0.54230320317E+03  0.54287901881E+03  0.00000000000E+00 0.  1.
         -3    1    1    2    0  502 -0.37089286080E+02  0.77895519587E+01 -0.15675296854E+03  0.16126929468E+03  0.00000000000E+00 0. -1.
<mgrwt>
<rscale>  1 0.30000000E+03</rscale>
<asrwt>0</asrwt>
<pdfrwt beam="1">  1       21 0.97715815E-02 0.30000000E+03</pdfrwt>
<pdfrwt beam="2">0</pdfrwt>
<totfact> 0.89655947E+03</totfact>
</mgrwt>
</event>
<event>
 6    1  0.1198667E-001  0.3000000E+03  0.7818608E-02  0.1093470E+00
         21   -1    0    0  501  502  0.00000000000E+00  0.00000000000E+00  0.13575409954E+01  0.13575409954E+01  0.00000000000E+00 0. -1.
         13   -1    0    0    0    0 -0.00000000000E+00 -0.00000000000E+00 -0.10000000000E+04  0.10000000000E+04  0.00000000000E+00 0.  1.
    9000005    2    1    2  501    0  0.14622988309E+02 -0.33729113515E+02 -0.49896285827E+03  0.50032741388E+03  0.34788306498E+01 0.  0.
         13    1    3    3    0    0  0.14353725156E+01 -0.14493399979E+01 -0.31282060592E+02  0.31348495906E+02  0.00000000000E+00 0.  1.
          1    1    3    3  501    0  0.13187615793E+02 -0.32279773517E+02 -0.46768079768E+03  0.46897891798E+03  0.00000000000E+00 0.  1.
         -3    1    1    2    0  502 -0.14622988309E+02  0.33729113515E+02 -0.49967960073E+03  0.50103012711E+03  0.00000000000E+00 0. -1.
<mgrwt>
<rscale>  1 0.30000000E+03</rscale>
<asrwt>0</asrwt>
<pdfrwt beam="1">  1       21 0.49365231E-02 0.30000000E+03</pdfrwt>
<pdfrwt beam="2">0</pdfrwt>
<totfact> 0.29438724E+04</totfact>
</mgrwt>
</event>
<event>
 6    1  0.1198667E-001  0.3000000E+03  0.7818608E-02  0.1093470E+00
         21   -1    0    0  501  502  0.00000000000E+00  0.00000000000E+00  0.33328052837E+01  0.33328052837E+01  0.00000000000E+00 0. -1.
         13   -1    0    0    0    0 -0.00000000000E+00 -0.00000000000E+00 -0.10000000000E+04  0.10000000000E+04  0.00000000000E+00 0.  1.
    9000005    2    1    2  501    0  0.12000653033E+02 -0.45263391955E+02 -0.79143791606E+03  0.79282901163E+03  0.33281197856E+01 0.  0.
         13    1    3    3    0    0  0.75252765543E+01 -0.27339593144E+02 -0.45171687041E+03  0.45260602531E+03  0.00000000000E+00 0.  1.
          1    1    3    3  501    0  0.44753764784E+01 -0.17923798811E+02 -0.33972104565E+03  0.34022298632E+03  0.00000000000E+00 0.  1.
         -3    1    1    2    0  502 -0.12000653033E+02  0.45263391955E+02 -0.20522927865E+03  0.21050379365E+03  0.00000000000E+00 0. -1.
<mgrwt>
<rscale>  1 0.30000000E+03</rscale>
<asrwt>0</asrwt>
<pdfrwt beam="1">  1       21 0.12119317E-01 0.30000000E+03</pdfrwt>
<pdfrwt beam="2">0</pdfrwt>
<totfact> 0.60867685E+03</totfact>
</mgrwt>
</event>
<event>
 6    1  0.1198667E-001  0.3000000E+03  0.7818608E-02  0.1093470E+00
         21   -1    0    0  501  502  0.00000000000E+00  0.00000000000E+00  0.69811151334E+01  0.69811151334E+01  0.00000000000E+00 0. -1.
         13   -1    0    0    0    0 -0.00000000000E+00 -0.00000000000E+00 -0.10000000000E+04  0.10000000000E+04  0.00000000000E+00 0.  1.
    9000005    2    1    2  501    0  0.80639210455E+01  0.31737288264E+02 -0.95969013609E+03  0.96025759018E+03  0.41472764926E+01 0.  0.
         13    1    3    3    0    0  0.42317032807E+01  0.12419222244E+02 -0.43556088191E+03  0.43575844942E+03  0.00000000000E+00 0.  1.
          3    1    3    3  501    0  0.38322177648E+01  0.19318066020E+02 -0.52412925418E+03  0.52449914076E+03  0.00000000000E+00 0.  1.
         -3    1    1    2    0  502 -0.80639210455E+01 -0.31737288264E+02 -0.33328748778E+02  0.46723524954E+02  0.00000000000E+00 0. -1.
<mgrwt>
<rscale>  1 0.30000000E+03</rscale>
<asrwt>0</asrwt>
<pdfrwt beam="1">  1       21 0.25385927E-01 0.30000000E+03</pdfrwt>
<pdfrwt beam="2">0</pdfrwt>
<totfact> 0.15134738E+03</totfact>
</mgrwt>
</event>
<event>
 6    1  0.1198667E-001  0.3000000E+03  0.7818608E-02  0.1093470E+00
         21   -1    0    0  501  502  0.00000000000E+00  0.00000000000E+00  0.16428774111E+01  0.16428774111E+01  0.00000000000E+00 0. -1.
         13   -1    0    0    0    0 -0.00000000000E+00 -0.00000000000E+00 -0.10000000000E+04  0.10000000000E+04  0.00000000000E+00 0.  1.
    9000005    2    1    2  501    0 -0.10695232376E+02 -0.38827630322E+02 -0.45195184451E+03  0.45375538824E+03  0.33925998317E+01 0.  0.
         13    1    3    3    0    0 -0.27884083203E-01  0.67991535689E-01 -0.14114993464E+01  0.14134110428E+01  0.00000000000E+00 0.  1.
          3    1    3    3  501    0 -0.10667348293E+02 -0.38895621857E+02 -0.45054034516E+03  0.45234197720E+03  0.00000000000E+00 0.  1.
         -1    1    1    2    0  502  0.10695232376E+02  0.38827630322E+02 -0.54640527808E+03  0.54788748917E+03  0.00000000000E+00 0. -1.
<mgrwt>
<rscale>  1 0.30000000E+03</rscale>
<asrwt>0</asrwt>
<pdfrwt beam="1">  1       21 0.59741123E-02 0.30000000E+03</pdfrwt>
<pdfrwt beam="2">0</pdfrwt>
<totfact> 0.21229376E+04</totfact>
</mgrwt>
</event>
<event>
 6    1  0.1198667E-001  0.3000000E+03  0.7818608E-02  0.1093470E+00
         21   -1    0    0  501  502  0.00000000000E+00  0.00000000000E+00  0.10995084039E+01  0.10995084039E+01  0.00000000000E+00 0. -1.
         13   -1    0    0    0    0 -0.00000000000E+00 -0.00000000000E+00 -0.10000000000E+04  0.10000000000E+04  0.00000000000E+00 0.  1.
    9000005    2    1    2  501    0  0.38050162550E+01 -0.32333113986E+02 -0.42716324239E+03  0.42843609021E+03  0.53980863188E+01 0.  0.
         13    1    3    3    0    0  0.41605806523E+01 -0.13292998739E+02 -0.18928494052E+03  0.18979674116E+03  0.00000000000E+00 0.  1.
          1    1    3    3  501    0 -0.35556439729E+00 -0.19040115247E+02 -0.23787830186E+03  0.23863934904E+03  0.00000000000E+00 0.  1.
         -3    1    1    2    0  502 -0.38050162550E+01  0.32333113986E+02 -0.57173724921E+03  0.57266341820E+03  0.00000000000E+00 0. -1.
<mgrwt>
<rscale>  1 0.30000000E+03</rscale>
<asrwt>0</asrwt>
<pdfrwt beam="1">  1       21 0.39982208E-02 0.30000000E+03</pdfrwt>
<pdfrwt beam="2">0</pdfrwt>
<totfact> 0.42078838E+04</totfact>
</mgrwt>
</event>
<event>
 6    1  0.1198667E-001  0.3000000E+03  0.7818608E-02  0.1093470E+00
         21   -1    0    0  501  502  0.00000000000E+00  0.00000000000E+00  0.31037588389E+01  0.31037588389E+01  0.00000000000E+00 0. -1.
         13   -1    0    0    0    0 -0.00000000000E+00 -0.00000000000E+00 -0.10000000000E+04  0.10000000000E+04  0.00000000000E+00 0.  1.
    9000005    2    1    2  501    0  0.20209718229E+02 -0.50084360043E+02 -0.62009311043E+03  0.62244974906E+03  0.33687787829E+01 0.  0.
         13    1    3    3    0    0  0.17811610155E+01 -0.70804078322E+01 -0.90494486932E+02  0.90788528321E+02  0.00000000000E+00 0.  1.
          1    1    3    3  501    0  0.18428557214E+02 -0.43003952211E+02 -0.52959862350E+03  0.53166122074E+03  0.00000000000E+00 0.  1.
         -3    1    1    2    0  502 -0.20209718229E+02  0.50084360043E+02 -0.37680313073E+03  0.38065400978E+03  0.00000000000E+00 0. -1.
<mgrwt>
<rscale>  1 0.30000000E+03</rscale>
<asrwt>0</asrwt>
<pdfrwt beam="1">  1       21 0.11286420E-01 0.30000000E+03</pdfrwt>
<pdfrwt beam="2">0</pdfrwt>
<totfact> 0.69239148E+03</totfact>
</mgrwt>
</event>
<event>
 6    1  0.1198667E-001  0.3000000E+03  0.7818608E-02  0.1093470E+00
         21   -1    0    0  501  502  0.00000000000E+00  0.00000000000E+00  0.17471375945E+01  0.17471375945E+01  0.00000000000E+00 0. -1.
         13   -1    0    0    0    0 -0.00000000000E+00 -0.00000000000E+00 -0.10000000000E+04  0.10000000000E+04  0.00000000000E+00 0.  1.
    9000005    2    1    2  501    0 -0.12035957345E+01 -0.37866154453E+02 -0.70991718799E+03  0.71093318429E+03  0.28782678299E+01 0.  0.
         13    1    3    3    0    0  0.24641750413E-01 -0.26462146161E+02 -0.51349428482E+03  0.51417567653E+03  0.00000000000E+00 0.  1.
          3    1    3    3  501    0 -0.12282374849E+01 -0.11404008292E+02 -0.19642290316E+03  0.19675750776E+03  0.00000000000E+00 0.  1.
         -1    1    1    2    0  502  0.12035957345E+01  0.37866154453E+02 -0.28833567442E+03  0.29081395331E+03  0.00000000000E+00 0. -1.
<mgrwt>
<rscale>  1 0.30000000E+03</rscale>
<asrwt>0</asrwt>
<pdfrwt beam="1">  1       21 0.63532410E-02 0.30000000E+03</pdfrwt>
<pdfrwt beam="2">0</pdfrwt>
<totfact> 0.19089652E+04</totfact>
</mgrwt>
</event>
<event>
 6    1  0.1198667E-001  0.3000000E+03  0.7818608E-02  0.1093470E+00
         21   -1    0    0  501  502  0.00000000000E+00  0.00000000000E+00  0.81122313449E+01  0.81122313449E+01  0.00000000000E+00 0. -1.
         13   -1    0    0    0    0 -0.00000000000E+00 -0.00000000000E+00 -0.10000000000E+04  0.10000000000E+04  0.00000000000E+00 0.  1.
    9000005    2    1    2  501    0 -0.60649353067E+02  0.26676891144E+02 -0.83729802849E+03  0.83992189775E+03  0.32871368157E+01 0.  0.
         13    1    3    3    0    0 -0.24002300307E+02  0.11232937828E+02 -0.31618116995E+03  0.31728980687E+03  0.00000000000E+00 0.  1.
          3    1    3    3  501    0 -0.36647052760E+02  0.15443953316E+02 -0.52111685853E+03  0.52263209088E+03  0.00000000000E+00 0.  1.
         -3    1    1    2    0  502  0.60649353067E+02 -0.26676891144E+02 -0.15458974017E+03  0.16819033359E+03  0.00000000000E+00 0. -1.
<mgrwt>
<rscale>  1 0.30000000E+03</rscale>
<asrwt>0</asrwt>
<pdfrwt beam="1">  1       21 0.29499085E-01 0.30000000E+03</pdfrwt>
<pdfrwt beam="2">0</pdfrwt>
<totfact> 0.11244820E+03</totfact>
</mgrwt>
</event>
<event>
 6    1  0.1198667E-001  0.3000000E+03  0.7818608E-02  0.1093470E+00
         21   -1    0    0  501  502  0.00000000000E+00  0.00000000000E+00  0.22370639444E+01  0.22370639444E+01  0.00000000000E+00 0. -1.
         13   -1    0    0    0    0 -0.00000000000E+00 -0.00000000000E+00 -0.10000000000E+04  0.10000000000E+04  0.00000000000E+00 0.  1.
    9000005    2    1    2  501    0 -0.21284535236E+02  0.25310046967E+02 -0.85689819511E+03  0.85754254034E+03  0.33259288910E+01 0.  0.
         13    1    3    3    0    0 -0.11330441304E+01  0.24886369789E+01 -0.57941235293E+02  0.58005722565E+02  0.00000000000E+00 0.  1.
          3    1    3    3  501    0 -0.20151491106E+02  0.22821409988E+02 -0.79895695981E+03  0.79953681778E+03  0.00000000000E+00 0.  1.
         -1    1    1    2    0  502  0.21284535236E+02 -0.25310046967E+02 -0.14086474095E+03  0.14469452360E+03  0.00000000000E+00 0. -1.
<mgrwt>
<rscale>  1 0.30000000E+03</rscale>
<asrwt>0</asrwt>
<pdfrwt beam="1">  1       21 0.81347951E-02 0.30000000E+03</pdfrwt>
<pdfrwt beam="2">0</pdfrwt>
<totfact> 0.12404243E+04</totfact>
</mgrwt>
</event>
<event>
 6    1  0.1198667E-001  0.3000000E+03  0.7818608E-02  0.1093470E+00
         21   -1    0    0  501  502  0.00000000000E+00  0.00000000000E+00  0.90538627044E+01  0.90538627044E+01  0.00000000000E+00 0. -1.
         13   -1    0    0    0    0 -0.00000000000E+00 -0.00000000000E+00 -0.10000000000E+04  0.10000000000E+04  0.00000000000E+00 0.  1.
    9000005    2    1    2  501    0  0.47819833077E+02 -0.11236664348E+02 -0.92753979513E+03  0.92884561320E+03  0.33320500587E+01 0.  0.
         13    1    3    3    0    0  0.26294598462E+02 -0.71341344750E+01 -0.48806793311E+03  0.48882779086E+03  0.00000000000E+00 0.  1.
          3    1    3    3  501    0  0.21525234615E+02 -0.41025298729E+01 -0.43947186202E+03  0.44001782234E+03  0.00000000000E+00 0.  1.
         -3    1    1    2    0  502 -0.47819833077E+02  0.11236664348E+02 -0.63406342169E+02  0.80208249503E+02  0.00000000000E+00 0. -1.
<mgrwt>
<rscale>  1 0.30000000E+03</rscale>
<asrwt>0</asrwt>
<pdfrwt beam="1">  1       21 0.32923207E-01 0.30000000E+03</pdfrwt>
<pdfrwt beam="2">0</pdfrwt>
<totfact> 0.90147599E+02</totfact>
</mgrwt>
</event>
<event>
 6    1  0.1198667E-001  0.3000000E+03  0.7818608E-02  0.1093470E+00
         21   -1    0    0  501  502  0.00000000000E+00  0.00000000000E+00  0.16174046166E+01  0.16174046166E+01  0.00000000000E+00 0. -1.
         13   -1    0    0    0    0 -0.00000000000E+00 -0.00000000000E+00 -0.10000000000E+04  0.10000000000E+04  0.00000000000E+00 0.  1.
    9000005    2    1    2  501    0 -0.16258748223E+02  0.35739267780E+02 -0.39663603072E+03  0.39859122754E+03  0.36309298395E+01 0.  0.
         13    1    3    3    0    0 -0.91069496483E+01  0.24005623904E+02 -0.25310369741E+03  0.25440261035E+03  0.00000000000E+00 0.  1.
          1    1    3    3  501    0 -0.71517985749E+01  0.11733643876E+02 -0.14353233331E+03  0.14418861719E+03  0.00000000000E+00 0.  1.
         -3    1    1    2    0  502  0.16258748223E+02 -0.35739267780E+02 -0.60174656466E+03  0.60302617708E+03  0.00000000000E+00 0. -1.
<mgrwt>
<rscale>  1 0.30000000E+03</rscale>
<asrwt>0</asrwt>
<pdfrwt beam="1">  1       21 0.58814837E-02 0.30000000E+03</pdfrwt>
<pdfrwt beam="2">0</pdfrwt>
<totfact> 0.21809016E+04</totfact>
</mgrwt>
</event>
<event>
 6    1  0.1198667E-001  0.3000000E+03  0.7818608E-02  0.1093470E+00
         21   -1    0    0  501  502  0.00000000000E+00  0.00000000000E+00  0.24716949927E+01  0.24716949927E+01  0.00000000000E+00 0. -1.
         13   -1    0    0    0    0 -0.00000000000E+00 -0.00000000000E+00 -0.10000000000E+04  0.10000000000E+04  0.00000000000E+00 0.  1.
    9000005    2    1    2  501    0  0.29038663878E+02  0.26527927650E+02 -0.80489621053E+03  0.80586523842E+03  0.37279773659E+01 0.  0.
         13    1    3    3    0    0  0.90174353830E+01  0.10359632443E+02 -0.29736569808E+03  0.29768270780E+03  0.00000000000E+00 0.  1.
          1    1    3    3  501    0  0.20021228495E+02  0.16168295206E+02 -0.50753051245E+03  0.50818253062E+03  0.00000000000E+00 0.  1.
         -3    1    1    2    0  502 -0.29038663878E+02 -0.26527927650E+02 -0.19263209448E+03  0.19660645658E+03  0.00000000000E+00 0. -1.
<mgrwt>
<rscale>  1 0.30000000E+03</rscale>
<asrwt>0</asrwt>
<pdfrwt beam="1">  1       21 0.89880007E-02 0.30000000E+03</pdfrwt>
<pdfrwt beam="2">0</pdfrwt>
<totfact> 0.10402647E+04</totfact>
</mgrwt>
</event>
<event>
 6    1  0.1198667E-001  0.3000000E+03  0.7818608E-02  0.1093470E+00
         21   -1    0    0  501  502  0.00000000000E+00  0.00000000000E+00  0.19930373711E+01  0.19930373711E+01  0.00000000000E+00 0. -1.
         13   -1    0    0    0    0 -0.00000000000E+00 -0.00000000000E+00 -0.10000000000E+04  0.10000000000E+04  0.00000000000E+00 0.  1.
    9000005    2    1    2  501    0  0.37420878125E+02  0.10761750041E+02 -0.74288152962E+03  0.74391335210E+03  0.42392207950E+01 0.  0.
         13    1    3    3    0    0  0.23134716700E+02  0.68581420040E+01 -0.49823283105E+03  0.49881680321E+03  0.00000000000E+00 0.  1.
          3    1    3    3  501    0  0.14286161425E+02  0.39036080367E+01 -0.24464869858E+03  0.24509654889E+03  0.00000000000E+00 0.  1.
         -1    1    1    2    0  502 -0.37420878125E+02 -0.10761750041E+02 -0.25512543301E+03  0.25807968527E+03  0.00000000000E+00 0. -1.
<mgrwt>
<rscale>  1 0.30000000E+03</rscale>
<asrwt>0</asrwt>
<pdfrwt beam="1">  1       21 0.72474239E-02 0.30000000E+03</pdfrwt>
<pdfrwt beam="2">0</pdfrwt>
<totfact> 0.15187420E+04</totfact>
</mgrwt>
</event>
<event>
 6    1  0.1198667E-001  0.3000000E+03  0.7818608E-02  0.1093470E+00
         21   -1    0    0  501  502  0.00000000000E+00  0.00000000000E+00  0.25918735846E+01  0.25918735846E+01  0.00000000000E+00 0. -1.
         13   -1    0    0    0    0 -0.00000000000E+00 -0.00000000000E+00 -0.10000000000E+04  0.10000000000E+04  0.00000000000E+00 0.  1.
    9000005    2    1    2  501    0  0.30312010535E+02  0.25909574664E+02 -0.80998192319E+03  0.81097061773E+03  0.35359405622E+01 0.  0.
         13    1    3    3    0    0  0.68775912963E+01  0.77888786344E+01 -0.22144606454E+03  0.22168970972E+03  0.00000000000E+00 0.  1.
          1    1    3    3  501    0  0.23434419239E+02  0.18120696030E+02 -0.58853585865E+03  0.58928090801E+03  0.00000000000E+00 0.  1.
         -3    1    1    2    0  502 -0.30312010535E+02 -0.25909574664E+02 -0.18742620322E+03  0.19162125586E+03  0.00000000000E+00 0. -1.
<mgrwt>
<rscale>  1 0.30000000E+03</rscale>
<asrwt>0</asrwt>
<pdfrwt beam="1">  1       21 0.94250147E-02 0.30000000E+03</pdfrwt>
<pdfrwt beam="2">0</pdfrwt>
<totfact> 0.95616943E+03</totfact>
</mgrwt>
</event>
<event>
 6    1  0.1198667E-001  0.3000000E+03  0.7818608E-02  0.1093470E+00
         21   -1    0    0  501  502  0.00000000000E+00  0.00000000000E+00  0.11541465349E+01  0.11541465349E+01  0.00000000000E+00 0. -1.
         13   -1    0    0    0    0 -0.00000000000E+00 -0.00000000000E+00 -0.10000000000E+04  0.10000000000E+04  0.00000000000E+00 0.  1.
    9000005    2    1    2  501    0 -0.21129254833E+02  0.24417574310E+02 -0.65146303683E+03  0.65227381656E+03  0.37921073769E+01 0.  0.
         13    1    3    3    0    0 -0.19988635858E+02  0.22279230518E+02 -0.61705862480E+03  0.61778415010E+03  0.00000000000E+00 0.  1.
          3    1    3    3  501    0 -0.11406189756E+01  0.21383437914E+01 -0.34404412024E+02  0.34489666461E+02  0.00000000000E+00 0.  1.
         -3    1    1    2    0  502  0.21129254833E+02 -0.24417574310E+02 -0.34738281664E+03  0.34888032997E+03  0.00000000000E+00 0. -1.
<mgrwt>
<rscale>  1 0.30000000E+03</rscale>
<asrwt>0</asrwt>
<pdfrwt beam="1">  1       21 0.41969053E-02 0.30000000E+03</pdfrwt>
<pdfrwt beam="2">0</pdfrwt>
<totfact> 0.38774689E+04</totfact>
</mgrwt>
</event>
<event>
 6    1  0.1198667E-001  0.3000000E+03  0.7818608E-02  0.1093470E+00
         21   -1    0    0  501  502  0.00000000000E+00  0.00000000000E+00  0.47903740703E+01  0.47903740703E+01  0.00000000000E+00 0. -1.
         13   -1    0    0    0    0 -0.00000000000E+00 -0.00000000000E+00 -0.10000000000E+04  0.10000000000E+04  0.00000000000E+00 0.  1.
    9000005    2    1    2  501    0  0.18990869761E+02  0.31639087686E+02 -0.92262542931E+03  0.92336463734E+03  0.16987255339E+01 0.  0.
         13    1    3    3    0    0  0.12919354608E+02  0.21155931589E+02 -0.63880547539E+03  0.63928625713E+03  0.00000000000E+00 0.  1.
          3    1    3    3  501    0  0.60715151526E+01  0.10483156097E+02 -0.28381995392E+03  0.28407838021E+03  0.00000000000E+00 0.  1.
         -1    1    1    2    0  502 -0.18990869761E+02 -0.31639087686E+02 -0.72584196619E+02  0.81425736734E+02  0.00000000000E+00 0. -1.
<mgrwt>
<rscale>  1 0.30000000E+03</rscale>
<asrwt>0</asrwt>
<pdfrwt beam="1">  1       21 0.17419579E-01 0.30000000E+03</pdfrwt>
<pdfrwt beam="2">0</pdfrwt>
<totfact> 0.31157745E+03</totfact>
</mgrwt>
</event>
<event>
 6    1  0.1198667E-001  0.3000000E+03  0.7818608E-02  0.1093470E+00
         21   -1    0    0  501  502  0.00000000000E+00  0.00000000000E+00  0.73740226473E+01  0.73740226473E+01  0.00000000000E+00 0. -1.
         13   -1    0    0    0    0 -0.00000000000E+00 -0.00000000000E+00 -0.10000000000E+04  0.10000000000E+04  0.00000000000E+00 0.  1.
    9000005    2    1    2  501    0  0.30795013649E+02 -0.21828377650E+02 -0.44346739598E+02  0.58343820972E+02  0.35436134262E+01 0.  0.
         13    1    3    3    0    0  0.76565119644E+01 -0.70296139912E+01 -0.10834850428E+02  0.15014380844E+02  0.00000000000E+00 0.  1.
          3    1    3    3  501    0  0.23138501685E+02 -0.14798763658E+02 -0.33511889171E+02  0.43329440128E+02  0.00000000000E+00 0.  1.
         -3    1    1    2    0  502 -0.30795013649E+02  0.21828377650E+02 -0.94827923775E+03  0.94903020168E+03  0.00000000000E+00 0. -1.
<mgrwt>
<rscale>  1 0.30000000E+03</rscale>
<asrwt>0</asrwt>
<pdfrwt beam="1">  1       21 0.26814684E-01 0.30000000E+03</pdfrwt>
<pdfrwt beam="2">0</pdfrwt>
<totfact> 0.13588295E+03</totfact>
</mgrwt>
</event>
<event>
 6    1  0.1198667E-001  0.3000000E+03  0.7818608E-02  0.1093470E+00
         21   -1    0    0  501  502  0.00000000000E+00  0.00000000000E+00  0.10429372113E+01  0.10429372113E+01  0.00000000000E+00 0. -1.
         13   -1    0    0    0    0 -0.00000000000E+00 -0.00000000000E+00 -0.10000000000E+04  0.10000000000E+04  0.00000000000E+00 0.  1.
    9000005    2    1    2  501    0  0.50313473184E+01 -0.30083351970E+02 -0.65979112502E+03  0.66050827544E+03  0.40658031142E+01 0.  0.
         13    1    3    3    0    0  0.44142398740E+01 -0.14130698756E+02 -0.31344678759E+03  0.31379619312E+03  0.00000000000E+00 0.  1.
          1    1    3    3  501    0  0.61710744435E+00 -0.15952653215E+02 -0.34634433743E+03  0.34671208233E+03  0.00000000000E+00 0.  1.
         -1    1    1    2    0  502 -0.50313473184E+01  0.30083351970E+02 -0.33916593777E+03  0.34053466177E+03  0.00000000000E+00 0. -1.
<mgrwt>
<rscale>  1 0.30000000E+03</rscale>
<asrwt>0</asrwt>
<pdfrwt beam="1">  1       21 0.37925069E-02 0.30000000E+03</pdfrwt>
<pdfrwt beam="2">0</pdfrwt>
<totfact> 0.45988332E+04</totfact>
</mgrwt>
</event>
<event>
 6    1  0.1198667E-001  0.3000000E+03  0.7818608E-02  0.1093470E+00
         21   -1    0    0  501  502  0.00000000000E+00  0.00000000000E+00  0.97713377898E+00  0.97713377898E+00  0.00000000000E+00 0. -1.
         13   -1    0    0    0    0 -0.00000000000E+00 -0.00000000000E+00 -0.10000000000E+04  0.10000000000E+04  0.00000000000E+00 0.  1.
    9000005    2    1    2  501    0  0.19862792376E+02 -0.23353922296E+02 -0.41022914695E+03  0.41138576676E+03  0.32186767097E+01 0.  0.
         13    1    3    3    0    0  0.28622206616E+01 -0.22183618944E+01 -0.39485082980E+02  0.39650790844E+02  0.00000000000E+00 0.  1.
          3    1    3    3  501    0  0.17000571714E+02 -0.21135560401E+02 -0.37074406397E+03  0.37173497592E+03  0.00000000000E+00 0.  1.
         -1    1    1    2    0  502 -0.19862792376E+02  0.23353922296E+02 -0.58879371927E+03  0.58959136702E+03  0.00000000000E+00 0. -1.
<mgrwt>
<rscale>  1 0.30000000E+03</rscale>
<asrwt>0</asrwt>
<pdfrwt beam="1">  1       21 0.35532212E-02 0.30000000E+03</pdfrwt>
<pdfrwt beam="2">0</pdfrwt>
<totfact> 0.51303093E+04</totfact>
</mgrwt>
</event>
<event>
 6    1  0.1198667E-001  0.3000000E+03  0.7818608E-02  0.1093470E+00
         21   -1    0    0  501  502  0.00000000000E+00  0.00000000000E+00  0.21824107214E+01  0.21824107214E+01  0.00000000000E+00 0. -1.
         13   -1    0    0    0    0 -0.00000000000E+00 -0.00000000000E+00 -0.10000000000E+04  0.10000000000E+04  0.00000000000E+00 0.  1.
    9000005    2    1    2  501    0 -0.32624485948E+02  0.27872494273E+02 -0.69340415279E+03  0.69475961824E+03  0.63541336473E+01 0.  0.
         13    1    3    3    0    0 -0.15505637915E+02  0.10516916765E+02 -0.26393876425E+03  0.26460291310E+03  0.00000000000E+00 0.  1.
          1    1    3    3  501    0 -0.17118848033E+02  0.17355577509E+02 -0.42946538854E+03  0.43015670514E+03  0.00000000000E+00 0.  1.
         -1    1    1    2    0  502  0.32624485948E+02 -0.27872494273E+02 -0.30441343649E+03  0.30742279248E+03  0.00000000000E+00 0. -1.
<mgrwt>
<rscale>  1 0.30000000E+03</rscale>
<asrwt>0</asrwt>
<pdfrwt beam="1">  1       21 0.79360557E-02 0.30000000E+03</pdfrwt>
<pdfrwt beam="2">0</pdfrwt>
<totfact> 0.12955161E+04</totfact>
</mgrwt>
</event>
<event>
 6    1  0.1198667E-001  0.3000000E+03  0.7818608E-02  0.1093470E+00
         21   -1    0    0  501  502  0.00000000000E+00  0.00000000000E+00  0.10305654085E+01  0.10305654085E+01  0.00000000000E+00 0. -1.
         13   -1    0    0    0    0 -0.00000000000E+00 -0.00000000000E+00 -0.10000000000E+04  0.10000000000E+04  0.00000000000E+00 0.  1.
    9000005    2    1    2  501    0 -0.75688125759E+01  0.31071138823E+02 -0.52374554997E+03  0.52473187434E+03  0.33817527343E+01 0.  0.
         13    1    3    3    0    0 -0.61322398455E+01  0.23306067185E+02 -0.37043988499E+03  0.37122295931E+03  0.00000000000E+00 0.  1.
          3    1    3    3  501    0 -0.14365727303E+01  0.77650716373E+01 -0.15330566498E+03  0.15350891503E+03  0.00000000000E+00 0.  1.
         -3    1    1    2    0  502  0.75688125759E+01 -0.31071138823E+02 -0.47522388463E+03  0.47629869106E+03  0.00000000000E+00 0. -1.
<mgrwt>
<rscale>  1 0.30000000E+03</rscale>
<asrwt>0</asrwt>
<pdfrwt beam="1">  1       21 0.37475185E-02 0.30000000E+03</pdfrwt>
<pdfrwt beam="2">0</pdfrwt>
<totfact> 0.46919400E+04</totfact>
</mgrwt>
</event>
<event>
 6    1  0.1198667E-001  0.3000000E+03  0.7818608E-02  0.1093470E+00
         21   -1    0    0  501  502  0.00000000000E+00  0.00000000000E+00  0.14620933735E+01  0.14620933735E+01  0.00000000000E+00 0. -1.
         13   -1    0    0    0    0 -0.00000000000E+00 -0.00000000000E+00 -0.10000000000E+04  0.10000000000E+04  0.00000000000E+00 0.  1.
    9000005    2    1    2  501    0 -0.21557339296E+02  0.26363188871E+02 -0.72595981554E+03  0.72676489218E+03  0.31333874328E+01 0.  0.
         13    1    3    3    0    0 -0.11928078947E+02  0.16372505648E+02 -0.40837346809E+03  0.40887556475E+03  0.00000000000E+00 0.  1.
          3    1    3    3  501    0 -0.96292603486E+01  0.99906832233E+01 -0.31758634745E+03  0.31788932743E+03  0.00000000000E+00 0.  1.
         -1    1    1    2    0  502  0.21557339296E+02 -0.26363188871E+02 -0.27257809109E+03  0.27469720120E+03  0.00000000000E+00 0. -1.
<mgrwt>
<rscale>  1 0.30000000E+03</rscale>
<asrwt>0</asrwt>
<pdfrwt beam="1">  1       21 0.53167144E-02 0.30000000E+03</pdfrwt>
<pdfrwt beam="2">0</pdfrwt>
<totfact> 0.25936796E+04</totfact>
</mgrwt>
</event>
<event>
 6    1  0.1198667E-001  0.3000000E+03  0.7818608E-02  0.1093470E+00
         21   -1    0    0  501  502  0.00000000000E+00  0.00000000000E+00  0.11078286914E+01  0.11078286914E+01  0.00000000000E+00 0. -1.
         13   -1    0    0    0    0 -0.00000000000E+00 -0.00000000000E+00 -0.10000000000E+04  0.10000000000E+04  0.00000000000E+00 0.  1.
    9000005    2    1    2  501    0 -0.27397636496E+02  0.18653356249E+02 -0.53883485667E+03  0.53985810139E+03  0.22778689340E+01 0.  0.
         13    1    3    3    0    0 -0.76238535105E+01  0.58813043234E+01 -0.17080204056E+03  0.17107322977E+03  0.00000000000E+00 0.  1.
          3    1    3    3  501    0 -0.19773782986E+02  0.12772051925E+02 -0.36803281611E+03  0.36878487162E+03  0.00000000000E+00 0.  1.
         -1    1    1    2    0  502  0.27397636496E+02 -0.18653356249E+02 -0.46005731463E+03  0.46124972730E+03  0.00000000000E+00 0. -1.
<mgrwt>
<rscale>  1 0.30000000E+03</rscale>
<asrwt>0</asrwt>
<pdfrwt beam="1">  1       21 0.40284765E-02 0.30000000E+03</pdfrwt>
<pdfrwt beam="2">0</pdfrwt>
<totfact> 0.41547911E+04</totfact>
</mgrwt>
</event>
<event>
 6    1  0.1198667E-001  0.3000000E+03  0.7818608E-02  0.1093470E+00
         21   -1    0    0  501  502  0.00000000000E+00  0.00000000000E+00  0.24138460144E+01  0.24138460144E+01  0.00000000000E+00 0. -1.
         13   -1    0    0    0    0 -0.00000000000E+00 -0.00000000000E+00 -0.10000000000E+04  0.10000000000E+04  0.00000000000E+00 0.  1.
    9000005    2    1    2  501    0  0.69418820547E+01 -0.39185080883E+02 -0.79136004844E+03  0.79238321278E+03  0.60637720112E+01 0.  0.
         13    1    3    3    0    0  0.40437797768E+01 -0.33873119490E+02 -0.68986742560E+03  0.69071036280E+03  0.00000000000E+00 0.  1.
          1    1    3    3  501    0  0.28981022779E+01 -0.53119613935E+01 -0.10149262284E+03  0.10167284998E+03  0.00000000000E+00 0.  1.
         -1    1    1    2    0  502 -0.69418820547E+01  0.39185080883E+02 -0.20622610554E+03  0.21003063324E+03  0.00000000000E+00 0. -1.
<mgrwt>
<rscale>  1 0.30000000E+03</rscale>
<asrwt>0</asrwt>
<pdfrwt beam="1">  1       21 0.87776404E-02 0.30000000E+03</pdfrwt>
<pdfrwt beam="2">0</pdfrwt>
<totfact> 0.10847876E+04</totfact>
</mgrwt>
</event>
<event>
 6    1  0.1198667E-001  0.3000000E+03  0.7818608E-02  0.1093470E+00
         21   -1    0    0  501  502  0.00000000000E+00  0.00000000000E+00  0.13488140870E+01  0.13488140870E+01  0.00000000000E+00 0. -1.
         13   -1    0    0    0    0 -0.00000000000E+00 -0.00000000000E+00 -0.10000000000E+04  0.10000000000E+04  0.00000000000E+00 0.  1.
    9000005    2    1    2  501    0  0.22602781888E+02  0.26474551032E+02 -0.65713203109E+03  0.65806012986E+03  0.29733208098E+01 0.  0.
         13    1    3    3    0    0  0.29173780082E+01  0.51086349482E+01 -0.11366607602E+03  0.11381821508E+03  0.00000000000E+00 0.  1.
          1    1    3    3  501    0  0.19685403880E+02  0.21365916084E+02 -0.54346595507E+03  0.54424191479E+03  0.00000000000E+00 0.  1.
         -3    1    1    2    0  502 -0.22602781888E+02 -0.26474551032E+02 -0.34151915483E+03  0.34328868422E+03  0.00000000000E+00 0. -1.
<mgrwt>
<rscale>  1 0.30000000E+03</rscale>
<asrwt>0</asrwt>
<pdfrwt beam="1">  1       21 0.49047888E-02 0.30000000E+03</pdfrwt>
<pdfrwt beam="2">0</pdfrwt>
<totfact> 0.29763915E+04</totfact>
</mgrwt>
</event>
<event>
 6    1  0.1198667E-001  0.3000000E+03  0.7818608E-02  0.1093470E+00
         21   -1    0    0  501  502  0.00000000000E+00  0.00000000000E+00  0.67659867201E+01  0.67659867201E+01  0.00000000000E+00 0. -1.
         13   -1    0    0    0    0 -0.00000000000E+00 -0.00000000000E+00 -0.10000000000E+04  0.10000000000E+04  0.00000000000E+00 0.  1.
    9000005    2    1    2  501    0  0.13693817630E+02  0.54322565469E+02 -0.86511862143E+03  0.86693746535E+03  0.34464355938E+01 0.  0.
         13    1    3    3    0    0  0.44203962973E-01  0.35758656809E+01 -0.56633925674E+02  0.56746720668E+02  0.00000000000E+00 0.  1.
          1    1    3    3  501    0  0.13649613667E+02  0.50746699788E+02 -0.80848469575E+03  0.81019074468E+03  0.00000000000E+00 0.  1.
         -3    1    1    2    0  502 -0.13693817630E+02 -0.54322565469E+02 -0.12811539185E+03  0.13982852137E+03  0.00000000000E+00 0. -1.
<mgrwt>
<rscale>  1 0.30000000E+03</rscale>
<asrwt>0</asrwt>
<pdfrwt beam="1">  1       21 0.24603640E-01 0.30000000E+03</pdfrwt>
<pdfrwt beam="2">0</pdfrwt>
<totfact> 0.16090907E+03</totfact>
</mgrwt>
</event>
<event>
 6    1  0.1198667E-001  0.3000000E+03  0.7818608E-02  0.1093470E+00
         21   -1    0    0  501  502  0.00000000000E+00  0.00000000000E+00  0.57188501266E+01  0.57188501266E+01  0.00000000000E+00 0. -1.
         13   -1    0    0    0    0 -0.00000000000E+00 -0.00000000000E+00 -0.10000000000E+04  0.10000000000E+04  0.00000000000E+00 0.  1.
    9000005    2    1    2  501    0  0.89073131309E+01  0.33543290530E+02 -0.94388855269E+03  0.94453138068E+03  0.30719077940E+01 0.  0.
         13    1    3    3    0    0  0.87654801912E+01  0.29018814841E+02 -0.81881615762E+03  0.81937709587E+03  0.00000000000E+00 0.  1.
          1    1    3    3  501    0  0.14183293967E+00  0.45244756893E+01 -0.12507239507E+03  0.12515428480E+03  0.00000000000E+00 0.  1.
         -1    1    1    2    0  502 -0.89073131309E+01 -0.33543290530E+02 -0.50392597185E+02  0.61187469451E+02  0.00000000000E+00 0. -1.
<mgrwt>
<rscale>  1 0.30000000E+03</rscale>
<asrwt>0</asrwt>
<pdfrwt beam="1">  1       21 0.20795862E-01 0.30000000E+03</pdfrwt>
<pdfrwt beam="2">0</pdfrwt>
<totfact> 0.22267123E+03</totfact>
</mgrwt>
</event>
<event>
 6    1  0.1198667E-001  0.3000000E+03  0.7818608E-02  0.1093470E+00
         21   -1    0    0  501  502  0.00000000000E+00  0.00000000000E+00  0.46164908612E+01  0.46164908612E+01  0.00000000000E+00 0. -1.
         13   -1    0    0    0    0 -0.00000000000E+00 -0.00000000000E+00 -0.10000000000E+04  0.10000000000E+04  0.00000000000E+00 0.  1.
    9000005    2    1    2  501    0  0.35549288621E+02  0.55643947314E+02 -0.61235800197E+03  0.61594112512E+03  0.64145335123E+01 0.  0.
         13    1    3    3    0    0  0.47915110222E+01  0.77875988442E+01 -0.10747851394E+03  0.10786675221E+03  0.00000000000E+00 0.  1.
          3    1    3    3  501    0  0.30757777599E+02  0.47856348469E+02 -0.50487948803E+03  0.50807437291E+03  0.00000000000E+00 0.  1.
         -1    1    1    2    0  502 -0.35549288621E+02 -0.55643947314E+02 -0.38302550717E+03  0.38867536574E+03  0.00000000000E+00 0. -1.
<mgrwt>
<rscale>  1 0.30000000E+03</rscale>
<asrwt>0</asrwt>
<pdfrwt beam="1">  1       21 0.16787275E-01 0.30000000E+03</pdfrwt>
<pdfrwt beam="2">0</pdfrwt>
<totfact> 0.33393135E+03</totfact>
</mgrwt>
</event>
<event>
 6    1  0.1198667E-001  0.3000000E+03  0.7818608E-02  0.1093470E+00
         21   -1    0    0  501  502  0.00000000000E+00  0.00000000000E+00  0.15309755188E+01  0.15309755188E+01  0.00000000000E+00 0. -1.
         13   -1    0    0    0    0 -0.00000000000E+00 -0.00000000000E+00 -0.10000000000E+04  0.10000000000E+04  0.00000000000E+00 0.  1.
    9000005    2    1    2  501    0 -0.12971468307E+02 -0.32902315828E+02 -0.71240269509E+03  0.71328669338E+03  0.30798698757E+01 0.  0.
         13    1    3    3    0    0 -0.64229062791E+01 -0.19795627342E+02 -0.40176679483E+03  0.40230545362E+03  0.00000000000E+00 0.  1.
          3    1    3    3  501    0 -0.65485620284E+01 -0.13106688485E+02 -0.31063590027E+03  0.31098123976E+03  0.00000000000E+00 0.  1.
         -3    1    1    2    0  502  0.12971468307E+02  0.32902315828E+02 -0.28606632939E+03  0.28824428214E+03  0.00000000000E+00 0. -1.
<mgrwt>
<rscale>  1 0.30000000E+03</rscale>
<asrwt>0</asrwt>
<pdfrwt beam="1">  1       21 0.55671954E-02 0.30000000E+03</pdfrwt>
<pdfrwt beam="2">0</pdfrwt>
<totfact> 0.23969593E+04</totfact>
</mgrwt>
</event>
<event>
 6    1  0.1198667E-001  0.3000000E+03  0.7818608E-02  0.1093470E+00
         21   -1    0    0  501  502  0.00000000000E+00  0.00000000000E+00  0.91171864820E+00  0.91171864820E+00  0.00000000000E+00 0. -1.
         13   -1    0    0    0    0 -0.00000000000E+00 -0.00000000000E+00 -0.10000000000E+04  0.10000000000E+04  0.00000000000E+00 0.  1.
    9000005    2    1    2  501    0 -0.62436546882E+01 -0.29396567994E+02 -0.51717331524E+03  0.51806062774E+03  0.39286866773E+01 0.  0.
         13    1    3    3    0    0 -0.11006957672E+01 -0.67299682003E+01 -0.91924648322E+02  0.92177247585E+02  0.00000000000E+00 0.  1.
          3    1    3    3  501    0 -0.51429589210E+01 -0.22666599794E+02 -0.42524866692E+03  0.42588338015E+03  0.00000000000E+00 0.  1.
         -1    1    1    2    0  502  0.62436546882E+01  0.29396567994E+02 -0.48191496611E+03  0.48285109091E+03  0.00000000000E+00 0. -1.
<mgrwt>
<rscale>  1 0.30000000E+03</rscale>
<asrwt>0</asrwt>
<pdfrwt beam="1">  1       21 0.33153475E-02 0.30000000E+03</pdfrwt>
<pdfrwt beam="2">0</pdfrwt>
<totfact> 0.57605881E+04</totfact>
</mgrwt>
</event>
<event>
 6    1  0.1198667E-001  0.3000000E+03  0.7818608E-02  0.1093470E+00
         21   -1    0    0  501  502  0.00000000000E+00  0.00000000000E+00  0.14960867023E+01  0.14960867023E+01  0.00000000000E+00 0. -1.
         13   -1    0    0    0    0 -0.00000000000E+00 -0.00000000000E+00 -0.10000000000E+04  0.10000000000E+04  0.00000000000E+00 0.  1.
    9000005    2    1    2  501    0 -0.21429166283E+02 -0.31983118743E+02 -0.54074658970E+03  0.54212271312E+03  0.28342111268E+01 0.  0.
         13    1    3    3    0    0 -0.19005874544E+02 -0.29437762800E+02 -0.48309409331E+03  0.48436319858E+03  0.00000000000E+00 0.  1.
          1    1    3    3  501    0 -0.24232917391E+01 -0.25453559432E+01 -0.57652496389E+02  0.57759514538E+02  0.00000000000E+00 0.  1.
         -1    1    1    2    0  502  0.21429166283E+02  0.31983118743E+02 -0.45775732359E+03  0.45937337358E+03  0.00000000000E+00 0. -1.
<mgrwt>
<rscale>  1 0.30000000E+03</rscale>
<asrwt>0</asrwt>
<pdfrwt beam="1">  1       21 0.54403268E-02 0.30000000E+03</pdfrwt>
<pdfrwt beam="2">0</pdfrwt>
<totfact> 0.24936070E+04</totfact>
</mgrwt>
</event>
<event>
 6    1  0.1198667E-001  0.3000000E+03  0.7818608E-02  0.1093470E+00
         21   -1    0    0  501  502  0.00000000000E+00  0.00000000000E+00  0.74261576151E+01  0.74261576151E+01  0.00000000000E+00 0. -1.
         13   -1    0    0    0    0 -0.00000000000E+00 -0.00000000000E+00 -0.10000000000E+04  0.10000000000E+04  0.00000000000E+00 0.  1.
    9000005    2    1    2  501    0  0.73445062266E+02 -0.25478239536E+02 -0.71339382830E+03  0.71762484960E+03  0.33693693814E+01 0.  0.
         13    1    3    3    0    0  0.53574999198E+01 -0.13144426240E+01 -0.44553393472E+02  0.44893601266E+02  0.00000000000E+00 0.  1.
          3    1    3    3  501    0  0.68087562346E+02 -0.24163796912E+02 -0.66884043483E+03  0.67273124834E+03  0.00000000000E+00 0.  1.
         -1    1    1    2    0  502 -0.73445062266E+02  0.25478239536E+02 -0.27918001408E+03  0.28980130801E+03  0.00000000000E+00 0. -1.
<mgrwt>
<rscale>  1 0.30000000E+03</rscale>
<asrwt>0</asrwt>
<pdfrwt beam="1">  1       21 0.27004266E-01 0.30000000E+03</pdfrwt>
<pdfrwt beam="2">0</pdfrwt>
<totfact> 0.13400592E+03</totfact>
</mgrwt>
</event>
<event>
 6    1  0.1198667E-001  0.3000000E+03  0.7818608E-02  0.1093470E+00
         21   -1    0    0  501  502  0.00000000000E+00  0.00000000000E+00  0.17245540168E+01  0.17245540168E+01  0.00000000000E+00 0. -1.
         13   -1    0    0    0    0 -0.00000000000E+00 -0.00000000000E+00 -0.10000000000E+04  0.10000000000E+04  0.00000000000E+00 0.  1.
    9000005    2    1    2  501    0 -0.83705333190E+01 -0.36229414067E+02 -0.71952815540E+03  0.72050811019E+03  0.53417378495E+01 0.  0.
         13    1    3    3    0    0 -0.81098195757E+01 -0.24258616985E+02 -0.49904604926E+03  0.49970111962E+03  0.00000000000E+00 0.  1.
          3    1    3    3  501    0 -0.26071374330E+00 -0.11970797082E+02 -0.22048210614E+03  0.22080699056E+03  0.00000000000E+00 0.  1.
         -3    1    1    2    0  502  0.83705333190E+01  0.36229414067E+02 -0.27874729059E+03  0.28121644383E+03  0.00000000000E+00 0. -1.
<mgrwt>
<rscale>  1 0.30000000E+03</rscale>
<asrwt>0</asrwt>
<pdfrwt beam="1">  1       21 0.62711187E-02 0.30000000E+03</pdfrwt>
<pdfrwt beam="2">0</pdfrwt>
<totfact> 0.19523836E+04</totfact>
</mgrwt>
</event>
<event>
 6    1  0.1198667E-001  0.3000000E+03  0.7818608E-02  0.1093470E+00
         21   -1    0    0  501  502  0.00000000000E+00  0.00000000000E+00  0.19208852076E+01  0.19208852076E+01  0.00000000000E+00 0. -1.
         13   -1    0    0    0    0 -0.00000000000E+00 -0.00000000000E+00 -0.10000000000E+04  0.10000000000E+04  0.00000000000E+00 0.  1.
    9000005    2    1    2  501    0  0.25831838506E+02  0.32822312313E+02 -0.64899824184E+03  0.65035006172E+03  0.34491741590E+01 0.  0.
         13    1    3    3    0    0  0.11790224088E+02  0.16950840352E+02 -0.30136272899E+03  0.30206925496E+03  0.00000000000E+00 0.  1.
          1    1    3    3  501    0  0.14041614418E+02  0.15871471961E+02 -0.34763551286E+03  0.34828080676E+03  0.00000000000E+00 0.  1.
         -1    1    1    2    0  502 -0.25831838506E+02 -0.32822312313E+02 -0.34908087295E+03  0.35157082348E+03  0.00000000000E+00 0. -1.
<mgrwt>
<rscale>  1 0.30000000E+03</rscale>
<asrwt>0</asrwt>
<pdfrwt beam="1">  1       21 0.69850518E-02 0.30000000E+03</pdfrwt>
<pdfrwt beam="2">0</pdfrwt>
<totfact> 0.16195423E+04</totfact>
</mgrwt>
</event>
<event>
 6    1  0.1198667E-001  0.3000000E+03  0.7818608E-02  0.1093470E+00
         21   -1    0    0  501  502  0.00000000000E+00  0.00000000000E+00  0.34684575214E+01  0.34684575214E+01  0.00000000000E+00 0. -1.
         13   -1    0    0    0    0 -0.00000000000E+00 -0.00000000000E+00 -0.10000000000E+04  0.10000000000E+04  0.00000000000E+00 0.  1.
    9000005    2    1    2  501    0 -0.17189350772E+01  0.36334630542E+02 -0.89272068317E+03  0.89346911832E+03  0.36996103472E+01 0.  0.
         13    1    3    3    0    0 -0.10640998714E+01  0.10749601848E+02 -0.22756856720E+03  0.22782479897E+03  0.00000000000E+00 0.  1.
          3    1    3    3  501    0 -0.65483520581E+00  0.25585028694E+02 -0.66515211598E+03  0.66564431935E+03  0.00000000000E+00 0.  1.
         -3    1    1    2    0  502  0.17189350772E+01 -0.36334630542E+02 -0.10381085931E+03  0.10999933920E+03  0.00000000000E+00 0. -1.
<mgrwt>
<rscale>  1 0.30000000E+03</rscale>
<asrwt>0</asrwt>
<pdfrwt beam="1">  1       21 0.12612599E-01 0.30000000E+03</pdfrwt>
<pdfrwt beam="2">0</pdfrwt>
<totfact> 0.56604541E+03</totfact>
</mgrwt>
</event>
<event>
 6    1  0.1198667E-001  0.3000000E+03  0.7818608E-02  0.1093470E+00
         21   -1    0    0  501  502  0.00000000000E+00  0.00000000000E+00  0.13132218511E+01  0.13132218511E+01  0.00000000000E+00 0. -1.
         13   -1    0    0    0    0 -0.00000000000E+00 -0.00000000000E+00 -0.10000000000E+04  0.10000000000E+04  0.00000000000E+00 0.  1.
    9000005    2    1    2  501    0 -0.30048235060E+02 -0.38647241978E+01 -0.22753667250E+03  0.22956823938E+03  0.32873511238E+01 0.  0.
         13    1    3    3    0    0 -0.23080199393E+02 -0.36810312624E+01 -0.18370510447E+03  0.18518588230E+03  0.00000000000E+00 0.  1.
          3    1    3    3  501    0 -0.69680356668E+01 -0.18369293545E+00 -0.43831568024E+02  0.44382357075E+02  0.00000000000E+00 0.  1.
         -3    1    1    2    0  502  0.30048235060E+02  0.38647241978E+01 -0.77115010565E+03  0.77174498247E+03  0.00000000000E+00 0. -1.
<mgrwt>
<rscale>  1 0.30000000E+03</rscale>
<asrwt>0</asrwt>
<pdfrwt beam="1">  1       21 0.47753623E-02 0.30000000E+03</pdfrwt>
<pdfrwt beam="2">0</pdfrwt>
<totfact> 0.31150092E+04</totfact>
</mgrwt>
</event>
<event>
 6    1  0.1198667E-001  0.3000000E+03  0.7818608E-02  0.1093470E+00
         21   -1    0    0  501  502  0.00000000000E+00  0.00000000000E+00  0.28265374253E+01  0.28265374253E+01  0.00000000000E+00 0. -1.
         13   -1    0    0    0    0 -0.00000000000E+00 -0.00000000000E+00 -0.10000000000E+04  0.10000000000E+04  0.00000000000E+00 0.  1.
    9000005    2    1    2  501    0 -0.32191147327E+02 -0.18827834906E+02 -0.85574917499E+03  0.85656790879E+03  0.33428322397E+01 0.  0.
         13    1    3    3    0    0 -0.19231557071E+02 -0.12029602812E+02 -0.55356006301E+03  0.55402464520E+03  0.00000000000E+00 0.  1.
          3    1    3    3  501    0 -0.12959590255E+02 -0.67982320939E+01 -0.30218911199E+03  0.30254326359E+03  0.00000000000E+00 0.  1.
         -1    1    1    2    0  502  0.32191147327E+02  0.18827834906E+02 -0.14142428758E+03  0.14625862864E+03  0.00000000000E+00 0. -1.
<mgrwt>
<rscale>  1 0.30000000E+03</rscale>
<asrwt>0</asrwt>
<pdfrwt beam="1">  1       21 0.10278340E-01 0.30000000E+03</pdfrwt>
<pdfrwt beam="2">0</pdfrwt>
<totfact> 0.81910102E+03</totfact>
</mgrwt>
</event>
<event>
 6    1  0.1198667E-001  0.3000000E+03  0.7818608E-02  0.1093470E+00
         21   -1    0    0  501  502  0.00000000000E+00  0.00000000000E+00  0.72670214522E+01  0.72670214522E+01  0.00000000000E+00 0. -1.
         13   -1    0    0    0    0 -0.00000000000E+00 -0.00000000000E+00 -0.10000000000E+04  0.10000000000E+04  0.00000000000E+00 0.  1.
    9000005    2    1    2  501    0  0.53269109003E+02  0.60475669580E+02 -0.66016285587E+03  0.66507147635E+03  0.31887000624E+01 0.  0.
         13    1    3    3    0    0  0.10050033425E+02  0.12125479691E+02 -0.13893621925E+03  0.13982597559E+03  0.00000000000E+00 0.  1.
          3    1    3    3  501    0  0.43219075578E+02  0.48350189889E+02 -0.52122663661E+03  0.52524550076E+03  0.00000000000E+00 0.  1.
         -3    1    1    2    0  502 -0.53269109003E+02 -0.60475669580E+02 -0.33257012268E+03  0.34219554510E+03  0.00000000000E+00 0. -1.
<mgrwt>
<rscale>  1 0.30000000E+03</rscale>
<asrwt>0</asrwt>
<pdfrwt beam="1">  1       21 0.26425588E-01 0.30000000E+03</pdfrwt>
<pdfrwt beam="2">0</pdfrwt>
<totfact> 0.13985727E+03</totfact>
</mgrwt>
</event>
<event>
 6    1  0.1198667E-001  0.3000000E+03  0.7818608E-02  0.1093470E+00
         21   -1    0    0  501  502  0.00000000000E+00  0.00000000000E+00  0.98889351469E+00  0.98889351469E+00  0.00000000000E+00 0. -1.
         13   -1    0    0    0    0 -0.00000000000E+00 -0.00000000000E+00 -0.10000000000E+04  0.10000000000E+04  0.00000000000E+00 0.  1.
    9000005    2    1    2  501    0  0.15036040904E+02 -0.26588234364E+02 -0.61294259124E+03  0.61371390698E+03  0.36225309645E+01 0.  0.
         13    1    3    3    0    0  0.23138923002E+01 -0.28040092818E+01 -0.94866219147E+02  0.94935852557E+02  0.00000000000E+00 0.  1.
          1    1    3    3  501    0  0.12722148604E+02 -0.23784225082E+02 -0.51807637209E+03  0.51877805442E+03  0.00000000000E+00 0.  1.
         -3    1    1    2    0  502 -0.15036040904E+02  0.26588234364E+02 -0.38606851525E+03  0.38727498654E+03  0.00000000000E+00 0. -1.
<mgrwt>
<rscale>  1 0.30000000E+03</rscale>
<asrwt>0</asrwt>
<pdfrwt beam="1">  1       21 0.35959840E-02 0.30000000E+03</pdfrwt>
<pdfrwt beam="2">0</pdfrwt>
<totfact> 0.50284343E+04</totfact>
</mgrwt>
</event>
<event>
 6    1  0.1198667E-001  0.3000000E+03  0.7818608E-02  0.1093470E+00
         21   -1    0    0  501  502  0.00000000000E+00  0.00000000000E+00  0.20780874006E+01  0.20780874006E+01  0.00000000000E+00 0. -1.
         13   -1    0    0    0    0 -0.00000000000E+00 -0.00000000000E+00 -0.10000000000E+04  0.10000000000E+04  0.00000000000E+00 0.  1.
    9000005    2    1    2  501    0 -0.43470968043E+02 -0.12657198388E+02 -0.55003911274E+03  0.55191263765E+03  0.38215608446E+01 0.  0.
         13    1    3    3    0    0 -0.16882190586E+02 -0.68201829411E+01 -0.21557782535E+03  0.21634537674E+03  0.00000000000E+00 0.  1.
          3    1    3    3  501    0 -0.26588777457E+02 -0.58370154472E+01 -0.33446128738E+03  0.33556726091E+03  0.00000000000E+00 0.  1.
         -1    1    1    2    0  502  0.43470968043E+02  0.12657198388E+02 -0.44788279986E+03  0.45016544975E+03  0.00000000000E+00 0. -1.
<mgrwt>
<rscale>  1 0.30000000E+03</rscale>
<asrwt>0</asrwt>
<pdfrwt beam="1">  1       21 0.75566974E-02 0.30000000E+03</pdfrwt>
<pdfrwt beam="2">0</pdfrwt>
<totfact> 0.14117050E+04</totfact>
</mgrwt>
</event>
<event>
 6    1  0.1198667E-001  0.3000000E+03  0.7818608E-02  0.1093470E+00
         21   -1    0    0  501  502  0.00000000000E+00  0.00000000000E+00  0.14979717348E+01  0.14979717348E+01  0.00000000000E+00 0. -1.
         13   -1    0    0    0    0 -0.00000000000E+00 -0.00000000000E+00 -0.10000000000E+04  0.10000000000E+04  0.00000000000E+00 0.  1.
    9000005    2    1    2  501    0 -0.21222061113E+02 -0.28149384160E+02 -0.70403841377E+03  0.70493164869E+03  0.39720958981E+01 0.  0.
         13    1    3    3    0    0 -0.48841398028E+01 -0.43042215428E+01 -0.14613167747E+03  0.14627661571E+03  0.00000000000E+00 0.  1.
          1    1    3    3  501    0 -0.16337921310E+02 -0.23845162617E+02 -0.55790673630E+03  0.55865503297E+03  0.00000000000E+00 0.  1.
         -3    1    1    2    0  502  0.21222061113E+02  0.28149384160E+02 -0.29446361449E+03  0.29656632305E+03  0.00000000000E+00 0. -1.
<mgrwt>
<rscale>  1 0.30000000E+03</rscale>
<asrwt>0</asrwt>
<pdfrwt beam="1">  1       21 0.54471814E-02 0.30000000E+03</pdfrwt>
<pdfrwt beam="2">0</pdfrwt>
<totfact> 0.24882328E+04</totfact>
</mgrwt>
</event>
<event>
 6    1  0.1198667E-001  0.3000000E+03  0.7818608E-02  0.1093470E+00
         21   -1    0    0  501  502  0.00000000000E+00  0.00000000000E+00  0.32370882462E+01  0.32370882462E+01  0.00000000000E+00 0. -1.
         13   -1    0    0    0    0 -0.00000000000E+00 -0.00000000000E+00 -0.10000000000E+04  0.10000000000E+04  0.00000000000E+00 0.  1.
    9000005    2    1    2  501    0  0.53335463218E+02  0.78965168225E+01 -0.65791656477E+03  0.66012796059E+03  0.27733632112E+01 0.  0.
         13    1    3    3    0    0  0.15990247336E+02  0.27262527313E+01 -0.18329652189E+03  0.18401286749E+03  0.00000000000E+00 0.  1.
          1    1    3    3  501    0  0.37345215881E+02  0.51702640911E+01 -0.47462004288E+03  0.47611509310E+03  0.00000000000E+00 0.  1.
         -3    1    1    2    0  502 -0.53335463218E+02 -0.78965168225E+01 -0.33884634699E+03  0.34310912766E+03  0.00000000000E+00 0. -1.
<mgrwt>
<rscale>  1 0.30000000E+03</rscale>
<asrwt>0</asrwt>
<pdfrwt beam="1">  1       21 0.11771255E-01 0.30000000E+03</pdfrwt>
<pdfrwt beam="2">0</pdfrwt>
<totfact> 0.64171660E+03</totfact>
</mgrwt>
</event>
<event>
 6    1  0.1198667E-001  0.3000000E+03  0.7818608E-02  0.1093470E+00
         21   -1    0    0  501  502  0.00000000000E+00  0.00000000000E+00  0.25015408901E+01  0.25015408901E+01  0.00000000000E+00 0. -1.
         13   -1    0    0    0    0 -0.00000000000E+00 -0.00000000000E+00 -0.10000000000E+04  0.10000000000E+04  0.00000000000E+00 0.  1.
    9000005    2    1    2  501    0  0.25314584699E+02  0.22630867300E+02 -0.86657644977E+03  0.86724786485E+03  0.33363804357E+01 0.  0.
         13    1    3    3    0    0  0.58961749987E+01  0.72174106932E+01 -0.24487324071E+03  0.24505052522E+03  0.00000000000E+00 0.  1.
          3    1    3    3  501    0  0.19418409700E+02  0.15413456607E+02 -0.62170320906E+03  0.62219733963E+03  0.00000000000E+00 0.  1.
         -3    1    1    2    0  502 -0.25314584699E+02 -0.22630867300E+02 -0.13092200934E+03  0.13525367604E+03  0.00000000000E+00 0. -1.
<mgrwt>
<rscale>  1 0.30000000E+03</rscale>
<asrwt>0</asrwt>
<pdfrwt beam="1">  1       21 0.90965315E-02 0.30000000E+03</pdfrwt>
<pdfrwt beam="2">0</pdfrwt>
<totfact> 0.10183679E+04</totfact>
</mgrwt>
</event>
<event>
 6    1  0.1198667E-001  0.3000000E+03  0.7818608E-02  0.1093470E+00
         21   -1    0    0  501  502  0.00000000000E+00  0.00000000000E+00  0.44460233890E+01  0.44460233890E+01  0.00000000000E+00 0. -1.
         13   -1    0    0    0    0 -0.00000000000E+00 -0.00000000000E+00 -0.10000000000E+04  0.10000000000E+04  0.00000000000E+00 0.  1.
    9000005    2    1    2  501    0  0.17164357185E+01 -0.47099473385E+02 -0.85281409094E+03  0.85412642552E+03  0.43324942385E+01 0.  0.
         13    1    3    3    0    0  0.16864541446E+01 -0.36634972401E+02 -0.69350786590E+03  0.69447687175E+03  0.00000000000E+00 0.  1.
          3    1    3    3  501    0  0.29981573889E-01 -0.10464500983E+02 -0.15930622504E+03  0.15964955376E+03  0.00000000000E+00 0.  1.
         -1    1    1    2    0  502 -0.17164357185E+01  0.47099473385E+02 -0.14273988567E+03  0.15031959787E+03  0.00000000000E+00 0. -1.
<mgrwt>
<rscale>  1 0.30000000E+03</rscale>
<asrwt>0</asrwt>
<pdfrwt beam="1">  1       21 0.16167392E-01 0.30000000E+03</pdfrwt>
<pdfrwt beam="2">0</pdfrwt>
<totfact> 0.35824632E+03</totfact>
</mgrwt>
</event>
<event>
 6    1  0.1198667E-001  0.3000000E+03  0.7818608E-02  0.1093470E+00
         21   -1    0    0  501  502  0.00000000000E+00  0.00000000000E+00  0.29501465364E+01  0.29501465364E+01  0.00000000000E+00 0. -1.
         13   -1    0    0    0    0 -0.00000000000E+00 -0.00000000000E+00 -0.10000000000E+04  0.10000000000E+04  0.00000000000E+00 0.  1.
    9000005    2    1    2  501    0  0.36911158046E+02  0.28775680462E+02 -0.75243261989E+03  0.75389580641E+03  0.36832152525E+01 0.  0.
         13    1    3    3    0    0  0.55917782558E+00  0.91052106978E+00 -0.11824684253E+02  0.11872863435E+02  0.00000000000E+00 0.  1.
          3    1    3    3  501    0  0.36351980220E+02  0.27865159392E+02 -0.74060793563E+03  0.74202294297E+03  0.00000000000E+00 0.  1.
         -1    1    1    2    0  502 -0.36911158046E+02 -0.28775680462E+02 -0.24461723358E+03  0.24905434013E+03  0.00000000000E+00 0. -1.
<mgrwt>
<rscale>  1 0.30000000E+03</rscale>
<asrwt>0</asrwt>
<pdfrwt beam="1">  1       21 0.10727828E-01 0.30000000E+03</pdfrwt>
<pdfrwt beam="2">0</pdfrwt>
<totfact> 0.75860366E+03</totfact>
</mgrwt>
</event>
<event>
 6    1  0.1198667E-001  0.3000000E+03  0.7818608E-02  0.1093470E+00
         21   -1    0    0  501  502  0.00000000000E+00  0.00000000000E+00  0.24029408351E+01  0.24029408351E+01  0.00000000000E+00 0. -1.
         13   -1    0    0    0    0 -0.00000000000E+00 -0.00000000000E+00 -0.10000000000E+04  0.10000000000E+04  0.00000000000E+00 0.  1.
    9000005    2    1    2  501    0 -0.24963606591E+02  0.24204821204E+02 -0.85188253293E+03  0.85259713928E+03  0.29961599702E+01 0.  0.
         13    1    3    3    0    0 -0.19693891698E+01  0.31312217429E+01 -0.83931031326E+02  0.84012505395E+02  0.00000000000E+00 0.  1.
          1    1    3    3  501    0 -0.22994217421E+02  0.21073599461E+02 -0.76795150160E+03  0.76858463388E+03  0.00000000000E+00 0.  1.
         -3    1    1    2    0  502  0.24963606591E+02 -0.24204821204E+02 -0.14571452624E+03  0.14980580156E+03  0.00000000000E+00 0. -1.
<mgrwt>
<rscale>  1 0.30000000E+03</rscale>
<asrwt>0</asrwt>
<pdfrwt beam="1">  1       21 0.87379851E-02 0.30000000E+03</pdfrwt>
<pdfrwt beam="2">0</pdfrwt>
<totfact> 0.10935041E+04</totfact>
</mgrwt>
</event>
<event>
 6    1  0.1198667E-001  0.3000000E+03  0.7818608E-02  0.1093470E+00
         21   -1    0    0  501  502  0.00000000000E+00  0.00000000000E+00  0.11887107268E+01  0.11887107268E+01  0.00000000000E+00 0. -1.
         13   -1    0    0    0    0 -0.00000000000E+00 -0.00000000000E+00 -0.10000000000E+04  0.10000000000E+04  0.00000000000E+00 0.  1.
    9000005    2    1    2  501    0 -0.21743396563E+02 -0.22663307365E+02 -0.70443672535E+03  0.70514346979E+03  0.31324390933E+01 0.  0.
         13    1    3    3    0    0 -0.19303583021E+02 -0.21089151200E+02 -0.62464773631E+03  0.62530166727E+03  0.00000000000E+00 0.  1.
          1    1    3    3  501    0 -0.24398135413E+01 -0.15741561646E+01 -0.79788989035E+02  0.79841802516E+02  0.00000000000E+00 0.  1.
         -3    1    1    2    0  502  0.21743396563E+02  0.22663307365E+02 -0.29437456393E+03  0.29604524094E+03  0.00000000000E+00 0. -1.
<mgrwt>
<rscale>  1 0.30000000E+03</rscale>
<asrwt>0</asrwt>
<pdfrwt beam="1">  1       21 0.43225936E-02 0.30000000E+03</pdfrwt>
<pdfrwt beam="2">0</pdfrwt>
<totfact> 0.36888295E+04</totfact>
</mgrwt>
</event>
<event>
 6    1  0.1198667E-001  0.3000000E+03  0.7818608E-02  0.1093470E+00
         21   -1    0    0  501  502  0.00000000000E+00  0.00000000000E+00  0.11838989058E+01  0.11838989058E+01  0.00000000000E+00 0. -1.
         13   -1    0    0    0    0 -0.00000000000E+00 -0.00000000000E+00 -0.10000000000E+04  0.10000000000E+04  0.00000000000E+00 0.  1.
    9000005    2    1    2  501    0 -0.72193852429E+00  0.30084774523E+02 -0.74068906783E+03  0.74130858235E+03  0.35361291184E+01 0.  0.
         13    1    3    3    0    0  0.52548954689E+00  0.26329282278E+02 -0.63777910028E+03  0.63832255796E+03  0.00000000000E+00 0.  1.
          1    1    3    3  501    0 -0.12474280712E+01  0.37554922448E+01 -0.10290996755E+03  0.10298602439E+03  0.00000000000E+00 0.  1.
         -1    1    1    2    0  502  0.72193852429E+00 -0.30084774523E+02 -0.25812703326E+03  0.25987531655E+03  0.00000000000E+00 0. -1.
<mgrwt>
<rscale>  1 0.30000000E+03</rscale>
<asrwt>0</asrwt>
<pdfrwt beam="1">  1       21 0.43050960E-02 0.30000000E+03</pdfrwt>
<pdfrwt beam="2">0</pdfrwt>
<totfact> 0.37142267E+04</totfact>
</mgrwt>
</event>
<event>
 6    1  0.1198667E-001  0.3000000E+03  0.7818608E-02  0.1093470E+00
         21   -1    0    0  501  502  0.00000000000E+00  0.00000000000E+00  0.37657190407E+01  0.37657190407E+01  0.00000000000E+00 0. -1.
         13   -1    0    0    0    0 -0.00000000000E+00 -0.00000000000E+00 -0.10000000000E+04  0.10000000000E+04  0.00000000000E+00 0.  1.
    9000005    2    1    2  501    0  0.86213837908E+01 -0.59096645822E+02 -0.61203696217E+03  0.61495429744E+03  0.35781372266E+01 0.  0.
         13    1    3    3    0    0  0.22242338968E+01 -0.24536925283E+02 -0.24057230589E+03  0.24183060658E+03  0.00000000000E+00 0.  1.
          3    1    3    3  501    0  0.63971498940E+01 -0.34559720539E+02 -0.37146465629E+03  0.37312369086E+03  0.00000000000E+00 0.  1.
         -1    1    1    2    0  502 -0.86213837908E+01  0.59096645822E+02 -0.38419731879E+03  0.38881142160E+03  0.00000000000E+00 0. -1.
<mgrwt>
<rscale>  1 0.30000000E+03</rscale>
<asrwt>0</asrwt>
<pdfrwt beam="1">  1       21 0.13693553E-01 0.30000000E+03</pdfrwt>
<pdfrwt beam="2">0</pdfrwt>
<totfact> 0.48705701E+03</totfact>
</mgrwt>
</event>
<event>
 6    1  0.1198667E-001  0.3000000E+03  0.7818608E-02  0.1093470E+00
         21   -1    0    0  501  502  0.00000000000E+00  0.00000000000E+00  0.16350552594E+01  0.16350552594E+01  0.00000000000E+00 0. -1.
         13   -1    0    0    0    0 -0.00000000000E+00 -0.00000000000E+00 -0.10000000000E+04  0.10000000000E+04  0.00000000000E+00 0.  1.
    9000005    2    1    2  501    0  0.28624852036E+02 -0.15394870729E+02 -0.79592063332E+03  0.79659826972E+03  0.47712234570E+01 0.  0.
         13    1    3    3    0    0  0.28699733628E+02 -0.15327873175E+02 -0.78116688077E+03  0.78184417503E+03  0.00000000000E+00 0.  1.
          1    1    3    3  501    0 -0.74881592032E-01 -0.66997554104E-01 -0.14753752548E+02  0.14754094691E+02  0.00000000000E+00 0.  1.
         -3    1    1    2    0  502 -0.28624852036E+02  0.15394870729E+02 -0.20244431142E+03  0.20503678554E+03  0.00000000000E+00 0. -1.
<mgrwt>
<rscale>  1 0.30000000E+03</rscale>
<asrwt>0</asrwt>
<pdfrwt beam="1">  1       21 0.59456680E-02 0.30000000E+03</pdfrwt>
<pdfrwt beam="2">0</pdfrwt>
<totfact> 0.21404792E+04</totfact>
</mgrwt>
</event>
<event>
 6    1  0.1198667E-001  0.3000000E+03  0.7818608E-02  0.1093470E+00
         21   -1    0    0  501  502  0.00000000000E+00  0.00000000000E+00  0.14870619128E+01  0.14870619128E+01  0.00000000000E+00 0. -1.
         13   -1    0    0    0    0 -0.00000000000E+00 -0.00000000000E+00 -0.10000000000E+04  0.10000000000E+04  0.00000000000E+00 0.  1.
    9000005    2    1    2  501    0  0.16760928743E+02  0.31892697293E+02 -0.67575930092E+03  0.67672871610E+03  0.36124141830E+01 0.  0.
         13    1    3    3    0    0  0.13873103847E+02  0.23363594221E+02 -0.51967615840E+03  0.52038603955E+03  0.00000000000E+00 0.  1.
          3    1    3    3  501    0  0.28878248958E+01  0.85291030720E+01 -0.15608314252E+03  0.15634267655E+03  0.00000000000E+00 0.  1.
         -1    1    1    2    0  502 -0.16760928743E+02 -0.31892697293E+02 -0.32275363716E+03  0.32475834581E+03  0.00000000000E+00 0. -1.
<mgrwt>
<rscale>  1 0.30000000E+03</rscale>
<asrwt>0</asrwt>
<pdfrwt beam="1">  1       21 0.54075093E-02 0.30000000E+03</pdfrwt>
<pdfrwt beam="2">0</pdfrwt>
<totfact> 0.25195859E+04</totfact>
</mgrwt>
</event>
<event>
 6    1  0.1198667E-001  0.3000000E+03  0.7818608E-02  0.1093470E+00
         21   -1    0    0  501  502  0.00000000000E+00  0.00000000000E+00  0.28318458123E+01  0.28318458123E+01  0.00000000000E+00 0. -1.
         13   -1    0    0    0    0 -0.00000000000E+00 -0.00000000000E+00 -0.10000000000E+04  0.10000000000E+04  0.00000000000E+00 0.  1.
    9000005    2    1    2  501    0  0.35153464607E+02  0.35167827874E+02 -0.67590386053E+03  0.67774218345E+03  0.39870246645E+01 0.  0.
         13    1    3    3    0    0  0.12966314460E+02  0.15049789119E+02 -0.28718916146E+03  0.28787538263E+03  0.00000000000E+00 0.  1.
          3    1    3    3  501    0  0.22187150147E+02  0.20118038755E+02 -0.38871469906E+03  0.38986680082E+03  0.00000000000E+00 0.  1.
         -1    1    1    2    0  502 -0.35153464607E+02 -0.35167827874E+02 -0.32126429366E+03  0.32508966236E+03  0.00000000000E+00 0. -1.
<mgrwt>
<rscale>  1 0.30000000E+03</rscale>
<asrwt>0</asrwt>
<pdfrwt beam="1">  1       21 0.10297643E-01 0.30000000E+03</pdfrwt>
<pdfrwt beam="2">0</pdfrwt>
<totfact> 0.81635458E+03</totfact>
</mgrwt>
</event>
<event>
 6    1  0.1198667E-001  0.3000000E+03  0.7818608E-02  0.1093470E+00
         21   -1    0    0  501  502  0.00000000000E+00  0.00000000000E+00  0.11825533665E+01  0.11825533665E+01  0.00000000000E+00 0. -1.
         13   -1    0    0    0    0 -0.00000000000E+00 -0.00000000000E+00 -0.10000000000E+04  0.10000000000E+04  0.00000000000E+00 0.  1.
    9000005    2    1    2  501    0 -0.26122371454E+02 -0.17669042565E+02 -0.69563469231E+03  0.69636399115E+03  0.45397866145E+01 0.  0.
         13    1    3    3    0    0  0.11513912010E-01  0.12329523649E+00 -0.99980347611E+01  0.99988015966E+01  0.00000000000E+00 0.  1.
          3    1    3    3  501    0 -0.26133885366E+02 -0.17792337802E+02 -0.68563665755E+03  0.68636518955E+03  0.00000000000E+00 0.  1.
         -3    1    1    2    0  502  0.26122371454E+02  0.17669042565E+02 -0.30318275432E+03  0.30481856222E+03  0.00000000000E+00 0. -1.
<mgrwt>
<rscale>  1 0.30000000E+03</rscale>
<asrwt>0</asrwt>
<pdfrwt beam="1">  1       21 0.43002031E-02 0.30000000E+03</pdfrwt>
<pdfrwt beam="2">0</pdfrwt>
<totfact> 0.37213771E+04</totfact>
</mgrwt>
</event>
<event>
 6    1  0.1198667E-001  0.3000000E+03  0.7818608E-02  0.1093470E+00
         21   -1    0    0  501  502  0.00000000000E+00  0.00000000000E+00  0.22814659385E+02  0.22814659385E+02  0.00000000000E+00 0. -1.
         13   -1    0    0    0    0 -0.00000000000E+00 -0.00000000000E+00 -0.10000000000E+04  0.10000000000E+04  0.00000000000E+00 0.  1.
    9000005    2    1    2  501    0  0.73196839653E+02  0.29687821125E+02 -0.92448884937E+03  0.92786170131E+03  0.29257621809E+01 0.  0.
         13    1    3    3    0    0  0.39443405460E+02  0.16648792541E+02 -0.48540974757E+03  0.48729414891E+03  0.00000000000E+00 0.  1.
          1    1    3    3  501    0  0.33753434193E+02  0.13039028584E+02 -0.43907910180E+03  0.44056755239E+03  0.00000000000E+00 0.  1.
         -1    1    1    2    0  502 -0.73196839653E+02 -0.29687821125E+02 -0.52696491244E+02  0.94952958078E+02  0.00000000000E+00 0. -1.
<mgrwt>
<rscale>  1 0.30000000E+03</rscale>
<asrwt>0</asrwt>
<pdfrwt beam="1">  1       21 0.82962573E-01 0.30000000E+03</pdfrwt>
<pdfrwt beam="2">0</pdfrwt>
<totfact> 0.11784914E+02</totfact>
</mgrwt>
</event>
<event>
 6    1  0.1198667E-001  0.3000000E+03  0.7818608E-02  0.1093470E+00
         21   -1    0    0  501  502  0.00000000000E+00  0.00000000000E+00  0.61550314207E+01  0.61550314207E+01  0.00000000000E+00 0. -1.
         13   -1    0    0    0    0 -0.00000000000E+00 -0.00000000000E+00 -0.10000000000E+04  0.10000000000E+04  0.00000000000E+00 0.  1.
    9000005    2    1    2  501    0  0.50408958094E+02  0.36993171656E+02 -0.80046643975E+03  0.80291917529E+03  0.48086459259E+01 0.  0.
         13    1    3    3    0    0  0.31522226661E+02  0.23394096362E+02 -0.53157704961E+03  0.53302447804E+03  0.00000000000E+00 0.  1.
          1    1    3    3  501    0  0.18886731434E+02  0.13599075294E+02 -0.26888939014E+03  0.26989469725E+03  0.00000000000E+00 0.  1.
         -1    1    1    2    0  502 -0.50408958094E+02 -0.36993171656E+02 -0.19337852883E+03  0.20323585613E+03  0.00000000000E+00 0. -1.
<mgrwt>
<rscale>  1 0.30000000E+03</rscale>
<asrwt>0</asrwt>
<pdfrwt beam="1">  1       21 0.22381980E-01 0.30000000E+03</pdfrwt>
<pdfrwt beam="2">0</pdfrwt>
<totfact> 0.19333817E+03</totfact>
</mgrwt>
</event>
<event>
 6    1  0.1198667E-001  0.3000000E+03  0.7818608E-02  0.1093470E+00
         21   -1    0    0  501  502  0.00000000000E+00  0.00000000000E+00  0.26932419487E+01  0.26932419487E+01  0.00000000000E+00 0. -1.
         13   -1    0    0    0    0 -0.00000000000E+00 -0.00000000000E+00 -0.10000000000E+04  0.10000000000E+04  0.00000000000E+00 0.  1.
    9000005    2    1    2  501    0 -0.33817130869E+02 -0.15678366665E+02 -0.84728326116E+03  0.84810844599E+03  0.30987092621E+01 0.  0.
         13    1    3    3    0    0 -0.20905366961E+02 -0.80183751495E+01 -0.50670466168E+03  0.50719911561E+03  0.00000000000E+00 0.  1.
          1    1    3    3  501    0 -0.12911763909E+02 -0.76599915159E+01 -0.34057859948E+03  0.34090933038E+03  0.00000000000E+00 0.  1.
         -1    1    1    2    0  502  0.33817130869E+02  0.15678366665E+02 -0.15002349689E+03  0.15458479596E+03  0.00000000000E+00 0. -1.
<mgrwt>
<rscale>  1 0.30000000E+03</rscale>
<asrwt>0</asrwt>
<pdfrwt beam="1">  1       21 0.97936277E-02 0.30000000E+03</pdfrwt>
<pdfrwt beam="2">0</pdfrwt>
<totfact> 0.89296092E+03</totfact>
</mgrwt>
</event>
<event>
 6    1  0.1198667E-001  0.3000000E+03  0.7818608E-02  0.1093470E+00
         21   -1    0    0  501  502  0.00000000000E+00  0.00000000000E+00  0.31362374769E+01  0.31362374769E+01  0.00000000000E+00 0. -1.
         13   -1    0    0    0    0 -0.00000000000E+00 -0.00000000000E+00 -0.10000000000E+04  0.10000000000E+04  0.00000000000E+00 0.  1.
    9000005    2    1    2  501    0  0.14067797639E+02 -0.40183915488E+02 -0.82403865847E+03  0.82514419669E+03  0.32534097600E+01 0.  0.
         13    1    3    3    0    0  0.99030973033E+01 -0.24708998017E+02 -0.53423998477E+03  0.53490276429E+03  0.00000000000E+00 0.  1.
          1    1    3    3  501    0  0.41647003353E+01 -0.15474917472E+02 -0.28979867371E+03  0.29024143240E+03  0.00000000000E+00 0.  1.
         -3    1    1    2    0  502 -0.14067797639E+02  0.40183915488E+02 -0.17282510405E+03  0.17799204079E+03  0.00000000000E+00 0. -1.
<mgrwt>
<rscale>  1 0.30000000E+03</rscale>
<asrwt>0</asrwt>
<pdfrwt beam="1">  1       21 0.11404524E-01 0.30000000E+03</pdfrwt>
<pdfrwt beam="2">0</pdfrwt>
<totfact> 0.67950877E+03</totfact>
</mgrwt>
</event>
<event>
 6    1  0.1198667E-001  0.3000000E+03  0.7818608E-02  0.1093470E+00
         21   -1    0    0  501  502  0.00000000000E+00  0.00000000000E+00  0.15976507605E+01  0.15976507605E+01  0.00000000000E+00 0. -1.
         13   -1    0    0    0    0 -0.00000000000E+00 -0.00000000000E+00 -0.10000000000E+04  0.10000000000E+04  0.00000000000E+00 0.  1.
    9000005    2    1    2  501    0 -0.27706203966E+02 -0.28548025859E+02 -0.47527908188E+03  0.47696389625E+03  0.46614520136E+01 0.  0.
         13    1    3    3    0    0 -0.47105919169E+01 -0.45890897776E+01 -0.60080314487E+02  0.60439172811E+02  0.00000000000E+00 0.  1.
          1    1    3    3  501    0 -0.22995612049E+02 -0.23958936082E+02 -0.41519876739E+03  0.41652472344E+03  0.00000000000E+00 0.  1.
         -1    1    1    2    0  502  0.27706203966E+02  0.28548025859E+02 -0.52312326736E+03  0.52463375451E+03  0.00000000000E+00 0. -1.
<mgrwt>
<rscale>  1 0.30000000E+03</rscale>
<asrwt>0</asrwt>
<pdfrwt beam="1">  1       21 0.58096514E-02 0.30000000E+03</pdfrwt>
<pdfrwt beam="2">0</pdfrwt>
<totfact> 0.22275694E+04</totfact>
</mgrwt>
</event>
<event>
 6    1  0.1198667E-001  0.3000000E+03  0.7818608E-02  0.1093470E+00
         21   -1    0    0  501  502  0.00000000000E+00  0.00000000000E+00  0.20540252350E+01  0.20540252350E+01  0.00000000000E+00 0. -1.
         13   -1    0    0    0    0 -0.00000000000E+00 -0.00000000000E+00 -0.10000000000E+04  0.10000000000E+04  0.00000000000E+00 0.  1.
    9000005    2    1    2  501    0  0.27240700023E+02 -0.32008880518E+02 -0.31341706272E+03  0.31623593303E+03  0.28785353540E+01 0.  0.
         13    1    3    3    0    0  0.24494037585E+02 -0.28189996523E+02 -0.28407850902E+03  0.28652265716E+03  0.00000000000E+00 0.  1.
          3    1    3    3  501    0  0.27466624377E+01 -0.38188839947E+01 -0.29338553706E+02  0.29713275872E+02  0.00000000000E+00 0.  1.
         -1    1    1    2    0  502 -0.27240700023E+02  0.32008880518E+02 -0.68452891204E+03  0.68581809220E+03  0.00000000000E+00 0. -1.
<mgrwt>
<rscale>  1 0.30000000E+03</rscale>
<asrwt>0</asrwt>
<pdfrwt beam="1">  1       21 0.74691984E-02 0.30000000E+03</pdfrwt>
<pdfrwt beam="2">0</pdfrwt>
<totfact> 0.14407896E+04</totfact>
</mgrwt>
</event>
<event>
 6    1  0.1198667E-001  0.3000000E+03  0.7818608E-02  0.1093470E+00
         21   -1    0    0  501  502  0.00000000000E+00  0.00000000000E+00  0.14618020836E+01  0.14618020836E+01  0.00000000000E+00 0. -1.
         13   -1    0    0    0    0 -0.00000000000E+00 -0.00000000000E+00 -0.10000000000E+04  0.10000000000E+04  0.00000000000E+00 0.  1.
    9000005    2    1    2  501    0  0.52109916756E+01  0.31344404519E+02 -0.77700055104E+03  0.77765707668E+03  0.33236225715E+01 0.  0.
         13    1    3    3    0    0  0.42860429037E+01  0.27821581286E+02 -0.70968387739E+03  0.71024194214E+03  0.00000000000E+00 0.  1.
          1    1    3    3  501    0  0.92494877190E+00  0.35228232338E+01 -0.67316673654E+02  0.67415134544E+02  0.00000000000E+00 0.  1.
         -1    1    1    2    0  502 -0.52109916756E+01 -0.31344404519E+02 -0.22153764688E+03  0.22380472540E+03  0.00000000000E+00 0. -1.
<mgrwt>
<rscale>  1 0.30000000E+03</rscale>
<asrwt>0</asrwt>
<pdfrwt beam="1">  1       21 0.53156551E-02 0.30000000E+03</pdfrwt>
<pdfrwt beam="2">0</pdfrwt>
<totfact> 0.25945638E+04</totfact>
</mgrwt>
</event>
<event>
 6    1  0.1198667E-001  0.3000000E+03  0.7818608E-02  0.1093470E+00
         21   -1    0    0  501  502  0.00000000000E+00  0.00000000000E+00  0.21334248454E+01  0.21334248454E+01  0.00000000000E+00 0. -1.
         13   -1    0    0    0    0 -0.00000000000E+00 -0.00000000000E+00 -0.10000000000E+04  0.10000000000E+04  0.00000000000E+00 0.  1.
    9000005    2    1    2  501    0 -0.36615147710E+01  0.38585779893E+02 -0.77084452151E+03  0.77182649499E+03  0.35486503525E+01 0.  0.
         13    1    3    3    0    0 -0.24028498457E+01  0.35587964395E+02 -0.70497463581E+03  0.70587641555E+03  0.00000000000E+00 0.  1.
          1    1    3    3  501    0 -0.12586649253E+01  0.29978154981E+01 -0.65869885702E+02  0.65950079435E+02  0.00000000000E+00 0.  1.
         -1    1    1    2    0  502  0.36615147710E+01 -0.38585779893E+02 -0.22702205364E+03  0.23030692986E+03  0.00000000000E+00 0. -1.
<mgrwt>
<rscale>  1 0.30000000E+03</rscale>
<asrwt>0</asrwt>
<pdfrwt beam="1">  1       21 0.77579249E-02 0.30000000E+03</pdfrwt>
<pdfrwt beam="2">0</pdfrwt>
<totfact> 0.13481611E+04</totfact>
</mgrwt>
</event>
<event>
 6    1  0.1198667E-001  0.3000000E+03  0.7818608E-02  0.1093470E+00
         21   -1    0    0  501  502  0.00000000000E+00  0.00000000000E+00  0.23495723334E+01  0.23495723334E+01  0.00000000000E+00 0. -1.
         13   -1    0    0    0    0 -0.00000000000E+00 -0.00000000000E+00 -0.10000000000E+04  0.10000000000E+04  0.00000000000E+00 0.  1.
    9000005    2    1    2  501    0  0.10673047352E+02 -0.33105949543E+02 -0.84758608156E+03  0.84830663738E+03  0.34738369764E+01 0.  0.
         13    1    3    3    0    0  0.90330352974E+01 -0.26182824028E+02 -0.64109630067E+03  0.64169432188E+03  0.00000000000E+00 0.  1.
          3    1    3    3  501    0  0.16400120548E+01 -0.69231255154E+01 -0.20648978089E+03  0.20661231551E+03  0.00000000000E+00 0.  1.
         -1    1    1    2    0  502 -0.10673047352E+02  0.33105949543E+02 -0.15006434611E+03  0.15404293495E+03  0.00000000000E+00 0. -1.
<mgrwt>
<rscale>  1 0.30000000E+03</rscale>
<asrwt>0</asrwt>
<pdfrwt beam="1">  1       21 0.85439174E-02 0.30000000E+03</pdfrwt>
<pdfrwt beam="2">0</pdfrwt>
<totfact> 0.11377379E+04</totfact>
</mgrwt>
</event>
<event>
 6    1  0.1198667E-001  0.3000000E+03  0.7818608E-02  0.1093470E+00
         21   -1    0    0  501  502  0.00000000000E+00  0.00000000000E+00  0.13767017041E+01  0.13767017041E+01  0.00000000000E+00 0. -1.
         13   -1    0    0    0    0 -0.00000000000E+00 -0.00000000000E+00 -0.10000000000E+04  0.10000000000E+04  0.00000000000E+00 0.  1.
    9000005    2    1    2  501    0  0.15545708444E+00 -0.30674747270E+02 -0.77282817738E+03  0.77350743893E+03  0.10459543176E+02 0.  0.
         13    1    3    3    0    0 -0.18413591933E+01 -0.20019680443E+02 -0.38171695916E+03  0.38224601387E+03  0.00000000000E+00 0.  1.
          1    1    3    3  501    0  0.19968162778E+01 -0.10655066826E+02 -0.39111121822E+03  0.39126142506E+03  0.00000000000E+00 0.  1.
         -3    1    1    2    0  502 -0.15545708444E+00  0.30674747270E+02 -0.22579512091E+03  0.22786926277E+03  0.00000000000E+00 0. -1.
<mgrwt>
<rscale>  1 0.30000000E+03</rscale>
<asrwt>0</asrwt>
<pdfrwt beam="1">  1       21 0.50061986E-02 0.30000000E+03</pdfrwt>
<pdfrwt beam="2">0</pdfrwt>
<totfact> 0.28743880E+04</totfact>
</mgrwt>
</event>
<event>
 6    1  0.1198667E-001  0.3000000E+03  0.7818608E-02  0.1093470E+00
         21   -1    0    0  501  502  0.00000000000E+00  0.00000000000E+00  0.12803235787E+02  0.12803235787E+02  0.00000000000E+00 0. -1.
         13   -1    0    0    0    0 -0.00000000000E+00 -0.00000000000E+00 -0.10000000000E+04  0.10000000000E+04  0.00000000000E+00 0.  1.
    9000005    2    1    2  501    0 -0.74335766338E+02  0.13302781102E+02 -0.87063407688E+03  0.87391612256E+03  0.47878288983E+01 0.  0.
         13    1    3    3    0    0 -0.73061430040E+02  0.12485785366E+02 -0.85651914615E+03  0.85972025399E+03  0.00000000000E+00 0.  1.
          1    1    3    3  501    0 -0.12743362984E+01  0.81699573639E+00 -0.14114930730E+02  0.14195868573E+02  0.00000000000E+00 0.  1.
         -1    1    1    2    0  502  0.74335766338E+02 -0.13302781102E+02 -0.11656268734E+03  0.13888711323E+03  0.00000000000E+00 0. -1.
<mgrwt>
<rscale>  1 0.30000000E+03</rscale>
<asrwt>0</asrwt>
<pdfrwt beam="1">  1       21 0.46557319E-01 0.30000000E+03</pdfrwt>
<pdfrwt beam="2">0</pdfrwt>
<totfact> 0.43810438E+02</totfact>
</mgrwt>
</event>
<event>
 6    1  0.1198667E-001  0.3000000E+03  0.7818608E-02  0.1093470E+00
         21   -1    0    0  501  502  0.00000000000E+00  0.00000000000E+00  0.26032540865E+01  0.26032540865E+01  0.00000000000E+00 0. -1.
         13   -1    0    0    0    0 -0.00000000000E+00 -0.00000000000E+00 -0.10000000000E+04  0.10000000000E+04  0.00000000000E+00 0.  1.
    9000005    2    1    2  501    0  0.13825011872E+02  0.29171921448E+02 -0.88641903068E+03  0.88702563847E+03  0.58011540838E+01 0.  0.
         13    1    3    3    0    0  0.21275299371E+01  0.44479836777E+01 -0.20226814001E+03  0.20232822691E+03  0.00000000000E+00 0.  1.
          1    1    3    3  501    0  0.11697481935E+02  0.24723937771E+02 -0.68415089067E+03  0.68469741155E+03  0.00000000000E+00 0.  1.
         -1    1    1    2    0  502 -0.13825011872E+02 -0.29171921448E+02 -0.11097771523E+03  0.11557761562E+03  0.00000000000E+00 0. -1.
<mgrwt>
<rscale>  1 0.30000000E+03</rscale>
<asrwt>0</asrwt>
<pdfrwt beam="1">  1       21 0.94663985E-02 0.30000000E+03</pdfrwt>
<pdfrwt beam="2">0</pdfrwt>
<totfact> 0.94874067E+03</totfact>
</mgrwt>
</event>
<event>
 6    1  0.1198667E-001  0.3000000E+03  0.7818608E-02  0.1093470E+00
         21   -1    0    0  501  502  0.00000000000E+00  0.00000000000E+00  0.92175067266E+00  0.92175067266E+00  0.00000000000E+00 0. -1.
         13   -1    0    0    0    0 -0.00000000000E+00 -0.00000000000E+00 -0.10000000000E+04  0.10000000000E+04  0.00000000000E+00 0.  1.
    9000005    2    1    2  501    0  0.30045229204E+02  0.79489517291E+00 -0.56040184109E+03  0.56121691922E+03  0.32953404527E+01 0.  0.
         13    1    3    3    0    0  0.73081163634E+01 -0.12190321709E+01 -0.13889697165E+03  0.13909444036E+03  0.00000000000E+00 0.  1.
          1    1    3    3  501    0  0.22737112841E+02  0.20139273438E+01 -0.42150486943E+03  0.42212247886E+03  0.00000000000E+00 0.  1.
         -3    1    1    2    0  502 -0.30045229204E+02 -0.79489517291E+00 -0.43867640824E+03  0.43970483145E+03  0.00000000000E+00 0. -1.
<mgrwt>
<rscale>  1 0.30000000E+03</rscale>
<asrwt>0</asrwt>
<pdfrwt beam="1">  1       21 0.33518277E-02 0.30000000E+03</pdfrwt>
<pdfrwt beam="2">0</pdfrwt>
<totfact> 0.56563277E+04</totfact>
</mgrwt>
</event>
<event>
 6    1  0.1198667E-001  0.3000000E+03  0.7818608E-02  0.1093470E+00
         21   -1    0    0  501  502  0.00000000000E+00  0.00000000000E+00  0.18522323985E+01  0.18522323985E+01  0.00000000000E+00 0. -1.
         13   -1    0    0    0    0 -0.00000000000E+00 -0.00000000000E+00 -0.10000000000E+04  0.10000000000E+04  0.00000000000E+00 0.  1.
    9000005    2    1    2  501    0 -0.29047226457E+02 -0.86294438474E+01 -0.85427876061E+03  0.85482672496E+03  0.42802107327E+01 0.  0.
         13    1    3    3    0    0 -0.26213566341E+02 -0.77276265003E+01 -0.79990259601E+03  0.80036930874E+03  0.00000000000E+00 0.  1.
          1    1    3    3  501    0 -0.28336601154E+01 -0.90181734710E+00 -0.54376164601E+02  0.54457416215E+02  0.00000000000E+00 0.  1.
         -3    1    1    2    0  502  0.29047226457E+02  0.86294438474E+01 -0.14386900699E+03  0.14702550744E+03  0.00000000000E+00 0. -1.
<mgrwt>
<rscale>  1 0.30000000E+03</rscale>
<asrwt>0</asrwt>
<pdfrwt beam="1">  1       21 0.67354047E-02 0.30000000E+03</pdfrwt>
<pdfrwt beam="2">0</pdfrwt>
<totfact> 0.17252695E+04</totfact>
</mgrwt>
</event>
<event>
 6    1  0.1198667E-001  0.3000000E+03  0.7818608E-02  0.1093470E+00
         21   -1    0    0  501  502  0.00000000000E+00  0.00000000000E+00  0.22447161334E+01  0.22447161334E+01  0.00000000000E+00 0. -1.
         13   -1    0    0    0    0 -0.00000000000E+00 -0.00000000000E+00 -0.10000000000E+04  0.10000000000E+04  0.00000000000E+00 0.  1.
    9000005    2    1    2  501    0  0.43419216570E+02 -0.12892070153E+02 -0.64528184895E+03  0.64687314135E+03  0.21823332675E+01 0.  0.
         13    1    3    3    0    0  0.24740812816E+02 -0.67472393931E+01 -0.37824008206E+03  0.37910841818E+03  0.00000000000E+00 0.  1.
          3    1    3    3  501    0  0.18678403754E+02 -0.61448307598E+01 -0.26704176689E+03  0.26776472317E+03  0.00000000000E+00 0.  1.
         -3    1    1    2    0  502 -0.43419216570E+02  0.12892070153E+02 -0.35247343492E+03  0.35537157478E+03  0.00000000000E+00 0. -1.
<mgrwt>
<rscale>  1 0.30000000E+03</rscale>
<asrwt>0</asrwt>
<pdfrwt beam="1">  1       21 0.81626213E-02 0.30000000E+03</pdfrwt>
<pdfrwt beam="2">0</pdfrwt>
<totfact> 0.12329985E+04</totfact>
</mgrwt>
</event>
<event>
 6    1  0.1198667E-001  0.3000000E+03  0.7818608E-02  0.1093470E+00
         21   -1    0    0  501  502  0.00000000000E+00  0.00000000000E+00  0.14005138043E+01  0.14005138043E+01  0.00000000000E+00 0. -1.
         13   -1    0    0    0    0 -0.00000000000E+00 -0.00000000000E+00 -0.10000000000E+04  0.10000000000E+04  0.00000000000E+00 0.  1.
    9000005    2    1    2  501    0  0.70457434049E+01  0.36147086056E+02 -0.45058055173E+03  0.45214555765E+03  0.75178036781E+01 0.  0.
         13    1    3    3    0    0  0.12326530065E+01  0.15024627459E+02 -0.14530189752E+03  0.14608182736E+03  0.00000000000E+00 0.  1.
          1    1    3    3  501    0  0.58130903984E+01  0.21122458596E+02 -0.30527865421E+03  0.30606373029E+03  0.00000000000E+00 0.  1.
         -3    1    1    2    0  502 -0.70457434049E+01 -0.36147086056E+02 -0.54801893446E+03  0.54925495615E+03  0.00000000000E+00 0. -1.
<mgrwt>
<rscale>  1 0.30000000E+03</rscale>
<asrwt>0</asrwt>
<pdfrwt beam="1">  1       21 0.50927882E-02 0.30000000E+03</pdfrwt>
<pdfrwt beam="2">0</pdfrwt>
<totfact> 0.27915349E+04</totfact>
</mgrwt>
</event>
<event>
 6    1  0.1198667E-001  0.3000000E+03  0.7818608E-02  0.1093470E+00
         21   -1    0    0  501  502  0.00000000000E+00  0.00000000000E+00  0.12959724692E+01  0.12959724692E+01  0.00000000000E+00 0. -1.
         13   -1    0    0    0    0 -0.00000000000E+00 -0.00000000000E+00 -0.10000000000E+04  0.10000000000E+04  0.00000000000E+00 0.  1.
    9000005    2    1    2  501    0  0.20815752689E+02  0.29262733299E+02 -0.50863637654E+03  0.50991434311E+03  0.34742845983E+01 0.  0.
         13    1    3    3    0    0  0.21461780888E+01  0.45216613995E+01 -0.59834581024E+02  0.60043555762E+02  0.00000000000E+00 0.  1.
          3    1    3    3  501    0  0.18669574601E+02  0.24741071899E+02 -0.44880179552E+03  0.44987078735E+03  0.00000000000E+00 0.  1.
         -1    1    1    2    0  502 -0.20815752689E+02 -0.29262733299E+02 -0.49006765099E+03  0.49138162935E+03  0.00000000000E+00 0. -1.
<mgrwt>
<rscale>  1 0.30000000E+03</rscale>
<asrwt>0</asrwt>
<pdfrwt beam="1">  1       21 0.47126371E-02 0.30000000E+03</pdfrwt>
<pdfrwt beam="2">0</pdfrwt>
<totfact> 0.31858548E+04</totfact>
</mgrwt>
</event>
<event>
 6    1  0.1198667E-001  0.3000000E+03  0.7818608E-02  0.1093470E+00
         21   -1    0    0  501  502  0.00000000000E+00  0.00000000000E+00  0.64323603237E+01  0.64323603237E+01  0.00000000000E+00 0. -1.
         13   -1    0    0    0    0 -0.00000000000E+00 -0.00000000000E+00 -0.10000000000E+04  0.10000000000E+04  0.00000000000E+00 0.  1.
    9000005    2    1    2  501    0  0.66575630652E+01 -0.58343900667E+02 -0.83941285590E+03  0.84147166424E+03  0.35050220278E+01 0.  0.
         13    1    3    3    0    0  0.26450918478E+01 -0.37942545814E+02 -0.54166712606E+03  0.54300083678E+03  0.00000000000E+00 0.  1.
          3    1    3    3  501    0  0.40124712174E+01 -0.20401354853E+02 -0.29774572984E+03  0.29847082745E+03  0.00000000000E+00 0.  1.
         -3    1    1    2    0  502 -0.66575630652E+01  0.58343900667E+02 -0.15415478378E+03  0.16496069609E+03  0.00000000000E+00 0. -1.
<mgrwt>
<rscale>  1 0.30000000E+03</rscale>
<asrwt>0</asrwt>
<pdfrwt beam="1">  1       21 0.23390451E-01 0.30000000E+03</pdfrwt>
<pdfrwt beam="2">0</pdfrwt>
<totfact> 0.17754359E+03</totfact>
</mgrwt>
</event>
<event>
 6    1  0.1198667E-001  0.3000000E+03  0.7818608E-02  0.1093470E+00
         21   -1    0    0  501  502  0.00000000000E+00  0.00000000000E+00  0.12194848860E+01  0.12194848860E+01  0.00000000000E+00 0. -1.
         13   -1    0    0    0    0 -0.00000000000E+00 -0.00000000000E+00 -0.10000000000E+04  0.10000000000E+04  0.00000000000E+00 0.  1.
    9000005    2    1    2  501    0 -0.16146238370E+02  0.29522022256E+02 -0.37045603577E+03  0.37199464260E+03  0.31762982269E+01 0.  0.
         13    1    3    3    0    0 -0.11116805548E+02  0.17384821765E+02 -0.21927898475E+03  0.22024778897E+03  0.00000000000E+00 0.  1.
          1    1    3    3  501    0 -0.50294328223E+01  0.12137200491E+02 -0.15117705102E+03  0.15174685363E+03  0.00000000000E+00 0.  1.
         -1    1    1    2    0  502  0.16146238370E+02 -0.29522022256E+02 -0.62832447934E+03  0.62922484229E+03  0.00000000000E+00 0. -1.
<mgrwt>
<rscale>  1 0.30000000E+03</rscale>
<asrwt>0</asrwt>
<pdfrwt beam="1">  1       21 0.44344998E-02 0.30000000E+03</pdfrwt>
<pdfrwt beam="2">0</pdfrwt>
<totfact> 0.35325788E+04</totfact>
</mgrwt>
</event>
<event>
 6    1  0.1198667E-001  0.3000000E+03  0.7818608E-02  0.1093470E+00
         21   -1    0    0  501  502  0.00000000000E+00  0.00000000000E+00  0.95339958702E+00  0.95339958702E+00  0.00000000000E+00 0. -1.
         13   -1    0    0    0    0 -0.00000000000E+00 -0.00000000000E+00 -0.10000000000E+04  0.10000000000E+04  0.00000000000E+00 0.  1.
    9000005    2    1    2  501    0 -0.29735932304E+02  0.74541985516E+01 -0.50882954435E+03  0.50977873330E+03  0.52020165893E+01 0.  0.
         13    1    3    3    0    0 -0.16141505207E+02  0.33186357273E+01 -0.31366614946E+03  0.31409873424E+03  0.00000000000E+00 0.  1.
          3    1    3    3  501    0 -0.13594427097E+02  0.41355628242E+01 -0.19516339489E+03  0.19567999906E+03  0.00000000000E+00 0.  1.
         -1    1    1    2    0  502  0.29735932304E+02 -0.74541985516E+01 -0.49021705607E+03  0.49117466629E+03  0.00000000000E+00 0. -1.
<mgrwt>
<rscale>  1 0.30000000E+03</rscale>
<asrwt>0</asrwt>
<pdfrwt beam="1">  1       21 0.34669149E-02 0.30000000E+03</pdfrwt>
<pdfrwt beam="2">0</pdfrwt>
<totfact> 0.53460015E+04</totfact>
</mgrwt>
</event>
<event>
 6    1  0.1198667E-001  0.3000000E+03  0.7818608E-02  0.1093470E+00
         21   -1    0    0  501  502  0.00000000000E+00  0.00000000000E+00  0.20340255834E+01  0.20340255834E+01  0.00000000000E+00 0. -1.
         13   -1    0    0    0    0 -0.00000000000E+00 -0.00000000000E+00 -0.10000000000E+04  0.10000000000E+04  0.00000000000E+00 0.  1.
    9000005    2    1    2  501    0  0.37765381795E+02 -0.10632829326E+02 -0.74539224756E+03  0.74643127008E+03  0.32798036857E+01 0.  0.
         13    1    3    3    0    0  0.12041925373E+02 -0.23101069920E+01 -0.21208069442E+03  0.21243485003E+03  0.00000000000E+00 0.  1.
          1    1    3    3  501    0  0.25723456422E+02 -0.83227223343E+01 -0.53331155314E+03  0.53399642005E+03  0.00000000000E+00 0.  1.
         -3    1    1    2    0  502 -0.37765381795E+02  0.10632829326E+02 -0.25257372686E+03  0.25560275550E+03  0.00000000000E+00 0. -1.
<mgrwt>
<rscale>  1 0.30000000E+03</rscale>
<asrwt>0</asrwt>
<pdfrwt beam="1">  1       21 0.73964723E-02 0.30000000E+03</pdfrwt>
<pdfrwt beam="2">0</pdfrwt>
<totfact> 0.14656706E+04</totfact>
</mgrwt>
</event>
<event>
 6    1  0.1198667E-001  0.3000000E+03  0.7818608E-02  0.1093470E+00
         21   -1    0    0  501  502  0.00000000000E+00  0.00000000000E+00  0.63713646252E+01  0.63713646252E+01  0.00000000000E+00 0. -1.
         13   -1    0    0    0    0 -0.00000000000E+00 -0.00000000000E+00 -0.10000000000E+04  0.10000000000E+04  0.00000000000E+00 0.  1.
    9000005    2    1    2  501    0  0.49636857943E+02  0.24515961258E+02 -0.85919899258E+03  0.86098849464E+03  0.36645643391E+01 0.  0.
         13    1    3    3    0    0  0.47728238031E+02  0.24007587192E+02 -0.81870298045E+03  0.82044434251E+03  0.00000000000E+00 0.  1.
          3    1    3    3  501    0  0.19086199118E+01  0.50837406594E+00 -0.40496012122E+02  0.40544152130E+02  0.00000000000E+00 0.  1.
         -3    1    1    2    0  502 -0.49636857943E+02 -0.24515961258E+02 -0.13442964280E+03  0.14538286999E+03  0.00000000000E+00 0. -1.
<mgrwt>
<rscale>  1 0.30000000E+03</rscale>
<asrwt>0</asrwt>
<pdfrwt beam="1">  1       21 0.23168647E-01 0.30000000E+03</pdfrwt>
<pdfrwt beam="2">0</pdfrwt>
<totfact> 0.18085197E+03</totfact>
</mgrwt>
</event>
<event>
 6    1  0.1198667E-001  0.3000000E+03  0.7818608E-02  0.1093470E+00
         21   -1    0    0  501  502  0.00000000000E+00  0.00000000000E+00  0.10656650021E+01  0.10656650021E+01  0.00000000000E+00 0. -1.
         13   -1    0    0    0    0 -0.00000000000E+00 -0.00000000000E+00 -0.10000000000E+04  0.10000000000E+04  0.00000000000E+00 0.  1.
    9000005    2    1    2  501    0  0.22295960443E+02 -0.22996666774E+02 -0.58775959325E+03  0.58864521838E+03  0.39871214741E+01 0.  0.
         13    1    3    3    0    0  0.18663050751E+02 -0.18697156398E+02 -0.50870294307E+03  0.50938843470E+03  0.00000000000E+00 0.  1.
          3    1    3    3  501    0  0.36329096920E+01 -0.42995103764E+01 -0.79056650177E+02  0.79256783681E+02  0.00000000000E+00 0.  1.
         -1    1    1    2    0  502 -0.22295960443E+02  0.22996666774E+02 -0.41117474175E+03  0.41242044662E+03  0.00000000000E+00 0. -1.
<mgrwt>
<rscale>  1 0.30000000E+03</rscale>
<asrwt>0</asrwt>
<pdfrwt beam="1">  1       21 0.38751536E-02 0.30000000E+03</pdfrwt>
<pdfrwt beam="2">0</pdfrwt>
<totfact> 0.44351831E+04</totfact>
</mgrwt>
</event>
<event>
 6    1  0.1198667E-001  0.3000000E+03  0.7818608E-02  0.1093470E+00
         21   -1    0    0  501  502  0.00000000000E+00  0.00000000000E+00  0.12081077169E+01  0.12081077169E+01  0.00000000000E+00 0. -1.
         13   -1    0    0    0    0 -0.00000000000E+00 -0.00000000000E+00 -0.10000000000E+04  0.10000000000E+04  0.00000000000E+00 0.  1.
    9000005    2    1    2  501    0  0.20521884610E+01 -0.34430819829E+02 -0.52372718164E+03  0.52489290522E+03  0.57191196812E+01 0.  0.
         13    1    3    3    0    0 -0.18400237288E+01 -0.17123910635E+02 -0.25582777978E+03  0.25640683866E+03  0.00000000000E+00 0.  1.
          1    1    3    3  501    0  0.38922121898E+01 -0.17306909194E+02 -0.26789940185E+03  0.26848606656E+03  0.00000000000E+00 0.  1.
         -1    1    1    2    0  502 -0.20521884610E+01  0.34430819829E+02 -0.47506471065E+03  0.47631520250E+03  0.00000000000E+00 0. -1.
<mgrwt>
<rscale>  1 0.30000000E+03</rscale>
<asrwt>0</asrwt>
<pdfrwt beam="1">  1       21 0.43931282E-02 0.30000000E+03</pdfrwt>
<pdfrwt beam="2">0</pdfrwt>
<totfact> 0.35891301E+04</totfact>
</mgrwt>
</event>
<event>
 6    1  0.1198667E-001  0.3000000E+03  0.7818608E-02  0.1093470E+00
         21   -1    0    0  501  502  0.00000000000E+00  0.00000000000E+00  0.49249431468E+01  0.49249431468E+01  0.00000000000E+00 0. -1.
         13   -1    0    0    0    0 -0.00000000000E+00 -0.00000000000E+00 -0.10000000000E+04  0.10000000000E+04  0.00000000000E+00 0.  1.
    9000005    2    1    2  501    0 -0.34121651406E+02 -0.48717811330E+01 -0.93518031090E+03  0.93582066007E+03  0.31737332387E+01 0.  0.
         13    1    3    3    0    0 -0.20309041101E+02 -0.43293239413E+01 -0.57867861906E+03  0.57905107232E+03  0.00000000000E+00 0.  1.
          3    1    3    3  501    0 -0.13812610305E+02 -0.54245719167E+00 -0.35650169183E+03  0.35676958775E+03  0.00000000000E+00 0.  1.
         -1    1    1    2    0  502  0.34121651406E+02  0.48717811330E+01 -0.59894745957E+02  0.69104283076E+02  0.00000000000E+00 0. -1.
<mgrwt>
<rscale>  1 0.30000000E+03</rscale>
<asrwt>0</asrwt>
<pdfrwt beam="1">  1       21 0.17908922E-01 0.30000000E+03</pdfrwt>
<pdfrwt beam="2">0</pdfrwt>
<totfact> 0.29576678E+03</totfact>
</mgrwt>
</event>
<event>
 6    1  0.1198667E-001  0.3000000E+03  0.7818608E-02  0.1093470E+00
         21   -1    0    0  501  502  0.00000000000E+00  0.00000000000E+00  0.12516131100E+01  0.12516131100E+01  0.00000000000E+00 0. -1.
         13   -1    0    0    0    0 -0.00000000000E+00 -0.00000000000E+00 -0.10000000000E+04  0.10000000000E+04  0.00000000000E+00 0.  1.
    9000005    2    1    2  501    0  0.32419270715E+02  0.95254200425E+01 -0.35497919233E+03  0.35659626442E+03  0.29876520114E+01 0.  0.
         13    1    3    3    0    0  0.11131111188E+02  0.21719991407E+01 -0.10923954535E+03  0.10982667019E+03  0.00000000000E+00 0.  1.
          3    1    3    3  501    0  0.21288159527E+02  0.73534209019E+01 -0.24573964699E+03  0.24676959423E+03  0.00000000000E+00 0.  1.
         -1    1    1    2    0  502 -0.32419270715E+02 -0.95254200425E+01 -0.64376919456E+03  0.64465534869E+03  0.00000000000E+00 0. -1.
<mgrwt>
<rscale>  1 0.30000000E+03</rscale>
<asrwt>0</asrwt>
<pdfrwt beam="1">  1       21 0.45513300E-02 0.30000000E+03</pdfrwt>
<pdfrwt beam="2">0</pdfrwt>
<totfact> 0.33801034E+04</totfact>
</mgrwt>
</event>
<event>
 6    1  0.1198667E-001  0.3000000E+03  0.7818608E-02  0.1093470E+00
         21   -1    0    0  501  502  0.00000000000E+00  0.00000000000E+00  0.12949877539E+01  0.12949877539E+01  0.00000000000E+00 0. -1.
         13   -1    0    0    0    0 -0.00000000000E+00 -0.00000000000E+00 -0.10000000000E+04  0.10000000000E+04  0.00000000000E+00 0.  1.
    9000005    2    1    2  501    0  0.99505325076E+01  0.34274649496E+02 -0.44466588932E+03  0.44610752894E+03  0.32263840379E+01 0.  0.
         13    1    3    3    0    0  0.68499488509E+01  0.28082238048E+02 -0.35589988113E+03  0.35707178449E+03  0.00000000000E+00 0.  1.
          3    1    3    3  501    0  0.31005836567E+01  0.61924114477E+01 -0.88766008190E+02  0.89035744443E+02  0.00000000000E+00 0.  1.
         -1    1    1    2    0  502 -0.99505325076E+01 -0.34274649496E+02 -0.55403912293E+03  0.55518745882E+03  0.00000000000E+00 0. -1.
<mgrwt>
<rscale>  1 0.30000000E+03</rscale>
<asrwt>0</asrwt>
<pdfrwt beam="1">  1       21 0.47090563E-02 0.30000000E+03</pdfrwt>
<pdfrwt beam="2">0</pdfrwt>
<totfact> 0.31899751E+04</totfact>
</mgrwt>
</event>
<event>
 6    1  0.1198667E-001  0.3000000E+03  0.7818608E-02  0.1093470E+00
         21   -1    0    0  501  502  0.00000000000E+00  0.00000000000E+00  0.25990894391E+01  0.25990894391E+01  0.00000000000E+00 0. -1.
         13   -1    0    0    0    0 -0.00000000000E+00 -0.00000000000E+00 -0.10000000000E+04  0.10000000000E+04  0.00000000000E+00 0.  1.
    9000005    2    1    2  501    0 -0.10724206792E+02  0.40694401477E+02 -0.78107129269E+03  0.78221409337E+03  0.39345500505E+01 0.  0.
         13    1    3    3    0    0 -0.17051207516E+01  0.27101505923E+01 -0.52462140264E+02  0.52559761359E+02  0.00000000000E+00 0.  1.
          3    1    3    3  501    0 -0.90190860403E+01  0.37984250885E+02 -0.72860915242E+03  0.72965433201E+03  0.00000000000E+00 0.  1.
         -3    1    1    2    0  502  0.10724206792E+02 -0.40694401477E+02 -0.21632961788E+03  0.22038499607E+03  0.00000000000E+00 0. -1.
<mgrwt>
<rscale>  1 0.30000000E+03</rscale>
<asrwt>0</asrwt>
<pdfrwt beam="1">  1       21 0.94512543E-02 0.30000000E+03</pdfrwt>
<pdfrwt beam="2">0</pdfrwt>
<totfact> 0.95144912E+03</totfact>
</mgrwt>
</event>
<event>
 6    1  0.1198667E-001  0.3000000E+03  0.7818608E-02  0.1093470E+00
         21   -1    0    0  501  502  0.00000000000E+00  0.00000000000E+00  0.13865375117E+01  0.13865375117E+01  0.00000000000E+00 0. -1.
         13   -1    0    0    0    0 -0.00000000000E+00 -0.00000000000E+00 -0.10000000000E+04  0.10000000000E+04  0.00000000000E+00 0.  1.
    9000005    2    1    2  501    0 -0.36232722192E+02  0.26116949068E+01 -0.60578035087E+03  0.60687736817E+03  0.32673221428E+01 0.  0.
         13    1    3    3    0    0 -0.12107112885E+02  0.74956649120E+00 -0.17751048709E+03  0.17792447010E+03  0.00000000000E+00 0.  1.
          1    1    3    3  501    0 -0.24125609307E+02  0.18621284156E+01 -0.42826986378E+03  0.42895289807E+03  0.00000000000E+00 0.  1.
         -1    1    1    2    0  502  0.36232722192E+02 -0.26116949068E+01 -0.39283311162E+03  0.39450916934E+03  0.00000000000E+00 0. -1.
<mgrwt>
<rscale>  1 0.30000000E+03</rscale>
<asrwt>0</asrwt>
<pdfrwt beam="1">  1       21 0.50419652E-02 0.30000000E+03</pdfrwt>
<pdfrwt beam="2">0</pdfrwt>
<totfact> 0.28397069E+04</totfact>
</mgrwt>
</event>
<event>
 6    1  0.1198667E-001  0.3000000E+03  0.7818608E-02  0.1093470E+00
         21   -1    0    0  501  502  0.00000000000E+00  0.00000000000E+00  0.13951454733E+01  0.13951454733E+01  0.00000000000E+00 0. -1.
         13   -1    0    0    0    0 -0.00000000000E+00 -0.00000000000E+00 -0.10000000000E+04  0.10000000000E+04  0.00000000000E+00 0.  1.
    9000005    2    1    2  501    0 -0.12821697430E+02 -0.28210705581E+02 -0.77797200483E+03  0.77859681917E+03  0.35109402944E+01 0.  0.
         13    1    3    3    0    0 -0.28516848280E+01 -0.80998204837E+01 -0.18253987500E+03  0.18274174444E+03  0.00000000000E+00 0.  1.
          3    1    3    3  501    0 -0.99700126021E+01 -0.20110885098E+02 -0.59543212983E+03  0.59585507473E+03  0.00000000000E+00 0.  1.
         -3    1    1    2    0  502  0.12821697430E+02  0.28210705581E+02 -0.22063284970E+03  0.22279832630E+03  0.00000000000E+00 0. -1.
<mgrwt>
<rscale>  1 0.30000000E+03</rscale>
<asrwt>0</asrwt>
<pdfrwt beam="1">  1       21 0.50732670E-02 0.30000000E+03</pdfrwt>
<pdfrwt beam="2">0</pdfrwt>
<totfact> 0.28098865E+04</totfact>
</mgrwt>
</event>
<event>
 6    1  0.1198667E-001  0.3000000E+03  0.7818608E-02  0.1093470E+00
         21   -1    0    0  501  502  0.00000000000E+00  0.00000000000E+00  0.13915310810E+01  0.13915310810E+01  0.00000000000E+00 0. -1.
         13   -1    0    0    0    0 -0.00000000000E+00 -0.00000000000E+00 -0.10000000000E+04  0.10000000000E+04  0.00000000000E+00 0.  1.
    9000005    2    1    2  501    0 -0.34454675602E+02  0.78748795061E+00 -0.68820374933E+03  0.68907945198E+03  0.42831931496E+01 0.  0.
         13    1    3    3    0    0 -0.16770296404E+02  0.19342009075E+01 -0.30651475918E+03  0.30697928524E+03  0.00000000000E+00 0.  1.
          1    1    3    3  501    0 -0.17684379198E+02 -0.11467129569E+01 -0.38168899016E+03  0.38210016674E+03  0.00000000000E+00 0.  1.
         -3    1    1    2    0  502  0.34454675602E+02 -0.78748795061E+00 -0.31040471959E+03  0.31231207910E+03  0.00000000000E+00 0. -1.
<mgrwt>
<rscale>  1 0.30000000E+03</rscale>
<asrwt>0</asrwt>
<pdfrwt beam="1">  1       21 0.50601237E-02 0.30000000E+03</pdfrwt>
<pdfrwt beam="2">0</pdfrwt>
<totfact> 0.28223481E+04</totfact>
</mgrwt>
</event>
<event>
 6    1  0.1198667E-001  0.3000000E+03  0.7818608E-02  0.1093470E+00
         21   -1    0    0  501  502  0.00000000000E+00  0.00000000000E+00  0.65805346186E+01  0.65805346186E+01  0.00000000000E+00 0. -1.
         13   -1    0    0    0    0 -0.00000000000E+00 -0.00000000000E+00 -0.10000000000E+04  0.10000000000E+04  0.00000000000E+00 0.  1.
    9000005    2    1    2  501    0  0.36820467922E+02 -0.23413546876E+02 -0.92074238040E+03  0.92181084831E+03  0.80478546236E+01 0.  0.
         13    1    3    3    0    0  0.48240336711E+01 -0.23475207550E+00 -0.90122876829E+02  0.90252198518E+02  0.00000000000E+00 0.  1.
          3    1    3    3  501    0  0.31996434251E+02 -0.23178794800E+02 -0.83061950357E+03  0.83155864979E+03  0.00000000000E+00 0.  1.
         -1    1    1    2    0  502 -0.36820467922E+02  0.23413546876E+02 -0.72677084982E+02  0.84769686309E+02  0.00000000000E+00 0. -1.
<mgrwt>
<rscale>  1 0.30000000E+03</rscale>
<asrwt>0</asrwt>
<pdfrwt beam="1">  1       21 0.23929267E-01 0.30000000E+03</pdfrwt>
<pdfrwt beam="2">0</pdfrwt>
<totfact> 0.16986317E+03</totfact>
</mgrwt>
</event>
<event>
 6    1  0.1198667E-001  0.3000000E+03  0.7818608E-02  0.1093470E+00
         21   -1    0    0  501  502  0.00000000000E+00  0.00000000000E+00  0.84316583130E+01  0.84316583130E+01  0.00000000000E+00 0. -1.
         13   -1    0    0    0    0 -0.00000000000E+00 -0.00000000000E+00 -0.10000000000E+04  0.10000000000E+04  0.00000000000E+00 0.  1.
    9000005    2    1    2  501    0  0.44639921620E+02 -0.71460705584E+02 -0.69594089487E+03  0.70103136171E+03  0.34475922937E+01 0.  0.
         13    1    3    3    0    0  0.64150527355E+01 -0.86331781140E+01 -0.95265960249E+02  0.95871204478E+02  0.00000000000E+00 0.  1.
          3    1    3    3  501    0  0.38224868885E+02 -0.62827527470E+02 -0.60067493462E+03  0.60516015723E+03  0.00000000000E+00 0.  1.
         -1    1    1    2    0  502 -0.44639921620E+02  0.71460705584E+02 -0.29562744681E+03  0.30740029661E+03  0.00000000000E+00 0. -1.
<mgrwt>
<rscale>  1 0.30000000E+03</rscale>
<asrwt>0</asrwt>
<pdfrwt beam="1">  1       21 0.30660640E-01 0.30000000E+03</pdfrwt>
<pdfrwt beam="2">0</pdfrwt>
<totfact> 0.10408458E+03</totfact>
</mgrwt>
</event>
<event>
 6    1  0.1198667E-001  0.3000000E+03  0.7818608E-02  0.1093470E+00
         21   -1    0    0  501  502  0.00000000000E+00  0.00000000000E+00  0.10031370895E+01  0.10031370895E+01  0.00000000000E+00 0. -1.
         13   -1    0    0    0    0 -0.00000000000E+00 -0.00000000000E+00 -0.10000000000E+04  0.10000000000E+04  0.00000000000E+00 0.  1.
    9000005    2    1    2  501    0 -0.70871677487E+01  0.30746529599E+02 -0.47849543568E+03  0.47954622345E+03  0.33348813457E+01 0.  0.
         13    1    3    3    0    0 -0.91059600497E+00  0.87026209809E+01 -0.14863870339E+03  0.14889603400E+03  0.00000000000E+00 0.  1.
          3    1    3    3  501    0 -0.61765717437E+01  0.22043908618E+02 -0.32985673229E+03  0.33065018945E+03  0.00000000000E+00 0.  1.
         -1    1    1    2    0  502  0.70871677487E+01 -0.30746529599E+02 -0.52050142723E+03  0.52145691364E+03  0.00000000000E+00 0. -1.
<mgrwt>
<rscale>  1 0.30000000E+03</rscale>
<asrwt>0</asrwt>
<pdfrwt beam="1">  1       21 0.36477789E-02 0.30000000E+03</pdfrwt>
<pdfrwt beam="2">0</pdfrwt>
<totfact> 0.49092559E+04</totfact>
</mgrwt>
</event>
<event>
 6    1  0.1198667E-001  0.3000000E+03  0.7818608E-02  0.1093470E+00
         21   -1    0    0  501  502  0.00000000000E+00  0.00000000000E+00  0.12801318581E+01  0.12801318581E+01  0.00000000000E+00 0. -1.
         13   -1    0    0    0    0 -0.00000000000E+00 -0.00000000000E+00 -0.10000000000E+04  0.10000000000E+04  0.00000000000E+00 0.  1.
    9000005    2    1    2  501    0 -0.33943952506E+02  0.73678800566E+01 -0.59564957225E+03  0.59671599480E+03  0.80677105010E+01 0.  0.
         13    1    3    3    0    0 -0.39672360089E+01  0.24896965427E+01 -0.12485332574E+03  0.12494114814E+03  0.00000000000E+00 0.  1.
          3    1    3    3  501    0 -0.29976716497E+02  0.48781835139E+01 -0.47079624651E+03  0.47177484665E+03  0.00000000000E+00 0.  1.
         -3    1    1    2    0  502  0.33943952506E+02 -0.73678800566E+01 -0.40307029589E+03  0.40456413706E+03  0.00000000000E+00 0. -1.
<mgrwt>
<rscale>  1 0.30000000E+03</rscale>
<asrwt>0</asrwt>
<pdfrwt beam="1">  1       21 0.46550348E-02 0.30000000E+03</pdfrwt>
<pdfrwt beam="2">0</pdfrwt>
<totfact> 0.32531634E+04</totfact>
</mgrwt>
</event>
<event>
 6    1  0.1198667E-001  0.3000000E+03  0.7818608E-02  0.1093470E+00
         21   -1    0    0  501  502  0.00000000000E+00  0.00000000000E+00  0.30242428034E+01  0.30242428034E+01  0.00000000000E+00 0. -1.
         13   -1    0    0    0    0 -0.00000000000E+00 -0.00000000000E+00 -0.10000000000E+04  0.10000000000E+04  0.00000000000E+00 0.  1.
    9000005    2    1    2  501    0  0.10305326053E+02 -0.43541326047E+02 -0.78972399427E+03  0.79099749908E+03  0.33180719718E+01 0.  0.
         13    1    3    3    0    0  0.72642377805E+01 -0.23781133745E+02 -0.43013560790E+03  0.43085374857E+03  0.00000000000E+00 0.  1.
          3    1    3    3  501    0  0.30410882723E+01 -0.19760192302E+02 -0.35958838638E+03  0.36014375051E+03  0.00000000000E+00 0.  1.
         -3    1    1    2    0  502 -0.10305326053E+02  0.43541326047E+02 -0.20725176292E+03  0.21202674372E+03  0.00000000000E+00 0. -1.
<mgrwt>
<rscale>  1 0.30000000E+03</rscale>
<asrwt>0</asrwt>
<pdfrwt beam="1">  1       21 0.10997270E-01 0.30000000E+03</pdfrwt>
<pdfrwt beam="2">0</pdfrwt>
<totfact> 0.72552623E+03</totfact>
</mgrwt>
</event>
<event>
 6    1  0.1198667E-001  0.3000000E+03  0.7818608E-02  0.1093470E+00
         21   -1    0    0  501  502  0.00000000000E+00  0.00000000000E+00  0.15122533701E+01  0.15122533701E+01  0.00000000000E+00 0. -1.
         13   -1    0    0    0    0 -0.00000000000E+00 -0.00000000000E+00 -0.10000000000E+04  0.10000000000E+04  0.00000000000E+00 0.  1.
    9000005    2    1    2  501    0 -0.19708435507E+02  0.31273722053E+02 -0.65256945720E+03  0.65362443944E+03  0.33975340483E+01 0.  0.
         13    1    3    3    0    0 -0.32434641549E+01  0.78090717345E+01 -0.14702225145E+03  0.14726521681E+03  0.00000000000E+00 0.  1.
          3    1    3    3  501    0 -0.16464971352E+02  0.23464650319E+02 -0.50554720575E+03  0.50635922263E+03  0.00000000000E+00 0.  1.
         -3    1    1    2    0  502  0.19708435507E+02 -0.31273722053E+02 -0.34591828943E+03  0.34788781393E+03  0.00000000000E+00 0. -1.
<mgrwt>
<rscale>  1 0.30000000E+03</rscale>
<asrwt>0</asrwt>
<pdfrwt beam="1">  1       21 0.54991148E-02 0.30000000E+03</pdfrwt>
<pdfrwt beam="2">0</pdfrwt>
<totfact> 0.24480905E+04</totfact>
</mgrwt>
</event>
<event>
 6    1  0.1198667E-001  0.3000000E+03  0.7818608E-02  0.1093470E+00
         21   -1    0    0  501  502  0.00000000000E+00  0.00000000000E+00  0.13423587267E+01  0.13423587267E+01  0.00000000000E+00 0. -1.
         13   -1    0    0    0    0 -0.00000000000E+00 -0.00000000000E+00 -0.10000000000E+04  0.10000000000E+04  0.00000000000E+00 0.  1.
    9000005    2    1    2  501    0  0.14096295139E+02 -0.28871342277E+02 -0.73903008259E+03  0.73973439025E+03  0.30405932467E+01 0.  0.
         13    1    3    3    0    0  0.62877498997E+01 -0.15714892741E+02 -0.40805226362E+03  0.40840316294E+03  0.00000000000E+00 0.  1.
          1    1    3    3  501    0  0.78085452396E+01 -0.13156449536E+02 -0.33097781896E+03  0.33133122731E+03  0.00000000000E+00 0.  1.
         -1    1    1    2    0  502 -0.14096295139E+02  0.28871342277E+02 -0.25962755868E+03  0.26160796848E+03  0.00000000000E+00 0. -1.
<mgrwt>
<rscale>  1 0.30000000E+03</rscale>
<asrwt>0</asrwt>
<pdfrwt beam="1">  1       21 0.48813148E-02 0.30000000E+03</pdfrwt>
<pdfrwt beam="2">0</pdfrwt>
<totfact> 0.30008083E+04</totfact>
</mgrwt>
</event>
<event>
 6    1  0.1198667E-001  0.3000000E+03  0.7818608E-02  0.1093470E+00
         21   -1    0    0  501  502  0.00000000000E+00  0.00000000000E+00  0.19438752686E+01  0.19438752686E+01  0.00000000000E+00 0. -1.
         13   -1    0    0    0    0 -0.00000000000E+00 -0.00000000000E+00 -0.10000000000E+04  0.10000000000E+04  0.00000000000E+00 0.  1.
    9000005    2    1    2  501    0  0.42791815498E+02 -0.95681455180E+01 -0.54565148067E+03  0.54741923253E+03  0.30965967530E+01 0.  0.
         13    1    3    3    0    0  0.37175994974E+02 -0.85413244534E+01 -0.46095121759E+03  0.46252679255E+03  0.00000000000E+00 0.  1.
          3    1    3    3  501    0  0.56158205236E+01 -0.10268210646E+01 -0.84700263076E+02  0.84892439986E+02  0.00000000000E+00 0.  1.
         -1    1    1    2    0  502 -0.42791815498E+02  0.95681455180E+01 -0.45240464407E+03  0.45452464274E+03  0.00000000000E+00 0. -1.
<mgrwt>
<rscale>  1 0.30000000E+03</rscale>
<asrwt>0</asrwt>
<pdfrwt beam="1">  1       21 0.70686522E-02 0.30000000E+03</pdfrwt>
<pdfrwt beam="2">0</pdfrwt>
<totfact> 0.15863434E+04</totfact>
</mgrwt>
</event>
<event>
 6    1  0.1198667E-001  0.3000000E+03  0.7818608E-02  0.1093470E+00
         21   -1    0    0  501  502  0.00000000000E+00  0.00000000000E+00  0.93482358618E+00  0.93482358618E+00  0.00000000000E+00 0. -1.
         13   -1    0    0    0    0 -0.00000000000E+00 -0.00000000000E+00 -0.10000000000E+04  0.10000000000E+04  0.00000000000E+00 0.  1.
    9000005    2    1    2  501    0 -0.11217035754E+02  0.28341736810E+02 -0.52177248642E+03  0.52266984697E+03  0.28575181281E+01 0.  0.
         13    1    3    3    0    0 -0.41289854386E+01  0.12348661814E+02 -0.20198298940E+03  0.20240223807E+03  0.00000000000E+00 0.  1.
          3    1    3    3  501    0 -0.70880503153E+01  0.15993074996E+02 -0.31978949702E+03  0.32026760890E+03  0.00000000000E+00 0.  1.
         -3    1    1    2    0  502  0.11217035754E+02 -0.28341736810E+02 -0.47729268999E+03  0.47826497662E+03  0.00000000000E+00 0. -1.
<mgrwt>
<rscale>  1 0.30000000E+03</rscale>
<asrwt>0</asrwt>
<pdfrwt beam="1">  1       21 0.33993657E-02 0.30000000E+03</pdfrwt>
<pdfrwt beam="2">0</pdfrwt>
<totfact> 0.55248245E+04</totfact>
</mgrwt>
</event>
<event>
 6    1  0.1198667E-001  0.3000000E+03  0.7818608E-02  0.1093470E+00
         21   -1    0    0  501  502  0.00000000000E+00  0.00000000000E+00  0.24559230176E+01  0.24559230176E+01  0.00000000000E+00 0. -1.
         13   -1    0    0    0    0 -0.00000000000E+00 -0.00000000000E+00 -0.10000000000E+04  0.10000000000E+04  0.00000000000E+00 0.  1.
    9000005    2    1    2  501    0  0.12826972471E+02  0.41329594976E+02 -0.74246047381E+03  0.74372766548E+03  0.32586161352E+01 0.  0.
         13    1    3    3    0    0 -0.13429277228E+00  0.42616329024E+00 -0.11741976807E+02  0.11750475268E+02  0.00000000000E+00 0.  1.
          3    1    3    3  501    0  0.12961265243E+02  0.40903431685E+02 -0.73071849701E+03  0.73197719021E+03  0.00000000000E+00 0.  1.
         -3    1    1    2    0  502 -0.12826972471E+02 -0.41329594976E+02 -0.25508360317E+03  0.25872825754E+03  0.00000000000E+00 0. -1.
<mgrwt>
<rscale>  1 0.30000000E+03</rscale>
<asrwt>0</asrwt>
<pdfrwt beam="1">  1       21 0.89306480E-02 0.30000000E+03</pdfrwt>
<pdfrwt beam="2">0</pdfrwt>
<totfact> 0.10521249E+04</totfact>
</mgrwt>
</event>
<event>
 6    1  0.1198667E-001  0.3000000E+03  0.7818608E-02  0.1093470E+00
         21   -1    0    0  501  502  0.00000000000E+00  0.00000000000E+00  0.17590772276E+01  0.17590772276E+01  0.00000000000E+00 0. -1.
         13   -1    0    0    0    0 -0.00000000000E+00 -0.00000000000E+00 -0.10000000000E+04  0.10000000000E+04  0.00000000000E+00 0.  1.
    9000005    2    1    2  501    0  0.15754361598E+00 -0.31385824437E+02 -0.83085234615E+03  0.83145338038E+03  0.37427054874E+01 0.  0.
         13    1    3    3    0    0  0.17288248871E+01 -0.23731914436E+02 -0.62689644007E+03  0.62734786138E+03  0.00000000000E+00 0.  1.
          3    1    3    3  501    0 -0.15712812711E+01 -0.76539100005E+01 -0.20395590608E+03  0.20410551900E+03  0.00000000000E+00 0.  1.
         -1    1    1    2    0  502 -0.15754361598E+00  0.31385824437E+02 -0.16738857662E+03  0.17030569685E+03  0.00000000000E+00 0. -1.
<mgrwt>
<rscale>  1 0.30000000E+03</rscale>
<asrwt>0</asrwt>
<pdfrwt beam="1">  1       21 0.63966580E-02 0.30000000E+03</pdfrwt>
<pdfrwt beam="2">0</pdfrwt>
<totfact> 0.18866115E+04</totfact>
</mgrwt>
</event>
<event>
 6    1  0.1198667E-001  0.3000000E+03  0.7818608E-02  0.1093470E+00
         21   -1    0    0  501  502  0.00000000000E+00  0.00000000000E+00  0.26891082512E+01  0.26891082512E+01  0.00000000000E+00 0. -1.
         13   -1    0    0    0    0 -0.00000000000E+00 -0.00000000000E+00 -0.10000000000E+04  0.10000000000E+04  0.00000000000E+00 0.  1.
    9000005    2    1    2  501    0  0.39154343594E+02 -0.35801134472E+01 -0.82502011771E+03  0.82596901700E+03  0.45544017738E+01 0.  0.
         13    1    3    3    0    0  0.12687019738E+02 -0.21621766785E+01 -0.23169674463E+03  0.23205390958E+03  0.00000000000E+00 0.  1.
          1    1    3    3  501    0  0.26467323856E+02 -0.14179367686E+01 -0.59332337308E+03  0.59391510742E+03  0.00000000000E+00 0.  1.
         -3    1    1    2    0  502 -0.39154343594E+02  0.35801134472E+01 -0.17229077403E+03  0.17672009125E+03  0.00000000000E+00 0. -1.
<mgrwt>
<rscale>  1 0.30000000E+03</rscale>
<asrwt>0</asrwt>
<pdfrwt beam="1">  1       21 0.97785961E-02 0.30000000E+03</pdfrwt>
<pdfrwt beam="2">0</pdfrwt>
<totfact> 0.89541210E+03</totfact>
</mgrwt>
</event>
<event>
 6    1  0.1198667E-001  0.3000000E+03  0.7818608E-02  0.1093470E+00
         21   -1    0    0  501  502  0.00000000000E+00  0.00000000000E+00  0.10050293333E+01  0.10050293333E+01  0.00000000000E+00 0. -1.
         13   -1    0    0    0    0 -0.00000000000E+00 -0.00000000000E+00 -0.10000000000E+04  0.10000000000E+04  0.00000000000E+00 0.  1.
    9000005    2    1    2  501    0  0.16129717534E+02  0.26054218204E+02 -0.62384150624E+03  0.62460217076E+03  0.32644648819E+01 0.  0.
         13    1    3    3    0    0  0.13745885547E+02  0.23628671847E+02 -0.53946095551E+03  0.54015311350E+03  0.00000000000E+00 0.  1.
          3    1    3    3  501    0  0.23838319870E+01  0.24255463573E+01 -0.84380550729E+02  0.84449057256E+02  0.00000000000E+00 0.  1.
         -1    1    1    2    0  502 -0.16129717534E+02 -0.26054218204E+02 -0.37515346442E+03  0.37640285857E+03  0.00000000000E+00 0. -1.
<mgrwt>
<rscale>  1 0.30000000E+03</rscale>
<asrwt>0</asrwt>
<pdfrwt beam="1">  1       21 0.36546598E-02 0.30000000E+03</pdfrwt>
<pdfrwt beam="2">0</pdfrwt>
<totfact> 0.48937587E+04</totfact>
</mgrwt>
</event>
<event>
 6    1  0.1198667E-001  0.3000000E+03  0.7818608E-02  0.1093470E+00
         21   -1    0    0  501  502  0.00000000000E+00  0.00000000000E+00  0.19373469290E+01  0.19373469290E+01  0.00000000000E+00 0. -1.
         13   -1    0    0    0    0 -0.00000000000E+00 -0.00000000000E+00 -0.10000000000E+04  0.10000000000E+04  0.00000000000E+00 0.  1.
    9000005    2    1    2  501    0 -0.30100842740E+02  0.19394266547E+02 -0.78970837675E+03  0.79052849477E+03  0.37124696478E+01 0.  0.
         13    1    3    3    0    0 -0.27491184338E+02  0.17250438879E+02 -0.68987627474E+03  0.69063928161E+03  0.00000000000E+00 0.  1.
          1    1    3    3  501    0 -0.26096584024E+01  0.21438276671E+01 -0.99832102013E+02  0.99889213164E+02  0.00000000000E+00 0.  1.
         -3    1    1    2    0  502  0.30100842740E+02 -0.19394266547E+02 -0.20835427632E+03  0.21140885216E+03  0.00000000000E+00 0. -1.
<mgrwt>
<rscale>  1 0.30000000E+03</rscale>
<asrwt>0</asrwt>
<pdfrwt beam="1">  1       21 0.70449128E-02 0.30000000E+03</pdfrwt>
<pdfrwt beam="2">0</pdfrwt>
<totfact> 0.15956643E+04</totfact>
</mgrwt>
</event>
<event>
 6    1  0.1198667E-001  0.3000000E+03  0.7818608E-02  0.1093470E+00
         21   -1    0    0  501  502  0.00000000000E+00  0.00000000000E+00  0.25063391381E+01  0.25063391381E+01  0.00000000000E+00 0. -1.
         13   -1    0    0    0    0 -0.00000000000E+00 -0.00000000000E+00 -0.10000000000E+04  0.10000000000E+04  0.00000000000E+00 0.  1.
    9000005    2    1    2  501    0 -0.24931072046E+02  0.31360926821E+02 -0.79870979188E+03  0.79972544099E+03  0.42875686490E+01 0.  0.
         13    1    3    3    0    0 -0.81429194758E+00  0.12240454455E+00 -0.17972049031E+02  0.17990903274E+02  0.00000000000E+00 0.  1.
          1    1    3    3  501    0 -0.24116780099E+02  0.31238522277E+02 -0.78073774284E+03  0.78173453772E+03  0.00000000000E+00 0.  1.
         -1    1    1    2    0  502  0.24931072046E+02 -0.31360926821E+02 -0.19878386899E+03  0.20278089815E+03  0.00000000000E+00 0. -1.
<mgrwt>
<rscale>  1 0.30000000E+03</rscale>
<asrwt>0</asrwt>
<pdfrwt beam="1">  1       21 0.91139797E-02 0.30000000E+03</pdfrwt>
<pdfrwt beam="2">0</pdfrwt>
<totfact> 0.10149127E+04</totfact>
</mgrwt>
</event>
<event>
 6    1  0.1198667E-001  0.3000000E+03  0.7818608E-02  0.1093470E+00
         21   -1    0    0  501  502  0.00000000000E+00  0.00000000000E+00  0.58550569214E+01  0.58550569214E+01  0.00000000000E+00 0. -1.
         13   -1    0    0    0    0 -0.00000000000E+00 -0.00000000000E+00 -0.10000000000E+04  0.10000000000E+04  0.00000000000E+00 0.  1.
    9000005    2    1    2  501    0 -0.33881877712E+02 -0.52881578082E+01 -0.94663934808E+03  0.94726557146E+03  0.31719541682E+01 0.  0.
         13    1    3    3    0    0 -0.42829086292E+01  0.25940635585E+00 -0.10495900026E+03  0.10504666740E+03  0.00000000000E+00 0.  1.
          1    1    3    3  501    0 -0.29598969082E+02 -0.55475641640E+01 -0.84168034782E+03  0.84221890406E+03  0.00000000000E+00 0.  1.
         -3    1    1    2    0  502  0.33881877712E+02  0.52881578082E+01 -0.47505594999E+02  0.58589485460E+02  0.00000000000E+00 0. -1.
<mgrwt>
<rscale>  1 0.30000000E+03</rscale>
<asrwt>0</asrwt>
<pdfrwt beam="1">  1       21 0.21291161E-01 0.30000000E+03</pdfrwt>
<pdfrwt beam="2">0</pdfrwt>
<totfact> 0.21284594E+03</totfact>
</mgrwt>
</event>
<event>
 6    1  0.1198667E-001  0.3000000E+03  0.7818608E-02  0.1093470E+00
         21   -1    0    0  501  502  0.00000000000E+00  0.00000000000E+00  0.27842224516E+01  0.27842224516E+01  0.00000000000E+00 0. -1.
         13   -1    0    0    0    0 -0.00000000000E+00 -0.00000000000E+00 -0.10000000000E+04  0.10000000000E+04  0.00000000000E+00 0.  1.
    9000005    2    1    2  501    0  0.39691618620E+02  0.26279760966E+02 -0.71419647019E+03  0.71578948598E+03  0.34553989125E+01 0.  0.
         13    1    3    3    0    0  0.15129503667E+01  0.54893240538E+00 -0.17713601924E+02  0.17786569054E+02  0.00000000000E+00 0.  1.
          1    1    3    3  501    0  0.38178668253E+02  0.25730828561E+02 -0.69648286827E+03  0.69800291693E+03  0.00000000000E+00 0.  1.
         -3    1    1    2    0  502 -0.39691618620E+02 -0.26279760966E+02 -0.28301930736E+03  0.28699473647E+03  0.00000000000E+00 0. -1.
<mgrwt>
<rscale>  1 0.30000000E+03</rscale>
<asrwt>0</asrwt>
<pdfrwt beam="1">  1       21 0.10124467E-01 0.30000000E+03</pdfrwt>
<pdfrwt beam="2">0</pdfrwt>
<totfact> 0.84150588E+03</totfact>
</mgrwt>
</event>
<event>
 6    1  0.1198667E-001  0.3000000E+03  0.7818608E-02  0.1093470E+00
         21   -1    0    0  501  502  0.00000000000E+00  0.00000000000E+00  0.15300797073E+01  0.15300797073E+01  0.00000000000E+00 0. -1.
         13   -1    0    0    0    0 -0.00000000000E+00 -0.00000000000E+00 -0.10000000000E+04  0.10000000000E+04  0.00000000000E+00 0.  1.
    9000005    2    1    2  501    0 -0.12471373349E+01  0.38078788496E+02 -0.60835335940E+03  0.60955752892E+03  0.38757824682E+01 0.  0.
         13    1    3    3    0    0 -0.21897382518E+01  0.35085782540E+02 -0.55607375227E+03  0.55718383416E+03  0.00000000000E+00 0.  1.
          3    1    3    3  501    0  0.94260091681E+00  0.29930059566E+01 -0.52279607128E+02  0.52373694758E+02  0.00000000000E+00 0.  1.
         -3    1    1    2    0  502  0.12471373349E+01 -0.38078788496E+02 -0.39011656089E+03  0.39197255079E+03  0.00000000000E+00 0. -1.
<mgrwt>
<rscale>  1 0.30000000E+03</rscale>
<asrwt>0</asrwt>
<pdfrwt beam="1">  1       21 0.55639379E-02 0.30000000E+03</pdfrwt>
<pdfrwt beam="2">0</pdfrwt>
<totfact> 0.23993683E+04</totfact>
</mgrwt>
</event>
<event>
 6    1  0.1198667E-001  0.3000000E+03  0.7818608E-02  0.1093470E+00
         21   -1    0    0  501  502  0.00000000000E+00  0.00000000000E+00  0.43438133742E+01  0.43438133742E+01  0.00000000000E+00 0. -1.
         13   -1    0    0    0    0 -0.00000000000E+00 -0.00000000000E+00 -0.10000000000E+04  0.10000000000E+04  0.00000000000E+00 0.  1.
    9000005    2    1    2  501    0 -0.13236220166E+02  0.41528124131E+02 -0.87439678265E+03  0.87548875654E+03  0.33236588873E+01 0.  0.
         13    1    3    3    0    0 -0.53953305921E+01  0.14016677485E+02 -0.27535716542E+03  0.27576646894E+03  0.00000000000E+00 0.  1.
          3    1    3    3  501    0 -0.78408895739E+01  0.27511446647E+02 -0.59903961722E+03  0.59972228761E+03  0.00000000000E+00 0.  1.
         -1    1    1    2    0  502  0.13236220166E+02 -0.41528124131E+02 -0.12125940398E+03  0.12885505683E+03  0.00000000000E+00 0. -1.
<mgrwt>
<rscale>  1 0.30000000E+03</rscale>
<asrwt>0</asrwt>
<pdfrwt beam="1">  1       21 0.15795718E-01 0.30000000E+03</pdfrwt>
<pdfrwt beam="2">0</pdfrwt>
<totfact> 0.37411644E+03</totfact>
</mgrwt>
</event>
<event>
 6    1  0.1198667E-001  0.3000000E+03  0.7818608E-02  0.1093470E+00
         21   -1    0    0  501  502  0.00000000000E+00  0.00000000000E+00  0.15114948947E+01  0.15114948947E+01  0.00000000000E+00 0. -1.
         13   -1    0    0    0    0 -0.00000000000E+00 -0.00000000000E+00 -0.10000000000E+04  0.10000000000E+04  0.00000000000E+00 0.  1.
    9000005    2    1    2  501    0 -0.13122993643E+02 -0.35860955050E+02 -0.59007048118E+03  0.59131214906E+03  0.29434337693E+01 0.  0.
         13    1    3    3    0    0 -0.49559427255E+01 -0.12019431762E+02 -0.22125270959E+03  0.22163436017E+03  0.00000000000E+00 0.  1.
          3    1    3    3  501    0 -0.81670509177E+01 -0.23841523288E+02 -0.36881777159E+03  0.36967778889E+03  0.00000000000E+00 0.  1.
         -1    1    1    2    0  502  0.13122993643E+02  0.35860955050E+02 -0.40841802393E+03  0.41019934584E+03  0.00000000000E+00 0. -1.
<mgrwt>
<rscale>  1 0.30000000E+03</rscale>
<asrwt>0</asrwt>
<pdfrwt beam="1">  1       21 0.54963567E-02 0.30000000E+03</pdfrwt>
<pdfrwt beam="2">0</pdfrwt>
<totfact> 0.24501972E+04</totfact>
</mgrwt>
</event>
<event>
 6    1  0.1198667E-001  0.3000000E+03  0.7818608E-02  0.1093470E+00
         21   -1    0    0  501  502  0.00000000000E+00  0.00000000000E+00  0.11606360711E+01  0.11606360711E+01  0.00000000000E+00 0. -1.
         13   -1    0    0    0    0 -0.00000000000E+00 -0.00000000000E+00 -0.10000000000E+04  0.10000000000E+04  0.00000000000E+00 0.  1.
    9000005    2    1    2  501    0  0.25946472012E+02  0.17808732949E+02 -0.68919595453E+03  0.68992212405E+03  0.33321371560E+01 0.  0.
         13    1    3    3    0    0  0.12339443719E+02  0.89631692501E+01 -0.36920486014E+03  0.36951972752E+03  0.00000000000E+00 0.  1.
          3    1    3    3  501    0  0.13607028293E+02  0.88455636989E+01 -0.31999109439E+03  0.32040239654E+03  0.00000000000E+00 0.  1.
         -1    1    1    2    0  502 -0.25946472012E+02 -0.17808732949E+02 -0.30964340940E+03  0.31123851202E+03  0.00000000000E+00 0. -1.
<mgrwt>
<rscale>  1 0.30000000E+03</rscale>
<asrwt>0</asrwt>
<pdfrwt beam="1">  1       21 0.42205037E-02 0.30000000E+03</pdfrwt>
<pdfrwt beam="2">0</pdfrwt>
<totfact> 0.38409246E+04</totfact>
</mgrwt>
</event>
<event>
 6    1  0.1198667E-001  0.3000000E+03  0.7818608E-02  0.1093470E+00
         21   -1    0    0  501  502  0.00000000000E+00  0.00000000000E+00  0.15411163998E+01  0.15411163998E+01  0.00000000000E+00 0. -1.
         13   -1    0    0    0    0 -0.00000000000E+00 -0.00000000000E+00 -0.10000000000E+04  0.10000000000E+04  0.00000000000E+00 0.  1.
    9000005    2    1    2  501    0 -0.29689357924E+02 -0.16095921287E+02 -0.75268071129E+03  0.75345353783E+03  0.48418865885E+01 0.  0.
         13    1    3    3    0    0 -0.24351951961E+02 -0.13471831182E+02 -0.65599747458E+03  0.65658753755E+03  0.00000000000E+00 0.  1.
          1    1    3    3  501    0 -0.53374059628E+01 -0.26240901049E+01 -0.96683236704E+02  0.96866000283E+02  0.00000000000E+00 0.  1.
         -3    1    1    2    0  502  0.29689357924E+02  0.16095921287E+02 -0.24577817231E+03  0.24808757857E+03  0.00000000000E+00 0. -1.
<mgrwt>
<rscale>  1 0.30000000E+03</rscale>
<asrwt>0</asrwt>
<pdfrwt beam="1">  1       21 0.56040715E-02 0.30000000E+03</pdfrwt>
<pdfrwt beam="2">0</pdfrwt>
<totfact> 0.23699467E+04</totfact>
</mgrwt>
</event>
<event>
 6    1  0.1198667E-001  0.3000000E+03  0.7818608E-02  0.1093470E+00
         21   -1    0    0  501  502  0.00000000000E+00  0.00000000000E+00  0.12053338913E+01  0.12053338913E+01  0.00000000000E+00 0. -1.
         13   -1    0    0    0    0 -0.00000000000E+00 -0.00000000000E+00 -0.10000000000E+04  0.10000000000E+04  0.00000000000E+00 0.  1.
    9000005    2    1    2  501    0  0.28110780613E+02  0.12915781984E+02 -0.27539275087E+03  0.27714223969E+03  0.31016735315E+01 0.  0.
         13    1    3    3    0    0  0.78811922006E+01  0.44682259092E+01 -0.70382958438E+02  0.70963646128E+02  0.00000000000E+00 0.  1.
          3    1    3    3  501    0  0.20229588412E+02  0.84475560744E+01 -0.20500979243E+03  0.20617859356E+03  0.00000000000E+00 0.  1.
         -1    1    1    2    0  502 -0.28110780613E+02 -0.12915781984E+02 -0.72340191524E+03  0.72406309420E+03  0.00000000000E+00 0. -1.
<mgrwt>
<rscale>  1 0.30000000E+03</rscale>
<asrwt>0</asrwt>
<pdfrwt beam="1">  1       21 0.43830416E-02 0.30000000E+03</pdfrwt>
<pdfrwt beam="2">0</pdfrwt>
<totfact> 0.36031300E+04</totfact>
</mgrwt>
</event>
<event>
 6    1  0.1198667E-001  0.3000000E+03  0.7818608E-02  0.1093470E+00
         21   -1    0    0  501  502  0.00000000000E+00  0.00000000000E+00  0.12125895800E+01  0.12125895800E+01  0.00000000000E+00 0. -1.
         13   -1    0    0    0    0 -0.00000000000E+00 -0.00000000000E+00 -0.10000000000E+04  0.10000000000E+04  0.00000000000E+00 0.  1.
    9000005    2    1    2  501    0 -0.10401059575E+02  0.28620186892E+02 -0.73912687975E+03  0.73977256142E+03  0.52536766813E+01 0.  0.
         13    1    3    3    0    0 -0.10879813027E+02  0.26050414120E+02 -0.66288377386E+03  0.66348465849E+03  0.00000000000E+00 0.  1.
          1    1    3    3  501    0  0.47875345119E+00  0.25697727720E+01 -0.76243105895E+02  0.76287902930E+02  0.00000000000E+00 0.  1.
         -3    1    1    2    0  502  0.10401059575E+02 -0.28620186892E+02 -0.25966053067E+03  0.26144002816E+03  0.00000000000E+00 0. -1.
<mgrwt>
<rscale>  1 0.30000000E+03</rscale>
<asrwt>0</asrwt>
<pdfrwt beam="1">  1       21 0.44094260E-02 0.30000000E+03</pdfrwt>
<pdfrwt beam="2">0</pdfrwt>
<totfact> 0.35666866E+04</totfact>
</mgrwt>
</event>
<event>
 6    1  0.1198667E-001  0.3000000E+03  0.7818608E-02  0.1093470E+00
         21   -1    0    0  501  502  0.00000000000E+00  0.00000000000E+00  0.13735708701E+01  0.13735708701E+01  0.00000000000E+00 0. -1.
         13   -1    0    0    0    0 -0.00000000000E+00 -0.00000000000E+00 -0.10000000000E+04  0.10000000000E+04  0.00000000000E+00 0.  1.
    9000005    2    1    2  501    0 -0.91888832023E+01 -0.30874104507E+02 -0.74647429744E+03  0.74717218728E+03  0.21805508233E+01 0.  0.
         13    1    3    3    0    0 -0.18903967705E+00 -0.55173858647E+00 -0.82436657231E+01  0.82642710520E+01  0.00000000000E+00 0.  1.
          3    1    3    3  501    0 -0.89998435252E+01 -0.30322365920E+02 -0.73823063171E+03  0.73890791623E+03  0.00000000000E+00 0.  1.
         -3    1    1    2    0  502  0.91888832023E+01  0.30874104507E+02 -0.25215213169E+03  0.25420138359E+03  0.00000000000E+00 0. -1.
<mgrwt>
<rscale>  1 0.30000000E+03</rscale>
<asrwt>0</asrwt>
<pdfrwt beam="1">  1       21 0.49948137E-02 0.30000000E+03</pdfrwt>
<pdfrwt beam="2">0</pdfrwt>
<totfact> 0.28855659E+04</totfact>
</mgrwt>
</event>
<event>
 6    1  0.1198667E-001  0.3000000E+03  0.7818608E-02  0.1093470E+00
         21   -1    0    0  501  502  0.00000000000E+00  0.00000000000E+00  0.45689511729E+01  0.45689511729E+01  0.00000000000E+00 0. -1.
         13   -1    0    0    0    0 -0.00000000000E+00 -0.00000000000E+00 -0.10000000000E+04  0.10000000000E+04  0.00000000000E+00 0.  1.
    9000005    2    1    2  501    0  0.46988144410E+02 -0.15826803021E+01 -0.85845864801E+03  0.85975241490E+03  0.35459827666E+01 0.  0.
         13    1    3    3    0    0  0.62663997844E+01  0.98655070862E+00 -0.11281185908E+03  0.11299007301E+03  0.00000000000E+00 0.  1.
          1    1    3    3  501    0  0.40721744626E+02 -0.25692310107E+01 -0.74564678893E+03  0.74676234190E+03  0.00000000000E+00 0.  1.
         -1    1    1    2    0  502 -0.46988144410E+02  0.15826803021E+01 -0.13697240082E+03  0.14481653627E+03  0.00000000000E+00 0. -1.
<mgrwt>
<rscale>  1 0.30000000E+03</rscale>
<asrwt>0</asrwt>
<pdfrwt beam="1">  1       21 0.16614403E-01 0.30000000E+03</pdfrwt>
<pdfrwt beam="2">0</pdfrwt>
<totfact> 0.34045850E+03</totfact>
</mgrwt>
</event>
<event>
 6    1  0.1198667E-001  0.3000000E+03  0.7818608E-02  0.1093470E+00
         21   -1    0    0  501  502  0.00000000000E+00  0.00000000000E+00  0.49278823956E+01  0.49278823956E+01  0.00000000000E+00 0. -1.
         13   -1    0    0    0    0 -0.00000000000E+00 -0.00000000000E+00 -0.10000000000E+04  0.10000000000E+04  0.00000000000E+00 0.  1.
    9000005    2    1    2  501    0 -0.36792522189E+02  0.88139456384E+01 -0.92071125153E+03  0.92149579187E+03  0.37296657516E+01 0.  0.
         13    1    3    3    0    0 -0.25431071218E+02  0.58816881276E+01 -0.59196793454E+03  0.59254313697E+03  0.00000000000E+00 0.  1.
          3    1    3    3  501    0 -0.11361450972E+02  0.29322575108E+01 -0.32874331699E+03  0.32895265490E+03  0.00000000000E+00 0.  1.
         -1    1    1    2    0  502  0.36792522189E+02 -0.88139456384E+01 -0.74360866075E+02  0.83432090530E+02  0.00000000000E+00 0. -1.
<mgrwt>
<rscale>  1 0.30000000E+03</rscale>
<asrwt>0</asrwt>
<pdfrwt beam="1">  1       21 0.17919610E-01 0.30000000E+03</pdfrwt>
<pdfrwt beam="2">0</pdfrwt>
<totfact> 0.29543478E+03</totfact>
</mgrwt>
</event>
<event>
 6    1  0.1198667E-001  0.3000000E+03  0.7818608E-02  0.1093470E+00
         21   -1    0    0  501  502  0.00000000000E+00  0.00000000000E+00  0.10680704498E+01  0.10680704498E+01  0.00000000000E+00 0. -1.
         13   -1    0    0    0    0 -0.00000000000E+00 -0.00000000000E+00 -0.10000000000E+04  0.10000000000E+04  0.00000000000E+00 0.  1.
    9000005    2    1    2  501    0  0.78507286119E+01  0.29227308066E+02 -0.68581035299E+03  0.68648741118E+03  0.36408748014E+01 0.  0.
         13    1    3    3    0    0  0.79324446883E+01  0.27324614580E+02 -0.65556396528E+03  0.65618112653E+03  0.00000000000E+00 0.  1.
          1    1    3    3  501    0 -0.81716076433E-01  0.19026934862E+01 -0.30246387705E+02  0.30306284649E+02  0.00000000000E+00 0.  1.
         -1    1    1    2    0  502 -0.78507286119E+01 -0.29227308066E+02 -0.31312157656E+03  0.31458065927E+03  0.00000000000E+00 0. -1.
<mgrwt>
<rscale>  1 0.30000000E+03</rscale>
<asrwt>0</asrwt>
<pdfrwt beam="1">  1       21 0.38839007E-02 0.30000000E+03</pdfrwt>
<pdfrwt beam="2">0</pdfrwt>
<totfact> 0.44183991E+04</totfact>
</mgrwt>
</event>
<event>
 6    1  0.1198667E-001  0.3000000E+03  0.7818608E-02  0.1093470E+00
         21   -1    0    0  501  502  0.00000000000E+00  0.00000000000E+00  0.45372411652E+01  0.45372411652E+01  0.00000000000E+00 0. -1.
         13   -1    0    0    0    0 -0.00000000000E+00 -0.00000000000E+00 -0.10000000000E+04  0.10000000000E+04  0.00000000000E+00 0.  1.
    9000005    2    1    2  501    0 -0.24056153051E+02 -0.46971535256E+02 -0.80966627095E+03  0.81139128979E+03  0.33661851238E+01 0.  0.
         13    1    3    3    0    0 -0.14983336858E+02 -0.29654982566E+02 -0.53411062337E+03  0.53514304290E+03  0.00000000000E+00 0.  1.
          3    1    3    3  501    0 -0.90728161928E+01 -0.17316552690E+02 -0.27555564759E+03  0.27624824689E+03  0.00000000000E+00 0.  1.
         -3    1    1    2    0  502  0.24056153051E+02  0.46971535256E+02 -0.18579648788E+03  0.19314595138E+03  0.00000000000E+00 0. -1.
<mgrwt>
<rscale>  1 0.30000000E+03</rscale>
<asrwt>0</asrwt>
<pdfrwt beam="1">  1       21 0.16499094E-01 0.30000000E+03</pdfrwt>
<pdfrwt beam="2">0</pdfrwt>
<totfact> 0.34491857E+03</totfact>
</mgrwt>
</event>
<event>
 6    1  0.1198667E-001  0.3000000E+03  0.7818608E-02  0.1093470E+00
         21   -1    0    0  501  502  0.00000000000E+00  0.00000000000E+00  0.55182586449E+01  0.55182586449E+01  0.00000000000E+00 0. -1.
         13   -1    0    0    0    0 -0.00000000000E+00 -0.00000000000E+00 -0.10000000000E+04  0.10000000000E+04  0.00000000000E+00 0.  1.
    9000005    2    1    2  501    0  0.16177723417E+02 -0.48291270359E+02 -0.86309182574E+03  0.86460312300E+03  0.41587400328E+01 0.  0.
         13    1    3    3    0    0  0.82583720875E+01 -0.18283024308E+02 -0.34182356316E+03  0.34241176677E+03  0.00000000000E+00 0.  1.
          3    1    3    3  501    0  0.79193513291E+01 -0.30008246051E+02 -0.52126826257E+03  0.52219135623E+03  0.00000000000E+00 0.  1.
         -1    1    1    2    0  502 -0.16177723417E+02  0.48291270359E+02 -0.13138991562E+03  0.14091513565E+03  0.00000000000E+00 0. -1.
<mgrwt>
<rscale>  1 0.30000000E+03</rscale>
<asrwt>0</asrwt>
<pdfrwt beam="1">  1       21 0.20066437E-01 0.30000000E+03</pdfrwt>
<pdfrwt beam="2">0</pdfrwt>
<totfact> 0.23840772E+03</totfact>
</mgrwt>
</event>
<event>
 6    1  0.1198667E-001  0.3000000E+03  0.7818608E-02  0.1093470E+00
         21   -1    0    0  501  502  0.00000000000E+00  0.00000000000E+00  0.19517758477E+01  0.19517758477E+01  0.00000000000E+00 0. -1.
         13   -1    0    0    0    0 -0.00000000000E+00 -0.00000000000E+00 -0.10000000000E+04  0.10000000000E+04  0.00000000000E+00 0.  1.
    9000005    2    1    2  501    0  0.17476590007E+02  0.36292431093E+02 -0.70386784080E+03  0.70502641536E+03  0.31204625480E+01 0.  0.
         13    1    3    3    0    0  0.22386846924E+01  0.39653067066E+01 -0.64514875006E+02  0.64675377567E+02  0.00000000000E+00 0.  1.
          1    1    3    3  501    0  0.15237905315E+02  0.32327124387E+02 -0.63935296580E+03  0.64035103779E+03  0.00000000000E+00 0.  1.
         -1    1    1    2    0  502 -0.17476590007E+02 -0.36292431093E+02 -0.29418038335E+03  0.29692536049E+03  0.00000000000E+00 0. -1.
<mgrwt>
<rscale>  1 0.30000000E+03</rscale>
<asrwt>0</asrwt>
<pdfrwt beam="1">  1       21 0.70973817E-02 0.30000000E+03</pdfrwt>
<pdfrwt beam="2">0</pdfrwt>
<totfact> 0.15751740E+04</totfact>
</mgrwt>
</event>
<event>
 6    1  0.1198667E-001  0.3000000E+03  0.7818608E-02  0.1093470E+00
         21   -1    0    0  501  502  0.00000000000E+00  0.00000000000E+00  0.10542419810E+01  0.10542419810E+01  0.00000000000E+00 0. -1.
         13   -1    0    0    0    0 -0.00000000000E+00 -0.00000000000E+00 -0.10000000000E+04  0.10000000000E+04  0.00000000000E+00 0.  1.
    9000005    2    1    2  501    0 -0.93493497802E+01 -0.30329824919E+02 -0.60053902772E+03  0.60138533980E+03  0.31455514304E+01 0.  0.
         13    1    3    3    0    0 -0.47814889139E+00 -0.88036744949E+00 -0.31281119576E+02  0.31297158260E+02  0.00000000000E+00 0.  1.
          1    1    3    3  501    0 -0.88712008888E+01 -0.29449457469E+02 -0.56925790815E+03  0.57008818154E+03  0.00000000000E+00 0.  1.
         -3    1    1    2    0  502  0.93493497802E+01  0.30329824919E+02 -0.39840673030E+03  0.39966890218E+03  0.00000000000E+00 0. -1.
<mgrwt>
<rscale>  1 0.30000000E+03</rscale>
<asrwt>0</asrwt>
<pdfrwt beam="1">  1       21 0.38336153E-02 0.30000000E+03</pdfrwt>
<pdfrwt beam="2">0</pdfrwt>
<totfact> 0.45162701E+04</totfact>
</mgrwt>
</event>
<event>
 6    1  0.1198667E-001  0.3000000E+03  0.7818608E-02  0.1093470E+00
         21   -1    0    0  501  502  0.00000000000E+00  0.00000000000E+00  0.36432187711E+01  0.36432187711E+01  0.00000000000E+00 0. -1.
         13   -1    0    0    0    0 -0.00000000000E+00 -0.00000000000E+00 -0.10000000000E+04  0.10000000000E+04  0.00000000000E+00 0.  1.
    9000005    2    1    2  501    0  0.50644825350E+02 -0.30335855352E+02 -0.60164920166E+03  0.60454519093E+03  0.28219794952E+01 0.  0.
         13    1    3    3    0    0  0.27688776606E+02 -0.18032601258E+02 -0.34307488612E+03  0.34466247336E+03  0.00000000000E+00 0.  1.
          3    1    3    3  501    0  0.22956048744E+02 -0.12303254094E+02 -0.25857431554E+03  0.25988271757E+03  0.00000000000E+00 0.  1.
         -3    1    1    2    0  502 -0.50644825350E+02  0.30335855352E+02 -0.39470757957E+03  0.39909802784E+03  0.00000000000E+00 0. -1.
<mgrwt>
<rscale>  1 0.30000000E+03</rscale>
<asrwt>0</asrwt>
<pdfrwt beam="1">  1       21 0.13248096E-01 0.30000000E+03</pdfrwt>
<pdfrwt beam="2">0</pdfrwt>
<totfact> 0.51746360E+03</totfact>
</mgrwt>
</event>
<event>
 6    1  0.1198667E-001  0.3000000E+03  0.7818608E-02  0.1093470E+00
         21   -1    0    0  501  502  0.00000000000E+00  0.00000000000E+00  0.48599437578E+01  0.48599437578E+01  0.00000000000E+00 0. -1.
         13   -1    0    0    0    0 -0.00000000000E+00 -0.00000000000E+00 -0.10000000000E+04  0.10000000000E+04  0.00000000000E+00 0.  1.
    9000005    2    1    2  501    0  0.31269944160E+02  0.19523172751E+01 -0.94636277928E+03  0.94688715964E+03  0.33409779440E+01 0.  0.
         13    1    3    3    0    0  0.25573613033E+02  0.26604728378E+01 -0.79451462618E+03  0.79493054980E+03  0.00000000000E+00 0.  1.
          1    1    3    3  501    0  0.56963311275E+01 -0.70815556274E+00 -0.15184815310E+03  0.15195660984E+03  0.00000000000E+00 0.  1.
         -1    1    1    2    0  502 -0.31269944160E+02 -0.19523172751E+01 -0.48777276961E+02  0.57972784117E+02  0.00000000000E+00 0. -1.
<mgrwt>
<rscale>  1 0.30000000E+03</rscale>
<asrwt>0</asrwt>
<pdfrwt beam="1">  1       21 0.17672560E-01 0.30000000E+03</pdfrwt>
<pdfrwt beam="2">0</pdfrwt>
<totfact> 0.30325175E+03</totfact>
</mgrwt>
</event>
<event>
 6    1  0.1198667E-001  0.3000000E+03  0.7818608E-02  0.1093470E+00
         21   -1    0    0  501  502  0.00000000000E+00  0.00000000000E+00  0.55897271761E+01  0.55897271761E+01  0.00000000000E+00 0. -1.
         13   -1    0    0    0    0 -0.00000000000E+00 -0.00000000000E+00 -0.10000000000E+04  0.10000000000E+04  0.00000000000E+00 0.  1.
    9000005    2    1    2  501    0  0.45947206483E+02  0.33013681128E+02 -0.82566749914E+03  0.82761452498E+03  0.42348436542E+01 0.  0.
         13    1    3    3    0    0  0.39042198063E+01  0.43366689422E+01 -0.80558812410E+02  0.80769869918E+02  0.00000000000E+00 0.  1.
          3    1    3    3  501    0  0.42042986677E+02  0.28677012186E+02 -0.74510868673E+03  0.74684465507E+03  0.00000000000E+00 0.  1.
         -3    1    1    2    0  502 -0.45947206483E+02 -0.33013681128E+02 -0.16874277368E+03  0.17797520219E+03  0.00000000000E+00 0. -1.
<mgrwt>
<rscale>  1 0.30000000E+03</rscale>
<asrwt>0</asrwt>
<pdfrwt beam="1">  1       21 0.20326324E-01 0.30000000E+03</pdfrwt>
<pdfrwt beam="2">0</pdfrwt>
<totfact> 0.23261730E+03</totfact>
</mgrwt>
</event>
<event>
 6    1  0.1198667E-001  0.3000000E+03  0.7818608E-02  0.1093470E+00
         21   -1    0    0  501  502  0.00000000000E+00  0.00000000000E+00  0.18513243561E+01  0.18513243561E+01  0.00000000000E+00 0. -1.
         13   -1    0    0    0    0 -0.00000000000E+00 -0.00000000000E+00 -0.10000000000E+04  0.10000000000E+04  0.00000000000E+00 0.  1.
    9000005    2    1    2  501    0  0.32563629675E+02  0.18864878667E+02 -0.25839315128E+03  0.26113916066E+03  0.32197788090E+01 0.  0.
         13    1    3    3    0    0  0.30706153508E+02  0.18360940231E+02 -0.24127072112E+03  0.24390890279E+03  0.00000000000E+00 0.  1.
          3    1    3    3  501    0  0.18574761673E+01  0.50393843649E+00 -0.17122430160E+02  0.17230257870E+02  0.00000000000E+00 0.  1.
         -1    1    1    2    0  502 -0.32563629675E+02 -0.18864878667E+02 -0.73975552436E+03  0.74071216370E+03  0.00000000000E+00 0. -1.
<mgrwt>
<rscale>  1 0.30000000E+03</rscale>
<asrwt>0</asrwt>
<pdfrwt beam="1">  1       21 0.67321028E-02 0.30000000E+03</pdfrwt>
<pdfrwt beam="2">0</pdfrwt>
<totfact> 0.17267382E+04</totfact>
</mgrwt>
</event>
<event>
 6    1  0.1198667E-001  0.3000000E+03  0.7818608E-02  0.1093470E+00
         21   -1    0    0  501  502  0.00000000000E+00  0.00000000000E+00  0.14807658066E+01  0.14807658066E+01  0.00000000000E+00 0. -1.
         13   -1    0    0    0    0 -0.00000000000E+00 -0.00000000000E+00 -0.10000000000E+04  0.10000000000E+04  0.00000000000E+00 0.  1.
    9000005    2    1    2  501    0  0.32122432982E+02  0.18847157173E+02 -0.62187884180E+03  0.62300348615E+03  0.36033098778E+01 0.  0.
         13    1    3    3    0    0 -0.59269795811E-01  0.18422356020E-01 -0.41299235772E+01  0.41303899387E+01  0.00000000000E+00 0.  1.
          1    1    3    3  501    0  0.32181702778E+02  0.18828734817E+02 -0.61774891823E+03  0.61887309622E+03  0.00000000000E+00 0.  1.
         -3    1    1    2    0  502 -0.32122432982E+02 -0.18847157173E+02 -0.37664039239E+03  0.37847727965E+03  0.00000000000E+00 0. -1.
<mgrwt>
<rscale>  1 0.30000000E+03</rscale>
<asrwt>0</asrwt>
<pdfrwt beam="1">  1       21 0.53846143E-02 0.30000000E+03</pdfrwt>
<pdfrwt beam="2">0</pdfrwt>
<totfact> 0.25379582E+04</totfact>
</mgrwt>
</event>
<event>
 6    1  0.1198667E-001  0.3000000E+03  0.7818608E-02  0.1093470E+00
         21   -1    0    0  501  502  0.00000000000E+00  0.00000000000E+00  0.28698324075E+01  0.28698324075E+01  0.00000000000E+00 0. -1.
         13   -1    0    0    0    0 -0.00000000000E+00 -0.00000000000E+00 -0.10000000000E+04  0.10000000000E+04  0.00000000000E+00 0.  1.
    9000005    2    1    2  501    0  0.29140349987E+02 -0.27458876617E+02 -0.83093536133E+03  0.83191994639E+03  0.58371724576E+01 0.  0.
         13    1    3    3    0    0 -0.19952873575E+00 -0.76914630122E+00 -0.14635452946E+02  0.14657007904E+02  0.00000000000E+00 0.  1.
          1    1    3    3  501    0  0.29339878722E+02 -0.26689730316E+02 -0.81629990839E+03  0.81726293848E+03  0.00000000000E+00 0.  1.
         -3    1    1    2    0  502 -0.29140349987E+02  0.27458876617E+02 -0.16619480626E+03  0.17094988602E+03  0.00000000000E+00 0. -1.
<mgrwt>
<rscale>  1 0.30000000E+03</rscale>
<asrwt>0</asrwt>
<pdfrwt beam="1">  1       21 0.10435776E-01 0.30000000E+03</pdfrwt>
<pdfrwt beam="2">0</pdfrwt>
<totfact> 0.79710346E+03</totfact>
</mgrwt>
</event>
<event>
 6    1  0.1198667E-001  0.3000000E+03  0.7818608E-02  0.1093470E+00
         21   -1    0    0  501  502  0.00000000000E+00  0.00000000000E+00  0.12891370460E+01  0.12891370460E+01  0.00000000000E+00 0. -1.
         13   -1    0    0    0    0 -0.00000000000E+00 -0.00000000000E+00 -0.10000000000E+04  0.10000000000E+04  0.00000000000E+00 0.  1.
    9000005    2    1    2  501    0  0.28793804195E+01 -0.30624714580E+02 -0.75649660763E+03  0.75712953872E+03  0.34434089718E+01 0.  0.
         13    1    3    3    0    0  0.13590665768E+01 -0.18558208538E+02 -0.49666375804E+03  0.49701221586E+03  0.00000000000E+00 0.  1.
          3    1    3    3  501    0  0.15203138427E+01 -0.12066506042E+02 -0.25983284959E+03  0.26011732285E+03  0.00000000000E+00 0.  1.
         -1    1    1    2    0  502 -0.28793804195E+01  0.30624714580E+02 -0.24221425532E+03  0.24415959833E+03  0.00000000000E+00 0. -1.
<mgrwt>
<rscale>  1 0.30000000E+03</rscale>
<asrwt>0</asrwt>
<pdfrwt beam="1">  1       21 0.46877810E-02 0.30000000E+03</pdfrwt>
<pdfrwt beam="2">0</pdfrwt>
<totfact> 0.32146291E+04</totfact>
</mgrwt>
</event>
<event>
 6    1  0.1198667E-001  0.3000000E+03  0.7818608E-02  0.1093470E+00
         21   -1    0    0  501  502  0.00000000000E+00  0.00000000000E+00  0.38170923086E+01  0.38170923086E+01  0.00000000000E+00 0. -1.
         13   -1    0    0    0    0 -0.00000000000E+00 -0.00000000000E+00 -0.10000000000E+04  0.10000000000E+04  0.00000000000E+00 0.  1.
    9000005    2    1    2  501    0 -0.39738269789E+02  0.90762766094E+01 -0.87514944965E+03  0.87610410609E+03  0.32150592102E+01 0.  0.
         13    1    3    3    0    0 -0.15999416920E+02  0.52718875494E+01 -0.35779392283E+03  0.35819026418E+03  0.00000000000E+00 0.  1.
          1    1    3    3  501    0 -0.23738852869E+02  0.38043890601E+01 -0.51735552682E+03  0.51791384191E+03  0.00000000000E+00 0.  1.
         -1    1    1    2    0  502  0.39738269789E+02 -0.90762766094E+01 -0.12103345805E+03  0.12771298622E+03  0.00000000000E+00 0. -1.
<mgrwt>
<rscale>  1 0.30000000E+03</rscale>
<asrwt>0</asrwt>
<pdfrwt beam="1">  1       21 0.13880365E-01 0.30000000E+03</pdfrwt>
<pdfrwt beam="2">0</pdfrwt>
<totfact> 0.47509743E+03</totfact>
</mgrwt>
</event>
<event>
 6    1  0.1198667E-001  0.3000000E+03  0.7818608E-02  0.1093470E+00
         21   -1    0    0  501  502  0.00000000000E+00  0.00000000000E+00  0.15170497797E+01  0.15170497797E+01  0.00000000000E+00 0. -1.
         13   -1    0    0    0    0 -0.00000000000E+00 -0.00000000000E+00 -0.10000000000E+04  0.10000000000E+04  0.00000000000E+00 0.  1.
    9000005    2    1    2  501    0 -0.14296011311E+02 -0.28903079468E+02 -0.22271183845E+03  0.22507607856E+03  0.43490469005E+01 0.  0.
         13    1    3    3    0    0 -0.55994407965E+01 -0.10931133591E+02 -0.70725887964E+02  0.71784362135E+02  0.00000000000E+00 0.  1.
          3    1    3    3  501    0 -0.86965705146E+01 -0.17971945877E+02 -0.15198595049E+03  0.15329171642E+03  0.00000000000E+00 0.  1.
         -3    1    1    2    0  502  0.14296011311E+02  0.28903079468E+02 -0.77577111177E+03  0.77644097122E+03  0.00000000000E+00 0. -1.
<mgrwt>
<rscale>  1 0.30000000E+03</rscale>
<asrwt>0</asrwt>
<pdfrwt beam="1">  1       21 0.55165563E-02 0.30000000E+03</pdfrwt>
<pdfrwt beam="2">0</pdfrwt>
<totfact> 0.24348324E+04</totfact>
</mgrwt>
</event>
<event>
 6    1  0.1198667E-001  0.3000000E+03  0.7818608E-02  0.1093470E+00
         21   -1    0    0  501  502  0.00000000000E+00  0.00000000000E+00  0.53022272941E+01  0.53022272941E+01  0.00000000000E+00 0. -1.
         13   -1    0    0    0    0 -0.00000000000E+00 -0.00000000000E+00 -0.10000000000E+04  0.10000000000E+04  0.00000000000E+00 0.  1.
    9000005    2    1    2  501    0 -0.13498191723E+02  0.28382340340E+02 -0.95060605955E+03  0.95115578150E+03  0.75948540584E+01 0.  0.
         13    1    3    3    0    0 -0.84015661200E+01  0.15461802943E+02 -0.42095733401E+03  0.42132497045E+03  0.00000000000E+00 0.  1.
          3    1    3    3  501    0 -0.50966256031E+01  0.12920537397E+02 -0.52964872554E+03  0.52983081105E+03  0.00000000000E+00 0.  1.
         -3    1    1    2    0  502  0.13498191723E+02 -0.28382340340E+02 -0.44091713158E+02  0.54146445794E+02  0.00000000000E+00 0. -1.
<mgrwt>
<rscale>  1 0.30000000E+03</rscale>
<asrwt>0</asrwt>
<pdfrwt beam="1">  1       21 0.19280867E-01 0.30000000E+03</pdfrwt>
<pdfrwt beam="2">0</pdfrwt>
<totfact> 0.25724646E+03</totfact>
</mgrwt>
</event>
<event>
 6    1  0.1198667E-001  0.3000000E+03  0.7818608E-02  0.1093470E+00
         21   -1    0    0  501  502  0.00000000000E+00  0.00000000000E+00  0.31803857341E+01  0.31803857341E+01  0.00000000000E+00 0. -1.
         13   -1    0    0    0    0 -0.00000000000E+00 -0.00000000000E+00 -0.10000000000E+04  0.10000000000E+04  0.00000000000E+00 0.  1.
    9000005    2    1    2  501    0 -0.40898594733E+02 -0.10822606859E+02 -0.16743437712E+03  0.17271684321E+03  0.26482854151E+01 0.  0.
         13    1    3    3    0    0 -0.21549768303E+02 -0.66979607573E+01 -0.92897711088E+02  0.95599371952E+02  0.00000000000E+00 0.  1.
          3    1    3    3  501    0 -0.19348826430E+02 -0.41246461019E+01 -0.74536666034E+02  0.77117471258E+02  0.00000000000E+00 0.  1.
         -3    1    1    2    0  502  0.40898594733E+02  0.10822606859E+02 -0.82938523714E+03  0.83046354252E+03  0.00000000000E+00 0. -1.
<mgrwt>
<rscale>  1 0.30000000E+03</rscale>
<asrwt>0</asrwt>
<pdfrwt beam="1">  1       21 0.11565063E-01 0.30000000E+03</pdfrwt>
<pdfrwt beam="2">0</pdfrwt>
<totfact> 0.66256585E+03</totfact>
</mgrwt>
</event>
<event>
 6    1  0.1198667E-001  0.3000000E+03  0.7818608E-02  0.1093470E+00
         21   -1    0    0  501  502  0.00000000000E+00  0.00000000000E+00  0.11217970668E+01  0.11217970668E+01  0.00000000000E+00 0. -1.
         13   -1    0    0    0    0 -0.00000000000E+00 -0.00000000000E+00 -0.10000000000E+04  0.10000000000E+04  0.00000000000E+00 0.  1.
    9000005    2    1    2  501    0  0.23961502786E+02 -0.19904939179E+02 -0.67382549597E+03  0.67457988165E+03  0.68452530328E+01 0.  0.
         13    1    3    3    0    0  0.23701582788E+02 -0.19209376399E+02 -0.62080978493E+03  0.62155897084E+03  0.00000000000E+00 0.  1.
          3    1    3    3  501    0  0.25991999769E+00 -0.69556277968E+00 -0.53015711048E+02  0.53020910817E+02  0.00000000000E+00 0.  1.
         -1    1    1    2    0  502 -0.23961502786E+02  0.19904939179E+02 -0.32505270696E+03  0.32654191541E+03  0.00000000000E+00 0. -1.
<mgrwt>
<rscale>  1 0.30000000E+03</rscale>
<asrwt>0</asrwt>
<pdfrwt beam="1">  1       21 0.40792707E-02 0.30000000E+03</pdfrwt>
<pdfrwt beam="2">0</pdfrwt>
<totfact> 0.40679803E+04</totfact>
</mgrwt>
</event>
<event>
 6    1  0.1198667E-001  0.3000000E+03  0.7818608E-02  0.1093470E+00
         21   -1    0    0  501  502  0.00000000000E+00  0.00000000000E+00  0.28464489510E+01  0.28464489510E+01  0.00000000000E+00 0. -1.
         13   -1    0    0    0    0 -0.00000000000E+00 -0.00000000000E+00 -0.10000000000E+04  0.10000000000E+04  0.00000000000E+00 0.  1.
    9000005    2    1    2  501    0 -0.23721410960E+02  0.21157072897E+02 -0.90115987437E+03  0.90172714795E+03  0.35218054485E+01 0.  0.
         13    1    3    3    0    0 -0.59485356191E+01  0.57359946799E+01 -0.19405638572E+03  0.19423225157E+03  0.00000000000E+00 0.  1.
          3    1    3    3  501    0 -0.17772875341E+02  0.15421078217E+02 -0.70710348865E+03  0.70749489639E+03  0.00000000000E+00 0.  1.
         -1    1    1    2    0  502  0.23721410960E+02 -0.21157072897E+02 -0.95993676680E+02  0.10111930100E+03  0.00000000000E+00 0. -1.
<mgrwt>
<rscale>  1 0.30000000E+03</rscale>
<asrwt>0</asrwt>
<pdfrwt beam="1">  1       21 0.10350745E-01 0.30000000E+03</pdfrwt>
<pdfrwt beam="2">0</pdfrwt>
<totfact> 0.80887111E+03</totfact>
</mgrwt>
</event>
<event>
 6    1  0.1198667E-001  0.3000000E+03  0.7818608E-02  0.1093470E+00
         21   -1    0    0  501  502  0.00000000000E+00  0.00000000000E+00  0.33247802131E+01  0.33247802131E+01  0.00000000000E+00 0. -1.
         13   -1    0    0    0    0 -0.00000000000E+00 -0.00000000000E+00 -0.10000000000E+04  0.10000000000E+04  0.00000000000E+00 0.  1.
    9000005    2    1    2  501    0  0.46763280911E+02 -0.29071652585E+02 -0.64634589063E+03  0.64869454420E+03  0.31041774943E+01 0.  0.
         13    1    3    3    0    0  0.23309381519E+02 -0.13401772068E+02 -0.30079545176E+03  0.30199476578E+03  0.00000000000E+00 0.  1.
          1    1    3    3  501    0  0.23453899392E+02 -0.15669880517E+02 -0.34555043887E+03  0.34669977842E+03  0.00000000000E+00 0.  1.
         -3    1    1    2    0  502 -0.46763280911E+02  0.29071652585E+02 -0.35032932916E+03  0.35463023601E+03  0.00000000000E+00 0. -1.
<mgrwt>
<rscale>  1 0.30000000E+03</rscale>
<asrwt>0</asrwt>
<pdfrwt beam="1">  1       21 0.12090135E-01 0.30000000E+03</pdfrwt>
<pdfrwt beam="2">0</pdfrwt>
<totfact> 0.61134865E+03</totfact>
</mgrwt>
</event>
<event>
 6    1  0.1198667E-001  0.3000000E+03  0.7818608E-02  0.1093470E+00
         21   -1    0    0  501  502  0.00000000000E+00  0.00000000000E+00  0.19988468120E+01  0.19988468120E+01  0.00000000000E+00 0. -1.
         13   -1    0    0    0    0 -0.00000000000E+00 -0.00000000000E+00 -0.10000000000E+04  0.10000000000E+04  0.00000000000E+00 0.  1.
    9000005    2    1    2  501    0 -0.27542745813E+02 -0.24507742547E+02 -0.78191656611E+03  0.78279168209E+03  0.31731536957E+01 0.  0.
         13    1    3    3    0    0 -0.27930988018E+01 -0.27431521478E+01 -0.64804254056E+02  0.64922396971E+02  0.00000000000E+00 0.  1.
          1    1    3    3  501    0 -0.24749647011E+02 -0.21764590399E+02 -0.71711231205E+03  0.71786928512E+03  0.00000000000E+00 0.  1.
         -1    1    1    2    0  502  0.27542745813E+02  0.24507742547E+02 -0.21608458708E+03  0.21920716472E+03  0.00000000000E+00 0. -1.
<mgrwt>
<rscale>  1 0.30000000E+03</rscale>
<asrwt>0</asrwt>
<pdfrwt beam="1">  1       21 0.72685492E-02 0.30000000E+03</pdfrwt>
<pdfrwt beam="2">0</pdfrwt>
<totfact> 0.15110442E+04</totfact>
</mgrwt>
</event>
<event>
 6    1  0.1198667E-001  0.3000000E+03  0.7818608E-02  0.1093470E+00
         21   -1    0    0  501  502  0.00000000000E+00  0.00000000000E+00  0.26697617400E+01  0.26697617400E+01  0.00000000000E+00 0. -1.
         13   -1    0    0    0    0 -0.00000000000E+00 -0.00000000000E+00 -0.10000000000E+04  0.10000000000E+04  0.00000000000E+00 0.  1.
    9000005    2    1    2  501    0 -0.23263050150E+02 -0.35341590204E+02 -0.78292586794E+03  0.78413044832E+03  0.98715643603E+01 0.  0.
         13    1    3    3    0    0 -0.10562807173E+02 -0.11430302681E+02 -0.36227599085E+03  0.36261014639E+03  0.00000000000E+00 0.  1.
          3    1    3    3  501    0 -0.12700242977E+02 -0.23911287523E+02 -0.42064987709E+03  0.42152030193E+03  0.00000000000E+00 0.  1.
         -3    1    1    2    0  502  0.23263050150E+02  0.35341590204E+02 -0.21440437032E+03  0.21853931342E+03  0.00000000000E+00 0. -1.
<mgrwt>
<rscale>  1 0.30000000E+03</rscale>
<asrwt>0</asrwt>
<pdfrwt beam="1">  1       21 0.97082450E-02 0.30000000E+03</pdfrwt>
<pdfrwt beam="2">0</pdfrwt>
<totfact> 0.90702208E+03</totfact>
</mgrwt>
</event>
<event>
 6    1  0.1198667E-001  0.3000000E+03  0.7818608E-02  0.1093470E+00
         21   -1    0    0  501  502  0.00000000000E+00  0.00000000000E+00  0.22868072037E+01  0.22868072037E+01  0.00000000000E+00 0. -1.
         13   -1    0    0    0    0 -0.00000000000E+00 -0.00000000000E+00 -0.10000000000E+04  0.10000000000E+04  0.00000000000E+00 0.  1.
    9000005    2    1    2  501    0 -0.17260198065E+02 -0.38226331341E+02 -0.73888737375E+03  0.74008464960E+03  0.34015653836E+01 0.  0.
         13    1    3    3    0    0 -0.13756238204E+02 -0.32675936766E+02 -0.60801576694E+03  0.60904853976E+03  0.00000000000E+00 0.  1.
          3    1    3    3  501    0 -0.35039598614E+01 -0.55503945750E+01 -0.13087160681E+03  0.13103610984E+03  0.00000000000E+00 0.  1.
         -1    1    1    2    0  502  0.17260198065E+02  0.38226331341E+02 -0.25882581905E+03  0.26220215760E+03  0.00000000000E+00 0. -1.
<mgrwt>
<rscale>  1 0.30000000E+03</rscale>
<asrwt>0</asrwt>
<pdfrwt beam="1">  1       21 0.83156801E-02 0.30000000E+03</pdfrwt>
<pdfrwt beam="2">0</pdfrwt>
<totfact> 0.11933446E+04</totfact>
</mgrwt>
</event>
<event>
 6    1  0.1198667E-001  0.3000000E+03  0.7818608E-02  0.1093470E+00
         21   -1    0    0  501  502  0.00000000000E+00  0.00000000000E+00  0.15768006510E+01  0.15768006510E+01  0.00000000000E+00 0. -1.
         13   -1    0    0    0    0 -0.00000000000E+00 -0.00000000000E+00 -0.10000000000E+04  0.10000000000E+04  0.00000000000E+00 0.  1.
    9000005    2    1    2  501    0 -0.23637996632E+02 -0.21349335064E+02 -0.79764462526E+03  0.79828738920E+03  0.33553787469E+01 0.  0.
         13    1    3    3    0    0 -0.51016780869E+01 -0.48598315498E+01 -0.14434522986E+03  0.14451709403E+03  0.00000000000E+00 0.  1.
          3    1    3    3  501    0 -0.18536318545E+02 -0.16489503514E+02 -0.65329939539E+03  0.65377029518E+03  0.00000000000E+00 0.  1.
         -1    1    1    2    0  502  0.23637996632E+02  0.21349335064E+02 -0.20077857409E+03  0.20328941145E+03  0.00000000000E+00 0. -1.
<mgrwt>
<rscale>  1 0.30000000E+03</rscale>
<asrwt>0</asrwt>
<pdfrwt beam="1">  1       21 0.57338326E-02 0.30000000E+03</pdfrwt>
<pdfrwt beam="2">0</pdfrwt>
<totfact> 0.22785151E+04</totfact>
</mgrwt>
</event>
<event>
 6    1  0.1198667E-001  0.3000000E+03  0.7818608E-02  0.1093470E+00
         21   -1    0    0  501  502  0.00000000000E+00  0.00000000000E+00  0.11572919690E+01  0.11572919690E+01  0.00000000000E+00 0. -1.
         13   -1    0    0    0    0 -0.00000000000E+00 -0.00000000000E+00 -0.10000000000E+04  0.10000000000E+04  0.00000000000E+00 0.  1.
    9000005    2    1    2  501    0  0.13690226727E+02  0.30997953057E+02 -0.51960439720E+03  0.52072243273E+03  0.38505791144E+01 0.  0.
         13    1    3    3    0    0  0.66314083642E+01  0.10445700432E+02 -0.18657545996E+03  0.18698526811E+03  0.00000000000E+00 0.  1.
          3    1    3    3  501    0  0.70588183625E+01  0.20552252625E+02 -0.33302893724E+03  0.33373716462E+03  0.00000000000E+00 0.  1.
         -1    1    1    2    0  502 -0.13690226727E+02 -0.30997953057E+02 -0.47923831083E+03  0.48043485924E+03  0.00000000000E+00 0. -1.
<mgrwt>
<rscale>  1 0.30000000E+03</rscale>
<asrwt>0</asrwt>
<pdfrwt beam="1">  1       21 0.42083433E-02 0.30000000E+03</pdfrwt>
<pdfrwt beam="2">0</pdfrwt>
<totfact> 0.38596889E+04</totfact>
</mgrwt>
</event>
<event>
 6    1  0.1198667E-001  0.3000000E+03  0.7818608E-02  0.1093470E+00
         21   -1    0    0  501  502  0.00000000000E+00  0.00000000000E+00  0.24279775407E+01  0.24279775407E+01  0.00000000000E+00 0. -1.
         13   -1    0    0    0    0 -0.00000000000E+00 -0.00000000000E+00 -0.10000000000E+04  0.10000000000E+04  0.00000000000E+00 0.  1.
    9000005    2    1    2  501    0  0.37690002488E+02 -0.89272102669E+01 -0.80821560809E+03  0.80915075945E+03  0.35001407191E+01 0.  0.
         13    1    3    3    0    0  0.29587972487E+02 -0.58658412048E+01 -0.60757379917E+03  0.60832210025E+03  0.00000000000E+00 0.  1.
          3    1    3    3  501    0  0.81020300010E+01 -0.30613690621E+01 -0.20064180892E+03  0.20082865921E+03  0.00000000000E+00 0.  1.
         -1    1    1    2    0  502 -0.37690002488E+02  0.89272102669E+01 -0.18935641437E+03  0.19327721809E+03  0.00000000000E+00 0. -1.
<mgrwt>
<rscale>  1 0.30000000E+03</rscale>
<asrwt>0</asrwt>
<pdfrwt beam="1">  1       21 0.88290279E-02 0.30000000E+03</pdfrwt>
<pdfrwt beam="2">0</pdfrwt>
<totfact> 0.10736483E+04</totfact>
</mgrwt>
</event>
<event>
 6    1  0.1198667E-001  0.3000000E+03  0.7818608E-02  0.1093470E+00
         21   -1    0    0  501  502  0.00000000000E+00  0.00000000000E+00  0.10565946468E+01  0.10565946468E+01  0.00000000000E+00 0. -1.
         13   -1    0    0    0    0 -0.00000000000E+00 -0.00000000000E+00 -0.10000000000E+04  0.10000000000E+04  0.00000000000E+00 0.  1.
    9000005    2    1    2  501    0 -0.24342291050E+02 -0.21306285345E+02 -0.47182993504E+03  0.47295138211E+03  0.36079503786E+01 0.  0.
         13    1    3    3    0    0 -0.16580916030E+02 -0.16391845504E+02 -0.32657630357E+03  0.32740754638E+03  0.00000000000E+00 0.  1.
          3    1    3    3  501    0 -0.77613750197E+01 -0.49144398402E+01 -0.14525363148E+03  0.14554383573E+03  0.00000000000E+00 0.  1.
         -1    1    1    2    0  502  0.24342291050E+02  0.21306285345E+02 -0.52711347031E+03  0.52810521254E+03  0.00000000000E+00 0. -1.
<mgrwt>
<rscale>  1 0.30000000E+03</rscale>
<asrwt>0</asrwt>
<pdfrwt beam="1">  1       21 0.38421705E-02 0.30000000E+03</pdfrwt>
<pdfrwt beam="2">0</pdfrwt>
<totfact> 0.44993803E+04</totfact>
</mgrwt>
</event>
<event>
 6    1  0.1198667E-001  0.3000000E+03  0.7818608E-02  0.1093470E+00
         21   -1    0    0  501  502  0.00000000000E+00  0.00000000000E+00  0.10771534118E+01  0.10771534118E+01  0.00000000000E+00 0. -1.
         13   -1    0    0    0    0 -0.00000000000E+00 -0.00000000000E+00 -0.10000000000E+04  0.10000000000E+04  0.00000000000E+00 0.  1.
    9000005    2    1    2  501    0  0.26261232032E+02  0.18136465140E+02 -0.61167011659E+03  0.61251150830E+03  0.33812108030E+01 0.  0.
         13    1    3    3    0    0  0.62712349144E+01  0.59786873536E+01 -0.17784105984E+03  0.17805200267E+03  0.00000000000E+00 0.  1.
          1    1    3    3  501    0  0.19989997118E+02  0.12157777787E+02 -0.43382905676E+03  0.43445950563E+03  0.00000000000E+00 0.  1.
         -1    1    1    2    0  502 -0.26261232032E+02 -0.18136465140E+02 -0.38725272999E+03  0.38856564511E+03  0.00000000000E+00 0. -1.
<mgrwt>
<rscale>  1 0.30000000E+03</rscale>
<asrwt>0</asrwt>
<pdfrwt beam="1">  1       21 0.39169298E-02 0.30000000E+03</pdfrwt>
<pdfrwt beam="2">0</pdfrwt>
<totfact> 0.43559119E+04</totfact>
</mgrwt>
</event>
<event>
 6    1  0.1198667E-001  0.3000000E+03  0.7818608E-02  0.1093470E+00
         21   -1    0    0  501  502  0.00000000000E+00  0.00000000000E+00  0.40942994354E+01  0.40942994354E+01  0.00000000000E+00 0. -1.
         13   -1    0    0    0    0 -0.00000000000E+00 -0.00000000000E+00 -0.10000000000E+04  0.10000000000E+04  0.00000000000E+00 0.  1.
    9000005    2    1    2  501    0 -0.47417077438E+02  0.99168627526E+01 -0.82575957095E+03  0.82718633234E+03  0.34111570121E+01 0.  0.
         13    1    3    3    0    0 -0.15446408141E+02  0.29926900469E+01 -0.24195276341E+03  0.24246378583E+03  0.00000000000E+00 0.  1.
          3    1    3    3  501    0 -0.31970669297E+02  0.69241727056E+01 -0.58380680754E+03  0.58472254651E+03  0.00000000000E+00 0.  1.
         -1    1    1    2    0  502  0.47417077438E+02 -0.99168627526E+01 -0.17014612962E+03  0.17690796710E+03  0.00000000000E+00 0. -1.
<mgrwt>
<rscale>  1 0.30000000E+03</rscale>
<asrwt>0</asrwt>
<pdfrwt beam="1">  1       21 0.14888393E-01 0.30000000E+03</pdfrwt>
<pdfrwt beam="2">0</pdfrwt>
<totfact> 0.41753292E+03</totfact>
</mgrwt>
</event>
<event>
 6    1  0.1198667E-001  0.3000000E+03  0.7818608E-02  0.1093470E+00
         21   -1    0    0  501  502  0.00000000000E+00  0.00000000000E+00  0.20885248590E+01  0.20885248590E+01  0.00000000000E+00 0. -1.
         13   -1    0    0    0    0 -0.00000000000E+00 -0.00000000000E+00 -0.10000000000E+04  0.10000000000E+04  0.00000000000E+00 0.  1.
    9000005    2    1    2  501    0 -0.35655219041E+02 -0.94193736611E+01 -0.79429851613E+03  0.79516279827E+03  0.37045633433E+01 0.  0.
         13    1    3    3    0    0 -0.24138983323E+01 -0.31655631623E+00 -0.36639956754E+02  0.36720750864E+02  0.00000000000E+00 0.  1.
          3    1    3    3  501    0 -0.33241320708E+02 -0.91028173448E+01 -0.75765855937E+03  0.75844204741E+03  0.00000000000E+00 0.  1.
         -1    1    1    2    0  502  0.35655219041E+02  0.94193736611E+01 -0.20361295901E+03  0.20692572659E+03  0.00000000000E+00 0. -1.
<mgrwt>
<rscale>  1 0.30000000E+03</rscale>
<asrwt>0</asrwt>
<pdfrwt beam="1">  1       21 0.75946519E-02 0.30000000E+03</pdfrwt>
<pdfrwt beam="2">0</pdfrwt>
<totfact> 0.13993704E+04</totfact>
</mgrwt>
</event>
<event>
 6    1  0.1198667E-001  0.3000000E+03  0.7818608E-02  0.1093470E+00
         21   -1    0    0  501  502  0.00000000000E+00  0.00000000000E+00  0.23738630849E+02  0.23738630849E+02  0.00000000000E+00 0. -1.
         13   -1    0    0    0    0 -0.00000000000E+00 -0.00000000000E+00 -0.10000000000E+04  0.10000000000E+04  0.00000000000E+00 0.  1.
    9000005    2    1    2  501    0 -0.22240529033E+02  0.34905409246E+02 -0.98118043752E+03  0.98205858814E+03  0.33152456412E+01 0.  0.
         13    1    3    3    0    0 -0.72014966841E+01  0.11985056800E+02 -0.36843876705E+03  0.36870398453E+03  0.00000000000E+00 0.  1.
          3    1    3    3  501    0 -0.15039032349E+02  0.22920352446E+02 -0.61274167047E+03  0.61335460362E+03  0.00000000000E+00 0.  1.
         -1    1    1    2    0  502  0.22240529033E+02 -0.34905409246E+02  0.49190683670E+01  0.41680042705E+02  0.00000000000E+00 0. -1.
<mgrwt>
<rscale>  1 0.30000000E+03</rscale>
<asrwt>0</asrwt>
<pdfrwt beam="1">  1       21 0.86322476E-01 0.30000000E+03</pdfrwt>
<pdfrwt beam="2">0</pdfrwt>
<totfact> 0.10685586E+02</totfact>
</mgrwt>
</event>
<event>
 6    1  0.1198667E-001  0.3000000E+03  0.7818608E-02  0.1093470E+00
         21   -1    0    0  501  502  0.00000000000E+00  0.00000000000E+00  0.58680059159E+01  0.58680059159E+01  0.00000000000E+00 0. -1.
         13   -1    0    0    0    0 -0.00000000000E+00 -0.00000000000E+00 -0.10000000000E+04  0.10000000000E+04  0.00000000000E+00 0.  1.
    9000005    2    1    2  501    0 -0.12598474558E+02  0.66462460549E+02 -0.73263173043E+03  0.73575993845E+03  0.41778414495E+01 0.  0.
         13    1    3    3    0    0 -0.51364393287E+00  0.22546192282E+01 -0.34613715102E+02  0.34690869276E+02  0.00000000000E+00 0.  1.
          3    1    3    3  501    0 -0.12084830625E+02  0.64207841321E+02 -0.69801801533E+03  0.70106906917E+03  0.00000000000E+00 0.  1.
         -3    1    1    2    0  502  0.12598474558E+02 -0.66462460549E+02 -0.26150026365E+03  0.27010806747E+03  0.00000000000E+00 0. -1.
<mgrwt>
<rscale>  1 0.30000000E+03</rscale>
<asrwt>0</asrwt>
<pdfrwt beam="1">  1       21 0.21338248E-01 0.30000000E+03</pdfrwt>
<pdfrwt beam="2">0</pdfrwt>
<totfact> 0.21194531E+03</totfact>
</mgrwt>
</event>
<event>
 6    1  0.1198667E-001  0.3000000E+03  0.7818608E-02  0.1093470E+00
         21   -1    0    0  501  502  0.00000000000E+00  0.00000000000E+00  0.45476066184E+01  0.45476066184E+01  0.00000000000E+00 0. -1.
         13   -1    0    0    0    0 -0.00000000000E+00 -0.00000000000E+00 -0.10000000000E+04  0.10000000000E+04  0.00000000000E+00 0.  1.
    9000005    2    1    2  501    0 -0.21749589306E+02 -0.35613552302E+02 -0.89222989506E+03  0.89320914110E+03  0.26484669297E+01 0.  0.
         13    1    3    3    0    0 -0.55789469247E+01 -0.10849266533E+02 -0.24364042800E+03  0.24394566893E+03  0.00000000000E+00 0.  1.
          3    1    3    3  501    0 -0.16170642381E+02 -0.24764285769E+02 -0.64858946705E+03  0.64926347217E+03  0.00000000000E+00 0.  1.
         -1    1    1    2    0  502  0.21749589306E+02  0.35613552302E+02 -0.10322249833E+03  0.11133846551E+03  0.00000000000E+00 0. -1.
<mgrwt>
<rscale>  1 0.30000000E+03</rscale>
<asrwt>0</asrwt>
<pdfrwt beam="1">  1       21 0.16536786E-01 0.30000000E+03</pdfrwt>
<pdfrwt beam="2">0</pdfrwt>
<totfact> 0.34345111E+03</totfact>
</mgrwt>
</event>
<event>
 6    1  0.1198667E-001  0.3000000E+03  0.7818608E-02  0.1093470E+00
         21   -1    0    0  501  502  0.00000000000E+00  0.00000000000E+00  0.43652199830E+01  0.43652199830E+01  0.00000000000E+00 0. -1.
         13   -1    0    0    0    0 -0.00000000000E+00 -0.00000000000E+00 -0.10000000000E+04  0.10000000000E+04  0.00000000000E+00 0.  1.
    9000005    2    1    2  501    0  0.23864801192E+02  0.50147912998E+02 -0.76959722016E+03  0.77160499920E+03  0.31704249973E+01 0.  0.
         13    1    3    3    0    0  0.22689943381E+02  0.47459359085E+02 -0.73765368543E+03  0.73952700013E+03  0.00000000000E+00 0.  1.
          1    1    3    3  501    0  0.11748578106E+01  0.26885539134E+01 -0.31943534732E+02  0.32077999068E+02  0.00000000000E+00 0.  1.
         -1    1    1    2    0  502 -0.23864801192E+02 -0.50147912998E+02 -0.22603755986E+03  0.23276022079E+03  0.00000000000E+00 0. -1.
<mgrwt>
<rscale>  1 0.30000000E+03</rscale>
<asrwt>0</asrwt>
<pdfrwt beam="1">  1       21 0.15873561E-01 0.30000000E+03</pdfrwt>
<pdfrwt beam="2">0</pdfrwt>
<totfact> 0.37070659E+03</totfact>
</mgrwt>
</event>
<event>
 6    1  0.1198667E-001  0.3000000E+03  0.7818608E-02  0.1093470E+00
         21   -1    0    0  501  502  0.00000000000E+00  0.00000000000E+00  0.19709951673E+01  0.19709951673E+01  0.00000000000E+00 0. -1.
         13   -1    0    0    0    0 -0.00000000000E+00 -0.00000000000E+00 -0.10000000000E+04  0.10000000000E+04  0.00000000000E+00 0.  1.
    9000005    2    1    2  501    0  0.25330907293E+02  0.27047645741E+02 -0.77422692280E+03  0.77512170174E+03  0.36186353487E+01 0.  0.
         13    1    3    3    0    0  0.83102246184E+01  0.65292506731E+01 -0.21363714137E+03  0.21389838503E+03  0.00000000000E+00 0.  1.
          3    1    3    3  501    0  0.17020682675E+02  0.20518395068E+02 -0.56058978143E+03  0.56122331671E+03  0.00000000000E+00 0.  1.
         -1    1    1    2    0  502 -0.25330907293E+02 -0.27047645741E+02 -0.22380208203E+03  0.22684929342E+03  0.00000000000E+00 0. -1.
<mgrwt>
<rscale>  1 0.30000000E+03</rscale>
<asrwt>0</asrwt>
<pdfrwt beam="1">  1       21 0.71672703E-02 0.30000000E+03</pdfrwt>
<pdfrwt beam="2">0</pdfrwt>
<totfact> 0.15484981E+04</totfact>
</mgrwt>
</event>
<event>
 6    1  0.1198667E-001  0.3000000E+03  0.7818608E-02  0.1093470E+00
         21   -1    0    0  501  502  0.00000000000E+00  0.00000000000E+00  0.36794704841E+01  0.36794704841E+01  0.00000000000E+00 0. -1.
         13   -1    0    0    0    0 -0.00000000000E+00 -0.00000000000E+00 -0.10000000000E+04  0.10000000000E+04  0.00000000000E+00 0.  1.
    9000005    2    1    2  501    0  0.14667519816E+02 -0.29147824564E+02 -0.92103488447E+03  0.92162668160E+03  0.50744462217E+01 0.  0.
         13    1    3    3    0    0  0.10429191081E+02 -0.16787694446E+02 -0.50473019303E+03  0.50511697899E+03  0.00000000000E+00 0.  1.
          1    1    3    3  501    0  0.42383287354E+01 -0.12360130118E+02 -0.41630469144E+03  0.41650970260E+03  0.00000000000E+00 0.  1.
         -3    1    1    2    0  502 -0.14667519816E+02  0.29147824564E+02 -0.75285645046E+02  0.82052788889E+02  0.00000000000E+00 0. -1.
<mgrwt>
<rscale>  1 0.30000000E+03</rscale>
<asrwt>0</asrwt>
<pdfrwt beam="1">  1       21 0.13379921E-01 0.30000000E+03</pdfrwt>
<pdfrwt beam="2">0</pdfrwt>
<totfact> 0.50817487E+03</totfact>
</mgrwt>
</event>
<event>
 6    1  0.1198667E-001  0.3000000E+03  0.7818608E-02  0.1093470E+00
         21   -1    0    0  501  502  0.00000000000E+00  0.00000000000E+00  0.12238220496E+01  0.12238220496E+01  0.00000000000E+00 0. -1.
         13   -1    0    0    0    0 -0.00000000000E+00 -0.00000000000E+00 -0.10000000000E+04  0.10000000000E+04  0.00000000000E+00 0.  1.
    9000005    2    1    2  501    0 -0.27627113821E+02  0.12037396186E+02 -0.74888301152E+03  0.74952012531E+03  0.68188688791E+01 0.  0.
         13    1    3    3    0    0 -0.69410850661E+01  0.51498048158E+00 -0.13283419182E+03  0.13301641396E+03  0.00000000000E+00 0.  1.
          1    1    3    3  501    0 -0.20686028755E+02  0.11522415704E+02 -0.61604881970E+03  0.61650371135E+03  0.00000000000E+00 0.  1.
         -1    1    1    2    0  502  0.27627113821E+02 -0.12037396186E+02 -0.24989316643E+03  0.25170369674E+03  0.00000000000E+00 0. -1.
<mgrwt>
<rscale>  1 0.30000000E+03</rscale>
<asrwt>0</asrwt>
<pdfrwt beam="1">  1       21 0.44502714E-02 0.30000000E+03</pdfrwt>
<pdfrwt beam="2">0</pdfrwt>
<totfact> 0.35113824E+04</totfact>
</mgrwt>
</event>
<event>
 6    1  0.1198667E-001  0.3000000E+03  0.7818608E-02  0.1093470E+00
         21   -1    0    0  501  502  0.00000000000E+00  0.00000000000E+00  0.68359317393E+01  0.68359317393E+01  0.00000000000E+00 0. -1.
         13   -1    0    0    0    0 -0.00000000000E+00 -0.00000000000E+00 -0.10000000000E+04  0.10000000000E+04  0.00000000000E+00 0.  1.
    9000005    2    1    2  501    0 -0.46062245388E+02 -0.29734798046E+02 -0.87332848850E+03  0.87505408609E+03  0.33340816185E+01 0.  0.
         13    1    3    3    0    0 -0.32927771576E+02 -0.22531260930E+02 -0.65097455768E+03  0.65219611361E+03  0.00000000000E+00 0.  1.
          1    1    3    3  501    0 -0.13134473811E+02 -0.72035371159E+01 -0.22235393082E+03  0.22285797248E+03  0.00000000000E+00 0.  1.
         -1    1    1    2    0  502  0.46062245388E+02  0.29734798046E+02 -0.11983557976E+03  0.13178184564E+03  0.00000000000E+00 0. -1.
<mgrwt>
<rscale>  1 0.30000000E+03</rscale>
<asrwt>0</asrwt>
<pdfrwt beam="1">  1       21 0.24857986E-01 0.30000000E+03</pdfrwt>
<pdfrwt beam="2">0</pdfrwt>
<totfact> 0.15770770E+03</totfact>
</mgrwt>
</event>
<event>
 6    1  0.1198667E-001  0.3000000E+03  0.7818608E-02  0.1093470E+00
         21   -1    0    0  501  502  0.00000000000E+00  0.00000000000E+00  0.15562920326E+01  0.15562920326E+01  0.00000000000E+00 0. -1.
         13   -1    0    0    0    0 -0.00000000000E+00 -0.00000000000E+00 -0.10000000000E+04  0.10000000000E+04  0.00000000000E+00 0.  1.
    9000005    2    1    2  501    0  0.12410008230E+02 -0.32437405564E+02 -0.73550417996E+03  0.73633301068E+03  0.37027410015E+01 0.  0.
         13    1    3    3    0    0  0.11647240963E+02 -0.31958945353E+02 -0.71329863769E+03  0.71410922060E+03  0.00000000000E+00 0.  1.
          1    1    3    3  501    0  0.76276726634E+00 -0.47846021066E+00 -0.22205542269E+02  0.22223790080E+02  0.00000000000E+00 0.  1.
         -3    1    1    2    0  502 -0.12410008230E+02  0.32437405564E+02 -0.26293952801E+03  0.26522328135E+03  0.00000000000E+00 0. -1.
<mgrwt>
<rscale>  1 0.30000000E+03</rscale>
<asrwt>0</asrwt>
<pdfrwt beam="1">  1       21 0.56592557E-02 0.30000000E+03</pdfrwt>
<pdfrwt beam="2">0</pdfrwt>
<totfact> 0.23303875E+04</totfact>
</mgrwt>
</event>
<event>
 6    1  0.1198667E-001  0.3000000E+03  0.7818608E-02  0.1093470E+00
         21   -1    0    0  501  502  0.00000000000E+00  0.00000000000E+00  0.10525318657E+01  0.10525318657E+01  0.00000000000E+00 0. -1.
         13   -1    0    0    0    0 -0.00000000000E+00 -0.00000000000E+00 -0.10000000000E+04  0.10000000000E+04  0.00000000000E+00 0.  1.
    9000005    2    1    2  501    0  0.69793578329E+01  0.30287086173E+02 -0.36133215519E+03  0.36268014343E+03  0.31529406569E+01 0.  0.
         13    1    3    3    0    0  0.46326183125E+01  0.21045288148E+02 -0.26651183349E+03  0.26738160501E+03  0.00000000000E+00 0.  1.
          1    1    3    3  501    0  0.23467395204E+01  0.92417980245E+01 -0.94820321703E+02  0.95298538420E+02  0.00000000000E+00 0.  1.
         -3    1    1    2    0  502 -0.69793578329E+01 -0.30287086173E+02 -0.63761531294E+03  0.63837238844E+03  0.00000000000E+00 0. -1.
<mgrwt>
<rscale>  1 0.30000000E+03</rscale>
<asrwt>0</asrwt>
<pdfrwt beam="1">  1       21 0.38273967E-02 0.30000000E+03</pdfrwt>
<pdfrwt beam="2">0</pdfrwt>
<totfact> 0.45286096E+04</totfact>
</mgrwt>
</event>
<event>
 6    1  0.1198667E-001  0.3000000E+03  0.7818608E-02  0.1093470E+00
         21   -1    0    0  501  502  0.00000000000E+00  0.00000000000E+00  0.27773976333E+01  0.27773976333E+01  0.00000000000E+00 0. -1.
         13   -1    0    0    0    0 -0.00000000000E+00 -0.00000000000E+00 -0.10000000000E+04  0.10000000000E+04  0.00000000000E+00 0.  1.
    9000005    2    1    2  501    0 -0.86059893807E+01 -0.49596343163E+02 -0.64578821506E+03  0.64775628715E+03  0.34537691317E+01 0.  0.
         13    1    3    3    0    0 -0.46516463688E+01 -0.21063942546E+02 -0.29463205536E+03  0.29542067554E+03  0.00000000000E+00 0.  1.
          3    1    3    3  501    0 -0.39543430118E+01 -0.28532400617E+02 -0.35115615971E+03  0.35233561162E+03  0.00000000000E+00 0.  1.
         -1    1    1    2    0  502  0.86059893807E+01  0.49596343163E+02 -0.35143438730E+03  0.35502111048E+03  0.00000000000E+00 0. -1.
<mgrwt>
<rscale>  1 0.30000000E+03</rscale>
<asrwt>0</asrwt>
<pdfrwt beam="1">  1       21 0.10099649E-01 0.30000000E+03</pdfrwt>
<pdfrwt beam="2">0</pdfrwt>
<totfact> 0.84520679E+03</totfact>
</mgrwt>
</event>
<event>
 6    1  0.1198667E-001  0.3000000E+03  0.7818608E-02  0.1093470E+00
         21   -1    0    0  501  502  0.00000000000E+00  0.00000000000E+00  0.11969402591E+01  0.11969402591E+01  0.00000000000E+00 0. -1.
         13   -1    0    0    0    0 -0.00000000000E+00 -0.00000000000E+00 -0.10000000000E+04  0.10000000000E+04  0.00000000000E+00 0.  1.
    9000005    2    1    2  501    0  0.17798763613E+02  0.26564945885E+02 -0.68785164641E+03  0.68860571552E+03  0.39308563599E+01 0.  0.
         13    1    3    3    0    0  0.63685111437E+01  0.12174431202E+02 -0.26774649953E+03  0.26809879283E+03  0.00000000000E+00 0.  1.
          1    1    3    3  501    0  0.11430252469E+02  0.14390514684E+02 -0.42010514688E+03  0.42050692268E+03  0.00000000000E+00 0.  1.
         -3    1    1    2    0  502 -0.17798763613E+02 -0.26564945885E+02 -0.31095141333E+03  0.31259122474E+03  0.00000000000E+00 0. -1.
<mgrwt>
<rscale>  1 0.30000000E+03</rscale>
<asrwt>0</asrwt>
<pdfrwt beam="1">  1       21 0.43525192E-02 0.30000000E+03</pdfrwt>
<pdfrwt beam="2">0</pdfrwt>
<totfact> 0.36460127E+04</totfact>
</mgrwt>
</event>
<event>
 6    1  0.1198667E-001  0.3000000E+03  0.7818608E-02  0.1093470E+00
         21   -1    0    0  501  502  0.00000000000E+00  0.00000000000E+00  0.30684977125E+01  0.30684977125E+01  0.00000000000E+00 0. -1.
         13   -1    0    0    0    0 -0.00000000000E+00 -0.00000000000E+00 -0.10000000000E+04  0.10000000000E+04  0.00000000000E+00 0.  1.
    9000005    2    1    2  501    0 -0.52698010954E+02  0.15218319506E+02 -0.56488235941E+03  0.56755140336E+03  0.37199304841E+01 0.  0.
         13    1    3    3    0    0 -0.16736499358E+02  0.47062722549E+01 -0.19734312033E+03  0.19810746213E+03  0.00000000000E+00 0.  1.
          3    1    3    3  501    0 -0.35961511595E+02  0.10512047251E+02 -0.36753923908E+03  0.36944394124E+03  0.00000000000E+00 0.  1.
         -1    1    1    2    0  502  0.52698010954E+02 -0.15218319506E+02 -0.43204914288E+03  0.43551709435E+03  0.00000000000E+00 0. -1.
<mgrwt>
<rscale>  1 0.30000000E+03</rscale>
<asrwt>0</asrwt>
<pdfrwt beam="1">  1       21 0.11158197E-01 0.30000000E+03</pdfrwt>
<pdfrwt beam="2">0</pdfrwt>
<totfact> 0.70679779E+03</totfact>
</mgrwt>
</event>
<event>
 6    1  0.1198667E-001  0.3000000E+03  0.7818608E-02  0.1093470E+00
         21   -1    0    0  501  502  0.00000000000E+00  0.00000000000E+00  0.49703674281E+01  0.49703674281E+01  0.00000000000E+00 0. -1.
         13   -1    0    0    0    0 -0.00000000000E+00 -0.00000000000E+00 -0.10000000000E+04  0.10000000000E+04  0.00000000000E+00 0.  1.
    9000005    2    1    2  501    0  0.36247187233E+02 -0.26817575466E+02 -0.88369492287E+03  0.88485184879E+03  0.36106312778E+01 0.  0.
         13    1    3    3    0    0  0.31046923297E+02 -0.24069776086E+02 -0.75134193103E+03  0.75236823623E+03  0.00000000000E+00 0.  1.
          3    1    3    3  501    0  0.52002639364E+01 -0.27477993797E+01 -0.13235299184E+03  0.13248361256E+03  0.00000000000E+00 0.  1.
         -3    1    1    2    0  502 -0.36247187233E+02  0.26817575466E+02 -0.11133470970E+03  0.12011851864E+03  0.00000000000E+00 0. -1.
<mgrwt>
<rscale>  1 0.30000000E+03</rscale>
<asrwt>0</asrwt>
<pdfrwt beam="1">  1       21 0.18074101E-01 0.30000000E+03</pdfrwt>
<pdfrwt beam="2">0</pdfrwt>
<totfact> 0.29069669E+03</totfact>
</mgrwt>
</event>
<event>
 6    1  0.1198667E-001  0.3000000E+03  0.7818608E-02  0.1093470E+00
         21   -1    0    0  501  502  0.00000000000E+00  0.00000000000E+00  0.13066541964E+01  0.13066541964E+01  0.00000000000E+00 0. -1.
         13   -1    0    0    0    0 -0.00000000000E+00 -0.00000000000E+00 -0.10000000000E+04  0.10000000000E+04  0.00000000000E+00 0.  1.
    9000005    2    1    2  501    0 -0.92991438097E+01  0.33608601876E+02 -0.62311675361E+03  0.62411467549E+03  0.53504521826E+01 0.  0.
         13    1    3    3    0    0 -0.54976453773E+01  0.17474187968E+02 -0.28087989252E+03  0.28147661603E+03  0.00000000000E+00 0.  1.
          3    1    3    3  501    0 -0.38014984324E+01  0.16134413908E+02 -0.34223686109E+03  0.34263805946E+03  0.00000000000E+00 0.  1.
         -3    1    1    2    0  502  0.92991438097E+01 -0.33608601876E+02 -0.37557659219E+03  0.37719197870E+03  0.00000000000E+00 0. -1.
<mgrwt>
<rscale>  1 0.30000000E+03</rscale>
<asrwt>0</asrwt>
<pdfrwt beam="1">  1       21 0.47514798E-02 0.30000000E+03</pdfrwt>
<pdfrwt beam="2">0</pdfrwt>
<totfact> 0.31416900E+04</totfact>
</mgrwt>
</event>
<event>
 6    1  0.1198667E-001  0.3000000E+03  0.7818608E-02  0.1093470E+00
         21   -1    0    0  501  502  0.00000000000E+00  0.00000000000E+00  0.46539553466E+01  0.46539553466E+01  0.00000000000E+00 0. -1.
         13   -1    0    0    0    0 -0.00000000000E+00 -0.00000000000E+00 -0.10000000000E+04  0.10000000000E+04  0.00000000000E+00 0.  1.
    9000005    2    1    2  501    0 -0.35667874244E+02 -0.23147016790E+02 -0.89013958437E+03  0.89117981325E+03  0.67080728181E+01 0.  0.
         13    1    3    3    0    0  0.95221444561E-01  0.51208378912E-01 -0.16928748307E+02  0.16929093557E+02  0.00000000000E+00 0.  1.
          1    1    3    3  501    0 -0.35763095689E+02 -0.23198225169E+02 -0.87321083606E+03  0.87425071969E+03  0.00000000000E+00 0.  1.
         -3    1    1    2    0  502  0.35667874244E+02  0.23147016790E+02 -0.10520646028E+03  0.11347414210E+03  0.00000000000E+00 0. -1.
<mgrwt>
<rscale>  1 0.30000000E+03</rscale>
<asrwt>0</asrwt>
<pdfrwt beam="1">  1       21 0.16923510E-01 0.30000000E+03</pdfrwt>
<pdfrwt beam="2">0</pdfrwt>
<totfact> 0.32891796E+03</totfact>
</mgrwt>
</event>
