<event>
 6    1  0.1386179E-004  0.7308351E+03  0.7818608E-02  0.9665906E-01
         21   -1    0    0  501  502  0.00000000000E+00  0.00000000000E+00  0.21443476565E+03  0.21443476565E+03  0.00000000000E+00 0.  1.
         13   -1    0    0    0    0 -0.00000000000E+00 -0.00000000000E+00 -0.10000000000E+04  0.10000000000E+04  0.00000000000E+00 0.  1.
    9000005    2    1    2  501    0 -0.18276437283E+02 -0.97904466802E+02 -0.82954497973E+03  0.11055608441E+04  0.72401698455E+03 0.  0.
         13    1    3    3    0    0 -0.66334387541E+02  0.30344081627E+03 -0.24866928531E+03  0.39788565368E+03  0.00000000000E+00 0.  1.
          3    1    3    3  501    0  0.48057950258E+02 -0.40134528307E+03 -0.58087569443E+03  0.70767519047E+03  0.00000000000E+00 0.  1.
         -3    1    1    2    0  502  0.18276437283E+02  0.97904466802E+02  0.43979745382E+02  0.10887392150E+03  0.00000000000E+00 0. -1.
<mgrwt>
<rscale>  1 0.73083507E+03</rscale>
<asrwt>0</asrwt>
<pdfrwt beam="1">  1       21 0.32989963E-01 0.73083507E+03</pdfrwt>
<pdfrwt beam="2">0</pdfrwt>
<totfact> 0.83375688E+02</totfact>
</mgrwt>
</event>
<event>
 6    1  0.1386179E-004  0.6904903E+03  0.7818608E-02  0.9733635E-01
         21   -1    0    0  501  502  0.00000000000E+00  0.00000000000E+00  0.13651910148E+03  0.13651910148E+03  0.00000000000E+00 0.  1.
         13   -1    0    0    0    0 -0.00000000000E+00 -0.00000000000E+00 -0.10000000000E+04  0.10000000000E+04  0.00000000000E+00 0.  1.
    9000005    2    1    2  501    0 -0.48259080776E+01 -0.42292143876E+02 -0.84175741076E+03  0.10887297225E+04  0.68917701303E+03 0.  0.
         13    1    3    3    0    0 -0.34646464710E+03 -0.68868519551E+01 -0.44322436790E+03  0.56261267380E+03  0.00000000000E+00 0.  1.
          1    1    3    3  501    0  0.34163873902E+03 -0.35405291921E+02 -0.39853304286E+03  0.52611704871E+03  0.00000000000E+00 0.  1.
         -1    1    1    2    0  502  0.48259080776E+01  0.42292143876E+02 -0.21723487755E+02  0.47789378973E+02  0.00000000000E+00 0. -1.
<mgrwt>
<rscale>  1 0.69049031E+03</rscale>
<asrwt>0</asrwt>
<pdfrwt beam="1">  1       21 0.21002938E-01 0.69049031E+03</pdfrwt>
<pdfrwt beam="2">0</pdfrwt>
<totfact> 0.20394401E+03</totfact>
</mgrwt>
</event>
<event>
 6    1  0.1386179E-004  0.6562043E+03  0.7818608E-02  0.9795206E-01
         21   -1    0    0  501  502  0.00000000000E+00  0.00000000000E+00  0.15294629354E+03  0.15294629354E+03  0.00000000000E+00 0.  1.
         13   -1    0    0    0    0 -0.00000000000E+00 -0.00000000000E+00 -0.10000000000E+04  0.10000000000E+04  0.00000000000E+00 0.  1.
    9000005    2    1    2  501    0  0.10962109354E+03  0.62796658383E+01 -0.79669845485E+03  0.10321494818E+04  0.64695278542E+03 0.  0.
         13    1    3    3    0    0 -0.62397148118E+02  0.27766234892E+03 -0.17990435938E+03  0.33668288139E+03  0.00000000000E+00 0.  1.
          1    1    3    3  501    0  0.17201824166E+03 -0.27138268308E+03 -0.61679409547E+03  0.69546660045E+03  0.00000000000E+00 0.  1.
         -3    1    1    2    0  502 -0.10962109354E+03 -0.62796658383E+01 -0.50355251608E+02  0.12079681170E+03  0.00000000000E+00 0. -1.
<mgrwt>
<rscale>  1 0.65620433E+03</rscale>
<asrwt>0</asrwt>
<pdfrwt beam="1">  1       21 0.23530198E-01 0.65620433E+03</pdfrwt>
<pdfrwt beam="2">0</pdfrwt>
<totfact> 0.16387194E+03</totfact>
</mgrwt>
</event>
<event>
 6    1  0.1386179E-004  0.6563718E+03  0.7818608E-02  0.9794896E-01
         21   -1    0    0  501  502  0.00000000000E+00  0.00000000000E+00  0.15023821624E+03  0.15023821624E+03  0.00000000000E+00 0. -1.
         13   -1    0    0    0    0 -0.00000000000E+00 -0.00000000000E+00 -0.10000000000E+04  0.10000000000E+04  0.00000000000E+00 0.  1.
    9000005    2    1    2  501    0  0.58895125880E+02  0.51404178696E+01 -0.86812650786E+03  0.10883324585E+04  0.65370394435E+03 0.  0.
         13    1    3    3    0    0 -0.39444048333E+02 -0.30064654047E+03 -0.59036262203E+03  0.66368079733E+03  0.00000000000E+00 0.  1.
          1    1    3    3  501    0  0.98339174213E+02  0.30578695834E+03 -0.27776388582E+03  0.42465166118E+03  0.00000000000E+00 0.  1.
         -3    1    1    2    0  502 -0.58895125880E+02 -0.51404178696E+01  0.18364724093E+02  0.61905757724E+02  0.00000000000E+00 0. -1.
<mgrwt>
<rscale>  1 0.65637177E+03</rscale>
<asrwt>0</asrwt>
<pdfrwt beam="1">  1       21 0.23113571E-01 0.65637177E+03</pdfrwt>
<pdfrwt beam="2">0</pdfrwt>
<totfact> 0.16966997E+03</totfact>
</mgrwt>
</event>
<event>
 6    1  0.1386179E-004  0.6532419E+03  0.7818608E-02  0.9800715E-01
         21   -1    0    0  501  502  0.00000000000E+00  0.00000000000E+00  0.13620317839E+03  0.13620317839E+03  0.00000000000E+00 0.  1.
         13   -1    0    0    0    0 -0.00000000000E+00 -0.00000000000E+00 -0.10000000000E+04  0.10000000000E+04  0.00000000000E+00 0.  1.
    9000005    2    1    2  501    0 -0.12296743871E+01  0.20224792897E+02 -0.88942006853E+03  0.11035366033E+04  0.65292757800E+03 0.  0.
         13    1    3    3    0    0  0.38954794603E+01 -0.16940835173E+03 -0.89779770006E+03  0.91364931709E+03  0.00000000000E+00 0.  1.
          1    1    3    3  501    0 -0.51251538474E+01  0.18963314463E+03  0.83776315234E+01  0.18988728618E+03  0.00000000000E+00 0.  1.
         -1    1    1    2    0  502  0.12296743871E+01 -0.20224792897E+02  0.25623246921E+02  0.32666575113E+02  0.00000000000E+00 0. -1.
<mgrwt>
<rscale>  1 0.65324190E+03</rscale>
<asrwt>0</asrwt>
<pdfrwt beam="1">  1       21 0.20954335E-01 0.65324190E+03</pdfrwt>
<pdfrwt beam="2">0</pdfrwt>
<totfact> 0.20516696E+03</totfact>
</mgrwt>
</event>
<event>
 6    1  0.1386179E-004  0.7034881E+03  0.7818608E-02  0.9711286E-01
         21   -1    0    0  501  502  0.00000000000E+00  0.00000000000E+00  0.30526262493E+03  0.30526262493E+03  0.00000000000E+00 0. -1.
         13   -1    0    0    0    0 -0.00000000000E+00 -0.00000000000E+00 -0.10000000000E+04  0.10000000000E+04  0.00000000000E+00 0.  1.
    9000005    2    1    2  501    0  0.25034509478E+03  0.66540649177E+02 -0.76255989471E+03  0.10374936599E+04  0.65406052992E+03 0.  0.
         13    1    3    3    0    0  0.15593597654E+03  0.33195937669E+03 -0.22413586596E+03  0.42982547966E+03  0.00000000000E+00 0.  1.
          1    1    3    3  501    0  0.94409118249E+02 -0.26541872751E+03 -0.53842402874E+03  0.60766818022E+03  0.00000000000E+00 0.  1.
         -3    1    1    2    0  502 -0.25034509478E+03 -0.66540649177E+02  0.67822519634E+02  0.26776896505E+03  0.00000000000E+00 0. -1.
<mgrwt>
<rscale>  1 0.70348810E+03</rscale>
<asrwt>0</asrwt>
<pdfrwt beam="1">  1       21 0.46963479E-01 0.70348810E+03</pdfrwt>
<pdfrwt beam="2">0</pdfrwt>
<totfact> 0.40127592E+02</totfact>
</mgrwt>
</event>
<event>
 6    1  0.1386179E-004  0.6487655E+03  0.7818608E-02  0.9809098E-01
         21   -1    0    0  501  502  0.00000000000E+00  0.00000000000E+00  0.34451888058E+03  0.34451888058E+03  0.00000000000E+00 0. -1.
         13   -1    0    0    0    0 -0.00000000000E+00 -0.00000000000E+00 -0.10000000000E+04  0.10000000000E+04  0.00000000000E+00 0.  1.
    9000005    2    1    2  501    0  0.56734171389E-01  0.21191835010E+02 -0.89425713902E+03  0.11048042907E+04  0.64841930329E+03 0.  0.
         13    1    3    3    0    0 -0.32129235585E+03 -0.23028000396E+02 -0.49176253157E+03  0.58786856880E+03  0.00000000000E+00 0.  1.
          3    1    3    3  501    0  0.32134909002E+03  0.44219835405E+02 -0.40249460745E+03  0.51693572185E+03  0.00000000000E+00 0.  1.
         -3    1    1    2    0  502 -0.56734171389E-01 -0.21191835010E+02  0.23877601959E+03  0.23971458992E+03  0.00000000000E+00 0. -1.
<mgrwt>
<rscale>  1 0.64876551E+03</rscale>
<asrwt>0</asrwt>
<pdfrwt beam="1">  1       21 0.53002903E-01 0.64876551E+03</pdfrwt>
<pdfrwt beam="2">0</pdfrwt>
<totfact> 0.31112256E+02</totfact>
</mgrwt>
</event>
<event>
 6    1  0.1386179E-004  0.6867995E+03  0.7818608E-02  0.9740077E-01
         21   -1    0    0  501  502  0.00000000000E+00  0.00000000000E+00  0.18887671633E+03  0.18887671633E+03  0.00000000000E+00 0. -1.
         13   -1    0    0    0    0 -0.00000000000E+00 -0.00000000000E+00 -0.10000000000E+04  0.10000000000E+04  0.00000000000E+00 0.  1.
    9000005    2    1    2  501    0  0.42841544331E+01  0.16565937631E+03 -0.73680167762E+03  0.10072587545E+04  0.66650739185E+03 0.  0.
         13    1    3    3    0    0 -0.25791183526E+03  0.29714251191E+03 -0.41820425572E+03  0.57420117263E+03  0.00000000000E+00 0.  1.
          3    1    3    3  501    0  0.26219598969E+03 -0.13148313560E+03 -0.31859742190E+03  0.43305758185E+03  0.00000000000E+00 0.  1.
         -1    1    1    2    0  502 -0.42841544331E+01 -0.16565937631E+03 -0.74321606058E+02  0.18161796185E+03  0.00000000000E+00 0. -1.
<mgrwt>
<rscale>  1 0.68679945E+03</rscale>
<asrwt>0</asrwt>
<pdfrwt beam="1">  1       21 0.29057956E-01 0.68679945E+03</pdfrwt>
<pdfrwt beam="2">0</pdfrwt>
<totfact> 0.10792366E+03</totfact>
</mgrwt>
</event>
<event>
 6    1  0.1386179E-004  0.6799960E+03  0.7818608E-02  0.9752067E-01
         21   -1    0    0  501  502  0.00000000000E+00  0.00000000000E+00  0.73955789941E+03  0.73955789941E+03  0.00000000000E+00 0. -1.
         13   -1    0    0    0    0 -0.00000000000E+00 -0.00000000000E+00 -0.10000000000E+04  0.10000000000E+04  0.00000000000E+00 0.  1.
    9000005    2    1    2  501    0 -0.17891766729E+03  0.12412208916E+03 -0.86308689808E+03  0.10987782363E+04  0.64418692496E+03 0.  0.
         13    1    3    3    0    0  0.55921905318E+02  0.28417349673E+03 -0.13967338613E+03  0.32154391696E+03  0.00000000000E+00 0.  1.
          1    1    3    3  501    0 -0.23483957261E+03 -0.16005140757E+03 -0.72341351195E+03  0.77723431937E+03  0.00000000000E+00 0.  1.
         -3    1    1    2    0  502  0.17891766729E+03 -0.12412208916E+03  0.60264479749E+03  0.64077966309E+03  0.00000000000E+00 0. -1.
<mgrwt>
<rscale>  1 0.67999604E+03</rscale>
<asrwt>0</asrwt>
<pdfrwt beam="1">  1       21 0.11377814E+00 0.67999604E+03</pdfrwt>
<pdfrwt beam="2">0</pdfrwt>
<totfact> 0.52327005E+01</totfact>
</mgrwt>
</event>
<event>
 6    1  0.1386179E-004  0.6618902E+03  0.7818608E-02  0.9784720E-01
         21   -1    0    0  501  502  0.00000000000E+00  0.00000000000E+00  0.16326542063E+03  0.16326542063E+03  0.00000000000E+00 0.  1.
         13   -1    0    0    0    0 -0.00000000000E+00 -0.00000000000E+00 -0.10000000000E+04  0.10000000000E+04  0.00000000000E+00 0.  1.
    9000005    2    1    2  501    0 -0.22470233944E+02 -0.14312654611E+03 -0.65972531579E+03  0.93452452133E+03  0.64583935236E+03 0.  0.
         13    1    3    3    0    0 -0.23037343830E+03 -0.28861968901E+03 -0.53936144081E+03  0.65366964882E+03  0.00000000000E+00 0.  1.
          1    1    3    3  501    0  0.20790320435E+03  0.14549314290E+03 -0.12036387498E+03  0.28085487251E+03  0.00000000000E+00 0.  1.
         -1    1    1    2    0  502  0.22470233944E+02  0.14312654611E+03 -0.17700926358E+03  0.22874089930E+03  0.00000000000E+00 0. -1.
<mgrwt>
<rscale>  1 0.66189016E+03</rscale>
<asrwt>0</asrwt>
<pdfrwt beam="1">  1       21 0.25117756E-01 0.66189016E+03</pdfrwt>
<pdfrwt beam="2">0</pdfrwt>
<totfact> 0.14419276E+03</totfact>
</mgrwt>
</event>
<event>
 6    1  0.1386179E-004  0.6891147E+03  0.7818608E-02  0.9736031E-01
         21   -1    0    0  501  502  0.00000000000E+00  0.00000000000E+00  0.28293901439E+03  0.28293901439E+03  0.00000000000E+00 0. -1.
         13   -1    0    0    0    0 -0.00000000000E+00 -0.00000000000E+00 -0.10000000000E+04  0.10000000000E+04  0.00000000000E+00 0.  1.
    9000005    2    1    2  501    0  0.14363839031E+01 -0.98442215767E+02 -0.86456272625E+03  0.11055983915E+04  0.68204557221E+03 0.  0.
         13    1    3    3    0    0  0.13126793136E+03  0.12799546806E+03  0.18966422679E+02  0.18431992523E+03  0.00000000000E+00 0.  1.
          1    1    3    3  501    0 -0.12983154745E+03 -0.22643768382E+03 -0.88352914893E+03  0.92127846625E+03  0.00000000000E+00 0.  1.
         -3    1    1    2    0  502 -0.14363839031E+01  0.98442215767E+02  0.14750174063E+03  0.17734062291E+03  0.00000000000E+00 0. -1.
<mgrwt>
<rscale>  1 0.68911472E+03</rscale>
<asrwt>0</asrwt>
<pdfrwt beam="1">  1       21 0.43529078E-01 0.68911472E+03</pdfrwt>
<pdfrwt beam="2">0</pdfrwt>
<totfact> 0.47177408E+02</totfact>
</mgrwt>
</event>
<event>
 6    1  0.1386179E-004  0.6217082E+03  0.7818608E-02  0.9861365E-01
         21   -1    0    0  501  502  0.00000000000E+00  0.00000000000E+00  0.12432974822E+03  0.12432974822E+03  0.00000000000E+00 0.  1.
         13   -1    0    0    0    0 -0.00000000000E+00 -0.00000000000E+00 -0.10000000000E+04  0.10000000000E+04  0.00000000000E+00 0.  1.
    9000005    2    1    2  501    0 -0.32180226761E+02 -0.27922552869E+02 -0.88418542851E+03  0.10808815700E+04  0.62024661265E+03 0.  0.
         13    1    3    3    0    0 -0.17299405137E+03  0.92435313437E+02 -0.20105547383E+02  0.19716861316E+03  0.00000000000E+00 0.  1.
          3    1    3    3  501    0  0.14081382461E+03 -0.12035786631E+03 -0.86407988112E+03  0.88371295687E+03  0.00000000000E+00 0.  1.
         -3    1    1    2    0  502  0.32180226761E+02  0.27922552869E+02  0.85151767314E+01  0.43448178188E+02  0.00000000000E+00 0. -1.
<mgrwt>
<rscale>  1 0.62170821E+03</rscale>
<asrwt>0</asrwt>
<pdfrwt beam="1">  1       21 0.19127653E-01 0.62170821E+03</pdfrwt>
<pdfrwt beam="2">0</pdfrwt>
<totfact> 0.24467835E+03</totfact>
</mgrwt>
</event>
<event>
 6    1  0.1386179E-004  0.7118306E+03  0.7818608E-02  0.9697212E-01
         21   -1    0    0  501  502  0.00000000000E+00  0.00000000000E+00  0.24490541082E+03  0.24490541082E+03  0.00000000000E+00 0.  1.
         13   -1    0    0    0    0 -0.00000000000E+00 -0.00000000000E+00 -0.10000000000E+04  0.10000000000E+04  0.00000000000E+00 0.  1.
    9000005    2    1    2  501    0  0.48763684043E+02  0.36670715707E+02 -0.86437079530E+03  0.11197497977E+04  0.70921089911E+03 0.  0.
         13    1    3    3    0    0  0.20349786958E+03  0.32489986240E+03 -0.50030105189E+03  0.63029552278E+03  0.00000000000E+00 0.  1.
          1    1    3    3  501    0 -0.15473418554E+03 -0.28822914669E+03 -0.36406974341E+03  0.48945427492E+03  0.00000000000E+00 0.  1.
         -1    1    1    2    0  502 -0.48763684043E+02 -0.36670715707E+02  0.10927620612E+03  0.12515561312E+03  0.00000000000E+00 0. -1.
<mgrwt>
<rscale>  1 0.71183055E+03</rscale>
<asrwt>0</asrwt>
<pdfrwt beam="1">  1       21 0.37677754E-01 0.71183055E+03</pdfrwt>
<pdfrwt beam="2">0</pdfrwt>
<totfact> 0.63615723E+02</totfact>
</mgrwt>
</event>
<event>
 6    1  0.1386179E-004  0.6577642E+03  0.7818608E-02  0.9792318E-01
         21   -1    0    0  501  502  0.00000000000E+00  0.00000000000E+00  0.18562327527E+03  0.18562327527E+03  0.00000000000E+00 0. -1.
         13   -1    0    0    0    0 -0.00000000000E+00 -0.00000000000E+00 -0.10000000000E+04  0.10000000000E+04  0.00000000000E+00 0.  1.
    9000005    2    1    2  501    0  0.37938892020E+01  0.23480075420E+02 -0.88980772578E+03  0.11065312816E+04  0.65733399491E+03 0.  0.
         13    1    3    3    0    0  0.63542795449E+02 -0.22997562736E+03 -0.73442272962E+02  0.24964022811E+03  0.00000000000E+00 0.  1.
          3    1    3    3  501    0 -0.59748906247E+02  0.25345570278E+03 -0.81636545281E+03  0.85689105353E+03  0.00000000000E+00 0.  1.
         -1    1    1    2    0  502 -0.37938892020E+01 -0.23480075420E+02  0.75431001051E+02  0.79091993631E+02  0.00000000000E+00 0. -1.
<mgrwt>
<rscale>  1 0.65776416E+03</rscale>
<asrwt>0</asrwt>
<pdfrwt beam="1">  1       21 0.28557426E-01 0.65776416E+03</pdfrwt>
<pdfrwt beam="2">0</pdfrwt>
<totfact> 0.11191846E+03</totfact>
</mgrwt>
</event>
<event>
 6    1  0.1386179E-004  0.6219507E+03  0.7818608E-02  0.9860883E-01
         21   -1    0    0  501  502  0.00000000000E+00  0.00000000000E+00  0.30435748524E+03  0.30435748524E+03  0.00000000000E+00 0. -1.
         13   -1    0    0    0    0 -0.00000000000E+00 -0.00000000000E+00 -0.10000000000E+04  0.10000000000E+04  0.00000000000E+00 0.  1.
    9000005    2    1    2  501    0 -0.31598220203E+02  0.19755414494E+02 -0.90145899106E+03  0.10951945205E+04  0.62083331189E+03 0.  0.
         13    1    3    3    0    0  0.14932577590E+03  0.23515023506E+03 -0.21043117137E+03  0.34910614186E+03  0.00000000000E+00 0.  1.
          1    1    3    3  501    0 -0.18092399610E+03 -0.21539482057E+03 -0.69102781969E+03  0.74608837860E+03  0.00000000000E+00 0.  1.
         -1    1    1    2    0  502  0.31598220203E+02 -0.19755414494E+02  0.20581647630E+03  0.20916296478E+03  0.00000000000E+00 0. -1.
<mgrwt>
<rscale>  1 0.62195074E+03</rscale>
<asrwt>0</asrwt>
<pdfrwt beam="1">  1       21 0.46824227E-01 0.62195074E+03</pdfrwt>
<pdfrwt beam="2">0</pdfrwt>
<totfact> 0.40678030E+02</totfact>
</mgrwt>
</event>
<event>
 6    1  0.1386179E-004  0.7052929E+03  0.7818608E-02  0.9708223E-01
         21   -1    0    0  501  502  0.00000000000E+00  0.00000000000E+00  0.16642185026E+03  0.16642185026E+03  0.00000000000E+00 0.  1.
         13   -1    0    0    0    0 -0.00000000000E+00 -0.00000000000E+00 -0.10000000000E+04  0.10000000000E+04  0.00000000000E+00 0.  1.
    9000005    2    1    2  501    0  0.58554548198E+02  0.41175421742E+02 -0.83727327091E+03  0.10947440685E+04  0.70165090677E+03 0.  0.
         13    1    3    3    0    0 -0.22089948504E+03 -0.10787700477E+03 -0.71356096027E+03  0.75472066003E+03  0.00000000000E+00 0.  1.
          3    1    3    3  501    0  0.27945403324E+03  0.14905242651E+03 -0.12371231064E+03  0.34002340852E+03  0.00000000000E+00 0.  1.
         -1    1    1    2    0  502 -0.58554548198E+02 -0.41175421742E+02  0.36951211680E+01  0.71677781710E+02  0.00000000000E+00 0. -1.
<mgrwt>
<rscale>  1 0.70529288E+03</rscale>
<asrwt>0</asrwt>
<pdfrwt beam="1">  1       21 0.25603361E-01 0.70529288E+03</pdfrwt>
<pdfrwt beam="2">0</pdfrwt>
<totfact> 0.13856429E+03</totfact>
</mgrwt>
</event>
<event>
 6    1  0.1386179E-004  0.6862401E+03  0.7818608E-02  0.9741057E-01
         21   -1    0    0  501  502  0.00000000000E+00  0.00000000000E+00  0.17467137079E+03  0.17467137079E+03  0.00000000000E+00 0. -1.
         13   -1    0    0    0    0 -0.00000000000E+00 -0.00000000000E+00 -0.10000000000E+04  0.10000000000E+04  0.00000000000E+00 0.  1.
    9000005    2    1    2  501    0  0.68873879795E+01  0.33440815169E+02 -0.87648249307E+03  0.11131698097E+04  0.68539021023E+03 0.  0.
         13    1    3    3    0    0  0.16401475292E+03  0.40466211048E+02  0.47827815237E+02  0.17557292879E+03  0.00000000000E+00 0.  1.
          1    1    3    3  501    0 -0.15712736494E+03 -0.70253958792E+01 -0.92431030831E+03  0.93759688088E+03  0.00000000000E+00 0.  1.
         -3    1    1    2    0  502 -0.68873879795E+01 -0.33440815169E+02  0.51153863863E+02  0.61501561122E+02  0.00000000000E+00 0. -1.
<mgrwt>
<rscale>  1 0.68624009E+03</rscale>
<asrwt>0</asrwt>
<pdfrwt beam="1">  1       21 0.26872518E-01 0.68624009E+03</pdfrwt>
<pdfrwt beam="2">0</pdfrwt>
<totfact> 0.12607407E+03</totfact>
</mgrwt>
</event>
<event>
 6    1  0.1386179E-004  0.6846354E+03  0.7818608E-02  0.9743875E-01
         21   -1    0    0  501  502  0.00000000000E+00  0.00000000000E+00  0.20314521403E+03  0.20314521403E+03  0.00000000000E+00 0.  1.
         13   -1    0    0    0    0 -0.00000000000E+00 -0.00000000000E+00 -0.10000000000E+04  0.10000000000E+04  0.00000000000E+00 0.  1.
    9000005    2    1    2  501    0 -0.99294260573E+02  0.18587908117E+03 -0.66571464543E+03  0.95493538453E+03  0.65139482381E+03 0.  0.
         13    1    3    3    0    0  0.15765135934E+03 -0.16573702288E+03 -0.34561878200E+03  0.41445754224E+03  0.00000000000E+00 0.  1.
          3    1    3    3  501    0 -0.25694561991E+03  0.35161610404E+03 -0.32009586343E+03  0.54047784228E+03  0.00000000000E+00 0.  1.
         -3    1    1    2    0  502  0.99294260573E+02 -0.18587908117E+03 -0.13114014054E+03  0.24820982950E+03  0.00000000000E+00 0. -1.
<mgrwt>
<rscale>  1 0.68463538E+03</rscale>
<asrwt>0</asrwt>
<pdfrwt beam="1">  1       21 0.31253109E-01 0.68463538E+03</pdfrwt>
<pdfrwt beam="2">0</pdfrwt>
<totfact> 0.93272899E+02</totfact>
</mgrwt>
</event>
<event>
 6    1  0.1386179E-004  0.7140325E+03  0.7818608E-02  0.9693531E-01
         21   -1    0    0  501  502  0.00000000000E+00  0.00000000000E+00  0.57417249618E+03  0.57417249618E+03  0.00000000000E+00 0. -1.
         13   -1    0    0    0    0 -0.00000000000E+00 -0.00000000000E+00 -0.10000000000E+04  0.10000000000E+04  0.00000000000E+00 0.  1.
    9000005    2    1    2  501    0 -0.22819116279E+03 -0.25923193887E+03 -0.79504096319E+03  0.10686124271E+04  0.62495598344E+03 0.  0.
         13    1    3    3    0    0 -0.32415610934E+03  0.62971544207E+02 -0.20255537730E+03  0.38739034510E+03  0.00000000000E+00 0.  1.
          1    1    3    3  501    0  0.95964946558E+02 -0.32220348307E+03 -0.59248558589E+03  0.68122208197E+03  0.00000000000E+00 0.  1.
         -1    1    1    2    0  502  0.22819116279E+03  0.25923193887E+03  0.36921345937E+03  0.50556006911E+03  0.00000000000E+00 0. -1.
<mgrwt>
<rscale>  1 0.71403248E+03</rscale>
<asrwt>0</asrwt>
<pdfrwt beam="1">  1       21 0.88334228E-01 0.71403248E+03</pdfrwt>
<pdfrwt beam="2">0</pdfrwt>
<totfact> 0.97012208E+01</totfact>
</mgrwt>
</event>
<event>
 6    1  0.1386179E-004  0.6541576E+03  0.7818608E-02  0.9799009E-01
         21   -1    0    0  501  502  0.00000000000E+00  0.00000000000E+00  0.14697889731E+03  0.14697889731E+03  0.00000000000E+00 0.  1.
         13   -1    0    0    0    0 -0.00000000000E+00 -0.00000000000E+00 -0.10000000000E+04  0.10000000000E+04  0.00000000000E+00 0.  1.
    9000005    2    1    2  501    0  0.33223194794E+02 -0.10564603101E+03 -0.75615896024E+03  0.99984922940E+03  0.64471485468E+03 0.  0.
         13    1    3    3    0    0  0.40084720844E+02 -0.13007050063E+03 -0.87134055030E+03  0.88190672669E+03  0.00000000000E+00 0.  1.
          1    1    3    3  501    0 -0.68615260493E+01  0.24424469617E+02  0.11518159006E+03  0.11794250271E+03  0.00000000000E+00 0.  1.
         -3    1    1    2    0  502 -0.33223194794E+02  0.10564603101E+03 -0.96862142447E+02  0.14712966791E+03  0.00000000000E+00 0. -1.
<mgrwt>
<rscale>  1 0.65415756E+03</rscale>
<asrwt>0</asrwt>
<pdfrwt beam="1">  1       21 0.22612137E-01 0.65415756E+03</pdfrwt>
<pdfrwt beam="2">0</pdfrwt>
<totfact> 0.17707448E+03</totfact>
</mgrwt>
</event>
<event>
 6    1  0.1386179E-004  0.6635758E+03  0.7818608E-02  0.9781633E-01
         21   -1    0    0  501  502  0.00000000000E+00  0.00000000000E+00  0.26323179228E+03  0.26323179228E+03  0.00000000000E+00 0.  1.
         13   -1    0    0    0    0 -0.00000000000E+00 -0.00000000000E+00 -0.10000000000E+04  0.10000000000E+04  0.00000000000E+00 0.  1.
    9000005    2    1    2  501    0  0.18108456602E+02 -0.22445249658E+02 -0.88840798342E+03  0.11088740033E+04  0.66294879504E+03 0.  0.
         13    1    3    3    0    0 -0.38351604415E+02 -0.85876408529E+02  0.87987852444E+02  0.12879233394E+03  0.00000000000E+00 0.  1.
          1    1    3    3  501    0  0.56460061017E+02  0.63431158871E+02 -0.97639583586E+03  0.98008166940E+03  0.00000000000E+00 0.  1.
         -1    1    1    2    0  502 -0.18108456602E+02  0.22445249658E+02  0.15163977570E+03  0.15435778894E+03  0.00000000000E+00 0. -1.
<mgrwt>
<rscale>  1 0.66357578E+03</rscale>
<asrwt>0</asrwt>
<pdfrwt beam="1">  1       21 0.40497198E-01 0.66357578E+03</pdfrwt>
<pdfrwt beam="2">0</pdfrwt>
<totfact> 0.54983711E+02</totfact>
</mgrwt>
</event>
<event>
 6    1  0.1386179E-004  0.6393326E+03  0.7818608E-02  0.9827004E-01
         21   -1    0    0  501  502  0.00000000000E+00  0.00000000000E+00  0.22254543368E+03  0.22254543368E+03  0.00000000000E+00 0. -1.
         13   -1    0    0    0    0 -0.00000000000E+00 -0.00000000000E+00 -0.10000000000E+04  0.10000000000E+04  0.00000000000E+00 0.  1.
    9000005    2    1    2  501    0 -0.21838011137E+02 -0.72731594491E+01 -0.89659927740E+03  0.11011977524E+04  0.63891817006E+03 0.  0.
         13    1    3    3    0    0  0.25456552054E+03 -0.15270641225E+03 -0.27092499732E+03  0.40189949834E+03  0.00000000000E+00 0.  1.
          1    1    3    3  501    0 -0.27640353168E+03  0.14543325281E+03 -0.62567428008E+03  0.69929825404E+03  0.00000000000E+00 0.  1.
         -3    1    1    2    0  502  0.21838011137E+02  0.72731594491E+01  0.11914471108E+03  0.12134768131E+03  0.00000000000E+00 0. -1.
<mgrwt>
<rscale>  1 0.63933264E+03</rscale>
<asrwt>0</asrwt>
<pdfrwt beam="1">  1       21 0.34237758E-01 0.63933264E+03</pdfrwt>
<pdfrwt beam="2">0</pdfrwt>
<totfact> 0.77792221E+02</totfact>
</mgrwt>
</event>
<event>
 6    1  0.1386179E-004  0.6742104E+03  0.7818608E-02  0.9762382E-01
         21   -1    0    0  501  502  0.00000000000E+00  0.00000000000E+00  0.12646017092E+03  0.12646017092E+03  0.00000000000E+00 0.  1.
         13   -1    0    0    0    0 -0.00000000000E+00 -0.00000000000E+00 -0.10000000000E+04  0.10000000000E+04  0.00000000000E+00 0.  1.
    9000005    2    1    2  501    0  0.15289941495E+02  0.23635098504E+02 -0.86564548191E+03  0.10972245606E+04  0.67362247283E+03 0.  0.
         13    1    3    3    0    0 -0.89064099467E+02 -0.30239651348E+03 -0.53692006505E+03  0.62262285649E+03  0.00000000000E+00 0.  1.
          1    1    3    3  501    0  0.10435404096E+03  0.32603161198E+03 -0.32872541686E+03  0.47460170413E+03  0.00000000000E+00 0.  1.
         -1    1    1    2    0  502 -0.15289941495E+02 -0.23635098504E+02 -0.78943471718E+01  0.29235610297E+02  0.00000000000E+00 0. -1.
<mgrwt>
<rscale>  1 0.67421038E+03</rscale>
<asrwt>0</asrwt>
<pdfrwt beam="1">  1       21 0.19455410E-01 0.67421038E+03</pdfrwt>
<pdfrwt beam="2">0</pdfrwt>
<totfact> 0.23639847E+03</totfact>
</mgrwt>
</event>
<event>
 6    1  0.1386179E-004  0.7103642E+03  0.7818608E-02  0.9699670E-01
         21   -1    0    0  501  502  0.00000000000E+00  0.00000000000E+00  0.29678908750E+03  0.29678908750E+03  0.00000000000E+00 0.  1.
         13   -1    0    0    0    0 -0.00000000000E+00 -0.00000000000E+00 -0.10000000000E+04  0.10000000000E+04  0.00000000000E+00 0.  1.
    9000005    2    1    2  501    0 -0.37490076437E+02 -0.28115518048E+03 -0.72155775616E+03  0.10125526577E+04  0.65127839503E+03 0.  0.
         13    1    3    3    0    0  0.29004138471E+03 -0.18647875361E+03 -0.23058208670E+03  0.41480890673E+03  0.00000000000E+00 0.  1.
          1    1    3    3  501    0 -0.32753146115E+03 -0.94676426867E+02 -0.49097566946E+03  0.59774375099E+03  0.00000000000E+00 0.  1.
         -1    1    1    2    0  502  0.37490076437E+02  0.28115518048E+03  0.18346843654E+02  0.28423642978E+03  0.00000000000E+00 0. -1.
<mgrwt>
<rscale>  1 0.71036419E+03</rscale>
<asrwt>0</asrwt>
<pdfrwt beam="1">  1       21 0.45659858E-01 0.71036419E+03</pdfrwt>
<pdfrwt beam="2">0</pdfrwt>
<totfact> 0.42574930E+02</totfact>
</mgrwt>
</event>
<event>
 6    1  0.1386179E-004  0.6393459E+03  0.7818608E-02  0.9826979E-01
         21   -1    0    0  501  502  0.00000000000E+00  0.00000000000E+00  0.13901489167E+03  0.13901489167E+03  0.00000000000E+00 0.  1.
         13   -1    0    0    0    0 -0.00000000000E+00 -0.00000000000E+00 -0.10000000000E+04  0.10000000000E+04  0.00000000000E+00 0.  1.
    9000005    2    1    2  501    0  0.11333003454E+00  0.21438389664E+02 -0.89433854940E+03  0.10993655610E+04  0.63898636783E+03 0.  0.
         13    1    3    3    0    0  0.75258042456E+02 -0.15678112506E+03  0.10366361846E+02  0.17421697847E+03  0.00000000000E+00 0.  1.
          1    1    3    3  501    0 -0.75144712422E+02  0.17821951473E+03 -0.90470491125E+03  0.92514858248E+03  0.00000000000E+00 0.  1.
         -3    1    1    2    0  502 -0.11333003454E+00 -0.21438389664E+02  0.33353441071E+02  0.39649330718E+02  0.00000000000E+00 0. -1.
<mgrwt>
<rscale>  1 0.63934591E+03</rscale>
<asrwt>0</asrwt>
<pdfrwt beam="1">  1       21 0.21386906E-01 0.63934591E+03</pdfrwt>
<pdfrwt beam="2">0</pdfrwt>
<totfact> 0.19735937E+03</totfact>
</mgrwt>
</event>
<event>
 6    1  0.1386179E-004  0.6696912E+03  0.7818608E-02  0.9770516E-01
         21   -1    0    0  501  502  0.00000000000E+00  0.00000000000E+00  0.23797328092E+03  0.23797328092E+03  0.00000000000E+00 0.  1.
         13   -1    0    0    0    0 -0.00000000000E+00 -0.00000000000E+00 -0.10000000000E+04  0.10000000000E+04  0.00000000000E+00 0.  1.
    9000005    2    1    2  501    0  0.16953706419E+03  0.82401559222E+02 -0.80245090870E+03  0.10451859675E+04  0.64261451335E+03 0.  0.
         13    1    3    3    0    0 -0.83051259275E+01 -0.18948880047E+03 -0.66656509396E+03  0.69302525575E+03  0.00000000000E+00 0.  1.
          1    1    3    3  501    0  0.17784219012E+03  0.27189035969E+03 -0.13588581474E+03  0.35216071179E+03  0.00000000000E+00 0.  1.
         -3    1    1    2    0  502 -0.16953706419E+03 -0.82401559222E+02  0.40424189613E+02  0.19278731338E+03  0.00000000000E+00 0. -1.
<mgrwt>
<rscale>  1 0.66969116E+03</rscale>
<asrwt>0</asrwt>
<pdfrwt beam="1">  1       21 0.36611273E-01 0.66969116E+03</pdfrwt>
<pdfrwt beam="2">0</pdfrwt>
<totfact> 0.67690663E+02</totfact>
</mgrwt>
</event>
<event>
 6    1  0.1386179E-004  0.7247062E+03  0.7818608E-02  0.9675890E-01
         21   -1    0    0  501  502  0.00000000000E+00  0.00000000000E+00  0.68938363949E+03  0.68938363949E+03  0.00000000000E+00 0. -1.
         13   -1    0    0    0    0 -0.00000000000E+00 -0.00000000000E+00 -0.10000000000E+04  0.10000000000E+04  0.00000000000E+00 0.  1.
    9000005    2    1    2  501    0  0.18144381896E+03  0.25637368499E+03 -0.81787620926E+03  0.10927582294E+04  0.65310774645E+03 0.  0.
         13    1    3    3    0    0  0.17874371189E+03  0.13606129315E+03  0.38547407369E+02  0.22792080346E+03  0.00000000000E+00 0.  1.
          3    1    3    3  501    0  0.27001070708E+01  0.12031239184E+03 -0.85642361663E+03  0.86483742595E+03  0.00000000000E+00 0.  1.
         -3    1    1    2    0  502 -0.18144381896E+03 -0.25637368499E+03  0.50725984875E+03  0.59662541008E+03  0.00000000000E+00 0. -1.
<mgrwt>
<rscale>  1 0.72470618E+03</rscale>
<asrwt>0</asrwt>
<pdfrwt beam="1">  1       21 0.10605902E+00 0.72470618E+03</pdfrwt>
<pdfrwt beam="2">0</pdfrwt>
<totfact> 0.62008929E+01</totfact>
</mgrwt>
</event>
<event>
 6    1  0.1386179E-004  0.6443971E+03  0.7818608E-02  0.9817350E-01
         21   -1    0    0  501  502  0.00000000000E+00  0.00000000000E+00  0.16702994077E+03  0.16702994077E+03  0.00000000000E+00 0.  1.
         13   -1    0    0    0    0 -0.00000000000E+00 -0.00000000000E+00 -0.10000000000E+04  0.10000000000E+04  0.00000000000E+00 0.  1.
    9000005    2    1    2  501    0 -0.75517782722E+01  0.34336683353E+02 -0.89074589003E+03  0.10993979675E+04  0.64343734211E+03 0.  0.
         13    1    3    3    0    0  0.44437878657E+02  0.29600948103E+03 -0.20286803998E+03  0.36159615535E+03  0.00000000000E+00 0.  1.
          1    1    3    3  501    0 -0.51989656929E+02 -0.26167279768E+03 -0.68787785005E+03  0.73780181218E+03  0.00000000000E+00 0.  1.
         -3    1    1    2    0  502  0.75517782722E+01 -0.34336683353E+02  0.57775830804E+02  0.67631973236E+02  0.00000000000E+00 0. -1.
<mgrwt>
<rscale>  1 0.64439712E+03</rscale>
<asrwt>0</asrwt>
<pdfrwt beam="1">  1       21 0.25696913E-01 0.64439712E+03</pdfrwt>
<pdfrwt beam="2">0</pdfrwt>
<totfact> 0.13800779E+03</totfact>
</mgrwt>
</event>
<event>
 6    1  0.1386179E-004  0.6553926E+03  0.7818608E-02  0.9796713E-01
         21   -1    0    0  501  502  0.00000000000E+00  0.00000000000E+00  0.12778694416E+03  0.12778694416E+03  0.00000000000E+00 0.  1.
         13   -1    0    0    0    0 -0.00000000000E+00 -0.00000000000E+00 -0.10000000000E+04  0.10000000000E+04  0.00000000000E+00 0.  1.
    9000005    2    1    2  501    0 -0.55749285356E+02  0.68044126663E+01 -0.82981259078E+03  0.10574159111E+04  0.65298176887E+03 0.  0.
         13    1    3    3    0    0 -0.34435272636E+03  0.46548182819E+02 -0.56729689138E+03  0.66526032231E+03  0.00000000000E+00 0.  1.
          1    1    3    3  501    0  0.28860344100E+03 -0.39743770153E+02 -0.26251569941E+03  0.39215558884E+03  0.00000000000E+00 0.  1.
         -1    1    1    2    0  502  0.55749285356E+02 -0.68044126663E+01 -0.42400465059E+02  0.70371033008E+02  0.00000000000E+00 0. -1.
<mgrwt>
<rscale>  1 0.65539261E+03</rscale>
<asrwt>0</asrwt>
<pdfrwt beam="1">  1       21 0.19659529E-01 0.65539261E+03</pdfrwt>
<pdfrwt beam="2">0</pdfrwt>
<totfact> 0.23188382E+03</totfact>
</mgrwt>
</event>
<event>
 6    1  0.1386179E-004  0.6544219E+03  0.7818608E-02  0.9798517E-01
         21   -1    0    0  501  502  0.00000000000E+00  0.00000000000E+00  0.13671280292E+03  0.13671280292E+03  0.00000000000E+00 0.  1.
         13   -1    0    0    0    0 -0.00000000000E+00 -0.00000000000E+00 -0.10000000000E+04  0.10000000000E+04  0.00000000000E+00 0.  1.
    9000005    2    1    2  501    0  0.45883518340E+02 -0.52616775104E+02 -0.83618122416E+03  0.10618225095E+04  0.65068746708E+03 0.  0.
         13    1    3    3    0    0 -0.21796285484E+03 -0.23295517666E+03 -0.30174467203E+03  0.43911930898E+03  0.00000000000E+00 0.  1.
          3    1    3    3  501    0  0.26384637318E+03  0.18033840156E+03 -0.53443655212E+03  0.62270320054E+03  0.00000000000E+00 0.  1.
         -3    1    1    2    0  502 -0.45883518340E+02  0.52616775104E+02 -0.27105972921E+02  0.74890293400E+02  0.00000000000E+00 0. -1.
<mgrwt>
<rscale>  1 0.65442188E+03</rscale>
<asrwt>0</asrwt>
<pdfrwt beam="1">  1       21 0.21032738E-01 0.65442188E+03</pdfrwt>
<pdfrwt beam="2">0</pdfrwt>
<totfact> 0.20368595E+03</totfact>
</mgrwt>
</event>
<event>
 6    1  0.1386179E-004  0.6583567E+03  0.7818608E-02  0.9791224E-01
         21   -1    0    0  501  502  0.00000000000E+00  0.00000000000E+00  0.14978070766E+03  0.14978070766E+03  0.00000000000E+00 0.  1.
         13   -1    0    0    0    0 -0.00000000000E+00 -0.00000000000E+00 -0.10000000000E+04  0.10000000000E+04  0.00000000000E+00 0.  1.
    9000005    2    1    2  501    0 -0.62855434003E+02  0.34675814622E+02 -0.85350857063E+03  0.10779194729E+04  0.65443127393E+03 0.  0.
         13    1    3    3    0    0 -0.22665403365E+03  0.91900218178E+02 -0.42107594273E+02  0.24817483870E+03  0.00000000000E+00 0.  1.
          3    1    3    3  501    0  0.16379859964E+03 -0.57224403556E+02 -0.81140097636E+03  0.82974463424E+03  0.00000000000E+00 0.  1.
         -1    1    1    2    0  502  0.62855434003E+02 -0.34675814622E+02  0.32892782897E+01  0.71861234717E+02  0.00000000000E+00 0. -1.
<mgrwt>
<rscale>  1 0.65835667E+03</rscale>
<asrwt>0</asrwt>
<pdfrwt beam="1">  1       21 0.23043185E-01 0.65835667E+03</pdfrwt>
<pdfrwt beam="2">0</pdfrwt>
<totfact> 0.17066343E+03</totfact>
</mgrwt>
</event>
<event>
 6    1  0.1386179E-004  0.6691595E+03  0.7818608E-02  0.9771477E-01
         21   -1    0    0  501  502  0.00000000000E+00  0.00000000000E+00  0.23343783763E+03  0.23343783763E+03  0.00000000000E+00 0.  1.
         13   -1    0    0    0    0 -0.00000000000E+00 -0.00000000000E+00 -0.10000000000E+04  0.10000000000E+04  0.00000000000E+00 0.  1.
    9000005    2    1    2  501    0  0.56565215734E+02  0.15168845264E+03 -0.82415621447E+03  0.10616062773E+04  0.64928068801E+03 0.  0.
         13    1    3    3    0    0 -0.12601025720E+02  0.27998949419E+03 -0.86578577855E+03  0.91002083331E+03  0.00000000000E+00 0.  1.
          1    1    3    3  501    0  0.69166241453E+02 -0.12830104155E+03  0.41629564083E+02  0.15158544398E+03  0.00000000000E+00 0.  1.
         -3    1    1    2    0  502 -0.56565215734E+02 -0.15168845264E+03  0.57594052105E+02  0.17183156035E+03  0.00000000000E+00 0. -1.
<mgrwt>
<rscale>  1 0.66915949E+03</rscale>
<asrwt>0</asrwt>
<pdfrwt beam="1">  1       21 0.35913512E-01 0.66915949E+03</pdfrwt>
<pdfrwt beam="2">0</pdfrwt>
<totfact> 0.70415987E+02</totfact>
</mgrwt>
</event>
<event>
 6    1  0.1386179E-004  0.6436555E+03  0.7818608E-02  0.9818757E-01
         21   -1    0    0  501  502  0.00000000000E+00  0.00000000000E+00  0.13245581785E+03  0.13245581785E+03  0.00000000000E+00 0.  1.
         13   -1    0    0    0    0 -0.00000000000E+00 -0.00000000000E+00 -0.10000000000E+04  0.10000000000E+04  0.00000000000E+00 0.  1.
    9000005    2    1    2  501    0 -0.26445848935E+02  0.12990749103E+02 -0.88788964845E+03  0.10966496663E+04  0.64298080868E+03 0.  0.
         13    1    3    3    0    0  0.12460489222E+03 -0.25981078573E+03 -0.62713783279E+03  0.69016656313E+03  0.00000000000E+00 0.  1.
          3    1    3    3  501    0 -0.15105074116E+03  0.27280153483E+03 -0.26075181566E+03  0.40648310319E+03  0.00000000000E+00 0.  1.
         -3    1    1    2    0  502  0.26445848935E+02 -0.12990749103E+02  0.20345466305E+02  0.35806151529E+02  0.00000000000E+00 0. -1.
<mgrwt>
<rscale>  1 0.64365555E+03</rscale>
<asrwt>0</asrwt>
<pdfrwt beam="1">  1       21 0.20377818E-01 0.64365555E+03</pdfrwt>
<pdfrwt beam="2">0</pdfrwt>
<totfact> 0.21656278E+03</totfact>
</mgrwt>
</event>
<event>
 6    1  0.1386179E-004  0.6547800E+03  0.7818608E-02  0.9797851E-01
         21   -1    0    0  501  502  0.00000000000E+00  0.00000000000E+00  0.17675592834E+03  0.17675592834E+03  0.00000000000E+00 0. -1.
         13   -1    0    0    0    0 -0.00000000000E+00 -0.00000000000E+00 -0.10000000000E+04  0.10000000000E+04  0.00000000000E+00 0.  1.
    9000005    2    1    2  501    0  0.20030064364E+01  0.41493474645E+02 -0.88587833040E+03  0.11015976231E+04  0.65346092963E+03 0.  0.
         13    1    3    3    0    0 -0.17509924368E+03 -0.18173417314E+03 -0.11045635113E+03  0.27547715028E+03  0.00000000000E+00 0.  1.
          1    1    3    3  501    0  0.17710225012E+03  0.22322764778E+03 -0.77542197927E+03  0.82612047285E+03  0.00000000000E+00 0.  1.
         -3    1    1    2    0  502 -0.20030064364E+01 -0.41493474645E+02  0.62634258744E+02  0.75158305205E+02  0.00000000000E+00 0. -1.
<mgrwt>
<rscale>  1 0.65478004E+03</rscale>
<asrwt>0</asrwt>
<pdfrwt beam="1">  1       21 0.27193219E-01 0.65478004E+03</pdfrwt>
<pdfrwt beam="2">0</pdfrwt>
<totfact> 0.12336369E+03</totfact>
</mgrwt>
</event>
<event>
 6    1  0.1386179E-004  0.5998125E+03  0.7818608E-02  0.9905795E-01
         21   -1    0    0  501  502  0.00000000000E+00  0.00000000000E+00  0.22106722505E+03  0.22106722505E+03  0.00000000000E+00 0. -1.
         13   -1    0    0    0    0 -0.00000000000E+00 -0.00000000000E+00 -0.10000000000E+04  0.10000000000E+04  0.00000000000E+00 0.  1.
    9000005    2    1    2  501    0 -0.48985915540E+02 -0.75047816979E+01 -0.90493401514E+03  0.10856705700E+04  0.59776171937E+03 0.  0.
         13    1    3    3    0    0  0.12508011085E+03 -0.16381509769E+03 -0.68588874667E+02  0.21722074968E+03  0.00000000000E+00 0.  1.
          3    1    3    3  501    0 -0.17406602639E+03  0.15631031599E+03 -0.83634514047E+03  0.86844982032E+03  0.00000000000E+00 0.  1.
         -3    1    1    2    0  502  0.48985915540E+02  0.75047816979E+01  0.12600124019E+03  0.13539665505E+03  0.00000000000E+00 0. -1.
<mgrwt>
<rscale>  1 0.59981248E+03</rscale>
<asrwt>0</asrwt>
<pdfrwt beam="1">  1       21 0.34010341E-01 0.59981248E+03</pdfrwt>
<pdfrwt beam="2">0</pdfrwt>
<totfact> 0.79083748E+02</totfact>
</mgrwt>
</event>
<event>
 6    1  0.1386179E-004  0.6568856E+03  0.7818608E-02  0.9793944E-01
         21   -1    0    0  501  502  0.00000000000E+00  0.00000000000E+00  0.14595875462E+03  0.14595875462E+03  0.00000000000E+00 0.  1.
         13   -1    0    0    0    0 -0.00000000000E+00 -0.00000000000E+00 -0.10000000000E+04  0.10000000000E+04  0.00000000000E+00 0.  1.
    9000005    2    1    2  501    0 -0.28937046457E+02 -0.58840404383E+01 -0.88567322351E+03  0.11026857072E+04  0.65622155977E+03 0.  0.
         13    1    3    3    0    0 -0.26851128769E+03  0.20486780862E+03 -0.44770946661E+03  0.56081449439E+03  0.00000000000E+00 0.  1.
          1    1    3    3  501    0  0.23957424124E+03 -0.21075184906E+03 -0.43796375690E+03  0.54187121284E+03  0.00000000000E+00 0.  1.
         -3    1    1    2    0  502  0.28937046457E+02  0.58840404383E+01  0.31631978127E+02  0.43273047382E+02  0.00000000000E+00 0. -1.
<mgrwt>
<rscale>  1 0.65688561E+03</rscale>
<asrwt>0</asrwt>
<pdfrwt beam="1">  1       21 0.22455192E-01 0.65688561E+03</pdfrwt>
<pdfrwt beam="2">0</pdfrwt>
<totfact> 0.17946106E+03</totfact>
</mgrwt>
</event>
<event>
 6    1  0.1386179E-004  0.6475566E+03  0.7818608E-02  0.9811375E-01
         21   -1    0    0  501  502  0.00000000000E+00  0.00000000000E+00  0.14746529006E+03  0.14746529006E+03  0.00000000000E+00 0.  1.
         13   -1    0    0    0    0 -0.00000000000E+00 -0.00000000000E+00 -0.10000000000E+04  0.10000000000E+04  0.00000000000E+00 0.  1.
    9000005    2    1    2  501    0  0.22008901794E+02 -0.28050393487E+02 -0.88676760311E+03  0.10980374911E+04  0.64657430636E+03 0.  0.
         13    1    3    3    0    0  0.25201997857E+03  0.74535910005E+02 -0.11619453566E+03  0.28735142525E+03  0.00000000000E+00 0.  1.
          3    1    3    3  501    0 -0.23001107677E+03 -0.10258630349E+03 -0.77057306746E+03  0.81068606587E+03  0.00000000000E+00 0.  1.
         -3    1    1    2    0  502 -0.22008901794E+02  0.28050393487E+02  0.34232893178E+02  0.49427798942E+02  0.00000000000E+00 0. -1.
<mgrwt>
<rscale>  1 0.64755660E+03</rscale>
<asrwt>0</asrwt>
<pdfrwt beam="1">  1       21 0.22686967E-01 0.64755660E+03</pdfrwt>
<pdfrwt beam="2">0</pdfrwt>
<totfact> 0.17599648E+03</totfact>
</mgrwt>
</event>
<event>
 6    1  0.1386179E-004  0.7525777E+03  0.7818608E-02  0.9631315E-01
         21   -1    0    0  501  502  0.00000000000E+00  0.00000000000E+00  0.10639879040E+04  0.10639879040E+04  0.00000000000E+00 0. -1.
         13   -1    0    0    0    0 -0.00000000000E+00 -0.00000000000E+00 -0.10000000000E+04  0.10000000000E+04  0.00000000000E+00 0.  1.
    9000005    2    1    2  501    0 -0.10424076449E+03 -0.40018636945E+03 -0.80476793520E+03  0.11018278469E+04  0.62877492592E+03 0.  0.
         13    1    3    3    0    0 -0.24138684551E+03 -0.19556183050E+03 -0.58720908369E+02  0.31616480483E+03  0.00000000000E+00 0.  1.
          1    1    3    3  501    0  0.13714608102E+03 -0.20462453896E+03 -0.74604702683E+03  0.78566304210E+03  0.00000000000E+00 0.  1.
         -1    1    1    2    0  502  0.10424076449E+03  0.40018636945E+03  0.86875583924E+03  0.96216005711E+03  0.00000000000E+00 0. -1.
<mgrwt>
<rscale>  1 0.75257769E+03</rscale>
<asrwt>0</asrwt>
<pdfrwt beam="1">  1       21 0.16369044E+00 0.75257769E+03</pdfrwt>
<pdfrwt beam="2">0</pdfrwt>
<totfact> 0.19505380E+01</totfact>
</mgrwt>
</event>
<event>
 6    1  0.1386179E-004  0.6441954E+03  0.7818608E-02  0.9817733E-01
         21   -1    0    0  501  502  0.00000000000E+00  0.00000000000E+00  0.28977262810E+03  0.28977262810E+03  0.00000000000E+00 0.  1.
         13   -1    0    0    0    0 -0.00000000000E+00 -0.00000000000E+00 -0.10000000000E+04  0.10000000000E+04  0.00000000000E+00 0.  1.
    9000005    2    1    2  501    0  0.16364796144E+02  0.73229874920E+02 -0.88785948196E+03  0.10969421646E+04  0.63981030909E+03 0.  0.
         13    1    3    3    0    0  0.10607510908E+03  0.86574809532E+02  0.56585588792E+02  0.14815213556E+03  0.00000000000E+00 0.  1.
          1    1    3    3  501    0 -0.89710312936E+02 -0.13344934612E+02 -0.94444507075E+03  0.94879002903E+03  0.00000000000E+00 0.  1.
         -3    1    1    2    0  502 -0.16364796144E+02 -0.73229874920E+02  0.17763211006E+03  0.19283046351E+03  0.00000000000E+00 0. -1.
<mgrwt>
<rscale>  1 0.64419535E+03</rscale>
<asrwt>0</asrwt>
<pdfrwt beam="1">  1       21 0.44580403E-01 0.64419535E+03</pdfrwt>
<pdfrwt beam="2">0</pdfrwt>
<totfact> 0.45036958E+02</totfact>
</mgrwt>
</event>
<event>
 6    1  0.1386179E-004  0.6567169E+03  0.7818608E-02  0.9794256E-01
         21   -1    0    0  501  502  0.00000000000E+00  0.00000000000E+00  0.36673870356E+03  0.36673870356E+03  0.00000000000E+00 0. -1.
         13   -1    0    0    0    0 -0.00000000000E+00 -0.00000000000E+00 -0.10000000000E+04  0.10000000000E+04  0.00000000000E+00 0.  1.
    9000005    2    1    2  501    0 -0.56097125116E+02 -0.73130923624E+02 -0.88305511396E+03  0.11004832422E+04  0.65021689659E+03 0.  0.
         13    1    3    3    0    0 -0.57908912149E+02 -0.34865341573E+03 -0.64885614480E+03  0.73886869135E+03  0.00000000000E+00 0.  1.
          1    1    3    3  501    0  0.18117870327E+01  0.27552249210E+03 -0.23419896916E+03  0.36161455084E+03  0.00000000000E+00 0.  1.
         -1    1    1    2    0  502  0.56097125116E+02  0.73130923624E+02  0.24979381753E+03  0.26625546137E+03  0.00000000000E+00 0. -1.
<mgrwt>
<rscale>  1 0.65671686E+03</rscale>
<asrwt>0</asrwt>
<pdfrwt beam="1">  1       21 0.56421337E-01 0.65671686E+03</pdfrwt>
<pdfrwt beam="2">0</pdfrwt>
<totfact> 0.27137601E+02</totfact>
</mgrwt>
</event>
<event>
 6    1  0.1386179E-004  0.6124250E+03  0.7818608E-02  0.9879958E-01
         21   -1    0    0  501  502  0.00000000000E+00  0.00000000000E+00  0.16169886048E+03  0.16169886048E+03  0.00000000000E+00 0.  1.
         13   -1    0    0    0    0 -0.00000000000E+00 -0.00000000000E+00 -0.10000000000E+04  0.10000000000E+04  0.00000000000E+00 0.  1.
    9000005    2    1    2  501    0 -0.13340839269E+03 -0.78614348984E+02 -0.78981715362E+03  0.99943761435E+03  0.59252543720E+03 0.  0.
         13    1    3    3    0    0 -0.18339363705E+03  0.20052702018E+03 -0.17732454015E+03  0.32448159343E+03  0.00000000000E+00 0.  1.
          3    1    3    3  501    0  0.49985244352E+02 -0.27914136917E+03 -0.61249261347E+03  0.67495602093E+03  0.00000000000E+00 0.  1.
         -3    1    1    2    0  502  0.13340839269E+03  0.78614348984E+02 -0.48483985898E+02  0.16226124613E+03  0.00000000000E+00 0. -1.
<mgrwt>
<rscale>  1 0.61242502E+03</rscale>
<asrwt>0</asrwt>
<pdfrwt beam="1">  1       21 0.24876747E-01 0.61242502E+03</pdfrwt>
<pdfrwt beam="2">0</pdfrwt>
<totfact> 0.14732930E+03</totfact>
</mgrwt>
</event>
<event>
 6    1  0.1386179E-004  0.6506236E+03  0.7818608E-02  0.9805610E-01
         21   -1    0    0  501  502  0.00000000000E+00  0.00000000000E+00  0.12441920227E+03  0.12441920227E+03  0.00000000000E+00 0.  1.
         13   -1    0    0    0    0 -0.00000000000E+00 -0.00000000000E+00 -0.10000000000E+04  0.10000000000E+04  0.00000000000E+00 0.  1.
    9000005    2    1    2  501    0  0.31493085056E+02 -0.37419556729E+00 -0.87804407386E+03  0.10928277136E+04  0.64986080164E+03 0.  0.
         13    1    3    3    0    0 -0.86708470002E+02  0.26416644904E+03 -0.16534815601E+03  0.32348459664E+03  0.00000000000E+00 0.  1.
          3    1    3    3  501    0  0.11820155506E+03 -0.26454064461E+03 -0.71269591785E+03  0.76934311694E+03  0.00000000000E+00 0.  1.
         -3    1    1    2    0  502 -0.31493085056E+02  0.37419556729E+00  0.24632761319E+01  0.31591488695E+02  0.00000000000E+00 0. -1.
<mgrwt>
<rscale>  1 0.65062356E+03</rscale>
<asrwt>0</asrwt>
<pdfrwt beam="1">  1       21 0.19141415E-01 0.65062356E+03</pdfrwt>
<pdfrwt beam="2">0</pdfrwt>
<totfact> 0.24407801E+03</totfact>
</mgrwt>
</event>
<event>
 6    1  0.1386179E-004  0.6488349E+03  0.7818608E-02  0.9808968E-01
         21   -1    0    0  501  502  0.00000000000E+00  0.00000000000E+00  0.14545945069E+03  0.14545945069E+03  0.00000000000E+00 0. -1.
         13   -1    0    0    0    0 -0.00000000000E+00 -0.00000000000E+00 -0.10000000000E+04  0.10000000000E+04  0.00000000000E+00 0.  1.
    9000005    2    1    2  501    0 -0.16264585577E+02 -0.14022141652E+02 -0.89155951727E+03  0.11026627079E+04  0.64847938862E+03 0.  0.
         13    1    3    3    0    0 -0.13679362943E+03  0.79708175219E+02  0.36212631927E+02  0.16241072920E+03  0.00000000000E+00 0.  1.
          3    1    3    3  501    0  0.12052904385E+03 -0.93730316871E+02 -0.92777214919E+03  0.94025197875E+03  0.00000000000E+00 0.  1.
         -1    1    1    2    0  502  0.16264585577E+02  0.14022141652E+02  0.37018967958E+02  0.42796742740E+02  0.00000000000E+00 0. -1.
<mgrwt>
<rscale>  1 0.64883486E+03</rscale>
<asrwt>0</asrwt>
<pdfrwt beam="1">  1       21 0.22378376E-01 0.64883486E+03</pdfrwt>
<pdfrwt beam="2">0</pdfrwt>
<totfact> 0.18072366E+03</totfact>
</mgrwt>
</event>
<event>
 6    1  0.1386179E-004  0.6490264E+03  0.7818608E-02  0.9808608E-01
         21   -1    0    0  501  502  0.00000000000E+00  0.00000000000E+00  0.12896504230E+03  0.12896504230E+03  0.00000000000E+00 0.  1.
         13   -1    0    0    0    0 -0.00000000000E+00 -0.00000000000E+00 -0.10000000000E+04  0.10000000000E+04  0.00000000000E+00 0.  1.
    9000005    2    1    2  501    0 -0.43424796139E+02  0.42368397490E+02 -0.83781231504E+03  0.10597946873E+04  0.64618457887E+03 0.  0.
         13    1    3    3    0    0  0.17090213374E+03 -0.17849016517E+03 -0.11176706856E+03  0.27121606883E+03  0.00000000000E+00 0.  1.
          1    1    3    3  501    0 -0.21432692988E+03  0.22085856266E+03 -0.72604524648E+03  0.78857861847E+03  0.00000000000E+00 0.  1.
         -3    1    1    2    0  502  0.43424796139E+02 -0.42368397490E+02 -0.33222642655E+02  0.69170354998E+02  0.00000000000E+00 0. -1.
<mgrwt>
<rscale>  1 0.64902643E+03</rscale>
<asrwt>0</asrwt>
<pdfrwt beam="1">  1       21 0.19840775E-01 0.64902643E+03</pdfrwt>
<pdfrwt beam="2">0</pdfrwt>
<totfact> 0.22789897E+03</totfact>
</mgrwt>
</event>
<event>
 6    1  0.1386179E-004  0.6001722E+03  0.7818608E-02  0.9905049E-01
         21   -1    0    0  501  502  0.00000000000E+00  0.00000000000E+00  0.78014539300E+03  0.78014539300E+03  0.00000000000E+00 0. -1.
         13   -1    0    0    0    0 -0.00000000000E+00 -0.00000000000E+00 -0.10000000000E+04  0.10000000000E+04  0.00000000000E+00 0.  1.
    9000005    2    1    2  501    0  0.15250816806E+02  0.35738025683E+02 -0.90935205205E+03  0.10895539649E+04  0.59891309377E+03 0.  0.
         13    1    3    3    0    0 -0.24613810099E+03  0.16772065518E+03 -0.36186892908E+03  0.46868252023E+03  0.00000000000E+00 0.  1.
          1    1    3    3  501    0  0.26138891779E+03 -0.13198262949E+03 -0.54748312296E+03  0.62087144463E+03  0.00000000000E+00 0.  1.
         -3    1    1    2    0  502 -0.15250816806E+02 -0.35738025683E+02  0.68949744505E+03  0.69059142814E+03  0.00000000000E+00 0. -1.
<mgrwt>
<rscale>  1 0.60017222E+03</rscale>
<asrwt>0</asrwt>
<pdfrwt beam="1">  1       21 0.12002236E+00 0.60017222E+03</pdfrwt>
<pdfrwt beam="2">0</pdfrwt>
<totfact> 0.46303588E+01</totfact>
</mgrwt>
</event>
<event>
 6    1  0.1386179E-004  0.6560057E+03  0.7818608E-02  0.9795575E-01
         21   -1    0    0  501  502  0.00000000000E+00  0.00000000000E+00  0.15327912308E+03  0.15327912308E+03  0.00000000000E+00 0.  1.
         13   -1    0    0    0    0 -0.00000000000E+00 -0.00000000000E+00 -0.10000000000E+04  0.10000000000E+04  0.00000000000E+00 0.  1.
    9000005    2    1    2  501    0 -0.27037937135E+02  0.82414281520E+01 -0.88751923390E+03  0.11036456957E+04  0.65539641429E+03 0.  0.
         13    1    3    3    0    0  0.11099682468E+03 -0.22526114547E+03 -0.99272606660E+02  0.27003320015E+03  0.00000000000E+00 0.  1.
          1    1    3    3  501    0 -0.13803476181E+03  0.23350257362E+03 -0.78824662724E+03  0.83361249554E+03  0.00000000000E+00 0.  1.
         -3    1    1    2    0  502  0.27037937135E+02 -0.82414281520E+01  0.40798356984E+02  0.49633427396E+02  0.00000000000E+00 0. -1.
<mgrwt>
<rscale>  1 0.65600566E+03</rscale>
<asrwt>0</asrwt>
<pdfrwt beam="1">  1       21 0.23581403E-01 0.65600566E+03</pdfrwt>
<pdfrwt beam="2">0</pdfrwt>
<totfact> 0.16318081E+03</totfact>
</mgrwt>
</event>
<event>
 6    1  0.1386179E-004  0.6400153E+03  0.7818608E-02  0.9825697E-01
         21   -1    0    0  501  502  0.00000000000E+00  0.00000000000E+00  0.23694894379E+03  0.23694894379E+03  0.00000000000E+00 0. -1.
         13   -1    0    0    0    0 -0.00000000000E+00 -0.00000000000E+00 -0.10000000000E+04  0.10000000000E+04  0.00000000000E+00 0.  1.
    9000005    2    1    2  501    0  0.20241948915E+02 -0.11169281730E+03 -0.87062646894E+03  0.10805600332E+04  0.62986864899E+03 0.  0.
         13    1    3    3    0    0 -0.31260313876E+02  0.25775471511E+03 -0.43944863813E+03  0.51042120443E+03  0.00000000000E+00 0.  1.
          1    1    3    3  501    0  0.51502262791E+02 -0.36944753241E+03 -0.43117783081E+03  0.57013882876E+03  0.00000000000E+00 0.  1.
         -1    1    1    2    0  502 -0.20241948915E+02  0.11169281730E+03  0.10757541273E+03  0.15638891059E+03  0.00000000000E+00 0. -1.
<mgrwt>
<rscale>  1 0.64001526E+03</rscale>
<asrwt>0</asrwt>
<pdfrwt beam="1">  1       21 0.36453683E-01 0.64001526E+03</pdfrwt>
<pdfrwt beam="2">0</pdfrwt>
<totfact> 0.68443322E+02</totfact>
</mgrwt>
</event>
<event>
 6    1  0.1386179E-004  0.6687413E+03  0.7818608E-02  0.9772234E-01
         21   -1    0    0  501  502  0.00000000000E+00  0.00000000000E+00  0.53208426565E+03  0.53208426565E+03  0.00000000000E+00 0. -1.
         13   -1    0    0    0    0 -0.00000000000E+00 -0.00000000000E+00 -0.10000000000E+04  0.10000000000E+04  0.00000000000E+00 0.  1.
    9000005    2    1    2  501    0  0.15971470969E+03  0.62037878872E+01 -0.87120431864E+03  0.10982767534E+04  0.64935936641E+03 0.  0.
         13    1    3    3    0    0  0.99622919912E+02 -0.18702095504E+03 -0.87050286649E+03  0.89592232049E+03  0.00000000000E+00 0.  1.
          1    1    3    3  501    0  0.60091789779E+02  0.19322474292E+03 -0.70145215206E+00  0.20235443289E+03  0.00000000000E+00 0.  1.
         -1    1    1    2    0  502 -0.15971470969E+03 -0.62037878872E+01  0.40328858429E+03  0.43380751226E+03  0.00000000000E+00 0. -1.
<mgrwt>
<rscale>  1 0.66874125E+03</rscale>
<asrwt>0</asrwt>
<pdfrwt beam="1">  1       21 0.81859115E-01 0.66874125E+03</pdfrwt>
<pdfrwt beam="2">0</pdfrwt>
<totfact> 0.11681917E+02</totfact>
</mgrwt>
</event>
<event>
 6    1  0.1386179E-004  0.6561690E+03  0.7818608E-02  0.9795272E-01
         21   -1    0    0  501  502  0.00000000000E+00  0.00000000000E+00  0.16923995356E+03  0.16923995356E+03  0.00000000000E+00 0.  1.
         13   -1    0    0    0    0 -0.00000000000E+00 -0.00000000000E+00 -0.10000000000E+04  0.10000000000E+04  0.00000000000E+00 0.  1.
    9000005    2    1    2  501    0 -0.19292506979E+02  0.24732617119E+02 -0.88790448962E+03  0.11040526039E+04  0.65541884794E+03 0.  0.
         13    1    3    3    0    0  0.26817789041E+03  0.74735459653E+02 -0.70921275368E+03  0.76189730267E+03  0.00000000000E+00 0.  1.
          3    1    3    3  501    0 -0.28747039739E+03 -0.50002842534E+02 -0.17869173594E+03  0.34215530119E+03  0.00000000000E+00 0.  1.
         -1    1    1    2    0  502  0.19292506979E+02 -0.24732617119E+02  0.57144443174E+02  0.65187349699E+02  0.00000000000E+00 0. -1.
<mgrwt>
<rscale>  1 0.65616901E+03</rscale>
<asrwt>0</asrwt>
<pdfrwt beam="1">  1       21 0.26036915E-01 0.65616901E+03</pdfrwt>
<pdfrwt beam="2">0</pdfrwt>
<totfact> 0.13439929E+03</totfact>
</mgrwt>
</event>
<event>
 6    1  0.1386179E-004  0.6131923E+03  0.7818608E-02  0.9878408E-01
         21   -1    0    0  501  502  0.00000000000E+00  0.00000000000E+00  0.13329345444E+03  0.13329345444E+03  0.00000000000E+00 0.  1.
         13   -1    0    0    0    0 -0.00000000000E+00 -0.00000000000E+00 -0.10000000000E+04  0.10000000000E+04  0.00000000000E+00 0.  1.
    9000005    2    1    2  501    0 -0.63315153272E+02 -0.57834680515E+02 -0.84638297512E+03  0.10451645351E+04  0.60716645659E+03 0.  0.
         13    1    3    3    0    0  0.43548082347E+02  0.45560939587E+02  0.82856621653E+02  0.10410309527E+03  0.00000000000E+00 0.  1.
          1    1    3    3  501    0 -0.10686323562E+03 -0.10339562010E+03 -0.92923959678E+03  0.94106143986E+03  0.00000000000E+00 0.  1.
         -3    1    1    2    0  502  0.63315153272E+02  0.57834680515E+02 -0.20323570435E+02  0.88128919313E+02  0.00000000000E+00 0. -1.
<mgrwt>
<rscale>  1 0.61319227E+03</rscale>
<asrwt>0</asrwt>
<pdfrwt beam="1">  1       21 0.20506685E-01 0.61319227E+03</pdfrwt>
<pdfrwt beam="2">0</pdfrwt>
<totfact> 0.21422965E+03</totfact>
</mgrwt>
</event>
<event>
 6    1  0.1386179E-004  0.6507446E+03  0.7818608E-02  0.9805383E-01
         21   -1    0    0  501  502  0.00000000000E+00  0.00000000000E+00  0.16709964945E+03  0.16709964945E+03  0.00000000000E+00 0.  1.
         13   -1    0    0    0    0 -0.00000000000E+00 -0.00000000000E+00 -0.10000000000E+04  0.10000000000E+04  0.00000000000E+00 0.  1.
    9000005    2    1    2  501    0 -0.12854439890E+02 -0.49891084682E+02 -0.88189917160E+03  0.10959994285E+04  0.64870196658E+03 0.  0.
         13    1    3    3    0    0 -0.26076047316E+03  0.13472473995E+03 -0.63796210752E+03  0.70224100602E+03  0.00000000000E+00 0.  1.
          1    1    3    3  501    0  0.24790603327E+03 -0.18461582463E+03 -0.24393706408E+03  0.39375842247E+03  0.00000000000E+00 0.  1.
         -1    1    1    2    0  502  0.12854439890E+02  0.49891084682E+02  0.48998821046E+02  0.71100220953E+02  0.00000000000E+00 0. -1.
<mgrwt>
<rscale>  1 0.65074465E+03</rscale>
<asrwt>0</asrwt>
<pdfrwt beam="1">  1       21 0.25707638E-01 0.65074465E+03</pdfrwt>
<pdfrwt beam="2">0</pdfrwt>
<totfact> 0.13784747E+03</totfact>
</mgrwt>
</event>
<event>
 6    1  0.1386179E-004  0.6479595E+03  0.7818608E-02  0.9810616E-01
         21   -1    0    0  501  502  0.00000000000E+00  0.00000000000E+00  0.32781630544E+03  0.32781630544E+03  0.00000000000E+00 0.  1.
         13   -1    0    0    0    0 -0.00000000000E+00 -0.00000000000E+00 -0.10000000000E+04  0.10000000000E+04  0.00000000000E+00 0.  1.
    9000005    2    1    2  501    0 -0.37752779445E+01  0.22443934278E+02 -0.89439482974E+03  0.11044426913E+04  0.64755969911E+03 0.  0.
         13    1    3    3    0    0 -0.87590137495E+01  0.15386576916E+02  0.10425893209E+03  0.10575155787E+03  0.00000000000E+00 0.  1.
          3    1    3    3  501    0  0.49837358051E+01  0.70573573621E+01 -0.99865376183E+03  0.99869113340E+03  0.00000000000E+00 0.  1.
         -3    1    1    2    0  502  0.37752779445E+01 -0.22443934278E+02  0.22221113518E+03  0.22337361417E+03  0.00000000000E+00 0. -1.
<mgrwt>
<rscale>  1 0.64795953E+03</rscale>
<asrwt>0</asrwt>
<pdfrwt beam="1">  1       21 0.50433276E-01 0.64795953E+03</pdfrwt>
<pdfrwt beam="2">0</pdfrwt>
<totfact> 0.34631421E+02</totfact>
</mgrwt>
</event>
<event>
 6    1  0.1386179E-004  0.6570836E+03  0.7818608E-02  0.9793577E-01
         21   -1    0    0  501  502  0.00000000000E+00  0.00000000000E+00  0.32192135642E+03  0.32192135642E+03  0.00000000000E+00 0. -1.
         13   -1    0    0    0    0 -0.00000000000E+00 -0.00000000000E+00 -0.10000000000E+04  0.10000000000E+04  0.00000000000E+00 0.  1.
    9000005    2    1    2  501    0 -0.48784951406E+02 -0.12994093039E+03 -0.86676959570E+03  0.10876802578E+04  0.64225710919E+03 0.  0.
         13    1    3    3    0    0  0.18809827149E+03  0.17148130249E+03 -0.47881897649E+03  0.54226783889E+03  0.00000000000E+00 0.  1.
          3    1    3    3  501    0 -0.23688322290E+03 -0.30142223288E+03 -0.38795061921E+03  0.54541241891E+03  0.00000000000E+00 0.  1.
         -3    1    1    2    0  502  0.48784951406E+02  0.12994093039E+03  0.18869095212E+03  0.23424109863E+03  0.00000000000E+00 0. -1.
<mgrwt>
<rscale>  1 0.65708356E+03</rscale>
<asrwt>0</asrwt>
<pdfrwt beam="1">  1       21 0.49526361E-01 0.65708356E+03</pdfrwt>
<pdfrwt beam="2">0</pdfrwt>
<totfact> 0.35974007E+02</totfact>
</mgrwt>
</event>
<event>
 6    1  0.1386179E-004  0.6703127E+03  0.7818608E-02  0.9769393E-01
         21   -1    0    0  501  502  0.00000000000E+00  0.00000000000E+00  0.25806687013E+03  0.25806687013E+03  0.00000000000E+00 0. -1.
         13   -1    0    0    0    0 -0.00000000000E+00 -0.00000000000E+00 -0.10000000000E+04  0.10000000000E+04  0.00000000000E+00 0.  1.
    9000005    2    1    2  501    0 -0.44930914364E+01 -0.15726753842E+03 -0.83847225888E+03  0.10734779486E+04  0.65158722424E+03 0.  0.
         13    1    3    3    0    0 -0.14607332794E+03 -0.32549511247E+03 -0.76077871235E+03  0.84027896233E+03  0.00000000000E+00 0.  1.
          3    1    3    3  501    0  0.14158023651E+03  0.16822757405E+03 -0.77693546526E+02  0.23319898630E+03  0.00000000000E+00 0.  1.
         -1    1    1    2    0  502  0.44930914364E+01  0.15726753842E+03  0.96539129003E+02  0.18458892149E+03  0.00000000000E+00 0. -1.
<mgrwt>
<rscale>  1 0.67031275E+03</rscale>
<asrwt>0</asrwt>
<pdfrwt beam="1">  1       21 0.39702594E-01 0.67031275E+03</pdfrwt>
<pdfrwt beam="2">0</pdfrwt>
<totfact> 0.57265155E+02</totfact>
</mgrwt>
</event>
<event>
 6    1  0.1386179E-004  0.6614693E+03  0.7818608E-02  0.9785493E-01
         21   -1    0    0  501  502  0.00000000000E+00  0.00000000000E+00  0.36766783309E+03  0.36766783309E+03  0.00000000000E+00 0. -1.
         13   -1    0    0    0    0 -0.00000000000E+00 -0.00000000000E+00 -0.10000000000E+04  0.10000000000E+04  0.00000000000E+00 0.  1.
    9000005    2    1    2  501    0 -0.22206624980E+02 -0.24690369361E+02 -0.88942980378E+03  0.11084344567E+04  0.66063516445E+03 0.  0.
         13    1    3    3    0    0 -0.18493935553E+03 -0.14092829830E+03 -0.87784489809E+03  0.90811619058E+03  0.00000000000E+00 0.  1.
          3    1    3    3  501    0  0.16273273055E+03  0.11623792894E+03 -0.11584905686E+02  0.20031826616E+03  0.00000000000E+00 0.  1.
         -1    1    1    2    0  502  0.22206624980E+02  0.24690369361E+02  0.25709763687E+03  0.25923337635E+03  0.00000000000E+00 0. -1.
<mgrwt>
<rscale>  1 0.66146925E+03</rscale>
<asrwt>0</asrwt>
<pdfrwt beam="1">  1       21 0.56564280E-01 0.66146925E+03</pdfrwt>
<pdfrwt beam="2">0</pdfrwt>
<totfact> 0.26974768E+02</totfact>
</mgrwt>
</event>
<event>
 6    1  0.1386179E-004  0.6626547E+03  0.7818608E-02  0.9783319E-01
         21   -1    0    0  501  502  0.00000000000E+00  0.00000000000E+00  0.27499628479E+03  0.27499628479E+03  0.00000000000E+00 0. -1.
         13   -1    0    0    0    0 -0.00000000000E+00 -0.00000000000E+00 -0.10000000000E+04  0.10000000000E+04  0.00000000000E+00 0.  1.
    9000005    2    1    2  501    0 -0.13939269607E+03 -0.30734008974E+02 -0.85513890093E+03  0.10818381382E+04  0.64709838076E+03 0.  0.
         13    1    3    3    0    0 -0.39348873690E+03 -0.97691508430E+01 -0.40665161339E+03  0.56594554248E+03  0.00000000000E+00 0.  1.
          1    1    3    3  501    0  0.25409604084E+03 -0.20964858131E+02 -0.44848728754E+03  0.51589259573E+03  0.00000000000E+00 0.  1.
         -1    1    1    2    0  502  0.13939269607E+03  0.30734008974E+02  0.13013518572E+03  0.19315814657E+03  0.00000000000E+00 0. -1.
<mgrwt>
<rscale>  1 0.66265467E+03</rscale>
<asrwt>0</asrwt>
<pdfrwt beam="1">  1       21 0.42307120E-01 0.66265467E+03</pdfrwt>
<pdfrwt beam="2">0</pdfrwt>
<totfact> 0.50191658E+02</totfact>
</mgrwt>
</event>
<event>
 6    1  0.1386179E-004  0.6517831E+03  0.7818608E-02  0.9803439E-01
         21   -1    0    0  501  502  0.00000000000E+00  0.00000000000E+00  0.37530491563E+03  0.37530491563E+03  0.00000000000E+00 0. -1.
         13   -1    0    0    0    0 -0.00000000000E+00 -0.00000000000E+00 -0.10000000000E+04  0.10000000000E+04  0.00000000000E+00 0.  1.
    9000005    2    1    2  501    0 -0.90322821338E+02 -0.18697595816E+02 -0.88501690280E+03  0.10991251530E+04  0.64522350510E+03 0.  0.
         13    1    3    3    0    0 -0.18238154600E+03 -0.30001114760E+03 -0.54523610592E+03  0.64849990610E+03  0.00000000000E+00 0.  1.
          1    1    3    3  501    0  0.92058724665E+02  0.28131355178E+03 -0.33978079688E+03  0.45062524689E+03  0.00000000000E+00 0.  1.
         -1    1    1    2    0  502  0.90322821338E+02  0.18697595816E+02  0.26032181843E+03  0.27617976264E+03  0.00000000000E+00 0. -1.
<mgrwt>
<rscale>  1 0.65178308E+03</rscale>
<asrwt>0</asrwt>
<pdfrwt beam="1">  1       21 0.57739216E-01 0.65178308E+03</pdfrwt>
<pdfrwt beam="2">0</pdfrwt>
<totfact> 0.25812734E+02</totfact>
</mgrwt>
</event>
<event>
 6    1  0.1386179E-004  0.7608772E+03  0.7818608E-02  0.9618439E-01
         21   -1    0    0  501  502  0.00000000000E+00  0.00000000000E+00  0.58594644702E+03  0.58594644702E+03  0.00000000000E+00 0. -1.
         13   -1    0    0    0    0 -0.00000000000E+00 -0.00000000000E+00 -0.10000000000E+04  0.10000000000E+04  0.00000000000E+00 0.  1.
    9000005    2    1    2  501    0  0.15440319160E+03 -0.30187309362E+03 -0.77821463729E+03  0.10883713215E+04  0.68115079203E+03 0.  0.
         13    1    3    3    0    0 -0.20948461892E+03 -0.12765213915E+03 -0.59828043236E+03  0.64662071567E+03  0.00000000000E+00 0.  1.
          3    1    3    3  501    0  0.36388781052E+03 -0.17422095447E+03 -0.17993420494E+03  0.44175060581E+03  0.00000000000E+00 0.  1.
         -3    1    1    2    0  502 -0.15440319160E+03  0.30187309362E+03  0.36416108432E+03  0.49757512554E+03  0.00000000000E+00 0. -1.
<mgrwt>
<rscale>  1 0.76087720E+03</rscale>
<asrwt>0</asrwt>
<pdfrwt beam="1">  1       21 0.90145605E-01 0.76087720E+03</pdfrwt>
<pdfrwt beam="2">0</pdfrwt>
<totfact> 0.91890016E+01</totfact>
</mgrwt>
</event>
<event>
 6    1  0.1386179E-004  0.6919607E+03  0.7818608E-02  0.9731080E-01
         21   -1    0    0  501  502  0.00000000000E+00  0.00000000000E+00  0.21823949295E+03  0.21823949295E+03  0.00000000000E+00 0.  1.
         13   -1    0    0    0    0 -0.00000000000E+00 -0.00000000000E+00 -0.10000000000E+04  0.10000000000E+04  0.00000000000E+00 0.  1.
    9000005    2    1    2  501    0 -0.45794973939E+00  0.47968915932E+02 -0.87370875627E+03  0.11145297675E+04  0.69029586795E+03 0.  0.
         13    1    3    3    0    0 -0.31748852081E+03 -0.62698164025E+02 -0.26065411469E+03  0.41553650637E+03  0.00000000000E+00 0.  1.
          3    1    3    3  501    0  0.31703057107E+03  0.11066707996E+03 -0.61305464158E+03  0.69899326115E+03  0.00000000000E+00 0.  1.
         -3    1    1    2    0  502  0.45794973939E+00 -0.47968915932E+02  0.91948249213E+02  0.10370972542E+03  0.00000000000E+00 0. -1.
<mgrwt>
<rscale>  1 0.69196070E+03</rscale>
<asrwt>0</asrwt>
<pdfrwt beam="1">  1       21 0.33575306E-01 0.69196070E+03</pdfrwt>
<pdfrwt beam="2">0</pdfrwt>
<totfact> 0.80649886E+02</totfact>
</mgrwt>
</event>
<event>
 6    1  0.1386179E-004  0.6668648E+03  0.7818608E-02  0.9775638E-01
         21   -1    0    0  501  502  0.00000000000E+00  0.00000000000E+00  0.37851707245E+03  0.37851707245E+03  0.00000000000E+00 0. -1.
         13   -1    0    0    0    0 -0.00000000000E+00 -0.00000000000E+00 -0.10000000000E+04  0.10000000000E+04  0.00000000000E+00 0.  1.
    9000005    2    1    2  501    0 -0.37224198646E+02 -0.89883920708E+02 -0.87894229878E+03  0.11032897337E+04  0.65973018101E+03 0.  0.
         13    1    3    3    0    0 -0.40333023881E+02  0.28686750225E+03 -0.40133493054E+03  0.49496408268E+03  0.00000000000E+00 0.  1.
          3    1    3    3  501    0  0.31088252349E+01 -0.37675142296E+03 -0.47760736823E+03  0.60832565102E+03  0.00000000000E+00 0.  1.
         -1    1    1    2    0  502  0.37224198646E+02  0.89883920708E+02  0.25745937122E+03  0.27522733875E+03  0.00000000000E+00 0. -1.
<mgrwt>
<rscale>  1 0.66686481E+03</rscale>
<asrwt>0</asrwt>
<pdfrwt beam="1">  1       21 0.58233394E-01 0.66686481E+03</pdfrwt>
<pdfrwt beam="2">0</pdfrwt>
<totfact> 0.25293935E+02</totfact>
</mgrwt>
</event>
<event>
 6    1  0.1386179E-004  0.7238095E+03  0.7818608E-02  0.9677359E-01
         21   -1    0    0  501  502  0.00000000000E+00  0.00000000000E+00  0.70755000095E+03  0.70755000095E+03  0.00000000000E+00 0. -1.
         13   -1    0    0    0    0 -0.00000000000E+00 -0.00000000000E+00 -0.10000000000E+04  0.10000000000E+04  0.00000000000E+00 0.  1.
    9000005    2    1    2  501    0 -0.30217569919E+03  0.15117484729E+03 -0.81201563407E+03  0.10877819502E+04  0.64010639238E+03 0.  0.
         13    1    3    3    0    0 -0.27890489478E+03  0.36055814076E+03 -0.73219256958E+03  0.86249409977E+03  0.00000000000E+00 0.  1.
          1    1    3    3  501    0 -0.23270804415E+02 -0.20938329347E+03 -0.79823064497E+02  0.22528785042E+03  0.00000000000E+00 0.  1.
         -3    1    1    2    0  502  0.30217569919E+03 -0.15117484729E+03  0.51956563502E+03  0.61976805075E+03  0.00000000000E+00 0. -1.
<mgrwt>
<rscale>  1 0.72380949E+03</rscale>
<asrwt>0</asrwt>
<pdfrwt beam="1">  1       21 0.10885384E+00 0.72380949E+03</pdfrwt>
<pdfrwt beam="2">0</pdfrwt>
<totfact> 0.58108019E+01</totfact>
</mgrwt>
</event>
<event>
 6    1  0.1386179E-004  0.6332700E+03  0.7818608E-02  0.9838688E-01
         21   -1    0    0  501  502  0.00000000000E+00  0.00000000000E+00  0.11311132465E+03  0.11311132465E+03  0.00000000000E+00 0.  1.
         13   -1    0    0    0    0 -0.00000000000E+00 -0.00000000000E+00 -0.10000000000E+04  0.10000000000E+04  0.00000000000E+00 0.  1.
    9000005    2    1    2  501    0 -0.13369279861E+02  0.17341511908E+02 -0.88858090361E+03  0.10911493276E+04  0.63289127590E+03 0.  0.
         13    1    3    3    0    0  0.25712216501E+03 -0.35310624907E+02 -0.72645999670E+03  0.77142904714E+03  0.00000000000E+00 0.  1.
          1    1    3    3  501    0 -0.27049144487E+03  0.52652136816E+02 -0.16212090691E+03  0.31972028043E+03  0.00000000000E+00 0.  1.
         -3    1    1    2    0  502  0.13369279861E+02 -0.17341511908E+02  0.16922282592E+01  0.21961997080E+02  0.00000000000E+00 0. -1.
<mgrwt>
<rscale>  1 0.63326995E+03</rscale>
<asrwt>0</asrwt>
<pdfrwt beam="1">  1       21 0.17401742E-01 0.63326995E+03</pdfrwt>
<pdfrwt beam="2">0</pdfrwt>
<totfact> 0.29268875E+03</totfact>
</mgrwt>
</event>
<event>
 6    1  0.1386179E-004  0.6338583E+03  0.7818608E-02  0.9837548E-01
         21   -1    0    0  501  502  0.00000000000E+00  0.00000000000E+00  0.15702717742E+03  0.15702717742E+03  0.00000000000E+00 0.  1.
         13   -1    0    0    0    0 -0.00000000000E+00 -0.00000000000E+00 -0.10000000000E+04  0.10000000000E+04  0.00000000000E+00 0.  1.
    9000005    2    1    2  501    0  0.15125559380E+02 -0.22082570680E+02 -0.89605174067E+03  0.10975814541E+04  0.63329290534E+03 0.  0.
         13    1    3    3    0    0 -0.27750884417E+03 -0.14503229305E+03 -0.38889552770E+03  0.49928474449E+03  0.00000000000E+00 0.  1.
          1    1    3    3  501    0  0.29263440355E+03  0.12294972237E+03 -0.50715621298E+03  0.59829670961E+03  0.00000000000E+00 0.  1.
         -3    1    1    2    0  502 -0.15125559380E+02  0.22082570680E+02  0.53078918091E+02  0.59445723312E+02  0.00000000000E+00 0. -1.
<mgrwt>
<rscale>  1 0.63385829E+03</rscale>
<asrwt>0</asrwt>
<pdfrwt beam="1">  1       21 0.24158027E-01 0.63385829E+03</pdfrwt>
<pdfrwt beam="2">0</pdfrwt>
<totfact> 0.15584113E+03</totfact>
</mgrwt>
</event>
<event>
 6    1  0.1386179E-004  0.6450383E+03  0.7818608E-02  0.9816134E-01
         21   -1    0    0  501  502  0.00000000000E+00  0.00000000000E+00  0.13046222382E+03  0.13046222382E+03  0.00000000000E+00 0. -1.
         13   -1    0    0    0    0 -0.00000000000E+00 -0.00000000000E+00 -0.10000000000E+04  0.10000000000E+04  0.00000000000E+00 0.  1.
    9000005    2    1    2  501    0  0.26049955853E+02  0.52481460930E+01 -0.88840019149E+03  0.10978748958E+04  0.64449068519E+03 0.  0.
         13    1    3    3    0    0  0.24348296087E+03  0.15176956296E+03 -0.17086303947E+03  0.33393432099E+03  0.00000000000E+00 0.  1.
          3    1    3    3  501    0 -0.21743300502E+03 -0.14652141687E+03 -0.71753715202E+03  0.76394057479E+03  0.00000000000E+00 0.  1.
         -3    1    1    2    0  502 -0.26049955853E+02 -0.52481460930E+01  0.18862415312E+02  0.32587328040E+02  0.00000000000E+00 0. -1.
<mgrwt>
<rscale>  1 0.64503828E+03</rscale>
<asrwt>0</asrwt>
<pdfrwt beam="1">  1       21 0.20071111E-01 0.64503828E+03</pdfrwt>
<pdfrwt beam="2">0</pdfrwt>
<totfact> 0.22294652E+03</totfact>
</mgrwt>
</event>
<event>
 6    1  0.1386179E-004  0.6981149E+03  0.7818608E-02  0.9720461E-01
         21   -1    0    0  501  502  0.00000000000E+00  0.00000000000E+00  0.19529463736E+03  0.19529463736E+03  0.00000000000E+00 0. -1.
         13   -1    0    0    0    0 -0.00000000000E+00 -0.00000000000E+00 -0.10000000000E+04  0.10000000000E+04  0.00000000000E+00 0.  1.
    9000005    2    1    2  501    0 -0.94003515828E+01  0.73181447387E+02 -0.85663186109E+03  0.11050712918E+04  0.69420495791E+03 0.  0.
         13    1    3    3    0    0  0.82893813184E+02  0.37060723740E+03 -0.39252535372E+03  0.54616596561E+03  0.00000000000E+00 0.  1.
          3    1    3    3  501    0 -0.92294164766E+02 -0.29742579001E+03 -0.46410650737E+03  0.55890532615E+03  0.00000000000E+00 0.  1.
         -3    1    1    2    0  502  0.94003515828E+01 -0.73181447387E+02  0.51926498449E+02  0.90223345608E+02  0.00000000000E+00 0. -1.
<mgrwt>
<rscale>  1 0.69811490E+03</rscale>
<asrwt>0</asrwt>
<pdfrwt beam="1">  1       21 0.30045328E-01 0.69811490E+03</pdfrwt>
<pdfrwt beam="2">0</pdfrwt>
<totfact> 0.10087710E+03</totfact>
</mgrwt>
</event>
<event>
 6    1  0.1386179E-004  0.6487396E+03  0.7818608E-02  0.9809147E-01
         21   -1    0    0  501  502  0.00000000000E+00  0.00000000000E+00  0.15831193642E+03  0.15831193642E+03  0.00000000000E+00 0.  1.
         13   -1    0    0    0    0 -0.00000000000E+00 -0.00000000000E+00 -0.10000000000E+04  0.10000000000E+04  0.00000000000E+00 0.  1.
    9000005    2    1    2  501    0  0.20614233387E+02  0.19070811819E+01 -0.89254452618E+03  0.11034032544E+04  0.64840915089E+03 0.  0.
         13    1    3    3    0    0 -0.54609233688E+02  0.20174735419E+03 -0.86286938092E+03  0.88782190323E+03  0.00000000000E+00 0.  1.
          1    1    3    3  501    0  0.75223467075E+02 -0.19984027300E+03 -0.29675145259E+02  0.21558135114E+03  0.00000000000E+00 0.  1.
         -3    1    1    2    0  502 -0.20614233387E+02 -0.19070811819E+01  0.50856462596E+02  0.54908682050E+02  0.00000000000E+00 0. -1.
<mgrwt>
<rscale>  1 0.64873956E+03</rscale>
<asrwt>0</asrwt>
<pdfrwt beam="1">  1       21 0.24355682E-01 0.64873956E+03</pdfrwt>
<pdfrwt beam="2">0</pdfrwt>
<totfact> 0.15326360E+03</totfact>
</mgrwt>
</event>
<event>
 6    1  0.1386179E-004  0.6939479E+03  0.7818608E-02  0.9727638E-01
         21   -1    0    0  501  502  0.00000000000E+00  0.00000000000E+00  0.19049931013E+03  0.19049931013E+03  0.00000000000E+00 0.  1.
         13   -1    0    0    0    0 -0.00000000000E+00 -0.00000000000E+00 -0.10000000000E+04  0.10000000000E+04  0.00000000000E+00 0.  1.
    9000005    2    1    2  501    0 -0.34785348774E+02  0.18266443455E+01 -0.87472242075E+03  0.11165585819E+04  0.69307315358E+03 0.  0.
         13    1    3    3    0    0 -0.35321216982E+03 -0.16927891303E+01 -0.31840195464E+03  0.47554338094E+03  0.00000000000E+00 0.  1.
          1    1    3    3  501    0  0.31842682104E+03  0.35194334759E+01 -0.55632046612E+03  0.64101520091E+03  0.00000000000E+00 0.  1.
         -1    1    1    2    0  502  0.34785348774E+02 -0.18266443455E+01  0.65221730884E+02  0.73940728279E+02  0.00000000000E+00 0. -1.
<mgrwt>
<rscale>  1 0.69394795E+03</rscale>
<asrwt>0</asrwt>
<pdfrwt beam="1">  1       21 0.29307585E-01 0.69394795E+03</pdfrwt>
<pdfrwt beam="2">0</pdfrwt>
<totfact> 0.10605099E+03</totfact>
</mgrwt>
</event>
<event>
 6    1  0.1386179E-004  0.6940564E+03  0.7818608E-02  0.9727451E-01
         21   -1    0    0  501  502  0.00000000000E+00  0.00000000000E+00  0.23155965346E+03  0.23155965346E+03  0.00000000000E+00 0. -1.
         13   -1    0    0    0    0 -0.00000000000E+00 -0.00000000000E+00 -0.10000000000E+04  0.10000000000E+04  0.00000000000E+00 0.  1.
    9000005    2    1    2  501    0 -0.20327377135E+03 -0.21147130873E+01 -0.75836808910E+03  0.10280255077E+04  0.66361855591E+03 0.  0.
         13    1    3    3    0    0  0.15533737794E+03 -0.18438457072E+03 -0.48511040257E+03  0.54171899874E+03  0.00000000000E+00 0.  1.
          3    1    3    3  501    0 -0.35861114929E+03  0.18226985763E+03 -0.27325768652E+03  0.48630650894E+03  0.00000000000E+00 0.  1.
         -3    1    1    2    0  502  0.20327377135E+03  0.21147130873E+01 -0.10072257436E+02  0.20353414579E+03  0.00000000000E+00 0. -1.
<mgrwt>
<rscale>  1 0.69405640E+03</rscale>
<asrwt>0</asrwt>
<pdfrwt beam="1">  1       21 0.35624561E-01 0.69405640E+03</pdfrwt>
<pdfrwt beam="2">0</pdfrwt>
<totfact> 0.71464199E+02</totfact>
</mgrwt>
</event>
<event>
 6    1  0.1386179E-004  0.5955869E+03  0.7818608E-02  0.9914604E-01
         21   -1    0    0  501  502  0.00000000000E+00  0.00000000000E+00  0.52694890789E+03  0.52694890789E+03  0.00000000000E+00 0. -1.
         13   -1    0    0    0    0 -0.00000000000E+00 -0.00000000000E+00 -0.10000000000E+04  0.10000000000E+04  0.00000000000E+00 0.  1.
    9000005    2    1    2  501    0 -0.82255975796E+01  0.53838938136E+02 -0.90947606386E+03  0.10871386673E+04  0.59309145972E+03 0.  0.
         13    1    3    3    0    0  0.18516226547E+03 -0.11051352388E+03 -0.76562804710E+03  0.79541474089E+03  0.00000000000E+00 0.  1.
          1    1    3    3  501    0 -0.19338786305E+03  0.16435246201E+03 -0.14384801676E+03  0.29172392646E+03  0.00000000000E+00 0.  1.
         -3    1    1    2    0  502  0.82255975796E+01 -0.53838938136E+02  0.43642497175E+03  0.43981024054E+03  0.00000000000E+00 0. -1.
<mgrwt>
<rscale>  1 0.59558691E+03</rscale>
<asrwt>0</asrwt>
<pdfrwt beam="1">  1       21 0.81069060E-01 0.59558691E+03</pdfrwt>
<pdfrwt beam="2">0</pdfrwt>
<totfact> 0.12068539E+02</totfact>
</mgrwt>
</event>
<event>
 6    1  0.1386179E-004  0.6428493E+03  0.7818608E-02  0.9820290E-01
         21   -1    0    0  501  502  0.00000000000E+00  0.00000000000E+00  0.11209568355E+03  0.11209568355E+03  0.00000000000E+00 0.  1.
         13   -1    0    0    0    0 -0.00000000000E+00 -0.00000000000E+00 -0.10000000000E+04  0.10000000000E+04  0.00000000000E+00 0.  1.
    9000005    2    1    2  501    0  0.24798344907E+02  0.49929104739E+01 -0.86671919192E+03  0.10791002813E+04  0.64235144003E+03 0.  0.
         13    1    3    3    0    0 -0.25420015603E+03  0.17880326850E+03 -0.47635239520E+03  0.56877054475E+03  0.00000000000E+00 0.  1.
          1    1    3    3  501    0  0.27899850094E+03 -0.17381035803E+03 -0.39036679672E+03  0.51032973660E+03  0.00000000000E+00 0.  1.
         -3    1    1    2    0  502 -0.24798344907E+02 -0.49929104739E+01 -0.21185124531E+02  0.32995402202E+02  0.00000000000E+00 0. -1.
<mgrwt>
<rscale>  1 0.64284933E+03</rscale>
<asrwt>0</asrwt>
<pdfrwt beam="1">  1       21 0.17245489E-01 0.64284933E+03</pdfrwt>
<pdfrwt beam="2">0</pdfrwt>
<totfact> 0.29763203E+03</totfact>
</mgrwt>
</event>
<event>
 6    1  0.1386179E-004  0.6489307E+03  0.7818608E-02  0.9808788E-01
         21   -1    0    0  501  502  0.00000000000E+00  0.00000000000E+00  0.20360143555E+03  0.20360143555E+03  0.00000000000E+00 0.  1.
         13   -1    0    0    0    0 -0.00000000000E+00 -0.00000000000E+00 -0.10000000000E+04  0.10000000000E+04  0.00000000000E+00 0.  1.
    9000005    2    1    2  501    0  0.28663854558E+02 -0.12439080706E+03 -0.84637312897E+03  0.10665169852E+04  0.63625177152E+03 0.  0.
         13    1    3    3    0    0 -0.20277815204E+03 -0.17606569412E+03 -0.77294594799E+03  0.81826862711E+03  0.00000000000E+00 0.  1.
          3    1    3    3  501    0  0.23144200660E+03  0.51674887064E+02 -0.73427180979E+02  0.24824835806E+03  0.00000000000E+00 0.  1.
         -1    1    1    2    0  502 -0.28663854558E+02  0.12439080706E+03  0.49974564526E+02  0.13708445039E+03  0.00000000000E+00 0. -1.
<mgrwt>
<rscale>  1 0.64893066E+03</rscale>
<asrwt>0</asrwt>
<pdfrwt beam="1">  1       21 0.31323297E-01 0.64893066E+03</pdfrwt>
<pdfrwt beam="2">0</pdfrwt>
<totfact> 0.93064969E+02</totfact>
</mgrwt>
</event>
<event>
 6    1  0.1386179E-004  0.6618069E+03  0.7818608E-02  0.9784873E-01
         21   -1    0    0  501  502  0.00000000000E+00  0.00000000000E+00  0.16535219532E+03  0.16535219532E+03  0.00000000000E+00 0.  1.
         13   -1    0    0    0    0 -0.00000000000E+00 -0.00000000000E+00 -0.10000000000E+04  0.10000000000E+04  0.00000000000E+00 0.  1.
    9000005    2    1    2  501    0  0.61948173986E+02 -0.10144065554E+03 -0.80636273211E+03  0.10431727036E+04  0.65104581330E+03 0.  0.
         13    1    3    3    0    0  0.31840062259E+03 -0.20713573090E+03 -0.52569280299E+03  0.64856540965E+03  0.00000000000E+00 0.  1.
          1    1    3    3  501    0 -0.25645244860E+03  0.10569507536E+03 -0.28066992913E+03  0.39460729399E+03  0.00000000000E+00 0.  1.
         -3    1    1    2    0  502 -0.61948173986E+02  0.10144065554E+03 -0.28285072569E+02  0.12217949168E+03  0.00000000000E+00 0. -1.
<mgrwt>
<rscale>  1 0.66180695E+03</rscale>
<asrwt>0</asrwt>
<pdfrwt beam="1">  1       21 0.25438799E-01 0.66180695E+03</pdfrwt>
<pdfrwt beam="2">0</pdfrwt>
<totfact> 0.14064262E+03</totfact>
</mgrwt>
</event>
<event>
 6    1  0.1386179E-004  0.6514852E+03  0.7818608E-02  0.9803996E-01
         21   -1    0    0  501  502  0.00000000000E+00  0.00000000000E+00  0.12624261056E+03  0.12624261056E+03  0.00000000000E+00 0.  1.
         13   -1    0    0    0    0 -0.00000000000E+00 -0.00000000000E+00 -0.10000000000E+04  0.10000000000E+04  0.00000000000E+00 0.  1.
    9000005    2    1    2  501    0 -0.10116390298E+02 -0.32100785589E+02 -0.87691868653E+03  0.10924373508E+04  0.65061523258E+03 0.  0.
         13    1    3    3    0    0 -0.30456965500E+03 -0.80134919788E+02 -0.26473025436E+03  0.41141996511E+03  0.00000000000E+00 0.  1.
          1    1    3    3  501    0  0.29445326470E+03  0.48034134199E+02 -0.61218843216E+03  0.68101738569E+03  0.00000000000E+00 0.  1.
         -1    1    1    2    0  502  0.10116390298E+02  0.32100785589E+02  0.31612970880E+01  0.33805259759E+02  0.00000000000E+00 0. -1.
<mgrwt>
<rscale>  1 0.65148521E+03</rscale>
<asrwt>0</asrwt>
<pdfrwt beam="1">  1       21 0.19421940E-01 0.65148521E+03</pdfrwt>
<pdfrwt beam="2">0</pdfrwt>
<totfact> 0.23737738E+03</totfact>
</mgrwt>
</event>
<event>
 6    1  0.1386179E-004  0.6343232E+03  0.7818608E-02  0.9836648E-01
         21   -1    0    0  501  502  0.00000000000E+00  0.00000000000E+00  0.22038492188E+03  0.22038492188E+03  0.00000000000E+00 0.  1.
         13   -1    0    0    0    0 -0.00000000000E+00 -0.00000000000E+00 -0.10000000000E+04  0.10000000000E+04  0.00000000000E+00 0.  1.
    9000005    2    1    2  501    0  0.93658781426E+02 -0.37691049492E+02 -0.87550556195E+03  0.10811456765E+04  0.62623749677E+03 0.  0.
         13    1    3    3    0    0 -0.21252609190E+03 -0.19402118762E+03 -0.34901602772E+03  0.45235356591E+03  0.00000000000E+00 0.  1.
          1    1    3    3  501    0  0.30618487333E+03  0.15633013813E+03 -0.52648953423E+03  0.62879211064E+03  0.00000000000E+00 0.  1.
         -1    1    1    2    0  502 -0.93658781426E+02  0.37691049492E+02  0.95890483834E+02  0.13923924533E+03  0.00000000000E+00 0. -1.
<mgrwt>
<rscale>  1 0.63432325E+03</rscale>
<asrwt>0</asrwt>
<pdfrwt beam="1">  1       21 0.33905372E-01 0.63432325E+03</pdfrwt>
<pdfrwt beam="2">0</pdfrwt>
<totfact> 0.79378009E+02</totfact>
</mgrwt>
</event>
<event>
 6    1  0.1386179E-004  0.6656876E+03  0.7818608E-02  0.9777780E-01
         21   -1    0    0  501  502  0.00000000000E+00  0.00000000000E+00  0.20830130545E+03  0.20830130545E+03  0.00000000000E+00 0.  1.
         13   -1    0    0    0    0 -0.00000000000E+00 -0.00000000000E+00 -0.10000000000E+04  0.10000000000E+04  0.00000000000E+00 0.  1.
    9000005    2    1    2  501    0 -0.62315861137E+02  0.13129965616E+03 -0.82411878930E+03  0.10593921761E+04  0.64962846125E+03 0.  0.
         13    1    3    3    0    0  0.10973310431E+03 -0.16169282138E+03 -0.64772545909E+03  0.67656056124E+03  0.00000000000E+00 0.  1.
          1    1    3    3  501    0 -0.17204896545E+03  0.29299247754E+03 -0.17639333021E+03  0.38283161488E+03  0.00000000000E+00 0.  1.
         -1    1    1    2    0  502  0.62315861137E+02 -0.13129965616E+03  0.32420094752E+02  0.14890912934E+03  0.00000000000E+00 0. -1.
<mgrwt>
<rscale>  1 0.66568762E+03</rscale>
<asrwt>0</asrwt>
<pdfrwt beam="1">  1       21 0.32046354E-01 0.66568762E+03</pdfrwt>
<pdfrwt beam="2">0</pdfrwt>
<totfact> 0.88784402E+02</totfact>
</mgrwt>
</event>
<event>
 6    1  0.1386179E-004  0.6555946E+03  0.7818608E-02  0.9796338E-01
         21   -1    0    0  501  502  0.00000000000E+00  0.00000000000E+00  0.13109228768E+03  0.13109228768E+03  0.00000000000E+00 0.  1.
         13   -1    0    0    0    0 -0.00000000000E+00 -0.00000000000E+00 -0.10000000000E+04  0.10000000000E+04  0.00000000000E+00 0.  1.
    9000005    2    1    2  501    0 -0.30201923481E+02  0.43665235369E+02 -0.85267490074E+03  0.10755737040E+04  0.65344127312E+03 0.  0.
         13    1    3    3    0    0  0.49110906982E+02  0.23636007502E+03 -0.50314312880E+02  0.24659581572E+03  0.00000000000E+00 0.  1.
          3    1    3    3  501    0 -0.79312830463E+02 -0.19269483965E+03 -0.80236058786E+03  0.82897788828E+03  0.00000000000E+00 0.  1.
         -3    1    1    2    0  502  0.30201923481E+02 -0.43665235369E+02 -0.16232811579E+02  0.55518583677E+02  0.00000000000E+00 0. -1.
<mgrwt>
<rscale>  1 0.65559462E+03</rscale>
<asrwt>0</asrwt>
<pdfrwt beam="1">  1       21 0.20168044E-01 0.65559462E+03</pdfrwt>
<pdfrwt beam="2">0</pdfrwt>
<totfact> 0.22080294E+03</totfact>
</mgrwt>
</event>
<event>
 6    1  0.1386179E-004  0.6891464E+03  0.7818608E-02  0.9735975E-01
         21   -1    0    0  501  502  0.00000000000E+00  0.00000000000E+00  0.21790659365E+03  0.21790659365E+03  0.00000000000E+00 0.  1.
         13   -1    0    0    0    0 -0.00000000000E+00 -0.00000000000E+00 -0.10000000000E+04  0.10000000000E+04  0.00000000000E+00 0.  1.
    9000005    2    1    2  501    0 -0.20252726485E+03 -0.13012629916E+03 -0.53039203355E+03  0.86961974662E+03  0.64573419278E+03 0.  0.
         13    1    3    3    0    0  0.92054068545E+02 -0.50066081361E+02 -0.55363959847E+03  0.56346904887E+03  0.00000000000E+00 0.  1.
          1    1    3    3  501    0 -0.29458133339E+03 -0.80060217800E+02  0.23247564926E+02  0.30615069775E+03  0.00000000000E+00 0.  1.
         -3    1    1    2    0  502  0.20252726485E+03  0.13012629916E+03 -0.25170137281E+03  0.34828684703E+03  0.00000000000E+00 0. -1.
<mgrwt>
<rscale>  1 0.68914642E+03</rscale>
<asrwt>0</asrwt>
<pdfrwt beam="1">  1       21 0.33524090E-01 0.68914642E+03</pdfrwt>
<pdfrwt beam="2">0</pdfrwt>
<totfact> 0.80915319E+02</totfact>
</mgrwt>
</event>
<event>
 6    1  0.1386179E-004  0.6608771E+03  0.7818608E-02  0.9786580E-01
         21   -1    0    0  501  502  0.00000000000E+00  0.00000000000E+00  0.12991398674E+03  0.12991398674E+03  0.00000000000E+00 0.  1.
         13   -1    0    0    0    0 -0.00000000000E+00 -0.00000000000E+00 -0.10000000000E+04  0.10000000000E+04  0.00000000000E+00 0.  1.
    9000005    2    1    2  501    0 -0.77360402536E+01  0.37079797568E+02 -0.86934915693E+03  0.10920286246E+04  0.65979072637E+03 0.  0.
         13    1    3    3    0    0 -0.17699596880E+03  0.12661609377E+03 -0.87380220182E+03  0.90049402890E+03  0.00000000000E+00 0.  1.
          3    1    3    3  501    0  0.16925992854E+03 -0.89536296198E+02  0.44530448886E+01  0.19153459572E+03  0.00000000000E+00 0.  1.
         -1    1    1    2    0  502  0.77360402536E+01 -0.37079797568E+02 -0.73685632373E+00  0.37885362130E+02  0.00000000000E+00 0. -1.
<mgrwt>
<rscale>  1 0.66087711E+03</rscale>
<asrwt>0</asrwt>
<pdfrwt beam="1">  1       21 0.19986767E-01 0.66087711E+03</pdfrwt>
<pdfrwt beam="2">0</pdfrwt>
<totfact> 0.22461536E+03</totfact>
</mgrwt>
</event>
<event>
 6    1  0.1386179E-004  0.6472903E+03  0.7818608E-02  0.9811877E-01
         21   -1    0    0  501  502  0.00000000000E+00  0.00000000000E+00  0.19744614920E+03  0.19744614920E+03  0.00000000000E+00 0. -1.
         13   -1    0    0    0    0 -0.00000000000E+00 -0.00000000000E+00 -0.10000000000E+04  0.10000000000E+04  0.00000000000E+00 0.  1.
    9000005    2    1    2  501    0  0.17949651749E+02  0.10429641133E+02 -0.89396798063E+03  0.11037044267E+04  0.64695729661E+03 0.  0.
         13    1    3    3    0    0  0.23934235872E+03  0.88308841750E+01 -0.68568029200E+02  0.24912712381E+03  0.00000000000E+00 0.  1.
          1    1    3    3  501    0 -0.22139270697E+03  0.15987569576E+01 -0.82539995143E+03  0.85457730285E+03  0.00000000000E+00 0.  1.
         -3    1    1    2    0  502 -0.17949651749E+02 -0.10429641133E+02  0.91414129827E+02  0.93741722536E+02  0.00000000000E+00 0. -1.
<mgrwt>
<rscale>  1 0.64729028E+03</rscale>
<asrwt>0</asrwt>
<pdfrwt beam="1">  1       21 0.30376330E-01 0.64729028E+03</pdfrwt>
<pdfrwt beam="2">0</pdfrwt>
<totfact> 0.98993572E+02</totfact>
</mgrwt>
</event>
<event>
 6    1  0.1386179E-004  0.6468923E+03  0.7818608E-02  0.9812628E-01
         21   -1    0    0  501  502  0.00000000000E+00  0.00000000000E+00  0.24067748874E+03  0.24067748874E+03  0.00000000000E+00 0. -1.
         13   -1    0    0    0    0 -0.00000000000E+00 -0.00000000000E+00 -0.10000000000E+04  0.10000000000E+04  0.00000000000E+00 0.  1.
    9000005    2    1    2  501    0  0.47192998689E+02 -0.75085263909E+02 -0.87921257192E+03  0.10915513588E+04  0.64078439924E+03 0.  0.
         13    1    3    3    0    0  0.29266419122E+03  0.13639419451E+03 -0.43914894187E+03  0.54507568123E+03  0.00000000000E+00 0.  1.
          3    1    3    3  501    0 -0.24547119253E+03 -0.21147945842E+03 -0.44006363005E+03  0.54647567758E+03  0.00000000000E+00 0.  1.
         -3    1    1    2    0  502 -0.47192998689E+02  0.75085263909E+02  0.11989006066E+03  0.14912612993E+03  0.00000000000E+00 0. -1.
<mgrwt>
<rscale>  1 0.64689228E+03</rscale>
<asrwt>0</asrwt>
<pdfrwt beam="1">  1       21 0.37027305E-01 0.64689228E+03</pdfrwt>
<pdfrwt beam="2">0</pdfrwt>
<totfact> 0.66251517E+02</totfact>
</mgrwt>
</event>
<event>
 6    1  0.1386179E-004  0.6788973E+03  0.7818608E-02  0.9754017E-01
         21   -1    0    0  501  502  0.00000000000E+00  0.00000000000E+00  0.53516654420E+03  0.53516654420E+03  0.00000000000E+00 0. -1.
         13   -1    0    0    0    0 -0.00000000000E+00 -0.00000000000E+00 -0.10000000000E+04  0.10000000000E+04  0.00000000000E+00 0.  1.
    9000005    2    1    2  501    0  0.14565783945E+03 -0.12929650911E+03 -0.85936706169E+03  0.10951772720E+04  0.65035968276E+03 0.  0.
         13    1    3    3    0    0  0.11416721844E+03  0.19774902419E+02  0.81752037876E+02  0.14180478211E+03  0.00000000000E+00 0.  1.
          1    1    3    3  501    0  0.31490621011E+02 -0.14907141153E+03 -0.94111909957E+03  0.95337248991E+03  0.00000000000E+00 0.  1.
         -3    1    1    2    0  502 -0.14565783945E+03  0.12929650911E+03  0.39453360589E+03  0.43998927218E+03  0.00000000000E+00 0. -1.
<mgrwt>
<rscale>  1 0.67889728E+03</rscale>
<asrwt>0</asrwt>
<pdfrwt beam="1">  1       21 0.82333312E-01 0.67889728E+03</pdfrwt>
<pdfrwt beam="2">0</pdfrwt>
<totfact> 0.11509813E+02</totfact>
</mgrwt>
</event>
<event>
 6    1  0.1386179E-004  0.6540435E+03  0.7818608E-02  0.9799221E-01
         21   -1    0    0  501  502  0.00000000000E+00  0.00000000000E+00  0.12251470755E+03  0.12251470755E+03  0.00000000000E+00 0.  1.
         13   -1    0    0    0    0 -0.00000000000E+00 -0.00000000000E+00 -0.10000000000E+04  0.10000000000E+04  0.00000000000E+00 0.  1.
    9000005    2    1    2  501    0 -0.20471072816E+02 -0.41169573414E+02 -0.81770988425E+03  0.10471018570E+04  0.65242535634E+03 0.  0.
         13    1    3    3    0    0 -0.23551060435E+03  0.19129736205E+03 -0.56746021973E+03  0.64348350908E+03  0.00000000000E+00 0.  1.
          3    1    3    3  501    0  0.21503953153E+03 -0.23246693546E+03 -0.25024966452E+03  0.40361834794E+03  0.00000000000E+00 0.  1.
         -1    1    1    2    0  502  0.20471072816E+02  0.41169573414E+02 -0.59775408207E+02  0.75412850521E+02  0.00000000000E+00 0. -1.
<mgrwt>
<rscale>  1 0.65404346E+03</rscale>
<asrwt>0</asrwt>
<pdfrwt beam="1">  1       21 0.18848416E-01 0.65404346E+03</pdfrwt>
<pdfrwt beam="2">0</pdfrwt>
<totfact> 0.25133937E+03</totfact>
</mgrwt>
</event>
<event>
 6    1  0.1386179E-004  0.6513359E+03  0.7818608E-02  0.9804276E-01
         21   -1    0    0  501  502  0.00000000000E+00  0.00000000000E+00  0.11908923039E+03  0.11908923039E+03  0.00000000000E+00 0.  1.
         13   -1    0    0    0    0 -0.00000000000E+00 -0.00000000000E+00 -0.10000000000E+04  0.10000000000E+04  0.00000000000E+00 0.  1.
    9000005    2    1    2  501    0 -0.20216180574E+02  0.32952188425E+02 -0.83739879307E+03  0.10608841380E+04  0.65018756902E+03 0.  0.
         13    1    3    3    0    0  0.25745266404E+03  0.12515869730E+03 -0.17189985831E+03  0.33391036974E+03  0.00000000000E+00 0.  1.
          1    1    3    3  501    0 -0.27766884462E+03 -0.92206508871E+02 -0.66549893475E+03  0.72697376824E+03  0.00000000000E+00 0.  1.
         -1    1    1    2    0  502  0.20216180574E+02 -0.32952188425E+02 -0.43511976548E+02  0.58205092407E+02  0.00000000000E+00 0. -1.
<mgrwt>
<rscale>  1 0.65133587E+03</rscale>
<asrwt>0</asrwt>
<pdfrwt beam="1">  1       21 0.18321420E-01 0.65133587E+03</pdfrwt>
<pdfrwt beam="2">0</pdfrwt>
<totfact> 0.26530406E+03</totfact>
</mgrwt>
</event>
<event>
 6    1  0.1386179E-004  0.7223018E+03  0.7818608E-02  0.9679835E-01
         21   -1    0    0  501  502  0.00000000000E+00  0.00000000000E+00  0.45342294472E+03  0.45342294472E+03  0.00000000000E+00 0. -1.
         13   -1    0    0    0    0 -0.00000000000E+00 -0.00000000000E+00 -0.10000000000E+04  0.10000000000E+04  0.00000000000E+00 0.  1.
    9000005    2    1    2  501    0 -0.20337586753E+01 -0.19943965927E+02 -0.86921833268E+03  0.11301594426E+04  0.72202351609E+03 0.  0.
         13    1    3    3    0    0  0.14969354837E+03 -0.24223306672E+03 -0.80442165166E+03  0.85333417293E+03  0.00000000000E+00 0.  1.
          3    1    3    3  501    0 -0.15172730704E+03  0.22228910079E+03 -0.64796681018E+02  0.27682526963E+03  0.00000000000E+00 0.  1.
         -3    1    1    2    0  502  0.20337586753E+01  0.19943965927E+02  0.32264127739E+03  0.32326350216E+03  0.00000000000E+00 0. -1.
<mgrwt>
<rscale>  1 0.72230178E+03</rscale>
<asrwt>0</asrwt>
<pdfrwt beam="1">  1       21 0.69757374E-01 0.72230178E+03</pdfrwt>
<pdfrwt beam="2">0</pdfrwt>
<totfact> 0.16792030E+02</totfact>
</mgrwt>
</event>
<event>
 6    1  0.1386179E-004  0.6641742E+03  0.7818608E-02  0.9780540E-01
         21   -1    0    0  501  502  0.00000000000E+00  0.00000000000E+00  0.15048217562E+03  0.15048217562E+03  0.00000000000E+00 0.  1.
         13   -1    0    0    0    0 -0.00000000000E+00 -0.00000000000E+00 -0.10000000000E+04  0.10000000000E+04  0.00000000000E+00 0.  1.
    9000005    2    1    2  501    0 -0.16529409608E+02 -0.30978159032E+02 -0.88101022104E+03  0.11033160992E+04  0.66324545790E+03 0.  0.
         13    1    3    3    0    0 -0.30201050613E+03 -0.12954159198E+01 -0.19450804724E+03  0.35922890245E+03  0.00000000000E+00 0.  1.
          3    1    3    3  501    0  0.28548109652E+03 -0.29682743113E+02 -0.68650217380E+03  0.74408719674E+03  0.00000000000E+00 0.  1.
         -1    1    1    2    0  502  0.16529409608E+02  0.30978159032E+02  0.31492396663E+02  0.47166076438E+02  0.00000000000E+00 0. -1.
<mgrwt>
<rscale>  1 0.66417423E+03</rscale>
<asrwt>0</asrwt>
<pdfrwt beam="1">  1       21 0.23151103E-01 0.66417423E+03</pdfrwt>
<pdfrwt beam="2">0</pdfrwt>
<totfact> 0.16907346E+03</totfact>
</mgrwt>
</event>
<event>
 6    1  0.1386179E-004  0.6539140E+03  0.7818608E-02  0.9799462E-01
         21   -1    0    0  501  502  0.00000000000E+00  0.00000000000E+00  0.13747584136E+03  0.13747584136E+03  0.00000000000E+00 0.  1.
         13   -1    0    0    0    0 -0.00000000000E+00 -0.00000000000E+00 -0.10000000000E+04  0.10000000000E+04  0.00000000000E+00 0.  1.
    9000005    2    1    2  501    0 -0.60047254654E+01  0.36067205698E+02 -0.88047731417E+03  0.10967423680E+04  0.65289097179E+03 0.  0.
         13    1    3    3    0    0 -0.13124493859E+03 -0.27935375909E+03 -0.49309660813E+03  0.58172847753E+03  0.00000000000E+00 0.  1.
          1    1    3    3  501    0  0.12524021312E+03  0.31542096479E+03 -0.38738070604E+03  0.51501389052E+03  0.00000000000E+00 0.  1.
         -3    1    1    2    0  502  0.60047254654E+01 -0.36067205698E+02  0.17953155530E+02  0.40733473315E+02  0.00000000000E+00 0. -1.
<mgrwt>
<rscale>  1 0.65391400E+03</rscale>
<asrwt>0</asrwt>
<pdfrwt beam="1">  1       21 0.21150129E-01 0.65391400E+03</pdfrwt>
<pdfrwt beam="2">0</pdfrwt>
<totfact> 0.20151671E+03</totfact>
</mgrwt>
</event>
<event>
 6    1  0.1386179E-004  0.6472774E+03  0.7818608E-02  0.9811901E-01
         21   -1    0    0  501  502  0.00000000000E+00  0.00000000000E+00  0.13512543096E+03  0.13512543096E+03  0.00000000000E+00 0.  1.
         13   -1    0    0    0    0 -0.00000000000E+00 -0.00000000000E+00 -0.10000000000E+04  0.10000000000E+04  0.00000000000E+00 0.  1.
    9000005    2    1    2  501    0 -0.19432696332E+02  0.10359435280E+02 -0.89078547180E+03  0.11011206891E+04  0.64690267246E+03 0.  0.
         13    1    3    3    0    0 -0.91099588282E+02 -0.42386965183E+02  0.78656434743E+02  0.12760338761E+03  0.00000000000E+00 0.  1.
          1    1    3    3  501    0  0.71666891950E+02  0.52746400463E+02 -0.96944190655E+03  0.97351730151E+03  0.00000000000E+00 0.  1.
         -1    1    1    2    0  502  0.19432696332E+02 -0.10359435280E+02  0.25910902760E+02  0.34004741844E+02  0.00000000000E+00 0. -1.
<mgrwt>
<rscale>  1 0.64727739E+03</rscale>
<asrwt>0</asrwt>
<pdfrwt beam="1">  1       21 0.20788527E-01 0.64727739E+03</pdfrwt>
<pdfrwt beam="2">0</pdfrwt>
<totfact> 0.20838101E+03</totfact>
</mgrwt>
</event>
<event>
 6    1  0.1386179E-004  0.6496708E+03  0.7818608E-02  0.9807397E-01
         21   -1    0    0  501  502  0.00000000000E+00  0.00000000000E+00  0.38708646470E+03  0.38708646470E+03  0.00000000000E+00 0. -1.
         13   -1    0    0    0    0 -0.00000000000E+00 -0.00000000000E+00 -0.10000000000E+04  0.10000000000E+04  0.00000000000E+00 0.  1.
    9000005    2    1    2  501    0 -0.56132688052E+02 -0.32408506554E+02 -0.89035091793E+03  0.11021782492E+04  0.64642938210E+03 0.  0.
         13    1    3    3    0    0 -0.27949380995E+03 -0.21984371115E+03 -0.53683610493E+03  0.64392627737E+03  0.00000000000E+00 0.  1.
          1    1    3    3  501    0  0.22336112190E+03  0.18743520460E+03 -0.35351481300E+03  0.45825197185E+03  0.00000000000E+00 0.  1.
         -3    1    1    2    0  502  0.56132688052E+02  0.32408506554E+02  0.27743738263E+03  0.28490821547E+03  0.00000000000E+00 0. -1.
<mgrwt>
<rscale>  1 0.64967079E+03</rscale>
<asrwt>0</asrwt>
<pdfrwt beam="1">  1       21 0.59551762E-01 0.64967079E+03</pdfrwt>
<pdfrwt beam="2">0</pdfrwt>
<totfact> 0.24120421E+02</totfact>
</mgrwt>
</event>
<event>
 6    1  0.1386179E-004  0.6717683E+03  0.7818608E-02  0.9766769E-01
         21   -1    0    0  501  502  0.00000000000E+00  0.00000000000E+00  0.16252275625E+03  0.16252275625E+03  0.00000000000E+00 0.  1.
         13   -1    0    0    0    0 -0.00000000000E+00 -0.00000000000E+00 -0.10000000000E+04  0.10000000000E+04  0.00000000000E+00 0.  1.
    9000005    2    1    2  501    0  0.53017530913E+00 -0.13298874888E+03 -0.72459788482E+03  0.98808641231E+03  0.65847275957E+03 0.  0.
         13    1    3    3    0    0 -0.11938290983E+03  0.23316207844E+03 -0.42825762500E+03  0.50201735762E+03  0.00000000000E+00 0.  1.
          3    1    3    3  501    0  0.11991308514E+03 -0.36615082732E+03 -0.29634025982E+03  0.48606905469E+03  0.00000000000E+00 0.  1.
         -1    1    1    2    0  502 -0.53017530913E+00  0.13298874888E+03 -0.11287935893E+03  0.17443634394E+03  0.00000000000E+00 0. -1.
<mgrwt>
<rscale>  1 0.67176831E+03</rscale>
<asrwt>0</asrwt>
<pdfrwt beam="1">  1       21 0.25003500E-01 0.67176831E+03</pdfrwt>
<pdfrwt beam="2">0</pdfrwt>
<totfact> 0.14541495E+03</totfact>
</mgrwt>
</event>
<event>
 6    1  0.1386179E-004  0.6488351E+03  0.7818608E-02  0.9808968E-01
         21   -1    0    0  501  502  0.00000000000E+00  0.00000000000E+00  0.14434470750E+03  0.14434470750E+03  0.00000000000E+00 0.  1.
         13   -1    0    0    0    0 -0.00000000000E+00 -0.00000000000E+00 -0.10000000000E+04  0.10000000000E+04  0.00000000000E+00 0.  1.
    9000005    2    1    2  501    0 -0.13061050583E+02  0.27570105273E+02 -0.88806239572E+03  0.10998371566E+04  0.64811746667E+03 0.  0.
         13    1    3    3    0    0 -0.29989500501E+03  0.11216866203E+03 -0.29372000595E+03  0.43450001688E+03  0.00000000000E+00 0.  1.
          1    1    3    3  501    0  0.28683395443E+03 -0.84598556757E+02 -0.59434238978E+03  0.66533713973E+03  0.00000000000E+00 0.  1.
         -1    1    1    2    0  502  0.13061050583E+02 -0.27570105273E+02  0.32407103225E+02  0.44507550894E+02  0.00000000000E+00 0. -1.
<mgrwt>
<rscale>  1 0.64883507E+03</rscale>
<asrwt>0</asrwt>
<pdfrwt beam="1">  1       21 0.22206877E-01 0.64883507E+03</pdfrwt>
<pdfrwt beam="2">0</pdfrwt>
<totfact> 0.18343777E+03</totfact>
</mgrwt>
</event>
<event>
 6    1  0.1386179E-004  0.6766564E+03  0.7818608E-02  0.9758007E-01
         21   -1    0    0  501  502  0.00000000000E+00  0.00000000000E+00  0.18848457639E+03  0.18848457639E+03  0.00000000000E+00 0. -1.
         13   -1    0    0    0    0 -0.00000000000E+00 -0.00000000000E+00 -0.10000000000E+04  0.10000000000E+04  0.00000000000E+00 0.  1.
    9000005    2    1    2  501    0  0.16908388437E+03 -0.27177739259E+02 -0.74047925529E+03  0.10030819694E+04  0.65462655033E+03 0.  0.
         13    1    3    3    0    0  0.25559152192E+03 -0.29449311385E+03 -0.36495633768E+03  0.53408458937E+03  0.00000000000E+00 0.  1.
          1    1    3    3  501    0 -0.86507637556E+02  0.26731537459E+03 -0.37552291761E+03  0.46899738005E+03  0.00000000000E+00 0.  1.
         -3    1    1    2    0  502 -0.16908388437E+03  0.27177739259E+02 -0.71036168319E+02  0.18540260697E+03  0.00000000000E+00 0. -1.
<mgrwt>
<rscale>  1 0.67665642E+03</rscale>
<asrwt>0</asrwt>
<pdfrwt beam="1">  1       21 0.28997626E-01 0.67665642E+03</pdfrwt>
<pdfrwt beam="2">0</pdfrwt>
<totfact> 0.10843638E+03</totfact>
</mgrwt>
</event>
<event>
 6    1  0.1386179E-004  0.6822022E+03  0.7818608E-02  0.9748162E-01
         21   -1    0    0  501  502  0.00000000000E+00  0.00000000000E+00  0.18309414118E+03  0.18309414118E+03  0.00000000000E+00 0.  1.
         13   -1    0    0    0    0 -0.00000000000E+00 -0.00000000000E+00 -0.10000000000E+04  0.10000000000E+04  0.00000000000E+00 0.  1.
    9000005    2    1    2  501    0 -0.14945164169E+03 -0.80854387792E+02 -0.69572453184E+03  0.97438827342E+03  0.66070164064E+03 0.  0.
         13    1    3    3    0    0 -0.31188283540E+03 -0.27729132255E+03 -0.34883081208E+03  0.54391572513E+03  0.00000000000E+00 0.  1.
          1    1    3    3  501    0  0.16243119371E+03  0.19643693476E+03 -0.34689371976E+03  0.43047254830E+03  0.00000000000E+00 0.  1.
         -1    1    1    2    0  502  0.14945164169E+03  0.80854387792E+02 -0.12118132698E+03  0.20870586776E+03  0.00000000000E+00 0. -1.
<mgrwt>
<rscale>  1 0.68220223E+03</rscale>
<asrwt>0</asrwt>
<pdfrwt beam="1">  1       21 0.28168329E-01 0.68220223E+03</pdfrwt>
<pdfrwt beam="2">0</pdfrwt>
<totfact> 0.11485396E+03</totfact>
</mgrwt>
</event>
<event>
 6    1  0.1386179E-004  0.6540709E+03  0.7818608E-02  0.9799170E-01
         21   -1    0    0  501  502  0.00000000000E+00  0.00000000000E+00  0.38827426855E+03  0.38827426855E+03  0.00000000000E+00 0. -1.
         13   -1    0    0    0    0 -0.00000000000E+00 -0.00000000000E+00 -0.10000000000E+04  0.10000000000E+04  0.00000000000E+00 0.  1.
    9000005    2    1    2  501    0 -0.91408362742E+01  0.23013085885E+02 -0.89244449539E+03  0.11064655011E+04  0.65360199714E+03 0.  0.
         13    1    3    3    0    0 -0.22815329461E+03 -0.22027381171E+03 -0.53373983717E+03  0.62084836454E+03  0.00000000000E+00 0.  1.
          1    1    3    3  501    0  0.21901245834E+03  0.24328689760E+03 -0.35870465822E+03  0.48561713652E+03  0.00000000000E+00 0.  1.
         -3    1    1    2    0  502  0.91408362742E+01 -0.23013085885E+02  0.28071876394E+03  0.28180876749E+03  0.00000000000E+00 0. -1.
<mgrwt>
<rscale>  1 0.65407089E+03</rscale>
<asrwt>0</asrwt>
<pdfrwt beam="1">  1       21 0.59734501E-01 0.65407089E+03</pdfrwt>
<pdfrwt beam="2">0</pdfrwt>
<totfact> 0.23946501E+02</totfact>
</mgrwt>
</event>
<event>
 6    1  0.1386179E-004  0.6584479E+03  0.7818608E-02  0.9791055E-01
         21   -1    0    0  501  502  0.00000000000E+00  0.00000000000E+00  0.16988854630E+03  0.16988854630E+03  0.00000000000E+00 0.  1.
         13   -1    0    0    0    0 -0.00000000000E+00 -0.00000000000E+00 -0.10000000000E+04  0.10000000000E+04  0.00000000000E+00 0.  1.
    9000005    2    1    2  501    0  0.59198341656E+02  0.94116572585E+02 -0.82902705181E+03  0.10586970501E+04  0.64899246409E+03 0.  0.
         13    1    3    3    0    0  0.34818572579E+03  0.90765611103E+01 -0.35720440212E+03  0.49890947927E+03  0.00000000000E+00 0.  1.
          3    1    3    3  501    0 -0.28898738414E+03  0.85040011474E+02 -0.47182264969E+03  0.55978757087E+03  0.00000000000E+00 0.  1.
         -3    1    1    2    0  502 -0.59198341656E+02 -0.94116572585E+02 -0.10844018924E+01  0.11119149616E+03  0.00000000000E+00 0. -1.
<mgrwt>
<rscale>  1 0.65844787E+03</rscale>
<asrwt>0</asrwt>
<pdfrwt beam="1">  1       21 0.26136699E-01 0.65844787E+03</pdfrwt>
<pdfrwt beam="2">0</pdfrwt>
<totfact> 0.13337422E+03</totfact>
</mgrwt>
</event>
<event>
 6    1  0.1386179E-004  0.6214430E+03  0.7818608E-02  0.9861891E-01
         21   -1    0    0  501  502  0.00000000000E+00  0.00000000000E+00  0.13139672736E+03  0.13139672736E+03  0.00000000000E+00 0.  1.
         13   -1    0    0    0    0 -0.00000000000E+00 -0.00000000000E+00 -0.10000000000E+04  0.10000000000E+04  0.00000000000E+00 0.  1.
    9000005    2    1    2  501    0 -0.12989359240E+02  0.68572742082E+02 -0.86006266675E+03  0.10610839521E+04  0.61751147223E+03 0.  0.
         13    1    3    3    0    0 -0.28762979047E+03 -0.23283728434E+02 -0.23484954292E+03  0.37205824300E+03  0.00000000000E+00 0.  1.
          3    1    3    3  501    0  0.27464043123E+03  0.91856470516E+02 -0.62521312383E+03  0.68902570913E+03  0.00000000000E+00 0.  1.
         -1    1    1    2    0  502  0.12989359240E+02 -0.68572742082E+02 -0.85406058952E+01  0.70312775220E+02  0.00000000000E+00 0. -1.
<mgrwt>
<rscale>  1 0.62144297E+03</rscale>
<asrwt>0</asrwt>
<pdfrwt beam="1">  1       21 0.20214881E-01 0.62144297E+03</pdfrwt>
<pdfrwt beam="2">0</pdfrwt>
<totfact> 0.22012632E+03</totfact>
</mgrwt>
</event>
<event>
 6    1  0.1386179E-004  0.4579957E+03  0.7818608E-02  0.1025364E+00
         21   -1    0    0  501  502  0.00000000000E+00  0.00000000000E+00  0.88218021803E+02  0.88218021803E+02  0.00000000000E+00 0.  1.
         13   -1    0    0    0    0 -0.00000000000E+00 -0.00000000000E+00 -0.10000000000E+04  0.10000000000E+04  0.00000000000E+00 0.  1.
    9000005    2    1    2  501    0  0.28080646008E+02 -0.70790708081E+01 -0.94133662467E+03  0.10468403339E+04  0.45707921404E+03 0.  0.
         13    1    3    3    0    0  0.13241742630E+03 -0.10582882341E+03 -0.87015857991E+03  0.88651569013E+03  0.00000000000E+00 0.  1.
          3    1    3    3  501    0 -0.10433678029E+03  0.98749752604E+02 -0.71178044764E+02  0.16032464382E+03  0.00000000000E+00 0.  1.
         -3    1    1    2    0  502 -0.28080646008E+02  0.70790708081E+01  0.29554646477E+02  0.41377687854E+02  0.00000000000E+00 0. -1.
<mgrwt>
<rscale>  1 0.45799568E+03</rscale>
<asrwt>0</asrwt>
<pdfrwt beam="1">  1       21 0.13572003E-01 0.45799568E+03</pdfrwt>
<pdfrwt beam="2">0</pdfrwt>
<totfact> 0.46764355E+03</totfact>
</mgrwt>
</event>
<event>
 6    1  0.1386179E-004  0.6589134E+03  0.7818608E-02  0.9790196E-01
         21   -1    0    0  501  502  0.00000000000E+00  0.00000000000E+00  0.17647502846E+04  0.17647502846E+04  0.00000000000E+00 0. -1.
         13   -1    0    0    0    0 -0.00000000000E+00 -0.00000000000E+00 -0.10000000000E+04  0.10000000000E+04  0.00000000000E+00 0.  1.
    9000005    2    1    2  501    0  0.24903974403E+02 -0.57000175200E+02 -0.89081077497E+03  0.11080210823E+04  0.65597077222E+03 0.  0.
         13    1    3    3    0    0  0.23547943889E+03  0.49443455819E+02 -0.83026410104E+03  0.86442680369E+03  0.00000000000E+00 0.  1.
          3    1    3    3  501    0 -0.21057546449E+03 -0.10644363102E+03 -0.60546673934E+02  0.24359427857E+03  0.00000000000E+00 0.  1.
         -1    1    1    2    0  502 -0.24903974403E+02  0.57000175200E+02  0.16555610595E+04  0.16567292023E+04  0.00000000000E+00 0. -1.
<mgrwt>
<rscale>  1 0.65891341E+03</rscale>
<asrwt>0</asrwt>
<pdfrwt beam="1">  1       21 0.27150004E+00 0.65891341E+03</pdfrwt>
<pdfrwt beam="2">0</pdfrwt>
<totfact> 0.38252996E+00</totfact>
</mgrwt>
</event>
<event>
 6    1  0.1386179E-004  0.6400264E+03  0.7818608E-02  0.9825676E-01
         21   -1    0    0  501  502  0.00000000000E+00  0.00000000000E+00  0.15890923692E+03  0.15890923692E+03  0.00000000000E+00 0. -1.
         13   -1    0    0    0    0 -0.00000000000E+00 -0.00000000000E+00 -0.10000000000E+04  0.10000000000E+04  0.00000000000E+00 0.  1.
    9000005    2    1    2  501    0  0.89566241933E+02  0.30809156997E+02 -0.84972654647E+03  0.10637993394E+04  0.63297907937E+03 0.  0.
         13    1    3    3    0    0 -0.26964826789E+03  0.63984598776E+02 -0.32638651441E+03  0.42817329908E+03  0.00000000000E+00 0.  1.
          1    1    3    3  501    0  0.35921450982E+03 -0.33175441778E+02 -0.52334003206E+03  0.63562604034E+03  0.00000000000E+00 0.  1.
         -3    1    1    2    0  502 -0.89566241933E+02 -0.30809156997E+02  0.86357833950E+01  0.95109897507E+02  0.00000000000E+00 0. -1.
<mgrwt>
<rscale>  1 0.64002643E+03</rscale>
<asrwt>0</asrwt>
<pdfrwt beam="1">  1       21 0.24447574E-01 0.64002643E+03</pdfrwt>
<pdfrwt beam="2">0</pdfrwt>
<totfact> 0.15220714E+03</totfact>
</mgrwt>
</event>
<event>
 6    1  0.1386179E-004  0.6542372E+03  0.7818608E-02  0.9798861E-01
         21   -1    0    0  501  502  0.00000000000E+00  0.00000000000E+00  0.13102462320E+03  0.13102462320E+03  0.00000000000E+00 0.  1.
         13   -1    0    0    0    0 -0.00000000000E+00 -0.00000000000E+00 -0.10000000000E+04  0.10000000000E+04  0.00000000000E+00 0.  1.
    9000005    2    1    2  501    0 -0.24549918983E+02  0.22764795591E+02 -0.87929830512E+03  0.10959889658E+04  0.65337995786E+03 0.  0.
         13    1    3    3    0    0 -0.31523737458E+03  0.10350684379E+03 -0.59600676688E+03  0.68213806170E+03  0.00000000000E+00 0.  1.
          1    1    3    3  501    0  0.29068745560E+03 -0.80742048196E+02 -0.28329153823E+03  0.41385090410E+03  0.00000000000E+00 0.  1.
         -1    1    1    2    0  502  0.24549918983E+02 -0.22764795591E+02  0.10322928315E+02  0.35035657399E+02  0.00000000000E+00 0. -1.
<mgrwt>
<rscale>  1 0.65423719E+03</rscale>
<asrwt>0</asrwt>
<pdfrwt beam="1">  1       21 0.20157634E-01 0.65423719E+03</pdfrwt>
<pdfrwt beam="2">0</pdfrwt>
<totfact> 0.22103367E+03</totfact>
</mgrwt>
</event>
<event>
 6    1  0.1386179E-004  0.6984767E+03  0.7818608E-02  0.9719841E-01
         21   -1    0    0  501  502  0.00000000000E+00  0.00000000000E+00  0.30469527723E+03  0.30469527723E+03  0.00000000000E+00 0. -1.
         13   -1    0    0    0    0 -0.00000000000E+00 -0.00000000000E+00 -0.10000000000E+04  0.10000000000E+04  0.00000000000E+00 0.  1.
    9000005    2    1    2  501    0 -0.64674054935E+02  0.20163533323E+03 -0.80535520912E+03  0.10660519230E+04  0.66560509960E+03 0.  0.
         13    1    3    3    0    0  0.29142116381E+03  0.45013394405E+01 -0.33552478406E+03  0.44443608932E+03  0.00000000000E+00 0.  1.
          3    1    3    3  501    0 -0.35609521875E+03  0.19713399379E+03 -0.46983042506E+03  0.62161583364E+03  0.00000000000E+00 0.  1.
         -3    1    1    2    0  502  0.64674054935E+02 -0.20163533323E+03  0.11005048636E+03  0.23864335427E+03  0.00000000000E+00 0. -1.
<mgrwt>
<rscale>  1 0.69847669E+03</rscale>
<asrwt>0</asrwt>
<pdfrwt beam="1">  1       21 0.46876195E-01 0.69847669E+03</pdfrwt>
<pdfrwt beam="2">0</pdfrwt>
<totfact> 0.40303866E+02</totfact>
</mgrwt>
</event>
<event>
 6    1  0.1386179E-004  0.6447469E+03  0.7818608E-02  0.9816687E-01
         21   -1    0    0  501  502  0.00000000000E+00  0.00000000000E+00  0.13893230965E+03  0.13893230965E+03  0.00000000000E+00 0.  1.
         13   -1    0    0    0    0 -0.00000000000E+00 -0.00000000000E+00 -0.10000000000E+04  0.10000000000E+04  0.00000000000E+00 0.  1.
    9000005    2    1    2  501    0  0.31546116630E+02 -0.43047616971E+02 -0.87198177315E+03  0.10844587197E+04  0.64253423813E+03 0.  0.
         13    1    3    3    0    0 -0.16956269825E+01 -0.31556924302E+03 -0.24339321026E+03  0.39853114946E+03  0.00000000000E+00 0.  1.
          3    1    3    3  501    0  0.33241743613E+02  0.27252162605E+03 -0.62858856289E+03  0.68592757021E+03  0.00000000000E+00 0.  1.
         -1    1    1    2    0  502 -0.31546116630E+02  0.43047616971E+02  0.10914082804E+02  0.54473589975E+02  0.00000000000E+00 0. -1.
<mgrwt>
<rscale>  1 0.64474685E+03</rscale>
<asrwt>0</asrwt>
<pdfrwt beam="1">  1       21 0.21374201E-01 0.64474685E+03</pdfrwt>
<pdfrwt beam="2">0</pdfrwt>
<totfact> 0.19753932E+03</totfact>
</mgrwt>
</event>
<event>
 6    1  0.1386179E-004  0.6620023E+03  0.7818608E-02  0.9784515E-01
         21   -1    0    0  501  502  0.00000000000E+00  0.00000000000E+00  0.25453706951E+03  0.25453706951E+03  0.00000000000E+00 0. -1.
         13   -1    0    0    0    0 -0.00000000000E+00 -0.00000000000E+00 -0.10000000000E+04  0.10000000000E+04  0.00000000000E+00 0.  1.
    9000005    2    1    2  501    0  0.15291145888E+03  0.17638898139E+02 -0.84333635219E+03  0.10721302394E+04  0.64385868201E+03 0.  0.
         13    1    3    3    0    0  0.37860575854E+03 -0.25260896834E+02 -0.30503016101E+03  0.48685093451E+03  0.00000000000E+00 0.  1.
          3    1    3    3  501    0 -0.22569429966E+03  0.42899794974E+02 -0.53830619117E+03  0.58527930492E+03  0.00000000000E+00 0.  1.
         -3    1    1    2    0  502 -0.15291145888E+03 -0.17638898139E+02  0.97873421696E+02  0.18240683008E+03  0.00000000000E+00 0. -1.
<mgrwt>
<rscale>  1 0.66200230E+03</rscale>
<asrwt>0</asrwt>
<pdfrwt beam="1">  1       21 0.39159548E-01 0.66200230E+03</pdfrwt>
<pdfrwt beam="2">0</pdfrwt>
<totfact> 0.58961497E+02</totfact>
</mgrwt>
</event>
<event>
 6    1  0.1386179E-004  0.6509971E+03  0.7818608E-02  0.9804910E-01
         21   -1    0    0  501  502  0.00000000000E+00  0.00000000000E+00  0.15573113209E+03  0.15573113209E+03  0.00000000000E+00 0.  1.
         13   -1    0    0    0    0 -0.00000000000E+00 -0.00000000000E+00 -0.10000000000E+04  0.10000000000E+04  0.00000000000E+00 0.  1.
    9000005    2    1    2  501    0 -0.65369227449E+02  0.49355296440E+02 -0.85335667219E+03  0.10733195469E+04  0.64582362812E+03 0.  0.
         13    1    3    3    0    0  0.11920633207E+02 -0.29518330138E+03 -0.43555719717E+03  0.52629398145E+03  0.00000000000E+00 0.  1.
          3    1    3    3  501    0 -0.77289860656E+02  0.34453859782E+03 -0.41779947502E+03  0.54702556546E+03  0.00000000000E+00 0.  1.
         -1    1    1    2    0  502  0.65369227449E+02 -0.49355296440E+02  0.90878042753E+01  0.82411585172E+02  0.00000000000E+00 0. -1.
<mgrwt>
<rscale>  1 0.65099711E+03</rscale>
<asrwt>0</asrwt>
<pdfrwt beam="1">  1       21 0.23958635E-01 0.65099711E+03</pdfrwt>
<pdfrwt beam="2">0</pdfrwt>
<totfact> 0.15824610E+03</totfact>
</mgrwt>
</event>
<event>
 6    1  0.1386179E-004  0.6669690E+03  0.7818608E-02  0.9775449E-01
         21   -1    0    0  501  502  0.00000000000E+00  0.00000000000E+00  0.12506797934E+03  0.12506797934E+03  0.00000000000E+00 0.  1.
         13   -1    0    0    0    0 -0.00000000000E+00 -0.00000000000E+00 -0.10000000000E+04  0.10000000000E+04  0.00000000000E+00 0.  1.
    9000005    2    1    2  501    0 -0.10504956763E+02  0.21568934136E+02 -0.87605091455E+03  0.11010507988E+04  0.66653738355E+03 0.  0.
         13    1    3    3    0    0 -0.30344260456E+03 -0.13188431009E+03 -0.36816769400E+03  0.49499326906E+03  0.00000000000E+00 0.  1.
          3    1    3    3  501    0  0.29293764780E+03  0.15345324423E+03 -0.50788322055E+03  0.60605752976E+03  0.00000000000E+00 0.  1.
         -1    1    1    2    0  502  0.10504956763E+02 -0.21568934136E+02  0.11188938835E+01  0.24017180515E+02  0.00000000000E+00 0. -1.
<mgrwt>
<rscale>  1 0.66696901E+03</rscale>
<asrwt>0</asrwt>
<pdfrwt beam="1">  1       21 0.19241227E-01 0.66696901E+03</pdfrwt>
<pdfrwt beam="2">0</pdfrwt>
<totfact> 0.24152084E+03</totfact>
</mgrwt>
</event>
<event>
 6    1  0.1386179E-004  0.6423130E+03  0.7818608E-02  0.9821311E-01
         21   -1    0    0  501  502  0.00000000000E+00  0.00000000000E+00  0.12060877308E+03  0.12060877308E+03  0.00000000000E+00 0.  1.
         13   -1    0    0    0    0 -0.00000000000E+00 -0.00000000000E+00 -0.10000000000E+04  0.10000000000E+04  0.00000000000E+00 0.  1.
    9000005    2    1    2  501    0  0.43222378859E+02  0.92746044228E+01 -0.85719245812E+03  0.10711418381E+04  0.64078993025E+03 0.  0.
         13    1    3    3    0    0 -0.15571464425E+03  0.31333381336E+01  0.32802803535E+02  0.15916309925E+03  0.00000000000E+00 0.  1.
          3    1    3    3  501    0  0.19893702311E+03  0.61412662892E+01 -0.88999526165E+03  0.91197873883E+03  0.00000000000E+00 0.  1.
         -1    1    1    2    0  502 -0.43222378859E+02 -0.92746044228E+01 -0.22198768809E+02  0.49466934998E+02  0.00000000000E+00 0. -1.
<mgrwt>
<rscale>  1 0.64231295E+03</rscale>
<asrwt>0</asrwt>
<pdfrwt beam="1">  1       21 0.18555195E-01 0.64231295E+03</pdfrwt>
<pdfrwt beam="2">0</pdfrwt>
<totfact> 0.25906579E+03</totfact>
</mgrwt>
</event>
<event>
 6    1  0.1386179E-004  0.6469578E+03  0.7818608E-02  0.9812505E-01
         21   -1    0    0  501  502  0.00000000000E+00  0.00000000000E+00  0.13102376806E+03  0.13102376806E+03  0.00000000000E+00 0.  1.
         13   -1    0    0    0    0 -0.00000000000E+00 -0.00000000000E+00 -0.10000000000E+04  0.10000000000E+04  0.00000000000E+00 0.  1.
    9000005    2    1    2  501    0  0.59147157648E+01 -0.60444607088E+02 -0.84833841004E+03  0.10668797576E+04  0.64410078775E+03 0.  0.
         13    1    3    3    0    0  0.20145013461E+03 -0.22810101642E+03 -0.18707736609E+03  0.35722565883E+03  0.00000000000E+00 0.  1.
          1    1    3    3  501    0 -0.19553541885E+03  0.16765640933E+03 -0.66126104395E+03  0.70965409874E+03  0.00000000000E+00 0.  1.
         -1    1    1    2    0  502 -0.59147157648E+01  0.60444607088E+02 -0.20637821903E+02  0.64144010488E+02  0.00000000000E+00 0. -1.
<mgrwt>
<rscale>  1 0.64695777E+03</rscale>
<asrwt>0</asrwt>
<pdfrwt beam="1">  1       21 0.20157502E-01 0.64695777E+03</pdfrwt>
<pdfrwt beam="2">0</pdfrwt>
<totfact> 0.22110019E+03</totfact>
</mgrwt>
</event>
<event>
 6    1  0.1386179E-004  0.7400820E+03  0.7818608E-02  0.9651040E-01
         21   -1    0    0  501  502  0.00000000000E+00  0.00000000000E+00  0.55403222455E+03  0.55403222455E+03  0.00000000000E+00 0. -1.
         13   -1    0    0    0    0 -0.00000000000E+00 -0.00000000000E+00 -0.10000000000E+04  0.10000000000E+04  0.00000000000E+00 0.  1.
    9000005    2    1    2  501    0 -0.53653280864E+02  0.34775692367E+03 -0.77548382853E+03  0.10719592200E+04  0.65108205969E+03 0.  0.
         13    1    3    3    0    0  0.41454107989E+02  0.15196222857E+03  0.88707423481E+02  0.18077601877E+03  0.00000000000E+00 0.  1.
          1    1    3    3  501    0 -0.95107388853E+02  0.19579469510E+03 -0.86419125201E+03  0.89118320120E+03  0.00000000000E+00 0.  1.
         -3    1    1    2    0  502  0.53653280864E+02 -0.34775692367E+03  0.32951605309E+03  0.48207300458E+03  0.00000000000E+00 0. -1.
<mgrwt>
<rscale>  1 0.74008202E+03</rscale>
<asrwt>0</asrwt>
<pdfrwt beam="1">  1       21 0.85235724E-01 0.74008202E+03</pdfrwt>
<pdfrwt beam="2">0</pdfrwt>
<totfact> 0.10527592E+02</totfact>
</mgrwt>
</event>
<event>
 6    1  0.1386179E-004  0.7026763E+03  0.7818608E-02  0.9712666E-01
         21   -1    0    0  501  502  0.00000000000E+00  0.00000000000E+00  0.29278112227E+03  0.29278112227E+03  0.00000000000E+00 0. -1.
         13   -1    0    0    0    0 -0.00000000000E+00 -0.00000000000E+00 -0.10000000000E+04  0.10000000000E+04  0.00000000000E+00 0.  1.
    9000005    2    1    2  501    0 -0.26752889311E+03 -0.29057777920E+02 -0.74143927105E+03  0.10215117019E+04  0.64910546243E+03 0.  0.
         13    1    3    3    0    0 -0.25900826265E+03 -0.29937723685E+03 -0.59301617639E+03  0.71300785096E+03  0.00000000000E+00 0.  1.
          3    1    3    3  501    0 -0.85206304643E+01  0.27031945893E+03 -0.14842309467E+03  0.30850385095E+03  0.00000000000E+00 0.  1.
         -3    1    1    2    0  502  0.26752889311E+03  0.29057777920E+02  0.34220393328E+02  0.27126942037E+03  0.00000000000E+00 0. -1.
<mgrwt>
<rscale>  1 0.70267629E+03</rscale>
<asrwt>0</asrwt>
<pdfrwt beam="1">  1       21 0.45043248E-01 0.70267629E+03</pdfrwt>
<pdfrwt beam="2">0</pdfrwt>
<totfact> 0.43845947E+02</totfact>
</mgrwt>
</event>
<event>
 6    1  0.1386179E-004  0.9320686E+03  0.7818608E-02  0.9386359E-01
         21   -1    0    0  501  502  0.00000000000E+00  0.00000000000E+00  0.79943792230E+03  0.79943792230E+03  0.00000000000E+00 0. -1.
         13   -1    0    0    0    0 -0.00000000000E+00 -0.00000000000E+00 -0.10000000000E+04  0.10000000000E+04  0.00000000000E+00 0.  1.
    9000005    2    1    2  501    0 -0.63412403275E+03  0.26772783639E+03 -0.48966488006E+03  0.10528644741E+04  0.62845876769E+03 0.  0.
         13    1    3    3    0    0 -0.57759454493E+03  0.45238933811E+03 -0.43159453903E+03  0.85120233652E+03  0.00000000000E+00 0.  1.
          1    1    3    3  501    0 -0.56529487822E+02 -0.18466150172E+03 -0.58070341022E+02  0.20166213754E+03  0.00000000000E+00 0.  1.
         -1    1    1    2    0  502  0.63412403275E+03 -0.26772783639E+03  0.28910280236E+03  0.74657344824E+03  0.00000000000E+00 0. -1.
<mgrwt>
<rscale>  1 0.93206862E+03</rscale>
<asrwt>0</asrwt>
<pdfrwt beam="1">  1       21 0.12299045E+00 0.93206862E+03</pdfrwt>
<pdfrwt beam="2">0</pdfrwt>
<totfact> 0.41427454E+01</totfact>
</mgrwt>
</event>
<event>
 6    1  0.1386179E-004  0.6574895E+03  0.7818608E-02  0.9792826E-01
         21   -1    0    0  501  502  0.00000000000E+00  0.00000000000E+00  0.14726349850E+03  0.14726349850E+03  0.00000000000E+00 0.  1.
         13   -1    0    0    0    0 -0.00000000000E+00 -0.00000000000E+00 -0.10000000000E+04  0.10000000000E+04  0.00000000000E+00 0.  1.
    9000005    2    1    2  501    0 -0.32364954077E+02 -0.95709777983E+02 -0.79212296953E+03  0.10294422266E+04  0.64968041927E+03 0.  0.
         13    1    3    3    0    0  0.18359364369E+03 -0.26233238914E+03 -0.64362706239E+03  0.71887460926E+03  0.00000000000E+00 0.  1.
          1    1    3    3  501    0 -0.21595859777E+03  0.16662261116E+03 -0.14849590714E+03  0.31056761733E+03  0.00000000000E+00 0.  1.
         -1    1    1    2    0  502  0.32364954077E+02  0.95709777983E+02 -0.60613531972E+02  0.11782127190E+03  0.00000000000E+00 0. -1.
<mgrwt>
<rscale>  1 0.65748954E+03</rscale>
<asrwt>0</asrwt>
<pdfrwt beam="1">  1       21 0.22655922E-01 0.65748954E+03</pdfrwt>
<pdfrwt beam="2">0</pdfrwt>
<totfact> 0.17638389E+03</totfact>
</mgrwt>
</event>
<event>
 6    1  0.1386179E-004  0.6336974E+03  0.7818608E-02  0.9837860E-01
         21   -1    0    0  501  502  0.00000000000E+00  0.00000000000E+00  0.11243065158E+03  0.11243065158E+03  0.00000000000E+00 0.  1.
         13   -1    0    0    0    0 -0.00000000000E+00 -0.00000000000E+00 -0.10000000000E+04  0.10000000000E+04  0.00000000000E+00 0.  1.
    9000005    2    1    2  501    0  0.29862156613E+02  0.21703365302E+02 -0.83846483745E+03  0.10509974565E+04  0.63262120215E+03 0.  0.
         13    1    3    3    0    0 -0.20325086937E+03 -0.18941062966E+03 -0.58300083687E+03  0.64581520446E+03  0.00000000000E+00 0.  1.
          1    1    3    3  501    0  0.23311302598E+03  0.21111399496E+03 -0.25546400058E+03  0.40518225201E+03  0.00000000000E+00 0.  1.
         -1    1    1    2    0  502 -0.29862156613E+02 -0.21703365302E+02 -0.49104510969E+02  0.61433195103E+02  0.00000000000E+00 0. -1.
<mgrwt>
<rscale>  1 0.63369738E+03</rscale>
<asrwt>0</asrwt>
<pdfrwt beam="1">  1       21 0.17297023E-01 0.63369738E+03</pdfrwt>
<pdfrwt beam="2">0</pdfrwt>
<totfact> 0.29604368E+03</totfact>
</mgrwt>
</event>
<event>
 6    1  0.1386179E-004  0.6522601E+03  0.7818608E-02  0.9802548E-01
         21   -1    0    0  501  502  0.00000000000E+00  0.00000000000E+00  0.14514153345E+03  0.14514153345E+03  0.00000000000E+00 0.  1.
         13   -1    0    0    0    0 -0.00000000000E+00 -0.00000000000E+00 -0.10000000000E+04  0.10000000000E+04  0.00000000000E+00 0.  1.
    9000005    2    1    2  501    0 -0.23090109268E+02 -0.25357128682E+02 -0.88506080776E+03  0.10994434095E+04  0.65135784332E+03 0.  0.
         13    1    3    3    0    0  0.17276653726E+03  0.85239735961E+02 -0.67274240980E+01  0.19276759898E+03  0.00000000000E+00 0.  1.
          3    1    3    3  501    0 -0.19585664652E+03 -0.11059686464E+03 -0.87833338366E+03  0.90667581048E+03  0.00000000000E+00 0.  1.
         -3    1    1    2    0  502  0.23090109268E+02  0.25357128682E+02  0.30202341207E+02  0.45698123981E+02  0.00000000000E+00 0. -1.
<mgrwt>
<rscale>  1 0.65226005E+03</rscale>
<asrwt>0</asrwt>
<pdfrwt beam="1">  1       21 0.22329466E-01 0.65226005E+03</pdfrwt>
<pdfrwt beam="2">0</pdfrwt>
<totfact> 0.18146340E+03</totfact>
</mgrwt>
</event>
<event>
 6    1  0.1386179E-004  0.6365315E+03  0.7818608E-02  0.9832385E-01
         21   -1    0    0  501  502  0.00000000000E+00  0.00000000000E+00  0.18772372952E+03  0.18772372952E+03  0.00000000000E+00 0.  1.
         13   -1    0    0    0    0 -0.00000000000E+00 -0.00000000000E+00 -0.10000000000E+04  0.10000000000E+04  0.00000000000E+00 0.  1.
    9000005    2    1    2  501    0  0.25482475195E+02  0.17957313516E+02 -0.89560008773E+03  0.10987592413E+04  0.63576767097E+03 0.  0.
         13    1    3    3    0    0  0.29222529068E+03  0.83925452032E+00 -0.20147519828E+03  0.35494870105E+03  0.00000000000E+00 0.  1.
          3    1    3    3  501    0 -0.26674281548E+03  0.17118058996E+02 -0.69412488946E+03  0.74381054020E+03  0.00000000000E+00 0.  1.
         -1    1    1    2    0  502 -0.25482475195E+02 -0.17957313516E+02  0.83323817256E+02  0.88964488269E+02  0.00000000000E+00 0. -1.
<mgrwt>
<rscale>  1 0.63653150E+03</rscale>
<asrwt>0</asrwt>
<pdfrwt beam="1">  1       21 0.28880573E-01 0.63653150E+03</pdfrwt>
<pdfrwt beam="2">0</pdfrwt>
<totfact> 0.10957892E+03</totfact>
</mgrwt>
</event>
<event>
 6    1  0.1386179E-004  0.6561885E+03  0.7818608E-02  0.9795236E-01
         21   -1    0    0  501  502  0.00000000000E+00  0.00000000000E+00  0.14319398560E+03  0.14319398560E+03  0.00000000000E+00 0.  1.
         13   -1    0    0    0    0 -0.00000000000E+00 -0.00000000000E+00 -0.10000000000E+04  0.10000000000E+04  0.00000000000E+00 0.  1.
    9000005    2    1    2  501    0 -0.64577339960E+02  0.75915717749E+02 -0.76257519018E+03  0.10060339431E+04  0.64857531935E+03 0.  0.
         13    1    3    3    0    0 -0.33508387896E+03 -0.24873260941E+02 -0.25386903807E+03  0.42112868999E+03  0.00000000000E+00 0.  1.
          3    1    3    3  501    0  0.27050653900E+03  0.10078897869E+03 -0.50870615211E+03  0.58490525307E+03  0.00000000000E+00 0.  1.
         -3    1    1    2    0  502  0.64577339960E+02 -0.75915717749E+02 -0.94230824217E+02  0.13716004254E+03  0.00000000000E+00 0. -1.
<mgrwt>
<rscale>  1 0.65618852E+03</rscale>
<asrwt>0</asrwt>
<pdfrwt beam="1">  1       21 0.22029843E-01 0.65618852E+03</pdfrwt>
<pdfrwt beam="2">0</pdfrwt>
<totfact> 0.18624156E+03</totfact>
</mgrwt>
</event>
<event>
 6    1  0.1386179E-004  0.6652932E+03  0.7818608E-02  0.9778498E-01
         21   -1    0    0  501  502  0.00000000000E+00  0.00000000000E+00  0.19630211441E+03  0.19630211441E+03  0.00000000000E+00 0.  1.
         13   -1    0    0    0    0 -0.00000000000E+00 -0.00000000000E+00 -0.10000000000E+04  0.10000000000E+04  0.00000000000E+00 0.  1.
    9000005    2    1    2  501    0  0.15386229573E+03  0.14494802147E+01 -0.80252235869E+03  0.10424285010E+04  0.64725523286E+03 0.  0.
         13    1    3    3    0    0 -0.15981362530E+03 -0.22017490756E+03 -0.41960514743E+03  0.50008585713E+03  0.00000000000E+00 0.  1.
          1    1    3    3  501    0  0.31367592103E+03  0.22162438777E+03 -0.38291721126E+03  0.54234264388E+03  0.00000000000E+00 0.  1.
         -3    1    1    2    0  502 -0.15386229573E+03 -0.14494802147E+01 -0.11755269073E+01  0.15387361341E+03  0.00000000000E+00 0. -1.
<mgrwt>
<rscale>  1 0.66529320E+03</rscale>
<asrwt>0</asrwt>
<pdfrwt beam="1">  1       21 0.30200324E-01 0.66529320E+03</pdfrwt>
<pdfrwt beam="2">0</pdfrwt>
<totfact> 0.10003996E+03</totfact>
</mgrwt>
</event>
<event>
 6    1  0.1386179E-004  0.6586432E+03  0.7818608E-02  0.9790695E-01
         21   -1    0    0  501  502  0.00000000000E+00  0.00000000000E+00  0.20644418797E+03  0.20644418797E+03  0.00000000000E+00 0.  1.
         13   -1    0    0    0    0 -0.00000000000E+00 -0.00000000000E+00 -0.10000000000E+04  0.10000000000E+04  0.00000000000E+00 0.  1.
    9000005    2    1    2  501    0 -0.17991756298E+02 -0.95197597074E+02 -0.86417268977E+03  0.10865566190E+04  0.65147875074E+03 0.  0.
         13    1    3    3    0    0  0.10451312810E+03  0.23783821245E+03 -0.56708563566E+03  0.62375967120E+03  0.00000000000E+00 0.  1.
          3    1    3    3  501    0 -0.12250488440E+03 -0.33303580952E+03 -0.29708705411E+03  0.46279694775E+03  0.00000000000E+00 0.  1.
         -1    1    1    2    0  502  0.17991756298E+02  0.95197597074E+02  0.70616877733E+02  0.11988756901E+03  0.00000000000E+00 0. -1.
<mgrwt>
<rscale>  1 0.65864319E+03</rscale>
<asrwt>0</asrwt>
<pdfrwt beam="1">  1       21 0.31760643E-01 0.65864319E+03</pdfrwt>
<pdfrwt beam="2">0</pdfrwt>
<totfact> 0.90444519E+02</totfact>
</mgrwt>
</event>
<event>
 6    1  0.1386179E-004  0.6637159E+03  0.7818608E-02  0.9781377E-01
         21   -1    0    0  501  502  0.00000000000E+00  0.00000000000E+00  0.30781969505E+03  0.30781969505E+03  0.00000000000E+00 0. -1.
         13   -1    0    0    0    0 -0.00000000000E+00 -0.00000000000E+00 -0.10000000000E+04  0.10000000000E+04  0.00000000000E+00 0.  1.
    9000005    2    1    2  501    0 -0.73031790157E+02  0.74782297772E+02 -0.87438818548E+03  0.10977584036E+04  0.65543327606E+03 0.  0.
         13    1    3    3    0    0 -0.31116331124E+02  0.66375174039E+01 -0.97145199586E+03  0.97197287152E+03  0.00000000000E+00 0.  1.
          1    1    3    3  501    0 -0.41915459033E+02  0.68144780368E+02  0.97063810389E+02  0.12578553210E+03  0.00000000000E+00 0.  1.
         -1    1    1    2    0  502  0.73031790157E+02 -0.74782297772E+02  0.18220788052E+03  0.21006129143E+03  0.00000000000E+00 0. -1.
<mgrwt>
<rscale>  1 0.66371591E+03</rscale>
<asrwt>0</asrwt>
<pdfrwt beam="1">  1       21 0.47356875E-01 0.66371591E+03</pdfrwt>
<pdfrwt beam="2">0</pdfrwt>
<totfact> 0.39559010E+02</totfact>
</mgrwt>
</event>
<event>
 6    1  0.1386179E-004  0.6297218E+03  0.7818608E-02  0.9845592E-01
         21   -1    0    0  501  502  0.00000000000E+00  0.00000000000E+00  0.18860333886E+03  0.18860333886E+03  0.00000000000E+00 0.  1.
         13   -1    0    0    0    0 -0.00000000000E+00 -0.00000000000E+00 -0.10000000000E+04  0.10000000000E+04  0.00000000000E+00 0.  1.
    9000005    2    1    2  501    0  0.93826511211E+01  0.23695940005E+02 -0.89886329616E+03  0.10974993106E+04  0.62920583274E+03 0.  0.
         13    1    3    3    0    0 -0.36575952169E+02 -0.29911722790E+03 -0.47875737074E+03  0.56570092482E+03  0.00000000000E+00 0.  1.
          3    1    3    3  501    0  0.45958603290E+02  0.32281316790E+03 -0.42010592543E+03  0.53179838583E+03  0.00000000000E+00 0.  1.
         -1    1    1    2    0  502 -0.93826511211E+01 -0.23695940005E+02  0.87466635019E+02  0.91104028212E+02  0.00000000000E+00 0. -1.
<mgrwt>
<rscale>  1 0.62972177E+03</rscale>
<asrwt>0</asrwt>
<pdfrwt beam="1">  1       21 0.29015897E-01 0.62972177E+03</pdfrwt>
<pdfrwt beam="2">0</pdfrwt>
<totfact> 0.10860899E+03</totfact>
</mgrwt>
</event>
<event>
 6    1  0.1386179E-004  0.6507905E+03  0.7818608E-02  0.9805297E-01
         21   -1    0    0  501  502  0.00000000000E+00  0.00000000000E+00  0.18200289177E+03  0.18200289177E+03  0.00000000000E+00 0. -1.
         13   -1    0    0    0    0 -0.00000000000E+00 -0.00000000000E+00 -0.10000000000E+04  0.10000000000E+04  0.00000000000E+00 0.  1.
    9000005    2    1    2  501    0  0.15103745473E+02 -0.15311531698E+02 -0.89243407033E+03  0.11045211039E+04  0.65043503354E+03 0.  0.
         13    1    3    3    0    0  0.37599254719E+01  0.10440689298E+03 -0.96061721859E+03  0.96628172754E+03  0.00000000000E+00 0.  1.
          1    1    3    3  501    0  0.11343820001E+02 -0.11971842468E+03  0.68183148255E+02  0.13823937632E+03  0.00000000000E+00 0.  1.
         -3    1    1    2    0  502 -0.15103745473E+02  0.15311531698E+02  0.74436962098E+02  0.77481787902E+02  0.00000000000E+00 0. -1.
<mgrwt>
<rscale>  1 0.65079052E+03</rscale>
<asrwt>0</asrwt>
<pdfrwt beam="1">  1       21 0.28000444E-01 0.65079052E+03</pdfrwt>
<pdfrwt beam="2">0</pdfrwt>
<totfact> 0.11643735E+03</totfact>
</mgrwt>
</event>
<event>
 6    1  0.1386179E-004  0.6347546E+03  0.7818608E-02  0.9835814E-01
         21   -1    0    0  501  502  0.00000000000E+00  0.00000000000E+00  0.26489393248E+03  0.26489393248E+03  0.00000000000E+00 0. -1.
         13   -1    0    0    0    0 -0.00000000000E+00 -0.00000000000E+00 -0.10000000000E+04  0.10000000000E+04  0.00000000000E+00 0.  1.
    9000005    2    1    2  501    0 -0.63387745590E+02 -0.62628476313E+01 -0.89244068907E+03  0.10951546834E+04  0.63155060560E+03 0.  0.
         13    1    3    3    0    0  0.22404182852E+03 -0.17090181083E+03 -0.27103123200E+03  0.39097327094E+03  0.00000000000E+00 0.  1.
          3    1    3    3  501    0 -0.28742957411E+03  0.16463896319E+03 -0.62140945707E+03  0.70418141243E+03  0.00000000000E+00 0.  1.
         -1    1    1    2    0  502  0.63387745590E+02  0.62628476313E+01  0.15733462155E+03  0.16973924911E+03  0.00000000000E+00 0. -1.
<mgrwt>
<rscale>  1 0.63475460E+03</rscale>
<asrwt>0</asrwt>
<pdfrwt beam="1">  1       21 0.40752912E-01 0.63475460E+03</pdfrwt>
<pdfrwt beam="2">0</pdfrwt>
<totfact> 0.54396489E+02</totfact>
</mgrwt>
</event>
<event>
 6    1  0.1386179E-004  0.6486919E+03  0.7818608E-02  0.9809237E-01
         21   -1    0    0  501  502  0.00000000000E+00  0.00000000000E+00  0.11763637525E+03  0.11763637525E+03  0.00000000000E+00 0.  1.
         13   -1    0    0    0    0 -0.00000000000E+00 -0.00000000000E+00 -0.10000000000E+04  0.10000000000E+04  0.00000000000E+00 0.  1.
    9000005    2    1    2  501    0  0.21217850780E+02  0.51046609134E+01 -0.88316095397E+03  0.10957985528E+04  0.64832472032E+03 0.  0.
         13    1    3    3    0    0  0.15860902785E+03  0.12832579074E+02  0.38665697741E+02  0.16375754939E+03  0.00000000000E+00 0.  1.
          1    1    3    3  501    0 -0.13739117707E+03 -0.77279181606E+01 -0.92182665171E+03  0.93204100343E+03  0.00000000000E+00 0.  1.
         -1    1    1    2    0  502 -0.21217850780E+02 -0.51046609134E+01  0.79732922506E+00  0.21837822434E+02  0.00000000000E+00 0. -1.
<mgrwt>
<rscale>  1 0.64869191E+03</rscale>
<asrwt>0</asrwt>
<pdfrwt beam="1">  1       21 0.18097903E-01 0.64869191E+03</pdfrwt>
<pdfrwt beam="2">0</pdfrwt>
<totfact> 0.27158685E+03</totfact>
</mgrwt>
</event>
<event>
 6    1  0.1386179E-004  0.7044212E+03  0.7818608E-02  0.9709701E-01
         21   -1    0    0  501  502  0.00000000000E+00  0.00000000000E+00  0.23894537655E+03  0.23894537655E+03  0.00000000000E+00 0.  1.
         13   -1    0    0    0    0 -0.00000000000E+00 -0.00000000000E+00 -0.10000000000E+04  0.10000000000E+04  0.00000000000E+00 0.  1.
    9000005    2    1    2  501    0 -0.10587093481E+03 -0.25027385897E+03 -0.57917617320E+03  0.91195083533E+03  0.64989508932E+03 0.  0.
         13    1    3    3    0    0 -0.30365487603E+02  0.14812816334E+03  0.53575349544E+02  0.16041924352E+03  0.00000000000E+00 0.  1.
          3    1    3    3  501    0 -0.75505447205E+02 -0.39840202232E+03 -0.63275152275E+03  0.75153159181E+03  0.00000000000E+00 0.  1.
         -1    1    1    2    0  502  0.10587093481E+03  0.25027385897E+03 -0.18187845025E+03  0.32699454122E+03  0.00000000000E+00 0. -1.
<mgrwt>
<rscale>  1 0.70442124E+03</rscale>
<asrwt>0</asrwt>
<pdfrwt beam="1">  1       21 0.36760826E-01 0.70442124E+03</pdfrwt>
<pdfrwt beam="2">0</pdfrwt>
<totfact> 0.66959916E+02</totfact>
</mgrwt>
</event>
<event>
 6    1  0.1386179E-004  0.7947682E+03  0.7818608E-02  0.9567621E-01
         21   -1    0    0  501  502  0.00000000000E+00  0.00000000000E+00  0.10000241254E+04  0.10000241254E+04  0.00000000000E+00 0. -1.
         13   -1    0    0    0    0 -0.00000000000E+00 -0.00000000000E+00 -0.10000000000E+04  0.10000000000E+04  0.00000000000E+00 0.  1.
    9000005    2    1    2  501    0 -0.33630703911E+02 -0.46230974647E+03 -0.76655196604E+03  0.11042003537E+04  0.64559676162E+03 0.  0.
         13    1    3    3    0    0  0.22426621401E+03 -0.21953383833E+03 -0.66564395143E+03  0.73591596734E+03  0.00000000000E+00 0.  1.
          3    1    3    3  501    0 -0.25789691792E+03 -0.24277590814E+03 -0.10090801461E+03  0.36828438639E+03  0.00000000000E+00 0.  1.
         -3    1    1    2    0  502  0.33630703911E+02  0.46230974647E+03  0.76657609145E+03  0.89582377168E+03  0.00000000000E+00 0. -1.
<mgrwt>
<rscale>  1 0.79476821E+03</rscale>
<asrwt>0</asrwt>
<pdfrwt beam="1">  1       21 0.15384986E+00 0.79476821E+03</pdfrwt>
<pdfrwt beam="2">0</pdfrwt>
<totfact> 0.23080573E+01</totfact>
</mgrwt>
</event>
<event>
 6    1  0.1386179E-004  0.6267898E+03  0.7818608E-02  0.9851333E-01
         21   -1    0    0  501  502  0.00000000000E+00  0.00000000000E+00  0.11991488225E+03  0.11991488225E+03  0.00000000000E+00 0.  1.
         13   -1    0    0    0    0 -0.00000000000E+00 -0.00000000000E+00 -0.10000000000E+04  0.10000000000E+04  0.00000000000E+00 0.  1.
    9000005    2    1    2  501    0  0.89882782305E+00 -0.60125842798E+02 -0.83818988704E+03  0.10466268531E+04  0.62389867606E+03 0.  0.
         13    1    3    3    0    0  0.28028728198E+03  0.20826328188E+02 -0.62716332264E+03  0.68726161660E+03  0.00000000000E+00 0.  1.
          1    1    3    3  501    0 -0.27938845416E+03 -0.80952170986E+02 -0.21102656440E+03  0.35936523648E+03  0.00000000000E+00 0.  1.
         -1    1    1    2    0  502 -0.89882782305E+00  0.60125842798E+02 -0.41895230710E+02  0.73288029171E+02  0.00000000000E+00 0. -1.
<mgrwt>
<rscale>  1 0.62678982E+03</rscale>
<asrwt>0</asrwt>
<pdfrwt beam="1">  1       21 0.18448443E-01 0.62678982E+03</pdfrwt>
<pdfrwt beam="2">0</pdfrwt>
<totfact> 0.26206839E+03</totfact>
</mgrwt>
</event>
<event>
 6    1  0.1386179E-004  0.6452212E+03  0.7818608E-02  0.9815788E-01
         21   -1    0    0  501  502  0.00000000000E+00  0.00000000000E+00  0.21973583065E+03  0.21973583065E+03  0.00000000000E+00 0.  1.
         13   -1    0    0    0    0 -0.00000000000E+00 -0.00000000000E+00 -0.10000000000E+04  0.10000000000E+04  0.00000000000E+00 0.  1.
    9000005    2    1    2  501    0  0.58851464265E+02  0.79937815375E+02 -0.87187685486E+03  0.10846564713E+04  0.63753969410E+03 0.  0.
         13    1    3    3    0    0  0.14300451847E+03  0.77838657580E+02  0.41005963478E+02  0.16790067885E+03  0.00000000000E+00 0.  1.
          1    1    3    3  501    0 -0.84153054210E+02  0.20991577954E+01 -0.91288281834E+03  0.91675579246E+03  0.00000000000E+00 0.  1.
         -1    1    1    2    0  502 -0.58851464265E+02 -0.79937815375E+02  0.91612685511E+02  0.13507935934E+03  0.00000000000E+00 0. -1.
<mgrwt>
<rscale>  1 0.64522121E+03</rscale>
<asrwt>0</asrwt>
<pdfrwt beam="1">  1       21 0.33805511E-01 0.64522121E+03</pdfrwt>
<pdfrwt beam="2">0</pdfrwt>
<totfact> 0.79792607E+02</totfact>
</mgrwt>
</event>
<event>
 6    1  0.1386179E-004  0.6567272E+03  0.7818608E-02  0.9794237E-01
         21   -1    0    0  501  502  0.00000000000E+00  0.00000000000E+00  0.12192127094E+03  0.12192127094E+03  0.00000000000E+00 0.  1.
         13   -1    0    0    0    0 -0.00000000000E+00 -0.00000000000E+00 -0.10000000000E+04  0.10000000000E+04  0.00000000000E+00 0.  1.
    9000005    2    1    2  501    0 -0.18814546006E+02  0.75378792425E+01 -0.88358840538E+03  0.11009173832E+04  0.65641435683E+03 0.  0.
         13    1    3    3    0    0 -0.27239782721E+03 -0.12451739134E+01 -0.78115138292E+03  0.82728447934E+03  0.00000000000E+00 0.  1.
          1    1    3    3  501    0  0.25358328120E+03  0.87830531559E+01 -0.10243702246E+03  0.27363290391E+03  0.00000000000E+00 0.  1.
         -1    1    1    2    0  502  0.18814546006E+02 -0.75378792425E+01  0.55096763185E+01  0.21003887688E+02  0.00000000000E+00 0. -1.
<mgrwt>
<rscale>  1 0.65672720E+03</rscale>
<asrwt>0</asrwt>
<pdfrwt beam="1">  1       21 0.18757118E-01 0.65672720E+03</pdfrwt>
<pdfrwt beam="2">0</pdfrwt>
<totfact> 0.25365324E+03</totfact>
</mgrwt>
</event>
<event>
 6    1  0.1386179E-004  0.7154216E+03  0.7818608E-02  0.9691217E-01
         21   -1    0    0  501  502  0.00000000000E+00  0.00000000000E+00  0.39806765292E+03  0.39806765292E+03  0.00000000000E+00 0. -1.
         13   -1    0    0    0    0 -0.00000000000E+00 -0.00000000000E+00 -0.10000000000E+04  0.10000000000E+04  0.00000000000E+00 0.  1.
    9000005    2    1    2  501    0 -0.27631965644E+03  0.94606062409E+02 -0.77808037351E+03  0.10569943664E+04  0.65308893982E+03 0.  0.
         13    1    3    3    0    0 -0.30235062699E+03  0.13071697265E+03 -0.56700232253E+02  0.33424204540E+03  0.00000000000E+00 0.  1.
          1    1    3    3  501    0  0.26030970544E+02 -0.36110910239E+02 -0.72138014126E+03  0.72275232097E+03  0.00000000000E+00 0.  1.
         -3    1    1    2    0  502  0.27631965644E+03 -0.94606062409E+02  0.17614802644E+03  0.34107328655E+03  0.00000000000E+00 0. -1.
<mgrwt>
<rscale>  1 0.71542157E+03</rscale>
<asrwt>0</asrwt>
<pdfrwt beam="1">  1       21 0.61241176E-01 0.71542157E+03</pdfrwt>
<pdfrwt beam="2">0</pdfrwt>
<totfact> 0.22517220E+02</totfact>
</mgrwt>
</event>
<event>
 6    1  0.1386179E-004  0.6890216E+03  0.7818608E-02  0.9736193E-01
         21   -1    0    0  501  502  0.00000000000E+00  0.00000000000E+00  0.62572940589E+03  0.62572940589E+03  0.00000000000E+00 0. -1.
         13   -1    0    0    0    0 -0.00000000000E+00 -0.00000000000E+00 -0.10000000000E+04  0.10000000000E+04  0.00000000000E+00 0.  1.
    9000005    2    1    2  501    0  0.16830300230E+03 -0.20539790656E+03 -0.84193346297E+03  0.10879350590E+04  0.63579598615E+03 0.  0.
         13    1    3    3    0    0  0.13644077689E+03  0.11739271559E+02  0.67301639286E+02  0.15258901253E+03  0.00000000000E+00 0.  1.
          3    1    3    3  501    0  0.31862225412E+02 -0.21713717812E+03 -0.90923510226E+03  0.93534604650E+03  0.00000000000E+00 0.  1.
         -3    1    1    2    0  502 -0.16830300230E+03  0.20539790656E+03  0.46766286886E+03  0.53779434686E+03  0.00000000000E+00 0. -1.
<mgrwt>
<rscale>  1 0.68902158E+03</rscale>
<asrwt>0</asrwt>
<pdfrwt beam="1">  1       21 0.96266060E-01 0.68902158E+03</pdfrwt>
<pdfrwt beam="2">0</pdfrwt>
<totfact> 0.79133085E+01</totfact>
</mgrwt>
</event>
<event>
 6    1  0.1386179E-004  0.6441014E+03  0.7818608E-02  0.9817911E-01
         21   -1    0    0  501  502  0.00000000000E+00  0.00000000000E+00  0.12989935928E+03  0.12989935928E+03  0.00000000000E+00 0.  1.
         13   -1    0    0    0    0 -0.00000000000E+00 -0.00000000000E+00 -0.10000000000E+04  0.10000000000E+04  0.00000000000E+00 0.  1.
    9000005    2    1    2  501    0 -0.19926039152E+02 -0.65408712756E+02 -0.83010000003E+03  0.10506819496E+04  0.64046171036E+03 0.  0.
         13    1    3    3    0    0  0.18792164381E+03 -0.22066318947E+02 -0.81627035842E+03  0.83791333960E+03  0.00000000000E+00 0.  1.
          3    1    3    3  501    0 -0.20784768296E+03 -0.43342393809E+02 -0.13829641607E+02  0.21276861000E+03  0.00000000000E+00 0.  1.
         -1    1    1    2    0  502  0.19926039152E+02  0.65408712756E+02 -0.40000640691E+02  0.79217409680E+02  0.00000000000E+00 0. -1.
<mgrwt>
<rscale>  1 0.64410135E+03</rscale>
<asrwt>0</asrwt>
<pdfrwt beam="1">  1       21 0.19984516E-01 0.64410135E+03</pdfrwt>
<pdfrwt beam="2">0</pdfrwt>
<totfact> 0.22481098E+03</totfact>
</mgrwt>
</event>
<event>
 6    1  0.1386179E-004  0.6613379E+03  0.7818608E-02  0.9785734E-01
         21   -1    0    0  501  502  0.00000000000E+00  0.00000000000E+00  0.19981998823E+03  0.19981998823E+03  0.00000000000E+00 0.  1.
         13   -1    0    0    0    0 -0.00000000000E+00 -0.00000000000E+00 -0.10000000000E+04  0.10000000000E+04  0.00000000000E+00 0.  1.
    9000005    2    1    2  501    0  0.39033912234E+02 -0.10581406073E+03 -0.84962313918E+03  0.10766742023E+04  0.65164990404E+03 0.  0.
         13    1    3    3    0    0  0.16460507065E+03  0.23587861396E+03 -0.46755097367E+03  0.54894213064E+03  0.00000000000E+00 0.  1.
          3    1    3    3  501    0 -0.12557115841E+03 -0.34169267469E+03 -0.38207216551E+03  0.52773207163E+03  0.00000000000E+00 0.  1.
         -3    1    1    2    0  502 -0.39033912234E+02  0.10581406073E+03  0.49443127408E+02  0.12314578596E+03  0.00000000000E+00 0. -1.
<mgrwt>
<rscale>  1 0.66133793E+03</rscale>
<asrwt>0</asrwt>
<pdfrwt beam="1">  1       21 0.30741536E-01 0.66133793E+03</pdfrwt>
<pdfrwt beam="2">0</pdfrwt>
<totfact> 0.96561617E+02</totfact>
</mgrwt>
</event>
<event>
 6    1  0.1386179E-004  0.6603078E+03  0.7818608E-02  0.9787627E-01
         21   -1    0    0  501  502  0.00000000000E+00  0.00000000000E+00  0.15781312419E+03  0.15781312419E+03  0.00000000000E+00 0. -1.
         13   -1    0    0    0    0 -0.00000000000E+00 -0.00000000000E+00 -0.10000000000E+04  0.10000000000E+04  0.00000000000E+00 0.  1.
    9000005    2    1    2  501    0  0.42526442686E+02 -0.89598190125E+02 -0.82573143942E+03  0.10572789738E+04  0.65281703750E+03 0.  0.
         13    1    3    3    0    0  0.28611188724E+02 -0.32848248801E+02 -0.93359230521E+03  0.93460804614E+03  0.00000000000E+00 0.  1.
          3    1    3    3  501    0  0.13915253962E+02 -0.56749941324E+02  0.10786086578E+03  0.12267092769E+03  0.00000000000E+00 0.  1.
         -3    1    1    2    0  502 -0.42526442686E+02  0.89598190125E+02 -0.16455436389E+02  0.10053415036E+03  0.00000000000E+00 0. -1.
<mgrwt>
<rscale>  1 0.66030782E+03</rscale>
<asrwt>0</asrwt>
<pdfrwt beam="1">  1       21 0.24278941E-01 0.66030782E+03</pdfrwt>
<pdfrwt beam="2">0</pdfrwt>
<totfact> 0.15412264E+03</totfact>
</mgrwt>
</event>
<event>
 6    1  0.1386179E-004  0.5154815E+03  0.7818608E-02  0.1009815E+00
         21   -1    0    0  501  502  0.00000000000E+00  0.00000000000E+00  0.84066996150E+02  0.84066996150E+02  0.00000000000E+00 0.  1.
         13   -1    0    0    0    0 -0.00000000000E+00 -0.00000000000E+00 -0.10000000000E+04  0.10000000000E+04  0.00000000000E+00 0.  1.
    9000005    2    1    2  501    0 -0.57364705960E+01 -0.24154284309E+02 -0.92391546834E+03  0.10579891073E+04  0.51488330917E+03 0.  0.
         13    1    3    3    0    0  0.19634378477E+03  0.62326393436E+02 -0.15369191586E+03  0.25701491423E+03  0.00000000000E+00 0.  1.
          1    1    3    3  501    0 -0.20208025536E+03 -0.86480677745E+02 -0.77022355248E+03  0.80097419311E+03  0.00000000000E+00 0.  1.
         -3    1    1    2    0  502  0.57364705960E+01  0.24154284309E+02  0.79824644950E+01  0.26077888810E+02  0.00000000000E+00 0. -1.
<mgrwt>
<rscale>  1 0.51548148E+03</rscale>
<asrwt>0</asrwt>
<pdfrwt beam="1">  1       21 0.12933384E-01 0.51548148E+03</pdfrwt>
<pdfrwt beam="2">0</pdfrwt>
<totfact> 0.51046214E+03</totfact>
</mgrwt>
</event>
<event>
 6    1  0.1386179E-004  0.6629010E+03  0.7818608E-02  0.9782868E-01
         21   -1    0    0  501  502  0.00000000000E+00  0.00000000000E+00  0.17205209485E+03  0.17205209485E+03  0.00000000000E+00 0.  1.
         13   -1    0    0    0    0 -0.00000000000E+00 -0.00000000000E+00 -0.10000000000E+04  0.10000000000E+04  0.00000000000E+00 0.  1.
    9000005    2    1    2  501    0 -0.25161254607E+02  0.27621935752E+02 -0.88384530741E+03  0.11048168389E+04  0.66184715753E+03 0.  0.
         13    1    3    3    0    0  0.65536106405E+02  0.31338234948E+03 -0.25914073002E+03  0.41189488485E+03  0.00000000000E+00 0.  1.
          1    1    3    3  501    0 -0.90697361012E+02 -0.28576041372E+03 -0.62470457739E+03  0.69292195402E+03  0.00000000000E+00 0.  1.
         -3    1    1    2    0  502  0.25161254607E+02 -0.27621935752E+02  0.55897402262E+02  0.67235255987E+02  0.00000000000E+00 0. -1.
<mgrwt>
<rscale>  1 0.66290099E+03</rscale>
<asrwt>0</asrwt>
<pdfrwt beam="1">  1       21 0.26469552E-01 0.66290099E+03</pdfrwt>
<pdfrwt beam="2">0</pdfrwt>
<totfact> 0.13005668E+03</totfact>
</mgrwt>
</event>
<event>
 6    1  0.1386179E-004  0.6785467E+03  0.7818608E-02  0.9754640E-01
         21   -1    0    0  501  502  0.00000000000E+00  0.00000000000E+00  0.24474808079E+03  0.24474808079E+03  0.00000000000E+00 0. -1.
         13   -1    0    0    0    0 -0.00000000000E+00 -0.00000000000E+00 -0.10000000000E+04  0.10000000000E+04  0.00000000000E+00 0.  1.
    9000005    2    1    2  501    0 -0.61831354601E+02 -0.11857289008E+03 -0.84498244600E+03  0.10837070484E+04  0.66523904428E+03 0.  0.
         13    1    3    3    0    0 -0.12715322069E+03 -0.31608114557E+03 -0.17670019379E+03  0.38379446401E+03  0.00000000000E+00 0.  1.
          1    1    3    3  501    0  0.65321866087E+02  0.19750825549E+03 -0.66828225221E+03  0.69991258440E+03  0.00000000000E+00 0.  1.
         -1    1    1    2    0  502  0.61831354601E+02  0.11857289008E+03  0.89730526792E+02  0.16104103239E+03  0.00000000000E+00 0. -1.
<mgrwt>
<rscale>  1 0.67854671E+03</rscale>
<asrwt>0</asrwt>
<pdfrwt beam="1">  1       21 0.37653550E-01 0.67854671E+03</pdfrwt>
<pdfrwt beam="2">0</pdfrwt>
<totfact> 0.63853429E+02</totfact>
</mgrwt>
</event>
<event>
 6    1  0.1386179E-004  0.6531022E+03  0.7818608E-02  0.9800976E-01
         21   -1    0    0  501  502  0.00000000000E+00  0.00000000000E+00  0.11621179805E+03  0.11621179805E+03  0.00000000000E+00 0.  1.
         13   -1    0    0    0    0 -0.00000000000E+00 -0.00000000000E+00 -0.10000000000E+04  0.10000000000E+04  0.00000000000E+00 0.  1.
    9000005    2    1    2  501    0 -0.21770993908E+02  0.16927772534E+02 -0.85935711069E+03  0.10793688356E+04  0.65251966561E+03 0.  0.
         13    1    3    3    0    0 -0.75244044062E+02  0.11632708208E+02 -0.96120461394E+03  0.96421537839E+03  0.00000000000E+00 0.  1.
          1    1    3    3  501    0  0.53473050153E+02  0.52950643258E+01  0.10184750325E+03  0.11515345725E+03  0.00000000000E+00 0.  1.
         -3    1    1    2    0  502  0.21770993908E+02 -0.16927772534E+02 -0.24431091259E+02  0.36842962405E+02  0.00000000000E+00 0. -1.
<mgrwt>
<rscale>  1 0.65310217E+03</rscale>
<asrwt>0</asrwt>
<pdfrwt beam="1">  1       21 0.17878738E-01 0.65310217E+03</pdfrwt>
<pdfrwt beam="2">0</pdfrwt>
<totfact> 0.27789807E+03</totfact>
</mgrwt>
</event>
<event>
 6    1  0.1386179E-004  0.6376067E+03  0.7818608E-02  0.9830316E-01
         21   -1    0    0  501  502  0.00000000000E+00  0.00000000000E+00  0.16381056318E+03  0.16381056318E+03  0.00000000000E+00 0. -1.
         13   -1    0    0    0    0 -0.00000000000E+00 -0.00000000000E+00 -0.10000000000E+04  0.10000000000E+04  0.00000000000E+00 0.  1.
    9000005    2    1    2  501    0 -0.11384787129E+03 -0.69841587127E+01 -0.83389536652E+03  0.10497255991E+04  0.62732147645E+03 0.  0.
         13    1    3    3    0    0  0.19756877380E+03  0.16711377894E+03 -0.21982822848E+03  0.33953628014E+03  0.00000000000E+00 0.  1.
          1    1    3    3  501    0 -0.31141664509E+03 -0.17409793765E+03 -0.61406713804E+03  0.71018931896E+03  0.00000000000E+00 0.  1.
         -3    1    1    2    0  502  0.11384787129E+03  0.69841587127E+01 -0.22940702981E+01  0.11408496408E+03  0.00000000000E+00 0. -1.
<mgrwt>
<rscale>  1 0.63760674E+03</rscale>
<asrwt>0</asrwt>
<pdfrwt beam="1">  1       21 0.25201624E-01 0.63760674E+03</pdfrwt>
<pdfrwt beam="2">0</pdfrwt>
<totfact> 0.14343572E+03</totfact>
</mgrwt>
</event>
<event>
 6    1  0.1386179E-004  0.6447389E+03  0.7818608E-02  0.9816702E-01
         21   -1    0    0  501  502  0.00000000000E+00  0.00000000000E+00  0.12810523073E+03  0.12810523073E+03  0.00000000000E+00 0.  1.
         13   -1    0    0    0    0 -0.00000000000E+00 -0.00000000000E+00 -0.10000000000E+04  0.10000000000E+04  0.00000000000E+00 0.  1.
    9000005    2    1    2  501    0  0.19011509453E+02 -0.66409027388E+01 -0.89136107939E+03  0.11000967265E+04  0.64442431259E+03 0.  0.
         13    1    3    3    0    0  0.27872809085E+03  0.13461909265E+03 -0.64434959524E+03  0.71484127582E+03  0.00000000000E+00 0.  1.
          1    1    3    3  501    0 -0.25971658140E+03 -0.14125999539E+03 -0.24701148416E+03  0.38525545065E+03  0.00000000000E+00 0.  1.
         -1    1    1    2    0  502 -0.19011509453E+02  0.66409027388E+01  0.19466310124E+02  0.28008504256E+02  0.00000000000E+00 0. -1.
<mgrwt>
<rscale>  1 0.64473889E+03</rscale>
<asrwt>0</asrwt>
<pdfrwt beam="1">  1       21 0.19708496E-01 0.64473889E+03</pdfrwt>
<pdfrwt beam="2">0</pdfrwt>
<totfact> 0.23087610E+03</totfact>
</mgrwt>
</event>
<event>
 6    1  0.1386179E-004  0.6543391E+03  0.7818608E-02  0.9798671E-01
         21   -1    0    0  501  502  0.00000000000E+00  0.00000000000E+00  0.11907824624E+03  0.11907824624E+03  0.00000000000E+00 0.  1.
         13   -1    0    0    0    0 -0.00000000000E+00 -0.00000000000E+00 -0.10000000000E+04  0.10000000000E+04  0.00000000000E+00 0.  1.
    9000005    2    1    2  501    0  0.24204397441E+02  0.16706433299E+02 -0.86786779011E+03  0.10869011778E+04  0.65367783451E+03 0.  0.
         13    1    3    3    0    0  0.41825588084E+02  0.11715799244E+02 -0.97613247299E+03  0.97709838021E+03  0.00000000000E+00 0.  1.
          3    1    3    3  501    0 -0.17621190643E+02  0.49906340547E+01  0.10826468289E+03  0.10980279755E+03  0.00000000000E+00 0.  1.
         -1    1    1    2    0  502 -0.24204397441E+02 -0.16706433299E+02 -0.13053963656E+02  0.32177068483E+02  0.00000000000E+00 0. -1.
<mgrwt>
<rscale>  1 0.65433911E+03</rscale>
<asrwt>0</asrwt>
<pdfrwt beam="1">  1       21 0.18319730E-01 0.65433911E+03</pdfrwt>
<pdfrwt beam="2">0</pdfrwt>
<totfact> 0.26532339E+03</totfact>
</mgrwt>
</event>
<event>
 6    1  0.1386179E-004  0.6858479E+03  0.7818608E-02  0.9741745E-01
         21   -1    0    0  501  502  0.00000000000E+00  0.00000000000E+00  0.28483611112E+03  0.28483611112E+03  0.00000000000E+00 0. -1.
         13   -1    0    0    0    0 -0.00000000000E+00 -0.00000000000E+00 -0.10000000000E+04  0.10000000000E+04  0.00000000000E+00 0.  1.
    9000005    2    1    2  501    0 -0.18724004570E+03 -0.12721031895E+03 -0.79022773189E+03  0.10463494648E+04  0.64741488569E+03 0.  0.
         13    1    3    3    0    0  0.27748171132E+02  0.18239788079E+03 -0.15934517003E+02  0.18518330581E+03  0.00000000000E+00 0.  1.
          1    1    3    3  501    0 -0.21498821683E+03 -0.30960819974E+03 -0.77429321489E+03  0.86116615896E+03  0.00000000000E+00 0.  1.
         -3    1    1    2    0  502  0.18724004570E+03  0.12721031895E+03  0.75063843012E+02  0.23848664635E+03  0.00000000000E+00 0. -1.
<mgrwt>
<rscale>  1 0.68584789E+03</rscale>
<asrwt>0</asrwt>
<pdfrwt beam="1">  1       21 0.43820939E-01 0.68584789E+03</pdfrwt>
<pdfrwt beam="2">0</pdfrwt>
<totfact> 0.46531038E+02</totfact>
</mgrwt>
</event>
<event>
 6    1  0.1386179E-004  0.6522200E+03  0.7818608E-02  0.9802622E-01
         21   -1    0    0  501  502  0.00000000000E+00  0.00000000000E+00  0.16425199424E+03  0.16425199424E+03  0.00000000000E+00 0.  1.
         13   -1    0    0    0    0 -0.00000000000E+00 -0.00000000000E+00 -0.10000000000E+04  0.10000000000E+04  0.00000000000E+00 0.  1.
    9000005    2    1    2  501    0 -0.19468279875E+02 -0.16608591026E+02 -0.89050692122E+03  0.11038086485E+04  0.65171780445E+03 0.  0.
         13    1    3    3    0    0  0.17839892029E+03 -0.26437138068E+03 -0.56876856797E+03  0.65208594954E+03  0.00000000000E+00 0.  1.
          1    1    3    3  501    0 -0.19786720016E+03  0.24776278965E+03 -0.32173835325E+03  0.45172269900E+03  0.00000000000E+00 0.  1.
         -3    1    1    2    0  502  0.19468279875E+02  0.16608591026E+02  0.54758915462E+02  0.60443345703E+02  0.00000000000E+00 0. -1.
<mgrwt>
<rscale>  1 0.65222002E+03</rscale>
<asrwt>0</asrwt>
<pdfrwt beam="1">  1       21 0.25269537E-01 0.65222002E+03</pdfrwt>
<pdfrwt beam="2">0</pdfrwt>
<totfact> 0.14256989E+03</totfact>
</mgrwt>
</event>
<event>
 6    1  0.1386179E-004  0.6596646E+03  0.7818608E-02  0.9788811E-01
         21   -1    0    0  501  502  0.00000000000E+00  0.00000000000E+00  0.16603294874E+03  0.16603294874E+03  0.00000000000E+00 0.  1.
         13   -1    0    0    0    0 -0.00000000000E+00 -0.00000000000E+00 -0.10000000000E+04  0.10000000000E+04  0.00000000000E+00 0.  1.
    9000005    2    1    2  501    0  0.10349131448E+03 -0.84243022500E+02 -0.78138070743E+03  0.10226012139E+04  0.64602638773E+03 0.  0.
         13    1    3    3    0    0  0.19544710882E+02 -0.35293225472E+03 -0.29396294991E+03  0.45973621574E+03  0.00000000000E+00 0.  1.
          1    1    3    3  501    0  0.83946603595E+02  0.26868923222E+03 -0.48741775752E+03  0.56286499812E+03  0.00000000000E+00 0.  1.
         -3    1    1    2    0  502 -0.10349131448E+03  0.84243022500E+02 -0.52586343827E+02  0.14343173488E+03  0.00000000000E+00 0. -1.
<mgrwt>
<rscale>  1 0.65966464E+03</rscale>
<asrwt>0</asrwt>
<pdfrwt beam="1">  1       21 0.25543530E-01 0.65966464E+03</pdfrwt>
<pdfrwt beam="2">0</pdfrwt>
<totfact> 0.13952750E+03</totfact>
</mgrwt>
</event>
<event>
 6    1  0.1386179E-004  0.7251730E+03  0.7818608E-02  0.9675126E-01
         21   -1    0    0  501  502  0.00000000000E+00  0.00000000000E+00  0.52690590988E+03  0.52690590988E+03  0.00000000000E+00 0. -1.
         13   -1    0    0    0    0 -0.00000000000E+00 -0.00000000000E+00 -0.10000000000E+04  0.10000000000E+04  0.00000000000E+00 0.  1.
    9000005    2    1    2  501    0  0.22529909700E+03  0.21687894093E+03 -0.79640683176E+03  0.10770978541E+04  0.65427806591E+03 0.  0.
         13    1    3    3    0    0  0.27476313239E+03  0.24314314909E+03 -0.10251515774E+03  0.38094977023E+03  0.00000000000E+00 0.  1.
          1    1    3    3  501    0 -0.49464035391E+02 -0.26264208155E+02 -0.69389167402E+03  0.69614808388E+03  0.00000000000E+00 0.  1.
         -1    1    1    2    0  502 -0.22529909700E+03 -0.21687894093E+03  0.32331274164E+03  0.44980805577E+03  0.00000000000E+00 0. -1.
<mgrwt>
<rscale>  1 0.72517305E+03</rscale>
<asrwt>0</asrwt>
<pdfrwt beam="1">  1       21 0.81062445E-01 0.72517305E+03</pdfrwt>
<pdfrwt beam="2">0</pdfrwt>
<totfact> 0.11869778E+02</totfact>
</mgrwt>
</event>
<event>
 6    1  0.1386179E-004  0.6484830E+03  0.7818608E-02  0.9809630E-01
         21   -1    0    0  501  502  0.00000000000E+00  0.00000000000E+00  0.12178965911E+03  0.12178965911E+03  0.00000000000E+00 0.  1.
         13   -1    0    0    0    0 -0.00000000000E+00 -0.00000000000E+00 -0.10000000000E+04  0.10000000000E+04  0.00000000000E+00 0.  1.
    9000005    2    1    2  501    0 -0.23188193981E+02  0.58708334884E+01 -0.88478345013E+03  0.10969831118E+04  0.64804169221E+03 0.  0.
         13    1    3    3    0    0  0.25245376624E+03  0.18293786412E+03 -0.34019202555E+03  0.46144314977E+03  0.00000000000E+00 0.  1.
          3    1    3    3  501    0 -0.27564196022E+03 -0.17706703063E+03 -0.54459142458E+03  0.63553996200E+03  0.00000000000E+00 0.  1.
         -1    1    1    2    0  502  0.23188193981E+02 -0.58708334884E+01  0.65731092377E+01  0.24806547342E+02  0.00000000000E+00 0. -1.
<mgrwt>
<rscale>  1 0.64848299E+03</rscale>
<asrwt>0</asrwt>
<pdfrwt beam="1">  1       21 0.18736870E-01 0.64848299E+03</pdfrwt>
<pdfrwt beam="2">0</pdfrwt>
<totfact> 0.25425017E+03</totfact>
</mgrwt>
</event>
<event>
 6    1  0.1386179E-004  0.1165484E+04  0.7818608E-02  0.9143617E-01
         21   -1    0    0  501  502  0.00000000000E+00  0.00000000000E+00  0.16097575682E+04  0.16097575682E+04  0.00000000000E+00 0. -1.
         13   -1    0    0    0    0 -0.00000000000E+00 -0.00000000000E+00 -0.10000000000E+04  0.10000000000E+04  0.00000000000E+00 0.  1.
    9000005    2    1    2  501    0  0.59243966168E+03  0.73692127319E+03 -0.39448122272E+03  0.12304340874E+04  0.68140655458E+03 0.  0.
         13    1    3    3    0    0 -0.59346848286E+02  0.44875017330E+03 -0.14277694662E+03  0.47464094106E+03  0.00000000000E+00 0.  1.
          3    1    3    3  501    0  0.65178650996E+03  0.28817109989E+03 -0.25170427610E+03  0.75579314630E+03  0.00000000000E+00 0.  1.
         -3    1    1    2    0  502 -0.59243966168E+03 -0.73692127319E+03  0.10042387909E+04  0.13793234808E+04  0.00000000000E+00 0. -1.
<mgrwt>
<rscale>  1 0.11654839E+04</rscale>
<asrwt>0</asrwt>
<pdfrwt beam="1">  1       21 0.24765500E+00 0.11654839E+04</pdfrwt>
<pdfrwt beam="2">0</pdfrwt>
<totfact> 0.48521273E+00</totfact>
</mgrwt>
</event>
<event>
 6    1  0.1386179E-004  0.6523169E+03  0.7818608E-02  0.9802441E-01
         21   -1    0    0  501  502  0.00000000000E+00  0.00000000000E+00  0.15005027155E+03  0.15005027155E+03  0.00000000000E+00 0.  1.
         13   -1    0    0    0    0 -0.00000000000E+00 -0.00000000000E+00 -0.10000000000E+04  0.10000000000E+04  0.00000000000E+00 0.  1.
    9000005    2    1    2  501    0  0.41560014964E+02  0.36889941253E+02 -0.87308168553E+03  0.10898573314E+04  0.64994559042E+03 0.  0.
         13    1    3    3    0    0  0.18759313383E+03 -0.19133166189E+03 -0.74194150353E+03  0.78884484112E+03  0.00000000000E+00 0.  1.
          1    1    3    3  501    0 -0.14603311887E+03  0.22822160315E+03 -0.13114018201E+03  0.30101249025E+03  0.00000000000E+00 0.  1.
         -3    1    1    2    0  502 -0.41560014964E+02 -0.36889941253E+02  0.23131957089E+02  0.60192940186E+02  0.00000000000E+00 0. -1.
<mgrwt>
<rscale>  1 0.65231693E+03</rscale>
<asrwt>0</asrwt>
<pdfrwt beam="1">  1       21 0.23084657E-01 0.65231693E+03</pdfrwt>
<pdfrwt beam="2">0</pdfrwt>
<totfact> 0.17011606E+03</totfact>
</mgrwt>
</event>
<event>
 6    1  0.1386179E-004  0.6371549E+03  0.7818608E-02  0.9831185E-01
         21   -1    0    0  501  502  0.00000000000E+00  0.00000000000E+00  0.20147479550E+03  0.20147479550E+03  0.00000000000E+00 0.  1.
         13   -1    0    0    0    0 -0.00000000000E+00 -0.00000000000E+00 -0.10000000000E+04  0.10000000000E+04  0.00000000000E+00 0.  1.
    9000005    2    1    2  501    0  0.22827201834E+02 -0.78499302850E+02 -0.87974254954E+03  0.10862381745E+04  0.63188859502E+03 0.  0.
         13    1    3    3    0    0 -0.69378394888E+02 -0.10274013207E+03 -0.95609204775E+03  0.96409589782E+03  0.00000000000E+00 0.  1.
          3    1    3    3  501    0  0.92205596722E+02  0.24240829221E+02  0.76349498212E+02  0.12214227665E+03  0.00000000000E+00 0.  1.
         -1    1    1    2    0  502 -0.22827201834E+02  0.78499302850E+02  0.81217345039E+02  0.11523662103E+03  0.00000000000E+00 0. -1.
<mgrwt>
<rscale>  1 0.63715494E+03</rscale>
<asrwt>0</asrwt>
<pdfrwt beam="1">  1       21 0.30996121E-01 0.63715494E+03</pdfrwt>
<pdfrwt beam="2">0</pdfrwt>
<totfact> 0.95124144E+02</totfact>
</mgrwt>
</event>
<event>
 6    1  0.1386179E-004  0.6591322E+03  0.7818608E-02  0.9789793E-01
         21   -1    0    0  501  502  0.00000000000E+00  0.00000000000E+00  0.12820292872E+03  0.12820292872E+03  0.00000000000E+00 0.  1.
         13   -1    0    0    0    0 -0.00000000000E+00 -0.00000000000E+00 -0.10000000000E+04  0.10000000000E+04  0.00000000000E+00 0.  1.
    9000005    2    1    2  501    0  0.58382705166E+01  0.33109693375E+02 -0.87379922939E+03  0.10945228777E+04  0.65827418253E+03 0.  0.
         13    1    3    3    0    0  0.13860489532E+03  0.76406932217E+02 -0.93045477877E+03  0.94381959698E+03  0.00000000000E+00 0.  1.
          3    1    3    3  501    0 -0.13276662480E+03 -0.43297238842E+02  0.56655549384E+02  0.15070328075E+03  0.00000000000E+00 0.  1.
         -3    1    1    2    0  502 -0.58382705166E+01 -0.33109693375E+02  0.20021581148E+01  0.33680050996E+02  0.00000000000E+00 0. -1.
<mgrwt>
<rscale>  1 0.65913218E+03</rscale>
<asrwt>0</asrwt>
<pdfrwt beam="1">  1       21 0.19723527E-01 0.65913218E+03</pdfrwt>
<pdfrwt beam="2">0</pdfrwt>
<totfact> 0.23041228E+03</totfact>
</mgrwt>
</event>
<event>
 6    1  0.1386179E-004  0.6564760E+03  0.7818608E-02  0.9794703E-01
         21   -1    0    0  501  502  0.00000000000E+00  0.00000000000E+00  0.16774798834E+03  0.16774798834E+03  0.00000000000E+00 0. -1.
         13   -1    0    0    0    0 -0.00000000000E+00 -0.00000000000E+00 -0.10000000000E+04  0.10000000000E+04  0.00000000000E+00 0.  1.
    9000005    2    1    2  501    0 -0.10417842511E+02  0.23272247845E+02 -0.88924389552E+03  0.11053123912E+04  0.65598067614E+03 0.  0.
         13    1    3    3    0    0  0.14468538448E+03 -0.95912410710E+02 -0.89295426310E+03  0.90967047166E+03  0.00000000000E+00 0.  1.
          3    1    3    3  501    0 -0.15510322700E+03  0.11918465856E+03  0.37103675776E+01  0.19564191955E+03  0.00000000000E+00 0.  1.
         -3    1    1    2    0  502  0.10417842511E+02 -0.23272247845E+02  0.56991883863E+02  0.62435597127E+02  0.00000000000E+00 0. -1.
<mgrwt>
<rscale>  1 0.65647603E+03</rscale>
<asrwt>0</asrwt>
<pdfrwt beam="1">  1       21 0.25807382E-01 0.65647603E+03</pdfrwt>
<pdfrwt beam="2">0</pdfrwt>
<totfact> 0.13675970E+03</totfact>
</mgrwt>
</event>
<event>
 6    1  0.1386179E-004  0.7092753E+03  0.7818608E-02  0.9701500E-01
         21   -1    0    0  501  502  0.00000000000E+00  0.00000000000E+00  0.36334159965E+03  0.36334159965E+03  0.00000000000E+00 0. -1.
         13   -1    0    0    0    0 -0.00000000000E+00 -0.00000000000E+00 -0.10000000000E+04  0.10000000000E+04  0.00000000000E+00 0.  1.
    9000005    2    1    2  501    0 -0.20556276772E+03  0.12072281771E+03 -0.80395361307E+03  0.10721067487E+04  0.66801303770E+03 0.  0.
         13    1    3    3    0    0 -0.36522502066E+03 -0.14404361961E+03 -0.37160004157E+03  0.54057790462E+03  0.00000000000E+00 0.  1.
          3    1    3    3  501    0  0.15966225294E+03  0.26476643732E+03 -0.43235357150E+03  0.53152884412E+03  0.00000000000E+00 0.  1.
         -3    1    1    2    0  502  0.20556276772E+03 -0.12072281771E+03  0.16729521272E+03  0.29123485091E+03  0.00000000000E+00 0. -1.
<mgrwt>
<rscale>  1 0.70927531E+03</rscale>
<asrwt>0</asrwt>
<pdfrwt beam="1">  1       21 0.55898706E-01 0.70927531E+03</pdfrwt>
<pdfrwt beam="2">0</pdfrwt>
<totfact> 0.27551506E+02</totfact>
</mgrwt>
</event>
<event>
 6    1  0.1386179E-004  0.5708593E+03  0.7818608E-02  0.9967779E-01
         21   -1    0    0  501  502  0.00000000000E+00  0.00000000000E+00  0.12636306854E+03  0.12636306854E+03  0.00000000000E+00 0.  1.
         13   -1    0    0    0    0 -0.00000000000E+00 -0.00000000000E+00 -0.10000000000E+04  0.10000000000E+04  0.00000000000E+00 0.  1.
    9000005    2    1    2  501    0  0.11609906206E+02  0.46097271889E+02 -0.90457656540E+03  0.10696443825E+04  0.56887660695E+03 0.  0.
         13    1    3    3    0    0 -0.20714749417E+03  0.18449295356E+03 -0.64936514335E+03  0.70613229897E+03  0.00000000000E+00 0.  1.
          1    1    3    3  501    0  0.21875740037E+03 -0.13839568167E+03 -0.25521142205E+03  0.36351208352E+03  0.00000000000E+00 0.  1.
         -1    1    1    2    0  502 -0.11609906206E+02 -0.46097271889E+02  0.30939633946E+02  0.56718686043E+02  0.00000000000E+00 0. -1.
<mgrwt>
<rscale>  1 0.57085930E+03</rscale>
<asrwt>0</asrwt>
<pdfrwt beam="1">  1       21 0.19440472E-01 0.57085930E+03</pdfrwt>
<pdfrwt beam="2">0</pdfrwt>
<totfact> 0.23770465E+03</totfact>
</mgrwt>
</event>
<event>
 6    1  0.1386179E-004  0.6544619E+03  0.7818608E-02  0.9798443E-01
         21   -1    0    0  501  502  0.00000000000E+00  0.00000000000E+00  0.15188656448E+03  0.15188656448E+03  0.00000000000E+00 0. -1.
         13   -1    0    0    0    0 -0.00000000000E+00 -0.00000000000E+00 -0.10000000000E+04  0.10000000000E+04  0.00000000000E+00 0.  1.
    9000005    2    1    2  501    0 -0.63688955385E+02  0.41905451245E+02 -0.85340668227E+03  0.10754642618E+04  0.65000620246E+03 0.  0.
         13    1    3    3    0    0  0.22220836048E+01  0.19627687911E+02  0.10888425028E+03  0.11066148267E+03  0.00000000000E+00 0.  1.
          1    1    3    3  501    0 -0.65911038990E+02  0.22277763333E+02 -0.96229093255E+03  0.96480277916E+03  0.00000000000E+00 0.  1.
         -3    1    1    2    0  502  0.63688955385E+02 -0.41905451245E+02  0.52932467565E+01  0.76422302657E+02  0.00000000000E+00 0. -1.
<mgrwt>
<rscale>  1 0.65446193E+03</rscale>
<asrwt>0</asrwt>
<pdfrwt beam="1">  1       21 0.23367163E-01 0.65446193E+03</pdfrwt>
<pdfrwt beam="2">0</pdfrwt>
<totfact> 0.16612015E+03</totfact>
</mgrwt>
</event>
<event>
 6    1  0.1386179E-004  0.6589167E+03  0.7818608E-02  0.9790190E-01
         21   -1    0    0  501  502  0.00000000000E+00  0.00000000000E+00  0.19377239569E+03  0.19377239569E+03  0.00000000000E+00 0. -1.
         13   -1    0    0    0    0 -0.00000000000E+00 -0.00000000000E+00 -0.10000000000E+04  0.10000000000E+04  0.00000000000E+00 0.  1.
    9000005    2    1    2  501    0 -0.23030346834E+02  0.16841613777E+03 -0.78116048625E+03  0.10219505323E+04  0.63661353491E+03 0.  0.
         13    1    3    3    0    0  0.28087523602E+03 -0.45679508929E+01 -0.49893737247E+03  0.57258210418E+03  0.00000000000E+00 0.  1.
          1    1    3    3  501    0 -0.30390558286E+03  0.17298408866E+03 -0.28222311378E+03  0.44936842810E+03  0.00000000000E+00 0.  1.
         -1    1    1    2    0  502  0.23030346834E+02 -0.16841613777E+03 -0.25067118064E+02  0.17182186341E+03  0.00000000000E+00 0. -1.
<mgrwt>
<rscale>  1 0.65891668E+03</rscale>
<asrwt>0</asrwt>
<pdfrwt beam="1">  1       21 0.29811137E-01 0.65891668E+03</pdfrwt>
<pdfrwt beam="2">0</pdfrwt>
<totfact> 0.10271316E+03</totfact>
</mgrwt>
</event>
<event>
 6    1  0.1386179E-004  0.6836500E+03  0.7818608E-02  0.9745609E-01
         21   -1    0    0  501  502  0.00000000000E+00  0.00000000000E+00  0.13457779651E+03  0.13457779651E+03  0.00000000000E+00 0.  1.
         13   -1    0    0    0    0 -0.00000000000E+00 -0.00000000000E+00 -0.10000000000E+04  0.10000000000E+04  0.00000000000E+00 0.  1.
    9000005    2    1    2  501    0  0.28827479335E+02 -0.35895570554E+02 -0.83599848832E+03  0.10799401670E+04  0.68209806932E+03 0.  0.
         13    1    3    3    0    0 -0.31666868537E+03  0.64996573159E+02 -0.41524151683E+03  0.52624056107E+03  0.00000000000E+00 0.  1.
          3    1    3    3  501    0  0.34549616471E+03 -0.10089214371E+03 -0.42075697149E+03  0.55369960588E+03  0.00000000000E+00 0.  1.
         -3    1    1    2    0  502 -0.28827479335E+02  0.35895570554E+02 -0.29423715162E+02  0.54637629562E+02  0.00000000000E+00 0. -1.
<mgrwt>
<rscale>  1 0.68364998E+03</rscale>
<asrwt>0</asrwt>
<pdfrwt beam="1">  1       21 0.20704276E-01 0.68364998E+03</pdfrwt>
<pdfrwt beam="2">0</pdfrwt>
<totfact> 0.20970836E+03</totfact>
</mgrwt>
</event>
<event>
 6    1  0.1386179E-004  0.6394649E+03  0.7818608E-02  0.9826751E-01
         21   -1    0    0  501  502  0.00000000000E+00  0.00000000000E+00  0.12428999114E+03  0.12428999114E+03  0.00000000000E+00 0.  1.
         13   -1    0    0    0    0 -0.00000000000E+00 -0.00000000000E+00 -0.10000000000E+04  0.10000000000E+04  0.00000000000E+00 0.  1.
    9000005    2    1    2  501    0  0.44435315437E+01  0.29969568226E+02 -0.88567243261E+03  0.10923968903E+04  0.63874673237E+03 0.  0.
         13    1    3    3    0    0 -0.15407204938E+03 -0.20796381612E+02 -0.91088009000E+03  0.92405260902E+03  0.00000000000E+00 0.  1.
          3    1    3    3  501    0  0.15851558092E+03  0.50765949837E+02  0.25207657387E+02  0.16834428131E+03  0.00000000000E+00 0.  1.
         -1    1    1    2    0  502 -0.44435315437E+01 -0.29969568226E+02  0.99624237519E+01  0.31893100809E+02  0.00000000000E+00 0. -1.
<mgrwt>
<rscale>  1 0.63946486E+03</rscale>
<asrwt>0</asrwt>
<pdfrwt beam="1">  1       21 0.19121537E-01 0.63946486E+03</pdfrwt>
<pdfrwt beam="2">0</pdfrwt>
<totfact> 0.24466361E+03</totfact>
</mgrwt>
</event>
<event>
 6    1  0.1386179E-004  0.6590385E+03  0.7818608E-02  0.9789965E-01
         21   -1    0    0  501  502  0.00000000000E+00  0.00000000000E+00  0.14171230171E+03  0.14171230171E+03  0.00000000000E+00 0.  1.
         13   -1    0    0    0    0 -0.00000000000E+00 -0.00000000000E+00 -0.10000000000E+04  0.10000000000E+04  0.00000000000E+00 0.  1.
    9000005    2    1    2  501    0  0.72170354237E+02  0.98645512332E+01 -0.83799105156E+03  0.10660960120E+04  0.65500063733E+03 0.  0.
         13    1    3    3    0    0  0.20074111894E+03 -0.15166015708E+03 -0.56581147639E+02  0.25787443911E+03  0.00000000000E+00 0.  1.
          3    1    3    3  501    0 -0.12857076470E+03  0.16152470831E+03 -0.78140990392E+03  0.80822157289E+03  0.00000000000E+00 0.  1.
         -1    1    1    2    0  502 -0.72170354237E+02 -0.98645512332E+01 -0.20296646728E+02  0.75616289714E+02  0.00000000000E+00 0. -1.
<mgrwt>
<rscale>  1 0.65903847E+03</rscale>
<asrwt>0</asrwt>
<pdfrwt beam="1">  1       21 0.21801892E-01 0.65903847E+03</pdfrwt>
<pdfrwt beam="2">0</pdfrwt>
<totfact> 0.19000394E+03</totfact>
</mgrwt>
</event>
<event>
 6    1  0.1386179E-004  0.6196947E+03  0.7818608E-02  0.9865368E-01
         21   -1    0    0  501  502  0.00000000000E+00  0.00000000000E+00  0.12844899187E+03  0.12844899187E+03  0.00000000000E+00 0. -1.
         13   -1    0    0    0    0 -0.00000000000E+00 -0.00000000000E+00 -0.10000000000E+04  0.10000000000E+04  0.00000000000E+00 0.  1.
    9000005    2    1    2  501    0 -0.77434818732E+02 -0.37633318235E+01 -0.84204935899E+03  0.10454992413E+04  0.61482617604E+03 0.  0.
         13    1    3    3    0    0 -0.20296903413E+03 -0.24571568497E+03 -0.60695808595E+03  0.68554412313E+03  0.00000000000E+00 0.  1.
          1    1    3    3  501    0  0.12553421540E+03  0.24195235315E+03 -0.23509127304E+03  0.35995511816E+03  0.00000000000E+00 0.  1.
         -1    1    1    2    0  502  0.77434818732E+02  0.37633318235E+01 -0.29501649144E+02  0.82949750577E+02  0.00000000000E+00 0. -1.
<mgrwt>
<rscale>  1 0.61969472E+03</rscale>
<asrwt>0</asrwt>
<pdfrwt beam="1">  1       21 0.19761383E-01 0.61969472E+03</pdfrwt>
<pdfrwt beam="2">0</pdfrwt>
<totfact> 0.22992218E+03</totfact>
</mgrwt>
</event>
<event>
 6    1  0.1386179E-004  0.6867851E+03  0.7818608E-02  0.9740102E-01
         21   -1    0    0  501  502  0.00000000000E+00  0.00000000000E+00  0.19966261705E+03  0.19966261705E+03  0.00000000000E+00 0.  1.
         13   -1    0    0    0    0 -0.00000000000E+00 -0.00000000000E+00 -0.10000000000E+04  0.10000000000E+04  0.00000000000E+00 0.  1.
    9000005    2    1    2  501    0 -0.90681808887E+02 -0.86144378689E+02 -0.82366872332E+03  0.10724289899E+04  0.67529973204E+03 0.  0.
         13    1    3    3    0    0 -0.27123911450E+02 -0.31660364684E+02  0.11897877377E+03  0.12607154267E+03  0.00000000000E+00 0.  1.
          3    1    3    3  501    0 -0.63557897438E+02 -0.54484014006E+02 -0.94264749708E+03  0.94635744720E+03  0.00000000000E+00 0.  1.
         -3    1    1    2    0  502  0.90681808887E+02  0.86144378689E+02  0.23331340372E+02  0.12723362718E+03  0.00000000000E+00 0. -1.
<mgrwt>
<rscale>  1 0.68678510E+03</rscale>
<asrwt>0</asrwt>
<pdfrwt beam="1">  1       21 0.30717325E-01 0.68678510E+03</pdfrwt>
<pdfrwt beam="2">0</pdfrwt>
<totfact> 0.96561570E+02</totfact>
</mgrwt>
</event>
<event>
 6    1  0.1386179E-004  0.6580122E+03  0.7818608E-02  0.9791860E-01
         21   -1    0    0  501  502  0.00000000000E+00  0.00000000000E+00  0.15103003245E+03  0.15103003245E+03  0.00000000000E+00 0.  1.
         13   -1    0    0    0    0 -0.00000000000E+00 -0.00000000000E+00 -0.10000000000E+04  0.10000000000E+04  0.00000000000E+00 0.  1.
    9000005    2    1    2  501    0  0.23658919459E+02  0.73852087806E+01 -0.88773873628E+03  0.11050158693E+04  0.65754522415E+03 0.  0.
         13    1    3    3    0    0  0.69502406205E+02 -0.31748084489E+03 -0.37431204911E+03  0.49571582732E+03  0.00000000000E+00 0.  1.
          3    1    3    3  501    0 -0.45843486746E+02  0.32486605367E+03 -0.51342668717E+03  0.60930004202E+03  0.00000000000E+00 0.  1.
         -3    1    1    2    0  502 -0.23658919459E+02 -0.73852087806E+01  0.38768768727E+02  0.46014163116E+02  0.00000000000E+00 0. -1.
<mgrwt>
<rscale>  1 0.65801216E+03</rscale>
<asrwt>0</asrwt>
<pdfrwt beam="1">  1       21 0.23235389E-01 0.65801216E+03</pdfrwt>
<pdfrwt beam="2">0</pdfrwt>
<totfact> 0.16793061E+03</totfact>
</mgrwt>
</event>
<event>
 6    1  0.1386179E-004  0.5561387E+03  0.7818608E-02  0.1000083E+00
         21   -1    0    0  501  502  0.00000000000E+00  0.00000000000E+00  0.12501444967E+03  0.12501444967E+03  0.00000000000E+00 0.  1.
         13   -1    0    0    0    0 -0.00000000000E+00 -0.00000000000E+00 -0.10000000000E+04  0.10000000000E+04  0.00000000000E+00 0.  1.
    9000005    2    1    2  501    0  0.11392690721E+03  0.98757729114E+02 -0.70010916491E+03  0.89411581515E+03  0.53531095531E+03 0.  0.
         13    1    3    3    0    0  0.26645984192E+03  0.20169965066E+03 -0.28189141408E+03  0.43720288856E+03  0.00000000000E+00 0.  1.
          3    1    3    3  501    0 -0.15253293471E+03 -0.10294192155E+03 -0.41821775083E+03  0.45691292660E+03  0.00000000000E+00 0.  1.
         -1    1    1    2    0  502 -0.11392690721E+03 -0.98757729114E+02 -0.17487638542E+03  0.23089863452E+03  0.00000000000E+00 0. -1.
<mgrwt>
<rscale>  1 0.55613870E+03</rscale>
<asrwt>0</asrwt>
<pdfrwt beam="1">  1       21 0.19232992E-01 0.55613870E+03</pdfrwt>
<pdfrwt beam="2">0</pdfrwt>
<totfact> 0.24276668E+03</totfact>
</mgrwt>
</event>
<event>
 6    1  0.1386179E-004  0.6520408E+03  0.7818608E-02  0.9802957E-01
         21   -1    0    0  501  502  0.00000000000E+00  0.00000000000E+00  0.20487448198E+03  0.20487448198E+03  0.00000000000E+00 0. -1.
         13   -1    0    0    0    0 -0.00000000000E+00 -0.00000000000E+00 -0.10000000000E+04  0.10000000000E+04  0.00000000000E+00 0.  1.
    9000005    2    1    2  501    0 -0.62874290601E+02 -0.66653262583E+01 -0.88235780584E+03  0.10971383458E+04  0.64896814204E+03 0.  0.
         13    1    3    3    0    0 -0.33493688537E+03  0.10684939445E+03 -0.40728639678E+03  0.53803505395E+03  0.00000000000E+00 0.  1.
          1    1    3    3  501    0  0.27206259477E+03 -0.11351472070E+03 -0.47507140906E+03  0.55910329189E+03  0.00000000000E+00 0.  1.
         -1    1    1    2    0  502  0.62874290601E+02  0.66653262583E+01  0.87232287820E+02  0.10773613614E+03  0.00000000000E+00 0. -1.
<mgrwt>
<rscale>  1 0.65204084E+03</rscale>
<asrwt>0</asrwt>
<pdfrwt beam="1">  1       21 0.31519150E-01 0.65204084E+03</pdfrwt>
<pdfrwt beam="2">0</pdfrwt>
<totfact> 0.91885899E+02</totfact>
</mgrwt>
</event>
<event>
 6    1  0.1386179E-004  0.6524893E+03  0.7818608E-02  0.9802119E-01
         21   -1    0    0  501  502  0.00000000000E+00  0.00000000000E+00  0.37571545535E+03  0.37571545535E+03  0.00000000000E+00 0. -1.
         13   -1    0    0    0    0 -0.00000000000E+00 -0.00000000000E+00 -0.10000000000E+04  0.10000000000E+04  0.00000000000E+00 0.  1.
    9000005    2    1    2  501    0  0.51226605412E+02 -0.21012675994E+02 -0.89041087029E+03  0.11038902931E+04  0.65013580392E+03 0.  0.
         13    1    3    3    0    0 -0.46368076950E+02  0.11435020041E+03 -0.92522817695E+03  0.93342013387E+03  0.00000000000E+00 0.  1.
          1    1    3    3  501    0  0.97594682362E+02 -0.13536287640E+03  0.34817306659E+02  0.17047015920E+03  0.00000000000E+00 0.  1.
         -1    1    1    2    0  502 -0.51226605412E+02  0.21012675994E+02  0.26612632564E+03  0.27182516229E+03  0.00000000000E+00 0. -1.
<mgrwt>
<rscale>  1 0.65248928E+03</rscale>
<asrwt>0</asrwt>
<pdfrwt beam="1">  1       21 0.57802376E-01 0.65248928E+03</pdfrwt>
<pdfrwt beam="2">0</pdfrwt>
<totfact> 0.25748931E+02</totfact>
</mgrwt>
</event>
<event>
 6    1  0.1386179E-004  0.6433409E+03  0.7818608E-02  0.9819355E-01
         21   -1    0    0  501  502  0.00000000000E+00  0.00000000000E+00  0.11250127654E+03  0.11250127654E+03  0.00000000000E+00 0.  1.
         13   -1    0    0    0    0 -0.00000000000E+00 -0.00000000000E+00 -0.10000000000E+04  0.10000000000E+04  0.00000000000E+00 0.  1.
    9000005    2    1    2  501    0  0.37081051444E+01  0.19728418216E+02 -0.88197554915E+03  0.10916814306E+04  0.64302761696E+03 0.  0.
         13    1    3    3    0    0 -0.25432612097E+03  0.86279378816E+02 -0.74527154109E+03  0.79218405498E+03  0.00000000000E+00 0.  1.
          3    1    3    3  501    0  0.25803422611E+03 -0.66550960600E+02 -0.13670400807E+03  0.29949737566E+03  0.00000000000E+00 0.  1.
         -1    1    1    2    0  502 -0.37081051444E+01 -0.19728418216E+02 -0.55231743047E+01  0.20819845904E+02  0.00000000000E+00 0. -1.
<mgrwt>
<rscale>  1 0.64334087E+03</rscale>
<asrwt>0</asrwt>
<pdfrwt beam="1">  1       21 0.17307888E-01 0.64334087E+03</pdfrwt>
<pdfrwt beam="2">0</pdfrwt>
<totfact> 0.29560231E+03</totfact>
</mgrwt>
</event>
<event>
 6    1  0.1386179E-004  0.6399566E+03  0.7818608E-02  0.9825810E-01
         21   -1    0    0  501  502  0.00000000000E+00  0.00000000000E+00  0.12629819857E+03  0.12629819857E+03  0.00000000000E+00 0.  1.
         13   -1    0    0    0    0 -0.00000000000E+00 -0.00000000000E+00 -0.10000000000E+04  0.10000000000E+04  0.00000000000E+00 0.  1.
    9000005    2    1    2  501    0 -0.61038573206E+02  0.33422279486E+02 -0.80650657076E+03  0.10295616739E+04  0.63616164255E+03 0.  0.
         13    1    3    3    0    0  0.50223874522E+02 -0.12218590590E+03  0.57903378592E+02  0.14423811710E+03  0.00000000000E+00 0.  1.
          3    1    3    3  501    0 -0.11126244773E+03  0.15560818539E+03 -0.86440994935E+03  0.88532355677E+03  0.00000000000E+00 0.  1.
         -3    1    1    2    0  502  0.61038573206E+02 -0.33422279486E+02 -0.67195230675E+02  0.96736524697E+02  0.00000000000E+00 0. -1.
<mgrwt>
<rscale>  1 0.63995655E+03</rscale>
<asrwt>0</asrwt>
<pdfrwt beam="1">  1       21 0.19430492E-01 0.63995655E+03</pdfrwt>
<pdfrwt beam="2">0</pdfrwt>
<totfact> 0.23728100E+03</totfact>
</mgrwt>
</event>
<event>
 6    1  0.1386179E-004  0.6418231E+03  0.7818608E-02  0.9822245E-01
         21   -1    0    0  501  502  0.00000000000E+00  0.00000000000E+00  0.19357218425E+03  0.19357218425E+03  0.00000000000E+00 0.  1.
         13   -1    0    0    0    0 -0.00000000000E+00 -0.00000000000E+00 -0.10000000000E+04  0.10000000000E+04  0.00000000000E+00 0.  1.
    9000005    2    1    2  501    0  0.11442241919E+03 -0.88938115973E+02 -0.82738720827E+03  0.10471420828E+04  0.62524752747E+03 0.  0.
         13    1    3    3    0    0  0.27696750884E+03  0.52546945796E+02 -0.11775931850E+03  0.30551503983E+03  0.00000000000E+00 0.  1.
          1    1    3    3  501    0 -0.16254508966E+03 -0.14148506177E+03 -0.70962788977E+03  0.74162704294E+03  0.00000000000E+00 0.  1.
         -1    1    1    2    0  502 -0.11442241919E+03  0.88938115973E+02  0.20959392522E+02  0.14643010148E+03  0.00000000000E+00 0. -1.
<mgrwt>
<rscale>  1 0.64182314E+03</rscale>
<asrwt>0</asrwt>
<pdfrwt beam="1">  1       21 0.29780335E-01 0.64182314E+03</pdfrwt>
<pdfrwt beam="2">0</pdfrwt>
<totfact> 0.10303581E+03</totfact>
</mgrwt>
</event>
<event>
 6    1  0.1386179E-004  0.6770105E+03  0.7818608E-02  0.9757376E-01
         21   -1    0    0  501  502  0.00000000000E+00  0.00000000000E+00  0.23289813179E+03  0.23289813179E+03  0.00000000000E+00 0. -1.
         13   -1    0    0    0    0 -0.00000000000E+00 -0.00000000000E+00 -0.10000000000E+04  0.10000000000E+04  0.00000000000E+00 0.  1.
    9000005    2    1    2  501    0  0.29717443006E+01 -0.64250596956E+02 -0.87557724294E+03  0.11067875557E+04  0.67394822849E+03 0.  0.
         13    1    3    3    0    0 -0.32787907451E+02  0.30382757284E+03 -0.43430278712E+03  0.53104157257E+03  0.00000000000E+00 0.  1.
          3    1    3    3  501    0  0.35759651752E+02 -0.36807816979E+03 -0.44127445581E+03  0.57574598316E+03  0.00000000000E+00 0.  1.
         -1    1    1    2    0  502 -0.29717443006E+01  0.64250596956E+02  0.10847537472E+03  0.12611057606E+03  0.00000000000E+00 0. -1.
<mgrwt>
<rscale>  1 0.67701048E+03</rscale>
<asrwt>0</asrwt>
<pdfrwt beam="1">  1       21 0.35830481E-01 0.67701048E+03</pdfrwt>
<pdfrwt beam="2">0</pdfrwt>
<totfact> 0.70710645E+02</totfact>
</mgrwt>
</event>
<event>
 6    1  0.1386179E-004  0.6585666E+03  0.7818608E-02  0.9790836E-01
         21   -1    0    0  501  502  0.00000000000E+00  0.00000000000E+00  0.29695281764E+03  0.29695281764E+03  0.00000000000E+00 0.  1.
         13   -1    0    0    0    0 -0.00000000000E+00 -0.00000000000E+00 -0.10000000000E+04  0.10000000000E+04  0.00000000000E+00 0.  1.
    9000005    2    1    2  501    0  0.27620960751E+02 -0.11727952439E+03 -0.86994539522E+03  0.10911072013E+04  0.64745079327E+03 0.  0.
         13    1    3    3    0    0  0.17083083960E+03 -0.33980092615E+03 -0.61846863940E+03  0.72605185979E+03  0.00000000000E+00 0.  1.
          3    1    3    3  501    0 -0.14320987885E+03  0.22252140176E+03 -0.25147675582E+03  0.36505534150E+03  0.00000000000E+00 0.  1.
         -3    1    1    2    0  502 -0.27620960751E+02  0.11727952439E+03  0.16689821287E+03  0.20584561635E+03  0.00000000000E+00 0. -1.
<mgrwt>
<rscale>  1 0.65856658E+03</rscale>
<asrwt>0</asrwt>
<pdfrwt beam="1">  1       21 0.45685048E-01 0.65856658E+03</pdfrwt>
<pdfrwt beam="2">0</pdfrwt>
<totfact> 0.42713526E+02</totfact>
</mgrwt>
</event>
<event>
 6    1  0.1386179E-004  0.7142867E+03  0.7818608E-02  0.9693107E-01
         21   -1    0    0  501  502  0.00000000000E+00  0.00000000000E+00  0.21378461137E+03  0.21378461137E+03  0.00000000000E+00 0.  1.
         13   -1    0    0    0    0 -0.00000000000E+00 -0.00000000000E+00 -0.10000000000E+04  0.10000000000E+04  0.00000000000E+00 0.  1.
    9000005    2    1    2  501    0  0.37127145327E+02 -0.74565717003E+02 -0.84897677148E+03  0.11094895384E+04  0.70941314211E+03 0.  0.
         13    1    3    3    0    0 -0.27434949019E+02 -0.26276267319E+02 -0.96634845364E+03  0.96709485186E+03  0.00000000000E+00 0.  1.
          1    1    3    3  501    0  0.64562094346E+02 -0.48289449683E+02  0.11737168216E+03  0.14239468652E+03  0.00000000000E+00 0.  1.
         -1    1    1    2    0  502 -0.37127145327E+02  0.74565717003E+02  0.62761382846E+02  0.10429507299E+03  0.00000000000E+00 0. -1.
<mgrwt>
<rscale>  1 0.71428669E+03</rscale>
<asrwt>0</asrwt>
<pdfrwt beam="1">  1       21 0.32889939E-01 0.71428669E+03</pdfrwt>
<pdfrwt beam="2">0</pdfrwt>
<totfact> 0.83976476E+02</totfact>
</mgrwt>
</event>
<event>
 6    1  0.1386179E-004  0.6398739E+03  0.7818608E-02  0.9825968E-01
         21   -1    0    0  501  502  0.00000000000E+00  0.00000000000E+00  0.17072274118E+03  0.17072274118E+03  0.00000000000E+00 0. -1.
         13   -1    0    0    0    0 -0.00000000000E+00 -0.00000000000E+00 -0.10000000000E+04  0.10000000000E+04  0.00000000000E+00 0.  1.
    9000005    2    1    2  501    0  0.88332020124E+01  0.18598302098E+02 -0.89592716038E+03  0.11009650773E+04  0.63954257272E+03 0.  0.
         13    1    3    3    0    0  0.14394987831E+03  0.27031980668E+03 -0.25236806756E+03  0.39684254670E+03  0.00000000000E+00 0.  1.
          3    1    3    3  501    0 -0.13511667629E+03 -0.25172150458E+03 -0.64355909282E+03  0.70412253055E+03  0.00000000000E+00 0.  1.
         -1    1    1    2    0  502 -0.88332020124E+01 -0.18598302098E+02  0.66649901556E+02  0.69757663924E+02  0.00000000000E+00 0. -1.
<mgrwt>
<rscale>  1 0.63987391E+03</rscale>
<asrwt>0</asrwt>
<pdfrwt beam="1">  1       21 0.26265036E-01 0.63987391E+03</pdfrwt>
<pdfrwt beam="2">0</pdfrwt>
<totfact> 0.13222829E+03</totfact>
</mgrwt>
</event>
<event>
 6    1  0.1386179E-004  0.6612514E+03  0.7818608E-02  0.9785893E-01
         21   -1    0    0  501  502  0.00000000000E+00  0.00000000000E+00  0.15112364596E+03  0.15112364596E+03  0.00000000000E+00 0.  1.
         13   -1    0    0    0    0 -0.00000000000E+00 -0.00000000000E+00 -0.10000000000E+04  0.10000000000E+04  0.00000000000E+00 0.  1.
    9000005    2    1    2  501    0 -0.64674786946E+02  0.74215354652E+02 -0.80912837611E+03  0.10449603346E+04  0.65388273024E+03 0.  0.
         13    1    3    3    0    0  0.22761687503E+03  0.16337452625E+03 -0.14855340384E+03  0.31712582900E+03  0.00000000000E+00 0.  1.
          3    1    3    3  501    0 -0.29229166198E+03 -0.89159171595E+02 -0.66057497227E+03  0.72783450559E+03  0.00000000000E+00 0.  1.
         -3    1    1    2    0  502  0.64674786946E+02 -0.74215354652E+02 -0.39747977929E+02  0.10616331137E+03  0.00000000000E+00 0. -1.
<mgrwt>
<rscale>  1 0.66125137E+03</rscale>
<asrwt>0</asrwt>
<pdfrwt beam="1">  1       21 0.23249791E-01 0.66125137E+03</pdfrwt>
<pdfrwt beam="2">0</pdfrwt>
<totfact> 0.16770259E+03</totfact>
</mgrwt>
</event>
<event>
 6    1  0.1386179E-004  0.6678677E+03  0.7818608E-02  0.9773818E-01
         21   -1    0    0  501  502  0.00000000000E+00  0.00000000000E+00  0.14725311252E+03  0.14725311252E+03  0.00000000000E+00 0.  1.
         13   -1    0    0    0    0 -0.00000000000E+00 -0.00000000000E+00 -0.10000000000E+04  0.10000000000E+04  0.00000000000E+00 0.  1.
    9000005    2    1    2  501    0  0.23499268299E+00 -0.70117148795E+02 -0.84446696765E+03  0.10766483900E+04  0.66417680354E+03 0.  0.
         13    1    3    3    0    0  0.14508378961E+03  0.21751269831E+03 -0.64958461677E+03  0.70022942974E+03  0.00000000000E+00 0.  1.
          1    1    3    3  501    0 -0.14484879693E+03 -0.28762984711E+03 -0.19488235088E+03  0.37641896021E+03  0.00000000000E+00 0.  1.
         -3    1    1    2    0  502 -0.23499268299E+00  0.70117148795E+02 -0.82799198302E+01  0.70604722569E+02  0.00000000000E+00 0. -1.
<mgrwt>
<rscale>  1 0.66786772E+03</rscale>
<asrwt>0</asrwt>
<pdfrwt beam="1">  1       21 0.22654324E-01 0.66786772E+03</pdfrwt>
<pdfrwt beam="2">0</pdfrwt>
<totfact> 0.17632476E+03</totfact>
</mgrwt>
</event>
<event>
 6    1  0.1386179E-004  0.6618432E+03  0.7818608E-02  0.9784807E-01
         21   -1    0    0  501  502  0.00000000000E+00  0.00000000000E+00  0.23755221662E+03  0.23755221662E+03  0.00000000000E+00 0. -1.
         13   -1    0    0    0    0 -0.00000000000E+00 -0.00000000000E+00 -0.10000000000E+04  0.10000000000E+04  0.00000000000E+00 0.  1.
    9000005    2    1    2  501    0  0.31005739254E+02  0.48397715518E+02 -0.88328933486E+03  0.11037375115E+04  0.65934266551E+03 0.  0.
         13    1    3    3    0    0  0.32773716501E+03 -0.17993520333E+02 -0.61998584397E+03  0.70151112809E+03  0.00000000000E+00 0.  1.
          3    1    3    3  501    0 -0.29673142575E+03  0.66391235852E+02 -0.26330349089E+03  0.40222638345E+03  0.00000000000E+00 0.  1.
         -1    1    1    2    0  502 -0.31005739254E+02 -0.48397715518E+02  0.12084155148E+03  0.13381470509E+03  0.00000000000E+00 0. -1.
<mgrwt>
<rscale>  1 0.66184322E+03</rscale>
<asrwt>0</asrwt>
<pdfrwt beam="1">  1       21 0.36546494E-01 0.66184322E+03</pdfrwt>
<pdfrwt beam="2">0</pdfrwt>
<totfact> 0.67976207E+02</totfact>
</mgrwt>
</event>
<event>
 6    1  0.1386179E-004  0.6378130E+03  0.7818608E-02  0.9829920E-01
         21   -1    0    0  501  502  0.00000000000E+00  0.00000000000E+00  0.15528309191E+03  0.15528309191E+03  0.00000000000E+00 0. -1.
         13   -1    0    0    0    0 -0.00000000000E+00 -0.00000000000E+00 -0.10000000000E+04  0.10000000000E+04  0.00000000000E+00 0.  1.
    9000005    2    1    2  501    0 -0.25921678508E+02 -0.27133712810E+02 -0.89096246969E+03  0.10957278759E+04  0.63670816221E+03 0.  0.
         13    1    3    3    0    0 -0.31023673184E+03 -0.12868185290E+03 -0.46296072951E+03  0.57196021375E+03  0.00000000000E+00 0.  1.
          1    1    3    3  501    0  0.28431505333E+03  0.10154814009E+03 -0.42800174018E+03  0.52376766214E+03  0.00000000000E+00 0.  1.
         -3    1    1    2    0  502  0.25921678508E+02  0.27133712810E+02  0.46245561596E+02  0.59555216017E+02  0.00000000000E+00 0. -1.
<mgrwt>
<rscale>  1 0.63781303E+03</rscale>
<asrwt>0</asrwt>
<pdfrwt beam="1">  1       21 0.23889706E-01 0.63781303E+03</pdfrwt>
<pdfrwt beam="2">0</pdfrwt>
<totfact> 0.15924297E+03</totfact>
</mgrwt>
</event>
<event>
 6    1  0.1386179E-004  0.6565782E+03  0.7818608E-02  0.9794513E-01
         21   -1    0    0  501  502  0.00000000000E+00  0.00000000000E+00  0.16005155253E+03  0.16005155253E+03  0.00000000000E+00 0.  1.
         13   -1    0    0    0    0 -0.00000000000E+00 -0.00000000000E+00 -0.10000000000E+04  0.10000000000E+04  0.00000000000E+00 0.  1.
    9000005    2    1    2  501    0  0.11480084223E+02  0.65349264547E+02 -0.86771257917E+03  0.10881268299E+04  0.65321708435E+03 0.  0.
         13    1    3    3    0    0  0.20058338150E+03  0.10795087610E+03 -0.86476418385E+03  0.89426180632E+03  0.00000000000E+00 0.  1.
          3    1    3    3  501    0 -0.18910329728E+03 -0.42601611555E+02 -0.29483953195E+01  0.19386502362E+03  0.00000000000E+00 0.  1.
         -1    1    1    2    0  502 -0.11480084223E+02 -0.65349264547E+02  0.27764131694E+02  0.71924722588E+02  0.00000000000E+00 0. -1.
<mgrwt>
<rscale>  1 0.65657816E+03</rscale>
<asrwt>0</asrwt>
<pdfrwt beam="1">  1       21 0.24623315E-01 0.65657816E+03</pdfrwt>
<pdfrwt beam="2">0</pdfrwt>
<totfact> 0.14996224E+03</totfact>
</mgrwt>
</event>
<event>
 6    1  0.1386179E-004  0.6456236E+03  0.7818608E-02  0.9815026E-01
         21   -1    0    0  501  502  0.00000000000E+00  0.00000000000E+00  0.11212584724E+03  0.11212584724E+03  0.00000000000E+00 0.  1.
         13   -1    0    0    0    0 -0.00000000000E+00 -0.00000000000E+00 -0.10000000000E+04  0.10000000000E+04  0.00000000000E+00 0.  1.
    9000005    2    1    2  501    0  0.13512007639E+02  0.18297291463E+02 -0.84312063249E+03  0.10619238273E+04  0.64522279015E+03 0.  0.
         13    1    3    3    0    0 -0.11880236106E+03 -0.11709178017E+03 -0.85607395261E+03  0.87217377758E+03  0.00000000000E+00 0.  1.
          1    1    3    3  501    0  0.13231436870E+03  0.13538907163E+03  0.12953320114E+02  0.18975004976E+03  0.00000000000E+00 0.  1.
         -1    1    1    2    0  502 -0.13512007639E+02 -0.18297291463E+02 -0.44753520268E+02  0.50202019896E+02  0.00000000000E+00 0. -1.
<mgrwt>
<rscale>  1 0.64562359E+03</rscale>
<asrwt>0</asrwt>
<pdfrwt beam="1">  1       21 0.17250130E-01 0.64562359E+03</pdfrwt>
<pdfrwt beam="2">0</pdfrwt>
<totfact> 0.29745499E+03</totfact>
</mgrwt>
</event>
<event>
 6    1  0.1386179E-004  0.6529983E+03  0.7818608E-02  0.9801169E-01
         21   -1    0    0  501  502  0.00000000000E+00  0.00000000000E+00  0.12661634115E+03  0.12661634115E+03  0.00000000000E+00 0.  1.
         13   -1    0    0    0    0 -0.00000000000E+00 -0.00000000000E+00 -0.10000000000E+04  0.10000000000E+04  0.00000000000E+00 0.  1.
    9000005    2    1    2  501    0 -0.36350493216E+02  0.38834124999E+02 -0.83944094032E+03  0.10635167709E+04  0.65082822782E+03 0.  0.
         13    1    3    3    0    0 -0.23339907466E+03 -0.11498587391E+03 -0.75673074951E+03  0.80021141363E+03  0.00000000000E+00 0.  1.
          3    1    3    3  501    0  0.19704858144E+03  0.15381999891E+03 -0.82710190804E+02  0.26330535729E+03  0.00000000000E+00 0.  1.
         -3    1    1    2    0  502  0.36350493216E+02 -0.38834124999E+02 -0.33942718538E+02  0.63099570230E+02  0.00000000000E+00 0. -1.
<mgrwt>
<rscale>  1 0.65299834E+03</rscale>
<asrwt>0</asrwt>
<pdfrwt beam="1">  1       21 0.19479437E-01 0.65299834E+03</pdfrwt>
<pdfrwt beam="2">0</pdfrwt>
<totfact> 0.23602561E+03</totfact>
</mgrwt>
</event>
<event>
 6    1  0.1386179E-004  0.6599021E+03  0.7818608E-02  0.9788374E-01
         21   -1    0    0  501  502  0.00000000000E+00  0.00000000000E+00  0.16986290486E+03  0.16986290486E+03  0.00000000000E+00 0.  1.
         13   -1    0    0    0    0 -0.00000000000E+00 -0.00000000000E+00 -0.10000000000E+04  0.10000000000E+04  0.00000000000E+00 0.  1.
    9000005    2    1    2  501    0 -0.35535828401E+01  0.42159122294E+02 -0.88288053152E+03  0.11022471550E+04  0.65854440875E+03 0.  0.
         13    1    3    3    0    0 -0.14773132549E+03 -0.24436822189E+03 -0.20255549493E+03  0.35009870169E+03  0.00000000000E+00 0.  1.
          1    1    3    3  501    0  0.14417774265E+03  0.28652734419E+03 -0.68032503659E+03  0.75214845334E+03  0.00000000000E+00 0.  1.
         -1    1    1    2    0  502  0.35535828401E+01 -0.42159122294E+02  0.52743436382E+02  0.67615749829E+02  0.00000000000E+00 0. -1.
<mgrwt>
<rscale>  1 0.65990208E+03</rscale>
<asrwt>0</asrwt>
<pdfrwt beam="1">  1       21 0.26132754E-01 0.65990208E+03</pdfrwt>
<pdfrwt beam="2">0</pdfrwt>
<totfact> 0.13340342E+03</totfact>
</mgrwt>
</event>
<event>
 6    1  0.1386179E-004  0.6640905E+03  0.7818608E-02  0.9780693E-01
         21   -1    0    0  501  502  0.00000000000E+00  0.00000000000E+00  0.16345806475E+03  0.16345806475E+03  0.00000000000E+00 0.  1.
         13   -1    0    0    0    0 -0.00000000000E+00 -0.00000000000E+00 -0.10000000000E+04  0.10000000000E+04  0.00000000000E+00 0.  1.
    9000005    2    1    2  501    0  0.42807002195E+02  0.10155034590E+03 -0.81476627746E+03  0.10511233352E+04  0.65488263585E+03 0.  0.
         13    1    3    3    0    0 -0.15373377039E+03 -0.20639849354E+03 -0.16503618312E+03  0.30573084900E+03  0.00000000000E+00 0.  1.
          1    1    3    3  501    0  0.19654077259E+03  0.30794883944E+03 -0.64973009435E+03  0.74539248621E+03  0.00000000000E+00 0.  1.
         -3    1    1    2    0  502 -0.42807002195E+02 -0.10155034590E+03 -0.21775657788E+02  0.11233472954E+03  0.00000000000E+00 0. -1.
<mgrwt>
<rscale>  1 0.66409049E+03</rscale>
<asrwt>0</asrwt>
<pdfrwt beam="1">  1       21 0.25147394E-01 0.66409049E+03</pdfrwt>
<pdfrwt beam="2">0</pdfrwt>
<totfact> 0.14384325E+03</totfact>
</mgrwt>
</event>
<event>
 6    1  0.1386179E-004  0.6535051E+03  0.7818608E-02  0.9800224E-01
         21   -1    0    0  501  502  0.00000000000E+00  0.00000000000E+00  0.19853662198E+03  0.19853662198E+03  0.00000000000E+00 0.  1.
         13   -1    0    0    0    0 -0.00000000000E+00 -0.00000000000E+00 -0.10000000000E+04  0.10000000000E+04  0.00000000000E+00 0.  1.
    9000005    2    1    2  501    0 -0.27161307242E+02  0.58696392009E+02 -0.88043243851E+03  0.10964625530E+04  0.65029673863E+03 0.  0.
         13    1    3    3    0    0 -0.10651066979E+03 -0.13048667419E+03 -0.87518396888E+03  0.89124535023E+03  0.00000000000E+00 0.  1.
          1    1    3    3  501    0  0.79349362550E+02  0.18918306620E+03 -0.52484696298E+01  0.20521720276E+03  0.00000000000E+00 0.  1.
         -1    1    1    2    0  502  0.27161307242E+02 -0.58696392009E+02  0.78969060495E+02  0.10207406900E+03  0.00000000000E+00 0. -1.
<mgrwt>
<rscale>  1 0.65350505E+03</rscale>
<asrwt>0</asrwt>
<pdfrwt beam="1">  1       21 0.30544095E-01 0.65350505E+03</pdfrwt>
<pdfrwt beam="2">0</pdfrwt>
<totfact> 0.97867318E+02</totfact>
</mgrwt>
</event>
<event>
 6    1  0.1386179E-004  0.6522777E+03  0.7818608E-02  0.9802515E-01
         21   -1    0    0  501  502  0.00000000000E+00  0.00000000000E+00  0.44083299409E+03  0.44083299409E+03  0.00000000000E+00 0. -1.
         13   -1    0    0    0    0 -0.00000000000E+00 -0.00000000000E+00 -0.10000000000E+04  0.10000000000E+04  0.00000000000E+00 0.  1.
    9000005    2    1    2  501    0  0.23223670014E+02  0.10635561496E+03 -0.88379673173E+03  0.10984365651E+04  0.64312935628E+03 0.  0.
         13    1    3    3    0    0  0.30834753558E+03 -0.50826162065E+02 -0.54714988626E+03  0.63010673658E+03  0.00000000000E+00 0.  1.
          1    1    3    3  501    0 -0.28512386557E+03  0.15718177703E+03 -0.33664684546E+03  0.46832982854E+03  0.00000000000E+00 0.  1.
         -1    1    1    2    0  502 -0.23223670014E+02 -0.10635561496E+03  0.32462972582E+03  0.34239642896E+03  0.00000000000E+00 0. -1.
<mgrwt>
<rscale>  1 0.65227772E+03</rscale>
<asrwt>0</asrwt>
<pdfrwt beam="1">  1       21 0.67820459E-01 0.65227772E+03</pdfrwt>
<pdfrwt beam="2">0</pdfrwt>
<totfact> 0.18039891E+02</totfact>
</mgrwt>
</event>
<event>
 6    1  0.1386179E-004  0.6499868E+03  0.7818608E-02  0.9806804E-01
         21   -1    0    0  501  502  0.00000000000E+00  0.00000000000E+00  0.33839626044E+03  0.33839626044E+03  0.00000000000E+00 0.  1.
         13   -1    0    0    0    0 -0.00000000000E+00 -0.00000000000E+00 -0.10000000000E+04  0.10000000000E+04  0.00000000000E+00 0.  1.
    9000005    2    1    2  501    0  0.28604639232E+02  0.48185494203E+02 -0.89064370677E+03  0.11026010658E+04  0.64756685419E+03 0.  0.
         13    1    3    3    0    0  0.33160970635E+03  0.77225134655E+02 -0.40096434709E+03  0.52602388387E+03  0.00000000000E+00 0.  1.
          1    1    3    3  501    0 -0.30300506712E+03 -0.29039640453E+02 -0.48967935968E+03  0.57657718192E+03  0.00000000000E+00 0.  1.
         -1    1    1    2    0  502 -0.28604639232E+02 -0.48185494203E+02  0.22903996722E+03  0.23579519465E+03  0.00000000000E+00 0. -1.
<mgrwt>
<rscale>  1 0.64998684E+03</rscale>
<asrwt>0</asrwt>
<pdfrwt beam="1">  1       21 0.52060962E-01 0.64998684E+03</pdfrwt>
<pdfrwt beam="2">0</pdfrwt>
<totfact> 0.32337048E+02</totfact>
</mgrwt>
</event>
<event>
 6    1  0.1386179E-004  0.6450723E+03  0.7818608E-02  0.9816070E-01
         21   -1    0    0  501  502  0.00000000000E+00  0.00000000000E+00  0.12194798613E+03  0.12194798613E+03  0.00000000000E+00 0.  1.
         13   -1    0    0    0    0 -0.00000000000E+00 -0.00000000000E+00 -0.10000000000E+04  0.10000000000E+04  0.00000000000E+00 0.  1.
    9000005    2    1    2  501    0  0.15702423289E+02  0.25531792028E+02 -0.88090478570E+03  0.10918385722E+04  0.64437550212E+03 0.  0.
         13    1    3    3    0    0  0.86591304643E+01  0.76860470866E+02  0.90502119057E+02  0.11905102299E+03  0.00000000000E+00 0.  1.
          1    1    3    3  501    0  0.70432928246E+01 -0.51328678838E+02 -0.97140690476E+03  0.97278754919E+03  0.00000000000E+00 0.  1.
         -1    1    1    2    0  502 -0.15702423289E+02 -0.25531792028E+02  0.28527718358E+01  0.30109413951E+02  0.00000000000E+00 0. -1.
<mgrwt>
<rscale>  1 0.64507226E+03</rscale>
<asrwt>0</asrwt>
<pdfrwt beam="1">  1       21 0.18761228E-01 0.64507226E+03</pdfrwt>
<pdfrwt beam="2">0</pdfrwt>
<totfact> 0.25365233E+03</totfact>
</mgrwt>
</event>
<event>
 6    1  0.1386179E-004  0.6479928E+03  0.7818608E-02  0.9810553E-01
         21   -1    0    0  501  502  0.00000000000E+00  0.00000000000E+00  0.13786207791E+03  0.13786207791E+03  0.00000000000E+00 0.  1.
         13   -1    0    0    0    0 -0.00000000000E+00 -0.00000000000E+00 -0.10000000000E+04  0.10000000000E+04  0.00000000000E+00 0.  1.
    9000005    2    1    2  501    0 -0.22933184379E+02  0.34907801425E+01 -0.89044377687E+03  0.11012651121E+04  0.64757749409E+03 0.  0.
         13    1    3    3    0    0 -0.11895425428E+03 -0.28641243880E+03 -0.27620696786E+03  0.41529807224E+03  0.00000000000E+00 0.  1.
          1    1    3    3  501    0  0.96021069903E+02  0.28990321894E+03 -0.61423680902E+03  0.68596703986E+03  0.00000000000E+00 0.  1.
         -3    1    1    2    0  502  0.22933184379E+02 -0.34907801425E+01  0.28305854784E+02  0.36596965814E+02  0.00000000000E+00 0. -1.
<mgrwt>
<rscale>  1 0.64799285E+03</rscale>
<asrwt>0</asrwt>
<pdfrwt beam="1">  1       21 0.21209550E-01 0.64799285E+03</pdfrwt>
<pdfrwt beam="2">0</pdfrwt>
<totfact> 0.20047990E+03</totfact>
</mgrwt>
</event>
<event>
 6    1  0.1386179E-004  0.6183249E+03  0.7818608E-02  0.9868101E-01
         21   -1    0    0  501  502  0.00000000000E+00  0.00000000000E+00  0.21428354952E+03  0.21428354952E+03  0.00000000000E+00 0.  1.
         13   -1    0    0    0    0 -0.00000000000E+00 -0.00000000000E+00 -0.10000000000E+04  0.10000000000E+04  0.00000000000E+00 0.  1.
    9000005    2    1    2  501    0  0.24300206944E+01 -0.58750528415E+02 -0.89638776221E+03  0.10889612896E+04  0.61552265632E+03 0.  0.
         13    1    3    3    0    0  0.28583572958E+03 -0.60101931408E+02 -0.65314527220E+03  0.71548099419E+03  0.00000000000E+00 0.  1.
          3    1    3    3  501    0 -0.28340570888E+03  0.13514029932E+01 -0.24324249001E+03  0.37348029542E+03  0.00000000000E+00 0.  1.
         -3    1    1    2    0  502 -0.24300206944E+01  0.58750528415E+02  0.11067131172E+03  0.12532225991E+03  0.00000000000E+00 0. -1.
<mgrwt>
<rscale>  1 0.61832489E+03</rscale>
<asrwt>0</asrwt>
<pdfrwt beam="1">  1       21 0.32966699E-01 0.61832489E+03</pdfrwt>
<pdfrwt beam="2">0</pdfrwt>
<totfact> 0.84121376E+02</totfact>
</mgrwt>
</event>
<event>
 6    1  0.1386179E-004  0.6494867E+03  0.7818608E-02  0.9807743E-01
         21   -1    0    0  501  502  0.00000000000E+00  0.00000000000E+00  0.24525732606E+03  0.24525732606E+03  0.00000000000E+00 0.  1.
         13   -1    0    0    0    0 -0.00000000000E+00 -0.00000000000E+00 -0.10000000000E+04  0.10000000000E+04  0.00000000000E+00 0.  1.
    9000005    2    1    2  501    0 -0.45221190647E+02 -0.13222576701E+03 -0.85467814668E+03  0.10734559633E+04  0.63427467324E+03 0.  0.
         13    1    3    3    0    0  0.81097626724E+02 -0.34908117675E+03 -0.31042901859E+03  0.47413148873E+03  0.00000000000E+00 0.  1.
          3    1    3    3  501    0 -0.12631881737E+03  0.21685540974E+03 -0.54424912809E+03  0.59932447454E+03  0.00000000000E+00 0.  1.
         -3    1    1    2    0  502  0.45221190647E+02  0.13222576701E+03  0.99935472737E+02  0.17180136279E+03  0.00000000000E+00 0. -1.
<mgrwt>
<rscale>  1 0.64948670E+03</rscale>
<asrwt>0</asrwt>
<pdfrwt beam="1">  1       21 0.37731895E-01 0.64948670E+03</pdfrwt>
<pdfrwt beam="2">0</pdfrwt>
<totfact> 0.63720430E+02</totfact>
</mgrwt>
</event>
<event>
 6    1  0.1386179E-004  0.6691920E+03  0.7818608E-02  0.9771419E-01
         21   -1    0    0  501  502  0.00000000000E+00  0.00000000000E+00  0.28622673698E+03  0.28622673698E+03  0.00000000000E+00 0. -1.
         13   -1    0    0    0    0 -0.00000000000E+00 -0.00000000000E+00 -0.10000000000E+04  0.10000000000E+04  0.00000000000E+00 0.  1.
    9000005    2    1    2  501    0  0.35991542965E+02  0.48435778605E+02 -0.88221411374E+03  0.11073029096E+04  0.66646573452E+03 0.  0.
         13    1    3    3    0    0  0.28800860717E+03  0.16823339763E+03 -0.25187717566E+03  0.41796356958E+03  0.00000000000E+00 0.  1.
          3    1    3    3  501    0 -0.25201706420E+03 -0.11979761903E+03 -0.63033693808E+03  0.68933934001E+03  0.00000000000E+00 0.  1.
         -3    1    1    2    0  502 -0.35991542965E+02 -0.48435778605E+02  0.16844085073E+03  0.17892382739E+03  0.00000000000E+00 0. -1.
<mgrwt>
<rscale>  1 0.66919204E+03</rscale>
<asrwt>0</asrwt>
<pdfrwt beam="1">  1       21 0.44034881E-01 0.66919204E+03</pdfrwt>
<pdfrwt beam="2">0</pdfrwt>
<totfact> 0.46120476E+02</totfact>
</mgrwt>
</event>
<event>
 6    1  0.1386179E-004  0.6100718E+03  0.7818608E-02  0.9884728E-01
         21   -1    0    0  501  502  0.00000000000E+00  0.00000000000E+00  0.10657557168E+03  0.10657557168E+03  0.00000000000E+00 0.  1.
         13   -1    0    0    0    0 -0.00000000000E+00 -0.00000000000E+00 -0.10000000000E+04  0.10000000000E+04  0.00000000000E+00 0.  1.
    9000005    2    1    2  501    0  0.33821299102E+02  0.24726297393E+02 -0.84958317299E+03  0.10459346142E+04  0.60863156284E+03 0.  0.
         13    1    3    3    0    0  0.27185280414E+03  0.74437740084E+02 -0.71378030340E+03  0.76741595357E+03  0.00000000000E+00 0.  1.
          3    1    3    3  501    0 -0.23803150504E+03 -0.49711442692E+02 -0.13580286959E+03  0.27851866062E+03  0.00000000000E+00 0.  1.
         -1    1    1    2    0  502 -0.33821299102E+02 -0.24726297393E+02 -0.43841255334E+02  0.60640957487E+02  0.00000000000E+00 0. -1.
<mgrwt>
<rscale>  1 0.61007184E+03</rscale>
<asrwt>0</asrwt>
<pdfrwt beam="1">  1       21 0.16396241E-01 0.61007184E+03</pdfrwt>
<pdfrwt beam="2">0</pdfrwt>
<totfact> 0.32768482E+03</totfact>
</mgrwt>
</event>
<event>
 6    1  0.1386179E-004  0.6537207E+03  0.7818608E-02  0.9799823E-01
         21   -1    0    0  501  502  0.00000000000E+00  0.00000000000E+00  0.43912704712E+03  0.43912704712E+03  0.00000000000E+00 0. -1.
         13   -1    0    0    0    0 -0.00000000000E+00 -0.00000000000E+00 -0.10000000000E+04  0.10000000000E+04  0.00000000000E+00 0.  1.
    9000005    2    1    2  501    0  0.35788345626E+02  0.36144060745E+01 -0.89208442732E+03  0.11059680604E+04  0.65273030846E+03 0.  0.
         13    1    3    3    0    0  0.24542736911E+03  0.76754033802E+02 -0.83921537684E+03  0.87772901510E+03  0.00000000000E+00 0.  1.
          1    1    3    3  501    0 -0.20963902349E+03 -0.73139627727E+02 -0.52869050482E+02  0.22823904533E+03  0.00000000000E+00 0.  1.
         -3    1    1    2    0  502 -0.35788345626E+02 -0.36144060745E+01  0.33121147445E+03  0.33315898670E+03  0.00000000000E+00 0. -1.
<mgrwt>
<rscale>  1 0.65372068E+03</rscale>
<asrwt>0</asrwt>
<pdfrwt beam="1">  1       21 0.67558005E-01 0.65372068E+03</pdfrwt>
<pdfrwt beam="2">0</pdfrwt>
<totfact> 0.18195390E+02</totfact>
</mgrwt>
</event>
<event>
 6    1  0.1386179E-004  0.6499632E+03  0.7818608E-02  0.9806848E-01
         21   -1    0    0  501  502  0.00000000000E+00  0.00000000000E+00  0.14211224125E+03  0.14211224125E+03  0.00000000000E+00 0.  1.
         13   -1    0    0    0    0 -0.00000000000E+00 -0.00000000000E+00 -0.10000000000E+04  0.10000000000E+04  0.00000000000E+00 0.  1.
    9000005    2    1    2  501    0  0.96324397838E+01 -0.10169970239E+03 -0.76722254880E+03  0.10055260280E+04  0.64188514563E+03 0.  0.
         13    1    3    3    0    0 -0.12814892305E+03  0.15186217089E+03 -0.67335981448E+03  0.70206673841E+03  0.00000000000E+00 0.  1.
          1    1    3    3  501    0  0.13778136283E+03 -0.25356187329E+03 -0.93862734325E+02  0.30345928957E+03  0.00000000000E+00 0.  1.
         -1    1    1    2    0  502 -0.96324397838E+01  0.10169970239E+03 -0.90665209943E+02  0.13658621328E+03  0.00000000000E+00 0. -1.
<mgrwt>
<rscale>  1 0.64996319E+03</rscale>
<asrwt>0</asrwt>
<pdfrwt beam="1">  1       21 0.21863421E-01 0.64996319E+03</pdfrwt>
<pdfrwt beam="2">0</pdfrwt>
<totfact> 0.18904650E+03</totfact>
</mgrwt>
</event>
<event>
 6    1  0.1386179E-004  0.6633631E+03  0.7818608E-02  0.9782022E-01
         21   -1    0    0  501  502  0.00000000000E+00  0.00000000000E+00  0.12481170896E+03  0.12481170896E+03  0.00000000000E+00 0.  1.
         13   -1    0    0    0    0 -0.00000000000E+00 -0.00000000000E+00 -0.10000000000E+04  0.10000000000E+04  0.00000000000E+00 0.  1.
    9000005    2    1    2  501    0 -0.24941774270E+02 -0.34757344725E+02 -0.83108298616E+03  0.10633670751E+04  0.66198220621E+03 0.  0.
         13    1    3    3    0    0  0.23349676399E+03 -0.11640738860E+03 -0.92816767866E+02  0.27692304222E+03  0.00000000000E+00 0.  1.
          1    1    3    3  501    0 -0.25843853826E+03  0.81650043877E+02 -0.73826621829E+03  0.78644403284E+03  0.00000000000E+00 0.  1.
         -1    1    1    2    0  502  0.24941774270E+02  0.34757344725E+02 -0.44105304881E+02  0.61444633897E+02  0.00000000000E+00 0. -1.
<mgrwt>
<rscale>  1 0.66336310E+03</rscale>
<asrwt>0</asrwt>
<pdfrwt beam="1">  1       21 0.19201801E-01 0.66336310E+03</pdfrwt>
<pdfrwt beam="2">0</pdfrwt>
<totfact> 0.24250117E+03</totfact>
</mgrwt>
</event>
<event>
 6    1  0.1386179E-004  0.6746741E+03  0.7818608E-02  0.9761551E-01
         21   -1    0    0  501  502  0.00000000000E+00  0.00000000000E+00  0.16137041796E+03  0.16137041796E+03  0.00000000000E+00 0.  1.
         13   -1    0    0    0    0 -0.00000000000E+00 -0.00000000000E+00 -0.10000000000E+04  0.10000000000E+04  0.00000000000E+00 0.  1.
    9000005    2    1    2  501    0  0.55042314517E+02 -0.39711955369E+02 -0.85733560324E+03  0.10909672148E+04  0.67125139210E+03 0.  0.
         13    1    3    3    0    0  0.21415297560E+02 -0.13936673923E+03  0.70183696651E+02  0.15750382297E+03  0.00000000000E+00 0.  1.
          1    1    3    3  501    0  0.33627016957E+02  0.99654783866E+02 -0.92751929989E+03  0.93346339183E+03  0.00000000000E+00 0.  1.
         -3    1    1    2    0  502 -0.55042314517E+02  0.39711955369E+02  0.18706021192E+02  0.70403203161E+02  0.00000000000E+00 0. -1.
<mgrwt>
<rscale>  1 0.67467409E+03</rscale>
<asrwt>0</asrwt>
<pdfrwt beam="1">  1       21 0.24826217E-01 0.67467409E+03</pdfrwt>
<pdfrwt beam="2">0</pdfrwt>
<totfact> 0.14743660E+03</totfact>
</mgrwt>
</event>
<event>
 6    1  0.1386179E-004  0.6520083E+03  0.7818608E-02  0.9803018E-01
         21   -1    0    0  501  502  0.00000000000E+00  0.00000000000E+00  0.30992626777E+03  0.30992626777E+03  0.00000000000E+00 0.  1.
         13   -1    0    0    0    0 -0.00000000000E+00 -0.00000000000E+00 -0.10000000000E+04  0.10000000000E+04  0.00000000000E+00 0.  1.
    9000005    2    1    2  501    0  0.31171621483E+02 -0.45898149054E-01 -0.89240070522E+03  0.11052121352E+04  0.65126275260E+03 0.  0.
         13    1    3    3    0    0  0.26464541028E+03  0.58488934081E+02 -0.80456063276E+03  0.84898525333E+03  0.00000000000E+00 0.  1.
          1    1    3    3  501    0 -0.23347378880E+03 -0.58534832230E+02 -0.87840072464E+02  0.25622688183E+03  0.00000000000E+00 0.  1.
         -3    1    1    2    0  502 -0.31171621483E+02  0.45898149054E-01  0.20232697299E+03  0.20471413261E+03  0.00000000000E+00 0. -1.
<mgrwt>
<rscale>  1 0.65200832E+03</rscale>
<asrwt>0</asrwt>
<pdfrwt beam="1">  1       21 0.47680963E-01 0.65200832E+03</pdfrwt>
<pdfrwt beam="2">0</pdfrwt>
<totfact> 0.39030559E+02</totfact>
</mgrwt>
</event>
<event>
 6    1  0.1386179E-004  0.6490556E+03  0.7818608E-02  0.9808553E-01
         21   -1    0    0  501  502  0.00000000000E+00  0.00000000000E+00  0.15656422099E+03  0.15656422099E+03  0.00000000000E+00 0.  1.
         13   -1    0    0    0    0 -0.00000000000E+00 -0.00000000000E+00 -0.10000000000E+04  0.10000000000E+04  0.00000000000E+00 0.  1.
    9000005    2    1    2  501    0 -0.11075603519E+02  0.56955086049E+02 -0.87582720425E+03  0.10901130716E+04  0.64645701052E+03 0.  0.
         13    1    3    3    0    0 -0.32610937399E+03  0.57356557205E+02 -0.39720442784E+03  0.51711551510E+03  0.00000000000E+00 0.  1.
          3    1    3    3  501    0  0.31503377047E+03 -0.40147115569E+00 -0.47862277641E+03  0.57299755655E+03  0.00000000000E+00 0.  1.
         -1    1    1    2    0  502  0.11075603519E+02 -0.56955086049E+02  0.32391425245E+02  0.66451149348E+02  0.00000000000E+00 0. -1.
<mgrwt>
<rscale>  1 0.64905563E+03</rscale>
<asrwt>0</asrwt>
<pdfrwt beam="1">  1       21 0.24086803E-01 0.64905563E+03</pdfrwt>
<pdfrwt beam="2">0</pdfrwt>
<totfact> 0.15662156E+03</totfact>
</mgrwt>
</event>
<event>
 6    1  0.1386179E-004  0.6617922E+03  0.7818608E-02  0.9784900E-01
         21   -1    0    0  501  502  0.00000000000E+00  0.00000000000E+00  0.12203777148E+03  0.12203777148E+03  0.00000000000E+00 0.  1.
         13   -1    0    0    0    0 -0.00000000000E+00 -0.00000000000E+00 -0.10000000000E+04  0.10000000000E+04  0.00000000000E+00 0.  1.
    9000005    2    1    2  501    0 -0.31194751416E+02 -0.11195071005E+02 -0.85715400400E+03  0.10829043543E+04  0.66096173256E+03 0.  0.
         13    1    3    3    0    0  0.22562739082E+03  0.16505126471E+03 -0.65342514930E+03  0.71071377165E+03  0.00000000000E+00 0.  1.
          1    1    3    3  501    0 -0.25682214224E+03 -0.17624633571E+03 -0.20372885469E+03  0.37219058267E+03  0.00000000000E+00 0.  1.
         -3    1    1    2    0  502  0.31194751416E+02  0.11195071005E+02 -0.20808224524E+02  0.39133417160E+02  0.00000000000E+00 0. -1.
<mgrwt>
<rscale>  1 0.66179215E+03</rscale>
<asrwt>0</asrwt>
<pdfrwt beam="1">  1       21 0.18775041E-01 0.66179215E+03</pdfrwt>
<pdfrwt beam="2">0</pdfrwt>
<totfact> 0.25314671E+03</totfact>
</mgrwt>
</event>
<event>
 6    1  0.1386179E-004  0.6448784E+03  0.7818608E-02  0.9816437E-01
         21   -1    0    0  501  502  0.00000000000E+00  0.00000000000E+00  0.12305385067E+03  0.12305385067E+03  0.00000000000E+00 0.  1.
         13   -1    0    0    0    0 -0.00000000000E+00 -0.00000000000E+00 -0.10000000000E+04  0.10000000000E+04  0.00000000000E+00 0.  1.
    9000005    2    1    2  501    0  0.26421654771E+02 -0.18117095711E+02 -0.87986446282E+03  0.10908847731E+04  0.64408212385E+03 0.  0.
         13    1    3    3    0    0  0.16302997741E+03 -0.15193284892E+03 -0.87142615533E+03  0.89946979288E+03  0.00000000000E+00 0.  1.
          1    1    3    3  501    0 -0.13660832264E+03  0.13381575321E+03 -0.84383074923E+01  0.19141498023E+03  0.00000000000E+00 0.  1.
         -3    1    1    2    0  502 -0.26421654771E+02  0.18117095711E+02  0.29183134963E+01  0.32169077567E+02  0.00000000000E+00 0. -1.
<mgrwt>
<rscale>  1 0.64487837E+03</rscale>
<asrwt>0</asrwt>
<pdfrwt beam="1">  1       21 0.18931361E-01 0.64487837E+03</pdfrwt>
<pdfrwt beam="2">0</pdfrwt>
<totfact> 0.24932535E+03</totfact>
</mgrwt>
</event>
<event>
 6    1  0.1386179E-004  0.7201624E+03  0.7818608E-02  0.9683360E-01
         21   -1    0    0  501  502  0.00000000000E+00  0.00000000000E+00  0.44228364741E+03  0.44228364741E+03  0.00000000000E+00 0. -1.
         13   -1    0    0    0    0 -0.00000000000E+00 -0.00000000000E+00 -0.10000000000E+04  0.10000000000E+04  0.00000000000E+00 0.  1.
    9000005    2    1    2  501    0 -0.17673676829E+02 -0.10042191685E+03 -0.86090730982E+03  0.11224060508E+04  0.71290744605E+03 0.  0.
         13    1    3    3    0    0  0.61472904160E+01 -0.13967764932E+02  0.12826878024E+03  0.12917340136E+03  0.00000000000E+00 0.  1.
          1    1    3    3  501    0 -0.23820967245E+02 -0.86454151923E+02 -0.98917609005E+03  0.99323264948E+03  0.00000000000E+00 0.  1.
         -3    1    1    2    0  502  0.17673676829E+02  0.10042191685E+03  0.30319095722E+03  0.31987759656E+03  0.00000000000E+00 0. -1.
<mgrwt>
<rscale>  1 0.72016244E+03</rscale>
<asrwt>0</asrwt>
<pdfrwt beam="1">  1       21 0.68043636E-01 0.72016244E+03</pdfrwt>
<pdfrwt beam="2">0</pdfrwt>
<totfact> 0.17771088E+02</totfact>
</mgrwt>
</event>
<event>
 6    1  0.1386179E-004  0.6441859E+03  0.7818608E-02  0.9817751E-01
         21   -1    0    0  501  502  0.00000000000E+00  0.00000000000E+00  0.72322295463E+03  0.72322295463E+03  0.00000000000E+00 0. -1.
         13   -1    0    0    0    0 -0.00000000000E+00 -0.00000000000E+00 -0.10000000000E+04  0.10000000000E+04  0.00000000000E+00 0.  1.
    9000005    2    1    2  501    0  0.29481474748E+02 -0.27662510826E+02 -0.89552801653E+03  0.11031526875E+04  0.64291605338E+03 0.  0.
         13    1    3    3    0    0 -0.28912687128E+03  0.25148897677E+02 -0.25724493678E+03  0.38781667350E+03  0.00000000000E+00 0.  1.
          3    1    3    3  501    0  0.31860834603E+03 -0.52811408503E+02 -0.63828307976E+03  0.71533601400E+03  0.00000000000E+00 0.  1.
         -3    1    1    2    0  502 -0.29481474748E+02  0.27662510826E+02  0.61875097116E+03  0.62007026713E+03  0.00000000000E+00 0. -1.
<mgrwt>
<rscale>  1 0.64418586E+03</rscale>
<asrwt>0</asrwt>
<pdfrwt beam="1">  1       21 0.11126507E+00 0.64418586E+03</pdfrwt>
<pdfrwt beam="2">0</pdfrwt>
<totfact> 0.55668887E+01</totfact>
</mgrwt>
</event>
<event>
 6    1  0.1386179E-004  0.4630251E+03  0.7818608E-02  0.1023908E+00
         21   -1    0    0  501  502  0.00000000000E+00  0.00000000000E+00  0.15163146634E+03  0.15163146634E+03  0.00000000000E+00 0.  1.
         13   -1    0    0    0    0 -0.00000000000E+00 -0.00000000000E+00 -0.10000000000E+04  0.10000000000E+04  0.00000000000E+00 0.  1.
    9000005    2    1    2  501    0 -0.49055604334E+00  0.77137453624E+02 -0.93026436929E+03  0.10391265540E+04  0.45655423683E+03 0.  0.
         13    1    3    3    0    0 -0.18556450517E+03 -0.44677242989E+02 -0.20202939631E+03  0.27793185962E+03  0.00000000000E+00 0.  1.
          3    1    3    3  501    0  0.18507394913E+03  0.12181469661E+03 -0.72823497298E+03  0.76119469443E+03  0.00000000000E+00 0.  1.
         -1    1    1    2    0  502  0.49055604334E+00 -0.77137453624E+02  0.81895835625E+02  0.11250491229E+03  0.00000000000E+00 0. -1.
<mgrwt>
<rscale>  1 0.46302505E+03</rscale>
<asrwt>0</asrwt>
<pdfrwt beam="1">  1       21 0.23327917E-01 0.46302505E+03</pdfrwt>
<pdfrwt beam="2">0</pdfrwt>
<totfact> 0.16845402E+03</totfact>
</mgrwt>
</event>
<event>
 6    1  0.1386179E-004  0.6624335E+03  0.7818608E-02  0.9783724E-01
         21   -1    0    0  501  502  0.00000000000E+00  0.00000000000E+00  0.12856370896E+03  0.12856370896E+03  0.00000000000E+00 0.  1.
         13   -1    0    0    0    0 -0.00000000000E+00 -0.00000000000E+00 -0.10000000000E+04  0.10000000000E+04  0.00000000000E+00 0.  1.
    9000005    2    1    2  501    0  0.37973242915E+02 -0.56063841293E+01 -0.86520257083E+03  0.10896759475E+04  0.66132048460E+03 0.  0.
         13    1    3    3    0    0 -0.91163959514E+01  0.24533609620E+03 -0.78432387183E+03  0.82184964847E+03  0.00000000000E+00 0.  1.
          1    1    3    3  501    0  0.47089638867E+02 -0.25094248032E+03 -0.80878699002E+02  0.26782629907E+03  0.00000000000E+00 0.  1.
         -3    1    1    2    0  502 -0.37973242915E+02  0.56063841293E+01 -0.62337202157E+01  0.38887761420E+02  0.00000000000E+00 0. -1.
<mgrwt>
<rscale>  1 0.66243353E+03</rscale>
<asrwt>0</asrwt>
<pdfrwt beam="1">  1       21 0.19779032E-01 0.66243353E+03</pdfrwt>
<pdfrwt beam="2">0</pdfrwt>
<totfact> 0.22914637E+03</totfact>
</mgrwt>
</event>
<event>
 6    1  0.1386179E-004  0.6733405E+03  0.7818608E-02  0.9763942E-01
         21   -1    0    0  501  502  0.00000000000E+00  0.00000000000E+00  0.18715247788E+03  0.18715247788E+03  0.00000000000E+00 0.  1.
         13   -1    0    0    0    0 -0.00000000000E+00 -0.00000000000E+00 -0.10000000000E+04  0.10000000000E+04  0.00000000000E+00 0.  1.
    9000005    2    1    2  501    0  0.13532454829E+03 -0.10101048910E+03 -0.74757717629E+03  0.10061108519E+04  0.65182172380E+03 0.  0.
         13    1    3    3    0    0  0.32396648129E+03 -0.78489248669E+02 -0.74493095832E+03  0.81611088451E+03  0.00000000000E+00 0.  1.
          3    1    3    3  501    0 -0.18864193300E+03 -0.22521240428E+02 -0.26462179741E+01  0.18999996744E+03  0.00000000000E+00 0.  1.
         -1    1    1    2    0  502 -0.13532454829E+03  0.10101048910E+03 -0.65270345824E+02  0.18104162593E+03  0.00000000000E+00 0. -1.
<mgrwt>
<rscale>  1 0.67334049E+03</rscale>
<asrwt>0</asrwt>
<pdfrwt beam="1">  1       21 0.28792688E-01 0.67334049E+03</pdfrwt>
<pdfrwt beam="2">0</pdfrwt>
<totfact> 0.11000282E+03</totfact>
</mgrwt>
</event>
<event>
 6    1  0.1386179E-004  0.6778438E+03  0.7818608E-02  0.9755891E-01
         21   -1    0    0  501  502  0.00000000000E+00  0.00000000000E+00  0.25612143505E+03  0.25612143505E+03  0.00000000000E+00 0. -1.
         13   -1    0    0    0    0 -0.00000000000E+00 -0.00000000000E+00 -0.10000000000E+04  0.10000000000E+04  0.00000000000E+00 0.  1.
    9000005    2    1    2  501    0  0.93583135630E+02  0.13735948421E+02 -0.86721167081E+03  0.11006944922E+04  0.67121218976E+03 0.  0.
         13    1    3    3    0    0 -0.35082110751E+02  0.20091962057E+03 -0.84863027219E+03  0.87279595972E+03  0.00000000000E+00 0.  1.
          1    1    3    3  501    0  0.12866524638E+03 -0.18718367215E+03 -0.18581398619E+02  0.22789853251E+03  0.00000000000E+00 0.  1.
         -1    1    1    2    0  502 -0.93583135630E+02 -0.13735948421E+02  0.12333310586E+03  0.15542694282E+03  0.00000000000E+00 0. -1.
<mgrwt>
<rscale>  1 0.67784385E+03</rscale>
<asrwt>0</asrwt>
<pdfrwt beam="1">  1       21 0.39403297E-01 0.67784385E+03</pdfrwt>
<pdfrwt beam="2">0</pdfrwt>
<totfact> 0.58137412E+02</totfact>
</mgrwt>
</event>
<event>
 6    1  0.1386179E-004  0.6575924E+03  0.7818608E-02  0.9792636E-01
         21   -1    0    0  501  502  0.00000000000E+00  0.00000000000E+00  0.35637743513E+03  0.35637743513E+03  0.00000000000E+00 0. -1.
         13   -1    0    0    0    0 -0.00000000000E+00 -0.00000000000E+00 -0.10000000000E+04  0.10000000000E+04  0.00000000000E+00 0.  1.
    9000005    2    1    2  501    0 -0.14034345551E+02  0.16393338112E+02 -0.89137328067E+03  0.11076886305E+04  0.65723821568E+03 0.  0.
         13    1    3    3    0    0 -0.10013487973E+03 -0.24516719471E+03 -0.12403248915E+03  0.29243461810E+03  0.00000000000E+00 0.  1.
          3    1    3    3  501    0  0.86100534179E+02  0.26156053282E+03 -0.76734079153E+03  0.81525401235E+03  0.00000000000E+00 0.  1.
         -3    1    1    2    0  502  0.14034345551E+02 -0.16393338112E+02  0.24775071581E+03  0.24868880468E+03  0.00000000000E+00 0. -1.
<mgrwt>
<rscale>  1 0.65759241E+03</rscale>
<asrwt>0</asrwt>
<pdfrwt beam="1">  1       21 0.54827296E-01 0.65759241E+03</pdfrwt>
<pdfrwt beam="2">0</pdfrwt>
<totfact> 0.28884705E+02</totfact>
</mgrwt>
</event>
<event>
 6    1  0.1386179E-004  0.6502958E+03  0.7818608E-02  0.9806224E-01
         21   -1    0    0  501  502  0.00000000000E+00  0.00000000000E+00  0.11976891549E+03  0.11976891549E+03  0.00000000000E+00 0.  1.
         13   -1    0    0    0    0 -0.00000000000E+00 -0.00000000000E+00 -0.10000000000E+04  0.10000000000E+04  0.00000000000E+00 0.  1.
    9000005    2    1    2  501    0  0.12718163522E+02 -0.26692112953E+02 -0.87427777470E+03  0.10896083042E+04  0.64962328207E+03 0.  0.
         13    1    3    3    0    0 -0.24356308509E+03  0.16362411896E+03 -0.60335855187E+03  0.67092277562E+03  0.00000000000E+00 0.  1.
          1    1    3    3  501    0  0.25628124862E+03 -0.19031623192E+03 -0.27091922283E+03  0.41868552856E+03  0.00000000000E+00 0.  1.
         -3    1    1    2    0  502 -0.12718163522E+02  0.26692112953E+02 -0.59533098140E+01  0.30160611317E+02  0.00000000000E+00 0. -1.
<mgrwt>
<rscale>  1 0.65029580E+03</rscale>
<asrwt>0</asrwt>
<pdfrwt beam="1">  1       21 0.18425986E-01 0.65029580E+03</pdfrwt>
<pdfrwt beam="2">0</pdfrwt>
<totfact> 0.26245853E+03</totfact>
</mgrwt>
</event>
<event>
 6    1  0.1386179E-004  0.6680010E+03  0.7818608E-02  0.9773576E-01
         21   -1    0    0  501  502  0.00000000000E+00  0.00000000000E+00  0.19265629686E+03  0.19265629686E+03  0.00000000000E+00 0. -1.
         13   -1    0    0    0    0 -0.00000000000E+00 -0.00000000000E+00 -0.10000000000E+04  0.10000000000E+04  0.00000000000E+00 0.  1.
    9000005    2    1    2  501    0 -0.51042038576E+02 -0.59956018271E+02 -0.86655286952E+03  0.10941385867E+04  0.66334407168E+03 0.  0.
         13    1    3    3    0    0  0.12115635230E+03 -0.16530921509E+03 -0.86840183478E+03  0.89225990886E+03  0.00000000000E+00 0.  1.
          3    1    3    3  501    0 -0.17219839088E+03  0.10535319682E+03  0.18489652645E+01  0.20187867786E+03  0.00000000000E+00 0.  1.
         -3    1    1    2    0  502  0.51042038576E+02  0.59956018271E+02  0.59209166377E+02  0.98517710143E+02  0.00000000000E+00 0. -1.
<mgrwt>
<rscale>  1 0.66800103E+03</rscale>
<asrwt>0</asrwt>
<pdfrwt beam="1">  1       21 0.29639429E-01 0.66800103E+03</pdfrwt>
<pdfrwt beam="2">0</pdfrwt>
<totfact> 0.10384931E+03</totfact>
</mgrwt>
</event>
<event>
 6    1  0.1386179E-004  0.6557985E+03  0.7818608E-02  0.9795959E-01
         21   -1    0    0  501  502  0.00000000000E+00  0.00000000000E+00  0.17127753244E+03  0.17127753244E+03  0.00000000000E+00 0.  1.
         13   -1    0    0    0    0 -0.00000000000E+00 -0.00000000000E+00 -0.10000000000E+04  0.10000000000E+04  0.00000000000E+00 0.  1.
    9000005    2    1    2  501    0 -0.20452875407E+02 -0.21584544129E+02 -0.88861824839E+03  0.11044066328E+04  0.65512396273E+03 0.  0.
         13    1    3    3    0    0  0.21723196091E+03 -0.23593141985E+03 -0.32719044595E+03  0.45815602979E+03  0.00000000000E+00 0.  1.
          3    1    3    3  501    0 -0.23768483632E+03  0.21434687572E+03 -0.56142780244E+03  0.64625060301E+03  0.00000000000E+00 0.  1.
         -3    1    1    2    0  502  0.20452875407E+02  0.21584544129E+02  0.59895780829E+02  0.66870899641E+02  0.00000000000E+00 0. -1.
<mgrwt>
<rscale>  1 0.65579846E+03</rscale>
<asrwt>0</asrwt>
<pdfrwt beam="1">  1       21 0.26350389E-01 0.65579846E+03</pdfrwt>
<pdfrwt beam="2">0</pdfrwt>
<totfact> 0.13127001E+03</totfact>
</mgrwt>
</event>
<event>
 6    1  0.1386179E-004  0.6428713E+03  0.7818608E-02  0.9820248E-01
         21   -1    0    0  501  502  0.00000000000E+00  0.00000000000E+00  0.12195384858E+03  0.12195384858E+03  0.00000000000E+00 0.  1.
         13   -1    0    0    0    0 -0.00000000000E+00 -0.00000000000E+00 -0.10000000000E+04  0.10000000000E+04  0.00000000000E+00 0.  1.
    9000005    2    1    2  501    0 -0.23205723866E+02 -0.20028110445E+02 -0.88159331080E+03  0.10910958971E+04  0.64214006281E+03 0.  0.
         13    1    3    3    0    0 -0.80490662269E+02  0.78384440918E+01  0.87939838601E+02  0.11947218560E+03  0.00000000000E+00 0.  1.
          3    1    3    3  501    0  0.57284938403E+02 -0.27866554537E+02 -0.96953314940E+03  0.97162371153E+03  0.00000000000E+00 0.  1.
         -1    1    1    2    0  502  0.23205723866E+02  0.20028110445E+02  0.35471593825E+01  0.30857951453E+02  0.00000000000E+00 0. -1.
<mgrwt>
<rscale>  1 0.64287129E+03</rscale>
<asrwt>0</asrwt>
<pdfrwt beam="1">  1       21 0.18762130E-01 0.64287129E+03</pdfrwt>
<pdfrwt beam="2">0</pdfrwt>
<totfact> 0.25364914E+03</totfact>
</mgrwt>
</event>
<event>
 6    1  0.1386179E-004  0.6967587E+03  0.7818608E-02  0.9722791E-01
         21   -1    0    0  501  502  0.00000000000E+00  0.00000000000E+00  0.17590077305E+03  0.17590077305E+03  0.00000000000E+00 0.  1.
         13   -1    0    0    0    0 -0.00000000000E+00 -0.00000000000E+00 -0.10000000000E+04  0.10000000000E+04  0.00000000000E+00 0.  1.
    9000005    2    1    2  501    0  0.81573162570E+02 -0.54317214519E+02 -0.82241112703E+03  0.10778834770E+04  0.68983199946E+03 0.  0.
         13    1    3    3    0    0 -0.18650482786E+02 -0.10935906461E+02  0.12365704276E+03  0.12553285938E+03  0.00000000000E+00 0.  1.
          3    1    3    3  501    0  0.10022364536E+03 -0.43381308058E+02 -0.94606816980E+03  0.95235061762E+03  0.00000000000E+00 0.  1.
         -1    1    1    2    0  502 -0.81573162570E+02  0.54317214519E+02 -0.16880999110E+01  0.98017296056E+02  0.00000000000E+00 0. -1.
<mgrwt>
<rscale>  1 0.69675873E+03</rscale>
<asrwt>0</asrwt>
<pdfrwt beam="1">  1       21 0.27061657E-01 0.69675873E+03</pdfrwt>
<pdfrwt beam="2">0</pdfrwt>
<totfact> 0.12426707E+03</totfact>
</mgrwt>
</event>
<event>
 6    1  0.1386179E-004  0.6682550E+03  0.7818608E-02  0.9773115E-01
         21   -1    0    0  501  502  0.00000000000E+00  0.00000000000E+00  0.15754312958E+03  0.15754312958E+03  0.00000000000E+00 0.  1.
         13   -1    0    0    0    0 -0.00000000000E+00 -0.00000000000E+00 -0.10000000000E+04  0.10000000000E+04  0.00000000000E+00 0.  1.
    9000005    2    1    2  501    0 -0.43641231963E+02  0.84682926752E+02 -0.82329641848E+03  0.10603686570E+04  0.66142946772E+03 0.  0.
         13    1    3    3    0    0  0.88608423929E+02  0.11064795180E+03  0.69206936642E+02  0.15774670237E+03  0.00000000000E+00 0.  1.
          3    1    3    3  501    0 -0.13224965589E+03 -0.25965025048E+02 -0.89250335512E+03  0.90262195459E+03  0.00000000000E+00 0.  1.
         -1    1    1    2    0  502  0.43641231963E+02 -0.84682926752E+02 -0.19160451942E+02  0.97174472621E+02  0.00000000000E+00 0. -1.
<mgrwt>
<rscale>  1 0.66825496E+03</rscale>
<asrwt>0</asrwt>
<pdfrwt beam="1">  1       21 0.24237404E-01 0.66825496E+03</pdfrwt>
<pdfrwt beam="2">0</pdfrwt>
<totfact> 0.15457888E+03</totfact>
</mgrwt>
</event>
<event>
 6    1  0.1386179E-004  0.6582958E+03  0.7818608E-02  0.9791336E-01
         21   -1    0    0  501  502  0.00000000000E+00  0.00000000000E+00  0.19245858829E+03  0.19245858829E+03  0.00000000000E+00 0. -1.
         13   -1    0    0    0    0 -0.00000000000E+00 -0.00000000000E+00 -0.10000000000E+04  0.10000000000E+04  0.00000000000E+00 0.  1.
    9000005    2    1    2  501    0 -0.26327666489E+02  0.13642024578E+03 -0.82161750105E+03  0.10528098655E+04  0.64346691089E+03 0.  0.
         13    1    3    3    0    0  0.92659353784E+02 -0.16720231405E+03 -0.25957550004E+02  0.19291491406E+03  0.00000000000E+00 0.  1.
          1    1    3    3  501    0 -0.11898702027E+03  0.30362255982E+03 -0.79565995105E+03  0.85989495145E+03  0.00000000000E+00 0.  1.
         -1    1    1    2    0  502  0.26327666489E+02 -0.13642024578E+03  0.14076089336E+02  0.13964872277E+03  0.00000000000E+00 0. -1.
<mgrwt>
<rscale>  1 0.65829575E+03</rscale>
<asrwt>0</asrwt>
<pdfrwt beam="1">  1       21 0.29609013E-01 0.65829575E+03</pdfrwt>
<pdfrwt beam="2">0</pdfrwt>
<totfact> 0.10412440E+03</totfact>
</mgrwt>
</event>
<event>
 6    1  0.1386179E-004  0.6530005E+03  0.7818608E-02  0.9801165E-01
         21   -1    0    0  501  502  0.00000000000E+00  0.00000000000E+00  0.14938131352E+03  0.14938131352E+03  0.00000000000E+00 0.  1.
         13   -1    0    0    0    0 -0.00000000000E+00 -0.00000000000E+00 -0.10000000000E+04  0.10000000000E+04  0.00000000000E+00 0.  1.
    9000005    2    1    2  501    0  0.71785803151E+02 -0.60995035669E+01 -0.85657222833E+03  0.10770912718E+04  0.64901403672E+03 0.  0.
         13    1    3    3    0    0  0.24147917717E+03 -0.21998602284E+03 -0.24817470625E+03  0.41023984213E+03  0.00000000000E+00 0.  1.
          3    1    3    3  501    0 -0.16969337402E+03  0.21388651927E+03 -0.60839752208E+03  0.66685142962E+03  0.00000000000E+00 0.  1.
         -1    1    1    2    0  502 -0.71785803151E+02  0.60995035669E+01  0.59535418452E+01  0.72290041764E+02  0.00000000000E+00 0. -1.
<mgrwt>
<rscale>  1 0.65300048E+03</rscale>
<asrwt>0</asrwt>
<pdfrwt beam="1">  1       21 0.22981740E-01 0.65300048E+03</pdfrwt>
<pdfrwt beam="2">0</pdfrwt>
<totfact> 0.17159471E+03</totfact>
</mgrwt>
</event>
<event>
 6    1  0.1386179E-004  0.6557154E+03  0.7818608E-02  0.9796113E-01
         21   -1    0    0  501  502  0.00000000000E+00  0.00000000000E+00  0.19682407111E+03  0.19682407111E+03  0.00000000000E+00 0.  1.
         13   -1    0    0    0    0 -0.00000000000E+00 -0.00000000000E+00 -0.10000000000E+04  0.10000000000E+04  0.00000000000E+00 0.  1.
    9000005    2    1    2  501    0  0.70097984949E+02 -0.62056201927E+02 -0.86439755162E+03  0.10849635026E+04  0.64899766955E+03 0.  0.
         13    1    3    3    0    0 -0.20981528858E+03  0.13521568709E+03 -0.60777231007E+03  0.65703342248E+03  0.00000000000E+00 0.  1.
          3    1    3    3  501    0  0.27991327353E+03 -0.19727188902E+03 -0.25662524155E+03  0.42793008015E+03  0.00000000000E+00 0.  1.
         -1    1    1    2    0  502 -0.70097984949E+02  0.62056201927E+02  0.61221622735E+02  0.11186056849E+03  0.00000000000E+00 0. -1.
<mgrwt>
<rscale>  1 0.65571539E+03</rscale>
<asrwt>0</asrwt>
<pdfrwt beam="1">  1       21 0.30280625E-01 0.65571539E+03</pdfrwt>
<pdfrwt beam="2">0</pdfrwt>
<totfact> 0.99568474E+02</totfact>
</mgrwt>
</event>
<event>
 6    1  0.1386179E-004  0.6686955E+03  0.7818608E-02  0.9772317E-01
         21   -1    0    0  501  502  0.00000000000E+00  0.00000000000E+00  0.15600149233E+03  0.15600149233E+03  0.00000000000E+00 0.  1.
         13   -1    0    0    0    0 -0.00000000000E+00 -0.00000000000E+00 -0.10000000000E+04  0.10000000000E+04  0.00000000000E+00 0.  1.
    9000005    2    1    2  501    0 -0.11546571439E+03  0.19438036720E+02 -0.75750373269E+03  0.10104284365E+04  0.65836430027E+03 0.  0.
         13    1    3    3    0    0 -0.36840458494E+03 -0.50414733676E+02 -0.59545147624E+03  0.70201570077E+03  0.00000000000E+00 0.  1.
          3    1    3    3  501    0  0.25293887055E+03  0.69852770396E+02 -0.16205225645E+03  0.30841273578E+03  0.00000000000E+00 0.  1.
         -3    1    1    2    0  502  0.11546571439E+03 -0.19438036720E+02 -0.86494774980E+02  0.14557305578E+03  0.00000000000E+00 0. -1.
<mgrwt>
<rscale>  1 0.66869554E+03</rscale>
<asrwt>0</asrwt>
<pdfrwt beam="1">  1       21 0.24000229E-01 0.66869554E+03</pdfrwt>
<pdfrwt beam="2">0</pdfrwt>
<totfact> 0.15757455E+03</totfact>
</mgrwt>
</event>
<event>
 6    1  0.1386179E-004  0.7772601E+03  0.7818608E-02  0.9593528E-01
         21   -1    0    0  501  502  0.00000000000E+00  0.00000000000E+00  0.28622633082E+03  0.28622633082E+03  0.00000000000E+00 0.  1.
         13   -1    0    0    0    0 -0.00000000000E+00 -0.00000000000E+00 -0.10000000000E+04  0.10000000000E+04  0.00000000000E+00 0.  1.
    9000005    2    1    2  501    0 -0.13562273173E+03 -0.25869292800E+03 -0.49857222387E+03  0.92342167481E+03  0.72029006014E+03 0.  0.
         13    1    3    3    0    0  0.26308708590E+03 -0.72607353552E+02 -0.37977300346E+03  0.46766887508E+03  0.00000000000E+00 0.  1.
          3    1    3    3  501    0 -0.39870981763E+03 -0.18608557445E+03 -0.11879922041E+03  0.45575279973E+03  0.00000000000E+00 0.  1.
         -3    1    1    2    0  502  0.13562273173E+03  0.25869292800E+03 -0.21520144531E+03  0.36280465601E+03  0.00000000000E+00 0. -1.
<mgrwt>
<rscale>  1 0.77726014E+03</rscale>
<asrwt>0</asrwt>
<pdfrwt beam="1">  1       21 0.44034819E-01 0.77726014E+03</pdfrwt>
<pdfrwt beam="2">0</pdfrwt>
<totfact> 0.45732450E+02</totfact>
</mgrwt>
</event>
<event>
 6    1  0.1386179E-004  0.6945865E+03  0.7818608E-02  0.9726535E-01
         21   -1    0    0  501  502  0.00000000000E+00  0.00000000000E+00  0.15672212490E+03  0.15672212490E+03  0.00000000000E+00 0.  1.
         13   -1    0    0    0    0 -0.00000000000E+00 -0.00000000000E+00 -0.10000000000E+04  0.10000000000E+04  0.00000000000E+00 0.  1.
    9000005    2    1    2  501    0  0.51871923884E+02  0.15891599096E+02 -0.85463412611E+03  0.11012946602E+04  0.69246458364E+03 0.  0.
         13    1    3    3    0    0  0.14505455156E+03  0.59301563633E+02  0.69522928940E+02  0.17143784887E+03  0.00000000000E+00 0.  1.
          3    1    3    3  501    0 -0.93182627673E+02 -0.43409964537E+02 -0.92415705505E+03  0.92985681130E+03  0.00000000000E+00 0.  1.
         -3    1    1    2    0  502 -0.51871923884E+02 -0.15891599096E+02  0.11356251007E+02  0.55427464728E+02  0.00000000000E+00 0. -1.
<mgrwt>
<rscale>  1 0.69458652E+03</rscale>
<asrwt>0</asrwt>
<pdfrwt beam="1">  1       21 0.24111095E-01 0.69458652E+03</pdfrwt>
<pdfrwt beam="2">0</pdfrwt>
<totfact> 0.15596933E+03</totfact>
</mgrwt>
</event>
<event>
 6    1  0.1386179E-004  0.6094089E+03  0.7818608E-02  0.9886076E-01
         21   -1    0    0  501  502  0.00000000000E+00  0.00000000000E+00  0.12958001329E+03  0.12958001329E+03  0.00000000000E+00 0.  1.
         13   -1    0    0    0    0 -0.00000000000E+00 -0.00000000000E+00 -0.10000000000E+04  0.10000000000E+04  0.00000000000E+00 0.  1.
    9000005    2    1    2  501    0  0.46533699110E+02  0.53056977783E+02 -0.86591839527E+03  0.10588644396E+04  0.60530885177E+03 0.  0.
         13    1    3    3    0    0  0.35653071668E+02 -0.25978791148E+03 -0.22474576175E+03  0.34535714543E+03  0.00000000000E+00 0.  1.
          1    1    3    3  501    0  0.10880627441E+02  0.31284488927E+03 -0.64117263352E+03  0.71350729412E+03  0.00000000000E+00 0.  1.
         -1    1    1    2    0  502 -0.46533699110E+02 -0.53056977783E+02 -0.45015914335E+01  0.70715573742E+02  0.00000000000E+00 0. -1.
<mgrwt>
<rscale>  1 0.60940892E+03</rscale>
<asrwt>0</asrwt>
<pdfrwt beam="1">  1       21 0.19935386E-01 0.60940892E+03</pdfrwt>
<pdfrwt beam="2">0</pdfrwt>
<totfact> 0.22619133E+03</totfact>
</mgrwt>
</event>
<event>
 6    1  0.1386179E-004  0.6563630E+03  0.7818608E-02  0.9794912E-01
         21   -1    0    0  501  502  0.00000000000E+00  0.00000000000E+00  0.15179597754E+03  0.15179597754E+03  0.00000000000E+00 0.  1.
         13   -1    0    0    0    0 -0.00000000000E+00 -0.00000000000E+00 -0.10000000000E+04  0.10000000000E+04  0.00000000000E+00 0.  1.
    9000005    2    1    2  501    0  0.23183043346E+02  0.15509244007E+02 -0.88735451830E+03  0.11037257011E+04  0.65577007560E+03 0.  0.
         13    1    3    3    0    0  0.26728733845E+03 -0.11495875735E+03 -0.72882669922E+03  0.78475881306E+03  0.00000000000E+00 0.  1.
          3    1    3    3  501    0 -0.24410429510E+03  0.13046800135E+03 -0.15852781909E+03  0.31896688808E+03  0.00000000000E+00 0.  1.
         -3    1    1    2    0  502 -0.23183043346E+02 -0.15509244007E+02  0.39150495846E+02  0.48070276403E+02  0.00000000000E+00 0. -1.
<mgrwt>
<rscale>  1 0.65636300E+03</rscale>
<asrwt>0</asrwt>
<pdfrwt beam="1">  1       21 0.23353227E-01 0.65636300E+03</pdfrwt>
<pdfrwt beam="2">0</pdfrwt>
<totfact> 0.16629813E+03</totfact>
</mgrwt>
</event>
<event>
 6    1  0.1386179E-004  0.6555150E+03  0.7818608E-02  0.9796485E-01
         21   -1    0    0  501  502  0.00000000000E+00  0.00000000000E+00  0.25514626295E+03  0.25514626295E+03  0.00000000000E+00 0. -1.
         13   -1    0    0    0    0 -0.00000000000E+00 -0.00000000000E+00 -0.10000000000E+04  0.10000000000E+04  0.00000000000E+00 0.  1.
    9000005    2    1    2  501    0  0.19069536216E+02 -0.40626999296E+02 -0.88878936416E+03  0.11043760237E+04  0.65397680972E+03 0.  0.
         13    1    3    3    0    0 -0.16104914254E+03 -0.17922162754E+02 -0.90751526174E+03  0.92186874365E+03  0.00000000000E+00 0.  1.
          3    1    3    3  501    0  0.18011867876E+03 -0.22704836542E+02  0.18725897576E+02  0.18250728007E+03  0.00000000000E+00 0.  1.
         -3    1    1    2    0  502 -0.19069536216E+02  0.40626999296E+02  0.14393562712E+03  0.15077023923E+03  0.00000000000E+00 0. -1.
<mgrwt>
<rscale>  1 0.65551496E+03</rscale>
<asrwt>0</asrwt>
<pdfrwt beam="1">  1       21 0.39253270E-01 0.65551496E+03</pdfrwt>
<pdfrwt beam="2">0</pdfrwt>
<totfact> 0.58700444E+02</totfact>
</mgrwt>
</event>
<event>
 6    1  0.1386179E-004  0.6335875E+03  0.7818608E-02  0.9838073E-01
         21   -1    0    0  501  502  0.00000000000E+00  0.00000000000E+00  0.13633296104E+03  0.13633296104E+03  0.00000000000E+00 0.  1.
         13   -1    0    0    0    0 -0.00000000000E+00 -0.00000000000E+00 -0.10000000000E+04  0.10000000000E+04  0.00000000000E+00 0.  1.
    9000005    2    1    2  501    0 -0.12349336561E+02  0.33743878191E+02 -0.88949710137E+03  0.10920797402E+04  0.63256771196E+03 0.  0.
         13    1    3    3    0    0  0.20902274883E+03 -0.44014382324E+02 -0.82001020169E+03  0.84737506823E+03  0.00000000000E+00 0.  1.
          1    1    3    3  501    0 -0.22137208539E+03  0.77758260515E+02 -0.69486899684E+02  0.24470467199E+03  0.00000000000E+00 0.  1.
         -1    1    1    2    0  502  0.12349336561E+02 -0.33743878191E+02  0.25830062408E+02  0.44253220819E+02  0.00000000000E+00 0. -1.
<mgrwt>
<rscale>  1 0.63358746E+03</rscale>
<asrwt>0</asrwt>
<pdfrwt beam="1">  1       21 0.20974301E-01 0.63358746E+03</pdfrwt>
<pdfrwt beam="2">0</pdfrwt>
<totfact> 0.20496138E+03</totfact>
</mgrwt>
</event>
<event>
 6    1  0.1386179E-004  0.7653297E+03  0.7818608E-02  0.9611603E-01
         21   -1    0    0  501  502  0.00000000000E+00  0.00000000000E+00  0.70392429740E+03  0.70392429740E+03  0.00000000000E+00 0. -1.
         13   -1    0    0    0    0 -0.00000000000E+00 -0.00000000000E+00 -0.10000000000E+04  0.10000000000E+04  0.00000000000E+00 0.  1.
    9000005    2    1    2  501    0 -0.18170635873E+03 -0.31279387933E+03 -0.78459855676E+03  0.10960494823E+04  0.67444225900E+03 0.  0.
         13    1    3    3    0    0  0.17858698214E+03  0.78254863745E+02 -0.38276710233E+03  0.42956697792E+03  0.00000000000E+00 0.  1.
          3    1    3    3  501    0 -0.36029334087E+03 -0.39104874307E+03 -0.40183145443E+03  0.66648250442E+03  0.00000000000E+00 0.  1.
         -1    1    1    2    0  502  0.18170635873E+03  0.31279387933E+03  0.48852285416E+03  0.60787481506E+03  0.00000000000E+00 0. -1.
<mgrwt>
<rscale>  1 0.76532971E+03</rscale>
<asrwt>0</asrwt>
<pdfrwt beam="1">  1       21 0.10829604E+00 0.76532971E+03</pdfrwt>
<pdfrwt beam="2">0</pdfrwt>
<totfact> 0.58532615E+01</totfact>
</mgrwt>
</event>
<event>
 6    1  0.1386179E-004  0.6608734E+03  0.7818608E-02  0.9786587E-01
         21   -1    0    0  501  502  0.00000000000E+00  0.00000000000E+00  0.58931063036E+03  0.58931063036E+03  0.00000000000E+00 0. -1.
         13   -1    0    0    0    0 -0.00000000000E+00 -0.00000000000E+00 -0.10000000000E+04  0.10000000000E+04  0.00000000000E+00 0.  1.
    9000005    2    1    2  501    0 -0.14285666091E+03 -0.24997829628E+02 -0.87861986513E+03  0.10994209839E+04  0.64476407738E+03 0.  0.
         13    1    3    3    0    0 -0.33066562173E+03  0.88973586999E+02 -0.79275966468E+03  0.86355308958E+03  0.00000000000E+00 0.  1.
          1    1    3    3  501    0  0.18780896082E+03 -0.11397141663E+03 -0.85860200453E+02  0.23586789437E+03  0.00000000000E+00 0.  1.
         -3    1    1    2    0  502  0.14285666091E+03  0.24997829628E+02  0.46793049550E+03  0.48988964642E+03  0.00000000000E+00 0. -1.
<mgrwt>
<rscale>  1 0.66087339E+03</rscale>
<asrwt>0</asrwt>
<pdfrwt beam="1">  1       21 0.90663171E-01 0.66087339E+03</pdfrwt>
<pdfrwt beam="2">0</pdfrwt>
<totfact> 0.91807234E+01</totfact>
</mgrwt>
</event>
<event>
 6    1  0.1386179E-004  0.6332610E+03  0.7818608E-02  0.9838706E-01
         21   -1    0    0  501  502  0.00000000000E+00  0.00000000000E+00  0.14822203591E+03  0.14822203591E+03  0.00000000000E+00 0.  1.
         13   -1    0    0    0    0 -0.00000000000E+00 -0.00000000000E+00 -0.10000000000E+04  0.10000000000E+04  0.00000000000E+00 0.  1.
    9000005    2    1    2  501    0 -0.31323486625E+02  0.91584940889E+01 -0.89356158187E+03  0.10952040244E+04  0.63241957250E+03 0.  0.
         13    1    3    3    0    0  0.25084206038E+03  0.10333405010E+03 -0.67077149537E+03  0.72355653834E+03  0.00000000000E+00 0.  1.
          1    1    3    3  501    0 -0.28216554700E+03 -0.94175556016E+02 -0.22279008650E+03  0.37164748608E+03  0.00000000000E+00 0.  1.
         -3    1    1    2    0  502  0.31323486625E+02 -0.91584940889E+01  0.41783617776E+02  0.53018011493E+02  0.00000000000E+00 0. -1.
<mgrwt>
<rscale>  1 0.63326105E+03</rscale>
<asrwt>0</asrwt>
<pdfrwt beam="1">  1       21 0.22803389E-01 0.63326105E+03</pdfrwt>
<pdfrwt beam="2">0</pdfrwt>
<totfact> 0.17437439E+03</totfact>
</mgrwt>
</event>
<event>
 6    1  0.1386179E-004  0.5881937E+03  0.7818608E-02  0.9930208E-01
         21   -1    0    0  501  502  0.00000000000E+00  0.00000000000E+00  0.15032995453E+03  0.15032995453E+03  0.00000000000E+00 0.  1.
         13   -1    0    0    0    0 -0.00000000000E+00 -0.00000000000E+00 -0.10000000000E+04  0.10000000000E+04  0.00000000000E+00 0.  1.
    9000005    2    1    2  501    0 -0.40930031238E+02 -0.11972694970E+03 -0.83722447370E+03  0.10231894724E+04  0.57442324737E+03 0.  0.
         13    1    3    3    0    0 -0.20154881609E+03  0.26468456191E+01 -0.46192081795E+02  0.20679129450E+03  0.00000000000E+00 0.  1.
          1    1    3    3  501    0  0.16061878485E+03 -0.12237379532E+03 -0.79103239190E+03  0.81639817789E+03  0.00000000000E+00 0.  1.
         -3    1    1    2    0  502  0.40930031238E+02  0.11972694970E+03 -0.12445571774E+02  0.12714048214E+03  0.00000000000E+00 0. -1.
<mgrwt>
<rscale>  1 0.58819374E+03</rscale>
<asrwt>0</asrwt>
<pdfrwt beam="1">  1       21 0.23127685E-01 0.58819374E+03</pdfrwt>
<pdfrwt beam="2">0</pdfrwt>
<totfact> 0.17004275E+03</totfact>
</mgrwt>
</event>
<event>
 6    1  0.1386179E-004  0.6848244E+03  0.7818608E-02  0.9743542E-01
         21   -1    0    0  501  502  0.00000000000E+00  0.00000000000E+00  0.50173384999E+03  0.50173384999E+03  0.00000000000E+00 0. -1.
         13   -1    0    0    0    0 -0.00000000000E+00 -0.00000000000E+00 -0.10000000000E+04  0.10000000000E+04  0.00000000000E+00 0.  1.
    9000005    2    1    2  501    0 -0.48587357547E+02  0.17882498688E+03 -0.85757134110E+03  0.10974575489E+04  0.65927639075E+03 0.  0.
         13    1    3    3    0    0  0.17250346531E+03 -0.66925921417E+02 -0.72857138609E+01  0.18517452883E+03  0.00000000000E+00 0.  1.
          3    1    3    3  501    0 -0.22109082286E+03  0.24575090830E+03 -0.85028562724E+03  0.91228302011E+03  0.00000000000E+00 0.  1.
         -3    1    1    2    0  502  0.48587357547E+02 -0.17882498688E+03  0.35930519109E+03  0.40427630105E+03  0.00000000000E+00 0. -1.
<mgrwt>
<rscale>  1 0.68482441E+03</rscale>
<asrwt>0</asrwt>
<pdfrwt beam="1">  1       21 0.77189821E-01 0.68482441E+03</pdfrwt>
<pdfrwt beam="2">0</pdfrwt>
<totfact> 0.13367634E+02</totfact>
</mgrwt>
</event>
<event>
 6    1  0.1386179E-004  0.6709808E+03  0.7818608E-02  0.9768188E-01
         21   -1    0    0  501  502  0.00000000000E+00  0.00000000000E+00  0.17749978332E+03  0.17749978332E+03  0.00000000000E+00 0.  1.
         13   -1    0    0    0    0 -0.00000000000E+00 -0.00000000000E+00 -0.10000000000E+04  0.10000000000E+04  0.00000000000E+00 0.  1.
    9000005    2    1    2  501    0 -0.16496861998E+03  0.46795368607E+02 -0.66412918939E+03  0.94407777411E+03  0.64869932270E+03 0.  0.
         13    1    3    3    0    0 -0.34713225776E+03  0.28667676257E+01 -0.67217055452E+03  0.75651984581E+03  0.00000000000E+00 0.  1.
          3    1    3    3  501    0  0.18216363779E+03  0.43928600981E+02  0.80413651299E+01  0.18755792830E+03  0.00000000000E+00 0.  1.
         -3    1    1    2    0  502  0.16496861998E+03 -0.46795368607E+02 -0.15837102728E+03  0.23342200921E+03  0.00000000000E+00 0. -1.
<mgrwt>
<rscale>  1 0.67098082E+03</rscale>
<asrwt>0</asrwt>
<pdfrwt beam="1">  1       21 0.27307658E-01 0.67098082E+03</pdfrwt>
<pdfrwt beam="2">0</pdfrwt>
<totfact> 0.12223051E+03</totfact>
</mgrwt>
</event>
<event>
 6    1  0.1386179E-004  0.6839431E+03  0.7818608E-02  0.9745093E-01
         21   -1    0    0  501  502  0.00000000000E+00  0.00000000000E+00  0.55889623710E+03  0.55889623710E+03  0.00000000000E+00 0. -1.
         13   -1    0    0    0    0 -0.00000000000E+00 -0.00000000000E+00 -0.10000000000E+04  0.10000000000E+04  0.00000000000E+00 0.  1.
    9000005    2    1    2  501    0  0.85849985193E+02  0.20314374307E+03 -0.85199896843E+03  0.10925568004E+04  0.64741062670E+03 0.  0.
         13    1    3    3    0    0 -0.16512225491E+03 -0.16533510392E+03 -0.35382557410E+03  0.42402074541E+03  0.00000000000E+00 0.  1.
          3    1    3    3  501    0  0.25097224010E+03  0.36847884699E+03 -0.49817339433E+03  0.66853605498E+03  0.00000000000E+00 0.  1.
         -3    1    1    2    0  502 -0.85849985193E+02 -0.20314374307E+03  0.41089520553E+03  0.46633943672E+03  0.00000000000E+00 0. -1.
<mgrwt>
<rscale>  1 0.68394307E+03</rscale>
<asrwt>0</asrwt>
<pdfrwt beam="1">  1       21 0.85984034E-01 0.68394307E+03</pdfrwt>
<pdfrwt beam="2">0</pdfrwt>
<totfact> 0.10383689E+02</totfact>
</mgrwt>
</event>
<event>
 6    1  0.1386179E-004  0.6451650E+03  0.7818608E-02  0.9815894E-01
         21   -1    0    0  501  502  0.00000000000E+00  0.00000000000E+00  0.11897001276E+04  0.11897001276E+04  0.00000000000E+00 0. -1.
         13   -1    0    0    0    0 -0.00000000000E+00 -0.00000000000E+00 -0.10000000000E+04  0.10000000000E+04  0.00000000000E+00 0.  1.
    9000005    2    1    2  501    0 -0.27205536660E+02 -0.66291840606E+00 -0.89575224405E+03  0.11039066703E+04  0.64459077982E+03 0.  0.
         13    1    3    3    0    0 -0.10726024048E+03  0.28534076162E+03 -0.65181152244E+03  0.71957096260E+03  0.00000000000E+00 0.  1.
          3    1    3    3  501    0  0.80054703823E+02 -0.28600368003E+03 -0.24394072161E+03  0.38433570775E+03  0.00000000000E+00 0.  1.
         -3    1    1    2    0  502  0.27205536660E+02  0.66291840606E+00  0.10854523716E+04  0.10857934572E+04  0.00000000000E+00 0. -1.
<mgrwt>
<rscale>  1 0.64516498E+03</rscale>
<asrwt>0</asrwt>
<pdfrwt beam="1">  1       21 0.18303078E+00 0.64516498E+03</pdfrwt>
<pdfrwt beam="2">0</pdfrwt>
<totfact> 0.14387091E+01</totfact>
</mgrwt>
</event>
<event>
 6    1  0.1386179E-004  0.6235303E+03  0.7818608E-02  0.9857756E-01
         21   -1    0    0  501  502  0.00000000000E+00  0.00000000000E+00  0.28568802244E+03  0.28568802244E+03  0.00000000000E+00 0. -1.
         13   -1    0    0    0    0 -0.00000000000E+00 -0.00000000000E+00 -0.10000000000E+04  0.10000000000E+04  0.00000000000E+00 0.  1.
    9000005    2    1    2  501    0 -0.33987425940E+02  0.68357557123E+02 -0.89428124874E+03  0.10901967456E+04  0.61883930999E+03 0.  0.
         13    1    3    3    0    0  0.42601897530E+02 -0.18213285328E+03 -0.78397560358E+03  0.80598079687E+03  0.00000000000E+00 0.  1.
          1    1    3    3  501    0 -0.76589323470E+02  0.25049041041E+03 -0.11030564517E+03  0.28421594876E+03  0.00000000000E+00 0.  1.
         -3    1    1    2    0  502  0.33987425940E+02 -0.68357557123E+02  0.17996927118E+03  0.19549127681E+03  0.00000000000E+00 0. -1.
<mgrwt>
<rscale>  1 0.62353027E+03</rscale>
<asrwt>0</asrwt>
<pdfrwt beam="1">  1       21 0.43952002E-01 0.62353027E+03</pdfrwt>
<pdfrwt beam="2">0</pdfrwt>
<totfact> 0.46489082E+02</totfact>
</mgrwt>
</event>
<event>
 6    1  0.1386179E-004  0.6588433E+03  0.7818608E-02  0.9790325E-01
         21   -1    0    0  501  502  0.00000000000E+00  0.00000000000E+00  0.12633096704E+03  0.12633096704E+03  0.00000000000E+00 0.  1.
         13   -1    0    0    0    0 -0.00000000000E+00 -0.00000000000E+00 -0.10000000000E+04  0.10000000000E+04  0.00000000000E+00 0.  1.
    9000005    2    1    2  501    0  0.21601577567E+02  0.43961084332E+02 -0.83671729623E+03  0.10649743379E+04  0.65702001609E+03 0.  0.
         13    1    3    3    0    0 -0.88123437839E+02 -0.22302647933E+03 -0.71059588075E+03  0.74996870369E+03  0.00000000000E+00 0.  1.
          1    1    3    3  501    0  0.10972501541E+03  0.26698756366E+03 -0.12612141549E+03  0.31500563424E+03  0.00000000000E+00 0.  1.
         -1    1    1    2    0  502 -0.21601577567E+02 -0.43961084332E+02 -0.36951736726E+02  0.61356629113E+02  0.00000000000E+00 0. -1.
<mgrwt>
<rscale>  1 0.65884331E+03</rscale>
<asrwt>0</asrwt>
<pdfrwt beam="1">  1       21 0.19435533E-01 0.65884331E+03</pdfrwt>
<pdfrwt beam="2">0</pdfrwt>
<totfact> 0.23699493E+03</totfact>
</mgrwt>
</event>
<event>
 6    1  0.1386179E-004  0.6878587E+03  0.7818608E-02  0.9738224E-01
         21   -1    0    0  501  502  0.00000000000E+00  0.00000000000E+00  0.23046646296E+03  0.23046646296E+03  0.00000000000E+00 0. -1.
         13   -1    0    0    0    0 -0.00000000000E+00 -0.00000000000E+00 -0.10000000000E+04  0.10000000000E+04  0.00000000000E+00 0.  1.
    9000005    2    1    2  501    0 -0.12125121886E+03  0.38875766155E+02 -0.83939107962E+03  0.10852312760E+04  0.67597067587E+03 0.  0.
         13    1    3    3    0    0  0.95909963979E+02  0.29436918417E+03 -0.21639417819E+03  0.37772791548E+03  0.00000000000E+00 0.  1.
          1    1    3    3  501    0 -0.21716118284E+03 -0.25549341801E+03 -0.62299690143E+03  0.70750336054E+03  0.00000000000E+00 0.  1.
         -3    1    1    2    0  502  0.12125121886E+03 -0.38875766155E+02  0.69857542584E+02  0.14523518694E+03  0.00000000000E+00 0. -1.
<mgrwt>
<rscale>  1 0.68785866E+03</rscale>
<asrwt>0</asrwt>
<pdfrwt beam="1">  1       21 0.35456378E-01 0.68785866E+03</pdfrwt>
<pdfrwt beam="2">0</pdfrwt>
<totfact> 0.72190246E+02</totfact>
</mgrwt>
</event>
<event>
 6    1  0.1386179E-004  0.6519858E+03  0.7818608E-02  0.9803060E-01
         21   -1    0    0  501  502  0.00000000000E+00  0.00000000000E+00  0.33534549772E+03  0.33534549772E+03  0.00000000000E+00 0.  1.
         13   -1    0    0    0    0 -0.00000000000E+00 -0.00000000000E+00 -0.10000000000E+04  0.10000000000E+04  0.00000000000E+00 0.  1.
    9000005    2    1    2  501    0 -0.73756980806E+02  0.75564425481E+01 -0.88706915700E+03  0.11008983381E+04  0.64775633490E+03 0.  0.
         13    1    3    3    0    0 -0.30729351472E+03 -0.98330411764E+02 -0.73519590591E+03  0.80287682376E+03  0.00000000000E+00 0.  1.
          3    1    3    3  501    0  0.23353653391E+03  0.10588685431E+03 -0.15187325109E+03  0.29802151430E+03  0.00000000000E+00 0.  1.
         -1    1    1    2    0  502  0.73756980806E+02 -0.75564425481E+01  0.22241465471E+03  0.23444715966E+03  0.00000000000E+00 0. -1.
<mgrwt>
<rscale>  1 0.65198578E+03</rscale>
<asrwt>0</asrwt>
<pdfrwt beam="1">  1       21 0.51591614E-01 0.65198578E+03</pdfrwt>
<pdfrwt beam="2">0</pdfrwt>
<totfact> 0.32968095E+02</totfact>
</mgrwt>
</event>
<event>
 6    1  0.1386179E-004  0.6596436E+03  0.7818608E-02  0.9788850E-01
         21   -1    0    0  501  502  0.00000000000E+00  0.00000000000E+00  0.23473782971E+03  0.23473782971E+03  0.00000000000E+00 0.  1.
         13   -1    0    0    0    0 -0.00000000000E+00 -0.00000000000E+00 -0.10000000000E+04  0.10000000000E+04  0.00000000000E+00 0.  1.
    9000005    2    1    2  501    0 -0.62774934319E+02  0.80685947126E+02 -0.86773105576E+03  0.10899939631E+04  0.65167379871E+03 0.  0.
         13    1    3    3    0    0 -0.21227828208E+03 -0.32377515123E+02 -0.87642757485E+03  0.90235007978E+03  0.00000000000E+00 0.  1.
          1    1    3    3  501    0  0.14950334776E+03  0.11306346225E+03  0.86965190850E+01  0.18764388328E+03  0.00000000000E+00 0.  1.
         -3    1    1    2    0  502  0.62774934319E+02 -0.80685947126E+02  0.10246888547E+03  0.14474386665E+03  0.00000000000E+00 0. -1.
<mgrwt>
<rscale>  1 0.65964358E+03</rscale>
<asrwt>0</asrwt>
<pdfrwt beam="1">  1       21 0.36113511E-01 0.65964358E+03</pdfrwt>
<pdfrwt beam="2">0</pdfrwt>
<totfact> 0.69668120E+02</totfact>
</mgrwt>
</event>
<event>
 6    1  0.1386179E-004  0.6473965E+03  0.7818608E-02  0.9811677E-01
         21   -1    0    0  501  502  0.00000000000E+00  0.00000000000E+00  0.12881816633E+03  0.12881816633E+03  0.00000000000E+00 0.  1.
         13   -1    0    0    0    0 -0.00000000000E+00 -0.00000000000E+00 -0.10000000000E+04  0.10000000000E+04  0.00000000000E+00 0.  1.
    9000005    2    1    2  501    0  0.71468716728E+01 -0.32754710248E+02 -0.88154347513E+03  0.10937281046E+04  0.64652789533E+03 0.  0.
         13    1    3    3    0    0  0.14363218475E+03 -0.19691492663E+03 -0.68575316066E+02  0.25319610344E+03  0.00000000000E+00 0.  1.
          1    1    3    3  501    0 -0.13648531307E+03  0.16416021638E+03 -0.81296815906E+03  0.84053200116E+03  0.00000000000E+00 0.  1.
         -1    1    1    2    0  502 -0.71468716728E+01  0.32754710248E+02  0.10361641458E+02  0.35090061724E+02  0.00000000000E+00 0. -1.
<mgrwt>
<rscale>  1 0.64739653E+03</rscale>
<asrwt>0</asrwt>
<pdfrwt beam="1">  1       21 0.19818179E-01 0.64739653E+03</pdfrwt>
<pdfrwt beam="2">0</pdfrwt>
<totfact> 0.22841154E+03</totfact>
</mgrwt>
</event>
<event>
 6    1  0.1386179E-004  0.6488428E+03  0.7818608E-02  0.9808953E-01
         21   -1    0    0  501  502  0.00000000000E+00  0.00000000000E+00  0.14071892487E+03  0.14071892487E+03  0.00000000000E+00 0.  1.
         13   -1    0    0    0    0 -0.00000000000E+00 -0.00000000000E+00 -0.10000000000E+04  0.10000000000E+04  0.00000000000E+00 0.  1.
    9000005    2    1    2  501    0  0.15516617564E+02 -0.45452405412E+02 -0.87576902720E+03  0.10899396068E+04  0.64706280294E+03 0.  0.
         13    1    3    3    0    0  0.16339972615E+03  0.25963435300E+03 -0.36365937322E+03  0.47577054080E+03  0.00000000000E+00 0.  1.
          1    1    3    3  501    0 -0.14788310858E+03 -0.30508675841E+03 -0.51210965398E+03  0.61416906602E+03  0.00000000000E+00 0.  1.
         -3    1    1    2    0  502 -0.15516617564E+02  0.45452405412E+02  0.16487952070E+02  0.50779318052E+02  0.00000000000E+00 0. -1.
<mgrwt>
<rscale>  1 0.64884278E+03</rscale>
<asrwt>0</asrwt>
<pdfrwt beam="1">  1       21 0.21649065E-01 0.64884278E+03</pdfrwt>
<pdfrwt beam="2">0</pdfrwt>
<totfact> 0.19269107E+03</totfact>
</mgrwt>
</event>
<event>
 6    1  0.1386179E-004  0.7011361E+03  0.7818608E-02  0.9715291E-01
         21   -1    0    0  501  502  0.00000000000E+00  0.00000000000E+00  0.24770317634E+03  0.24770317634E+03  0.00000000000E+00 0. -1.
         13   -1    0    0    0    0 -0.00000000000E+00 -0.00000000000E+00 -0.10000000000E+04  0.10000000000E+04  0.00000000000E+00 0.  1.
    9000005    2    1    2  501    0 -0.14978598611E+03  0.20903260008E+03 -0.68869052442E+03  0.98279520962E+03  0.65227395786E+03 0.  0.
         13    1    3    3    0    0  0.72992074952E+02  0.12489124797E+03 -0.72730090757E+03  0.74154721831E+03  0.00000000000E+00 0.  1.
          3    1    3    3  501    0 -0.22277806106E+03  0.84141352104E+02  0.38610383156E+02  0.24124799131E+03  0.00000000000E+00 0.  1.
         -3    1    1    2    0  502  0.14978598611E+03 -0.20903260008E+03 -0.63606299245E+02  0.26490796672E+03  0.00000000000E+00 0. -1.
<mgrwt>
<rscale>  1 0.70113607E+03</rscale>
<asrwt>0</asrwt>
<pdfrwt beam="1">  1       21 0.38108180E-01 0.70113607E+03</pdfrwt>
<pdfrwt beam="2">0</pdfrwt>
<totfact> 0.62189788E+02</totfact>
</mgrwt>
</event>
<event>
 6    1  0.1386179E-004  0.6268236E+03  0.7818608E-02  0.9851267E-01
         21   -1    0    0  501  502  0.00000000000E+00  0.00000000000E+00  0.17573616723E+03  0.17573616723E+03  0.00000000000E+00 0.  1.
         13   -1    0    0    0    0 -0.00000000000E+00 -0.00000000000E+00 -0.10000000000E+04  0.10000000000E+04  0.00000000000E+00 0.  1.
    9000005    2    1    2  501    0 -0.53109239452E+02 -0.18391806529E+03 -0.73051744214E+03  0.96258168848E+03  0.59687630852E+03 0.  0.
         13    1    3    3    0    0 -0.25877571499E+03  0.90399016693E+02 -0.41034463492E+03  0.49347702307E+03  0.00000000000E+00 0.  1.
          1    1    3    3  501    0  0.20566647554E+03 -0.27431708199E+03 -0.32017280722E+03  0.46910466541E+03  0.00000000000E+00 0.  1.
         -3    1    1    2    0  502  0.53109239452E+02  0.18391806529E+03 -0.93746390625E+02  0.21315447875E+03  0.00000000000E+00 0. -1.
<mgrwt>
<rscale>  1 0.62682356E+03</rscale>
<asrwt>0</asrwt>
<pdfrwt beam="1">  1       21 0.27036333E-01 0.62682356E+03</pdfrwt>
<pdfrwt beam="2">0</pdfrwt>
<totfact> 0.12498408E+03</totfact>
</mgrwt>
</event>
<event>
 6    1  0.1386179E-004  0.6500253E+03  0.7818608E-02  0.9806732E-01
         21   -1    0    0  501  502  0.00000000000E+00  0.00000000000E+00  0.12176213924E+03  0.12176213924E+03  0.00000000000E+00 0.  1.
         13   -1    0    0    0    0 -0.00000000000E+00 -0.00000000000E+00 -0.10000000000E+04  0.10000000000E+04  0.00000000000E+00 0.  1.
    9000005    2    1    2  501    0 -0.20687723559E+02 -0.35519349222E+01 -0.88643582014E+03  0.10992276172E+04  0.64968630348E+03 0.  0.
         13    1    3    3    0    0  0.30267288940E+03  0.12414094066E+02 -0.28363474820E+03  0.41498633483E+03  0.00000000000E+00 0.  1.
          1    1    3    3  501    0 -0.32336061296E+03 -0.15966028988E+02 -0.60280107194E+03  0.68424128232E+03  0.00000000000E+00 0.  1.
         -1    1    1    2    0  502  0.20687723559E+02  0.35519349222E+01  0.81979593875E+01  0.22534522091E+02  0.00000000000E+00 0. -1.
<mgrwt>
<rscale>  1 0.65002530E+03</rscale>
<asrwt>0</asrwt>
<pdfrwt beam="1">  1       21 0.18732636E-01 0.65002530E+03</pdfrwt>
<pdfrwt beam="2">0</pdfrwt>
<totfact> 0.25434567E+03</totfact>
</mgrwt>
</event>
<event>
 6    1  0.1386179E-004  0.6679753E+03  0.7818608E-02  0.9773622E-01
         21   -1    0    0  501  502  0.00000000000E+00  0.00000000000E+00  0.19547489070E+03  0.19547489070E+03  0.00000000000E+00 0.  1.
         13   -1    0    0    0    0 -0.00000000000E+00 -0.00000000000E+00 -0.10000000000E+04  0.10000000000E+04  0.00000000000E+00 0.  1.
    9000005    2    1    2  501    0 -0.13252159003E+02 -0.19727001057E+03 -0.50853162774E+03  0.83952093593E+03  0.63804381407E+03 0.  0.
         13    1    3    3    0    0  0.25579927792E+03 -0.40607196142E+02 -0.19424318950E+02  0.25972970398E+03  0.00000000000E+00 0.  1.
          3    1    3    3  501    0 -0.26905143693E+03 -0.15666281442E+03 -0.48910730879E+03  0.57979123195E+03  0.00000000000E+00 0.  1.
         -1    1    1    2    0  502  0.13252159003E+02  0.19727001057E+03 -0.29599348156E+03  0.35595395477E+03  0.00000000000E+00 0. -1.
<mgrwt>
<rscale>  1 0.66797529E+03</rscale>
<asrwt>0</asrwt>
<pdfrwt beam="1">  1       21 0.30073059E-01 0.66797529E+03</pdfrwt>
<pdfrwt beam="2">0</pdfrwt>
<totfact> 0.10087346E+03</totfact>
</mgrwt>
</event>
<event>
 6    1  0.1386179E-004  0.6454913E+03  0.7818608E-02  0.9815276E-01
         21   -1    0    0  501  502  0.00000000000E+00  0.00000000000E+00  0.30409585682E+03  0.30409585682E+03  0.00000000000E+00 0. -1.
         13   -1    0    0    0    0 -0.00000000000E+00 -0.00000000000E+00 -0.10000000000E+04  0.10000000000E+04  0.00000000000E+00 0.  1.
    9000005    2    1    2  501    0  0.29924481071E+02 -0.42399172901E+01 -0.89457318543E+03  0.11031410365E+04  0.64478330532E+03 0.  0.
         13    1    3    3    0    0 -0.19799467034E+03 -0.23764799049E+03 -0.53214537450E+03  0.61551373378E+03  0.00000000000E+00 0.  1.
          1    1    3    3  501    0  0.22791915141E+03  0.23340807320E+03 -0.36242781093E+03  0.48762730271E+03  0.00000000000E+00 0.  1.
         -1    1    1    2    0  502 -0.29924481071E+02  0.42399172901E+01  0.19866904225E+03  0.20095482034E+03  0.00000000000E+00 0. -1.
<mgrwt>
<rscale>  1 0.64549126E+03</rscale>
<asrwt>0</asrwt>
<pdfrwt beam="1">  1       21 0.46783977E-01 0.64549126E+03</pdfrwt>
<pdfrwt beam="2">0</pdfrwt>
<totfact> 0.40662876E+02</totfact>
</mgrwt>
</event>
<event>
 6    1  0.1386179E-004  0.6485466E+03  0.7818608E-02  0.9809510E-01
         21   -1    0    0  501  502  0.00000000000E+00  0.00000000000E+00  0.11464665880E+03  0.11464665880E+03  0.00000000000E+00 0.  1.
         13   -1    0    0    0    0 -0.00000000000E+00 -0.00000000000E+00 -0.10000000000E+04  0.10000000000E+04  0.00000000000E+00 0.  1.
    9000005    2    1    2  501    0  0.19186402089E+02 -0.17984788525E+02 -0.86631718267E+03  0.10821821247E+04  0.64801320925E+03 0.  0.
         13    1    3    3    0    0 -0.13307931305E+03  0.28027243919E+03 -0.36144916973E+03  0.47634887009E+03  0.00000000000E+00 0.  1.
          3    1    3    3  501    0  0.15226571514E+03 -0.29825722771E+03 -0.50486801294E+03  0.60583325460E+03  0.00000000000E+00 0.  1.
         -1    1    1    2    0  502 -0.19186402089E+02  0.17984788525E+02 -0.19036158529E+02  0.32464534109E+02  0.00000000000E+00 0. -1.
<mgrwt>
<rscale>  1 0.64854660E+03</rscale>
<asrwt>0</asrwt>
<pdfrwt beam="1">  1       21 0.17637947E-01 0.64854660E+03</pdfrwt>
<pdfrwt beam="2">0</pdfrwt>
<totfact> 0.28517471E+03</totfact>
</mgrwt>
</event>
<event>
 6    1  0.1386179E-004  0.6494607E+03  0.7818608E-02  0.9807792E-01
         21   -1    0    0  501  502  0.00000000000E+00  0.00000000000E+00  0.16082344985E+03  0.16082344985E+03  0.00000000000E+00 0. -1.
         13   -1    0    0    0    0 -0.00000000000E+00 -0.00000000000E+00 -0.10000000000E+04  0.10000000000E+04  0.00000000000E+00 0.  1.
    9000005    2    1    2  501    0  0.76691593252E+01 -0.20355783854E+02 -0.89217845810E+03  0.11035314243E+04  0.64909631754E+03 0.  0.
         13    1    3    3    0    0  0.26103386223E+03  0.18644949258E+03 -0.40277122621E+03  0.51490460396E+03  0.00000000000E+00 0.  1.
          1    1    3    3  501    0 -0.25336470290E+03 -0.20680527643E+03 -0.48940723189E+03  0.58862682037E+03  0.00000000000E+00 0.  1.
         -3    1    1    2    0  502 -0.76691593252E+01  0.20355783854E+02  0.53001907958E+02  0.57292025521E+02  0.00000000000E+00 0. -1.
<mgrwt>
<rscale>  1 0.64946070E+03</rscale>
<asrwt>0</asrwt>
<pdfrwt beam="1">  1       21 0.24742068E-01 0.64946070E+03</pdfrwt>
<pdfrwt beam="2">0</pdfrwt>
<totfact> 0.14861036E+03</totfact>
</mgrwt>
</event>
<event>
 6    1  0.1386179E-004  0.6480514E+03  0.7818608E-02  0.9810442E-01
         21   -1    0    0  501  502  0.00000000000E+00  0.00000000000E+00  0.20274146753E+03  0.20274146753E+03  0.00000000000E+00 0.  1.
         13   -1    0    0    0    0 -0.00000000000E+00 -0.00000000000E+00 -0.10000000000E+04  0.10000000000E+04  0.00000000000E+00 0.  1.
    9000005    2    1    2  501    0 -0.18564395825E+02  0.87287864923E+01 -0.89381654099E+03  0.11040283604E+04  0.64772662687E+03 0.  0.
         13    1    3    3    0    0  0.49026080568E+02 -0.31383764282E+03 -0.46671391835E+03  0.56455248136E+03  0.00000000000E+00 0.  1.
          3    1    3    3  501    0 -0.67590476393E+02  0.32256642932E+03 -0.42710262264E+03  0.53947587906E+03  0.00000000000E+00 0.  1.
         -1    1    1    2    0  502  0.18564395825E+02 -0.87287864923E+01  0.96558008518E+02  0.98713107108E+02  0.00000000000E+00 0. -1.
<mgrwt>
<rscale>  1 0.64805140E+03</rscale>
<asrwt>0</asrwt>
<pdfrwt beam="1">  1       21 0.31190994E-01 0.64805140E+03</pdfrwt>
<pdfrwt beam="2">0</pdfrwt>
<totfact> 0.93866092E+02</totfact>
</mgrwt>
</event>
<event>
 6    1  0.1386179E-004  0.6717432E+03  0.7818608E-02  0.9766814E-01
         21   -1    0    0  501  502  0.00000000000E+00  0.00000000000E+00  0.14043618556E+03  0.14043618556E+03  0.00000000000E+00 0.  1.
         13   -1    0    0    0    0 -0.00000000000E+00 -0.00000000000E+00 -0.10000000000E+04  0.10000000000E+04  0.00000000000E+00 0.  1.
    9000005    2    1    2  501    0 -0.37804759453E+02  0.22916242858E+02 -0.86575486044E+03  0.10957967067E+04  0.67028694599E+03 0.  0.
         13    1    3    3    0    0 -0.34118632189E+02  0.19468177191E+03 -0.89928615106E+03  0.92075005016E+03  0.00000000000E+00 0.  1.
          3    1    3    3  501    0 -0.36861272638E+01 -0.17176552906E+03  0.33531290626E+02  0.17504665651E+03  0.00000000000E+00 0.  1.
         -1    1    1    2    0  502  0.37804759453E+02 -0.22916242858E+02  0.61910459938E+01  0.44639478878E+02  0.00000000000E+00 0. -1.
<mgrwt>
<rscale>  1 0.67174321E+03</rscale>
<asrwt>0</asrwt>
<pdfrwt beam="1">  1       21 0.21605566E-01 0.67174321E+03</pdfrwt>
<pdfrwt beam="2">0</pdfrwt>
<totfact> 0.19325101E+03</totfact>
</mgrwt>
</event>
<event>
 6    1  0.1386179E-004  0.6718876E+03  0.7818608E-02  0.9766554E-01
         21   -1    0    0  501  502  0.00000000000E+00  0.00000000000E+00  0.28646918823E+03  0.28646918823E+03  0.00000000000E+00 0. -1.
         13   -1    0    0    0    0 -0.00000000000E+00 -0.00000000000E+00 -0.10000000000E+04  0.10000000000E+04  0.00000000000E+00 0.  1.
    9000005    2    1    2  501    0  0.96657483180E+02  0.68749507583E+02 -0.86423546403E+03  0.10946853097E+04  0.66133488200E+03 0.  0.
         13    1    3    3    0    0  0.17096247328E+03  0.29872996491E+03 -0.75440661583E+03  0.82921474975E+03  0.00000000000E+00 0.  1.
          3    1    3    3  501    0 -0.74304990095E+02 -0.22998045732E+03 -0.10982884820E+03  0.26547055995E+03  0.00000000000E+00 0.  1.
         -1    1    1    2    0  502 -0.96657483180E+02 -0.68749507583E+02  0.15070465226E+03  0.19178387852E+03  0.00000000000E+00 0. -1.
<mgrwt>
<rscale>  1 0.67188763E+03</rscale>
<asrwt>0</asrwt>
<pdfrwt beam="1">  1       21 0.44072182E-01 0.67188763E+03</pdfrwt>
<pdfrwt beam="2">0</pdfrwt>
<totfact> 0.46027810E+02</totfact>
</mgrwt>
</event>
<event>
 6    1  0.1386179E-004  0.5458238E+03  0.7818608E-02  0.1002465E+00
         21   -1    0    0  501  502  0.00000000000E+00  0.00000000000E+00  0.12096975875E+03  0.12096975875E+03  0.00000000000E+00 0.  1.
         13   -1    0    0    0    0 -0.00000000000E+00 -0.00000000000E+00 -0.10000000000E+04  0.10000000000E+04  0.00000000000E+00 0.  1.
    9000005    2    1    2  501    0 -0.18802352969E+02  0.14577912898E+03 -0.73168706763E+03  0.91284697351E+03  0.52566010804E+03 0.  0.
         13    1    3    3    0    0 -0.16307606202E+03 -0.11902812555E+03 -0.13087680834E+03  0.24060389780E+03  0.00000000000E+00 0.  1.
          1    1    3    3  501    0  0.14427370905E+03  0.26480725453E+03 -0.60081025929E+03  0.67224307571E+03  0.00000000000E+00 0.  1.
         -3    1    1    2    0  502  0.18802352969E+02 -0.14577912898E+03 -0.14734317362E+03  0.20812278524E+03  0.00000000000E+00 0. -1.
<mgrwt>
<rscale>  1 0.54582381E+03</rscale>
<asrwt>0</asrwt>
<pdfrwt beam="1">  1       21 0.18610732E-01 0.54582381E+03</pdfrwt>
<pdfrwt beam="2">0</pdfrwt>
<totfact> 0.25854161E+03</totfact>
</mgrwt>
</event>
<event>
 6    1  0.1386179E-004  0.8508563E+03  0.7818608E-02  0.9489188E-01
         21   -1    0    0  501  502  0.00000000000E+00  0.00000000000E+00  0.52169823329E+03  0.52169823329E+03  0.00000000000E+00 0. -1.
         13   -1    0    0    0    0 -0.00000000000E+00 -0.00000000000E+00 -0.10000000000E+04  0.10000000000E+04  0.00000000000E+00 0.  1.
    9000005    2    1    2  501    0 -0.51756783470E+03  0.20301666595E+03 -0.45587213735E+03  0.96528533045E+03  0.64409947477E+03 0.  0.
         13    1    3    3    0    0 -0.48302865827E+01 -0.77233381680E+02 -0.36599330318E+03  0.37408478302E+03  0.00000000000E+00 0.  1.
          1    1    3    3  501    0 -0.51273754812E+03  0.28025004763E+03 -0.89878834167E+02  0.59120054743E+03  0.00000000000E+00 0.  1.
         -3    1    1    2    0  502  0.51756783470E+03 -0.20301666595E+03 -0.22429629369E+02  0.55641290284E+03  0.00000000000E+00 0. -1.
<mgrwt>
<rscale>  1 0.85085625E+03</rscale>
<asrwt>0</asrwt>
<pdfrwt beam="1">  1       21 0.80261264E-01 0.85085625E+03</pdfrwt>
<pdfrwt beam="2">0</pdfrwt>
<totfact> 0.11987347E+02</totfact>
</mgrwt>
</event>
<event>
 6    1  0.1386179E-004  0.6586974E+03  0.7818608E-02  0.9790595E-01
         21   -1    0    0  501  502  0.00000000000E+00  0.00000000000E+00  0.14896916762E+03  0.14896916762E+03  0.00000000000E+00 0.  1.
         13   -1    0    0    0    0 -0.00000000000E+00 -0.00000000000E+00 -0.10000000000E+04  0.10000000000E+04  0.00000000000E+00 0.  1.
    9000005    2    1    2  501    0 -0.36264994991E+02 -0.81286769381E+01 -0.88184147285E+03  0.11006936996E+04  0.65764809111E+03 0.  0.
         13    1    3    3    0    0 -0.14067568958E+02 -0.20990828064E+03 -0.87247491302E+03  0.89748083914E+03  0.00000000000E+00 0.  1.
          3    1    3    3  501    0 -0.22197426034E+02  0.20177960370E+03 -0.93665598317E+01  0.20321286041E+03  0.00000000000E+00 0.  1.
         -1    1    1    2    0  502  0.36264994991E+02  0.81286769381E+01  0.30810640471E+02  0.48275468063E+02  0.00000000000E+00 0. -1.
<mgrwt>
<rscale>  1 0.65869738E+03</rscale>
<asrwt>0</asrwt>
<pdfrwt beam="1">  1       21 0.22918333E-01 0.65869738E+03</pdfrwt>
<pdfrwt beam="2">0</pdfrwt>
<totfact> 0.17247274E+03</totfact>
</mgrwt>
</event>
<event>
 6    1  0.1386179E-004  0.6665288E+03  0.7818608E-02  0.9776249E-01
         21   -1    0    0  501  502  0.00000000000E+00  0.00000000000E+00  0.18761111674E+03  0.18761111674E+03  0.00000000000E+00 0. -1.
         13   -1    0    0    0    0 -0.00000000000E+00 -0.00000000000E+00 -0.10000000000E+04  0.10000000000E+04  0.00000000000E+00 0.  1.
    9000005    2    1    2  501    0 -0.24784568868E+02 -0.12432876036E+03 -0.82454752310E+03  0.10602543422E+04  0.65436131970E+03 0.  0.
         13    1    3    3    0    0 -0.12617508521E+03  0.15791484527E+03 -0.71166051150E+03  0.73980939039E+03  0.00000000000E+00 0.  1.
          1    1    3    3  501    0  0.10139051634E+03 -0.28224360563E+03 -0.11288701160E+03  0.32044495177E+03  0.00000000000E+00 0.  1.
         -1    1    1    2    0  502  0.24784568868E+02  0.12432876036E+03  0.12158639839E+02  0.12735677457E+03  0.00000000000E+00 0. -1.
<mgrwt>
<rscale>  1 0.66652881E+03</rscale>
<asrwt>0</asrwt>
<pdfrwt beam="1">  1       21 0.28863248E-01 0.66652881E+03</pdfrwt>
<pdfrwt beam="2">0</pdfrwt>
<totfact> 0.10951111E+03</totfact>
</mgrwt>
</event>
<event>
 6    1  0.1386179E-004  0.6622137E+03  0.7818608E-02  0.9784127E-01
         21   -1    0    0  501  502  0.00000000000E+00  0.00000000000E+00  0.13715884572E+03  0.13715884572E+03  0.00000000000E+00 0.  1.
         13   -1    0    0    0    0 -0.00000000000E+00 -0.00000000000E+00 -0.10000000000E+04  0.10000000000E+04  0.00000000000E+00 0.  1.
    9000005    2    1    2  501    0 -0.14052453518E+02 -0.71179443210E+02 -0.81557986974E+03  0.10505700843E+04  0.65822715952E+03 0.  0.
         13    1    3    3    0    0  0.20509626974E+03 -0.16690118083E+03 -0.76051154372E+03  0.80516972879E+03  0.00000000000E+00 0.  1.
          3    1    3    3  501    0 -0.21914872326E+03  0.95721737615E+02 -0.55068326019E+02  0.24540035552E+03  0.00000000000E+00 0.  1.
         -1    1    1    2    0  502  0.14052453518E+02  0.71179443210E+02 -0.47261284538E+02  0.86588761406E+02  0.00000000000E+00 0. -1.
<mgrwt>
<rscale>  1 0.66221370E+03</rscale>
<asrwt>0</asrwt>
<pdfrwt beam="1">  1       21 0.21101360E-01 0.66221370E+03</pdfrwt>
<pdfrwt beam="2">0</pdfrwt>
<totfact> 0.20234539E+03</totfact>
</mgrwt>
</event>
<event>
 6    1  0.1386179E-004  0.6393487E+03  0.7818608E-02  0.9826973E-01
         21   -1    0    0  501  502  0.00000000000E+00  0.00000000000E+00  0.24617539745E+03  0.24617539745E+03  0.00000000000E+00 0. -1.
         13   -1    0    0    0    0 -0.00000000000E+00 -0.00000000000E+00 -0.10000000000E+04  0.10000000000E+04  0.00000000000E+00 0.  1.
    9000005    2    1    2  501    0 -0.46992399017E+01 -0.22161300959E+02 -0.89682544603E+03  0.11013912569E+04  0.63894727015E+03 0.  0.
         13    1    3    3    0    0 -0.24276996095E+02 -0.32840613243E+03 -0.40927438619E+03  0.52530513376E+03  0.00000000000E+00 0.  1.
          1    1    3    3  501    0  0.19577756193E+02  0.30624483147E+03 -0.48755105984E+03  0.57608612315E+03  0.00000000000E+00 0.  1.
         -1    1    1    2    0  502  0.46992399017E+01  0.22161300959E+02  0.14300084348E+03  0.14478414054E+03  0.00000000000E+00 0. -1.
<mgrwt>
<rscale>  1 0.63934875E+03</rscale>
<asrwt>0</asrwt>
<pdfrwt beam="1">  1       21 0.37873137E-01 0.63934875E+03</pdfrwt>
<pdfrwt beam="2">0</pdfrwt>
<totfact> 0.63282132E+02</totfact>
</mgrwt>
</event>
<event>
 6    1  0.1386179E-004  0.6577864E+03  0.7818608E-02  0.9792277E-01
         21   -1    0    0  501  502  0.00000000000E+00  0.00000000000E+00  0.13985094957E+03  0.13985094957E+03  0.00000000000E+00 0.  1.
         13   -1    0    0    0    0 -0.00000000000E+00 -0.00000000000E+00 -0.10000000000E+04  0.10000000000E+04  0.00000000000E+00 0.  1.
    9000005    2    1    2  501    0 -0.49987252197E+02  0.36438582621E+02 -0.85360417172E+03  0.10776470018E+04  0.65487134823E+03 0.  0.
         13    1    3    3    0    0  0.25258103308E+03  0.11468229377E+02 -0.68544219054E+03  0.73058859499E+03  0.00000000000E+00 0.  1.
          3    1    3    3  501    0 -0.30256828527E+03  0.24970353244E+02 -0.16816198118E+03  0.34705840677E+03  0.00000000000E+00 0.  1.
         -1    1    1    2    0  502  0.49987252197E+02 -0.36438582621E+02 -0.65448787129E+01  0.62203947809E+02  0.00000000000E+00 0. -1.
<mgrwt>
<rscale>  1 0.65778642E+03</rscale>
<asrwt>0</asrwt>
<pdfrwt beam="1">  1       21 0.21515530E-01 0.65778642E+03</pdfrwt>
<pdfrwt beam="2">0</pdfrwt>
<totfact> 0.19493242E+03</totfact>
</mgrwt>
</event>
<event>
 6    1  0.1386179E-004  0.6517356E+03  0.7818608E-02  0.9803528E-01
         21   -1    0    0  501  502  0.00000000000E+00  0.00000000000E+00  0.21033291810E+03  0.21033291810E+03  0.00000000000E+00 0.  1.
         13   -1    0    0    0    0 -0.00000000000E+00 -0.00000000000E+00 -0.10000000000E+04  0.10000000000E+04  0.00000000000E+00 0.  1.
    9000005    2    1    2  501    0 -0.13967217163E+02 -0.22233347114E+02 -0.89197608870E+03  0.11047084051E+04  0.65120650530E+03 0.  0.
         13    1    3    3    0    0  0.19824611437E+03 -0.78379248322E+02 -0.85614742245E+03  0.88228863611E+03  0.00000000000E+00 0.  1.
          3    1    3    3  501    0 -0.21221333153E+03  0.56145901208E+02 -0.35828666250E+02  0.22241976897E+03  0.00000000000E+00 0.  1.
         -1    1    1    2    0  502  0.13967217163E+02  0.22233347114E+02  0.10230900680E+03  0.10562451302E+03  0.00000000000E+00 0. -1.
<mgrwt>
<rscale>  1 0.65173562E+03</rscale>
<asrwt>0</asrwt>
<pdfrwt beam="1">  1       21 0.32358910E-01 0.65173562E+03</pdfrwt>
<pdfrwt beam="2">0</pdfrwt>
<totfact> 0.87142132E+02</totfact>
</mgrwt>
</event>
<event>
 6    1  0.1386179E-004  0.6578334E+03  0.7818608E-02  0.9792190E-01
         21   -1    0    0  501  502  0.00000000000E+00  0.00000000000E+00  0.15057820964E+03  0.15057820964E+03  0.00000000000E+00 0.  1.
         13   -1    0    0    0    0 -0.00000000000E+00 -0.00000000000E+00 -0.10000000000E+04  0.10000000000E+04  0.00000000000E+00 0.  1.
    9000005    2    1    2  501    0  0.42954179370E+02 -0.10858245266E+03 -0.74573922690E+03  0.99442032634E+03  0.64738673167E+03 0.  0.
         13    1    3    3    0    0 -0.91452128505E+02  0.22181103637E+03 -0.51898399262E+03  0.57175870108E+03  0.00000000000E+00 0.  1.
          3    1    3    3  501    0  0.13440630788E+03 -0.33039348903E+03 -0.22675523428E+03  0.42266162526E+03  0.00000000000E+00 0.  1.
         -3    1    1    2    0  502 -0.42954179370E+02  0.10858245266E+03 -0.10368256346E+03  0.15615788330E+03  0.00000000000E+00 0. -1.
<mgrwt>
<rscale>  1 0.65783341E+03</rscale>
<asrwt>0</asrwt>
<pdfrwt beam="1">  1       21 0.23165878E-01 0.65783341E+03</pdfrwt>
<pdfrwt beam="2">0</pdfrwt>
<totfact> 0.16891391E+03</totfact>
</mgrwt>
</event>
<event>
 6    1  0.1386179E-004  0.6723772E+03  0.7818608E-02  0.9765673E-01
         21   -1    0    0  501  502  0.00000000000E+00  0.00000000000E+00  0.16410847716E+03  0.16410847716E+03  0.00000000000E+00 0.  1.
         13   -1    0    0    0    0 -0.00000000000E+00 -0.00000000000E+00 -0.10000000000E+04  0.10000000000E+04  0.00000000000E+00 0.  1.
    9000005    2    1    2  501    0 -0.51539986959E+02  0.10733144727E+03 -0.78773834649E+03  0.10356750772E+04  0.66175127745E+03 0.  0.
         13    1    3    3    0    0  0.18879473410E+03  0.29441855754E+03 -0.30069068856E+03  0.46123814764E+03  0.00000000000E+00 0.  1.
          1    1    3    3  501    0 -0.24033472106E+03 -0.18708711026E+03 -0.48704765793E+03  0.57443692959E+03  0.00000000000E+00 0.  1.
         -3    1    1    2    0  502  0.51539986959E+02 -0.10733144727E+03 -0.48153176344E+02  0.12843339994E+03  0.00000000000E+00 0. -1.
<mgrwt>
<rscale>  1 0.67237725E+03</rscale>
<asrwt>0</asrwt>
<pdfrwt beam="1">  1       21 0.25247457E-01 0.67237725E+03</pdfrwt>
<pdfrwt beam="2">0</pdfrwt>
<totfact> 0.14266585E+03</totfact>
</mgrwt>
</event>
<event>
 6    1  0.1386179E-004  0.6464079E+03  0.7818608E-02  0.9813543E-01
         21   -1    0    0  501  502  0.00000000000E+00  0.00000000000E+00  0.13192285627E+03  0.13192285627E+03  0.00000000000E+00 0.  1.
         13   -1    0    0    0    0 -0.00000000000E+00 -0.00000000000E+00 -0.10000000000E+04  0.10000000000E+04  0.00000000000E+00 0.  1.
    9000005    2    1    2  501    0  0.34477491866E+01  0.27304720244E+02 -0.88770580052E+03  0.10981187309E+04  0.64582174340E+03 0.  0.
         13    1    3    3    0    0 -0.28529270666E+03 -0.35029165435E+02 -0.67636956445E+03  0.73491139508E+03  0.00000000000E+00 0.  1.
          1    1    3    3  501    0  0.28874045584E+03  0.62333885679E+02 -0.21133623607E+03  0.36320733586E+03  0.00000000000E+00 0.  1.
         -1    1    1    2    0  502 -0.34477491866E+01 -0.27304720244E+02  0.19628656794E+02  0.33804125334E+02  0.00000000000E+00 0. -1.
<mgrwt>
<rscale>  1 0.64640789E+03</rscale>
<asrwt>0</asrwt>
<pdfrwt beam="1">  1       21 0.20295823E-01 0.64640789E+03</pdfrwt>
<pdfrwt beam="2">0</pdfrwt>
<totfact> 0.21822172E+03</totfact>
</mgrwt>
</event>
<event>
 6    1  0.1386179E-004  0.6917233E+03  0.7818608E-02  0.9731492E-01
         21   -1    0    0  501  502  0.00000000000E+00  0.00000000000E+00  0.25626568565E+03  0.25626568565E+03  0.00000000000E+00 0.  1.
         13   -1    0    0    0    0 -0.00000000000E+00 -0.00000000000E+00 -0.10000000000E+04  0.10000000000E+04  0.00000000000E+00 0.  1.
    9000005    2    1    2  501    0 -0.12559081107E+02 -0.24071499894E+03 -0.74309856610E+03  0.10152224418E+04  0.64836693789E+03 0.  0.
         13    1    3    3    0    0  0.17204552552E+03 -0.19656536188E+03 -0.77936547544E+03  0.82197819232E+03  0.00000000000E+00 0.  1.
          3    1    3    3  501    0 -0.18460460662E+03 -0.44149637065E+02  0.36266909347E+02  0.19324424947E+03  0.00000000000E+00 0.  1.
         -3    1    1    2    0  502  0.12559081107E+02  0.24071499894E+03 -0.63574825352E+00  0.24104324386E+03  0.00000000000E+00 0. -1.
<mgrwt>
<rscale>  1 0.69172330E+03</rscale>
<asrwt>0</asrwt>
<pdfrwt beam="1">  1       21 0.39425489E-01 0.69172330E+03</pdfrwt>
<pdfrwt beam="2">0</pdfrwt>
<totfact> 0.58008360E+02</totfact>
</mgrwt>
</event>
<event>
 6    1  0.1386179E-004  0.6536106E+03  0.7818608E-02  0.9800028E-01
         21   -1    0    0  501  502  0.00000000000E+00  0.00000000000E+00  0.62475610998E+03  0.62475610998E+03  0.00000000000E+00 0. -1.
         13   -1    0    0    0    0 -0.00000000000E+00 -0.00000000000E+00 -0.10000000000E+04  0.10000000000E+04  0.00000000000E+00 0.  1.
    9000005    2    1    2  501    0 -0.21817115906E+01  0.95197616801E+02 -0.88834789267E+03  0.11028911240E+04  0.64663707501E+03 0.  0.
         13    1    3    3    0    0 -0.19739783752E+03 -0.21196811130E+03 -0.39688688886E+03  0.49134060387E+03  0.00000000000E+00 0.  1.
          1    1    3    3  501    0  0.19521612593E+03  0.30716572810E+03 -0.49146100381E+03  0.61155052008E+03  0.00000000000E+00 0.  1.
         -1    1    1    2    0  502  0.21817115906E+01 -0.95197616801E+02  0.51310400265E+03  0.52186498603E+03  0.00000000000E+00 0. -1.
<mgrwt>
<rscale>  1 0.65361063E+03</rscale>
<asrwt>0</asrwt>
<pdfrwt beam="1">  1       21 0.96116322E-01 0.65361063E+03</pdfrwt>
<pdfrwt beam="2">0</pdfrwt>
<totfact> 0.79833140E+01</totfact>
</mgrwt>
</event>
<event>
 6    1  0.1386179E-004  0.6566816E+03  0.7818608E-02  0.9794322E-01
         21   -1    0    0  501  502  0.00000000000E+00  0.00000000000E+00  0.12213932835E+03  0.12213932835E+03  0.00000000000E+00 0.  1.
         13   -1    0    0    0    0 -0.00000000000E+00 -0.00000000000E+00 -0.10000000000E+04  0.10000000000E+04  0.00000000000E+00 0.  1.
    9000005    2    1    2  501    0 -0.39018423247E+02 -0.12911435346E+02 -0.84032773291E+03  0.10664808698E+04  0.65539423592E+03 0.  0.
         13    1    3    3    0    0 -0.22145640855E+02 -0.58024239221E+02  0.10388825119E+03  0.12103722767E+03  0.00000000000E+00 0.  1.
          3    1    3    3  501    0 -0.16872782393E+02  0.45112803874E+02 -0.94421598410E+03  0.94544364215E+03  0.00000000000E+00 0.  1.
         -3    1    1    2    0  502  0.39018423247E+02  0.12911435346E+02 -0.37532938745E+02  0.55658458533E+02  0.00000000000E+00 0. -1.
<mgrwt>
<rscale>  1 0.65668162E+03</rscale>
<asrwt>0</asrwt>
<pdfrwt beam="1">  1       21 0.18790665E-01 0.65668162E+03</pdfrwt>
<pdfrwt beam="2">0</pdfrwt>
<totfact> 0.25279089E+03</totfact>
</mgrwt>
</event>
<event>
 6    1  0.1386179E-004  0.6564363E+03  0.7818608E-02  0.9794776E-01
         21   -1    0    0  501  502  0.00000000000E+00  0.00000000000E+00  0.23484198824E+03  0.23484198824E+03  0.00000000000E+00 0. -1.
         13   -1    0    0    0    0 -0.00000000000E+00 -0.00000000000E+00 -0.10000000000E+04  0.10000000000E+04  0.00000000000E+00 0.  1.
    9000005    2    1    2  501    0 -0.88734997180E+02  0.49748995001E+01 -0.87480120752E+03  0.10937027672E+04  0.65039214391E+03 0.  0.
         13    1    3    3    0    0  0.52098473617E+02 -0.11016949156E+03  0.63854133596E+02  0.13758240513E+03  0.00000000000E+00 0.  1.
          3    1    3    3  501    0 -0.14083347080E+03  0.11514439106E+03 -0.93865534112E+03  0.95612036204E+03  0.00000000000E+00 0.  1.
         -3    1    1    2    0  502  0.88734997180E+02 -0.49748995001E+01  0.10964319576E+03  0.14113922108E+03  0.00000000000E+00 0. -1.
<mgrwt>
<rscale>  1 0.65643628E+03</rscale>
<asrwt>0</asrwt>
<pdfrwt beam="1">  1       21 0.36129536E-01 0.65643628E+03</pdfrwt>
<pdfrwt beam="2">0</pdfrwt>
<totfact> 0.69621282E+02</totfact>
</mgrwt>
</event>
<event>
 6    1  0.1386179E-004  0.6390071E+03  0.7818608E-02  0.9827628E-01
         21   -1    0    0  501  502  0.00000000000E+00  0.00000000000E+00  0.18728378083E+03  0.18728378083E+03  0.00000000000E+00 0.  1.
         13   -1    0    0    0    0 -0.00000000000E+00 -0.00000000000E+00 -0.10000000000E+04  0.10000000000E+04  0.00000000000E+00 0.  1.
    9000005    2    1    2  501    0  0.18807944065E+02  0.83370314630E+01 -0.89654662092E+03  0.11009658736E+04  0.63867579135E+03 0.  0.
         13    1    3    3    0    0 -0.18382986139E+03 -0.21625438872E+03 -0.65504028388E+03  0.71388875330E+03  0.00000000000E+00 0.  1.
          1    1    3    3  501    0  0.20263780545E+03  0.22459142018E+03 -0.24150633704E+03  0.38707712028E+03  0.00000000000E+00 0.  1.
         -3    1    1    2    0  502 -0.18807944065E+02 -0.83370314630E+01  0.83830401749E+02  0.86317907244E+02  0.00000000000E+00 0. -1.
<mgrwt>
<rscale>  1 0.63900705E+03</rscale>
<asrwt>0</asrwt>
<pdfrwt beam="1">  1       21 0.28812889E-01 0.63900705E+03</pdfrwt>
<pdfrwt beam="2">0</pdfrwt>
<totfact> 0.11007552E+03</totfact>
</mgrwt>
</event>
<event>
 6    1  0.1386179E-004  0.6271260E+03  0.7818608E-02  0.9850673E-01
         21   -1    0    0  501  502  0.00000000000E+00  0.00000000000E+00  0.13905522114E+03  0.13905522114E+03  0.00000000000E+00 0.  1.
         13   -1    0    0    0    0 -0.00000000000E+00 -0.00000000000E+00 -0.10000000000E+04  0.10000000000E+04  0.00000000000E+00 0.  1.
    9000005    2    1    2  501    0  0.10083053852E+01 -0.23650402613E+02 -0.89786772509E+03  0.10951956477E+04  0.62667910192E+03 0.  0.
         13    1    3    3    0    0  0.22473124876E+03 -0.67719071276E+02 -0.82204693947E+03  0.85489834335E+03  0.00000000000E+00 0.  1.
          1    1    3    3  501    0 -0.22372294337E+03  0.44068668663E+02 -0.75820785620E+02  0.24029730436E+03  0.00000000000E+00 0.  1.
         -1    1    1    2    0  502 -0.10083053852E+01  0.23650402613E+02  0.36922946226E+02  0.43859573430E+02  0.00000000000E+00 0. -1.
<mgrwt>
<rscale>  1 0.62712603E+03</rscale>
<asrwt>0</asrwt>
<pdfrwt beam="1">  1       21 0.21393110E-01 0.62712603E+03</pdfrwt>
<pdfrwt beam="2">0</pdfrwt>
<totfact> 0.19735544E+03</totfact>
</mgrwt>
</event>
<event>
 6    1  0.1386179E-004  0.6965968E+03  0.7818608E-02  0.9723070E-01
         21   -1    0    0  501  502  0.00000000000E+00  0.00000000000E+00  0.20002693877E+03  0.20002693877E+03  0.00000000000E+00 0. -1.
         13   -1    0    0    0    0 -0.00000000000E+00 -0.00000000000E+00 -0.10000000000E+04  0.10000000000E+04  0.00000000000E+00 0.  1.
    9000005    2    1    2  501    0 -0.19945016482E+02 -0.95930484022E+02 -0.84252485469E+03  0.10932041108E+04  0.68967139687E+03 0.  0.
         13    1    3    3    0    0 -0.33732500700E+03 -0.14380011811E+03 -0.53561558929E+03  0.64911531626E+03  0.00000000000E+00 0.  1.
          3    1    3    3  501    0  0.31737999052E+03  0.47869634085E+02 -0.30690926540E+03  0.44408879454E+03  0.00000000000E+00 0.  1.
         -1    1    1    2    0  502  0.19945016482E+02  0.95930484022E+02  0.42551793458E+02  0.10682282796E+03  0.00000000000E+00 0. -1.
<mgrwt>
<rscale>  1 0.69659680E+03</rscale>
<asrwt>0</asrwt>
<pdfrwt beam="1">  1       21 0.30773374E-01 0.69659680E+03</pdfrwt>
<pdfrwt beam="2">0</pdfrwt>
<totfact> 0.96151072E+02</totfact>
</mgrwt>
</event>
<event>
 6    1  0.1386179E-004  0.6446728E+03  0.7818608E-02  0.9816827E-01
         21   -1    0    0  501  502  0.00000000000E+00  0.00000000000E+00  0.11471663200E+03  0.11471663200E+03  0.00000000000E+00 0.  1.
         13   -1    0    0    0    0 -0.00000000000E+00 -0.00000000000E+00 -0.10000000000E+04  0.10000000000E+04  0.00000000000E+00 0.  1.
    9000005    2    1    2  501    0  0.17765053428E+02  0.16840237979E+02 -0.87784132534E+03  0.10891319738E+04  0.64420794239E+03 0.  0.
         13    1    3    3    0    0 -0.92476113973E+02 -0.21124920108E+03 -0.67745630735E+02  0.24034876137E+03  0.00000000000E+00 0.  1.
          1    1    3    3  501    0  0.11024116740E+03  0.22808943905E+03 -0.81009569461E+03  0.84878321238E+03  0.00000000000E+00 0.  1.
         -1    1    1    2    0  502 -0.17765053428E+02 -0.16840237979E+02 -0.74420426559E+01  0.25584658242E+02  0.00000000000E+00 0. -1.
<mgrwt>
<rscale>  1 0.64467283E+03</rscale>
<asrwt>0</asrwt>
<pdfrwt beam="1">  1       21 0.17648712E-01 0.64467283E+03</pdfrwt>
<pdfrwt beam="2">0</pdfrwt>
<totfact> 0.28488100E+03</totfact>
</mgrwt>
</event>
<event>
 6    1  0.1386179E-004  0.6525851E+03  0.7818608E-02  0.9801941E-01
         21   -1    0    0  501  502  0.00000000000E+00  0.00000000000E+00  0.12195410290E+03  0.12195410290E+03  0.00000000000E+00 0.  1.
         13   -1    0    0    0    0 -0.00000000000E+00 -0.00000000000E+00 -0.10000000000E+04  0.10000000000E+04  0.00000000000E+00 0.  1.
    9000005    2    1    2  501    0  0.79701349668E+01 -0.30312374864E+02 -0.87339410449E+03  0.10902681076E+04  0.65183197349E+03 0.  0.
         13    1    3    3    0    0 -0.83482108479E+02  0.22949608310E+03 -0.74944523718E+03  0.78822958465E+03  0.00000000000E+00 0.  1.
          3    1    3    3  501    0  0.91452243446E+02 -0.25980845797E+03 -0.12394886732E+03  0.30203852299E+03  0.00000000000E+00 0.  1.
         -3    1    1    2    0  502 -0.79701349668E+01  0.30312374864E+02 -0.46517926033E+01  0.31685995261E+02  0.00000000000E+00 0. -1.
<mgrwt>
<rscale>  1 0.65258508E+03</rscale>
<asrwt>0</asrwt>
<pdfrwt beam="1">  1       21 0.18762169E-01 0.65258508E+03</pdfrwt>
<pdfrwt beam="2">0</pdfrwt>
<totfact> 0.25356017E+03</totfact>
</mgrwt>
</event>
<event>
 6    1  0.1386179E-004  0.6394249E+03  0.7818608E-02  0.9826827E-01
         21   -1    0    0  501  502  0.00000000000E+00  0.00000000000E+00  0.14847040496E+03  0.14847040496E+03  0.00000000000E+00 0. -1.
         13   -1    0    0    0    0 -0.00000000000E+00 -0.00000000000E+00 -0.10000000000E+04  0.10000000000E+04  0.00000000000E+00 0.  1.
    9000005    2    1    2  501    0  0.29893825423E+02  0.72512710076E+01 -0.89207866765E+03  0.10975739511E+04  0.63868459120E+03 0.  0.
         13    1    3    3    0    0  0.10555073411E+03  0.10642730028E+03  0.41633046627E+02  0.15556682901E+03  0.00000000000E+00 0.  1.
          1    1    3    3  501    0 -0.75656908682E+02 -0.99176029276E+02 -0.93371171428E+03  0.94200712205E+03  0.00000000000E+00 0.  1.
         -1    1    1    2    0  502 -0.29893825423E+02 -0.72512710076E+01  0.40549072614E+02  0.50896453899E+02  0.00000000000E+00 0. -1.
<mgrwt>
<rscale>  1 0.63942492E+03</rscale>
<asrwt>0</asrwt>
<pdfrwt beam="1">  1       21 0.22841600E-01 0.63942492E+03</pdfrwt>
<pdfrwt beam="2">0</pdfrwt>
<totfact> 0.17375737E+03</totfact>
</mgrwt>
</event>
<event>
 6    1  0.1386179E-004  0.6339730E+03  0.7818608E-02  0.9837326E-01
         21   -1    0    0  501  502  0.00000000000E+00  0.00000000000E+00  0.16555599738E+03  0.16555599738E+03  0.00000000000E+00 0.  1.
         13   -1    0    0    0    0 -0.00000000000E+00 -0.00000000000E+00 -0.10000000000E+04  0.10000000000E+04  0.00000000000E+00 0.  1.
    9000005    2    1    2  501    0  0.19342946259E+02 -0.24655115976E+02 -0.89534183260E+03  0.10970682612E+04  0.63319803235E+03 0.  0.
         13    1    3    3    0    0  0.48956426323E+02  0.20272035946E+03 -0.41063190176E+02  0.21255225571E+03  0.00000000000E+00 0.  1.
          1    1    3    3  501    0 -0.29613480064E+02 -0.22737547544E+03 -0.85427864242E+03  0.88451600547E+03  0.00000000000E+00 0.  1.
         -3    1    1    2    0  502 -0.19342946259E+02  0.24655115976E+02  0.60897829977E+02  0.68487736199E+02  0.00000000000E+00 0. -1.
<mgrwt>
<rscale>  1 0.63397301E+03</rscale>
<asrwt>0</asrwt>
<pdfrwt beam="1">  1       21 0.25470153E-01 0.63397301E+03</pdfrwt>
<pdfrwt beam="2">0</pdfrwt>
<totfact> 0.14051120E+03</totfact>
</mgrwt>
</event>
<event>
 6    1  0.1386179E-004  0.6518594E+03  0.7818608E-02  0.9803296E-01
         21   -1    0    0  501  502  0.00000000000E+00  0.00000000000E+00  0.62637906004E+03  0.62637906004E+03  0.00000000000E+00 0. -1.
         13   -1    0    0    0    0 -0.00000000000E+00 -0.00000000000E+00 -0.10000000000E+04  0.10000000000E+04  0.00000000000E+00 0.  1.
    9000005    2    1    2  501    0  0.27255284128E+02 -0.56562099174E+02 -0.89167264594E+03  0.11045364673E+04  0.64882862020E+03 0.  0.
         13    1    3    3    0    0  0.65519805041E+02  0.28757999871E+03 -0.51041454827E+03  0.58950666798E+03  0.00000000000E+00 0.  1.
          1    1    3    3  501    0 -0.38264520913E+02 -0.34414209788E+03 -0.38125809768E+03  0.51502979927E+03  0.00000000000E+00 0.  1.
         -1    1    1    2    0  502 -0.27255284128E+02  0.56562099174E+02  0.51805170599E+03  0.52184259279E+03  0.00000000000E+00 0. -1.
<mgrwt>
<rscale>  1 0.65185942E+03</rscale>
<asrwt>0</asrwt>
<pdfrwt beam="1">  1       21 0.96366006E-01 0.65185942E+03</pdfrwt>
<pdfrwt beam="2">0</pdfrwt>
<totfact> 0.79352348E+01</totfact>
</mgrwt>
</event>
<event>
 6    1  0.1386179E-004  0.6601293E+03  0.7818608E-02  0.9787956E-01
         21   -1    0    0  501  502  0.00000000000E+00  0.00000000000E+00  0.19964891341E+03  0.19964891341E+03  0.00000000000E+00 0.  1.
         13   -1    0    0    0    0 -0.00000000000E+00 -0.00000000000E+00 -0.10000000000E+04  0.10000000000E+04  0.00000000000E+00 0.  1.
    9000005    2    1    2  501    0  0.32514196298E+02  0.72908000540E+02 -0.87110639277E+03  0.10929762231E+04  0.65528461544E+03 0.  0.
         13    1    3    3    0    0  0.15006468580E+03  0.42020522634E+02 -0.94029557849E+03  0.95312166546E+03  0.00000000000E+00 0.  1.
          1    1    3    3  501    0 -0.11755048950E+03  0.30887477906E+02  0.69189185716E+02  0.13985455764E+03  0.00000000000E+00 0.  1.
         -1    1    1    2    0  502 -0.32514196298E+02 -0.72908000540E+02  0.70755306183E+02  0.10667269030E+03  0.00000000000E+00 0. -1.
<mgrwt>
<rscale>  1 0.66012929E+03</rscale>
<asrwt>0</asrwt>
<pdfrwt beam="1">  1       21 0.30715217E-01 0.66012929E+03</pdfrwt>
<pdfrwt beam="2">0</pdfrwt>
<totfact> 0.96735259E+02</totfact>
</mgrwt>
</event>
<event>
 6    1  0.1386179E-004  0.6558195E+03  0.7818608E-02  0.9795920E-01
         21   -1    0    0  501  502  0.00000000000E+00  0.00000000000E+00  0.16824202013E+03  0.16824202013E+03  0.00000000000E+00 0. -1.
         13   -1    0    0    0    0 -0.00000000000E+00 -0.00000000000E+00 -0.10000000000E+04  0.10000000000E+04  0.00000000000E+00 0.  1.
    9000005    2    1    2  501    0 -0.48295473180E+02 -0.33390345962E+02 -0.87630852681E+03  0.10945391086E+04  0.65318592927E+03 0.  0.
         13    1    3    3    0    0 -0.71705123374E+02  0.27391796737E+03 -0.18660666418E+03  0.33910872103E+03  0.00000000000E+00 0.  1.
          1    1    3    3  501    0  0.23409650194E+02 -0.30730831333E+03 -0.68970186263E+03  0.75543038758E+03  0.00000000000E+00 0.  1.
         -3    1    1    2    0  502  0.48295473180E+02  0.33390345962E+02  0.44550546936E+02  0.73702911513E+02  0.00000000000E+00 0. -1.
<mgrwt>
<rscale>  1 0.65581951E+03</rscale>
<asrwt>0</asrwt>
<pdfrwt beam="1">  1       21 0.25883387E-01 0.65581951E+03</pdfrwt>
<pdfrwt beam="2">0</pdfrwt>
<totfact> 0.13597551E+03</totfact>
</mgrwt>
</event>
<event>
 6    1  0.1386179E-004  0.6560315E+03  0.7818608E-02  0.9795527E-01
         21   -1    0    0  501  502  0.00000000000E+00  0.00000000000E+00  0.14361880376E+03  0.14361880376E+03  0.00000000000E+00 0.  1.
         13   -1    0    0    0    0 -0.00000000000E+00 -0.00000000000E+00 -0.10000000000E+04  0.10000000000E+04  0.00000000000E+00 0.  1.
    9000005    2    1    2  501    0 -0.60833362977E+02 -0.16900946598E+02 -0.85847958388E+03  0.10804464738E+04  0.65298625305E+03 0.  0.
         13    1    3    3    0    0  0.21607881708E+03  0.20748720625E+03 -0.38538534865E+03  0.48812177057E+03  0.00000000000E+00 0.  1.
          3    1    3    3  501    0 -0.27691218006E+03 -0.22438815285E+03 -0.47309423523E+03  0.59232470319E+03  0.00000000000E+00 0.  1.
         -1    1    1    2    0  502  0.60833362977E+02  0.16900946598E+02  0.20983876442E+01  0.63172330000E+02  0.00000000000E+00 0. -1.
<mgrwt>
<rscale>  1 0.65603154E+03</rscale>
<asrwt>0</asrwt>
<pdfrwt beam="1">  1       21 0.22095200E-01 0.65603154E+03</pdfrwt>
<pdfrwt beam="2">0</pdfrwt>
<totfact> 0.18517775E+03</totfact>
</mgrwt>
</event>
<event>
 6    1  0.1386179E-004  0.6514288E+03  0.7818608E-02  0.9804102E-01
         21   -1    0    0  501  502  0.00000000000E+00  0.00000000000E+00  0.16791565212E+03  0.16791565212E+03  0.00000000000E+00 0. -1.
         13   -1    0    0    0    0 -0.00000000000E+00 -0.00000000000E+00 -0.10000000000E+04  0.10000000000E+04  0.00000000000E+00 0.  1.
    9000005    2    1    2  501    0 -0.48757263146E+01 -0.59371570005E+02 -0.87759673436E+03  0.10929481034E+04  0.64869929291E+03 0.  0.
         13    1    3    3    0    0  0.20579032829E+03 -0.14415658592E+03 -0.82145726814E+03  0.85902434416E+03  0.00000000000E+00 0.  1.
          1    1    3    3  501    0 -0.21066605460E+03  0.84785015917E+02 -0.56139466217E+02  0.23392375928E+03  0.00000000000E+00 0.  1.
         -3    1    1    2    0  502  0.48757263146E+01  0.59371570005E+02  0.45512386480E+02  0.74967548680E+02  0.00000000000E+00 0. -1.
<mgrwt>
<rscale>  1 0.65142884E+03</rscale>
<asrwt>0</asrwt>
<pdfrwt beam="1">  1       21 0.25833177E-01 0.65142884E+03</pdfrwt>
<pdfrwt beam="2">0</pdfrwt>
<totfact> 0.13652819E+03</totfact>
</mgrwt>
</event>
<event>
 6    1  0.1386179E-004  0.6804582E+03  0.7818608E-02  0.9751247E-01
         21   -1    0    0  501  502  0.00000000000E+00  0.00000000000E+00  0.22552530370E+03  0.22552530370E+03  0.00000000000E+00 0. -1.
         13   -1    0    0    0    0 -0.00000000000E+00 -0.00000000000E+00 -0.10000000000E+04  0.10000000000E+04  0.00000000000E+00 0.  1.
    9000005    2    1    2  501    0  0.17231275530E+03  0.16218261224E+03 -0.70288706289E+03  0.97830136754E+03  0.63798781901E+03 0.  0.
         13    1    3    3    0    0 -0.17214947167E+03  0.35400628538E+02  0.10456735025E+02  0.17606245598E+03  0.00000000000E+00 0.  1.
          3    1    3    3  501    0  0.34446222697E+03  0.12678198370E+03 -0.71334379792E+03  0.80223891157E+03  0.00000000000E+00 0.  1.
         -1    1    1    2    0  502 -0.17231275530E+03 -0.16218261224E+03 -0.71587633405E+02  0.24722393616E+03  0.00000000000E+00 0. -1.
<mgrwt>
<rscale>  1 0.68045819E+03</rscale>
<asrwt>0</asrwt>
<pdfrwt beam="1">  1       21 0.34696200E-01 0.68045819E+03</pdfrwt>
<pdfrwt beam="2">0</pdfrwt>
<totfact> 0.75494906E+02</totfact>
</mgrwt>
</event>
<event>
 6    1  0.1386179E-004  0.6510923E+03  0.7818608E-02  0.9804732E-01
         21   -1    0    0  501  502  0.00000000000E+00  0.00000000000E+00  0.35480127872E+03  0.35480127872E+03  0.00000000000E+00 0. -1.
         13   -1    0    0    0    0 -0.00000000000E+00 -0.00000000000E+00 -0.10000000000E+04  0.10000000000E+04  0.00000000000E+00 0.  1.
    9000005    2    1    2  501    0 -0.12622890139E+02 -0.40894924158E+02 -0.89198227441E+03  0.11043340069E+04  0.64968414530E+03 0.  0.
         13    1    3    3    0    0  0.18989134500E+02 -0.30871271303E+03 -0.72224635731E+03  0.78568691415E+03  0.00000000000E+00 0.  1.
          3    1    3    3  501    0 -0.31612024639E+02  0.26781778887E+03 -0.16973591710E+03  0.31864709271E+03  0.00000000000E+00 0.  1.
         -1    1    1    2    0  502  0.12622890139E+02  0.40894924158E+02  0.24678355314E+03  0.25046727187E+03  0.00000000000E+00 0. -1.
<mgrwt>
<rscale>  1 0.65109233E+03</rscale>
<asrwt>0</asrwt>
<pdfrwt beam="1">  1       21 0.54584811E-01 0.65109233E+03</pdfrwt>
<pdfrwt beam="2">0</pdfrwt>
<totfact> 0.29183589E+02</totfact>
</mgrwt>
</event>
<event>
 6    1  0.1386179E-004  0.6386262E+03  0.7818608E-02  0.9828359E-01
         21   -1    0    0  501  502  0.00000000000E+00  0.00000000000E+00  0.11852576544E+03  0.11852576544E+03  0.00000000000E+00 0.  1.
         13   -1    0    0    0    0 -0.00000000000E+00 -0.00000000000E+00 -0.10000000000E+04  0.10000000000E+04  0.00000000000E+00 0.  1.
    9000005    2    1    2  501    0  0.96219775494E+01  0.44367919144E+02 -0.85046115640E+03  0.10635448077E+04  0.63701042744E+03 0.  0.
         13    1    3    3    0    0  0.73038146407E+02  0.12793431964E+03 -0.92384768936E+03  0.93551927512E+03  0.00000000000E+00 0.  1.
          3    1    3    3  501    0 -0.63416168857E+02 -0.83566400500E+02  0.73386532960E+02  0.12802553255E+03  0.00000000000E+00 0.  1.
         -3    1    1    2    0  502 -0.96219775494E+01 -0.44367919144E+02 -0.31013078156E+02  0.54980957775E+02  0.00000000000E+00 0. -1.
<mgrwt>
<rscale>  1 0.63862617E+03</rscale>
<asrwt>0</asrwt>
<pdfrwt beam="1">  1       21 0.18234733E-01 0.63862617E+03</pdfrwt>
<pdfrwt beam="2">0</pdfrwt>
<totfact> 0.26782235E+03</totfact>
</mgrwt>
</event>
<event>
 6    1  0.1386179E-004  0.7174114E+03  0.7818608E-02  0.9687911E-01
         21   -1    0    0  501  502  0.00000000000E+00  0.00000000000E+00  0.20419772000E+03  0.20419772000E+03  0.00000000000E+00 0.  1.
         13   -1    0    0    0    0 -0.00000000000E+00 -0.00000000000E+00 -0.10000000000E+04  0.10000000000E+04  0.00000000000E+00 0.  1.
    9000005    2    1    2  501    0 -0.83086508525E+02 -0.94048982288E+02 -0.80509780357E+03  0.10783605803E+04  0.70635011776E+03 0.  0.
         13    1    3    3    0    0 -0.18142371704E+03 -0.75846943508E+02  0.61483242911E+02  0.20602794253E+03  0.00000000000E+00 0.  1.
          1    1    3    3  501    0  0.98337208516E+02 -0.18202038780E+02 -0.86658104648E+03  0.87233263777E+03  0.00000000000E+00 0.  1.
         -1    1    1    2    0  502  0.83086508525E+02  0.94048982288E+02  0.92955235682E+01  0.12583713970E+03  0.00000000000E+00 0. -1.
<mgrwt>
<rscale>  1 0.71741137E+03</rscale>
<asrwt>0</asrwt>
<pdfrwt beam="1">  1       21 0.31415033E-01 0.71741137E+03</pdfrwt>
<pdfrwt beam="2">0</pdfrwt>
<totfact> 0.92122187E+02</totfact>
</mgrwt>
</event>
<event>
 6    1  0.1386179E-004  0.6530403E+03  0.7818608E-02  0.9801091E-01
         21   -1    0    0  501  502  0.00000000000E+00  0.00000000000E+00  0.14014702669E+03  0.14014702669E+03  0.00000000000E+00 0.  1.
         13   -1    0    0    0    0 -0.00000000000E+00 -0.00000000000E+00 -0.10000000000E+04  0.10000000000E+04  0.00000000000E+00 0.  1.
    9000005    2    1    2  501    0  0.40263523095E+02 -0.82000332501E+02 -0.79107794779E+03  0.10258001423E+04  0.64661921310E+03 0.  0.
         13    1    3    3    0    0 -0.21728434384E+03 -0.32231637628E+02 -0.72181316211E+03  0.75449692215E+03  0.00000000000E+00 0.  1.
          1    1    3    3  501    0  0.25754786694E+03 -0.49768694873E+02 -0.69264785682E+02  0.27130322020E+03  0.00000000000E+00 0.  1.
         -3    1    1    2    0  502 -0.40263523095E+02  0.82000332501E+02 -0.68775025523E+02  0.11434688434E+03  0.00000000000E+00 0. -1.
<mgrwt>
<rscale>  1 0.65304028E+03</rscale>
<asrwt>0</asrwt>
<pdfrwt beam="1">  1       21 0.21561080E-01 0.65304028E+03</pdfrwt>
<pdfrwt beam="2">0</pdfrwt>
<totfact> 0.19417748E+03</totfact>
</mgrwt>
</event>
<event>
 6    1  0.1386179E-004  0.6568992E+03  0.7818608E-02  0.9793919E-01
         21   -1    0    0  501  502  0.00000000000E+00  0.00000000000E+00  0.16763868917E+03  0.16763868917E+03  0.00000000000E+00 0.  1.
         13   -1    0    0    0    0 -0.00000000000E+00 -0.00000000000E+00 -0.10000000000E+04  0.10000000000E+04  0.00000000000E+00 0.  1.
    9000005    2    1    2  501    0  0.61760644705E+02  0.53613677570E+02 -0.85921507466E+03  0.10815577488E+04  0.65178816796E+03 0.  0.
         13    1    3    3    0    0 -0.25834589453E+03 -0.14084311935E+02 -0.63285593657E+03  0.68370140085E+03  0.00000000000E+00 0.  1.
          1    1    3    3  501    0  0.32010653923E+03  0.67697989505E+02 -0.22635913808E+03  0.39785634799E+03  0.00000000000E+00 0.  1.
         -3    1    1    2    0  502 -0.61760644705E+02 -0.53613677570E+02  0.26853763828E+02  0.86080940333E+02  0.00000000000E+00 0. -1.
<mgrwt>
<rscale>  1 0.65689925E+03</rscale>
<asrwt>0</asrwt>
<pdfrwt beam="1">  1       21 0.25790567E-01 0.65689925E+03</pdfrwt>
<pdfrwt beam="2">0</pdfrwt>
<totfact> 0.13693206E+03</totfact>
</mgrwt>
</event>
<event>
 6    1  0.1386179E-004  0.6462120E+03  0.7818608E-02  0.9813913E-01
         21   -1    0    0  501  502  0.00000000000E+00  0.00000000000E+00  0.12885301059E+03  0.12885301059E+03  0.00000000000E+00 0.  1.
         13   -1    0    0    0    0 -0.00000000000E+00 -0.00000000000E+00 -0.10000000000E+04  0.10000000000E+04  0.00000000000E+00 0.  1.
    9000005    2    1    2  501    0  0.13489312131E+02 -0.24575833780E+02 -0.88639199774E+03  0.10969415169E+04  0.64560358175E+03 0.  0.
         13    1    3    3    0    0 -0.30640699532E+03 -0.35332874800E+02 -0.56289096714E+03  0.64185660370E+03  0.00000000000E+00 0.  1.
          1    1    3    3  501    0  0.31989630746E+03  0.10757041020E+02 -0.32350103061E+03  0.45508491324E+03  0.00000000000E+00 0.  1.
         -1    1    1    2    0  502 -0.13489312131E+02  0.24575833780E+02  0.15245008330E+02  0.31911493647E+02  0.00000000000E+00 0. -1.
<mgrwt>
<rscale>  1 0.64621198E+03</rscale>
<asrwt>0</asrwt>
<pdfrwt beam="1">  1       21 0.19823540E-01 0.64621198E+03</pdfrwt>
<pdfrwt beam="2">0</pdfrwt>
<totfact> 0.22830374E+03</totfact>
</mgrwt>
</event>
<event>
 6    1  0.1386179E-004  0.6681552E+03  0.7818608E-02  0.9773296E-01
         21   -1    0    0  501  502  0.00000000000E+00  0.00000000000E+00  0.12229417829E+03  0.12229417829E+03  0.00000000000E+00 0.  1.
         13   -1    0    0    0    0 -0.00000000000E+00 -0.00000000000E+00 -0.10000000000E+04  0.10000000000E+04  0.00000000000E+00 0.  1.
    9000005    2    1    2  501    0  0.17559826943E+02  0.11188879974E+02 -0.87553525023E+03  0.11013597584E+04  0.66783067043E+03 0.  0.
         13    1    3    3    0    0  0.29554181789E+03 -0.12204562450E+03 -0.25686989349E+03  0.41014904945E+03  0.00000000000E+00 0.  1.
          1    1    3    3  501    0 -0.27798199095E+03  0.13323450447E+03 -0.61866535674E+03  0.69121070890E+03  0.00000000000E+00 0.  1.
         -1    1    1    2    0  502 -0.17559826943E+02 -0.11188879974E+02 -0.21705714891E+01  0.20934419933E+02  0.00000000000E+00 0. -1.
<mgrwt>
<rscale>  1 0.66815518E+03</rscale>
<asrwt>0</asrwt>
<pdfrwt beam="1">  1       21 0.18814488E-01 0.66815518E+03</pdfrwt>
<pdfrwt beam="2">0</pdfrwt>
<totfact> 0.25207935E+03</totfact>
</mgrwt>
</event>
<event>
 6    1  0.1386179E-004  0.6905415E+03  0.7818608E-02  0.9733546E-01
         21   -1    0    0  501  502  0.00000000000E+00  0.00000000000E+00  0.32866276520E+03  0.32866276520E+03  0.00000000000E+00 0. -1.
         13   -1    0    0    0    0 -0.00000000000E+00 -0.00000000000E+00 -0.10000000000E+04  0.10000000000E+04  0.00000000000E+00 0.  1.
    9000005    2    1    2  501    0  0.15268029711E+03 -0.16512041109E+03 -0.81004618114E+03  0.10644352211E+04  0.65289470895E+03 0.  0.
         13    1    3    3    0    0  0.94489927091E+00 -0.18686002130E+03 -0.87734757628E+03  0.89702638200E+03  0.00000000000E+00 0.  1.
          1    1    3    3  501    0  0.15173539784E+03  0.21739610214E+02  0.67301395141E+02  0.16740883906E+03  0.00000000000E+00 0.  1.
         -1    1    1    2    0  502 -0.15268029711E+03  0.16512041109E+03  0.13870894634E+03  0.26422754413E+03  0.00000000000E+00 0. -1.
<mgrwt>
<rscale>  1 0.69054147E+03</rscale>
<asrwt>0</asrwt>
<pdfrwt beam="1">  1       21 0.50563501E-01 0.69054147E+03</pdfrwt>
<pdfrwt beam="2">0</pdfrwt>
<totfact> 0.34302977E+02</totfact>
</mgrwt>
</event>
<event>
 6    1  0.1386179E-004  0.7021485E+03  0.7818608E-02  0.9713565E-01
         21   -1    0    0  501  502  0.00000000000E+00  0.00000000000E+00  0.25667138154E+03  0.25667138154E+03  0.00000000000E+00 0.  1.
         13   -1    0    0    0    0 -0.00000000000E+00 -0.00000000000E+00 -0.10000000000E+04  0.10000000000E+04  0.00000000000E+00 0.  1.
    9000005    2    1    2  501    0 -0.23054866850E+03  0.55387735686E+02 -0.73920398141E+03  0.10195269057E+04  0.66090248555E+03 0.  0.
         13    1    3    3    0    0 -0.34545177373E+03  0.24412863189E+03 -0.66171554986E+03  0.78536818488E+03  0.00000000000E+00 0.  1.
          3    1    3    3  501    0  0.11490310523E+03 -0.18874089621E+03 -0.77488431550E+02  0.23415872078E+03  0.00000000000E+00 0.  1.
         -1    1    1    2    0  502  0.23054866850E+03 -0.55387735686E+02 -0.41246370477E+01  0.23714447588E+03  0.00000000000E+00 0. -1.
<mgrwt>
<rscale>  1 0.70214855E+03</rscale>
<asrwt>0</asrwt>
<pdfrwt beam="1">  1       21 0.39487904E-01 0.70214855E+03</pdfrwt>
<pdfrwt beam="2">0</pdfrwt>
<totfact> 0.57773157E+02</totfact>
</mgrwt>
</event>
<event>
 6    1  0.1386179E-004  0.6508838E+03  0.7818608E-02  0.9805122E-01
         21   -1    0    0  501  502  0.00000000000E+00  0.00000000000E+00  0.14679576900E+03  0.14679576900E+03  0.00000000000E+00 0.  1.
         13   -1    0    0    0    0 -0.00000000000E+00 -0.00000000000E+00 -0.10000000000E+04  0.10000000000E+04  0.00000000000E+00 0.  1.
    9000005    2    1    2  501    0 -0.54262126827E+02 -0.48386143832E+02 -0.85440402649E+03  0.10740837560E+04  0.64681069652E+03 0.  0.
         13    1    3    3    0    0  0.28003171494E+03 -0.15914399624E+02 -0.22080224293E+03  0.35696590869E+03  0.00000000000E+00 0.  1.
          1    1    3    3  501    0 -0.33429384177E+03 -0.32471744208E+02 -0.63360178356E+03  0.71711784732E+03  0.00000000000E+00 0.  1.
         -1    1    1    2    0  502  0.54262126827E+02  0.48386143832E+02  0.11997954827E+01  0.72712012982E+02  0.00000000000E+00 0. -1.
<mgrwt>
<rscale>  1 0.65088376E+03</rscale>
<asrwt>0</asrwt>
<pdfrwt beam="1">  1       21 0.22583964E-01 0.65088376E+03</pdfrwt>
<pdfrwt beam="2">0</pdfrwt>
<totfact> 0.17753013E+03</totfact>
</mgrwt>
</event>
<event>
 6    1  0.1386179E-004  0.6470802E+03  0.7818608E-02  0.9812273E-01
         21   -1    0    0  501  502  0.00000000000E+00  0.00000000000E+00  0.12499561888E+03  0.12499561888E+03  0.00000000000E+00 0.  1.
         13   -1    0    0    0    0 -0.00000000000E+00 -0.00000000000E+00 -0.10000000000E+04  0.10000000000E+04  0.00000000000E+00 0.  1.
    9000005    2    1    2  501    0 -0.22997461382E+02  0.43319258774E+01 -0.88759237854E+03  0.10984229545E+04  0.64665687021E+03 0.  0.
         13    1    3    3    0    0 -0.23315784826E+03  0.10327881523E+02 -0.85424009859E+03  0.88554807514E+03  0.00000000000E+00 0.  1.
          1    1    3    3  501    0  0.21016038688E+03 -0.59959556461E+01 -0.33352279944E+02  0.21287487939E+03  0.00000000000E+00 0.  1.
         -1    1    1    2    0  502  0.22997461382E+02 -0.43319258774E+01  0.12587997419E+02  0.26572664353E+02  0.00000000000E+00 0. -1.
<mgrwt>
<rscale>  1 0.64708018E+03</rscale>
<asrwt>0</asrwt>
<pdfrwt beam="1">  1       21 0.19230095E-01 0.64708018E+03</pdfrwt>
<pdfrwt beam="2">0</pdfrwt>
<totfact> 0.24196422E+03</totfact>
</mgrwt>
</event>
<event>
 6    1  0.1386179E-004  0.6418523E+03  0.7818608E-02  0.9822189E-01
         21   -1    0    0  501  502  0.00000000000E+00  0.00000000000E+00  0.11539993486E+03  0.11539993486E+03  0.00000000000E+00 0.  1.
         13   -1    0    0    0    0 -0.00000000000E+00 -0.00000000000E+00 -0.10000000000E+04  0.10000000000E+04  0.00000000000E+00 0.  1.
    9000005    2    1    2  501    0 -0.54483704876E+01 -0.21167228176E+02 -0.88534385955E+03  0.10935301036E+04  0.64148000867E+03 0.  0.
         13    1    3    3    0    0  0.69719663422E+02  0.29668084817E+03 -0.32953041420E+03  0.44885482176E+03  0.00000000000E+00 0.  1.
          3    1    3    3  501    0 -0.75168033909E+02 -0.31784807635E+03 -0.55581344535E+03  0.64467528182E+03  0.00000000000E+00 0.  1.
         -3    1    1    2    0  502  0.54483704876E+01  0.21167228176E+02  0.74379440096E+00  0.21869831270E+02  0.00000000000E+00 0. -1.
<mgrwt>
<rscale>  1 0.64185227E+03</rscale>
<asrwt>0</asrwt>
<pdfrwt beam="1">  1       21 0.17753836E-01 0.64185227E+03</pdfrwt>
<pdfrwt beam="2">0</pdfrwt>
<totfact> 0.28171994E+03</totfact>
</mgrwt>
</event>
<event>
 6    1  0.1386179E-004  0.6667994E+03  0.7818608E-02  0.9775757E-01
         21   -1    0    0  501  502  0.00000000000E+00  0.00000000000E+00  0.50600306446E+03  0.50600306446E+03  0.00000000000E+00 0. -1.
         13   -1    0    0    0    0 -0.00000000000E+00 -0.00000000000E+00 -0.10000000000E+04  0.10000000000E+04  0.00000000000E+00 0.  1.
    9000005    2    1    2  501    0 -0.16842767852E+03  0.13855588984E+02 -0.86860913432E+03  0.10950357182E+04  0.64502832156E+03 0.  0.
         13    1    3    3    0    0 -0.27947149862E+03 -0.42848467493E+02 -0.76128926016E+02  0.29280697239E+03  0.00000000000E+00 0.  1.
          1    1    3    3  501    0  0.11104382009E+03  0.56704056477E+02 -0.79248020830E+03  0.80222874578E+03  0.00000000000E+00 0.  1.
         -3    1    1    2    0  502  0.16842767852E+03 -0.13855588984E+02  0.37461219878E+03  0.41096734629E+03  0.00000000000E+00 0. -1.
<mgrwt>
<rscale>  1 0.66679937E+03</rscale>
<asrwt>0</asrwt>
<pdfrwt beam="1">  1       21 0.77846623E-01 0.66679937E+03</pdfrwt>
<pdfrwt beam="2">0</pdfrwt>
<totfact> 0.13136847E+02</totfact>
</mgrwt>
</event>
<event>
 6    1  0.1386179E-004  0.6449761E+03  0.7818608E-02  0.9816252E-01
         21   -1    0    0  501  502  0.00000000000E+00  0.00000000000E+00  0.35723347953E+03  0.35723347953E+03  0.00000000000E+00 0. -1.
         13   -1    0    0    0    0 -0.00000000000E+00 -0.00000000000E+00 -0.10000000000E+04  0.10000000000E+04  0.00000000000E+00 0.  1.
    9000005    2    1    2  501    0 -0.53723113527E+02  0.27975240611E+02 -0.89199550917E+03  0.11007498040E+04  0.64212565403E+03 0.  0.
         13    1    3    3    0    0 -0.21539434506E+03  0.27042009367E+03 -0.39778676257E+03  0.52702567245E+03  0.00000000000E+00 0.  1.
          3    1    3    3  501    0  0.16167123153E+03 -0.24244485306E+03 -0.49420874660E+03  0.57372413153E+03  0.00000000000E+00 0.  1.
         -3    1    1    2    0  502  0.53723113527E+02 -0.27975240611E+02  0.24922898870E+03  0.25648367555E+03  0.00000000000E+00 0. -1.
<mgrwt>
<rscale>  1 0.64497608E+03</rscale>
<asrwt>0</asrwt>
<pdfrwt beam="1">  1       21 0.54958995E-01 0.64497608E+03</pdfrwt>
<pdfrwt beam="2">0</pdfrwt>
<totfact> 0.28771283E+02</totfact>
</mgrwt>
</event>
<event>
 6    1  0.1386179E-004  0.6870258E+03  0.7818608E-02  0.9739681E-01
         21   -1    0    0  501  502  0.00000000000E+00  0.00000000000E+00  0.21770232768E+03  0.21770232768E+03  0.00000000000E+00 0.  1.
         13   -1    0    0    0    0 -0.00000000000E+00 -0.00000000000E+00 -0.10000000000E+04  0.10000000000E+04  0.00000000000E+00 0.  1.
    9000005    2    1    2  501    0 -0.21939503321E+03 -0.76974774586E+02 -0.66946327346E+03  0.95926297679E+03  0.64648672656E+03 0.  0.
         13    1    3    3    0    0  0.99545720757E+02 -0.25248197413E+03 -0.47366432719E+03  0.54590694503E+03  0.00000000000E+00 0.  1.
          1    1    3    3  501    0 -0.31894075397E+03  0.17550719954E+03 -0.19579894626E+03  0.41335603176E+03  0.00000000000E+00 0.  1.
         -1    1    1    2    0  502  0.21939503321E+03  0.76974774586E+02 -0.11283439886E+03  0.25843935089E+03  0.00000000000E+00 0. -1.
<mgrwt>
<rscale>  1 0.68702575E+03</rscale>
<asrwt>0</asrwt>
<pdfrwt beam="1">  1       21 0.33492665E-01 0.68702575E+03</pdfrwt>
<pdfrwt beam="2">0</pdfrwt>
<totfact> 0.81080906E+02</totfact>
</mgrwt>
</event>
<event>
 6    1  0.1386179E-004  0.5913235E+03  0.7818608E-02  0.9923572E-01
         21   -1    0    0  501  502  0.00000000000E+00  0.00000000000E+00  0.16347230618E+03  0.16347230618E+03  0.00000000000E+00 0. -1.
         13   -1    0    0    0    0 -0.00000000000E+00 -0.00000000000E+00 -0.10000000000E+04  0.10000000000E+04  0.00000000000E+00 0.  1.
    9000005    2    1    2  501    0  0.83031545662E+02  0.13862472817E+02 -0.88646749175E+03  0.10655928439E+04  0.58530085360E+03 0.  0.
         13    1    3    3    0    0  0.28270376888E+03 -0.82923302164E+02 -0.23341524285E+03  0.37587281170E+03  0.00000000000E+00 0.  1.
          1    1    3    3  501    0 -0.19967222322E+03  0.96785774982E+02 -0.65305224890E+03  0.68972003215E+03  0.00000000000E+00 0.  1.
         -3    1    1    2    0  502 -0.83031545662E+02 -0.13862472817E+02  0.49939797930E+02  0.97879462324E+02  0.00000000000E+00 0. -1.
<mgrwt>
<rscale>  1 0.59132351E+03</rscale>
<asrwt>0</asrwt>
<pdfrwt beam="1">  1       21 0.25149585E-01 0.59132351E+03</pdfrwt>
<pdfrwt beam="2">0</pdfrwt>
<totfact> 0.14438784E+03</totfact>
</mgrwt>
</event>
<event>
 6    1  0.1386179E-004  0.6627852E+03  0.7818608E-02  0.9783080E-01
         21   -1    0    0  501  502  0.00000000000E+00  0.00000000000E+00  0.11802950295E+03  0.11802950295E+03  0.00000000000E+00 0.  1.
         13   -1    0    0    0    0 -0.00000000000E+00 -0.00000000000E+00 -0.10000000000E+04  0.10000000000E+04  0.00000000000E+00 0.  1.
    9000005    2    1    2  501    0 -0.23256751989E+02 -0.71164383466E+01 -0.85125029880E+03  0.10788472265E+04  0.66233884583E+03 0.  0.
         13    1    3    3    0    0  0.13993407439E+03 -0.12070712287E+03 -0.86018724660E+03  0.87981467020E+03  0.00000000000E+00 0.  1.
          3    1    3    3  501    0 -0.16319082638E+03  0.11359068453E+03  0.89369478034E+01  0.19903255629E+03  0.00000000000E+00 0.  1.
         -3    1    1    2    0  502  0.23256751989E+02  0.71164383466E+01 -0.30720198255E+02  0.39182276461E+02  0.00000000000E+00 0. -1.
<mgrwt>
<rscale>  1 0.66278523E+03</rscale>
<asrwt>0</asrwt>
<pdfrwt beam="1">  1       21 0.18158385E-01 0.66278523E+03</pdfrwt>
<pdfrwt beam="2">0</pdfrwt>
<totfact> 0.26974465E+03</totfact>
</mgrwt>
</event>
<event>
 6    1  0.1386179E-004  0.6573656E+03  0.7818608E-02  0.9793055E-01
         21   -1    0    0  501  502  0.00000000000E+00  0.00000000000E+00  0.14180515444E+03  0.14180515444E+03  0.00000000000E+00 0.  1.
         13   -1    0    0    0    0 -0.00000000000E+00 -0.00000000000E+00 -0.10000000000E+04  0.10000000000E+04  0.00000000000E+00 0.  1.
    9000005    2    1    2  501    0 -0.54470091420E+02  0.20735224920E+02 -0.86123099061E+03  0.10834428499E+04  0.65477679361E+03 0.  0.
         13    1    3    3    0    0 -0.20386758529E+02 -0.27549253943E+03 -0.15480660296E+03  0.31666519153E+03  0.00000000000E+00 0.  1.
          3    1    3    3  501    0 -0.34083332891E+02  0.29622776435E+03 -0.70642438765E+03  0.76677765840E+03  0.00000000000E+00 0.  1.
         -3    1    1    2    0  502  0.54470091420E+02 -0.20735224920E+02  0.30361450544E+01  0.58362304517E+02  0.00000000000E+00 0. -1.
<mgrwt>
<rscale>  1 0.65736564E+03</rscale>
<asrwt>0</asrwt>
<pdfrwt beam="1">  1       21 0.21816177E-01 0.65736564E+03</pdfrwt>
<pdfrwt beam="2">0</pdfrwt>
<totfact> 0.18977724E+03</totfact>
</mgrwt>
</event>
<event>
 6    1  0.1386179E-004  0.6639511E+03  0.7818608E-02  0.9780948E-01
         21   -1    0    0  501  502  0.00000000000E+00  0.00000000000E+00  0.18089729037E+03  0.18089729037E+03  0.00000000000E+00 0.  1.
         13   -1    0    0    0    0 -0.00000000000E+00 -0.00000000000E+00 -0.10000000000E+04  0.10000000000E+04  0.00000000000E+00 0.  1.
    9000005    2    1    2  501    0 -0.36755141186E+02  0.15660180688E+02 -0.88346500655E+03  0.11051431688E+04  0.66274793412E+03 0.  0.
         13    1    3    3    0    0 -0.12242487224E+03  0.29242100320E+03 -0.68255037382E+03  0.75257750781E+03  0.00000000000E+00 0.  1.
          3    1    3    3  501    0  0.85669731056E+02 -0.27676082251E+03 -0.20091463273E+03  0.35256566104E+03  0.00000000000E+00 0.  1.
         -1    1    1    2    0  502  0.36755141186E+02 -0.15660180688E+02  0.64362296926E+02  0.75754121527E+02  0.00000000000E+00 0. -1.
<mgrwt>
<rscale>  1 0.66395106E+03</rscale>
<asrwt>0</asrwt>
<pdfrwt beam="1">  1       21 0.27830352E-01 0.66395106E+03</pdfrwt>
<pdfrwt beam="2">0</pdfrwt>
<totfact> 0.11776505E+03</totfact>
</mgrwt>
</event>
<event>
 6    1  0.1386179E-004  0.6429308E+03  0.7818608E-02  0.9820135E-01
         21   -1    0    0  501  502  0.00000000000E+00  0.00000000000E+00  0.48119421912E+03  0.48119421912E+03  0.00000000000E+00 0. -1.
         13   -1    0    0    0    0 -0.00000000000E+00 -0.00000000000E+00 -0.10000000000E+04  0.10000000000E+04  0.00000000000E+00 0.  1.
    9000005    2    1    2  501    0 -0.10384000599E+03  0.20035684868E+02 -0.88847306147E+03  0.10966970490E+04  0.63417336806E+03 0.  0.
         13    1    3    3    0    0 -0.23792872719E+03  0.26741372238E+03 -0.55445384858E+03  0.65995397442E+03  0.00000000000E+00 0.  1.
          3    1    3    3  501    0  0.13408872120E+03 -0.24737803751E+03 -0.33401921289E+03  0.43674307456E+03  0.00000000000E+00 0.  1.
         -3    1    1    2    0  502  0.10384000599E+03 -0.20035684868E+02  0.36966728059E+03  0.38449717015E+03  0.00000000000E+00 0. -1.
<mgrwt>
<rscale>  1 0.64293082E+03</rscale>
<asrwt>0</asrwt>
<pdfrwt beam="1">  1       21 0.74029878E-01 0.64293082E+03</pdfrwt>
<pdfrwt beam="2">0</pdfrwt>
<totfact> 0.14795922E+02</totfact>
</mgrwt>
</event>
<event>
 6    1  0.1386179E-004  0.6270138E+03  0.7818608E-02  0.9850893E-01
         21   -1    0    0  501  502  0.00000000000E+00  0.00000000000E+00  0.16290899458E+03  0.16290899458E+03  0.00000000000E+00 0.  1.
         13   -1    0    0    0    0 -0.00000000000E+00 -0.00000000000E+00 -0.10000000000E+04  0.10000000000E+04  0.00000000000E+00 0.  1.
    9000005    2    1    2  501    0 -0.11370520758E+03 -0.12247775745E+02 -0.84035975827E+03  0.10484993491E+04  0.61649613091E+03 0.  0.
         13    1    3    3    0    0 -0.45609121344E+02  0.32253045606E+02 -0.92756334150E+03  0.92924388801E+03  0.00000000000E+00 0.  1.
          3    1    3    3  501    0 -0.68096086240E+02 -0.44500821351E+02  0.87203583238E+02  0.11925546106E+03  0.00000000000E+00 0.  1.
         -3    1    1    2    0  502  0.11370520758E+03  0.12247775745E+02  0.32687528491E+01  0.11440964552E+03  0.00000000000E+00 0. -1.
<mgrwt>
<rscale>  1 0.62701384E+03</rscale>
<asrwt>0</asrwt>
<pdfrwt beam="1">  1       21 0.25062922E-01 0.62701384E+03</pdfrwt>
<pdfrwt beam="2">0</pdfrwt>
<totfact> 0.14507857E+03</totfact>
</mgrwt>
</event>
<event>
 6    1  0.1386179E-004  0.6510349E+03  0.7818608E-02  0.9804839E-01
         21   -1    0    0  501  502  0.00000000000E+00  0.00000000000E+00  0.25113519890E+03  0.25113519890E+03  0.00000000000E+00 0. -1.
         13   -1    0    0    0    0 -0.00000000000E+00 -0.00000000000E+00 -0.10000000000E+04  0.10000000000E+04  0.00000000000E+00 0.  1.
    9000005    2    1    2  501    0 -0.15916589792E+02 -0.28181932381E+02 -0.89204027152E+03  0.11043470029E+04  0.65022988069E+03 0.  0.
         13    1    3    3    0    0  0.15549172455E+03  0.26708235690E+03 -0.44704955134E+03  0.54347397649E+03  0.00000000000E+00 0.  1.
          3    1    3    3  501    0 -0.17140831435E+03 -0.29526428928E+03 -0.44499072018E+03  0.56087302645E+03  0.00000000000E+00 0.  1.
         -1    1    1    2    0  502  0.15916589792E+02  0.28181932381E+02  0.14317547042E+03  0.14678819596E+03  0.00000000000E+00 0. -1.
<mgrwt>
<rscale>  1 0.65103491E+03</rscale>
<asrwt>0</asrwt>
<pdfrwt beam="1">  1       21 0.38636183E-01 0.65103491E+03</pdfrwt>
<pdfrwt beam="2">0</pdfrwt>
<totfact> 0.60676504E+02</totfact>
</mgrwt>
</event>
<event>
 6    1  0.1386179E-004  0.6561535E+03  0.7818608E-02  0.9795301E-01
         21   -1    0    0  501  502  0.00000000000E+00  0.00000000000E+00  0.13938285271E+03  0.13938285271E+03  0.00000000000E+00 0.  1.
         13   -1    0    0    0    0 -0.00000000000E+00 -0.00000000000E+00 -0.10000000000E+04  0.10000000000E+04  0.00000000000E+00 0.  1.
    9000005    2    1    2  501    0 -0.11228054818E+02 -0.27275704388E+02 -0.88458561829E+03  0.11013759998E+04  0.65549015525E+03 0.  0.
         13    1    3    3    0    0 -0.20034754950E+03 -0.21664198541E+03 -0.74115064972E+03  0.79773252160E+03  0.00000000000E+00 0.  1.
          1    1    3    3  501    0  0.18911949469E+03  0.18936628103E+03 -0.14343496857E+03  0.30364347822E+03  0.00000000000E+00 0.  1.
         -1    1    1    2    0  502  0.11228054818E+02  0.27275704388E+02  0.23968471000E+02  0.38006852895E+02  0.00000000000E+00 0. -1.
<mgrwt>
<rscale>  1 0.65615347E+03</rscale>
<asrwt>0</asrwt>
<pdfrwt beam="1">  1       21 0.21443515E-01 0.65615347E+03</pdfrwt>
<pdfrwt beam="2">0</pdfrwt>
<totfact> 0.19621232E+03</totfact>
</mgrwt>
</event>
<event>
 6    1  0.1386179E-004  0.6599697E+03  0.7818608E-02  0.9788250E-01
         21   -1    0    0  501  502  0.00000000000E+00  0.00000000000E+00  0.23704913133E+03  0.23704913133E+03  0.00000000000E+00 0.  1.
         13   -1    0    0    0    0 -0.00000000000E+00 -0.00000000000E+00 -0.10000000000E+04  0.10000000000E+04  0.00000000000E+00 0.  1.
    9000005    2    1    2  501    0 -0.99750891105E+02  0.40600861377E+02 -0.86544721582E+03  0.10883744146E+04  0.65112311640E+03 0.  0.
         13    1    3    3    0    0 -0.99432673187E+02 -0.18541398444E+03 -0.17836496038E+02  0.21114767987E+03  0.00000000000E+00 0.  1.
          1    1    3    3  501    0 -0.31821791759E+00  0.22601484582E+03 -0.84761071979E+03  0.87722673471E+03  0.00000000000E+00 0.  1.
         -3    1    1    2    0  502  0.99750891105E+02 -0.40600861377E+02  0.10249634715E+03  0.14867471675E+03  0.00000000000E+00 0. -1.
<mgrwt>
<rscale>  1 0.65996968E+03</rscale>
<asrwt>0</asrwt>
<pdfrwt beam="1">  1       21 0.36469096E-01 0.65996968E+03</pdfrwt>
<pdfrwt beam="2">0</pdfrwt>
<totfact> 0.68281805E+02</totfact>
</mgrwt>
</event>
<event>
 6    1  0.1386179E-004  0.6826628E+03  0.7818608E-02  0.9747349E-01
         21   -1    0    0  501  502  0.00000000000E+00  0.00000000000E+00  0.16317453431E+03  0.16317453431E+03  0.00000000000E+00 0.  1.
         13   -1    0    0    0    0 -0.00000000000E+00 -0.00000000000E+00 -0.10000000000E+04  0.10000000000E+04  0.00000000000E+00 0.  1.
    9000005    2    1    2  501    0  0.27971446635E+02  0.52359685220E+02 -0.86124393962E+03  0.10989857477E+04  0.68007691591E+03 0.  0.
         13    1    3    3    0    0 -0.65448709735E+02 -0.30154385834E+03 -0.31085165466E+03  0.43799655628E+03  0.00000000000E+00 0.  1.
          1    1    3    3  501    0  0.93420156370E+02  0.35390354356E+03 -0.55039228497E+03  0.66098919137E+03  0.00000000000E+00 0.  1.
         -3    1    1    2    0  502 -0.27971446635E+02 -0.52359685220E+02  0.24418473931E+02  0.64188786656E+02  0.00000000000E+00 0. -1.
<mgrwt>
<rscale>  1 0.68266284E+03</rscale>
<asrwt>0</asrwt>
<pdfrwt beam="1">  1       21 0.25103774E-01 0.68266284E+03</pdfrwt>
<pdfrwt beam="2">0</pdfrwt>
<totfact> 0.14419854E+03</totfact>
</mgrwt>
</event>
<event>
 6    1  0.1386179E-004  0.6583950E+03  0.7818608E-02  0.9791153E-01
         21   -1    0    0  501  502  0.00000000000E+00  0.00000000000E+00  0.14279155393E+03  0.14279155393E+03  0.00000000000E+00 0.  1.
         13   -1    0    0    0    0 -0.00000000000E+00 -0.00000000000E+00 -0.10000000000E+04  0.10000000000E+04  0.00000000000E+00 0.  1.
    9000005    2    1    2  501    0  0.73502743330E+02  0.18645000016E+02 -0.83583982026E+03  0.10640076249E+04  0.65401355599E+03 0.  0.
         13    1    3    3    0    0 -0.17458447734E+03  0.23465029071E+03 -0.57157515035E+03  0.64205813690E+03  0.00000000000E+00 0.  1.
          1    1    3    3  501    0  0.24808722067E+03 -0.21600529069E+03 -0.26426466991E+03  0.42194948801E+03  0.00000000000E+00 0.  1.
         -3    1    1    2    0  502 -0.73502743330E+02 -0.18645000016E+02 -0.21368625813E+02  0.78783929020E+02  0.00000000000E+00 0. -1.
<mgrwt>
<rscale>  1 0.65839503E+03</rscale>
<asrwt>0</asrwt>
<pdfrwt beam="1">  1       21 0.21967931E-01 0.65839503E+03</pdfrwt>
<pdfrwt beam="2">0</pdfrwt>
<totfact> 0.18724061E+03</totfact>
</mgrwt>
</event>
<event>
 6    1  0.1386179E-004  0.6556145E+03  0.7818608E-02  0.9796301E-01
         21   -1    0    0  501  502  0.00000000000E+00  0.00000000000E+00  0.17575161688E+03  0.17575161688E+03  0.00000000000E+00 0. -1.
         13   -1    0    0    0    0 -0.00000000000E+00 -0.00000000000E+00 -0.10000000000E+04  0.10000000000E+04  0.00000000000E+00 0.  1.
    9000005    2    1    2  501    0  0.61476970229E+02  0.10192897061E+03 -0.82864448561E+03  0.10566371399E+04  0.64471810033E+03 0.  0.
         13    1    3    3    0    0 -0.12751810549E+03 -0.21031518440E+03 -0.53272138214E+03  0.58675839577E+03  0.00000000000E+00 0.  1.
          1    1    3    3  501    0  0.18899507572E+03  0.31224415501E+03 -0.29592310347E+03  0.46987874409E+03  0.00000000000E+00 0.  1.
         -1    1    1    2    0  502 -0.61476970229E+02 -0.10192897061E+03  0.43961024828E+01  0.11911447702E+03  0.00000000000E+00 0. -1.
<mgrwt>
<rscale>  1 0.65561449E+03</rscale>
<asrwt>0</asrwt>
<pdfrwt beam="1">  1       21 0.27038710E-01 0.65561449E+03</pdfrwt>
<pdfrwt beam="2">0</pdfrwt>
<totfact> 0.12475584E+03</totfact>
</mgrwt>
</event>
<event>
 6    1  0.1386179E-004  0.6599557E+03  0.7818608E-02  0.9788275E-01
         21   -1    0    0  501  502  0.00000000000E+00  0.00000000000E+00  0.22278563508E+03  0.22278563508E+03  0.00000000000E+00 0.  1.
         13   -1    0    0    0    0 -0.00000000000E+00 -0.00000000000E+00 -0.10000000000E+04  0.10000000000E+04  0.00000000000E+00 0.  1.
    9000005    2    1    2  501    0 -0.81609006419E+01  0.81625764673E+02 -0.87446945989E+03  0.10955538810E+04  0.65483746385E+03 0.  0.
         13    1    3    3    0    0  0.79890602864E+02 -0.26248939533E+03 -0.22311348725E+03  0.35364221931E+03  0.00000000000E+00 0.  1.
          3    1    3    3  501    0 -0.88051503506E+02  0.34411516000E+03 -0.65135597264E+03  0.74191166166E+03  0.00000000000E+00 0.  1.
         -3    1    1    2    0  502  0.81609006419E+01 -0.81625764673E+02  0.97255094965E+02  0.12723175411E+03  0.00000000000E+00 0. -1.
<mgrwt>
<rscale>  1 0.65995566E+03</rscale>
<asrwt>0</asrwt>
<pdfrwt beam="1">  1       21 0.34274712E-01 0.65995566E+03</pdfrwt>
<pdfrwt beam="2">0</pdfrwt>
<totfact> 0.77507957E+02</totfact>
</mgrwt>
</event>
<event>
 6    1  0.1386179E-004  0.6621770E+03  0.7818608E-02  0.9784194E-01
         21   -1    0    0  501  502  0.00000000000E+00  0.00000000000E+00  0.15356296277E+03  0.15356296277E+03  0.00000000000E+00 0.  1.
         13   -1    0    0    0    0 -0.00000000000E+00 -0.00000000000E+00 -0.10000000000E+04  0.10000000000E+04  0.00000000000E+00 0.  1.
    9000005    2    1    2  501    0 -0.38560086630E+02  0.93518792015E+02 -0.80959197940E+03  0.10459051575E+04  0.65440490579E+03 0.  0.
         13    1    3    3    0    0 -0.24049193915E+03  0.24165332680E+03 -0.22111773862E+03  0.40635668751E+03  0.00000000000E+00 0.  1.
          1    1    3    3  501    0  0.20193185252E+03 -0.14813453479E+03 -0.58847424078E+03  0.63954847003E+03  0.00000000000E+00 0.  1.
         -3    1    1    2    0  502  0.38560086630E+02 -0.93518792015E+02 -0.36845057831E+02  0.10765780523E+03  0.00000000000E+00 0. -1.
<mgrwt>
<rscale>  1 0.66217703E+03</rscale>
<asrwt>0</asrwt>
<pdfrwt beam="1">  1       21 0.23625071E-01 0.66217703E+03</pdfrwt>
<pdfrwt beam="2">0</pdfrwt>
<totfact> 0.16254516E+03</totfact>
</mgrwt>
</event>
<event>
 6    1  0.1386179E-004  0.6756288E+03  0.7818608E-02  0.9759842E-01
         21   -1    0    0  501  502  0.00000000000E+00  0.00000000000E+00  0.22001249816E+03  0.22001249816E+03  0.00000000000E+00 0.  1.
         13   -1    0    0    0    0 -0.00000000000E+00 -0.00000000000E+00 -0.10000000000E+04  0.10000000000E+04  0.00000000000E+00 0.  1.
    9000005    2    1    2  501    0 -0.82577219155E+02  0.19598008123E+03 -0.74282488524E+03  0.10041230602E+04  0.64128552181E+03 0.  0.
         13    1    3    3    0    0  0.28160459717E+03  0.76573128509E+02 -0.30128091585E+03  0.41944580510E+03  0.00000000000E+00 0.  1.
          3    1    3    3  501    0 -0.36418181633E+03  0.11940695272E+03 -0.44154396939E+03  0.58467725508E+03  0.00000000000E+00 0.  1.
         -3    1    1    2    0  502  0.82577219155E+02 -0.19598008123E+03 -0.37162616592E+02  0.21588943798E+03  0.00000000000E+00 0. -1.
<mgrwt>
<rscale>  1 0.67562883E+03</rscale>
<asrwt>0</asrwt>
<pdfrwt beam="1">  1       21 0.33848076E-01 0.67562883E+03</pdfrwt>
<pdfrwt beam="2">0</pdfrwt>
<totfact> 0.79421482E+02</totfact>
</mgrwt>
</event>
<event>
 6    1  0.1386179E-004  0.6995729E+03  0.7818608E-02  0.9717963E-01
         21   -1    0    0  501  502  0.00000000000E+00  0.00000000000E+00  0.24541391092E+03  0.24541391092E+03  0.00000000000E+00 0. -1.
         13   -1    0    0    0    0 -0.00000000000E+00 -0.00000000000E+00 -0.10000000000E+04  0.10000000000E+04  0.00000000000E+00 0.  1.
    9000005    2    1    2  501    0 -0.25812971475E+03  0.79987426534E+02 -0.65218522454E+03  0.95642450783E+03  0.64526996988E+03 0.  0.
         13    1    3    3    0    0 -0.22770904397E+03 -0.19682378678E+03 -0.60257345586E+03  0.67356201011E+03  0.00000000000E+00 0.  1.
          3    1    3    3  501    0 -0.30420670782E+02  0.27681121331E+03 -0.49611768672E+02  0.28286249772E+03  0.00000000000E+00 0.  1.
         -1    1    1    2    0  502  0.25812971475E+03 -0.79987426534E+02 -0.10240086454E+03  0.28898940310E+03  0.00000000000E+00 0. -1.
<mgrwt>
<rscale>  1 0.69957292E+03</rscale>
<asrwt>0</asrwt>
<pdfrwt beam="1">  1       21 0.37755985E-01 0.69957292E+03</pdfrwt>
<pdfrwt beam="2">0</pdfrwt>
<totfact> 0.63399649E+02</totfact>
</mgrwt>
</event>
<event>
 6    1  0.1386179E-004  0.6575696E+03  0.7818608E-02  0.9792678E-01
         21   -1    0    0  501  502  0.00000000000E+00  0.00000000000E+00  0.20172490572E+03  0.20172490572E+03  0.00000000000E+00 0.  1.
         13   -1    0    0    0    0 -0.00000000000E+00 -0.00000000000E+00 -0.10000000000E+04  0.10000000000E+04  0.00000000000E+00 0.  1.
    9000005    2    1    2  501    0 -0.32057680006E+02 -0.12635172936E+03 -0.83823682064E+03  0.10653819780E+04  0.64451946227E+03 0.  0.
         13    1    3    3    0    0 -0.16214782273E+03  0.15504030082E+03 -0.66940787043E+02  0.23411638188E+03  0.00000000000E+00 0.  1.
          1    1    3    3  501    0  0.13009014272E+03 -0.28139203018E+03 -0.77129603360E+03  0.83126559614E+03  0.00000000000E+00 0.  1.
         -3    1    1    2    0  502  0.32057680006E+02  0.12635172936E+03  0.39961726364E+02  0.13634292770E+03  0.00000000000E+00 0. -1.
<mgrwt>
<rscale>  1 0.65756961E+03</rscale>
<asrwt>0</asrwt>
<pdfrwt beam="1">  1       21 0.31034600E-01 0.65756961E+03</pdfrwt>
<pdfrwt beam="2">0</pdfrwt>
<totfact> 0.94761001E+02</totfact>
</mgrwt>
</event>
<event>
 6    1  0.1386179E-004  0.6294743E+03  0.7818608E-02  0.9846075E-01
         21   -1    0    0  501  502  0.00000000000E+00  0.00000000000E+00  0.14131417127E+03  0.14131417127E+03  0.00000000000E+00 0.  1.
         13   -1    0    0    0    0 -0.00000000000E+00 -0.00000000000E+00 -0.10000000000E+04  0.10000000000E+04  0.00000000000E+00 0.  1.
    9000005    2    1    2  501    0  0.63549863141E+01  0.29831335554E+02 -0.89480751302E+03  0.10940376390E+04  0.62873490094E+03 0.  0.
         13    1    3    3    0    0 -0.19771841453E+03  0.77872348000E+02 -0.85452521783E+03  0.88055097634E+03  0.00000000000E+00 0.  1.
          1    1    3    3  501    0  0.20407340084E+03 -0.48041012446E+02 -0.40282295190E+02  0.21348666261E+03  0.00000000000E+00 0.  1.
         -3    1    1    2    0  502 -0.63549863141E+01 -0.29831335554E+02  0.36121684284E+02  0.47276532313E+02  0.00000000000E+00 0. -1.
<mgrwt>
<rscale>  1 0.62947428E+03</rscale>
<asrwt>0</asrwt>
<pdfrwt beam="1">  1       21 0.21740641E-01 0.62947428E+03</pdfrwt>
<pdfrwt beam="2">0</pdfrwt>
<totfact> 0.19129120E+03</totfact>
</mgrwt>
</event>
<event>
 6    1  0.1386179E-004  0.6658306E+03  0.7818608E-02  0.9777519E-01
         21   -1    0    0  501  502  0.00000000000E+00  0.00000000000E+00  0.25813929226E+03  0.25813929226E+03  0.00000000000E+00 0. -1.
         13   -1    0    0    0    0 -0.00000000000E+00 -0.00000000000E+00 -0.10000000000E+04  0.10000000000E+04  0.00000000000E+00 0.  1.
    9000005    2    1    2  501    0  0.31630518096E+02  0.15270627100E+03 -0.84151538976E+03  0.10730697093E+04  0.64731040082E+03 0.  0.
         13    1    3    3    0    0  0.15369634879E+03  0.10234000253E+03  0.33911943856E+02  0.18773935039E+03  0.00000000000E+00 0.  1.
          3    1    3    3  501    0 -0.12206583069E+03  0.50366268473E+02 -0.87542733362E+03  0.88533035894E+03  0.00000000000E+00 0.  1.
         -3    1    1    2    0  502 -0.31630518096E+02 -0.15270627100E+03  0.99654682021E+02  0.18506958293E+03  0.00000000000E+00 0. -1.
<mgrwt>
<rscale>  1 0.66583065E+03</rscale>
<asrwt>0</asrwt>
<pdfrwt beam="1">  1       21 0.39713736E-01 0.66583065E+03</pdfrwt>
<pdfrwt beam="2">0</pdfrwt>
<totfact> 0.57251899E+02</totfact>
</mgrwt>
</event>
<event>
 6    1  0.1386179E-004  0.6396457E+03  0.7818608E-02  0.9826405E-01
         21   -1    0    0  501  502  0.00000000000E+00  0.00000000000E+00  0.19081629742E+03  0.19081629742E+03  0.00000000000E+00 0. -1.
         13   -1    0    0    0    0 -0.00000000000E+00 -0.00000000000E+00 -0.10000000000E+04  0.10000000000E+04  0.00000000000E+00 0.  1.
    9000005    2    1    2  501    0  0.13056537733E+02 -0.19054176104E+02 -0.89604943580E+03  0.11009319806E+04  0.63922851915E+03 0.  0.
         13    1    3    3    0    0  0.53819223670E+02  0.85372437340E+02 -0.96438094758E+03  0.96964713888E+03  0.00000000000E+00 0.  1.
          3    1    3    3  501    0 -0.40762685937E+02 -0.10442661344E+03  0.68331511781E+02  0.13128484171E+03  0.00000000000E+00 0.  1.
         -3    1    1    2    0  502 -0.13056537733E+02  0.19054176104E+02  0.86865733213E+02  0.89884316825E+02  0.00000000000E+00 0. -1.
<mgrwt>
<rscale>  1 0.63964571E+03</rscale>
<asrwt>0</asrwt>
<pdfrwt beam="1">  1       21 0.29356353E-01 0.63964571E+03</pdfrwt>
<pdfrwt beam="2">0</pdfrwt>
<totfact> 0.10604503E+03</totfact>
</mgrwt>
</event>
<event>
 6    1  0.1386179E-004  0.5444438E+03  0.7818608E-02  0.1002788E+00
         21   -1    0    0  501  502  0.00000000000E+00  0.00000000000E+00  0.10708657717E+03  0.10708657717E+03  0.00000000000E+00 0. -1.
         13   -1    0    0    0    0 -0.00000000000E+00 -0.00000000000E+00 -0.10000000000E+04  0.10000000000E+04  0.00000000000E+00 0.  1.
    9000005    2    1    2  501    0 -0.19484573965E+02  0.16938364492E+02 -0.92040303859E+03  0.10693740356E+04  0.54383133214E+03 0.  0.
         13    1    3    3    0    0  0.23462814161E+03  0.12205891755E+03 -0.37933682202E+03  0.46243396148E+03  0.00000000000E+00 0.  1.
          1    1    3    3  501    0 -0.25411271558E+03 -0.10512055306E+03 -0.54106621657E+03  0.60694007415E+03  0.00000000000E+00 0.  1.
         -1    1    1    2    0  502  0.19484573965E+02 -0.16938364492E+02  0.27489615761E+02  0.37712541534E+02  0.00000000000E+00 0. -1.
<mgrwt>
<rscale>  1 0.54444382E+03</rscale>
<asrwt>0</asrwt>
<pdfrwt beam="1">  1       21 0.16474858E-01 0.54444382E+03</pdfrwt>
<pdfrwt beam="2">0</pdfrwt>
<totfact> 0.32541007E+03</totfact>
</mgrwt>
</event>
<event>
 6    1  0.1386179E-004  0.6550862E+03  0.7818608E-02  0.9797282E-01
         21   -1    0    0  501  502  0.00000000000E+00  0.00000000000E+00  0.23130806427E+03  0.23130806427E+03  0.00000000000E+00 0.  1.
         13   -1    0    0    0    0 -0.00000000000E+00 -0.00000000000E+00 -0.10000000000E+04  0.10000000000E+04  0.00000000000E+00 0.  1.
    9000005    2    1    2  501    0 -0.52517492161E+02  0.16306178575E+02 -0.88592572492E+03  0.11018177566E+04  0.65277408061E+03 0.  0.
         13    1    3    3    0    0 -0.77210756875E+01  0.31498318218E+03 -0.26643647016E+03  0.41262866199E+03  0.00000000000E+00 0.  1.
          1    1    3    3  501    0 -0.44796416474E+02 -0.29867700360E+03 -0.61948925476E+03  0.68918909464E+03  0.00000000000E+00 0.  1.
         -3    1    1    2    0  502  0.52517492161E+02 -0.16306178575E+02  0.11723378919E+03  0.12949030763E+03  0.00000000000E+00 0. -1.
<mgrwt>
<rscale>  1 0.65508624E+03</rscale>
<asrwt>0</asrwt>
<pdfrwt beam="1">  1       21 0.35585855E-01 0.65508624E+03</pdfrwt>
<pdfrwt beam="2">0</pdfrwt>
<totfact> 0.71821577E+02</totfact>
</mgrwt>
</event>
<event>
 6    1  0.1386179E-004  0.6730975E+03  0.7818608E-02  0.9764378E-01
         21   -1    0    0  501  502  0.00000000000E+00  0.00000000000E+00  0.26564275824E+03  0.26564275824E+03  0.00000000000E+00 0.  1.
         13   -1    0    0    0    0 -0.00000000000E+00 -0.00000000000E+00 -0.10000000000E+04  0.10000000000E+04  0.00000000000E+00 0.  1.
    9000005    2    1    2  501    0 -0.12948198111E+02 -0.15665039296E+02 -0.88598009237E+03  0.11126638770E+04  0.67279055413E+03 0.  0.
         13    1    3    3    0    0 -0.31136204779E+03 -0.14596395518E+03 -0.39750498746E+03  0.52560633184E+03  0.00000000000E+00 0.  1.
          1    1    3    3  501    0  0.29841384968E+03  0.13029891588E+03 -0.48847510491E+03  0.58705754512E+03  0.00000000000E+00 0.  1.
         -1    1    1    2    0  502  0.12948198111E+02  0.15665039296E+02  0.15162285061E+03  0.15297888128E+03  0.00000000000E+00 0. -1.
<mgrwt>
<rscale>  1 0.67309745E+03</rscale>
<asrwt>0</asrwt>
<pdfrwt beam="1">  1       21 0.40868115E-01 0.67309745E+03</pdfrwt>
<pdfrwt beam="2">0</pdfrwt>
<totfact> 0.53908517E+02</totfact>
</mgrwt>
</event>
<event>
 6    1  0.1386179E-004  0.8284011E+03  0.7818608E-02  0.9519794E-01
         21   -1    0    0  501  502  0.00000000000E+00  0.00000000000E+00  0.44492486371E+03  0.44492486371E+03  0.00000000000E+00 0.  1.
         13   -1    0    0    0    0 -0.00000000000E+00 -0.00000000000E+00 -0.10000000000E+04  0.10000000000E+04  0.00000000000E+00 0.  1.
    9000005    2    1    2  501    0  0.20477159344E+02  0.50507057840E+03 -0.35580443142E+03  0.90157928580E+03  0.65630237843E+03 0.  0.
         13    1    3    3    0    0 -0.51366472736E+02  0.15013095511E+02  0.17059801245E+03  0.17879482490E+03  0.00000000000E+00 0.  1.
          1    1    3    3  501    0  0.71843632080E+02  0.49005748289E+03 -0.52640244387E+03  0.72278446090E+03  0.00000000000E+00 0.  1.
         -1    1    1    2    0  502 -0.20477159344E+02 -0.50507057840E+03 -0.19927070487E+03  0.54334557792E+03  0.00000000000E+00 0. -1.
<mgrwt>
<rscale>  1 0.82840112E+03</rscale>
<asrwt>0</asrwt>
<pdfrwt beam="1">  1       21 0.68449977E-01 0.82840112E+03</pdfrwt>
<pdfrwt beam="2">0</pdfrwt>
<totfact> 0.17348062E+02</totfact>
</mgrwt>
</event>
<event>
 6    1  0.1386179E-004  0.6469130E+03  0.7818608E-02  0.9812589E-01
         21   -1    0    0  501  502  0.00000000000E+00  0.00000000000E+00  0.16472757760E+03  0.16472757760E+03  0.00000000000E+00 0.  1.
         13   -1    0    0    0    0 -0.00000000000E+00 -0.00000000000E+00 -0.10000000000E+04  0.10000000000E+04  0.00000000000E+00 0.  1.
    9000005    2    1    2  501    0 -0.20375551994E+02  0.51318967594E+01 -0.89334043850E+03  0.11029748936E+04  0.64657171099E+03 0.  0.
         13    1    3    3    0    0 -0.65185363756E+02 -0.99876159306E+02  0.66375412548E+02  0.13649202994E+03  0.00000000000E+00 0.  1.
          3    1    3    3  501    0  0.44809811762E+02  0.10500805607E+03 -0.95971585105E+03  0.96648286370E+03  0.00000000000E+00 0.  1.
         -1    1    1    2    0  502  0.20375551994E+02 -0.51318967594E+01  0.58068016103E+02  0.61752683970E+02  0.00000000000E+00 0. -1.
<mgrwt>
<rscale>  1 0.64691304E+03</rscale>
<asrwt>0</asrwt>
<pdfrwt beam="1">  1       21 0.25342704E-01 0.64691304E+03</pdfrwt>
<pdfrwt beam="2">0</pdfrwt>
<totfact> 0.14180290E+03</totfact>
</mgrwt>
</event>
<event>
 6    1  0.1386179E-004  0.6370690E+03  0.7818608E-02  0.9831350E-01
         21   -1    0    0  501  502  0.00000000000E+00  0.00000000000E+00  0.13244226197E+03  0.13244226197E+03  0.00000000000E+00 0.  1.
         13   -1    0    0    0    0 -0.00000000000E+00 -0.00000000000E+00 -0.10000000000E+04  0.10000000000E+04  0.00000000000E+00 0.  1.
    9000005    2    1    2  501    0  0.57797191362E+02 -0.46856041920E+00 -0.86539838410E+03  0.10746028490E+04  0.63444163252E+03 0.  0.
         13    1    3    3    0    0  0.18579371711E+03 -0.19365624907E+03 -0.78452007711E+03  0.82915245855E+03  0.00000000000E+00 0.  1.
          3    1    3    3  501    0 -0.12799652575E+03  0.19318768865E+03 -0.80878306991E+02  0.24545039049E+03  0.00000000000E+00 0.  1.
         -1    1    1    2    0  502 -0.57797191362E+02  0.46856041920E+00 -0.21593539321E+01  0.57839412926E+02  0.00000000000E+00 0. -1.
<mgrwt>
<rscale>  1 0.63706901E+03</rscale>
<asrwt>0</asrwt>
<pdfrwt beam="1">  1       21 0.20375732E-01 0.63706901E+03</pdfrwt>
<pdfrwt beam="2">0</pdfrwt>
<totfact> 0.21666365E+03</totfact>
</mgrwt>
</event>
<event>
 6    1  0.1386179E-004  0.7017962E+03  0.7818608E-02  0.9714165E-01
         21   -1    0    0  501  502  0.00000000000E+00  0.00000000000E+00  0.17523124006E+03  0.17523124006E+03  0.00000000000E+00 0.  1.
         13   -1    0    0    0    0 -0.00000000000E+00 -0.00000000000E+00 -0.10000000000E+04  0.10000000000E+04  0.00000000000E+00 0.  1.
    9000005    2    1    2  501    0  0.10031786016E+03  0.62989893593E+02 -0.77831375475E+03  0.10479934026E+04  0.69172716543E+03 0.  0.
         13    1    3    3    0    0  0.37106288918E+03  0.28795653863E+02 -0.23546229573E+03  0.44040816309E+03  0.00000000000E+00 0.  1.
          1    1    3    3  501    0 -0.27074502902E+03  0.34194239730E+02 -0.54285145901E+03  0.60758523955E+03  0.00000000000E+00 0.  1.
         -3    1    1    2    0  502 -0.10031786016E+03 -0.62989893593E+02 -0.46455005196E+02  0.12723783741E+03  0.00000000000E+00 0. -1.
<mgrwt>
<rscale>  1 0.70179617E+03</rscale>
<asrwt>0</asrwt>
<pdfrwt beam="1">  1       21 0.26958652E-01 0.70179617E+03</pdfrwt>
<pdfrwt beam="2">0</pdfrwt>
<totfact> 0.12517529E+03</totfact>
</mgrwt>
</event>
<event>
 6    1  0.1386179E-004  0.6539995E+03  0.7818608E-02  0.9799303E-01
         21   -1    0    0  501  502  0.00000000000E+00  0.00000000000E+00  0.23120632681E+03  0.23120632681E+03  0.00000000000E+00 0.  1.
         13   -1    0    0    0    0 -0.00000000000E+00 -0.00000000000E+00 -0.10000000000E+04  0.10000000000E+04  0.00000000000E+00 0.  1.
    9000005    2    1    2  501    0  0.14257701116E+02 -0.35446697214E+02 -0.88981147495E+03  0.11043006188E+04  0.65288256626E+03 0.  0.
         13    1    3    3    0    0 -0.32774183048E+02 -0.18280744151E+03  0.15033093914E+02  0.18632955123E+03  0.00000000000E+00 0.  1.
          1    1    3    3  501    0  0.47031884164E+02  0.14736074430E+03 -0.90484456886E+03  0.91797106757E+03  0.00000000000E+00 0.  1.
         -1    1    1    2    0  502 -0.14257701116E+02  0.35446697214E+02  0.12101780176E+03  0.12690570802E+03  0.00000000000E+00 0. -1.
<mgrwt>
<rscale>  1 0.65399954E+03</rscale>
<asrwt>0</asrwt>
<pdfrwt beam="1">  1       21 0.35570203E-01 0.65399954E+03</pdfrwt>
<pdfrwt beam="2">0</pdfrwt>
<totfact> 0.71891873E+02</totfact>
</mgrwt>
</event>
<event>
 6    1  0.1386179E-004  0.6507511E+03  0.7818608E-02  0.9805371E-01
         21   -1    0    0  501  502  0.00000000000E+00  0.00000000000E+00  0.13521563230E+03  0.13521563230E+03  0.00000000000E+00 0.  1.
         13   -1    0    0    0    0 -0.00000000000E+00 -0.00000000000E+00 -0.10000000000E+04  0.10000000000E+04  0.00000000000E+00 0.  1.
    9000005    2    1    2  501    0 -0.24307738635E+02 -0.45348466103E+01 -0.88825442532E+03  0.11011234837E+04  0.65028114787E+03 0.  0.
         13    1    3    3    0    0  0.27592529480E+03 -0.99944278874E+02 -0.23531877311E+03  0.37616293301E+03  0.00000000000E+00 0.  1.
          3    1    3    3  501    0 -0.30023303344E+03  0.95409432264E+02 -0.65293565221E+03  0.72496055070E+03  0.00000000000E+00 0.  1.
         -3    1    1    2    0  502  0.24307738635E+02  0.45348466103E+01  0.23470057622E+02  0.34092148599E+02  0.00000000000E+00 0. -1.
<mgrwt>
<rscale>  1 0.65075111E+03</rscale>
<asrwt>0</asrwt>
<pdfrwt beam="1">  1       21 0.20802404E-01 0.65075111E+03</pdfrwt>
<pdfrwt beam="2">0</pdfrwt>
<totfact> 0.20808355E+03</totfact>
</mgrwt>
</event>
<event>
 6    1  0.1386179E-004  0.8185388E+03  0.7818608E-02  0.9533564E-01
         21   -1    0    0  501  502  0.00000000000E+00  0.00000000000E+00  0.47729586756E+03  0.47729586756E+03  0.00000000000E+00 0. -1.
         13   -1    0    0    0    0 -0.00000000000E+00 -0.00000000000E+00 -0.10000000000E+04  0.10000000000E+04  0.00000000000E+00 0.  1.
    9000005    2    1    2  501    0  0.43645969103E+03  0.25237856282E+03 -0.52624624812E+03  0.97310885122E+03  0.64483619764E+03 0.  0.
         13    1    3    3    0    0  0.59160464221E+03  0.98260873425E+02 -0.37743559411E+03  0.70859641520E+03  0.00000000000E+00 0.  1.
          3    1    3    3  501    0 -0.15514495118E+03  0.15411768939E+03 -0.14881065401E+03  0.26451243602E+03  0.00000000000E+00 0.  1.
         -3    1    1    2    0  502 -0.43645969103E+03 -0.25237856282E+03  0.35421156800E+01  0.50418701634E+03  0.00000000000E+00 0. -1.
<mgrwt>
<rscale>  1 0.81853877E+03</rscale>
<asrwt>0</asrwt>
<pdfrwt beam="1">  1       21 0.73430131E-01 0.81853877E+03</pdfrwt>
<pdfrwt beam="2">0</pdfrwt>
<totfact> 0.14786883E+02</totfact>
</mgrwt>
</event>
<event>
 6    1  0.1386179E-004  0.6118030E+03  0.7818608E-02  0.9881217E-01
         21   -1    0    0  501  502  0.00000000000E+00  0.00000000000E+00  0.11075445999E+03  0.11075445999E+03  0.00000000000E+00 0.  1.
         13   -1    0    0    0    0 -0.00000000000E+00 -0.00000000000E+00 -0.10000000000E+04  0.10000000000E+04  0.00000000000E+00 0.  1.
    9000005    2    1    2  501    0 -0.46333683894E+02 -0.14885737434E+01 -0.86179473008E+03  0.10568789268E+04  0.61004416473E+03 0.  0.
         13    1    3    3    0    0 -0.93580366514E+02  0.22386403310E+03 -0.77285275902E+03  0.81004554035E+03  0.00000000000E+00 0.  1.
          3    1    3    3  501    0  0.47246682620E+02 -0.22535260685E+03 -0.88941971058E+02  0.24683338641E+03  0.00000000000E+00 0.  1.
         -3    1    1    2    0  502  0.46333683894E+02  0.14885737434E+01 -0.27450809932E+02  0.53875533231E+02  0.00000000000E+00 0. -1.
<mgrwt>
<rscale>  1 0.61180300E+03</rscale>
<asrwt>0</asrwt>
<pdfrwt beam="1">  1       21 0.17039147E-01 0.61180300E+03</pdfrwt>
<pdfrwt beam="2">0</pdfrwt>
<totfact> 0.30477345E+03</totfact>
</mgrwt>
</event>
<event>
 6    1  0.1386179E-004  0.6636140E+03  0.7818608E-02  0.9781564E-01
         21   -1    0    0  501  502  0.00000000000E+00  0.00000000000E+00  0.12792420598E+03  0.12792420598E+03  0.00000000000E+00 0.  1.
         13   -1    0    0    0    0 -0.00000000000E+00 -0.00000000000E+00 -0.10000000000E+04  0.10000000000E+04  0.00000000000E+00 0.  1.
    9000005    2    1    2  501    0 -0.91759006319E+01 -0.48286049019E+02 -0.83368151599E+03  0.10655554617E+04  0.66179138109E+03 0.  0.
         13    1    3    3    0    0 -0.27726533607E+03  0.11051324959E+03 -0.61888903055E+03  0.68710470604E+03  0.00000000000E+00 0.  1.
          3    1    3    3  501    0  0.26808943544E+03 -0.15879929861E+03 -0.21479248544E+03  0.37845075562E+03  0.00000000000E+00 0.  1.
         -1    1    1    2    0  502  0.91759006319E+01  0.48286049019E+02 -0.38394278029E+02  0.62368744317E+02  0.00000000000E+00 0. -1.
<mgrwt>
<rscale>  1 0.66361402E+03</rscale>
<asrwt>0</asrwt>
<pdfrwt beam="1">  1       21 0.19680647E-01 0.66361402E+03</pdfrwt>
<pdfrwt beam="2">0</pdfrwt>
<totfact> 0.23133579E+03</totfact>
</mgrwt>
</event>
<event>
 6    1  0.1386179E-004  0.6449109E+03  0.7818608E-02  0.9816376E-01
         21   -1    0    0  501  502  0.00000000000E+00  0.00000000000E+00  0.21184000663E+03  0.21184000663E+03  0.00000000000E+00 0. -1.
         13   -1    0    0    0    0 -0.00000000000E+00 -0.00000000000E+00 -0.10000000000E+04  0.10000000000E+04  0.00000000000E+00 0.  1.
    9000005    2    1    2  501    0 -0.22460286341E+02 -0.24597278384E+02 -0.89317577040E+03  0.11016683043E+04  0.64405015745E+03 0.  0.
         13    1    3    3    0    0 -0.32302710573E+03 -0.92828433688E+02 -0.48953961376E+03  0.59381197578E+03  0.00000000000E+00 0.  1.
          3    1    3    3  501    0  0.30056681939E+03  0.68231155304E+02 -0.40363615664E+03  0.50785632853E+03  0.00000000000E+00 0.  1.
         -1    1    1    2    0  502  0.22460286341E+02  0.24597278384E+02  0.10501577704E+03  0.11017170233E+03  0.00000000000E+00 0. -1.
<mgrwt>
<rscale>  1 0.64491092E+03</rscale>
<asrwt>0</asrwt>
<pdfrwt beam="1">  1       21 0.32590769E-01 0.64491092E+03</pdfrwt>
<pdfrwt beam="2">0</pdfrwt>
<totfact> 0.85933921E+02</totfact>
</mgrwt>
</event>
<event>
 6    1  0.1386179E-004  0.7069594E+03  0.7818608E-02  0.9705404E-01
         21   -1    0    0  501  502  0.00000000000E+00  0.00000000000E+00  0.22574578971E+03  0.22574578971E+03  0.00000000000E+00 0.  1.
         13   -1    0    0    0    0 -0.00000000000E+00 -0.00000000000E+00 -0.10000000000E+04  0.10000000000E+04  0.00000000000E+00 0.  1.
    9000005    2    1    2  501    0  0.19284895707E+03 -0.47712248417E+02 -0.74131029102E+03  0.10243693246E+04  0.67847209721E+03 0.  0.
         13    1    3    3    0    0  0.36153820797E+03 -0.19473072671E+03 -0.67654908732E+03  0.79142188452E+03  0.00000000000E+00 0.  1.
          1    1    3    3  501    0 -0.16868925090E+03  0.14701847829E+03 -0.64761203704E+02  0.23294744007E+03  0.00000000000E+00 0.  1.
         -3    1    1    2    0  502 -0.19284895707E+03  0.47712248417E+02 -0.32943919263E+02  0.20137646513E+03  0.00000000000E+00 0. -1.
<mgrwt>
<rscale>  1 0.70695938E+03</rscale>
<asrwt>0</asrwt>
<pdfrwt beam="1">  1       21 0.34730121E-01 0.70695938E+03</pdfrwt>
<pdfrwt beam="2">0</pdfrwt>
<totfact> 0.75209739E+02</totfact>
</mgrwt>
</event>
<event>
 6    1  0.1386179E-004  0.7291532E+03  0.7818608E-02  0.9668635E-01
         21   -1    0    0  501  502  0.00000000000E+00  0.00000000000E+00  0.31062941567E+03  0.31062941567E+03  0.00000000000E+00 0.  1.
         13   -1    0    0    0    0 -0.00000000000E+00 -0.00000000000E+00 -0.10000000000E+04  0.10000000000E+04  0.00000000000E+00 0.  1.
    9000005    2    1    2  501    0 -0.17879642804E+03 -0.28401108630E+03 -0.64236378163E+03  0.97174875922E+03  0.64732832726E+03 0.  0.
         13    1    3    3    0    0 -0.23690604279E+03 -0.13613984542E+03  0.35482782618E+02  0.27553141107E+03  0.00000000000E+00 0.  1.
          3    1    3    3  501    0  0.58109614753E+02 -0.14787124087E+03 -0.67784656425E+03  0.69621734815E+03  0.00000000000E+00 0.  1.
         -1    1    1    2    0  502  0.17879642804E+03  0.28401108630E+03 -0.47006802698E+02  0.33888065645E+03  0.00000000000E+00 0. -1.
<mgrwt>
<rscale>  1 0.72915322E+03</rscale>
<asrwt>0</asrwt>
<pdfrwt beam="1">  1       21 0.47789140E-01 0.72915322E+03</pdfrwt>
<pdfrwt beam="2">0</pdfrwt>
<totfact> 0.38581946E+02</totfact>
</mgrwt>
</event>
<event>
 6    1  0.1386179E-004  0.6548962E+03  0.7818608E-02  0.9797635E-01
         21   -1    0    0  501  502  0.00000000000E+00  0.00000000000E+00  0.13802244865E+03  0.13802244865E+03  0.00000000000E+00 0. -1.
         13   -1    0    0    0    0 -0.00000000000E+00 -0.00000000000E+00 -0.10000000000E+04  0.10000000000E+04  0.00000000000E+00 0.  1.
    9000005    2    1    2  501    0 -0.75434172499E+02 -0.11198870433E+02 -0.82481135636E+03  0.10531869895E+04  0.65044087525E+03 0.  0.
         13    1    3    3    0    0  0.25154503338E+03 -0.15277534701E+03 -0.31378963466E+03  0.43020825805E+03  0.00000000000E+00 0.  1.
          3    1    3    3  501    0 -0.32697920588E+03  0.14157647658E+03 -0.51102172170E+03  0.62297873146E+03  0.00000000000E+00 0.  1.
         -1    1    1    2    0  502  0.75434172499E+02  0.11198870433E+02 -0.37166194985E+02  0.84835459150E+02  0.00000000000E+00 0. -1.
<mgrwt>
<rscale>  1 0.65489622E+03</rscale>
<asrwt>0</asrwt>
<pdfrwt beam="1">  1       21 0.21234222E-01 0.65489622E+03</pdfrwt>
<pdfrwt beam="2">0</pdfrwt>
<totfact> 0.19997223E+03</totfact>
</mgrwt>
</event>
<event>
 6    1  0.1386179E-004  0.6326605E+03  0.7818608E-02  0.9839871E-01
         21   -1    0    0  501  502  0.00000000000E+00  0.00000000000E+00  0.29593329043E+03  0.29593329043E+03  0.00000000000E+00 0.  1.
         13   -1    0    0    0    0 -0.00000000000E+00 -0.00000000000E+00 -0.10000000000E+04  0.10000000000E+04  0.00000000000E+00 0.  1.
    9000005    2    1    2  501    0  0.43881458995E+02 -0.16335934468E+02 -0.89685156549E+03  0.10975436590E+04  0.63092543747E+03 0.  0.
         13    1    3    3    0    0  0.15351332069E+03  0.27749789000E+03 -0.40828991696E+03  0.51698363115E+03  0.00000000000E+00 0.  1.
          3    1    3    3  501    0 -0.10963186169E+03 -0.29383382447E+03 -0.48856164852E+03  0.58056002782E+03  0.00000000000E+00 0.  1.
         -3    1    1    2    0  502 -0.43881458995E+02  0.16335934468E+02  0.19278485592E+03  0.19838963145E+03  0.00000000000E+00 0. -1.
<mgrwt>
<rscale>  1 0.63266054E+03</rscale>
<asrwt>0</asrwt>
<pdfrwt beam="1">  1       21 0.45528197E-01 0.63266054E+03</pdfrwt>
<pdfrwt beam="2">0</pdfrwt>
<totfact> 0.43125754E+02</totfact>
</mgrwt>
</event>
<event>
 6    1  0.1386179E-004  0.6471976E+03  0.7818608E-02  0.9812052E-01
         21   -1    0    0  501  502  0.00000000000E+00  0.00000000000E+00  0.12189153202E+03  0.12189153202E+03  0.00000000000E+00 0.  1.
         13   -1    0    0    0    0 -0.00000000000E+00 -0.00000000000E+00 -0.10000000000E+04  0.10000000000E+04  0.00000000000E+00 0.  1.
    9000005    2    1    2  501    0  0.26014575863E+02  0.18627186905E+02 -0.87690281857E+03  0.10898730399E+04  0.64640618775E+03 0.  0.
         13    1    3    3    0    0  0.23275767302E+03  0.47436494579E+02 -0.84617255076E+03  0.87888243868E+03  0.00000000000E+00 0.  1.
          3    1    3    3  501    0 -0.20674309715E+03 -0.28809307674E+02 -0.30730267815E+02  0.21099060119E+03  0.00000000000E+00 0.  1.
         -1    1    1    2    0  502 -0.26014575863E+02 -0.18627186905E+02 -0.12056494031E+01  0.32018492154E+02  0.00000000000E+00 0. -1.
<mgrwt>
<rscale>  1 0.64719757E+03</rscale>
<asrwt>0</asrwt>
<pdfrwt beam="1">  1       21 0.18752543E-01 0.64719757E+03</pdfrwt>
<pdfrwt beam="2">0</pdfrwt>
<totfact> 0.25385699E+03</totfact>
</mgrwt>
</event>
<event>
 6    1  0.1386179E-004  0.6493853E+03  0.7818608E-02  0.9807933E-01
         21   -1    0    0  501  502  0.00000000000E+00  0.00000000000E+00  0.12359866240E+03  0.12359866240E+03  0.00000000000E+00 0.  1.
         13   -1    0    0    0    0 -0.00000000000E+00 -0.00000000000E+00 -0.10000000000E+04  0.10000000000E+04  0.00000000000E+00 0.  1.
    9000005    2    1    2  501    0 -0.18804668164E+02  0.10253219420E+02 -0.88731615863E+03  0.10995595823E+04  0.64903202204E+03 0.  0.
         13    1    3    3    0    0  0.13535113015E+03  0.25251867839E+03 -0.18561652048E+03  0.34137824191E+03  0.00000000000E+00 0.  1.
          1    1    3    3  501    0 -0.15415579831E+03 -0.24226545897E+03 -0.70169963815E+03  0.75818134041E+03  0.00000000000E+00 0.  1.
         -3    1    1    2    0  502  0.18804668164E+02 -0.10253219420E+02  0.10914821024E+02  0.24039080083E+02  0.00000000000E+00 0. -1.
<mgrwt>
<rscale>  1 0.64938533E+03</rscale>
<asrwt>0</asrwt>
<pdfrwt beam="1">  1       21 0.19015178E-01 0.64938533E+03</pdfrwt>
<pdfrwt beam="2">0</pdfrwt>
<totfact> 0.24719209E+03</totfact>
</mgrwt>
</event>
<event>
 6    1  0.1386179E-004  0.6714959E+03  0.7818608E-02  0.9767259E-01
         21   -1    0    0  501  502  0.00000000000E+00  0.00000000000E+00  0.33903896021E+03  0.33903896021E+03  0.00000000000E+00 0. -1.
         13   -1    0    0    0    0 -0.00000000000E+00 -0.00000000000E+00 -0.10000000000E+04  0.10000000000E+04  0.00000000000E+00 0.  1.
    9000005    2    1    2  501    0  0.14489558845E+03 -0.19001771872E+03 -0.81403652791E+03  0.10552545878E+04  0.62753909141E+03 0.  0.
         13    1    3    3    0    0  0.19204221329E+03  0.10737967079E+03 -0.69917816859E+03  0.73298070699E+03  0.00000000000E+00 0.  1.
          1    1    3    3  501    0 -0.47146624844E+02 -0.29739738951E+03 -0.11485835932E+03  0.32227388077E+03  0.00000000000E+00 0.  1.
         -1    1    1    2    0  502 -0.14489558845E+03  0.19001771872E+03  0.15307548812E+03  0.28378437244E+03  0.00000000000E+00 0. -1.
<mgrwt>
<rscale>  1 0.67149592E+03</rscale>
<asrwt>0</asrwt>
<pdfrwt beam="1">  1       21 0.52159839E-01 0.67149592E+03</pdfrwt>
<pdfrwt beam="2">0</pdfrwt>
<totfact> 0.32137848E+02</totfact>
</mgrwt>
</event>
<event>
 6    1  0.1386179E-004  0.6464173E+03  0.7818608E-02  0.9813525E-01
         21   -1    0    0  501  502  0.00000000000E+00  0.00000000000E+00  0.63390277061E+03  0.63390277061E+03  0.00000000000E+00 0.  1.
         13   -1    0    0    0    0 -0.00000000000E+00 -0.00000000000E+00 -0.10000000000E+04  0.10000000000E+04  0.00000000000E+00 0.  1.
    9000005    2    1    2  501    0  0.20797933809E+02 -0.50466502936E+02 -0.89398168159E+03  0.11032037817E+04  0.64410862045E+03 0.  0.
         13    1    3    3    0    0 -0.70678306031E+02 -0.25772670224E+03 -0.82375380833E+03  0.86601894479E+03  0.00000000000E+00 0.  1.
          3    1    3    3  501    0  0.91476239839E+02  0.20726019931E+03 -0.70227873257E+02  0.23718483690E+03  0.00000000000E+00 0.  1.
         -3    1    1    2    0  502 -0.20797933809E+02  0.50466502936E+02  0.52788445220E+03  0.53069898892E+03  0.00000000000E+00 0. -1.
<mgrwt>
<rscale>  1 0.64641731E+03</rscale>
<asrwt>0</asrwt>
<pdfrwt beam="1">  1       21 0.97523500E-01 0.64641731E+03</pdfrwt>
<pdfrwt beam="2">0</pdfrwt>
<totfact> 0.77144405E+01</totfact>
</mgrwt>
</event>
<event>
 6    1  0.1386179E-004  0.6837716E+03  0.7818608E-02  0.9745395E-01
         21   -1    0    0  501  502  0.00000000000E+00  0.00000000000E+00  0.33711155238E+03  0.33711155238E+03  0.00000000000E+00 0. -1.
         13   -1    0    0    0    0 -0.00000000000E+00 -0.00000000000E+00 -0.10000000000E+04  0.10000000000E+04  0.00000000000E+00 0.  1.
    9000005    2    1    2  501    0  0.99020043308E+02 -0.18627243913E+03 -0.82466302940E+03  0.10712668498E+04  0.65041614446E+03 0.  0.
         13    1    3    3    0    0  0.35900132869E+02  0.15301433791E+03 -0.67852885816E+03  0.69649380364E+03  0.00000000000E+00 0.  1.
          3    1    3    3  501    0  0.63119910439E+02 -0.33928677703E+03 -0.14613417124E+03  0.37477304621E+03  0.00000000000E+00 0.  1.
         -1    1    1    2    0  502 -0.99020043308E+02  0.18627243913E+03  0.16177458178E+03  0.26584470253E+03  0.00000000000E+00 0. -1.
<mgrwt>
<rscale>  1 0.68377156E+03</rscale>
<asrwt>0</asrwt>
<pdfrwt beam="1">  1       21 0.51863314E-01 0.68377156E+03</pdfrwt>
<pdfrwt beam="2">0</pdfrwt>
<totfact> 0.32498080E+02</totfact>
</mgrwt>
</event>
<event>
 6    1  0.1386179E-004  0.7441065E+03  0.7818608E-02  0.9644642E-01
         21   -1    0    0  501  502  0.00000000000E+00  0.00000000000E+00  0.16769668000E+04  0.16769668000E+04  0.00000000000E+00 0. -1.
         13   -1    0    0    0    0 -0.00000000000E+00 -0.00000000000E+00 -0.10000000000E+04  0.10000000000E+04  0.00000000000E+00 0.  1.
    9000005    2    1    2  501    0 -0.11993500836E+03  0.38733025941E+02 -0.85863635193E+03  0.11362002071E+04  0.73335521561E+03 0.  0.
         13    1    3    3    0    0 -0.19755598338E+03  0.35788779365E+03 -0.39875628548E+03  0.57106795973E+03  0.00000000000E+00 0.  1.
          1    1    3    3  501    0  0.77620975026E+02 -0.31915476771E+03 -0.45988006645E+03  0.56513224738E+03  0.00000000000E+00 0.  1.
         -3    1    1    2    0  502  0.11993500836E+03 -0.38733025941E+02  0.15356031519E+04  0.15407665928E+04  0.00000000000E+00 0. -1.
<mgrwt>
<rscale>  1 0.74410653E+03</rscale>
<asrwt>0</asrwt>
<pdfrwt beam="1">  1       21 0.25799488E+00 0.74410653E+03</pdfrwt>
<pdfrwt beam="2">0</pdfrwt>
<totfact> 0.45285710E+00</totfact>
</mgrwt>
</event>
<event>
 6    1  0.1386179E-004  0.6383538E+03  0.7818608E-02  0.9828881E-01
         21   -1    0    0  501  502  0.00000000000E+00  0.00000000000E+00  0.16274860302E+03  0.16274860302E+03  0.00000000000E+00 0.  1.
         13   -1    0    0    0    0 -0.00000000000E+00 -0.00000000000E+00 -0.10000000000E+04  0.10000000000E+04  0.00000000000E+00 0.  1.
    9000005    2    1    2  501    0  0.32201312874E+01  0.32395140549E+02 -0.89329270523E+03  0.10979377813E+04  0.63752309769E+03 0.  0.
         13    1    3    3    0    0 -0.11375992714E+03  0.10840549500E+03 -0.93828762169E+03  0.95135520884E+03  0.00000000000E+00 0.  1.
          3    1    3    3  501    0  0.11698005843E+03 -0.76010354447E+02  0.44994916455E+02  0.14658257250E+03  0.00000000000E+00 0.  1.
         -1    1    1    2    0  502 -0.32201312874E+01 -0.32395140549E+02  0.56041308254E+02  0.64810821685E+02  0.00000000000E+00 0. -1.
<mgrwt>
<rscale>  1 0.63835375E+03</rscale>
<asrwt>0</asrwt>
<pdfrwt beam="1">  1       21 0.25038246E-01 0.63835375E+03</pdfrwt>
<pdfrwt beam="2">0</pdfrwt>
<totfact> 0.14527058E+03</totfact>
</mgrwt>
</event>
<event>
 6    1  0.1386179E-004  0.6430721E+03  0.7818608E-02  0.9819866E-01
         21   -1    0    0  501  502  0.00000000000E+00  0.00000000000E+00  0.71098531518E+03  0.71098531518E+03  0.00000000000E+00 0. -1.
         13   -1    0    0    0    0 -0.00000000000E+00 -0.00000000000E+00 -0.10000000000E+04  0.10000000000E+04  0.00000000000E+00 0.  1.
    9000005    2    1    2  501    0  0.26459585046E+02  0.22690059868E+02 -0.89606292475E+03  0.11029371970E+04  0.64212673741E+03 0.  0.
         13    1    3    3    0    0  0.15607222954E+03 -0.24878539255E+03 -0.23322943149E+03  0.37503157213E+03  0.00000000000E+00 0.  1.
          1    1    3    3  501    0 -0.12961264450E+03  0.27147545242E+03 -0.66283349326E+03  0.72790562484E+03  0.00000000000E+00 0.  1.
         -3    1    1    2    0  502 -0.26459585046E+02 -0.22690059868E+02  0.60704823993E+03  0.60804811821E+03  0.00000000000E+00 0. -1.
<mgrwt>
<rscale>  1 0.64307208E+03</rscale>
<asrwt>0</asrwt>
<pdfrwt beam="1">  1       21 0.10938235E+00 0.64307208E+03</pdfrwt>
<pdfrwt beam="2">0</pdfrwt>
<totfact> 0.58112435E+01</totfact>
</mgrwt>
</event>
<event>
 6    1  0.1386179E-004  0.6510139E+03  0.7818608E-02  0.9804879E-01
         21   -1    0    0  501  502  0.00000000000E+00  0.00000000000E+00  0.17312775304E+03  0.17312775304E+03  0.00000000000E+00 0.  1.
         13   -1    0    0    0    0 -0.00000000000E+00 -0.00000000000E+00 -0.10000000000E+04  0.10000000000E+04  0.00000000000E+00 0.  1.
    9000005    2    1    2  501    0 -0.59646169584E+02 -0.22590862299E+02 -0.87684789059E+03  0.10920995014E+04  0.64788199941E+03 0.  0.
         13    1    3    3    0    0 -0.24350227691E+03  0.67744626949E+02 -0.84844241737E+03  0.88528934758E+03  0.00000000000E+00 0.  1.
          1    1    3    3  501    0  0.18385610733E+03 -0.90335489248E+02 -0.28405473215E+02  0.20681015383E+03  0.00000000000E+00 0.  1.
         -3    1    1    2    0  502  0.59646169584E+02  0.22590862299E+02  0.49975643624E+02  0.81028251623E+02  0.00000000000E+00 0. -1.
<mgrwt>
<rscale>  1 0.65101390E+03</rscale>
<asrwt>0</asrwt>
<pdfrwt beam="1">  1       21 0.26635038E-01 0.65101390E+03</pdfrwt>
<pdfrwt beam="2">0</pdfrwt>
<totfact> 0.12855119E+03</totfact>
</mgrwt>
</event>
<event>
 6    1  0.1386179E-004  0.6467698E+03  0.7818608E-02  0.9812859E-01
         21   -1    0    0  501  502  0.00000000000E+00  0.00000000000E+00  0.11380407579E+03  0.11380407579E+03  0.00000000000E+00 0.  1.
         13   -1    0    0    0    0 -0.00000000000E+00 -0.00000000000E+00 -0.10000000000E+04  0.10000000000E+04  0.00000000000E+00 0.  1.
    9000005    2    1    2  501    0  0.11135864103E+02 -0.24266332556E+02 -0.86281730499E+03  0.10783157368E+04  0.64621843378E+03 0.  0.
         13    1    3    3    0    0  0.43801088541E+02  0.15151974216E+03 -0.88428077621E+03  0.89823674986E+03  0.00000000000E+00 0.  1.
          3    1    3    3  501    0 -0.32665224438E+02 -0.17578607472E+03  0.21463471222E+02  0.18007898698E+03  0.00000000000E+00 0.  1.
         -1    1    1    2    0  502 -0.11135864103E+02  0.24266332556E+02 -0.23378619222E+02  0.35488338955E+02  0.00000000000E+00 0. -1.
<mgrwt>
<rscale>  1 0.64676976E+03</rscale>
<asrwt>0</asrwt>
<pdfrwt beam="1">  1       21 0.17508319E-01 0.64676976E+03</pdfrwt>
<pdfrwt beam="2">0</pdfrwt>
<totfact> 0.28920210E+03</totfact>
</mgrwt>
</event>
<event>
 6    1  0.1386179E-004  0.6410736E+03  0.7818608E-02  0.9823675E-01
         21   -1    0    0  501  502  0.00000000000E+00  0.00000000000E+00  0.18140868794E+03  0.18140868794E+03  0.00000000000E+00 0.  1.
         13   -1    0    0    0    0 -0.00000000000E+00 -0.00000000000E+00 -0.10000000000E+04  0.10000000000E+04  0.00000000000E+00 0.  1.
    9000005    2    1    2  501    0  0.65179338542E+02  0.15595390920E+02 -0.88118346962E+03  0.10897062312E+04  0.63756082119E+03 0.  0.
         13    1    3    3    0    0 -0.14109232693E+03  0.69878538977E+02 -0.86120330578E+03  0.87547769178E+03  0.00000000000E+00 0.  1.
          3    1    3    3  501    0  0.20627166547E+03 -0.54283148056E+02 -0.19980163843E+02  0.21422853938E+03  0.00000000000E+00 0.  1.
         -3    1    1    2    0  502 -0.65179338542E+02 -0.15595390920E+02  0.62592157556E+02  0.91702456773E+02  0.00000000000E+00 0. -1.
<mgrwt>
<rscale>  1 0.64107360E+03</rscale>
<asrwt>0</asrwt>
<pdfrwt beam="1">  1       21 0.27909028E-01 0.64107360E+03</pdfrwt>
<pdfrwt beam="2">0</pdfrwt>
<totfact> 0.11726314E+03</totfact>
</mgrwt>
</event>
<event>
 6    1  0.1386179E-004  0.6653047E+03  0.7818608E-02  0.9778477E-01
         21   -1    0    0  501  502  0.00000000000E+00  0.00000000000E+00  0.12468146746E+03  0.12468146746E+03  0.00000000000E+00 0.  1.
         13   -1    0    0    0    0 -0.00000000000E+00 -0.00000000000E+00 -0.10000000000E+04  0.10000000000E+04  0.00000000000E+00 0.  1.
    9000005    2    1    2  501    0  0.39773865309E+02  0.67610965729E+01 -0.83505373474E+03  0.10676821102E+04  0.66408032323E+03 0.  0.
         13    1    3    3    0    0  0.42697356443E-02  0.15808305568E+03  0.52400268852E+02  0.16654140833E+03  0.00000000000E+00 0.  1.
          1    1    3    3  501    0  0.39769595573E+02 -0.15132195911E+03 -0.88745400359E+03  0.90114070185E+03  0.00000000000E+00 0.  1.
         -3    1    1    2    0  502 -0.39773865309E+02 -0.67610965729E+01 -0.40264797800E+02  0.56999357280E+02  0.00000000000E+00 0. -1.
<mgrwt>
<rscale>  1 0.66530470E+03</rscale>
<asrwt>0</asrwt>
<pdfrwt beam="1">  1       21 0.19181764E-01 0.66530470E+03</pdfrwt>
<pdfrwt beam="2">0</pdfrwt>
<totfact> 0.24296846E+03</totfact>
</mgrwt>
</event>
<event>
 6    1  0.1386179E-004  0.6142280E+03  0.7818608E-02  0.9876319E-01
         21   -1    0    0  501  502  0.00000000000E+00  0.00000000000E+00  0.16604789989E+03  0.16604789989E+03  0.00000000000E+00 0. -1.
         13   -1    0    0    0    0 -0.00000000000E+00 -0.00000000000E+00 -0.10000000000E+04  0.10000000000E+04  0.00000000000E+00 0.  1.
    9000005    2    1    2  501    0 -0.42474724651E+02 -0.12415050161E+02 -0.89813886998E+03  0.10880852349E+04  0.61263187393E+03 0.  0.
         13    1    3    3    0    0 -0.25393834504E+03 -0.18801958954E+03 -0.32960427325E+03  0.45659065483E+03  0.00000000000E+00 0.  1.
          3    1    3    3  501    0  0.21146362038E+03  0.17560453938E+03 -0.56853459673E+03  0.63149458008E+03  0.00000000000E+00 0.  1.
         -1    1    1    2    0  502  0.42474724651E+02  0.12415050161E+02  0.64186769874E+02  0.77962664985E+02  0.00000000000E+00 0. -1.
<mgrwt>
<rscale>  1 0.61422801E+03</rscale>
<asrwt>0</asrwt>
<pdfrwt beam="1">  1       21 0.25545830E-01 0.61422801E+03</pdfrwt>
<pdfrwt beam="2">0</pdfrwt>
<totfact> 0.13984825E+03</totfact>
</mgrwt>
</event>
<event>
 6    1  0.1386179E-004  0.6527569E+03  0.7818608E-02  0.9801620E-01
         21   -1    0    0  501  502  0.00000000000E+00  0.00000000000E+00  0.16514724156E+03  0.16514724156E+03  0.00000000000E+00 0.  1.
         13   -1    0    0    0    0 -0.00000000000E+00 -0.00000000000E+00 -0.10000000000E+04  0.10000000000E+04  0.00000000000E+00 0.  1.
    9000005    2    1    2  501    0 -0.27122351267E+02 -0.66354371818E+01 -0.88977439559E+03  0.11035352525E+04  0.65215943415E+03 0.  0.
         13    1    3    3    0    0  0.21306347152E+03  0.59629235695E+01 -0.82830313376E+03  0.85528806887E+03  0.00000000000E+00 0.  1.
          3    1    3    3  501    0 -0.24018582279E+03 -0.12598360751E+02 -0.61471261835E+02  0.24824718366E+03  0.00000000000E+00 0.  1.
         -3    1    1    2    0  502  0.27122351267E+02  0.66354371818E+01  0.54921637155E+02  0.61611989033E+02  0.00000000000E+00 0. -1.
<mgrwt>
<rscale>  1 0.65275691E+03</rscale>
<asrwt>0</asrwt>
<pdfrwt beam="1">  1       21 0.25407267E-01 0.65275691E+03</pdfrwt>
<pdfrwt beam="2">0</pdfrwt>
<totfact> 0.14105265E+03</totfact>
</mgrwt>
</event>
<event>
 6    1  0.1386179E-004  0.6296919E+03  0.7818608E-02  0.9845650E-01
         21   -1    0    0  501  502  0.00000000000E+00  0.00000000000E+00  0.11624172160E+03  0.11624172160E+03  0.00000000000E+00 0.  1.
         13   -1    0    0    0    0 -0.00000000000E+00 -0.00000000000E+00 -0.10000000000E+04  0.10000000000E+04  0.00000000000E+00 0.  1.
    9000005    2    1    2  501    0 -0.31842278523E+02  0.36671704185E+02 -0.84653250553E+03  0.10550493793E+04  0.62781618747E+03 0.  0.
         13    1    3    3    0    0  0.22973757121E+03 -0.14445111940E+03 -0.20898188326E+03  0.34251847403E+03  0.00000000000E+00 0.  1.
          3    1    3    3  501    0 -0.26157984973E+03  0.18112282359E+03 -0.63755062226E+03  0.71253090527E+03  0.00000000000E+00 0.  1.
         -3    1    1    2    0  502  0.31842278523E+02 -0.36671704185E+02 -0.37225772878E+02  0.61192342297E+02  0.00000000000E+00 0. -1.
<mgrwt>
<rscale>  1 0.62969192E+03</rscale>
<asrwt>0</asrwt>
<pdfrwt beam="1">  1       21 0.17883341E-01 0.62969192E+03</pdfrwt>
<pdfrwt beam="2">0</pdfrwt>
<totfact> 0.27797929E+03</totfact>
</mgrwt>
</event>
<event>
 6    1  0.1386179E-004  0.6404203E+03  0.7818608E-02  0.9824923E-01
         21   -1    0    0  501  502  0.00000000000E+00  0.00000000000E+00  0.20219464400E+03  0.20219464400E+03  0.00000000000E+00 0.  1.
         13   -1    0    0    0    0 -0.00000000000E+00 -0.00000000000E+00 -0.10000000000E+04  0.10000000000E+04  0.00000000000E+00 0.  1.
    9000005    2    1    2  501    0 -0.10753915926E+02 -0.65531862756E+02 -0.88511164484E+03  0.10925020744E+04  0.63696788545E+03 0.  0.
         13    1    3    3    0    0  0.22205922207E+03 -0.14676259701E+03 -0.78052194056E+03  0.82465996488E+03  0.00000000000E+00 0.  1.
          1    1    3    3  501    0 -0.23281313800E+03  0.81230734256E+02 -0.10458970428E+03  0.26784210956E+03  0.00000000000E+00 0.  1.
         -3    1    1    2    0  502  0.10753915926E+02  0.65531862756E+02  0.87306288841E+02  0.10969256955E+03  0.00000000000E+00 0. -1.
<mgrwt>
<rscale>  1 0.64042030E+03</rscale>
<asrwt>0</asrwt>
<pdfrwt beam="1">  1       21 0.31106867E-01 0.64042030E+03</pdfrwt>
<pdfrwt beam="2">0</pdfrwt>
<totfact> 0.94424522E+02</totfact>
</mgrwt>
</event>
<event>
 6    1  0.1386179E-004  0.6511915E+03  0.7818608E-02  0.9804546E-01
         21   -1    0    0  501  502  0.00000000000E+00  0.00000000000E+00  0.14172732079E+03  0.14172732079E+03  0.00000000000E+00 0.  1.
         13   -1    0    0    0    0 -0.00000000000E+00 -0.00000000000E+00 -0.10000000000E+04  0.10000000000E+04  0.00000000000E+00 0.  1.
    9000005    2    1    2  501    0  0.91999512869E+02  0.49688849037E+01 -0.80460124287E+03  0.10351007609E+04  0.64464084969E+03 0.  0.
         13    1    3    3    0    0  0.19501469556E+03  0.24039966786E+03 -0.17620682796E+03  0.35619036765E+03  0.00000000000E+00 0.  1.
          3    1    3    3  501    0 -0.10301518269E+03 -0.23543078295E+03 -0.62839441491E+03  0.67891039329E+03  0.00000000000E+00 0.  1.
         -3    1    1    2    0  502 -0.91999512869E+02 -0.49688849037E+01 -0.53671436347E+02  0.10662655985E+03  0.00000000000E+00 0. -1.
<mgrwt>
<rscale>  1 0.65119154E+03</rscale>
<asrwt>0</asrwt>
<pdfrwt beam="1">  1       21 0.21804203E-01 0.65119154E+03</pdfrwt>
<pdfrwt beam="2">0</pdfrwt>
<totfact> 0.19003032E+03</totfact>
</mgrwt>
</event>
<event>
 6    1  0.1386179E-004  0.6458640E+03  0.7818608E-02  0.9814571E-01
         21   -1    0    0  501  502  0.00000000000E+00  0.00000000000E+00  0.13169979487E+03  0.13169979487E+03  0.00000000000E+00 0.  1.
         13   -1    0    0    0    0 -0.00000000000E+00 -0.00000000000E+00 -0.10000000000E+04  0.10000000000E+04  0.00000000000E+00 0.  1.
    9000005    2    1    2  501    0  0.19649682744E+02 -0.24536748961E+02 -0.88538430256E+03  0.10959223094E+04  0.64509858390E+03 0.  0.
         13    1    3    3    0    0  0.54169050110E+02 -0.36152117177E+02  0.94825897392E+02  0.11503570047E+03  0.00000000000E+00 0.  1.
          3    1    3    3  501    0 -0.34519367366E+02  0.11615368216E+02 -0.98021019995E+03  0.98088660893E+03  0.00000000000E+00 0.  1.
         -3    1    1    2    0  502 -0.19649682744E+02  0.24536748961E+02  0.17084097431E+02  0.35777485470E+02  0.00000000000E+00 0. -1.
<mgrwt>
<rscale>  1 0.64586403E+03</rscale>
<asrwt>0</asrwt>
<pdfrwt beam="1">  1       21 0.20261506E-01 0.64586403E+03</pdfrwt>
<pdfrwt beam="2">0</pdfrwt>
<totfact> 0.21893666E+03</totfact>
</mgrwt>
</event>
<event>
 6    1  0.1386179E-004  0.6836802E+03  0.7818608E-02  0.9745555E-01
         21   -1    0    0  501  502  0.00000000000E+00  0.00000000000E+00  0.28743702894E+03  0.28743702894E+03  0.00000000000E+00 0.  1.
         13   -1    0    0    0    0 -0.00000000000E+00 -0.00000000000E+00 -0.10000000000E+04  0.10000000000E+04  0.00000000000E+00 0.  1.
    9000005    2    1    2  501    0  0.22608113996E+03  0.11956206738E+03 -0.76540434560E+03  0.10262857688E+04  0.63404329286E+03 0.  0.
         13    1    3    3    0    0  0.33313184729E+02  0.30595755377E+03 -0.12531714140E+03  0.33230133752E+03  0.00000000000E+00 0.  1.
          1    1    3    3  501    0  0.19276795523E+03 -0.18639548639E+03 -0.64008720419E+03  0.69398443130E+03  0.00000000000E+00 0.  1.
         -3    1    1    2    0  502 -0.22608113996E+03 -0.11956206738E+03  0.52841374535E+02  0.26115126012E+03  0.00000000000E+00 0. -1.
<mgrwt>
<rscale>  1 0.68368024E+03</rscale>
<asrwt>0</asrwt>
<pdfrwt beam="1">  1       21 0.44221080E-01 0.68368024E+03</pdfrwt>
<pdfrwt beam="2">0</pdfrwt>
<totfact> 0.45656666E+02</totfact>
</mgrwt>
</event>
<event>
 6    1  0.1386179E-004  0.6726132E+03  0.7818608E-02  0.9765249E-01
         21   -1    0    0  501  502  0.00000000000E+00  0.00000000000E+00  0.17551003690E+03  0.17551003690E+03  0.00000000000E+00 0.  1.
         13   -1    0    0    0    0 -0.00000000000E+00 -0.00000000000E+00 -0.10000000000E+04  0.10000000000E+04  0.00000000000E+00 0.  1.
    9000005    2    1    2  501    0  0.22340473724E+02 -0.60785658243E+00 -0.88466215655E+03  0.11113215713E+04  0.67224179971E+03 0.  0.
         13    1    3    3    0    0  0.32825987329E+03  0.87952024559E+02 -0.56997021814E+03  0.66359336389E+03  0.00000000000E+00 0.  1.
          1    1    3    3  501    0 -0.30591939956E+03 -0.88559881141E+02 -0.31469193841E+03  0.44772820738E+03  0.00000000000E+00 0.  1.
         -3    1    1    2    0  502 -0.22340473724E+02  0.60785658243E+00  0.60172193446E+02  0.64188465630E+02  0.00000000000E+00 0. -1.
<mgrwt>
<rscale>  1 0.67261319E+03</rscale>
<asrwt>0</asrwt>
<pdfrwt beam="1">  1       21 0.27001543E-01 0.67261319E+03</pdfrwt>
<pdfrwt beam="2">0</pdfrwt>
<totfact> 0.12497765E+03</totfact>
</mgrwt>
</event>
<event>
 6    1  0.1386179E-004  0.6539130E+03  0.7818608E-02  0.9799464E-01
         21   -1    0    0  501  502  0.00000000000E+00  0.00000000000E+00  0.27302447085E+03  0.27302447085E+03  0.00000000000E+00 0. -1.
         13   -1    0    0    0    0 -0.00000000000E+00 -0.00000000000E+00 -0.10000000000E+04  0.10000000000E+04  0.00000000000E+00 0.  1.
    9000005    2    1    2  501    0 -0.36677551374E+02  0.79097041779E+01 -0.89075067037E+03  0.11050063079E+04  0.65283564362E+03 0.  0.
         13    1    3    3    0    0  0.74377211916E+02 -0.29008014182E+03 -0.61523139461E+03  0.68424274000E+03  0.00000000000E+00 0.  1.
          1    1    3    3  501    0 -0.11105476329E+03  0.29798984600E+03 -0.27551927576E+03  0.42076356792E+03  0.00000000000E+00 0.  1.
         -1    1    1    2    0  502  0.36677551374E+02 -0.79097041779E+01  0.16377514122E+03  0.16801816294E+03  0.00000000000E+00 0. -1.
<mgrwt>
<rscale>  1 0.65391298E+03</rscale>
<asrwt>0</asrwt>
<pdfrwt beam="1">  1       21 0.42003764E-01 0.65391298E+03</pdfrwt>
<pdfrwt beam="2">0</pdfrwt>
<totfact> 0.50990169E+02</totfact>
</mgrwt>
</event>
<event>
 6    1  0.1386179E-004  0.6543887E+03  0.7818608E-02  0.9798579E-01
         21   -1    0    0  501  502  0.00000000000E+00  0.00000000000E+00  0.14669623003E+03  0.14669623003E+03  0.00000000000E+00 0.  1.
         13   -1    0    0    0    0 -0.00000000000E+00 -0.00000000000E+00 -0.10000000000E+04  0.10000000000E+04  0.00000000000E+00 0.  1.
    9000005    2    1    2  501    0  0.63249382983E+02  0.42510571274E+02 -0.84683811712E+03  0.10702146127E+04  0.64993606422E+03 0.  0.
         13    1    3    3    0    0  0.28877988792E+03 -0.72607083548E+02 -0.73572189880E+03  0.79369536008E+03  0.00000000000E+00 0.  1.
          1    1    3    3  501    0 -0.22553050494E+03  0.11511765482E+03 -0.11111621833E+03  0.27651925265E+03  0.00000000000E+00 0.  1.
         -3    1    1    2    0  502 -0.63249382983E+02 -0.42510571274E+02 -0.64656528469E+01  0.76481617298E+02  0.00000000000E+00 0. -1.
<mgrwt>
<rscale>  1 0.65438866E+03</rscale>
<asrwt>0</asrwt>
<pdfrwt beam="1">  1       21 0.22568650E-01 0.65438866E+03</pdfrwt>
<pdfrwt beam="2">0</pdfrwt>
<totfact> 0.17773529E+03</totfact>
</mgrwt>
</event>
<event>
 6    1  0.1386179E-004  0.6573775E+03  0.7818608E-02  0.9793033E-01
         21   -1    0    0  501  502  0.00000000000E+00  0.00000000000E+00  0.22802870693E+03  0.22802870693E+03  0.00000000000E+00 0. -1.
         13   -1    0    0    0    0 -0.00000000000E+00 -0.00000000000E+00 -0.10000000000E+04  0.10000000000E+04  0.00000000000E+00 0.  1.
    9000005    2    1    2  501    0  0.13221457304E+02 -0.28017825682E+02 -0.88974348016E+03  0.11062498354E+04  0.65664711408E+03 0.  0.
         13    1    3    3    0    0  0.21003398529E+03  0.19657820261E+03 -0.18813560674E+03  0.34373284865E+03  0.00000000000E+00 0.  1.
          1    1    3    3  501    0 -0.19681252798E+03 -0.22459602829E+03 -0.70160787342E+03  0.76251698679E+03  0.00000000000E+00 0.  1.
         -1    1    1    2    0  502 -0.13221457304E+02  0.28017825682E+02  0.11777218709E+03  0.12177887149E+03  0.00000000000E+00 0. -1.
<mgrwt>
<rscale>  1 0.65737755E+03</rscale>
<asrwt>0</asrwt>
<pdfrwt beam="1">  1       21 0.35081339E-01 0.65737755E+03</pdfrwt>
<pdfrwt beam="2">0</pdfrwt>
<totfact> 0.73934104E+02</totfact>
</mgrwt>
</event>
<event>
 6    1  0.1386179E-004  0.6568211E+03  0.7818608E-02  0.9794063E-01
         21   -1    0    0  501  502  0.00000000000E+00  0.00000000000E+00  0.20606665488E+03  0.20606665488E+03  0.00000000000E+00 0.  1.
         13   -1    0    0    0    0 -0.00000000000E+00 -0.00000000000E+00 -0.10000000000E+04  0.10000000000E+04  0.00000000000E+00 0.  1.
    9000005    2    1    2  501    0 -0.37335291879E+02  0.59151074443E+01 -0.88809921183E+03  0.11045968418E+04  0.65573246092E+03 0.  0.
         13    1    3    3    0    0  0.26369922862E+02 -0.30976194604E+03 -0.58438321686E+03  0.66193019284E+03  0.00000000000E+00 0.  1.
          1    1    3    3  501    0 -0.63705214741E+02  0.31567705349E+03 -0.30371599497E+03  0.44266664894E+03  0.00000000000E+00 0.  1.
         -3    1    1    2    0  502  0.37335291879E+02 -0.59151074443E+01  0.94165866711E+02  0.10146981309E+03  0.00000000000E+00 0. -1.
<mgrwt>
<rscale>  1 0.65682111E+03</rscale>
<asrwt>0</asrwt>
<pdfrwt beam="1">  1       21 0.31702561E-01 0.65682111E+03</pdfrwt>
<pdfrwt beam="2">0</pdfrwt>
<totfact> 0.90789664E+02</totfact>
</mgrwt>
</event>
<event>
 6    1  0.1386179E-004  0.6994881E+03  0.7818608E-02  0.9718108E-01
         21   -1    0    0  501  502  0.00000000000E+00  0.00000000000E+00  0.51271958626E+03  0.51271958626E+03  0.00000000000E+00 0. -1.
         13   -1    0    0    0    0 -0.00000000000E+00 -0.00000000000E+00 -0.10000000000E+04  0.10000000000E+04  0.00000000000E+00 0.  1.
    9000005    2    1    2  501    0  0.10121530607E+03 -0.22895471113E+03 -0.83182463243E+03  0.10868375409E+04  0.65316064122E+03 0.  0.
         13    1    3    3    0    0  0.27155015906E+03  0.10643966939E+03 -0.20750327117E+03  0.35794762138E+03  0.00000000000E+00 0.  1.
          3    1    3    3  501    0 -0.17033485299E+03 -0.33539438053E+03 -0.62432136126E+03  0.72888991951E+03  0.00000000000E+00 0.  1.
         -1    1    1    2    0  502 -0.10121530607E+03  0.22895471113E+03  0.34454421870E+03  0.42588204537E+03  0.00000000000E+00 0. -1.
<mgrwt>
<rscale>  1 0.69948811E+03</rscale>
<asrwt>0</asrwt>
<pdfrwt beam="1">  1       21 0.78879934E-01 0.69948811E+03</pdfrwt>
<pdfrwt beam="2">0</pdfrwt>
<totfact> 0.12689496E+02</totfact>
</mgrwt>
</event>
<event>
 6    1  0.1386179E-004  0.6546155E+03  0.7818608E-02  0.9798157E-01
         21   -1    0    0  501  502  0.00000000000E+00  0.00000000000E+00  0.31405548776E+03  0.31405548776E+03  0.00000000000E+00 0. -1.
         13   -1    0    0    0    0 -0.00000000000E+00 -0.00000000000E+00 -0.10000000000E+04  0.10000000000E+04  0.00000000000E+00 0.  1.
    9000005    2    1    2  501    0 -0.21094982473E+02 -0.43565031434E+01 -0.89224881612E+03  0.11066297343E+04  0.65426098885E+03 0.  0.
         13    1    3    3    0    0  0.14061280832E+03 -0.24495174282E+03 -0.71024083729E+03  0.76433982307E+03  0.00000000000E+00 0.  1.
          1    1    3    3  501    0 -0.16170779080E+03  0.24059523968E+03 -0.18200797883E+03  0.34228991121E+03  0.00000000000E+00 0.  1.
         -3    1    1    2    0  502  0.21094982473E+02  0.43565031434E+01  0.20630430388E+03  0.20742575348E+03  0.00000000000E+00 0. -1.
<mgrwt>
<rscale>  1 0.65461547E+03</rscale>
<asrwt>0</asrwt>
<pdfrwt beam="1">  1       21 0.48316228E-01 0.65461547E+03</pdfrwt>
<pdfrwt beam="2">0</pdfrwt>
<totfact> 0.37935912E+02</totfact>
</mgrwt>
</event>
<event>
 6    1  0.1386179E-004  0.6384363E+03  0.7818608E-02  0.9828723E-01
         21   -1    0    0  501  502  0.00000000000E+00  0.00000000000E+00  0.15226934614E+03  0.15226934614E+03  0.00000000000E+00 0.  1.
         13   -1    0    0    0    0 -0.00000000000E+00 -0.00000000000E+00 -0.10000000000E+04  0.10000000000E+04  0.00000000000E+00 0.  1.
    9000005    2    1    2  501    0  0.24598182541E+02 -0.60314463347E+02 -0.87373411782E+03  0.10821331557E+04  0.63510467871E+03 0.  0.
         13    1    3    3    0    0  0.31759940071E+03 -0.90505726525E+02 -0.57184036849E+03  0.66034996244E+03  0.00000000000E+00 0.  1.
          1    1    3    3  501    0 -0.29300121817E+03  0.30191263178E+02 -0.30189374933E+03  0.42178319324E+03  0.00000000000E+00 0.  1.
         -1    1    1    2    0  502 -0.24598182541E+02  0.60314463347E+02  0.26003463957E+02  0.70136190451E+02  0.00000000000E+00 0. -1.
<mgrwt>
<rscale>  1 0.63843626E+03</rscale>
<asrwt>0</asrwt>
<pdfrwt beam="1">  1       21 0.23426053E-01 0.63843626E+03</pdfrwt>
<pdfrwt beam="2">0</pdfrwt>
<totfact> 0.16543662E+03</totfact>
</mgrwt>
</event>
<event>
 6    1  0.1386179E-004  0.6732109E+03  0.7818608E-02  0.9764175E-01
         21   -1    0    0  501  502  0.00000000000E+00  0.00000000000E+00  0.27385553267E+03  0.27385553267E+03  0.00000000000E+00 0. -1.
         13   -1    0    0    0    0 -0.00000000000E+00 -0.00000000000E+00 -0.10000000000E+04  0.10000000000E+04  0.00000000000E+00 0.  1.
    9000005    2    1    2  501    0 -0.23043765042E+02  0.14993094337E+02 -0.88538529580E+03  0.11122589689E+04  0.67264930224E+03 0.  0.
         13    1    3    3    0    0 -0.60254163286E+02  0.23741039036E+03 -0.84925910129E+03  0.88387514886E+03  0.00000000000E+00 0.  1.
          1    1    3    3  501    0  0.37210398244E+02 -0.22241729602E+03 -0.36126194507E+02  0.22838382000E+03  0.00000000000E+00 0.  1.
         -1    1    1    2    0  502  0.23043765042E+02 -0.14993094337E+02  0.15924082847E+03  0.16159656381E+03  0.00000000000E+00 0. -1.
<mgrwt>
<rscale>  1 0.67321088E+03</rscale>
<asrwt>0</asrwt>
<pdfrwt beam="1">  1       21 0.42131619E-01 0.67321088E+03</pdfrwt>
<pdfrwt beam="2">0</pdfrwt>
<totfact> 0.50586407E+02</totfact>
</mgrwt>
</event>
<event>
 6    1  0.1386179E-004  0.6527154E+03  0.7818608E-02  0.9801697E-01
         21   -1    0    0  501  502  0.00000000000E+00  0.00000000000E+00  0.24469554974E+03  0.24469554974E+03  0.00000000000E+00 0. -1.
         13   -1    0    0    0    0 -0.00000000000E+00 -0.00000000000E+00 -0.10000000000E+04  0.10000000000E+04  0.00000000000E+00 0.  1.
    9000005    2    1    2  501    0  0.12976215846E+02 -0.25544561408E+02 -0.89184519624E+03  0.11051810985E+04  0.65208626698E+03 0.  0.
         13    1    3    3    0    0 -0.15293080283E+03 -0.44314449842E+02 -0.92188590526E+03  0.93553472583E+03  0.00000000000E+00 0.  1.
          3    1    3    3  501    0  0.16590701867E+03  0.18769888433E+02  0.30040709016E+02  0.16964637265E+03  0.00000000000E+00 0.  1.
         -3    1    1    2    0  502 -0.12976215846E+02  0.25544561408E+02  0.13654074598E+03  0.13951445125E+03  0.00000000000E+00 0. -1.
<mgrwt>
<rscale>  1 0.65271541E+03</rscale>
<asrwt>0</asrwt>
<pdfrwt beam="1">  1       21 0.37645468E-01 0.65271541E+03</pdfrwt>
<pdfrwt beam="2">0</pdfrwt>
<totfact> 0.64006001E+02</totfact>
</mgrwt>
</event>
<event>
 6    1  0.1386179E-004  0.6341421E+03  0.7818608E-02  0.9836999E-01
         21   -1    0    0  501  502  0.00000000000E+00  0.00000000000E+00  0.11425375080E+03  0.11425375080E+03  0.00000000000E+00 0.  1.
         13   -1    0    0    0    0 -0.00000000000E+00 -0.00000000000E+00 -0.10000000000E+04  0.10000000000E+04  0.00000000000E+00 0.  1.
    9000005    2    1    2  501    0  0.30096533167E+02  0.15553859486E+02 -0.87078310654E+03  0.10772183692E+04  0.63323650591E+03 0.  0.
         13    1    3    3    0    0  0.86313171493E+02 -0.27693444214E+03 -0.63230543719E+03  0.69566717237E+03  0.00000000000E+00 0.  1.
          3    1    3    3  501    0 -0.56216638326E+02  0.29248830162E+03 -0.23847766935E+03  0.38155119681E+03  0.00000000000E+00 0.  1.
         -3    1    1    2    0  502 -0.30096533167E+02 -0.15553859486E+02 -0.14963142659E+02  0.37035381620E+02  0.00000000000E+00 0. -1.
<mgrwt>
<rscale>  1 0.63414209E+03</rscale>
<asrwt>0</asrwt>
<pdfrwt beam="1">  1       21 0.17577500E-01 0.63414209E+03</pdfrwt>
<pdfrwt beam="2">0</pdfrwt>
<totfact> 0.28716864E+03</totfact>
</mgrwt>
</event>
<event>
 6    1  0.1386179E-004  0.6504413E+03  0.7818608E-02  0.9805951E-01
         21   -1    0    0  501  502  0.00000000000E+00  0.00000000000E+00  0.16525767109E+03  0.16525767109E+03  0.00000000000E+00 0.  1.
         13   -1    0    0    0    0 -0.00000000000E+00 -0.00000000000E+00 -0.10000000000E+04  0.10000000000E+04  0.00000000000E+00 0.  1.
    9000005    2    1    2  501    0 -0.58998233682E+02 -0.95245581927E+02 -0.82812208236E+03  0.10530242531E+04  0.64071942520E+03 0.  0.
         13    1    3    3    0    0  0.93888571081E+02 -0.27671421869E+03 -0.74722100561E+03  0.80232478076E+03  0.00000000000E+00 0.  1.
          1    1    3    3  501    0 -0.15288680476E+03  0.18146863677E+03 -0.80901076757E+02  0.25069947232E+03  0.00000000000E+00 0.  1.
         -3    1    1    2    0  502  0.58998233682E+02  0.95245581927E+02 -0.66202465434E+01  0.11223341801E+03  0.00000000000E+00 0. -1.
<mgrwt>
<rscale>  1 0.65044131E+03</rscale>
<asrwt>0</asrwt>
<pdfrwt beam="1">  1       21 0.25424256E-01 0.65044131E+03</pdfrwt>
<pdfrwt beam="2">0</pdfrwt>
<totfact> 0.14088489E+03</totfact>
</mgrwt>
</event>
<event>
 6    1  0.1386179E-004  0.6319505E+03  0.7818608E-02  0.9841250E-01
         21   -1    0    0  501  502  0.00000000000E+00  0.00000000000E+00  0.13152716818E+03  0.13152716818E+03  0.00000000000E+00 0.  1.
         13   -1    0    0    0    0 -0.00000000000E+00 -0.00000000000E+00 -0.10000000000E+04  0.10000000000E+04  0.00000000000E+00 0.  1.
    9000005    2    1    2  501    0  0.64661403128E+02 -0.12108936223E+02 -0.85691057571E+03  0.10647333874E+04  0.62851708647E+03 0.  0.
         13    1    3    3    0    0 -0.23051551014E+03 -0.15584017807E+03 -0.54479114216E+03  0.61173601340E+03  0.00000000000E+00 0.  1.
          1    1    3    3  501    0  0.29517691326E+03  0.14373124185E+03 -0.31211943356E+03  0.45299737396E+03  0.00000000000E+00 0.  1.
         -3    1    1    2    0  502 -0.64661403128E+02  0.12108936223E+02 -0.11562256103E+02  0.66793780827E+02  0.00000000000E+00 0. -1.
<mgrwt>
<rscale>  1 0.63195051E+03</rscale>
<asrwt>0</asrwt>
<pdfrwt beam="1">  1       21 0.20234948E-01 0.63195051E+03</pdfrwt>
<pdfrwt beam="2">0</pdfrwt>
<totfact> 0.21961245E+03</totfact>
</mgrwt>
</event>
<event>
 6    1  0.1386179E-004  0.4886846E+03  0.7818608E-02  0.1016775E+00
         21   -1    0    0  501  502  0.00000000000E+00  0.00000000000E+00  0.75575059104E+03  0.75575059104E+03  0.00000000000E+00 0. -1.
         13   -1    0    0    0    0 -0.00000000000E+00 -0.00000000000E+00 -0.10000000000E+04  0.10000000000E+04  0.00000000000E+00 0.  1.
    9000005    2    1    2  501    0 -0.81633371819E+02  0.65140800558E+02 -0.93614301918E+03  0.10560191432E+04  0.47739433076E+03 0.  0.
         13    1    3    3    0    0  0.28830395342E+02  0.23165531917E+03 -0.74027056401E+03  0.77620608509E+03  0.00000000000E+00 0.  1.
          1    1    3    3  501    0 -0.11046376716E+03 -0.16651451861E+03 -0.19587245517E+03  0.27981305806E+03  0.00000000000E+00 0.  1.
         -1    1    1    2    0  502  0.81633371819E+02 -0.65140800558E+02  0.69189361023E+03  0.69973144789E+03  0.00000000000E+00 0. -1.
<mgrwt>
<rscale>  1 0.48868464E+03</rscale>
<asrwt>0</asrwt>
<pdfrwt beam="1">  1       21 0.11626932E+00 0.48868464E+03</pdfrwt>
<pdfrwt beam="2">0</pdfrwt>
<totfact> 0.51339174E+01</totfact>
</mgrwt>
</event>
<event>
 6    1  0.1386179E-004  0.6257797E+03  0.7818608E-02  0.9853319E-01
         21   -1    0    0  501  502  0.00000000000E+00  0.00000000000E+00  0.14391764416E+03  0.14391764416E+03  0.00000000000E+00 0.  1.
         13   -1    0    0    0    0 -0.00000000000E+00 -0.00000000000E+00 -0.10000000000E+04  0.10000000000E+04  0.00000000000E+00 0.  1.
    9000005    2    1    2  501    0 -0.20031521063E+02 -0.36603314155E+02 -0.89148598560E+03  0.10891957889E+04  0.62438701107E+03 0.  0.
         13    1    3    3    0    0  0.79253737102E+02  0.22912254843E+03 -0.12681901044E+03  0.27360803798E+03  0.00000000000E+00 0.  1.
          3    1    3    3  501    0 -0.99285258165E+02 -0.26572586258E+03 -0.76466697516E+03  0.81558775091E+03  0.00000000000E+00 0.  1.
         -1    1    1    2    0  502  0.20031521063E+02  0.36603314155E+02  0.35403629756E+02  0.54721855260E+02  0.00000000000E+00 0. -1.
<mgrwt>
<rscale>  1 0.62577968E+03</rscale>
<asrwt>0</asrwt>
<pdfrwt beam="1">  1       21 0.22141175E-01 0.62577968E+03</pdfrwt>
<pdfrwt beam="2">0</pdfrwt>
<totfact> 0.18468878E+03</totfact>
</mgrwt>
</event>
<event>
 6    1  0.1386179E-004  0.6125632E+03  0.7818608E-02  0.9879679E-01
         21   -1    0    0  501  502  0.00000000000E+00  0.00000000000E+00  0.22470372485E+03  0.22470372485E+03  0.00000000000E+00 0. -1.
         13   -1    0    0    0    0 -0.00000000000E+00 -0.00000000000E+00 -0.10000000000E+04  0.10000000000E+04  0.00000000000E+00 0.  1.
    9000005    2    1    2  501    0 -0.95105612094E+01 -0.13128729124E+03 -0.86894726032E+03  0.10631571042E+04  0.59825319339E+03 0.  0.
         13    1    3    3    0    0 -0.16773711720E+03  0.15230663535E+03 -0.60049844971E+03  0.64181885276E+03  0.00000000000E+00 0.  1.
          3    1    3    3  501    0  0.15822655599E+03 -0.28359392659E+03 -0.26844881062E+03  0.42133825145E+03  0.00000000000E+00 0.  1.
         -3    1    1    2    0  502  0.95105612094E+01  0.13128729124E+03  0.93650985172E+02  0.16154662064E+03  0.00000000000E+00 0. -1.
<mgrwt>
<rscale>  1 0.61256321E+03</rscale>
<asrwt>0</asrwt>
<pdfrwt beam="1">  1       21 0.34569803E-01 0.61256321E+03</pdfrwt>
<pdfrwt beam="2">0</pdfrwt>
<totfact> 0.76431769E+02</totfact>
</mgrwt>
</event>
<event>
 6    1  0.1386179E-004  0.6693615E+03  0.7818608E-02  0.9771112E-01
         21   -1    0    0  501  502  0.00000000000E+00  0.00000000000E+00  0.16961743531E+03  0.16961743531E+03  0.00000000000E+00 0.  1.
         13   -1    0    0    0    0 -0.00000000000E+00 -0.00000000000E+00 -0.10000000000E+04  0.10000000000E+04  0.00000000000E+00 0.  1.
    9000005    2    1    2  501    0  0.15038446475E+03 -0.22573329674E+02 -0.70892682981E+03  0.97499847943E+03  0.65185868286E+03 0.  0.
         13    1    3    3    0    0  0.24318260398E+03 -0.27810570006E+03 -0.54216354497E+03  0.65606544550E+03  0.00000000000E+00 0.  1.
          3    1    3    3  501    0 -0.92798139231E+02  0.25553237039E+03 -0.16676328484E+03  0.31893303393E+03  0.00000000000E+00 0.  1.
         -3    1    1    2    0  502 -0.15038446475E+03  0.22573329674E+02 -0.12145573489E+03  0.19461895588E+03  0.00000000000E+00 0. -1.
<mgrwt>
<rscale>  1 0.66936148E+03</rscale>
<asrwt>0</asrwt>
<pdfrwt beam="1">  1       21 0.26094989E-01 0.66936148E+03</pdfrwt>
<pdfrwt beam="2">0</pdfrwt>
<totfact> 0.13371636E+03</totfact>
</mgrwt>
</event>
<event>
 6    1  0.1386179E-004  0.6515847E+03  0.7818608E-02  0.9803810E-01
         21   -1    0    0  501  502  0.00000000000E+00  0.00000000000E+00  0.13682924810E+03  0.13682924810E+03  0.00000000000E+00 0.  1.
         13   -1    0    0    0    0 -0.00000000000E+00 -0.00000000000E+00 -0.10000000000E+04  0.10000000000E+04  0.00000000000E+00 0.  1.
    9000005    2    1    2  501    0  0.59453927933E+02 -0.59246800450E+01 -0.85727170476E+03  0.10767903429E+04  0.64883957602E+03 0.  0.
         13    1    3    3    0    0 -0.22092070542E+02 -0.30109138561E+03 -0.61931216086E+03  0.68897868955E+03  0.00000000000E+00 0.  1.
          3    1    3    3  501    0  0.81545998475E+02  0.29516670557E+03 -0.23795954390E+03  0.38781165335E+03  0.00000000000E+00 0.  1.
         -1    1    1    2    0  502 -0.59453927933E+02  0.59246800450E+01 -0.58990471337E+01  0.60038905198E+02  0.00000000000E+00 0. -1.
<mgrwt>
<rscale>  1 0.65158473E+03</rscale>
<asrwt>0</asrwt>
<pdfrwt beam="1">  1       21 0.21050653E-01 0.65158473E+03</pdfrwt>
<pdfrwt beam="2">0</pdfrwt>
<totfact> 0.20337623E+03</totfact>
</mgrwt>
</event>
<event>
 6    1  0.1386179E-004  0.8512494E+03  0.7818608E-02  0.9488662E-01
         21   -1    0    0  501  502  0.00000000000E+00  0.00000000000E+00  0.47033071008E+03  0.47033071008E+03  0.00000000000E+00 0. -1.
         13   -1    0    0    0    0 -0.00000000000E+00 -0.00000000000E+00 -0.10000000000E+04  0.10000000000E+04  0.00000000000E+00 0.  1.
    9000005    2    1    2  501    0  0.37449233034E+03  0.36124386272E+03 -0.33385874609E+03  0.91437801163E+03  0.67370902619E+03 0.  0.
         13    1    3    3    0    0 -0.39612261488E+02 -0.92726363256E+01  0.16359205350E+03  0.16857482912E+03  0.00000000000E+00 0.  1.
          3    1    3    3  501    0  0.41410459183E+03  0.37051649904E+03 -0.49745079959E+03  0.74580318251E+03  0.00000000000E+00 0.  1.
         -3    1    1    2    0  502 -0.37449233034E+03 -0.36124386272E+03 -0.19581054383E+03  0.55595269845E+03  0.00000000000E+00 0. -1.
<mgrwt>
<rscale>  1 0.85124937E+03</rscale>
<asrwt>0</asrwt>
<pdfrwt beam="1">  1       21 0.72358569E-01 0.85124937E+03</pdfrwt>
<pdfrwt beam="2">0</pdfrwt>
<totfact> 0.15248052E+02</totfact>
</mgrwt>
</event>
<event>
 6    1  0.1386179E-004  0.6491401E+03  0.7818608E-02  0.9808394E-01
         21   -1    0    0  501  502  0.00000000000E+00  0.00000000000E+00  0.23395505798E+03  0.23395505798E+03  0.00000000000E+00 0. -1.
         13   -1    0    0    0    0 -0.00000000000E+00 -0.00000000000E+00 -0.10000000000E+04  0.10000000000E+04  0.00000000000E+00 0.  1.
    9000005    2    1    2  501    0  0.15294027606E+03  0.15667372427E+03 -0.77973847748E+03  0.10145811834E+04  0.61110187416E+03 0.  0.
         13    1    3    3    0    0  0.10391067572E+03  0.38550602587E+03 -0.37894277032E+03  0.55046339360E+03  0.00000000000E+00 0.  1.
          1    1    3    3  501    0  0.49029600347E+02 -0.22883230161E+03 -0.40079570716E+03  0.46411778984E+03  0.00000000000E+00 0.  1.
         -3    1    1    2    0  502 -0.15294027606E+03 -0.15667372427E+03  0.13693535459E+02  0.21937387454E+03  0.00000000000E+00 0. -1.
<mgrwt>
<rscale>  1 0.64914011E+03</rscale>
<asrwt>0</asrwt>
<pdfrwt beam="1">  1       21 0.35993085E-01 0.64914011E+03</pdfrwt>
<pdfrwt beam="2">0</pdfrwt>
<totfact> 0.70200472E+02</totfact>
</mgrwt>
</event>
<event>
 6    1  0.1386179E-004  0.6863871E+03  0.7818608E-02  0.9740799E-01
         21   -1    0    0  501  502  0.00000000000E+00  0.00000000000E+00  0.17664467060E+03  0.17664467060E+03  0.00000000000E+00 0. -1.
         13   -1    0    0    0    0 -0.00000000000E+00 -0.00000000000E+00 -0.10000000000E+04  0.10000000000E+04  0.00000000000E+00 0.  1.
    9000005    2    1    2  501    0 -0.26811141498E+02 -0.42190026956E+02 -0.87007493061E+03  0.11082227675E+04  0.68456444687E+03 0.  0.
         13    1    3    3    0    0  0.29175679642E+03 -0.22150187522E+02 -0.67103558109E+03  0.73205287387E+03  0.00000000000E+00 0.  1.
          1    1    3    3  501    0 -0.31856793792E+03 -0.20039839434E+02 -0.19903934952E+03  0.37616989365E+03  0.00000000000E+00 0.  1.
         -3    1    1    2    0  502  0.26811141498E+02  0.42190026956E+02  0.46719601210E+02  0.68421903073E+02  0.00000000000E+00 0. -1.
<mgrwt>
<rscale>  1 0.68638715E+03</rscale>
<asrwt>0</asrwt>
<pdfrwt beam="1">  1       21 0.27176102E-01 0.68638715E+03</pdfrwt>
<pdfrwt beam="2">0</pdfrwt>
<totfact> 0.12330170E+03</totfact>
</mgrwt>
</event>
<event>
 6    1  0.1386179E-004  0.6731680E+03  0.7818608E-02  0.9764252E-01
         21   -1    0    0  501  502  0.00000000000E+00  0.00000000000E+00  0.12961992885E+03  0.12961992885E+03  0.00000000000E+00 0.  1.
         13   -1    0    0    0    0 -0.00000000000E+00 -0.00000000000E+00 -0.10000000000E+04  0.10000000000E+04  0.00000000000E+00 0.  1.
    9000005    2    1    2  501    0  0.46750997927E+01 -0.45953169892E+02 -0.82597598785E+03  0.10655475245E+04  0.67158145012E+03 0.  0.
         13    1    3    3    0    0  0.24248456234E+01 -0.27251914251E+03 -0.77217132071E+02  0.28325791850E+03  0.00000000000E+00 0.  1.
          1    1    3    3  501    0  0.22502541693E+01  0.22656597261E+03 -0.74875885578E+03  0.78228960603E+03  0.00000000000E+00 0.  1.
         -3    1    1    2    0  502 -0.46750997927E+01  0.45953169892E+02 -0.44404083303E+02  0.64072404319E+02  0.00000000000E+00 0. -1.
<mgrwt>
<rscale>  1 0.67316803E+03</rscale>
<asrwt>0</asrwt>
<pdfrwt beam="1">  1       21 0.19941527E-01 0.67316803E+03</pdfrwt>
<pdfrwt beam="2">0</pdfrwt>
<totfact> 0.22548815E+03</totfact>
</mgrwt>
</event>
<event>
 6    1  0.1386179E-004  0.6500875E+03  0.7818608E-02  0.9806615E-01
         21   -1    0    0  501  502  0.00000000000E+00  0.00000000000E+00  0.13805622266E+03  0.13805622266E+03  0.00000000000E+00 0.  1.
         13   -1    0    0    0    0 -0.00000000000E+00 -0.00000000000E+00 -0.10000000000E+04  0.10000000000E+04  0.00000000000E+00 0.  1.
    9000005    2    1    2  501    0  0.28755848656E+02 -0.51744242377E+01 -0.88689479444E+03  0.10996345263E+04  0.64943055170E+03 0.  0.
         13    1    3    3    0    0 -0.53035463317E+01 -0.17171290248E+03 -0.91179210684E+03  0.92783527341E+03  0.00000000000E+00 0.  1.
          1    1    3    3  501    0  0.34059394987E+02  0.16653847824E+03  0.24897312402E+02  0.17179925287E+03  0.00000000000E+00 0.  1.
         -3    1    1    2    0  502 -0.28755848656E+02  0.51744242377E+01  0.24951017099E+02  0.38421696376E+02  0.00000000000E+00 0. -1.
<mgrwt>
<rscale>  1 0.65008747E+03</rscale>
<asrwt>0</asrwt>
<pdfrwt beam="1">  1       21 0.21239418E-01 0.65008747E+03</pdfrwt>
<pdfrwt beam="2">0</pdfrwt>
<totfact> 0.19991871E+03</totfact>
</mgrwt>
</event>
<event>
 6    1  0.1386179E-004  0.6596911E+03  0.7818608E-02  0.9788763E-01
         21   -1    0    0  501  502  0.00000000000E+00  0.00000000000E+00  0.15807120727E+03  0.15807120727E+03  0.00000000000E+00 0.  1.
         13   -1    0    0    0    0 -0.00000000000E+00 -0.00000000000E+00 -0.10000000000E+04  0.10000000000E+04  0.00000000000E+00 0.  1.
    9000005    2    1    2  501    0  0.37208106460E+02 -0.35385747064E+02 -0.87587493515E+03  0.10965168828E+04  0.65768972766E+03 0.  0.
         13    1    3    3    0    0  0.22923053264E+03 -0.23430512886E+03 -0.24983955297E+03  0.41214722216E+03  0.00000000000E+00 0.  1.
          1    1    3    3  501    0 -0.19202242618E+03  0.19891938180E+03 -0.62603538218E+03  0.68436966060E+03  0.00000000000E+00 0.  1.
         -1    1    1    2    0  502 -0.37208106460E+02  0.35385747064E+02  0.33946142419E+02  0.61554324517E+02  0.00000000000E+00 0. -1.
<mgrwt>
<rscale>  1 0.65969112E+03</rscale>
<asrwt>0</asrwt>
<pdfrwt beam="1">  1       21 0.24318647E-01 0.65969112E+03</pdfrwt>
<pdfrwt beam="2">0</pdfrwt>
<totfact> 0.15363576E+03</totfact>
</mgrwt>
</event>
<event>
 6    1  0.1386179E-004  0.7066491E+03  0.7818608E-02  0.9705928E-01
         21   -1    0    0  501  502  0.00000000000E+00  0.00000000000E+00  0.61924464471E+03  0.61924464471E+03  0.00000000000E+00 0. -1.
         13   -1    0    0    0    0 -0.00000000000E+00 -0.00000000000E+00 -0.10000000000E+04  0.10000000000E+04  0.00000000000E+00 0.  1.
    9000005    2    1    2  501    0  0.24221051170E+03 -0.76911648986E+02 -0.83797032984E+03  0.10961510903E+04  0.65937212962E+03 0.  0.
         13    1    3    3    0    0  0.67405658549E+02 -0.63843712019E+02 -0.90405920453E+03  0.90881383554E+03  0.00000000000E+00 0.  1.
          3    1    3    3  501    0  0.17480485315E+03 -0.13067936968E+02  0.66088874688E+02  0.18733725475E+03  0.00000000000E+00 0.  1.
         -1    1    1    2    0  502 -0.24221051170E+03  0.76911648986E+02  0.45721497455E+03  0.52309355442E+03  0.00000000000E+00 0. -1.
<mgrwt>
<rscale>  1 0.70664909E+03</rscale>
<asrwt>0</asrwt>
<pdfrwt beam="1">  1       21 0.95268404E-01 0.70664909E+03</pdfrwt>
<pdfrwt beam="2">0</pdfrwt>
<totfact> 0.80964821E+01</totfact>
</mgrwt>
</event>
<event>
 6    1  0.1386179E-004  0.6558148E+03  0.7818608E-02  0.9795929E-01
         21   -1    0    0  501  502  0.00000000000E+00  0.00000000000E+00  0.13903498879E+03  0.13903498879E+03  0.00000000000E+00 0.  1.
         13   -1    0    0    0    0 -0.00000000000E+00 -0.00000000000E+00 -0.10000000000E+04  0.10000000000E+04  0.00000000000E+00 0.  1.
    9000005    2    1    2  501    0  0.51762239944E+02  0.18806142929E+02 -0.86301702041E+03  0.10839240893E+04  0.65349831939E+03 0.  0.
         13    1    3    3    0    0 -0.49406155931E+02  0.17160226682E+03 -0.88181034983E+03  0.89970984172E+03  0.00000000000E+00 0.  1.
          1    1    3    3  501    0  0.10116839588E+03 -0.15279612389E+03  0.18793329412E+02  0.18421424763E+03  0.00000000000E+00 0.  1.
         -1    1    1    2    0  502 -0.51762239944E+02 -0.18806142929E+02  0.20520092047E+01  0.55110899445E+02  0.00000000000E+00 0. -1.
<mgrwt>
<rscale>  1 0.65581480E+03</rscale>
<asrwt>0</asrwt>
<pdfrwt beam="1">  1       21 0.21389998E-01 0.65581480E+03</pdfrwt>
<pdfrwt beam="2">0</pdfrwt>
<totfact> 0.19716400E+03</totfact>
</mgrwt>
</event>
<event>
 6    1  0.1386179E-004  0.7256906E+03  0.7818608E-02  0.9674279E-01
         21   -1    0    0  501  502  0.00000000000E+00  0.00000000000E+00  0.30556350733E+03  0.30556350733E+03  0.00000000000E+00 0.  1.
         13   -1    0    0    0    0 -0.00000000000E+00 -0.00000000000E+00 -0.10000000000E+04  0.10000000000E+04  0.00000000000E+00 0.  1.
    9000005    2    1    2  501    0  0.45511686836E+02 -0.30563542491E+03 -0.68268291012E+03  0.99633467087E+03  0.65661441806E+03 0.  0.
         13    1    3    3    0    0  0.30972823706E+03 -0.18767570239E+03 -0.15376622404E+03  0.39344351787E+03  0.00000000000E+00 0.  1.
          1    1    3    3  501    0 -0.26421655022E+03 -0.11795972252E+03 -0.52891668607E+03  0.60289115299E+03  0.00000000000E+00 0.  1.
         -1    1    1    2    0  502 -0.45511686836E+02  0.30563542491E+03 -0.11753582549E+02  0.30922883647E+03  0.00000000000E+00 0. -1.
<mgrwt>
<rscale>  1 0.72569058E+03</rscale>
<asrwt>0</asrwt>
<pdfrwt beam="1">  1       21 0.47009769E-01 0.72569058E+03</pdfrwt>
<pdfrwt beam="2">0</pdfrwt>
<totfact> 0.39969632E+02</totfact>
</mgrwt>
</event>
<event>
 6    1  0.1386179E-004  0.7193366E+03  0.7818608E-02  0.9684724E-01
         21   -1    0    0  501  502  0.00000000000E+00  0.00000000000E+00  0.35687676554E+03  0.35687676554E+03  0.00000000000E+00 0. -1.
         13   -1    0    0    0    0 -0.00000000000E+00 -0.00000000000E+00 -0.10000000000E+04  0.10000000000E+04  0.00000000000E+00 0.  1.
    9000005    2    1    2  501    0 -0.13020744088E+02 -0.74880397943E+02 -0.86343859376E+03  0.11238199671E+04  0.71531007221E+03 0.  0.
         13    1    3    3    0    0 -0.27539200716E+03 -0.13212497527E+03 -0.78762704555E+03  0.84478052154E+03  0.00000000000E+00 0.  1.
          1    1    3    3  501    0  0.26237126307E+03  0.57244577322E+02 -0.75811548209E+02  0.27903944552E+03  0.00000000000E+00 0.  1.
         -1    1    1    2    0  502  0.13020744088E+02  0.74880397943E+02  0.22031535930E+03  0.23305679848E+03  0.00000000000E+00 0. -1.
<mgrwt>
<rscale>  1 0.71933658E+03</rscale>
<asrwt>0</asrwt>
<pdfrwt beam="1">  1       21 0.54904116E-01 0.71933658E+03</pdfrwt>
<pdfrwt beam="2">0</pdfrwt>
<totfact> 0.28625411E+02</totfact>
</mgrwt>
</event>
<event>
 6    1  0.1386179E-004  0.6589669E+03  0.7818608E-02  0.9790097E-01
         21   -1    0    0  501  502  0.00000000000E+00  0.00000000000E+00  0.20319707764E+03  0.20319707764E+03  0.00000000000E+00 0.  1.
         13   -1    0    0    0    0 -0.00000000000E+00 -0.00000000000E+00 -0.10000000000E+04  0.10000000000E+04  0.00000000000E+00 0.  1.
    9000005    2    1    2  501    0 -0.34253619729E+02  0.11152854199E+02 -0.88762402279E+03  0.11054925798E+04  0.65798156622E+03 0.  0.
         13    1    3    3    0    0 -0.22666531119E+02  0.25468726903E+03 -0.81034495153E+03  0.84972837843E+03  0.00000000000E+00 0.  1.
          1    1    3    3  501    0 -0.11587088610E+02 -0.24353441484E+03 -0.77279071254E+02  0.25576420134E+03  0.00000000000E+00 0.  1.
         -1    1    1    2    0  502  0.34253619729E+02 -0.11152854199E+02  0.90821100424E+02  0.97704497867E+02  0.00000000000E+00 0. -1.
<mgrwt>
<rscale>  1 0.65896695E+03</rscale>
<asrwt>0</asrwt>
<pdfrwt beam="1">  1       21 0.31261088E-01 0.65896695E+03</pdfrwt>
<pdfrwt beam="2">0</pdfrwt>
<totfact> 0.93376888E+02</totfact>
</mgrwt>
</event>
<event>
 6    1  0.1386179E-004  0.6535441E+03  0.7818608E-02  0.9800152E-01
         21   -1    0    0  501  502  0.00000000000E+00  0.00000000000E+00  0.12973602317E+03  0.12973602317E+03  0.00000000000E+00 0.  1.
         13   -1    0    0    0    0 -0.00000000000E+00 -0.00000000000E+00 -0.10000000000E+04  0.10000000000E+04  0.00000000000E+00 0.  1.
    9000005    2    1    2  501    0 -0.52236841708E+01  0.27840994117E+02 -0.88310633529E+03  0.10986340297E+04  0.65292995327E+03 0.  0.
         13    1    3    3    0    0  0.11117816191E+02 -0.25885228888E+03 -0.72699633722E+03  0.77178480656E+03  0.00000000000E+00 0.  1.
          3    1    3    3  501    0 -0.16341500362E+02  0.28669328300E+03 -0.15610999806E+03  0.32684922310E+03  0.00000000000E+00 0.  1.
         -1    1    1    2    0  502  0.52236841708E+01 -0.27840994117E+02  0.12842358460E+02  0.31101993514E+02  0.00000000000E+00 0. -1.
<mgrwt>
<rscale>  1 0.65354413E+03</rscale>
<asrwt>0</asrwt>
<pdfrwt beam="1">  1       21 0.19959388E-01 0.65354413E+03</pdfrwt>
<pdfrwt beam="2">0</pdfrwt>
<totfact> 0.22527056E+03</totfact>
</mgrwt>
</event>
<event>
 6    1  0.1386179E-004  0.6221139E+03  0.7818608E-02  0.9860560E-01
         21   -1    0    0  501  502  0.00000000000E+00  0.00000000000E+00  0.26450446698E+03  0.26450446698E+03  0.00000000000E+00 0. -1.
         13   -1    0    0    0    0 -0.00000000000E+00 -0.00000000000E+00 -0.10000000000E+04  0.10000000000E+04  0.00000000000E+00 0.  1.
    9000005    2    1    2  501    0  0.63695210176E+02  0.19876384861E+02 -0.89593383444E+03  0.10907442902E+04  0.61852527872E+03 0.  0.
         13    1    3    3    0    0  0.28959552862E+02  0.21197234842E+03 -0.46196542328E+02  0.21887222921E+03  0.00000000000E+00 0.  1.
          3    1    3    3  501    0  0.34735657314E+02 -0.19209596356E+03 -0.84973729211E+03  0.87187206098E+03  0.00000000000E+00 0.  1.
         -1    1    1    2    0  502 -0.63695210176E+02 -0.19876384861E+02  0.16043830142E+03  0.17376017679E+03  0.00000000000E+00 0. -1.
<mgrwt>
<rscale>  1 0.62211387E+03</rscale>
<asrwt>0</asrwt>
<pdfrwt beam="1">  1       21 0.40692994E-01 0.62211387E+03</pdfrwt>
<pdfrwt beam="2">0</pdfrwt>
<totfact> 0.54621670E+02</totfact>
</mgrwt>
</event>
<event>
 6    1  0.1386179E-004  0.6483073E+03  0.7818608E-02  0.9809961E-01
         21   -1    0    0  501  502  0.00000000000E+00  0.00000000000E+00  0.19319159563E+03  0.19319159563E+03  0.00000000000E+00 0. -1.
         13   -1    0    0    0    0 -0.00000000000E+00 -0.00000000000E+00 -0.10000000000E+04  0.10000000000E+04  0.00000000000E+00 0.  1.
    9000005    2    1    2  501    0  0.43082508338E+02 -0.27956983975E+01 -0.88903995893E+03  0.11003156191E+04  0.64686822042E+03 0.  0.
         13    1    3    3    0    0 -0.24988189584E+03  0.16832236950E+03 -0.50341144033E+03  0.58668258896E+03  0.00000000000E+00 0.  1.
          1    1    3    3  501    0  0.29296440418E+03 -0.17111806790E+03 -0.38562851860E+03  0.51363303012E+03  0.00000000000E+00 0.  1.
         -1    1    1    2    0  502 -0.43082508338E+02  0.27956983975E+01  0.82231554552E+02  0.92875976540E+02  0.00000000000E+00 0. -1.
<mgrwt>
<rscale>  1 0.64830734E+03</rscale>
<asrwt>0</asrwt>
<pdfrwt beam="1">  1       21 0.29721783E-01 0.64830734E+03</pdfrwt>
<pdfrwt beam="2">0</pdfrwt>
<totfact> 0.10339993E+03</totfact>
</mgrwt>
</event>
<event>
 6    1  0.1386179E-004  0.6790695E+03  0.7818608E-02  0.9753711E-01
         21   -1    0    0  501  502  0.00000000000E+00  0.00000000000E+00  0.25400730502E+03  0.25400730502E+03  0.00000000000E+00 0. -1.
         13   -1    0    0    0    0 -0.00000000000E+00 -0.00000000000E+00 -0.10000000000E+04  0.10000000000E+04  0.00000000000E+00 0.  1.
    9000005    2    1    2  501    0  0.54452833795E+02  0.22237604402E+03 -0.76662524936E+03  0.10241336041E+04  0.63931146563E+03 0.  0.
         13    1    3    3    0    0 -0.21706757411E+02  0.16585522724E+03  0.70596459548E+02  0.18155715304E+03  0.00000000000E+00 0.  1.
          3    1    3    3  501    0  0.76159591206E+02  0.56520816779E+02 -0.83722170890E+03  0.84257645109E+03  0.00000000000E+00 0.  1.
         -3    1    1    2    0  502 -0.54452833795E+02 -0.22237604402E+03  0.20632554376E+02  0.22987370089E+03  0.00000000000E+00 0. -1.
<mgrwt>
<rscale>  1 0.67906949E+03</rscale>
<asrwt>0</asrwt>
<pdfrwt beam="1">  1       21 0.39078046E-01 0.67906949E+03</pdfrwt>
<pdfrwt beam="2">0</pdfrwt>
<totfact> 0.59138401E+02</totfact>
</mgrwt>
</event>
<event>
 6    1  0.1386179E-004  0.6202429E+03  0.7818608E-02  0.9864276E-01
         21   -1    0    0  501  502  0.00000000000E+00  0.00000000000E+00  0.14920235766E+03  0.14920235766E+03  0.00000000000E+00 0. -1.
         13   -1    0    0    0    0 -0.00000000000E+00 -0.00000000000E+00 -0.10000000000E+04  0.10000000000E+04  0.00000000000E+00 0.  1.
    9000005    2    1    2  501    0  0.37437832070E+02 -0.26187207500E+02 -0.89282558544E+03  0.10871241078E+04  0.61855795088E+03 0.  0.
         13    1    3    3    0    0 -0.21401294103E+03  0.18457740646E+03 -0.50884211190E+03  0.58205725900E+03  0.00000000000E+00 0.  1.
          1    1    3    3  501    0  0.25145077310E+03 -0.21076461396E+03 -0.38398347353E+03  0.50506684878E+03  0.00000000000E+00 0.  1.
         -1    1    1    2    0  502 -0.37437832070E+02  0.26187207500E+02  0.42027943094E+02  0.62078249874E+02  0.00000000000E+00 0. -1.
<mgrwt>
<rscale>  1 0.62024294E+03</rscale>
<asrwt>0</asrwt>
<pdfrwt beam="1">  1       21 0.22954208E-01 0.62024294E+03</pdfrwt>
<pdfrwt beam="2">0</pdfrwt>
<totfact> 0.17226609E+03</totfact>
</mgrwt>
</event>
<event>
 6    1  0.1386179E-004  0.6488201E+03  0.7818608E-02  0.9808996E-01
         21   -1    0    0  501  502  0.00000000000E+00  0.00000000000E+00  0.15698659709E+03  0.15698659709E+03  0.00000000000E+00 0. -1.
         13   -1    0    0    0    0 -0.00000000000E+00 -0.00000000000E+00 -0.10000000000E+04  0.10000000000E+04  0.00000000000E+00 0.  1.
    9000005    2    1    2  501    0 -0.21429138455E+02  0.22927126244E+02 -0.88944447230E+03  0.11009446013E+04  0.64806071061E+03 0.  0.
         13    1    3    3    0    0 -0.22250647230E+03 -0.19713771236E+03 -0.66299706309E+03  0.72659308662E+03  0.00000000000E+00 0.  1.
          3    1    3    3  501    0  0.20107733385E+03  0.22006483860E+03 -0.22644740920E+03  0.37435151464E+03  0.00000000000E+00 0.  1.
         -1    1    1    2    0  502  0.21429138455E+02 -0.22927126244E+02  0.46431069386E+02  0.56041995834E+02  0.00000000000E+00 0. -1.
<mgrwt>
<rscale>  1 0.64882012E+03</rscale>
<asrwt>0</asrwt>
<pdfrwt beam="1">  1       21 0.24151783E-01 0.64882012E+03</pdfrwt>
<pdfrwt beam="2">0</pdfrwt>
<totfact> 0.15580150E+03</totfact>
</mgrwt>
</event>
<event>
 6    1  0.1386179E-004  0.6627595E+03  0.7818608E-02  0.9783127E-01
         21   -1    0    0  501  502  0.00000000000E+00  0.00000000000E+00  0.36389940867E+03  0.36389940867E+03  0.00000000000E+00 0. -1.
         13   -1    0    0    0    0 -0.00000000000E+00 -0.00000000000E+00 -0.10000000000E+04  0.10000000000E+04  0.00000000000E+00 0.  1.
    9000005    2    1    2  501    0  0.39464042328E+02 -0.58110533626E+02 -0.88478541996E+03  0.11054842606E+04  0.65902652930E+03 0.  0.
         13    1    3    3    0    0 -0.14781338854E+03  0.22376328426E+02  0.43009191378E+02  0.15556120483E+03  0.00000000000E+00 0.  1.
          3    1    3    3  501    0  0.18727743087E+03 -0.80486862052E+02 -0.92779461134E+03  0.94992305578E+03  0.00000000000E+00 0.  1.
         -3    1    1    2    0  502 -0.39464042328E+02  0.58110533626E+02  0.24868482863E+03  0.25841514805E+03  0.00000000000E+00 0. -1.
<mgrwt>
<rscale>  1 0.66275954E+03</rscale>
<asrwt>0</asrwt>
<pdfrwt beam="1">  1       21 0.55984523E-01 0.66275954E+03</pdfrwt>
<pdfrwt beam="2">0</pdfrwt>
<totfact> 0.27585133E+02</totfact>
</mgrwt>
</event>
<event>
 6    1  0.1386179E-004  0.6510689E+03  0.7818608E-02  0.9804776E-01
         21   -1    0    0  501  502  0.00000000000E+00  0.00000000000E+00  0.13394326628E+03  0.13394326628E+03  0.00000000000E+00 0.  1.
         13   -1    0    0    0    0 -0.00000000000E+00 -0.00000000000E+00 -0.10000000000E+04  0.10000000000E+04  0.00000000000E+00 0.  1.
    9000005    2    1    2  501    0  0.71781943716E+02 -0.25766936095E+02 -0.81034804300E+03  0.10394972994E+04  0.64658650019E+03 0.  0.
         13    1    3    3    0    0  0.12296756590E+03  0.19216413027E+03 -0.78109753022E+03  0.81373301945E+03  0.00000000000E+00 0.  1.
          3    1    3    3  501    0 -0.51185622185E+02 -0.21793106636E+03 -0.29250512781E+02  0.22576427995E+03  0.00000000000E+00 0.  1.
         -3    1    1    2    0  502 -0.71781943716E+02  0.25766936095E+02 -0.55708690713E+02  0.94445966883E+02  0.00000000000E+00 0. -1.
<mgrwt>
<rscale>  1 0.65106888E+03</rscale>
<asrwt>0</asrwt>
<pdfrwt beam="1">  1       21 0.20606656E-01 0.65106888E+03</pdfrwt>
<pdfrwt beam="2">0</pdfrwt>
<totfact> 0.21190044E+03</totfact>
</mgrwt>
</event>
<event>
 6    1  0.1386179E-004  0.7588678E+03  0.7818608E-02  0.9621540E-01
         21   -1    0    0  501  502  0.00000000000E+00  0.00000000000E+00  0.42211286035E+03  0.42211286035E+03  0.00000000000E+00 0.  1.
         13   -1    0    0    0    0 -0.00000000000E+00 -0.00000000000E+00 -0.10000000000E+04  0.10000000000E+04  0.00000000000E+00 0.  1.
    9000005    2    1    2  501    0 -0.26006483567E+03 -0.31745349624E+03 -0.65749816329E+03  0.10040837273E+04  0.63833365538E+03 0.  0.
         13    1    3    3    0    0 -0.76300359884E+01 -0.43811031597E+03 -0.23464882025E+03  0.49705023414E+03  0.00000000000E+00 0.  1.
          3    1    3    3  501    0 -0.25243479968E+03  0.12065681973E+03 -0.42284934305E+03  0.50703349313E+03  0.00000000000E+00 0.  1.
         -3    1    1    2    0  502  0.26006483567E+03  0.31745349624E+03  0.79611023645E+02  0.41802913309E+03  0.00000000000E+00 0. -1.
<mgrwt>
<rscale>  1 0.75886777E+03</rscale>
<asrwt>0</asrwt>
<pdfrwt beam="1">  1       21 0.64940438E-01 0.75886777E+03</pdfrwt>
<pdfrwt beam="2">0</pdfrwt>
<totfact> 0.19667859E+02</totfact>
</mgrwt>
</event>
<event>
 6    1  0.1386179E-004  0.6522736E+03  0.7818608E-02  0.9802522E-01
         21   -1    0    0  501  502  0.00000000000E+00  0.00000000000E+00  0.26616568296E+03  0.26616568296E+03  0.00000000000E+00 0. -1.
         13   -1    0    0    0    0 -0.00000000000E+00 -0.00000000000E+00 -0.10000000000E+04  0.10000000000E+04  0.00000000000E+00 0.  1.
    9000005    2    1    2  501    0  0.48178245146E+02  0.25842096029E+02 -0.88844271462E+03  0.11021757021E+04  0.64997835642E+03 0.  0.
         13    1    3    3    0    0  0.93862470351E+01 -0.11855642121E+03  0.66053521077E+02  0.13603967910E+03  0.00000000000E+00 0.  1.
          3    1    3    3  501    0  0.38791998111E+02  0.14439851723E+03 -0.95449623570E+03  0.96613602296E+03  0.00000000000E+00 0.  1.
         -3    1    1    2    0  502 -0.48178245146E+02 -0.25842096029E+02  0.15460839758E+03  0.16398998090E+03  0.00000000000E+00 0. -1.
<mgrwt>
<rscale>  1 0.65227358E+03</rscale>
<asrwt>0</asrwt>
<pdfrwt beam="1">  1       21 0.40948565E-01 0.65227358E+03</pdfrwt>
<pdfrwt beam="2">0</pdfrwt>
<totfact> 0.53778451E+02</totfact>
</mgrwt>
</event>
<event>
 6    1  0.1386179E-004  0.6582920E+03  0.7818608E-02  0.9791343E-01
         21   -1    0    0  501  502  0.00000000000E+00  0.00000000000E+00  0.14541478899E+03  0.14541478899E+03  0.00000000000E+00 0.  1.
         13   -1    0    0    0    0 -0.00000000000E+00 -0.00000000000E+00 -0.10000000000E+04  0.10000000000E+04  0.00000000000E+00 0.  1.
    9000005    2    1    2  501    0  0.29025814886E+01 -0.81991122643E+02 -0.83080968066E+03  0.10599967288E+04  0.65315952899E+03 0.  0.
         13    1    3    3    0    0 -0.27953628651E+03  0.36631492362E+02 -0.63934903818E+03  0.69874859165E+03  0.00000000000E+00 0.  1.
          3    1    3    3  501    0  0.28243886799E+03 -0.11862261500E+03 -0.19146064248E+03  0.36124813711E+03  0.00000000000E+00 0.  1.
         -1    1    1    2    0  502 -0.29025814886E+01  0.81991122643E+02 -0.23775530344E+02  0.85418060237E+02  0.00000000000E+00 0. -1.
<mgrwt>
<rscale>  1 0.65829199E+03</rscale>
<asrwt>0</asrwt>
<pdfrwt beam="1">  1       21 0.22371505E-01 0.65829199E+03</pdfrwt>
<pdfrwt beam="2">0</pdfrwt>
<totfact> 0.18075366E+03</totfact>
</mgrwt>
</event>
<event>
 6    1  0.1386179E-004  0.7349411E+03  0.7818608E-02  0.9659276E-01
         21   -1    0    0  501  502  0.00000000000E+00  0.00000000000E+00  0.12242838000E+04  0.12242838000E+04  0.00000000000E+00 0. -1.
         13   -1    0    0    0    0 -0.00000000000E+00 -0.00000000000E+00 -0.10000000000E+04  0.10000000000E+04  0.00000000000E+00 0.  1.
    9000005    2    1    2  501    0 -0.65190660776E+02  0.11429001784E+03 -0.86045110656E+03  0.11315981874E+04  0.72306730016E+03 0.  0.
         13    1    3    3    0    0  0.82043832071E+02  0.40169160721E+03 -0.52283997928E+03  0.66441627133E+03  0.00000000000E+00 0.  1.
          3    1    3    3  501    0 -0.14723449285E+03 -0.28740158936E+03 -0.33761112729E+03  0.46718191609E+03  0.00000000000E+00 0.  1.
         -1    1    1    2    0  502  0.65190660776E+02 -0.11429001784E+03  0.10847349066E+04  0.10926856126E+04  0.00000000000E+00 0. -1.
<mgrwt>
<rscale>  1 0.73494105E+03</rscale>
<asrwt>0</asrwt>
<pdfrwt beam="1">  1       21 0.18835135E+00 0.73494105E+03</pdfrwt>
<pdfrwt beam="2">0</pdfrwt>
<totfact> 0.12946626E+01</totfact>
</mgrwt>
</event>
<event>
 6    1  0.1386179E-004  0.6586271E+03  0.7818608E-02  0.9790724E-01
         21   -1    0    0  501  502  0.00000000000E+00  0.00000000000E+00  0.12997800452E+03  0.12997800452E+03  0.00000000000E+00 0.  1.
         13   -1    0    0    0    0 -0.00000000000E+00 -0.00000000000E+00 -0.10000000000E+04  0.10000000000E+04  0.00000000000E+00 0.  1.
    9000005    2    1    2  501    0 -0.40536405721E+00  0.22412571850E+02 -0.88487786679E+03  0.11030859126E+04  0.65824554969E+03 0.  0.
         13    1    3    3    0    0 -0.32477746491E+03  0.18755105022E+02 -0.35260818967E+03  0.47975482394E+03  0.00000000000E+00 0.  1.
          3    1    3    3  501    0  0.32437210085E+03  0.36574668286E+01 -0.53226967712E+03  0.62333108863E+03  0.00000000000E+00 0.  1.
         -3    1    1    2    0  502  0.40536405721E+00 -0.22412571850E+02  0.14855871304E+02  0.26892091945E+02  0.00000000000E+00 0. -1.
<mgrwt>
<rscale>  1 0.65862713E+03</rscale>
<asrwt>0</asrwt>
<pdfrwt beam="1">  1       21 0.19996616E-01 0.65862713E+03</pdfrwt>
<pdfrwt beam="2">0</pdfrwt>
<totfact> 0.22442271E+03</totfact>
</mgrwt>
</event>
<event>
 6    1  0.1386179E-004  0.6521991E+03  0.7818608E-02  0.9802661E-01
         21   -1    0    0  501  502  0.00000000000E+00  0.00000000000E+00  0.13457606055E+03  0.13457606055E+03  0.00000000000E+00 0.  1.
         13   -1    0    0    0    0 -0.00000000000E+00 -0.00000000000E+00 -0.10000000000E+04  0.10000000000E+04  0.00000000000E+00 0.  1.
    9000005    2    1    2  501    0 -0.45647811128E+02 -0.51942132342E+02 -0.83369387557E+03  0.10584938371E+04  0.64852295042E+03 0.  0.
         13    1    3    3    0    0  0.18104819833E+03  0.10103404581E+03 -0.29934198066E+02  0.20948122767E+03  0.00000000000E+00 0.  1.
          3    1    3    3  501    0 -0.22669600945E+03 -0.15297617815E+03 -0.80375967750E+03  0.84901260942E+03  0.00000000000E+00 0.  1.
         -3    1    1    2    0  502  0.45647811128E+02  0.51942132342E+02 -0.31730063883E+02  0.76082223463E+02  0.00000000000E+00 0. -1.
<mgrwt>
<rscale>  1 0.65219915E+03</rscale>
<asrwt>0</asrwt>
<pdfrwt beam="1">  1       21 0.20704009E-01 0.65219915E+03</pdfrwt>
<pdfrwt beam="2">0</pdfrwt>
<totfact> 0.20997828E+03</totfact>
</mgrwt>
</event>
<event>
 6    1  0.1386179E-004  0.6574610E+03  0.7818608E-02  0.9792879E-01
         21   -1    0    0  501  502  0.00000000000E+00  0.00000000000E+00  0.15091024130E+03  0.15091024130E+03  0.00000000000E+00 0.  1.
         13   -1    0    0    0    0 -0.00000000000E+00 -0.00000000000E+00 -0.10000000000E+04  0.10000000000E+04  0.00000000000E+00 0.  1.
    9000005    2    1    2  501    0  0.45259454226E+02 -0.71792972699E+02 -0.83829094331E+03  0.10653575468E+04  0.65196038816E+03 0.  0.
         13    1    3    3    0    0 -0.25493886622E+03  0.11919070900E+03 -0.24289153405E+03  0.37174796292E+03  0.00000000000E+00 0.  1.
          1    1    3    3  501    0  0.30019832045E+03 -0.19098368170E+03 -0.59539940926E+03  0.69360958386E+03  0.00000000000E+00 0.  1.
         -3    1    1    2    0  502 -0.45259454226E+02  0.71792972699E+02 -0.10798815394E+02  0.85552694520E+02  0.00000000000E+00 0. -1.
<mgrwt>
<rscale>  1 0.65746102E+03</rscale>
<asrwt>0</asrwt>
<pdfrwt beam="1">  1       21 0.23216960E-01 0.65746102E+03</pdfrwt>
<pdfrwt beam="2">0</pdfrwt>
<totfact> 0.16819450E+03</totfact>
</mgrwt>
</event>
<event>
 6    1  0.1386179E-004  0.6502877E+03  0.7818608E-02  0.9806239E-01
         21   -1    0    0  501  502  0.00000000000E+00  0.00000000000E+00  0.19124365402E+03  0.19124365402E+03  0.00000000000E+00 0.  1.
         13   -1    0    0    0    0 -0.00000000000E+00 -0.00000000000E+00 -0.10000000000E+04  0.10000000000E+04  0.00000000000E+00 0.  1.
    9000005    2    1    2  501    0 -0.89478993294E+01 -0.19674672317E+02 -0.89276878024E+03  0.11044954740E+04  0.64992845714E+03 0.  0.
         13    1    3    3    0    0 -0.18391367766E+03  0.14060120836E+03 -0.82624998221E+03  0.85806874651E+03  0.00000000000E+00 0.  1.
          1    1    3    3  501    0  0.17496577833E+03 -0.16027588068E+03 -0.66518798024E+02  0.24642672746E+03  0.00000000000E+00 0.  1.
         -3    1    1    2    0  502  0.89478993294E+01  0.19674672317E+02  0.84012434257E+02  0.86748180056E+02  0.00000000000E+00 0. -1.
<mgrwt>
<rscale>  1 0.65028775E+03</rscale>
<asrwt>0</asrwt>
<pdfrwt beam="1">  1       21 0.29422100E-01 0.65028775E+03</pdfrwt>
<pdfrwt beam="2">0</pdfrwt>
<totfact> 0.10550253E+03</totfact>
</mgrwt>
</event>
<event>
 6    1  0.1386179E-004  0.6425659E+03  0.7818608E-02  0.9820830E-01
         21   -1    0    0  501  502  0.00000000000E+00  0.00000000000E+00  0.12348195429E+03  0.12348195429E+03  0.00000000000E+00 0.  1.
         13   -1    0    0    0    0 -0.00000000000E+00 -0.00000000000E+00 -0.10000000000E+04  0.10000000000E+04  0.00000000000E+00 0.  1.
    9000005    2    1    2  501    0 -0.13753931519E+02  0.22651006057E+02 -0.88673972690E+03  0.10950791116E+04  0.64201921985E+03 0.  0.
         13    1    3    3    0    0  0.17271895953E+03 -0.22011393277E+03 -0.20218191556E+03  0.34519488606E+03  0.00000000000E+00 0.  1.
          1    1    3    3  501    0 -0.18647289105E+03  0.24276493883E+03 -0.68455781133E+03  0.74988422552E+03  0.00000000000E+00 0.  1.
         -3    1    1    2    0  502  0.13753931519E+02 -0.22651006057E+02  0.10221681186E+02  0.28402842708E+02  0.00000000000E+00 0. -1.
<mgrwt>
<rscale>  1 0.64256589E+03</rscale>
<asrwt>0</asrwt>
<pdfrwt beam="1">  1       21 0.18997223E-01 0.64256589E+03</pdfrwt>
<pdfrwt beam="2">0</pdfrwt>
<totfact> 0.24769982E+03</totfact>
</mgrwt>
</event>
<event>
 6    1  0.1386179E-004  0.6509141E+03  0.7818608E-02  0.9805066E-01
         21   -1    0    0  501  502  0.00000000000E+00  0.00000000000E+00  0.13851300597E+03  0.13851300597E+03  0.00000000000E+00 0.  1.
         13   -1    0    0    0    0 -0.00000000000E+00 -0.00000000000E+00 -0.10000000000E+04  0.10000000000E+04  0.00000000000E+00 0.  1.
    9000005    2    1    2  501    0  0.11444120740E+02 -0.40022615454E+02 -0.87864952282E+03  0.10934871241E+04  0.64958165683E+03 0.  0.
         13    1    3    3    0    0  0.32355674890E+03 -0.86110924554E+02 -0.47576486069E+03  0.58176994057E+03  0.00000000000E+00 0.  1.
          3    1    3    3  501    0 -0.31211262816E+03  0.46088309100E+02 -0.40288466213E+03  0.51171718349E+03  0.00000000000E+00 0.  1.
         -1    1    1    2    0  502 -0.11444120740E+02  0.40022615454E+02  0.17162528795E+02  0.45025881912E+02  0.00000000000E+00 0. -1.
<mgrwt>
<rscale>  1 0.65091405E+03</rscale>
<asrwt>0</asrwt>
<pdfrwt beam="1">  1       21 0.21309693E-01 0.65091405E+03</pdfrwt>
<pdfrwt beam="2">0</pdfrwt>
<totfact> 0.19864193E+03</totfact>
</mgrwt>
</event>
<event>
 6    1  0.1386179E-004  0.7458926E+03  0.7818608E-02  0.9641816E-01
         21   -1    0    0  501  502  0.00000000000E+00  0.00000000000E+00  0.36469969192E+03  0.36469969192E+03  0.00000000000E+00 0. -1.
         13   -1    0    0    0    0 -0.00000000000E+00 -0.00000000000E+00 -0.10000000000E+04  0.10000000000E+04  0.00000000000E+00 0.  1.
    9000005    2    1    2  501    0 -0.10973980519E+03  0.34432535410E+03 -0.66871756619E+03  0.10017678974E+04  0.65249748094E+03 0.  0.
         13    1    3    3    0    0  0.24199061390E+03 -0.97141046446E+01 -0.27235430561E+03  0.36445944744E+03  0.00000000000E+00 0.  1.
          3    1    3    3  501    0 -0.35173041909E+03  0.35403945875E+03 -0.39636326057E+03  0.63730844997E+03  0.00000000000E+00 0.  1.
         -1    1    1    2    0  502  0.10973980519E+03 -0.34432535410E+03  0.33417258100E+02  0.36293179450E+03  0.00000000000E+00 0. -1.
<mgrwt>
<rscale>  1 0.74589258E+03</rscale>
<asrwt>0</asrwt>
<pdfrwt beam="1">  1       21 0.56107643E-01 0.74589258E+03</pdfrwt>
<pdfrwt beam="2">0</pdfrwt>
<totfact> 0.27236070E+02</totfact>
</mgrwt>
</event>
<event>
 6    1  0.1386179E-004  0.6767701E+03  0.7818608E-02  0.9757804E-01
         21   -1    0    0  501  502  0.00000000000E+00  0.00000000000E+00  0.17605334015E+03  0.17605334015E+03  0.00000000000E+00 0. -1.
         13   -1    0    0    0    0 -0.00000000000E+00 -0.00000000000E+00 -0.10000000000E+04  0.10000000000E+04  0.00000000000E+00 0.  1.
    9000005    2    1    2  501    0 -0.54674620916E+02 -0.86173255301E+02 -0.83337946954E+03  0.10735637212E+04  0.66903107479E+03 0.  0.
         13    1    3    3    0    0  0.18655893668E+03 -0.29998360046E+03 -0.46706174677E+03  0.58561170813E+03  0.00000000000E+00 0.  1.
          1    1    3    3  501    0 -0.24123355760E+03  0.21381034516E+03 -0.36631772277E+03  0.48795201303E+03  0.00000000000E+00 0.  1.
         -1    1    1    2    0  502  0.54674620916E+02  0.86173255301E+02  0.94328096880E+01  0.10248961899E+03  0.00000000000E+00 0. -1.
<mgrwt>
<rscale>  1 0.67677007E+03</rscale>
<asrwt>0</asrwt>
<pdfrwt beam="1">  1       21 0.27085128E-01 0.67677007E+03</pdfrwt>
<pdfrwt beam="2">0</pdfrwt>
<totfact> 0.12418764E+03</totfact>
</mgrwt>
</event>
<event>
 6    1  0.1386179E-004  0.5087714E+03  0.7818608E-02  0.1011514E+00
         21   -1    0    0  501  502  0.00000000000E+00  0.00000000000E+00  0.16341515305E+03  0.16341515305E+03  0.00000000000E+00 0. -1.
         13   -1    0    0    0    0 -0.00000000000E+00 -0.00000000000E+00 -0.10000000000E+04  0.10000000000E+04  0.00000000000E+00 0.  1.
    9000005    2    1    2  501    0  0.29845787667E+02 -0.34579703256E+02 -0.92963949521E+03  0.10597537114E+04  0.50671669689E+03 0.  0.
         13    1    3    3    0    0 -0.20960848471E+03  0.60161226971E+02 -0.24346634042E+03  0.32685004055E+03  0.00000000000E+00 0.  1.
          3    1    3    3  501    0  0.23945427238E+03 -0.94740930227E+02 -0.68617315479E+03  0.73290367087E+03  0.00000000000E+00 0.  1.
         -3    1    1    2    0  502 -0.29845787667E+02  0.34579703256E+02  0.93054648258E+02  0.10366144163E+03  0.00000000000E+00 0. -1.
<mgrwt>
<rscale>  1 0.50877140E+03</rscale>
<asrwt>0</asrwt>
<pdfrwt beam="1">  1       21 0.25140792E-01 0.50877140E+03</pdfrwt>
<pdfrwt beam="2">0</pdfrwt>
<totfact> 0.14522237E+03</totfact>
</mgrwt>
</event>
<event>
 6    1  0.1386179E-004  0.6490437E+03  0.7818608E-02  0.9808575E-01
         21   -1    0    0  501  502  0.00000000000E+00  0.00000000000E+00  0.11799841472E+03  0.11799841472E+03  0.00000000000E+00 0.  1.
         13   -1    0    0    0    0 -0.00000000000E+00 -0.00000000000E+00 -0.10000000000E+04  0.10000000000E+04  0.00000000000E+00 0.  1.
    9000005    2    1    2  501    0  0.30855781124E+02  0.77036710746E+01 -0.86647857752E+03  0.10826092985E+04  0.64826409905E+03 0.  0.
         13    1    3    3    0    0  0.42091072374E+02  0.30037828422E+03 -0.65353626256E+03  0.72049178933E+03  0.00000000000E+00 0.  1.
          1    1    3    3  501    0 -0.11235291250E+02 -0.29267461314E+03 -0.21294231496E+03  0.36211750917E+03  0.00000000000E+00 0.  1.
         -3    1    1    2    0  502 -0.30855781124E+02 -0.77036710746E+01 -0.15523007765E+02  0.35389116220E+02  0.00000000000E+00 0. -1.
<mgrwt>
<rscale>  1 0.64904373E+03</rscale>
<asrwt>0</asrwt>
<pdfrwt beam="1">  1       21 0.18153602E-01 0.64904373E+03</pdfrwt>
<pdfrwt beam="2">0</pdfrwt>
<totfact> 0.27000373E+03</totfact>
</mgrwt>
</event>
<event>
 6    1  0.1386179E-004  0.6480418E+03  0.7818608E-02  0.9810461E-01
         21   -1    0    0  501  502  0.00000000000E+00  0.00000000000E+00  0.22855431402E+03  0.22855431402E+03  0.00000000000E+00 0. -1.
         13   -1    0    0    0    0 -0.00000000000E+00 -0.00000000000E+00 -0.10000000000E+04  0.10000000000E+04  0.00000000000E+00 0.  1.
    9000005    2    1    2  501    0 -0.35484175889E+02  0.58066475172E+02 -0.88456348718E+03  0.10965449233E+04  0.64445896981E+03 0.  0.
         13    1    3    3    0    0  0.19891651888E+03  0.17109617931E+03 -0.76766454412E+03  0.81126477574E+03  0.00000000000E+00 0.  1.
          1    1    3    3  501    0 -0.23440069477E+03 -0.11302970414E+03 -0.11689894306E+03  0.28528014760E+03  0.00000000000E+00 0.  1.
         -1    1    1    2    0  502  0.35484175889E+02 -0.58066475172E+02  0.11311780121E+03  0.13200939068E+03  0.00000000000E+00 0. -1.
<mgrwt>
<rscale>  1 0.64804182E+03</rscale>
<asrwt>0</asrwt>
<pdfrwt beam="1">  1       21 0.35162201E-01 0.64804182E+03</pdfrwt>
<pdfrwt beam="2">0</pdfrwt>
<totfact> 0.73637375E+02</totfact>
</mgrwt>
</event>
<event>
 6    1  0.1386179E-004  0.6524228E+03  0.7818608E-02  0.9802244E-01
         21   -1    0    0  501  502  0.00000000000E+00  0.00000000000E+00  0.14373533708E+03  0.14373533708E+03  0.00000000000E+00 0.  1.
         13   -1    0    0    0    0 -0.00000000000E+00 -0.00000000000E+00 -0.10000000000E+04  0.10000000000E+04  0.00000000000E+00 0.  1.
    9000005    2    1    2  501    0  0.84897561295E+02  0.26810364540E+02 -0.81930631949E+03  0.10473387048E+04  0.64631967781E+03 0.  0.
         13    1    3    3    0    0  0.80958223369E+02 -0.30317136534E+03 -0.48444114032E+03  0.57719176114E+03  0.00000000000E+00 0.  1.
          3    1    3    3  501    0  0.39393379260E+01  0.32998172988E+03 -0.33486517917E+03  0.47014694369E+03  0.00000000000E+00 0.  1.
         -3    1    1    2    0  502 -0.84897561295E+02 -0.26810364540E+02 -0.36958343424E+02  0.96396632251E+02  0.00000000000E+00 0. -1.
<mgrwt>
<rscale>  1 0.65242281E+03</rscale>
<asrwt>0</asrwt>
<pdfrwt beam="1">  1       21 0.22113128E-01 0.65242281E+03</pdfrwt>
<pdfrwt beam="2">0</pdfrwt>
<totfact> 0.18491695E+03</totfact>
</mgrwt>
</event>
<event>
 6    1  0.1386179E-004  0.6550200E+03  0.7818608E-02  0.9797405E-01
         21   -1    0    0  501  502  0.00000000000E+00  0.00000000000E+00  0.12827787073E+03  0.12827787073E+03  0.00000000000E+00 0.  1.
         13   -1    0    0    0    0 -0.00000000000E+00 -0.00000000000E+00 -0.10000000000E+04  0.10000000000E+04  0.00000000000E+00 0.  1.
    9000005    2    1    2  501    0  0.11615005845E+02 -0.25278986561E+02 -0.88199661622E+03  0.10986214953E+04  0.65442892919E+03 0.  0.
         13    1    3    3    0    0  0.12744621709E+03 -0.29029891053E+03 -0.66609377902E+03  0.73769703683E+03  0.00000000000E+00 0.  1.
          3    1    3    3  501    0 -0.11583121125E+03  0.26501992397E+03 -0.21590283720E+03  0.36092445845E+03  0.00000000000E+00 0.  1.
         -3    1    1    2    0  502 -0.11615005845E+02  0.25278986561E+02  0.10274486947E+02  0.29656375441E+02  0.00000000000E+00 0. -1.
<mgrwt>
<rscale>  1 0.65501997E+03</rscale>
<asrwt>0</asrwt>
<pdfrwt beam="1">  1       21 0.19735056E-01 0.65501997E+03</pdfrwt>
<pdfrwt beam="2">0</pdfrwt>
<totfact> 0.23019048E+03</totfact>
</mgrwt>
</event>
<event>
 6    1  0.1386179E-004  0.6563428E+03  0.7818608E-02  0.9794950E-01
         21   -1    0    0  501  502  0.00000000000E+00  0.00000000000E+00  0.15738786620E+03  0.15738786620E+03  0.00000000000E+00 0.  1.
         13   -1    0    0    0    0 -0.00000000000E+00 -0.00000000000E+00 -0.10000000000E+04  0.10000000000E+04  0.00000000000E+00 0.  1.
    9000005    2    1    2  501    0  0.15187068344E+02 -0.14645679383E+02 -0.88981008693E+03  0.11056888357E+04  0.65600355771E+03 0.  0.
         13    1    3    3    0    0  0.12077380581E+03 -0.29431725044E+03 -0.64541610119E+03  0.71956299220E+03  0.00000000000E+00 0.  1.
          1    1    3    3  501    0 -0.10558673747E+03  0.27967157106E+03 -0.24439398575E+03  0.38612584355E+03  0.00000000000E+00 0.  1.
         -1    1    1    2    0  502 -0.15187068344E+02  0.14645679383E+02  0.47197953132E+02  0.51699030448E+02  0.00000000000E+00 0. -1.
<mgrwt>
<rscale>  1 0.65634275E+03</rscale>
<asrwt>0</asrwt>
<pdfrwt beam="1">  1       21 0.24213517E-01 0.65634275E+03</pdfrwt>
<pdfrwt beam="2">0</pdfrwt>
<totfact> 0.15496815E+03</totfact>
</mgrwt>
</event>
<event>
 6    1  0.1386179E-004  0.5687043E+03  0.7818608E-02  0.9972550E-01
         21   -1    0    0  501  502  0.00000000000E+00  0.00000000000E+00  0.11003681927E+03  0.11003681927E+03  0.00000000000E+00 0. -1.
         13   -1    0    0    0    0 -0.00000000000E+00 -0.00000000000E+00 -0.10000000000E+04  0.10000000000E+04  0.00000000000E+00 0.  1.
    9000005    2    1    2  501    0  0.18598995271E+02  0.19446766981E+02 -0.91231525416E+03  0.10750551876E+04  0.56806727941E+03 0.  0.
         13    1    3    3    0    0 -0.99353554031E+01 -0.57704014580E+02 -0.97178726028E+03  0.97354966171E+03  0.00000000000E+00 0.  1.
          1    1    3    3  501    0  0.28534350675E+02  0.77150781561E+02  0.59472006119E+02  0.10150552584E+03  0.00000000000E+00 0.  1.
         -1    1    1    2    0  502 -0.18598995271E+02 -0.19446766981E+02  0.22352073428E+02  0.34981631718E+02  0.00000000000E+00 0. -1.
<mgrwt>
<rscale>  1 0.56870426E+03</rscale>
<asrwt>0</asrwt>
<pdfrwt beam="1">  1       21 0.16928741E-01 0.56870426E+03</pdfrwt>
<pdfrwt beam="2">0</pdfrwt>
<totfact> 0.30895968E+03</totfact>
</mgrwt>
</event>
<event>
 6    1  0.1386179E-004  0.6507619E+03  0.7818608E-02  0.9805351E-01
         21   -1    0    0  501  502  0.00000000000E+00  0.00000000000E+00  0.12577491641E+03  0.12577491641E+03  0.00000000000E+00 0.  1.
         13   -1    0    0    0    0 -0.00000000000E+00 -0.00000000000E+00 -0.10000000000E+04  0.10000000000E+04  0.00000000000E+00 0.  1.
    9000005    2    1    2  501    0  0.24467211394E+02  0.12198385323E+01 -0.88541665492E+03  0.10988419680E+04  0.65030061160E+03 0.  0.
         13    1    3    3    0    0  0.32269910238E+03  0.97836487391E+02 -0.46665555749E+03  0.57573787288E+03  0.00000000000E+00 0.  1.
          1    1    3    3  501    0 -0.29823189098E+03 -0.96616648859E+02 -0.41876109744E+03  0.52310409515E+03  0.00000000000E+00 0.  1.
         -1    1    1    2    0  502 -0.24467211394E+02 -0.12198385323E+01  0.11191571333E+02  0.26932948378E+02  0.00000000000E+00 0. -1.
<mgrwt>
<rscale>  1 0.65076187E+03</rscale>
<asrwt>0</asrwt>
<pdfrwt beam="1">  1       21 0.19349987E-01 0.65076187E+03</pdfrwt>
<pdfrwt beam="2">0</pdfrwt>
<totfact> 0.23907447E+03</totfact>
</mgrwt>
</event>
<event>
 6    1  0.1386179E-004  0.7478313E+03  0.7818608E-02  0.9638759E-01
         21   -1    0    0  501  502  0.00000000000E+00  0.00000000000E+00  0.18071031813E+03  0.18071031813E+03  0.00000000000E+00 0.  1.
         13   -1    0    0    0    0 -0.00000000000E+00 -0.00000000000E+00 -0.10000000000E+04  0.10000000000E+04  0.00000000000E+00 0.  1.
    9000005    2    1    2  501    0 -0.38943348867E+02 -0.82953694841E+02 -0.78127005132E+03  0.10814964470E+04  0.74219523844E+03 0.  0.
         13    1    3    3    0    0  0.33909279875E+03  0.97605500262E+01 -0.24322251389E+03  0.41741632187E+03  0.00000000000E+00 0.  1.
          1    1    3    3  501    0 -0.37803614762E+03 -0.92714244868E+02 -0.53804753744E+03  0.66408012517E+03  0.00000000000E+00 0.  1.
         -3    1    1    2    0  502  0.38943348867E+02  0.82953694841E+02 -0.38019630546E+02  0.99213871085E+02  0.00000000000E+00 0. -1.
<mgrwt>
<rscale>  1 0.74783131E+03</rscale>
<asrwt>0</asrwt>
<pdfrwt beam="1">  1       21 0.27801587E-01 0.74783131E+03</pdfrwt>
<pdfrwt beam="2">0</pdfrwt>
<totfact> 0.11747465E+03</totfact>
</mgrwt>
</event>
<event>
 6    1  0.1386179E-004  0.6870591E+03  0.7818608E-02  0.9739622E-01
         21   -1    0    0  501  502  0.00000000000E+00  0.00000000000E+00  0.16266902029E+03  0.16266902029E+03  0.00000000000E+00 0. -1.
         13   -1    0    0    0    0 -0.00000000000E+00 -0.00000000000E+00 -0.10000000000E+04  0.10000000000E+04  0.00000000000E+00 0.  1.
    9000005    2    1    2  501    0  0.84125941022E+02 -0.20438831922E+02 -0.82748480361E+03  0.10755376999E+04  0.68158295458E+03 0.  0.
         13    1    3    3    0    0 -0.24789347486E+02  0.28838152895E+03 -0.62955066494E+03  0.69290147764E+03  0.00000000000E+00 0.  1.
          3    1    3    3  501    0  0.10891528851E+03 -0.30882036087E+03 -0.19793413867E+03  0.38263622229E+03  0.00000000000E+00 0.  1.
         -1    1    1    2    0  502 -0.84125941022E+02  0.20438831922E+02 -0.98461761015E+01  0.87131320356E+02  0.00000000000E+00 0. -1.
<mgrwt>
<rscale>  1 0.68705913E+03</rscale>
<asrwt>0</asrwt>
<pdfrwt beam="1">  1       21 0.25026002E-01 0.68705913E+03</pdfrwt>
<pdfrwt beam="2">0</pdfrwt>
<totfact> 0.14504772E+03</totfact>
</mgrwt>
</event>
<event>
 6    1  0.1386179E-004  0.6549205E+03  0.7818608E-02  0.9797590E-01
         21   -1    0    0  501  502  0.00000000000E+00  0.00000000000E+00  0.25856611051E+03  0.25856611051E+03  0.00000000000E+00 0. -1.
         13   -1    0    0    0    0 -0.00000000000E+00 -0.00000000000E+00 -0.10000000000E+04  0.10000000000E+04  0.00000000000E+00 0.  1.
    9000005    2    1    2  501    0  0.29606032058E+02 -0.20261393517E+01 -0.89115713762E+03  0.11059303565E+04  0.65424787895E+03 0.  0.
         13    1    3    3    0    0  0.78818232432E+02 -0.19845277625E+03 -0.23343177388E+02  0.21480391546E+03  0.00000000000E+00 0.  1.
          1    1    3    3  501    0 -0.49212200373E+02  0.19642663690E+03 -0.86781396023E+03  0.89112644104E+03  0.00000000000E+00 0.  1.
         -3    1    1    2    0  502 -0.29606032058E+02  0.20261393517E+01  0.14972324812E+03  0.15263575402E+03  0.00000000000E+00 0. -1.
<mgrwt>
<rscale>  1 0.65492054E+03</rscale>
<asrwt>0</asrwt>
<pdfrwt beam="1">  1       21 0.39779400E-01 0.65492054E+03</pdfrwt>
<pdfrwt beam="2">0</pdfrwt>
<totfact> 0.57105257E+02</totfact>
</mgrwt>
</event>
<event>
 6    1  0.1386179E-004  0.6499312E+03  0.7818608E-02  0.9806908E-01
         21   -1    0    0  501  502  0.00000000000E+00  0.00000000000E+00  0.13971955350E+03  0.13971955350E+03  0.00000000000E+00 0.  1.
         13   -1    0    0    0    0 -0.00000000000E+00 -0.00000000000E+00 -0.10000000000E+04  0.10000000000E+04  0.00000000000E+00 0.  1.
    9000005    2    1    2  501    0 -0.11800348167E+02  0.56137333261E+02 -0.86522913052E+03  0.10821423195E+04  0.64739470414E+03 0.  0.
         13    1    3    3    0    0 -0.38595247787E+02 -0.19816151098E+02  0.10237671796E+03  0.11119022158E+03  0.00000000000E+00 0.  1.
          3    1    3    3  501    0  0.26794899620E+02  0.75953484359E+02 -0.96760584848E+03  0.97095209791E+03  0.00000000000E+00 0.  1.
         -1    1    1    2    0  502  0.11800348167E+02 -0.56137333261E+02  0.49486840212E+01  0.57577234008E+02  0.00000000000E+00 0. -1.
<mgrwt>
<rscale>  1 0.64993119E+03</rscale>
<asrwt>0</asrwt>
<pdfrwt beam="1">  1       21 0.21495315E-01 0.64993119E+03</pdfrwt>
<pdfrwt beam="2">0</pdfrwt>
<totfact> 0.19535273E+03</totfact>
</mgrwt>
</event>
<event>
 6    1  0.1386179E-004  0.6568141E+03  0.7818608E-02  0.9794076E-01
         21   -1    0    0  501  502  0.00000000000E+00  0.00000000000E+00  0.21130707195E+03  0.21130707195E+03  0.00000000000E+00 0.  1.
         13   -1    0    0    0    0 -0.00000000000E+00 -0.00000000000E+00 -0.10000000000E+04  0.10000000000E+04  0.00000000000E+00 0.  1.
    9000005    2    1    2  501    0 -0.10032861089E+03  0.11787874978E+03 -0.82279193089E+03  0.10528016405E+04  0.63831301321E+03 0.  0.
         13    1    3    3    0    0 -0.60097565937E+02 -0.14772157600E+03 -0.76050301341E+03  0.77704453852E+03  0.00000000000E+00 0.  1.
          1    1    3    3  501    0 -0.40231044954E+02  0.26560032578E+03 -0.62288917477E+02  0.27575710195E+03  0.00000000000E+00 0.  1.
         -1    1    1    2    0  502  0.10032861089E+03 -0.11787874978E+03  0.34099002837E+02  0.15850543148E+03  0.00000000000E+00 0. -1.
<mgrwt>
<rscale>  1 0.65681408E+03</rscale>
<asrwt>0</asrwt>
<pdfrwt beam="1">  1       21 0.32508779E-01 0.65681408E+03</pdfrwt>
<pdfrwt beam="2">0</pdfrwt>
<totfact> 0.86302812E+02</totfact>
</mgrwt>
</event>
<event>
 6    1  0.1386179E-004  0.6538073E+03  0.7818608E-02  0.9799661E-01
         21   -1    0    0  501  502  0.00000000000E+00  0.00000000000E+00  0.12282198040E+03  0.12282198040E+03  0.00000000000E+00 0.  1.
         13   -1    0    0    0    0 -0.00000000000E+00 -0.00000000000E+00 -0.10000000000E+04  0.10000000000E+04  0.00000000000E+00 0.  1.
    9000005    2    1    2  501    0 -0.35207116638E+02 -0.19160978431E+01 -0.86744619544E+03  0.10862443794E+04  0.65285583195E+03 0.  0.
         13    1    3    3    0    0 -0.13472008686E+03  0.71814678617E+02 -0.93348543521E+03  0.94588683658E+03  0.00000000000E+00 0.  1.
          3    1    3    3  501    0  0.99512970224E+02 -0.73730776460E+02  0.66039239764E+02  0.14035754283E+03  0.00000000000E+00 0.  1.
         -1    1    1    2    0  502  0.35207116638E+02  0.19160978431E+01 -0.97318241546E+01  0.36577600991E+02  0.00000000000E+00 0. -1.
<mgrwt>
<rscale>  1 0.65380727E+03</rscale>
<asrwt>0</asrwt>
<pdfrwt beam="1">  1       21 0.18895689E-01 0.65380727E+03</pdfrwt>
<pdfrwt beam="2">0</pdfrwt>
<totfact> 0.25014343E+03</totfact>
</mgrwt>
</event>
<event>
 6    1  0.1386179E-004  0.7269270E+03  0.7818608E-02  0.9672260E-01
         21   -1    0    0  501  502  0.00000000000E+00  0.00000000000E+00  0.32409884166E+03  0.32409884166E+03  0.00000000000E+00 0. -1.
         13   -1    0    0    0    0 -0.00000000000E+00 -0.00000000000E+00 -0.10000000000E+04  0.10000000000E+04  0.00000000000E+00 0.  1.
    9000005    2    1    2  501    0  0.29642482369E+03 -0.15688253776E+03 -0.67010669005E+03  0.98866869600E+03  0.64493643691E+03 0.  0.
         13    1    3    3    0    0  0.45980989810E+03  0.43573907351E+02 -0.36482331015E+03  0.58857444339E+03  0.00000000000E+00 0.  1.
          1    1    3    3  501    0 -0.16338507441E+03 -0.20045644511E+03 -0.30528337991E+03  0.40009425261E+03  0.00000000000E+00 0.  1.
         -3    1    1    2    0  502 -0.29642482369E+03  0.15688253776E+03 -0.57944682837E+01  0.33543014566E+03  0.00000000000E+00 0. -1.
<mgrwt>
<rscale>  1 0.72692697E+03</rscale>
<asrwt>0</asrwt>
<pdfrwt beam="1">  1       21 0.49861359E-01 0.72692697E+03</pdfrwt>
<pdfrwt beam="2">0</pdfrwt>
<totfact> 0.35236387E+02</totfact>
</mgrwt>
</event>
<event>
 6    1  0.1386179E-004  0.6559390E+03  0.7818608E-02  0.9795698E-01
         21   -1    0    0  501  502  0.00000000000E+00  0.00000000000E+00  0.24324755615E+03  0.24324755615E+03  0.00000000000E+00 0. -1.
         13   -1    0    0    0    0 -0.00000000000E+00 -0.00000000000E+00 -0.10000000000E+04  0.10000000000E+04  0.00000000000E+00 0.  1.
    9000005    2    1    2  501    0 -0.81833297767E+02  0.41872186932E+02 -0.87494301848E+03  0.10935178644E+04  0.64946598487E+03 0.  0.
         13    1    3    3    0    0  0.21648393002E+03 -0.13802968104E+03 -0.17213237105E+03  0.30910683908E+03  0.00000000000E+00 0.  1.
          1    1    3    3  501    0 -0.29831722779E+03  0.17990186797E+03 -0.70281064743E+03  0.78441102531E+03  0.00000000000E+00 0.  1.
         -1    1    1    2    0  502  0.81833297767E+02 -0.41872186932E+02  0.11819057463E+03  0.14972969176E+03  0.00000000000E+00 0. -1.
<mgrwt>
<rscale>  1 0.65593905E+03</rscale>
<asrwt>0</asrwt>
<pdfrwt beam="1">  1       21 0.37422700E-01 0.65593905E+03</pdfrwt>
<pdfrwt beam="2">0</pdfrwt>
<totfact> 0.64776419E+02</totfact>
</mgrwt>
</event>
<event>
 6    1  0.1386179E-004  0.6592170E+03  0.7818608E-02  0.9789636E-01
         21   -1    0    0  501  502  0.00000000000E+00  0.00000000000E+00  0.16143466057E+03  0.16143466057E+03  0.00000000000E+00 0.  1.
         13   -1    0    0    0    0 -0.00000000000E+00 -0.00000000000E+00 -0.10000000000E+04  0.10000000000E+04  0.00000000000E+00 0.  1.
    9000005    2    1    2  501    0  0.40206123272E+02 -0.72857000802E+02 -0.85188512008E+03  0.10771607532E+04  0.65394369437E+03 0.  0.
         13    1    3    3    0    0 -0.22963456373E+03  0.15450782827E+03 -0.22052327611E+03  0.35388588156E+03  0.00000000000E+00 0.  1.
          1    1    3    3  501    0  0.26984068701E+03 -0.22736482907E+03 -0.63136184397E+03  0.72327487160E+03  0.00000000000E+00 0.  1.
         -1    1    1    2    0  502 -0.40206123272E+02  0.72857000802E+02  0.13319780654E+02  0.84273907416E+02  0.00000000000E+00 0. -1.
<mgrwt>
<rscale>  1 0.65921698E+03</rscale>
<asrwt>0</asrwt>
<pdfrwt beam="1">  1       21 0.24836101E-01 0.65921698E+03</pdfrwt>
<pdfrwt beam="2">0</pdfrwt>
<totfact> 0.14743651E+03</totfact>
</mgrwt>
</event>
<event>
 6    1  0.1386179E-004  0.6461431E+03  0.7818608E-02  0.9814043E-01
         21   -1    0    0  501  502  0.00000000000E+00  0.00000000000E+00  0.14125309912E+03  0.14125309912E+03  0.00000000000E+00 0.  1.
         13   -1    0    0    0    0 -0.00000000000E+00 -0.00000000000E+00 -0.10000000000E+04  0.10000000000E+04  0.00000000000E+00 0.  1.
    9000005    2    1    2  501    0  0.56471873661E+02 -0.77305925229E+02 -0.80221413665E+03  0.10300720215E+04  0.63901140040E+03 0.  0.
         13    1    3    3    0    0 -0.33134098679E+02 -0.34503208166E+01 -0.88616024238E+03  0.88678619091E+03  0.00000000000E+00 0.  1.
          3    1    3    3  501    0  0.89605972339E+02 -0.73855604412E+02  0.83946105725E+02  0.14328583059E+03  0.00000000000E+00 0.  1.
         -3    1    1    2    0  502 -0.56471873661E+02  0.77305925229E+02 -0.56532764225E+02  0.11118107762E+03  0.00000000000E+00 0. -1.
<mgrwt>
<rscale>  1 0.64614306E+03</rscale>
<asrwt>0</asrwt>
<pdfrwt beam="1">  1       21 0.21731245E-01 0.64614306E+03</pdfrwt>
<pdfrwt beam="2">0</pdfrwt>
<totfact> 0.19130817E+03</totfact>
</mgrwt>
</event>
<event>
 6    1  0.1386179E-004  0.6799614E+03  0.7818608E-02  0.9752128E-01
         21   -1    0    0  501  502  0.00000000000E+00  0.00000000000E+00  0.33539811050E+03  0.33539811050E+03  0.00000000000E+00 0. -1.
         13   -1    0    0    0    0 -0.00000000000E+00 -0.00000000000E+00 -0.10000000000E+04  0.10000000000E+04  0.00000000000E+00 0.  1.
    9000005    2    1    2  501    0 -0.20217076758E+03 -0.69903100139E+02 -0.82421825735E+03  0.10684957921E+04  0.64543633254E+03 0.  0.
         13    1    3    3    0    0 -0.41872213383E+03 -0.50542127952E+02 -0.70234951582E+03  0.81925427947E+03  0.00000000000E+00 0.  1.
          3    1    3    3  501    0  0.21655136625E+03 -0.19360972188E+02 -0.12186874152E+03  0.24924151265E+03  0.00000000000E+00 0.  1.
         -3    1    1    2    0  502  0.20217076758E+03  0.69903100139E+02  0.15961636785E+03  0.26690231838E+03  0.00000000000E+00 0. -1.
<mgrwt>
<rscale>  1 0.67996141E+03</rscale>
<asrwt>0</asrwt>
<pdfrwt beam="1">  1       21 0.51599708E-01 0.67996141E+03</pdfrwt>
<pdfrwt beam="2">0</pdfrwt>
<totfact> 0.32868992E+02</totfact>
</mgrwt>
</event>
<event>
 6    1  0.1386179E-004  0.6810702E+03  0.7818608E-02  0.9750164E-01
         21   -1    0    0  501  502  0.00000000000E+00  0.00000000000E+00  0.16160509465E+03  0.16160509465E+03  0.00000000000E+00 0.  1.
         13   -1    0    0    0    0 -0.00000000000E+00 -0.00000000000E+00 -0.10000000000E+04  0.10000000000E+04  0.00000000000E+00 0.  1.
    9000005    2    1    2  501    0 -0.29132414068E+02 -0.17694069696E+02 -0.87680980765E+03  0.11102486698E+04  0.68021679811E+03 0.  0.
         13    1    3    3    0    0  0.17527713229E+03 -0.24997802179E+03 -0.19702983431E+03  0.36336185833E+03  0.00000000000E+00 0.  1.
          3    1    3    3  501    0 -0.20440954636E+03  0.23228395209E+03 -0.67977997334E+03  0.74688681150E+03  0.00000000000E+00 0.  1.
         -3    1    1    2    0  502  0.29132414068E+02  0.17694069696E+02  0.38414902291E+02  0.51356424816E+02  0.00000000000E+00 0. -1.
<mgrwt>
<rscale>  1 0.68107024E+03</rscale>
<asrwt>0</asrwt>
<pdfrwt beam="1">  1       21 0.24862322E-01 0.68107024E+03</pdfrwt>
<pdfrwt beam="2">0</pdfrwt>
<totfact> 0.14697045E+03</totfact>
</mgrwt>
</event>
<event>
 6    1  0.1386179E-004  0.6561840E+03  0.7818608E-02  0.9795244E-01
         21   -1    0    0  501  502  0.00000000000E+00  0.00000000000E+00  0.14266508244E+03  0.14266508244E+03  0.00000000000E+00 0.  1.
         13   -1    0    0    0    0 -0.00000000000E+00 -0.00000000000E+00 -0.10000000000E+04  0.10000000000E+04  0.00000000000E+00 0.  1.
    9000005    2    1    2  501    0 -0.38442133727E+01 -0.77198212885E+02 -0.83544695433E+03  0.10623318702E+04  0.65161572031E+03 0.  0.
         13    1    3    3    0    0 -0.12764855290E+02  0.16764441376E+03  0.22918747343E+02  0.16968458968E+03  0.00000000000E+00 0.  1.
          3    1    3    3  501    0  0.89206419171E+01 -0.24484262664E+03 -0.85836570167E+03  0.89264728055E+03  0.00000000000E+00 0.  1.
         -1    1    1    2    0  502  0.38442133727E+01  0.77198212885E+02 -0.21887963237E+02  0.80333212209E+02  0.00000000000E+00 0. -1.
<mgrwt>
<rscale>  1 0.65618396E+03</rscale>
<asrwt>0</asrwt>
<pdfrwt beam="1">  1       21 0.21948474E-01 0.65618396E+03</pdfrwt>
<pdfrwt beam="2">0</pdfrwt>
<totfact> 0.18758025E+03</totfact>
</mgrwt>
</event>
<event>
 6    1  0.1386179E-004  0.6399767E+03  0.7818608E-02  0.9825771E-01
         21   -1    0    0  501  502  0.00000000000E+00  0.00000000000E+00  0.19921497552E+03  0.19921497552E+03  0.00000000000E+00 0.  1.
         13   -1    0    0    0    0 -0.00000000000E+00 -0.00000000000E+00 -0.10000000000E+04  0.10000000000E+04  0.00000000000E+00 0.  1.
    9000005    2    1    2  501    0  0.20918101414E+02 -0.11254763730E+01 -0.89635672621E+03  0.11013743713E+04  0.63963371664E+03 0.  0.
         13    1    3    3    0    0 -0.24770080658E+03  0.11621529079E+03 -0.18038410094E+03  0.32771955582E+03  0.00000000000E+00 0.  1.
          3    1    3    3  501    0  0.26861890799E+03 -0.11734076716E+03 -0.71597262527E+03  0.77365481548E+03  0.00000000000E+00 0.  1.
         -3    1    1    2    0  502 -0.20918101414E+02  0.11254763730E+01  0.95571701730E+02  0.97840604227E+02  0.00000000000E+00 0. -1.
<mgrwt>
<rscale>  1 0.63997666E+03</rscale>
<asrwt>0</asrwt>
<pdfrwt beam="1">  1       21 0.30648457E-01 0.63997666E+03</pdfrwt>
<pdfrwt beam="2">0</pdfrwt>
<totfact> 0.97284673E+02</totfact>
</mgrwt>
</event>
<event>
 6    1  0.1386179E-004  0.6658933E+03  0.7818608E-02  0.9777405E-01
         21   -1    0    0  501  502  0.00000000000E+00  0.00000000000E+00  0.12259346619E+03  0.12259346619E+03  0.00000000000E+00 0.  1.
         13   -1    0    0    0    0 -0.00000000000E+00 -0.00000000000E+00 -0.10000000000E+04  0.10000000000E+04  0.00000000000E+00 0.  1.
    9000005    2    1    2  501    0  0.10103216284E+02  0.20496549228E+02 -0.87507611071E+03  0.10996236081E+04  0.66550108672E+03 0.  0.
         13    1    3    3    0    0  0.24611232086E+03 -0.19948546520E+03 -0.28043395287E+03  0.42309446608E+03  0.00000000000E+00 0.  1.
          3    1    3    3  501    0 -0.23600910457E+03  0.21998201443E+03 -0.59464215784E+03  0.67652914201E+03  0.00000000000E+00 0.  1.
         -1    1    1    2    0  502 -0.10103216284E+02 -0.20496549228E+02 -0.23304230945E+01  0.22969858105E+02  0.00000000000E+00 0. -1.
<mgrwt>
<rscale>  1 0.66589329E+03</rscale>
<asrwt>0</asrwt>
<pdfrwt beam="1">  1       21 0.18860533E-01 0.66589329E+03</pdfrwt>
<pdfrwt beam="2">0</pdfrwt>
<totfact> 0.25092635E+03</totfact>
</mgrwt>
</event>
<event>
 6    1  0.1386179E-004  0.6520922E+03  0.7818608E-02  0.9802861E-01
         21   -1    0    0  501  502  0.00000000000E+00  0.00000000000E+00  0.17634732605E+03  0.17634732605E+03  0.00000000000E+00 0.  1.
         13   -1    0    0    0    0 -0.00000000000E+00 -0.00000000000E+00 -0.10000000000E+04  0.10000000000E+04  0.00000000000E+00 0.  1.
    9000005    2    1    2  501    0  0.66982032479E+01 -0.26544122869E+02 -0.89072158386E+03  0.11039063496E+04  0.65151733090E+03 0.  0.
         13    1    3    3    0    0  0.17917537693E+03 -0.12389304569E+03 -0.29049591945E+02  0.21976619681E+03  0.00000000000E+00 0.  1.
          3    1    3    3  501    0 -0.17247717368E+03  0.97348922824E+02 -0.86167199191E+03  0.88414015284E+03  0.00000000000E+00 0.  1.
         -1    1    1    2    0  502 -0.66982032479E+01  0.26544122869E+02  0.67068909912E+02  0.72440976404E+02  0.00000000000E+00 0. -1.
<mgrwt>
<rscale>  1 0.65209224E+03</rscale>
<asrwt>0</asrwt>
<pdfrwt beam="1">  1       21 0.27130357E-01 0.65209224E+03</pdfrwt>
<pdfrwt beam="2">0</pdfrwt>
<totfact> 0.12394861E+03</totfact>
</mgrwt>
</event>
<event>
 6    1  0.1386179E-004  0.8224492E+03  0.7818608E-02  0.9528079E-01
         21   -1    0    0  501  502  0.00000000000E+00  0.00000000000E+00  0.20647627261E+03  0.20647627261E+03  0.00000000000E+00 0.  1.
         13   -1    0    0    0    0 -0.00000000000E+00 -0.00000000000E+00 -0.10000000000E+04  0.10000000000E+04  0.00000000000E+00 0.  1.
    9000005    2    1    2  501    0 -0.34863924403E+02 -0.53642771258E+02 -0.79301805186E+03  0.11424974023E+04  0.81995709866E+03 0.  0.
         13    1    3    3    0    0 -0.53390684136E+02  0.35656688328E+01  0.16968294857E+03  0.17792015677E+03  0.00000000000E+00 0.  1.
          3    1    3    3  501    0  0.18526759732E+02 -0.57208440091E+02 -0.96270100043E+03  0.96457724557E+03  0.00000000000E+00 0.  1.
         -1    1    1    2    0  502  0.34863924403E+02  0.53642771258E+02 -0.50567553402E+00  0.63978870268E+02  0.00000000000E+00 0. -1.
<mgrwt>
<rscale>  1 0.82244920E+03</rscale>
<asrwt>0</asrwt>
<pdfrwt beam="1">  1       21 0.31765579E-01 0.82244920E+03</pdfrwt>
<pdfrwt beam="2">0</pdfrwt>
<totfact> 0.89552493E+02</totfact>
</mgrwt>
</event>
<event>
 6    1  0.1386179E-004  0.6454687E+03  0.7818608E-02  0.9815319E-01
         21   -1    0    0  501  502  0.00000000000E+00  0.00000000000E+00  0.39821322360E+03  0.39821322360E+03  0.00000000000E+00 0. -1.
         13   -1    0    0    0    0 -0.00000000000E+00 -0.00000000000E+00 -0.10000000000E+04  0.10000000000E+04  0.00000000000E+00 0.  1.
    9000005    2    1    2  501    0  0.67780530942E+01 -0.46531877948E+02 -0.89376510270E+03  0.11024726266E+04  0.64375358328E+03 0.  0.
         13    1    3    3    0    0 -0.76640232679E+02  0.86151775126E+02  0.64061592932E+02  0.13190807902E+03  0.00000000000E+00 0.  1.
          3    1    3    3  501    0  0.83418285773E+02 -0.13268365307E+03 -0.95782669563E+03  0.97056454760E+03  0.00000000000E+00 0.  1.
         -1    1    1    2    0  502 -0.67780530942E+01  0.46531877948E+02  0.29197832630E+03  0.29574059697E+03  0.00000000000E+00 0. -1.
<mgrwt>
<rscale>  1 0.64546869E+03</rscale>
<asrwt>0</asrwt>
<pdfrwt beam="1">  1       21 0.61263571E-01 0.64546869E+03</pdfrwt>
<pdfrwt beam="2">0</pdfrwt>
<totfact> 0.22665244E+02</totfact>
</mgrwt>
</event>
<event>
 6    1  0.1386179E-004  0.6423248E+03  0.7818608E-02  0.9821289E-01
         21   -1    0    0  501  502  0.00000000000E+00  0.00000000000E+00  0.14737983943E+03  0.14737983943E+03  0.00000000000E+00 0.  1.
         13   -1    0    0    0    0 -0.00000000000E+00 -0.00000000000E+00 -0.10000000000E+04  0.10000000000E+04  0.00000000000E+00 0.  1.
    9000005    2    1    2  501    0  0.62766730447E+02  0.29539175828E+02 -0.86449383214E+03  0.10770007983E+04  0.63856785723E+03 0.  0.
         13    1    3    3    0    0 -0.24081767913E+01  0.32075563944E+03 -0.58989168114E+03  0.67146271306E+03  0.00000000000E+00 0.  1.
          3    1    3    3  501    0  0.65174907238E+02 -0.29121646362E+03 -0.27460215101E+03  0.40553808521E+03  0.00000000000E+00 0.  1.
         -3    1    1    2    0  502 -0.62766730447E+02 -0.29539175828E+02  0.11873671578E+02  0.70379041172E+02  0.00000000000E+00 0. -1.
<mgrwt>
<rscale>  1 0.64232479E+03</rscale>
<asrwt>0</asrwt>
<pdfrwt beam="1">  1       21 0.22673821E-01 0.64232479E+03</pdfrwt>
<pdfrwt beam="2">0</pdfrwt>
<totfact> 0.17623769E+03</totfact>
</mgrwt>
</event>
<event>
 6    1  0.1386179E-004  0.7090022E+03  0.7818608E-02  0.9701960E-01
         21   -1    0    0  501  502  0.00000000000E+00  0.00000000000E+00  0.21402036571E+03  0.21402036571E+03  0.00000000000E+00 0. -1.
         13   -1    0    0    0    0 -0.00000000000E+00 -0.00000000000E+00 -0.10000000000E+04  0.10000000000E+04  0.00000000000E+00 0.  1.
    9000005    2    1    2  501    0 -0.55032143169E+02  0.58551926834E+02 -0.85314116754E+03  0.11092943591E+04  0.70443399861E+03 0.  0.
         13    1    3    3    0    0 -0.14571097536E+03  0.21125528817E+03 -0.89141327201E+03  0.92761959156E+03  0.00000000000E+00 0.  1.
          1    1    3    3  501    0  0.90678832189E+02 -0.15270336134E+03  0.38272104475E+02  0.18167476751E+03  0.00000000000E+00 0.  1.
         -3    1    1    2    0  502  0.55032143169E+02 -0.58551926834E+02  0.67161533252E+02  0.10472600664E+03  0.00000000000E+00 0. -1.
<mgrwt>
<rscale>  1 0.70900220E+03</rscale>
<asrwt>0</asrwt>
<pdfrwt beam="1">  1       21 0.32926209E-01 0.70900220E+03</pdfrwt>
<pdfrwt beam="2">0</pdfrwt>
<totfact> 0.83816901E+02</totfact>
</mgrwt>
</event>
<event>
 6    1  0.1386179E-004  0.6658788E+03  0.7818608E-02  0.9777432E-01
         21   -1    0    0  501  502  0.00000000000E+00  0.00000000000E+00  0.54467708850E+03  0.54467708850E+03  0.00000000000E+00 0.  1.
         13   -1    0    0    0    0 -0.00000000000E+00 -0.00000000000E+00 -0.10000000000E+04  0.10000000000E+04  0.00000000000E+00 0.  1.
    9000005    2    1    2  501    0 -0.19304247040E+02 -0.13677424439E+02 -0.88879301177E+03  0.11105618345E+04  0.66545837184E+03 0.  0.
         13    1    3    3    0    0 -0.15197656415E+03  0.21878795446E+03 -0.11205634604E+03  0.28900115875E+03  0.00000000000E+00 0.  1.
          3    1    3    3  501    0  0.13267231711E+03 -0.23246537890E+03 -0.77673666573E+03  0.82156067579E+03  0.00000000000E+00 0.  1.
         -3    1    1    2    0  502  0.19304247040E+02  0.13677424439E+02  0.43347010027E+03  0.43411525396E+03  0.00000000000E+00 0. -1.
<mgrwt>
<rscale>  1 0.66587880E+03</rscale>
<asrwt>0</asrwt>
<pdfrwt beam="1">  1       21 0.83796473E-01 0.66587880E+03</pdfrwt>
<pdfrwt beam="2">0</pdfrwt>
<totfact> 0.11061530E+02</totfact>
</mgrwt>
</event>
<event>
 6    1  0.1386179E-004  0.6804225E+03  0.7818608E-02  0.9751311E-01
         21   -1    0    0  501  502  0.00000000000E+00  0.00000000000E+00  0.99549247125E+03  0.99549247125E+03  0.00000000000E+00 0. -1.
         13   -1    0    0    0    0 -0.00000000000E+00 -0.00000000000E+00 -0.10000000000E+04  0.10000000000E+04  0.00000000000E+00 0.  1.
    9000005    2    1    2  501    0  0.65118410035E+02  0.63627483215E+01 -0.88289860485E+03  0.11146679856E+04  0.67726942929E+03 0.  0.
         13    1    3    3    0    0  0.10570643778E+03  0.15932994678E+03 -0.93007488615E+03  0.94952576415E+03  0.00000000000E+00 0.  1.
          1    1    3    3  501    0 -0.40588027744E+02 -0.15296719845E+03  0.47176281303E+02  0.16514222148E+03  0.00000000000E+00 0.  1.
         -3    1    1    2    0  502 -0.65118410035E+02 -0.63627483215E+01  0.87839107610E+03  0.88082448562E+03  0.00000000000E+00 0. -1.
<mgrwt>
<rscale>  1 0.68042250E+03</rscale>
<asrwt>0</asrwt>
<pdfrwt beam="1">  1       21 0.15315268E+00 0.68042250E+03</pdfrwt>
<pdfrwt beam="2">0</pdfrwt>
<totfact> 0.23841542E+01</totfact>
</mgrwt>
</event>
<event>
 6    1  0.1386179E-004  0.6727813E+03  0.7818608E-02  0.9764946E-01
         21   -1    0    0  501  502  0.00000000000E+00  0.00000000000E+00  0.39837505198E+03  0.39837505198E+03  0.00000000000E+00 0. -1.
         13   -1    0    0    0    0 -0.00000000000E+00 -0.00000000000E+00 -0.10000000000E+04  0.10000000000E+04  0.00000000000E+00 0.  1.
    9000005    2    1    2  501    0  0.30591937166E+02  0.96135855915E+01 -0.88583754932E+03  0.11123591601E+04  0.67201670346E+03 0.  0.
         13    1    3    3    0    0  0.10399324352E+03 -0.18971023024E+03 -0.15968732447E+02  0.21693217044E+03  0.00000000000E+00 0.  1.
          3    1    3    3  501    0 -0.73401306349E+02  0.19932381583E+03 -0.86986881687E+03  0.89542698971E+03  0.00000000000E+00 0.  1.
         -3    1    1    2    0  502 -0.30591937166E+02 -0.96135855915E+01  0.28421260130E+03  0.28601589184E+03  0.00000000000E+00 0. -1.
<mgrwt>
<rscale>  1 0.67278134E+03</rscale>
<asrwt>0</asrwt>
<pdfrwt beam="1">  1       21 0.61288468E-01 0.67278134E+03</pdfrwt>
<pdfrwt beam="2">0</pdfrwt>
<totfact> 0.22577892E+02</totfact>
</mgrwt>
</event>
<event>
 6    1  0.1386179E-004  0.6365394E+03  0.7818608E-02  0.9832370E-01
         21   -1    0    0  501  502  0.00000000000E+00  0.00000000000E+00  0.51379951487E+03  0.51379951487E+03  0.00000000000E+00 0. -1.
         13   -1    0    0    0    0 -0.00000000000E+00 -0.00000000000E+00 -0.10000000000E+04  0.10000000000E+04  0.00000000000E+00 0.  1.
    9000005    2    1    2  501    0 -0.34486638831E+02  0.15863099214E+02 -0.89774233543E+03  0.11005106804E+04  0.63540655536E+03 0.  0.
         13    1    3    3    0    0  0.86935398419E+02  0.24612308344E+03 -0.76499932703E+03  0.80830582458E+03  0.00000000000E+00 0.  1.
          3    1    3    3  501    0 -0.12142203725E+03 -0.23025998422E+03 -0.13274300841E+03  0.29220485579E+03  0.00000000000E+00 0.  1.
         -1    1    1    2    0  502  0.34486638831E+02 -0.15863099214E+02  0.41154185030E+03  0.41328883450E+03  0.00000000000E+00 0. -1.
<mgrwt>
<rscale>  1 0.63653944E+03</rscale>
<asrwt>0</asrwt>
<pdfrwt beam="1">  1       21 0.79046077E-01 0.63653944E+03</pdfrwt>
<pdfrwt beam="2">0</pdfrwt>
<totfact> 0.12728127E+02</totfact>
</mgrwt>
</event>
<event>
 6    1  0.1386179E-004  0.6004817E+03  0.7818608E-02  0.9904407E-01
         21   -1    0    0  501  502  0.00000000000E+00  0.00000000000E+00  0.10014591732E+03  0.10014591732E+03  0.00000000000E+00 0.  1.
         13   -1    0    0    0    0 -0.00000000000E+00 -0.00000000000E+00 -0.10000000000E+04  0.10000000000E+04  0.00000000000E+00 0.  1.
    9000005    2    1    2  501    0  0.25919325589E+02  0.15353522344E+02 -0.87425451318E+03  0.10606126396E+04  0.59972550006E+03 0.  0.
         13    1    3    3    0    0  0.32173539854E+02 -0.23979046272E+03 -0.13178685313E+03  0.27550386084E+03  0.00000000000E+00 0.  1.
          3    1    3    3  501    0 -0.62542142655E+01  0.25514398506E+03 -0.74246766005E+03  0.78510877879E+03  0.00000000000E+00 0.  1.
         -3    1    1    2    0  502 -0.25919325589E+02 -0.15353522344E+02 -0.25599569493E+02  0.39533277698E+02  0.00000000000E+00 0. -1.
<mgrwt>
<rscale>  1 0.60048165E+03</rscale>
<asrwt>0</asrwt>
<pdfrwt beam="1">  1       21 0.15407064E-01 0.60048165E+03</pdfrwt>
<pdfrwt beam="2">0</pdfrwt>
<totfact> 0.36833504E+03</totfact>
</mgrwt>
</event>
<event>
 6    1  0.1386179E-004  0.5780452E+03  0.7818608E-02  0.9952032E-01
         21   -1    0    0  501  502  0.00000000000E+00  0.00000000000E+00  0.22886750323E+03  0.22886750323E+03  0.00000000000E+00 0.  1.
         13   -1    0    0    0    0 -0.00000000000E+00 -0.00000000000E+00 -0.10000000000E+04  0.10000000000E+04  0.00000000000E+00 0.  1.
    9000005    2    1    2  501    0 -0.11638110579E+02 -0.31940320984E+02 -0.91430919611E+03  0.10817104546E+04  0.57704468789E+03 0.  0.
         13    1    3    3    0    0  0.22240554504E+03  0.12770459578E+03 -0.63065955283E+03  0.68081139960E+03  0.00000000000E+00 0.  1.
          3    1    3    3  501    0 -0.23404365562E+03 -0.15964491677E+03 -0.28364964328E+03  0.40089905502E+03  0.00000000000E+00 0.  1.
         -3    1    1    2    0  502  0.11638110579E+02  0.31940320984E+02  0.14317669934E+03  0.14715704861E+03  0.00000000000E+00 0. -1.
<mgrwt>
<rscale>  1 0.57804516E+03</rscale>
<asrwt>0</asrwt>
<pdfrwt beam="1">  1       21 0.35210384E-01 0.57804516E+03</pdfrwt>
<pdfrwt beam="2">0</pdfrwt>
<totfact> 0.73830166E+02</totfact>
</mgrwt>
</event>
<event>
 6    1  0.1386179E-004  0.6490831E+03  0.7818608E-02  0.9808501E-01
         21   -1    0    0  501  502  0.00000000000E+00  0.00000000000E+00  0.39833386276E+03  0.39833386276E+03  0.00000000000E+00 0.  1.
         13   -1    0    0    0    0 -0.00000000000E+00 -0.00000000000E+00 -0.10000000000E+04  0.10000000000E+04  0.00000000000E+00 0.  1.
    9000005    2    1    2  501    0 -0.35719789582E+02  0.52937649229E+01 -0.89344242590E+03  0.11043316010E+04  0.64807791906E+03 0.  0.
         13    1    3    3    0    0 -0.10099360294E+03  0.21158763552E+03 -0.85245568098E+03  0.88410956525E+03  0.00000000000E+00 0.  1.
          3    1    3    3  501    0  0.65273813361E+02 -0.20629387059E+03 -0.40986744925E+02  0.22022203572E+03  0.00000000000E+00 0.  1.
         -3    1    1    2    0  502  0.35719789582E+02 -0.52937649229E+01  0.29177628866E+03  0.29400226179E+03  0.00000000000E+00 0. -1.
<mgrwt>
<rscale>  1 0.64908314E+03</rscale>
<asrwt>0</asrwt>
<pdfrwt beam="1">  1       21 0.61282131E-01 0.64908314E+03</pdfrwt>
<pdfrwt beam="2">0</pdfrwt>
<totfact> 0.22641006E+02</totfact>
</mgrwt>
</event>
<event>
 6    1  0.1386179E-004  0.7120996E+03  0.7818608E-02  0.9696761E-01
         21   -1    0    0  501  502  0.00000000000E+00  0.00000000000E+00  0.27714566050E+03  0.27714566050E+03  0.00000000000E+00 0.  1.
         13   -1    0    0    0    0 -0.00000000000E+00 -0.00000000000E+00 -0.10000000000E+04  0.10000000000E+04  0.00000000000E+00 0.  1.
    9000005    2    1    2  501    0 -0.14002368761E+03  0.26101604047E+03 -0.66706193441E+03  0.97573431543E+03  0.64757225350E+03 0.  0.
         13    1    3    3    0    0 -0.32117043063E+03  0.13105481036E+03 -0.91858995656E+02  0.35883684859E+03  0.00000000000E+00 0.  1.
          1    1    3    3  501    0  0.18114674302E+03  0.12996123011E+03 -0.57520293876E+03  0.61689746684E+03  0.00000000000E+00 0.  1.
         -1    1    1    2    0  502  0.14002368761E+03 -0.26101604047E+03 -0.55792405087E+02  0.30141134507E+03  0.00000000000E+00 0. -1.
<mgrwt>
<rscale>  1 0.71209959E+03</rscale>
<asrwt>0</asrwt>
<pdfrwt beam="1">  1       21 0.42637793E-01 0.71209959E+03</pdfrwt>
<pdfrwt beam="2">0</pdfrwt>
<totfact> 0.49183229E+02</totfact>
</mgrwt>
</event>
<event>
 6    1  0.1386179E-004  0.6427436E+03  0.7818608E-02  0.9820491E-01
         21   -1    0    0  501  502  0.00000000000E+00  0.00000000000E+00  0.21709597553E+03  0.21709597553E+03  0.00000000000E+00 0. -1.
         13   -1    0    0    0    0 -0.00000000000E+00 -0.00000000000E+00 -0.10000000000E+04  0.10000000000E+04  0.00000000000E+00 0.  1.
    9000005    2    1    2  501    0 -0.85710387464E+02 -0.18274828054E+02 -0.87777786911E+03  0.10879399216E+04  0.63674095653E+03 0.  0.
         13    1    3    3    0    0  0.12074959822E+03 -0.18473673496E+03 -0.60693396113E+02  0.22889258408E+03  0.00000000000E+00 0.  1.
          1    1    3    3  501    0 -0.20645998569E+03  0.16646190691E+03 -0.81708447300E+03  0.85904733756E+03  0.00000000000E+00 0.  1.
         -1    1    1    2    0  502  0.85710387464E+02  0.18274828054E+02  0.94873844648E+02  0.12915605390E+03  0.00000000000E+00 0. -1.
<mgrwt>
<rscale>  1 0.64274356E+03</rscale>
<asrwt>0</asrwt>
<pdfrwt beam="1">  1       21 0.33399380E-01 0.64274356E+03</pdfrwt>
<pdfrwt beam="2">0</pdfrwt>
<totfact> 0.81787412E+02</totfact>
</mgrwt>
</event>
<event>
 6    1  0.1386179E-004  0.6524020E+03  0.7818608E-02  0.9802282E-01
         21   -1    0    0  501  502  0.00000000000E+00  0.00000000000E+00  0.58349739448E+03  0.58349739448E+03  0.00000000000E+00 0. -1.
         13   -1    0    0    0    0 -0.00000000000E+00 -0.00000000000E+00 -0.10000000000E+04  0.10000000000E+04  0.00000000000E+00 0.  1.
    9000005    2    1    2  501    0 -0.12102393403E+02  0.42557772145E+02 -0.89245755645E+03  0.11054903368E+04  0.65089996370E+03 0.  0.
         13    1    3    3    0    0  0.24685568378E+03  0.54878655036E+02 -0.10039967818E+03  0.27208360989E+03  0.00000000000E+00 0.  1.
          3    1    3    3  501    0 -0.25895807718E+03 -0.12320882891E+02 -0.79205787827E+03  0.83340672689E+03  0.00000000000E+00 0.  1.
         -3    1    1    2    0  502  0.12102393403E+02 -0.42557772145E+02  0.47595495093E+03  0.47800705770E+03  0.00000000000E+00 0. -1.
<mgrwt>
<rscale>  1 0.65240202E+03</rscale>
<asrwt>0</asrwt>
<pdfrwt beam="1">  1       21 0.89768827E-01 0.65240202E+03</pdfrwt>
<pdfrwt beam="2">0</pdfrwt>
<totfact> 0.94121087E+01</totfact>
</mgrwt>
</event>
<event>
 6    1  0.1386179E-004  0.7048894E+03  0.7818608E-02  0.9708907E-01
         21   -1    0    0  501  502  0.00000000000E+00  0.00000000000E+00  0.50270743897E+03  0.50270743897E+03  0.00000000000E+00 0. -1.
         13   -1    0    0    0    0 -0.00000000000E+00 -0.00000000000E+00 -0.10000000000E+04  0.10000000000E+04  0.00000000000E+00 0.  1.
    9000005    2    1    2  501    0  0.20117461420E+03 -0.73877034472E+02 -0.84119921850E+03  0.10974904222E+04  0.67152070706E+03 0.  0.
         13    1    3    3    0    0  0.84605385482E+02 -0.74138912044E+02 -0.93876363272E+03  0.94547967067E+03  0.00000000000E+00 0.  1.
          1    1    3    3  501    0  0.11656922872E+03  0.26187757201E+00  0.97564414216E+02  0.15201075154E+03  0.00000000000E+00 0.  1.
         -3    1    1    2    0  502 -0.20117461420E+03  0.73877034472E+02  0.34390665747E+03  0.40521701676E+03  0.00000000000E+00 0. -1.
<mgrwt>
<rscale>  1 0.70488943E+03</rscale>
<asrwt>0</asrwt>
<pdfrwt beam="1">  1       21 0.77339604E-01 0.70488943E+03</pdfrwt>
<pdfrwt beam="2">0</pdfrwt>
<totfact> 0.13275758E+02</totfact>
</mgrwt>
</event>
<event>
 6    1  0.1386179E-004  0.6500504E+03  0.7818608E-02  0.9806685E-01
         21   -1    0    0  501  502  0.00000000000E+00  0.00000000000E+00  0.16868707282E+03  0.16868707282E+03  0.00000000000E+00 0.  1.
         13   -1    0    0    0    0 -0.00000000000E+00 -0.00000000000E+00 -0.10000000000E+04  0.10000000000E+04  0.00000000000E+00 0.  1.
    9000005    2    1    2  501    0 -0.23016223586E+02  0.10588879117E+02 -0.89153163279E+03  0.11033558903E+04  0.64955653902E+03 0.  0.
         13    1    3    3    0    0  0.14808148499E+03  0.21896417045E+03 -0.12815394019E+03  0.29376328315E+03  0.00000000000E+00 0.  1.
          3    1    3    3  501    0 -0.17109770858E+03 -0.20837529134E+03 -0.76337769261E+03  0.80959260711E+03  0.00000000000E+00 0.  1.
         -1    1    1    2    0  502  0.23016223586E+02 -0.10588879117E+02  0.60218705616E+02  0.65331182564E+02  0.00000000000E+00 0. -1.
<mgrwt>
<rscale>  1 0.65005044E+03</rscale>
<asrwt>0</asrwt>
<pdfrwt beam="1">  1       21 0.25951857E-01 0.65005044E+03</pdfrwt>
<pdfrwt beam="2">0</pdfrwt>
<totfact> 0.13531258E+03</totfact>
</mgrwt>
</event>
<event>
 6    1  0.1386179E-004  0.7050868E+03  0.7818608E-02  0.9708572E-01
         21   -1    0    0  501  502  0.00000000000E+00  0.00000000000E+00  0.15748425881E+03  0.15748425881E+03  0.00000000000E+00 0.  1.
         13   -1    0    0    0    0 -0.00000000000E+00 -0.00000000000E+00 -0.10000000000E+04  0.10000000000E+04  0.00000000000E+00 0.  1.
    9000005    2    1    2  501    0  0.35230421964E+02 -0.31925224643E+02 -0.85509681613E+03  0.11083041201E+04  0.70348209288E+03 0.  0.
         13    1    3    3    0    0  0.71040720088E+02 -0.14506640827E+03 -0.94545053853E+03  0.95914950218E+03  0.00000000000E+00 0.  1.
          1    1    3    3  501    0 -0.35810298124E+02  0.11314118363E+03  0.90353722403E+02  0.14915461789E+03  0.00000000000E+00 0.  1.
         -1    1    1    2    0  502 -0.35230421964E+02  0.31925224643E+02  0.12581074942E+02  0.49180138745E+02  0.00000000000E+00 0. -1.
<mgrwt>
<rscale>  1 0.70508684E+03</rscale>
<asrwt>0</asrwt>
<pdfrwt beam="1">  1       21 0.24228347E-01 0.70508684E+03</pdfrwt>
<pdfrwt beam="2">0</pdfrwt>
<totfact> 0.15442051E+03</totfact>
</mgrwt>
</event>
<event>
 6    1  0.1386179E-004  0.6529881E+03  0.7818608E-02  0.9801188E-01
         21   -1    0    0  501  502  0.00000000000E+00  0.00000000000E+00  0.13789196653E+03  0.13789196653E+03  0.00000000000E+00 0.  1.
         13   -1    0    0    0    0 -0.00000000000E+00 -0.00000000000E+00 -0.10000000000E+04  0.10000000000E+04  0.00000000000E+00 0.  1.
    9000005    2    1    2  501    0 -0.92267402017E+01 -0.55093135901E+02 -0.86278043427E+03  0.10820275012E+04  0.65059438158E+03 0.  0.
         13    1    3    3    0    0  0.16181491882E+03 -0.11300888746E+03  0.32231084097E+01  0.19739671989E+03  0.00000000000E+00 0.  1.
          3    1    3    3  501    0 -0.17104165902E+03  0.57915751555E+02 -0.86600354267E+03  0.88463078136E+03  0.00000000000E+00 0.  1.
         -3    1    1    2    0  502  0.92267402017E+01  0.55093135901E+02  0.67240079333E+00  0.55864465280E+02  0.00000000000E+00 0. -1.
<mgrwt>
<rscale>  1 0.65298808E+03</rscale>
<asrwt>0</asrwt>
<pdfrwt beam="1">  1       21 0.21214148E-01 0.65298808E+03</pdfrwt>
<pdfrwt beam="2">0</pdfrwt>
<totfact> 0.20035354E+03</totfact>
</mgrwt>
</event>
<event>
 6    1  0.1386179E-004  0.6399875E+03  0.7818608E-02  0.9825750E-01
         21   -1    0    0  501  502  0.00000000000E+00  0.00000000000E+00  0.11054989185E+03  0.11054989185E+03  0.00000000000E+00 0.  1.
         13   -1    0    0    0    0 -0.00000000000E+00 -0.00000000000E+00 -0.10000000000E+04  0.10000000000E+04  0.00000000000E+00 0.  1.
    9000005    2    1    2  501    0 -0.17699646189E+02 -0.14335403432E+02 -0.87298614855E+03  0.10824457421E+04  0.63958204149E+03 0.  0.
         13    1    3    3    0    0 -0.81435001635E+02 -0.17994977248E+03 -0.61312367612E+01  0.19761369429E+03  0.00000000000E+00 0.  1.
          3    1    3    3  501    0  0.63735355446E+02  0.16561436904E+03 -0.86685491179E+03  0.88483204783E+03  0.00000000000E+00 0.  1.
         -3    1    1    2    0  502  0.17699646189E+02  0.14335403432E+02 -0.16463959598E+02  0.28104149736E+02  0.00000000000E+00 0. -1.
<mgrwt>
<rscale>  1 0.63998748E+03</rscale>
<asrwt>0</asrwt>
<pdfrwt beam="1">  1       21 0.17007675E-01 0.63998748E+03</pdfrwt>
<pdfrwt beam="2">0</pdfrwt>
<totfact> 0.30556872E+03</totfact>
</mgrwt>
</event>
<event>
 6    1  0.1386179E-004  0.7030560E+03  0.7818608E-02  0.9712020E-01
         21   -1    0    0  501  502  0.00000000000E+00  0.00000000000E+00  0.26874759645E+03  0.26874759645E+03  0.00000000000E+00 0. -1.
         13   -1    0    0    0    0 -0.00000000000E+00 -0.00000000000E+00 -0.10000000000E+04  0.10000000000E+04  0.00000000000E+00 0.  1.
    9000005    2    1    2  501    0  0.12418474594E+03  0.25662976422E+03 -0.68186919236E+03  0.97940456723E+03  0.64265622522E+03 0.  0.
         13    1    3    3    0    0 -0.28481495344E+02  0.45323310077E+03 -0.44312474252E+03  0.63450057261E+03  0.00000000000E+00 0.  1.
          1    1    3    3  501    0  0.15266624129E+03 -0.19660333655E+03 -0.23874444984E+03  0.34490399462E+03  0.00000000000E+00 0.  1.
         -3    1    1    2    0  502 -0.12418474594E+03 -0.25662976422E+03 -0.49383211187E+02  0.28934302922E+03  0.00000000000E+00 0. -1.
<mgrwt>
<rscale>  1 0.70305598E+03</rscale>
<asrwt>0</asrwt>
<pdfrwt beam="1">  1       21 0.41345783E-01 0.70305598E+03</pdfrwt>
<pdfrwt beam="2">0</pdfrwt>
<totfact> 0.52493712E+02</totfact>
</mgrwt>
</event>
<event>
 6    1  0.1386179E-004  0.6363988E+03  0.7818608E-02  0.9832641E-01
         21   -1    0    0  501  502  0.00000000000E+00  0.00000000000E+00  0.13131610824E+03  0.13131610824E+03  0.00000000000E+00 0.  1.
         13   -1    0    0    0    0 -0.00000000000E+00 -0.00000000000E+00 -0.10000000000E+04  0.10000000000E+04  0.00000000000E+00 0.  1.
    9000005    2    1    2  501    0  0.48992446323E+02  0.48562151378E+02 -0.84612231601E+03  0.10587381016E+04  0.63264907481E+03 0.  0.
         13    1    3    3    0    0 -0.28021614175E+03  0.10679056877E+03 -0.35628142912E+03  0.46568419386E+03  0.00000000000E+00 0.  1.
          3    1    3    3  501    0  0.32920858807E+03 -0.58228417390E+02 -0.48984088689E+03  0.59305390777E+03  0.00000000000E+00 0.  1.
         -3    1    1    2    0  502 -0.48992446323E+02 -0.48562151378E+02 -0.22561575750E+02  0.72578006610E+02  0.00000000000E+00 0. -1.
<mgrwt>
<rscale>  1 0.63639877E+03</rscale>
<asrwt>0</asrwt>
<pdfrwt beam="1">  1       21 0.20202478E-01 0.63639877E+03</pdfrwt>
<pdfrwt beam="2">0</pdfrwt>
<totfact> 0.22025022E+03</totfact>
</mgrwt>
</event>
<event>
 6    1  0.1386179E-004  0.6470691E+03  0.7818608E-02  0.9812294E-01
         21   -1    0    0  501  502  0.00000000000E+00  0.00000000000E+00  0.13591794512E+03  0.13591794512E+03  0.00000000000E+00 0.  1.
         13   -1    0    0    0    0 -0.00000000000E+00 -0.00000000000E+00 -0.10000000000E+04  0.10000000000E+04  0.00000000000E+00 0.  1.
    9000005    2    1    2  501    0 -0.82827305542E+02 -0.71789856099E+01 -0.81005330343E+03  0.10367665137E+04  0.64170596776E+03 0.  0.
         13    1    3    3    0    0 -0.11957074532E+03 -0.73578606910E+02  0.67610943570E+02  0.15582751433E+03  0.00000000000E+00 0.  1.
          3    1    3    3  501    0  0.36743439774E+02  0.66399621300E+02 -0.87766424700E+03  0.88093899933E+03  0.00000000000E+00 0.  1.
         -3    1    1    2    0  502  0.82827305542E+02  0.71789856099E+01 -0.54028751449E+02  0.99151431462E+02  0.00000000000E+00 0. -1.
<mgrwt>
<rscale>  1 0.64706912E+03</rscale>
<asrwt>0</asrwt>
<pdfrwt beam="1">  1       21 0.20910452E-01 0.64706912E+03</pdfrwt>
<pdfrwt beam="2">0</pdfrwt>
<totfact> 0.20605014E+03</totfact>
</mgrwt>
</event>
<event>
 6    1  0.1386179E-004  0.6675538E+03  0.7818608E-02  0.9774387E-01
         21   -1    0    0  501  502  0.00000000000E+00  0.00000000000E+00  0.12338933812E+03  0.12338933812E+03  0.00000000000E+00 0.  1.
         13   -1    0    0    0    0 -0.00000000000E+00 -0.00000000000E+00 -0.10000000000E+04  0.10000000000E+04  0.00000000000E+00 0.  1.
    9000005    2    1    2  501    0 -0.75555184412E+01  0.25680470763E+02 -0.86851980693E+03  0.10954244607E+04  0.66701688251E+03 0.  0.
         13    1    3    3    0    0 -0.24831313669E+03 -0.56058517903E+02 -0.79862829687E+02  0.26679588237E+03  0.00000000000E+00 0.  1.
          3    1    3    3  501    0  0.24075761825E+03  0.81738988667E+02 -0.78865697724E+03  0.82862857829E+03  0.00000000000E+00 0.  1.
         -1    1    1    2    0  502  0.75555184412E+01 -0.25680470763E+02 -0.80908549500E+01  0.27964877460E+02  0.00000000000E+00 0. -1.
<mgrwt>
<rscale>  1 0.66755381E+03</rscale>
<asrwt>0</asrwt>
<pdfrwt beam="1">  1       21 0.18982975E-01 0.66755381E+03</pdfrwt>
<pdfrwt beam="2">0</pdfrwt>
<totfact> 0.24783179E+03</totfact>
</mgrwt>
</event>
<event>
 6    1  0.1386179E-004  0.6287365E+03  0.7818608E-02  0.9847517E-01
         21   -1    0    0  501  502  0.00000000000E+00  0.00000000000E+00  0.15639576008E+03  0.15639576008E+03  0.00000000000E+00 0.  1.
         13   -1    0    0    0    0 -0.00000000000E+00 -0.00000000000E+00 -0.10000000000E+04  0.10000000000E+04  0.00000000000E+00 0.  1.
    9000005    2    1    2  501    0 -0.12601520059E+02 -0.59903855203E+02 -0.88272383466E+03  0.10837485793E+04  0.62574942652E+03 0.  0.
         13    1    3    3    0    0  0.10687809801E+03 -0.93901899326E+01 -0.93700715137E+03  0.94312963330E+03  0.00000000000E+00 0.  1.
          3    1    3    3  501    0 -0.11947961807E+03 -0.50513665271E+02  0.54283316710E+02  0.14061894605E+03  0.00000000000E+00 0.  1.
         -1    1    1    2    0  502  0.12601520059E+02  0.59903855203E+02  0.39119594734E+02  0.72647180731E+02  0.00000000000E+00 0. -1.
<mgrwt>
<rscale>  1 0.62873652E+03</rscale>
<asrwt>0</asrwt>
<pdfrwt beam="1">  1       21 0.24060885E-01 0.62873652E+03</pdfrwt>
<pdfrwt beam="2">0</pdfrwt>
<totfact> 0.15711289E+03</totfact>
</mgrwt>
</event>
<event>
 6    1  0.1386179E-004  0.6948718E+03  0.7818608E-02  0.9726043E-01
         21   -1    0    0  501  502  0.00000000000E+00  0.00000000000E+00  0.12690618201E+04  0.12690618201E+04  0.00000000000E+00 0. -1.
         13   -1    0    0    0    0 -0.00000000000E+00 -0.00000000000E+00 -0.10000000000E+04  0.10000000000E+04  0.00000000000E+00 0.  1.
    9000005    2    1    2  501    0  0.25369771724E+03 -0.74929257612E+02 -0.86215873354E+03  0.11073230946E+04  0.64254947560E+03 0.  0.
         13    1    3    3    0    0 -0.68684569104E+02 -0.13695261214E+03 -0.74212155324E+03  0.75777172538E+03  0.00000000000E+00 0.  1.
          1    1    3    3  501    0  0.32238228635E+03  0.62023354524E+02 -0.12003718030E+03  0.34955136920E+03  0.00000000000E+00 0.  1.
         -3    1    1    2    0  502 -0.25369771724E+03  0.74929257612E+02  0.11312205536E+04  0.11617387255E+04  0.00000000000E+00 0. -1.
<mgrwt>
<rscale>  1 0.69487175E+03</rscale>
<asrwt>0</asrwt>
<pdfrwt beam="1">  1       21 0.19524027E+00 0.69487175E+03</pdfrwt>
<pdfrwt beam="2">0</pdfrwt>
<totfact> 0.11696944E+01</totfact>
</mgrwt>
</event>
<event>
 6    1  0.1386179E-004  0.6607099E+03  0.7818608E-02  0.9786888E-01
         21   -1    0    0  501  502  0.00000000000E+00  0.00000000000E+00  0.15421470477E+03  0.15421470477E+03  0.00000000000E+00 0. -1.
         13   -1    0    0    0    0 -0.00000000000E+00 -0.00000000000E+00 -0.10000000000E+04  0.10000000000E+04  0.00000000000E+00 0.  1.
    9000005    2    1    2  501    0  0.74880072145E+02  0.53570031078E+02 -0.82989475133E+03  0.10607840737E+04  0.65426353966E+03 0.  0.
         13    1    3    3    0    0 -0.22730525295E+01 -0.29906690519E+03 -0.39963306326E+03  0.49915204678E+03  0.00000000000E+00 0.  1.
          1    1    3    3  501    0  0.77153124675E+02  0.35263693627E+03 -0.43026168806E+03  0.56163202694E+03  0.00000000000E+00 0.  1.
         -3    1    1    2    0  502 -0.74880072145E+02 -0.53570031078E+02 -0.15890543904E+02  0.93430631057E+02  0.00000000000E+00 0. -1.
<mgrwt>
<rscale>  1 0.66070989E+03</rscale>
<asrwt>0</asrwt>
<pdfrwt beam="1">  1       21 0.23725339E-01 0.66070989E+03</pdfrwt>
<pdfrwt beam="2">0</pdfrwt>
<totfact> 0.16121968E+03</totfact>
</mgrwt>
</event>
<event>
 6    1  0.1386179E-004  0.7560380E+03  0.7818608E-02  0.9625925E-01
         21   -1    0    0  501  502  0.00000000000E+00  0.00000000000E+00  0.17522440405E+03  0.17522440405E+03  0.00000000000E+00 0.  1.
         13   -1    0    0    0    0 -0.00000000000E+00 -0.00000000000E+00 -0.10000000000E+04  0.10000000000E+04  0.00000000000E+00 0.  1.
    9000005    2    1    2  501    0 -0.26006502923E+02 -0.71746921381E+02 -0.78211667198E+03  0.10877959035E+04  0.75217649529E+03 0.  0.
         13    1    3    3    0    0 -0.70396428991E+02  0.33726478309E+03 -0.36488490909E+03  0.50184079947E+03  0.00000000000E+00 0.  1.
          1    1    3    3  501    0  0.44389926068E+02 -0.40901170447E+03 -0.41723176289E+03  0.58595510399E+03  0.00000000000E+00 0.  1.
         -3    1    1    2    0  502  0.26006502923E+02  0.71746921381E+02 -0.42658923967E+02  0.87428500593E+02  0.00000000000E+00 0. -1.
<mgrwt>
<rscale>  1 0.75603799E+03</rscale>
<asrwt>0</asrwt>
<pdfrwt beam="1">  1       21 0.26957600E-01 0.75603799E+03</pdfrwt>
<pdfrwt beam="2">0</pdfrwt>
<totfact> 0.12484201E+03</totfact>
</mgrwt>
</event>
<event>
 6    1  0.1386179E-004  0.6600225E+03  0.7818608E-02  0.9788152E-01
         21   -1    0    0  501  502  0.00000000000E+00  0.00000000000E+00  0.28873640317E+03  0.28873640317E+03  0.00000000000E+00 0. -1.
         13   -1    0    0    0    0 -0.00000000000E+00 -0.00000000000E+00 -0.10000000000E+04  0.10000000000E+04  0.00000000000E+00 0.  1.
    9000005    2    1    2  501    0 -0.52791585014E+02  0.85496027809E+01 -0.88667102681E+03  0.11053575231E+04  0.65785233677E+03 0.  0.
         13    1    3    3    0    0  0.20043779218E+03  0.22747868990E+03 -0.56447297697E+03  0.64074300981E+03  0.00000000000E+00 0.  1.
          1    1    3    3  501    0 -0.25322937719E+03 -0.21892908712E+03 -0.32219804984E+03  0.46461451331E+03  0.00000000000E+00 0.  1.
         -3    1    1    2    0  502  0.52791585014E+02 -0.85496027809E+01  0.17540742997E+03  0.18337888004E+03  0.00000000000E+00 0. -1.
<mgrwt>
<rscale>  1 0.66002253E+03</rscale>
<asrwt>0</asrwt>
<pdfrwt beam="1">  1       21 0.44420984E-01 0.66002253E+03</pdfrwt>
<pdfrwt beam="2">0</pdfrwt>
<totfact> 0.45315509E+02</totfact>
</mgrwt>
</event>
<event>
 6    1  0.1386179E-004  0.6598546E+03  0.7818608E-02  0.9788461E-01
         21   -1    0    0  501  502  0.00000000000E+00  0.00000000000E+00  0.26215996534E+03  0.26215996534E+03  0.00000000000E+00 0.  1.
         13   -1    0    0    0    0 -0.00000000000E+00 -0.00000000000E+00 -0.10000000000E+04  0.10000000000E+04  0.00000000000E+00 0.  1.
    9000005    2    1    2  501    0 -0.65430622324E+02  0.39391170809E+02 -0.88051800547E+03  0.11003272306E+04  0.65541988512E+03 0.  0.
         13    1    3    3    0    0  0.49071782166E+02  0.33652745191E+03 -0.41973840002E+03  0.54022133440E+03  0.00000000000E+00 0.  1.
          3    1    3    3  501    0 -0.11450240449E+03 -0.29713628110E+03 -0.46077960544E+03  0.56010589621E+03  0.00000000000E+00 0.  1.
         -1    1    1    2    0  502  0.65430622324E+02 -0.39391170809E+02  0.14267797081E+03  0.16183273473E+03  0.00000000000E+00 0. -1.
<mgrwt>
<rscale>  1 0.65985457E+03</rscale>
<asrwt>0</asrwt>
<pdfrwt beam="1">  1       21 0.40332301E-01 0.65985457E+03</pdfrwt>
<pdfrwt beam="2">0</pdfrwt>
<totfact> 0.55468949E+02</totfact>
</mgrwt>
</event>
<event>
 6    1  0.1386179E-004  0.6678828E+03  0.7818608E-02  0.9773790E-01
         21   -1    0    0  501  502  0.00000000000E+00  0.00000000000E+00  0.13917189605E+03  0.13917189605E+03  0.00000000000E+00 0.  1.
         13   -1    0    0    0    0 -0.00000000000E+00 -0.00000000000E+00 -0.10000000000E+04  0.10000000000E+04  0.00000000000E+00 0.  1.
    9000005    2    1    2  501    0  0.38201286508E+02  0.64659876223E+02 -0.80259235274E+03  0.10441369519E+04  0.66364693313E+03 0.  0.
         13    1    3    3    0    0 -0.23497488835E+03  0.14529722161E+03 -0.11382355662E+03  0.29879806359E+03  0.00000000000E+00 0.  1.
          3    1    3    3  501    0  0.27317617485E+03 -0.80637345390E+02 -0.68876879613E+03  0.74533888836E+03  0.00000000000E+00 0.  1.
         -3    1    1    2    0  502 -0.38201286508E+02 -0.64659876223E+02 -0.58235751202E+02  0.95034944111E+02  0.00000000000E+00 0. -1.
<mgrwt>
<rscale>  1 0.66788284E+03</rscale>
<asrwt>0</asrwt>
<pdfrwt beam="1">  1       21 0.21411060E-01 0.66788284E+03</pdfrwt>
<pdfrwt beam="2">0</pdfrwt>
<totfact> 0.19668921E+03</totfact>
</mgrwt>
</event>
<event>
 6    1  0.1386179E-004  0.6556901E+03  0.7818608E-02  0.9796160E-01
         21   -1    0    0  501  502  0.00000000000E+00  0.00000000000E+00  0.15169708301E+03  0.15169708301E+03  0.00000000000E+00 0.  1.
         13   -1    0    0    0    0 -0.00000000000E+00 -0.00000000000E+00 -0.10000000000E+04  0.10000000000E+04  0.00000000000E+00 0.  1.
    9000005    2    1    2  501    0  0.26445684468E+02 -0.20839439755E+02 -0.88529915686E+03  0.11016733063E+04  0.65482503013E+03 0.  0.
         13    1    3    3    0    0 -0.55322395078E+02 -0.47921097168E+02  0.93696833214E+02  0.11889531322E+03  0.00000000000E+00 0.  1.
          3    1    3    3  501    0  0.81768079546E+02  0.27081657413E+02 -0.97899599008E+03  0.98277799303E+03  0.00000000000E+00 0.  1.
         -3    1    1    2    0  502 -0.26445684468E+02  0.20839439755E+02  0.36996239870E+02  0.50023776755E+02  0.00000000000E+00 0. -1.
<mgrwt>
<rscale>  1 0.65569008E+03</rscale>
<asrwt>0</asrwt>
<pdfrwt beam="1">  1       21 0.23338012E-01 0.65569008E+03</pdfrwt>
<pdfrwt beam="2">0</pdfrwt>
<totfact> 0.16651460E+03</totfact>
</mgrwt>
</event>
<event>
 6    1  0.1386179E-004  0.6431986E+03  0.7818608E-02  0.9819626E-01
         21   -1    0    0  501  502  0.00000000000E+00  0.00000000000E+00  0.62038993549E+03  0.62038993549E+03  0.00000000000E+00 0. -1.
         13   -1    0    0    0    0 -0.00000000000E+00 -0.00000000000E+00 -0.10000000000E+04  0.10000000000E+04  0.00000000000E+00 0.  1.
    9000005    2    1    2  501    0  0.93239660014E+02  0.15906210146E+02 -0.89179377953E+03  0.10995456213E+04  0.63620577356E+03 0.  0.
         13    1    3    3    0    0 -0.86936554302E+02 -0.19892836581E+03 -0.75874458739E+03  0.78919187027E+03  0.00000000000E+00 0.  1.
          1    1    3    3  501    0  0.18017621432E+03  0.21483457596E+03 -0.13304919214E+03  0.31035375100E+03  0.00000000000E+00 0.  1.
         -3    1    1    2    0  502 -0.93239660014E+02 -0.15906210146E+02  0.51218371502E+03  0.52084431422E+03  0.00000000000E+00 0. -1.
<mgrwt>
<rscale>  1 0.64319859E+03</rscale>
<asrwt>0</asrwt>
<pdfrwt beam="1">  1       21 0.95444603E-01 0.64319859E+03</pdfrwt>
<pdfrwt beam="2">0</pdfrwt>
<totfact> 0.81325294E+01</totfact>
</mgrwt>
</event>
<event>
 6    1  0.1386179E-004  0.6863553E+03  0.7818608E-02  0.9740855E-01
         21   -1    0    0  501  502  0.00000000000E+00  0.00000000000E+00  0.90061831628E+03  0.90061831628E+03  0.00000000000E+00 0. -1.
         13   -1    0    0    0    0 -0.00000000000E+00 -0.00000000000E+00 -0.10000000000E+04  0.10000000000E+04  0.00000000000E+00 0.  1.
    9000005    2    1    2  501    0 -0.10456097109E+03 -0.17937855824E+03 -0.86678563137E+03  0.11056224152E+04  0.65419716482E+03 0.  0.
         13    1    3    3    0    0 -0.19054885855E+03 -0.17298664328E+03 -0.24041483882E+02  0.25847870162E+03  0.00000000000E+00 0.  1.
          1    1    3    3  501    0  0.85987887454E+02 -0.63919149650E+01 -0.84274414749E+03  0.84714371360E+03  0.00000000000E+00 0.  1.
         -3    1    1    2    0  502  0.10456097109E+03  0.17937855824E+03  0.76740394765E+03  0.79499590106E+03  0.00000000000E+00 0. -1.
<mgrwt>
<rscale>  1 0.68635530E+03</rscale>
<asrwt>0</asrwt>
<pdfrwt beam="1">  1       21 0.13855666E+00 0.68635530E+03</pdfrwt>
<pdfrwt beam="2">0</pdfrwt>
<totfact> 0.31301805E+01</totfact>
</mgrwt>
</event>
<event>
 6    1  0.1386179E-004  0.6679226E+03  0.7818608E-02  0.9773718E-01
         21   -1    0    0  501  502  0.00000000000E+00  0.00000000000E+00  0.30942896834E+03  0.30942896834E+03  0.00000000000E+00 0. -1.
         13   -1    0    0    0    0 -0.00000000000E+00 -0.00000000000E+00 -0.10000000000E+04  0.10000000000E+04  0.00000000000E+00 0.  1.
    9000005    2    1    2  501    0 -0.54713787335E+02 -0.88181886671E+00 -0.88425461200E+03  0.11081637070E+04  0.66567725405E+03 0.  0.
         13    1    3    3    0    0  0.11401679567E+03 -0.27737244981E+02 -0.92508569646E+03  0.93249811273E+03  0.00000000000E+00 0.  1.
          1    1    3    3  501    0 -0.16873058301E+03  0.26855426114E+02  0.40831084461E+02  0.17566559427E+03  0.00000000000E+00 0.  1.
         -1    1    1    2    0  502  0.54713787335E+02  0.88181886671E+00  0.19368358034E+03  0.20126526134E+03  0.00000000000E+00 0. -1.
<mgrwt>
<rscale>  1 0.66792259E+03</rscale>
<asrwt>0</asrwt>
<pdfrwt beam="1">  1       21 0.47604455E-01 0.66792259E+03</pdfrwt>
<pdfrwt beam="2">0</pdfrwt>
<totfact> 0.39107556E+02</totfact>
</mgrwt>
</event>
<event>
 6    1  0.1386179E-004  0.6620450E+03  0.7818608E-02  0.9784437E-01
         21   -1    0    0  501  502  0.00000000000E+00  0.00000000000E+00  0.46149134889E+03  0.46149134889E+03  0.00000000000E+00 0.  1.
         13   -1    0    0    0    0 -0.00000000000E+00 -0.00000000000E+00 -0.10000000000E+04  0.10000000000E+04  0.00000000000E+00 0.  1.
    9000005    2    1    2  501    0  0.63501941207E+02 -0.29491318221E+02 -0.88655442904E+03  0.11064729016E+04  0.65833220484E+03 0.  0.
         13    1    3    3    0    0 -0.19716399286E+03 -0.23781087502E+03 -0.29416107445E+03  0.42656580978E+03  0.00000000000E+00 0.  1.
          1    1    3    3  501    0  0.26066593407E+03  0.20831955680E+03 -0.59239335459E+03  0.67990709181E+03  0.00000000000E+00 0.  1.
         -3    1    1    2    0  502 -0.63501941207E+02  0.29491318221E+02  0.34804577793E+03  0.35501844730E+03  0.00000000000E+00 0. -1.
<mgrwt>
<rscale>  1 0.66204496E+03</rscale>
<asrwt>0</asrwt>
<pdfrwt beam="1">  1       21 0.70998667E-01 0.66204496E+03</pdfrwt>
<pdfrwt beam="2">0</pdfrwt>
<totfact> 0.16241754E+02</totfact>
</mgrwt>
</event>
<event>
 6    1  0.1386179E-004  0.6401732E+03  0.7818608E-02  0.9825395E-01
         21   -1    0    0  501  502  0.00000000000E+00  0.00000000000E+00  0.11825486439E+03  0.11825486439E+03  0.00000000000E+00 0.  1.
         13   -1    0    0    0    0 -0.00000000000E+00 -0.00000000000E+00 -0.10000000000E+04  0.10000000000E+04  0.00000000000E+00 0.  1.
    9000005    2    1    2  501    0 -0.25080926436E+02 -0.87290852726E+01 -0.88416276825E+03  0.10915885045E+04  0.63962208583E+03 0.  0.
         13    1    3    3    0    0  0.29908271424E+03  0.68364072707E+02 -0.41121523202E+03  0.51305173564E+03  0.00000000000E+00 0.  1.
          3    1    3    3  501    0 -0.32416364068E+03 -0.77093157979E+02 -0.47294753623E+03  0.57853676890E+03  0.00000000000E+00 0.  1.
         -1    1    1    2    0  502  0.25080926436E+02  0.87290852726E+01  0.24176326402E+01  0.26666359860E+02  0.00000000000E+00 0. -1.
<mgrwt>
<rscale>  1 0.64017315E+03</rscale>
<asrwt>0</asrwt>
<pdfrwt beam="1">  1       21 0.18193056E-01 0.64017315E+03</pdfrwt>
<pdfrwt beam="2">0</pdfrwt>
<totfact> 0.26897427E+03</totfact>
</mgrwt>
</event>
<event>
 6    1  0.1386179E-004  0.6397139E+03  0.7818608E-02  0.9826274E-01
         21   -1    0    0  501  502  0.00000000000E+00  0.00000000000E+00  0.14401845311E+03  0.14401845311E+03  0.00000000000E+00 0.  1.
         13   -1    0    0    0    0 -0.00000000000E+00 -0.00000000000E+00 -0.10000000000E+04  0.10000000000E+04  0.00000000000E+00 0.  1.
    9000005    2    1    2  501    0  0.41100257320E+02 -0.84863960167E+02 -0.82665304473E+03  0.10452698636E+04  0.63272640893E+03 0.  0.
         13    1    3    3    0    0 -0.42170965926E+02 -0.45556518432E+01  0.10146266687E+03  0.10997189232E+03  0.00000000000E+00 0.  1.
          1    1    3    3  501    0  0.83271223246E+02 -0.80308308324E+02 -0.92811571160E+03  0.93529797131E+03  0.00000000000E+00 0.  1.
         -1    1    1    2    0  502 -0.41100257320E+02  0.84863960167E+02 -0.29328502160E+02  0.98748589489E+02  0.00000000000E+00 0. -1.
<mgrwt>
<rscale>  1 0.63971387E+03</rscale>
<asrwt>0</asrwt>
<pdfrwt beam="1">  1       21 0.22156684E-01 0.63971387E+03</pdfrwt>
<pdfrwt beam="2">0</pdfrwt>
<totfact> 0.18431984E+03</totfact>
</mgrwt>
</event>
<event>
 6    1  0.1386179E-004  0.6739941E+03  0.7818608E-02  0.9762769E-01
         21   -1    0    0  501  502  0.00000000000E+00  0.00000000000E+00  0.31838060006E+03  0.31838060006E+03  0.00000000000E+00 0.  1.
         13   -1    0    0    0    0 -0.00000000000E+00 -0.00000000000E+00 -0.10000000000E+04  0.10000000000E+04  0.00000000000E+00 0.  1.
    9000005    2    1    2  501    0 -0.10928053335E+03  0.23630811287E+02 -0.86926566809E+03  0.10999503545E+04  0.66465579851E+03 0.  0.
         13    1    3    3    0    0  0.21907834749E+03 -0.18275867471E+03 -0.34116318805E+03  0.44473405132E+03  0.00000000000E+00 0.  1.
          3    1    3    3  501    0 -0.32835888084E+03  0.20638948600E+03 -0.52810248004E+03  0.65521630321E+03  0.00000000000E+00 0.  1.
         -1    1    1    2    0  502  0.10928053335E+03 -0.23630811287E+02  0.18764626816E+03  0.21843024554E+03  0.00000000000E+00 0. -1.
<mgrwt>
<rscale>  1 0.67399405E+03</rscale>
<asrwt>0</asrwt>
<pdfrwt beam="1">  1       21 0.48981629E-01 0.67399405E+03</pdfrwt>
<pdfrwt beam="2">0</pdfrwt>
<totfact> 0.36778064E+02</totfact>
</mgrwt>
</event>
<event>
 6    1  0.1386179E-004  0.4870463E+03  0.7818608E-02  0.1017216E+00
         21   -1    0    0  501  502  0.00000000000E+00  0.00000000000E+00  0.97578358434E+02  0.97578358434E+02  0.00000000000E+00 0.  1.
         13   -1    0    0    0    0 -0.00000000000E+00 -0.00000000000E+00 -0.10000000000E+04  0.10000000000E+04  0.00000000000E+00 0.  1.
    9000005    2    1    2  501    0 -0.84623428912E+02  0.37627707125E+02 -0.87427256026E+03  0.10007830081E+04  0.47816017259E+03 0.  0.
         13    1    3    3    0    0 -0.27677756249E+03  0.30751514948E+02 -0.63821989935E+03  0.69633046371E+03  0.00000000000E+00 0.  1.
          3    1    3    3  501    0  0.19215413358E+03  0.68761921773E+01 -0.23605266091E+03  0.30445254441E+03  0.00000000000E+00 0.  1.
         -1    1    1    2    0  502  0.84623428912E+02 -0.37627707125E+02 -0.28149081306E+02  0.96795350315E+02  0.00000000000E+00 0. -1.
<mgrwt>
<rscale>  1 0.48704632E+03</rscale>
<asrwt>0</asrwt>
<pdfrwt beam="1">  1       21 0.15012055E-01 0.48704632E+03</pdfrwt>
<pdfrwt beam="2">0</pdfrwt>
<totfact> 0.38779681E+03</totfact>
</mgrwt>
</event>
<event>
 6    1  0.1386179E-004  0.6421089E+03  0.7818608E-02  0.9821700E-01
         21   -1    0    0  501  502  0.00000000000E+00  0.00000000000E+00  0.24282520098E+03  0.24282520098E+03  0.00000000000E+00 0.  1.
         13   -1    0    0    0    0 -0.00000000000E+00 -0.00000000000E+00 -0.10000000000E+04  0.10000000000E+04  0.00000000000E+00 0.  1.
    9000005    2    1    2  501    0  0.19944827035E+02  0.16773068933E+02 -0.89558252996E+03  0.11019854624E+04  0.64157989330E+03 0.  0.
         13    1    3    3    0    0 -0.11397791622E+03 -0.92929278609E+02  0.38483244974E+02  0.15201242171E+03  0.00000000000E+00 0.  1.
          1    1    3    3  501    0  0.13392274326E+03  0.10970234754E+03 -0.93406577494E+03  0.94997304074E+03  0.00000000000E+00 0.  1.
         -3    1    1    2    0  502 -0.19944827035E+02 -0.16773068933E+02  0.13840773095E+03  0.14083973854E+03  0.00000000000E+00 0. -1.
<mgrwt>
<rscale>  1 0.64210894E+03</rscale>
<asrwt>0</asrwt>
<pdfrwt beam="1">  1       21 0.37357722E-01 0.64210894E+03</pdfrwt>
<pdfrwt beam="2">0</pdfrwt>
<totfact> 0.65077248E+02</totfact>
</mgrwt>
</event>
<event>
 6    1  0.1386179E-004  0.6535540E+03  0.7818608E-02  0.9800133E-01
         21   -1    0    0  501  502  0.00000000000E+00  0.00000000000E+00  0.19599329556E+03  0.19599329556E+03  0.00000000000E+00 0.  1.
         13   -1    0    0    0    0 -0.00000000000E+00 -0.00000000000E+00 -0.10000000000E+04  0.10000000000E+04  0.00000000000E+00 0.  1.
    9000005    2    1    2  501    0 -0.37743865355E+02 -0.10090264457E+03 -0.85551128275E+03  0.10765836450E+04  0.64461371905E+03 0.  0.
         13    1    3    3    0    0 -0.14609731605E+03  0.91882731851E+02  0.19843377843E+02  0.17372570855E+03  0.00000000000E+00 0.  1.
          1    1    3    3  501    0  0.10835345069E+03 -0.19278537642E+03 -0.87535466059E+03  0.90285793647E+03  0.00000000000E+00 0.  1.
         -1    1    1    2    0  502  0.37743865355E+02  0.10090264457E+03  0.51504578305E+02  0.11940965053E+03  0.00000000000E+00 0. -1.
<mgrwt>
<rscale>  1 0.65355397E+03</rscale>
<asrwt>0</asrwt>
<pdfrwt beam="1">  1       21 0.30152814E-01 0.65355397E+03</pdfrwt>
<pdfrwt beam="2">0</pdfrwt>
<totfact> 0.10042967E+03</totfact>
</mgrwt>
</event>
<event>
 6    1  0.1386179E-004  0.6539586E+03  0.7818608E-02  0.9799379E-01
         21   -1    0    0  501  502  0.00000000000E+00  0.00000000000E+00  0.21726231380E+03  0.21726231380E+03  0.00000000000E+00 0. -1.
         13   -1    0    0    0    0 -0.00000000000E+00 -0.00000000000E+00 -0.10000000000E+04  0.10000000000E+04  0.00000000000E+00 0.  1.
    9000005    2    1    2  501    0 -0.32343718229E+02 -0.55991607797E+02 -0.88249006091E+03  0.10983854342E+04  0.65075393054E+03 0.  0.
         13    1    3    3    0    0 -0.22431460448E+03 -0.22126336354E+03 -0.74784997451E+03  0.81151346397E+03  0.00000000000E+00 0.  1.
          3    1    3    3  501    0  0.19197088625E+03  0.16527175574E+03 -0.13464008640E+03  0.28687197019E+03  0.00000000000E+00 0.  1.
         -1    1    1    2    0  502  0.32343718229E+02  0.55991607797E+02  0.99752374706E+02  0.11887687964E+03  0.00000000000E+00 0. -1.
<mgrwt>
<rscale>  1 0.65395860E+03</rscale>
<asrwt>0</asrwt>
<pdfrwt beam="1">  1       21 0.33424970E-01 0.65395860E+03</pdfrwt>
<pdfrwt beam="2">0</pdfrwt>
<totfact> 0.81596684E+02</totfact>
</mgrwt>
</event>
<event>
 6    1  0.1386179E-004  0.6492276E+03  0.7818608E-02  0.9808230E-01
         21   -1    0    0  501  502  0.00000000000E+00  0.00000000000E+00  0.13836167299E+03  0.13836167299E+03  0.00000000000E+00 0.  1.
         13   -1    0    0    0    0 -0.00000000000E+00 -0.00000000000E+00 -0.10000000000E+04  0.10000000000E+04  0.00000000000E+00 0.  1.
    9000005    2    1    2  501    0  0.40232800498E+02  0.43263273409E+02 -0.86217640391E+03  0.10792797080E+04  0.64653394927E+03 0.  0.
         13    1    3    3    0    0 -0.11088390913E+03 -0.20434199251E+03 -0.71927295376E+03  0.75591300638E+03  0.00000000000E+00 0.  1.
          1    1    3    3  501    0  0.15111670963E+03  0.24760526592E+03 -0.14290345015E+03  0.32336670161E+03  0.00000000000E+00 0.  1.
         -1    1    1    2    0  502 -0.40232800498E+02 -0.43263273409E+02  0.53807690633E+00  0.59081965004E+02  0.00000000000E+00 0. -1.
<mgrwt>
<rscale>  1 0.64922765E+03</rscale>
<asrwt>0</asrwt>
<pdfrwt beam="1">  1       21 0.21286411E-01 0.64922765E+03</pdfrwt>
<pdfrwt beam="2">0</pdfrwt>
<totfact> 0.19907564E+03</totfact>
</mgrwt>
</event>
<event>
 6    1  0.1386179E-004  0.6784113E+03  0.7818608E-02  0.9754881E-01
         21   -1    0    0  501  502  0.00000000000E+00  0.00000000000E+00  0.18851156750E+03  0.18851156750E+03  0.00000000000E+00 0.  1.
         13   -1    0    0    0    0 -0.00000000000E+00 -0.00000000000E+00 -0.10000000000E+04  0.10000000000E+04  0.00000000000E+00 0.  1.
    9000005    2    1    2  501    0 -0.19916929164E+00 -0.17327830354E+03 -0.73149244987E+03  0.99765883007E+03  0.65590893182E+03 0.  0.
         13    1    3    3    0    0  0.23193591134E+03 -0.15709415519E+02 -0.67170977931E+03  0.71079890287E+03  0.00000000000E+00 0.  1.
          3    1    3    3  501    0 -0.23213508063E+03 -0.15756888803E+03 -0.59782670561E+02  0.28685992720E+03  0.00000000000E+00 0.  1.
         -3    1    1    2    0  502  0.19916929164E+00  0.17327830354E+03 -0.79995982630E+02  0.19085273743E+03  0.00000000000E+00 0. -1.
<mgrwt>
<rscale>  1 0.67841133E+03</rscale>
<asrwt>0</asrwt>
<pdfrwt beam="1">  1       21 0.29001779E-01 0.67841133E+03</pdfrwt>
<pdfrwt beam="2">0</pdfrwt>
<totfact> 0.10839426E+03</totfact>
</mgrwt>
</event>
<event>
 6    1  0.1386179E-004  0.6102685E+03  0.7818608E-02  0.9884328E-01
         21   -1    0    0  501  502  0.00000000000E+00  0.00000000000E+00  0.14470111300E+03  0.14470111300E+03  0.00000000000E+00 0.  1.
         13   -1    0    0    0    0 -0.00000000000E+00 -0.00000000000E+00 -0.10000000000E+04  0.10000000000E+04  0.00000000000E+00 0.  1.
    9000005    2    1    2  501    0 -0.30389011586E+02 -0.32321294708E+02 -0.89627180920E+03  0.10843112258E+04  0.60865385929E+03 0.  0.
         13    1    3    3    0    0 -0.17951117174E+03  0.79968225342E+01 -0.91154006724E+03  0.92908207610E+03  0.00000000000E+00 0.  1.
          3    1    3    3  501    0  0.14912216016E+03 -0.40318117242E+02  0.15268258040E+02  0.15522914975E+03  0.00000000000E+00 0.  1.
         -1    1    1    2    0  502  0.30389011586E+02  0.32321294708E+02  0.40972922198E+02  0.60389887151E+02  0.00000000000E+00 0. -1.
<mgrwt>
<rscale>  1 0.61026853E+03</rscale>
<asrwt>0</asrwt>
<pdfrwt beam="1">  1       21 0.22261709E-01 0.61026853E+03</pdfrwt>
<pdfrwt beam="2">0</pdfrwt>
<totfact> 0.18289328E+03</totfact>
</mgrwt>
</event>
<event>
 6    1  0.1386179E-004  0.6445616E+03  0.7818608E-02  0.9817038E-01
         21   -1    0    0  501  502  0.00000000000E+00  0.00000000000E+00  0.15358999484E+03  0.15358999484E+03  0.00000000000E+00 0.  1.
         13   -1    0    0    0    0 -0.00000000000E+00 -0.00000000000E+00 -0.10000000000E+04  0.10000000000E+04  0.00000000000E+00 0.  1.
    9000005    2    1    2  501    0  0.71131794919E+02  0.16268799930E+02 -0.86456831251E+03  0.10783960441E+04  0.64041803134E+03 0.  0.
         13    1    3    3    0    0 -0.99226571167E+01 -0.16275934381E+03  0.27126171857E+02  0.16530242685E+03  0.00000000000E+00 0.  1.
          3    1    3    3  501    0  0.81054452036E+02  0.17902814374E+03 -0.89169448437E+03  0.91309361727E+03  0.00000000000E+00 0.  1.
         -3    1    1    2    0  502 -0.71131794919E+02 -0.16268799930E+02  0.18158307348E+02  0.75193950723E+02  0.00000000000E+00 0. -1.
<mgrwt>
<rscale>  1 0.64456160E+03</rscale>
<asrwt>0</asrwt>
<pdfrwt beam="1">  1       21 0.23629229E-01 0.64456160E+03</pdfrwt>
<pdfrwt beam="2">0</pdfrwt>
<totfact> 0.16262843E+03</totfact>
</mgrwt>
</event>
<event>
 6    1  0.1386179E-004  0.6502863E+03  0.7818608E-02  0.9806242E-01
         21   -1    0    0  501  502  0.00000000000E+00  0.00000000000E+00  0.15941469086E+03  0.15941469086E+03  0.00000000000E+00 0.  1.
         13   -1    0    0    0    0 -0.00000000000E+00 -0.00000000000E+00 -0.10000000000E+04  0.10000000000E+04  0.00000000000E+00 0.  1.
    9000005    2    1    2  501    0  0.95640706872E+01  0.30265066558E+02 -0.88904420901E+03  0.11014861946E+04  0.64951118978E+03 0.  0.
         13    1    3    3    0    0 -0.10609848325E+03  0.24940009989E+03 -0.78902185298E+03  0.83427380545E+03  0.00000000000E+00 0.  1.
          1    1    3    3  501    0  0.11566255394E+03 -0.21913503333E+03 -0.10002235603E+03  0.26721238916E+03  0.00000000000E+00 0.  1.
         -3    1    1    2    0  502 -0.95640706872E+01 -0.30265066558E+02  0.48458899868E+02  0.57928496255E+02  0.00000000000E+00 0. -1.
<mgrwt>
<rscale>  1 0.65028627E+03</rscale>
<asrwt>0</asrwt>
<pdfrwt beam="1">  1       21 0.24525336E-01 0.65028627E+03</pdfrwt>
<pdfrwt beam="2">0</pdfrwt>
<totfact> 0.15118522E+03</totfact>
</mgrwt>
</event>
<event>
 6    1  0.1386179E-004  0.6568013E+03  0.7818608E-02  0.9794100E-01
         21   -1    0    0  501  502  0.00000000000E+00  0.00000000000E+00  0.30205471493E+03  0.30205471493E+03  0.00000000000E+00 0. -1.
         13   -1    0    0    0    0 -0.00000000000E+00 -0.00000000000E+00 -0.10000000000E+04  0.10000000000E+04  0.00000000000E+00 0.  1.
    9000005    2    1    2  501    0  0.73720921357E+02 -0.56131746140E+02 -0.87981864988E+03  0.10979384050E+04  0.65023252550E+03 0.  0.
         13    1    3    3    0    0  0.87146084752E+02  0.21788875759E+03 -0.73017290385E+02  0.24576711633E+03  0.00000000000E+00 0.  1.
          1    1    3    3  501    0 -0.13425163395E+02 -0.27402050373E+03 -0.80680135950E+03  0.85217128863E+03  0.00000000000E+00 0.  1.
         -3    1    1    2    0  502 -0.73720921357E+02  0.56131746140E+02  0.18187336481E+03  0.20411630998E+03  0.00000000000E+00 0. -1.
<mgrwt>
<rscale>  1 0.65680125E+03</rscale>
<asrwt>0</asrwt>
<pdfrwt beam="1">  1       21 0.46469955E-01 0.65680125E+03</pdfrwt>
<pdfrwt beam="2">0</pdfrwt>
<totfact> 0.41205852E+02</totfact>
</mgrwt>
</event>
<event>
 6    1  0.1386179E-004  0.6543783E+03  0.7818608E-02  0.9798598E-01
         21   -1    0    0  501  502  0.00000000000E+00  0.00000000000E+00  0.11550324885E+03  0.11550324885E+03  0.00000000000E+00 0.  1.
         13   -1    0    0    0    0 -0.00000000000E+00 -0.00000000000E+00 -0.10000000000E+04  0.10000000000E+04  0.00000000000E+00 0.  1.
    9000005    2    1    2  501    0 -0.16840793829E+02 -0.11586529681E+02 -0.87584812103E+03  0.10933073301E+04  0.65405896285E+03 0.  0.
         13    1    3    3    0    0  0.56800416129E+01  0.30038571346E+03 -0.62095140788E+03  0.68981482347E+03  0.00000000000E+00 0.  1.
          1    1    3    3  501    0 -0.22520835442E+02 -0.31197224314E+03 -0.25489671315E+03  0.40349250662E+03  0.00000000000E+00 0.  1.
         -1    1    1    2    0  502  0.16840793829E+02  0.11586529681E+02 -0.86486301207E+01  0.22195918765E+02  0.00000000000E+00 0. -1.
<mgrwt>
<rscale>  1 0.65437832E+03</rscale>
<asrwt>0</asrwt>
<pdfrwt beam="1">  1       21 0.17769730E-01 0.65437832E+03</pdfrwt>
<pdfrwt beam="2">0</pdfrwt>
<totfact> 0.28112767E+03</totfact>
</mgrwt>
</event>
<event>
 6    1  0.1386179E-004  0.6507049E+03  0.7818608E-02  0.9805457E-01
         21   -1    0    0  501  502  0.00000000000E+00  0.00000000000E+00  0.12107780450E+03  0.12107780450E+03  0.00000000000E+00 0.  1.
         13   -1    0    0    0    0 -0.00000000000E+00 -0.00000000000E+00 -0.10000000000E+04  0.10000000000E+04  0.00000000000E+00 0.  1.
    9000005    2    1    2  501    0 -0.15925192779E+01  0.32981925174E+02 -0.87081523583E+03  0.10870768295E+04  0.64986653614E+03 0.  0.
         13    1    3    3    0    0 -0.13690158053E+03 -0.17050611838E+03 -0.80475974927E+03  0.83393802720E+03  0.00000000000E+00 0.  1.
          3    1    3    3  501    0  0.13530906125E+03  0.20348804356E+03 -0.66055486552E+02  0.25313880230E+03  0.00000000000E+00 0.  1.
         -1    1    1    2    0  502  0.15925192779E+01 -0.32981925174E+02 -0.81069596691E+01  0.34000974999E+02  0.00000000000E+00 0. -1.
<mgrwt>
<rscale>  1 0.65070489E+03</rscale>
<asrwt>0</asrwt>
<pdfrwt beam="1">  1       21 0.18627354E-01 0.65070489E+03</pdfrwt>
<pdfrwt beam="2">0</pdfrwt>
<totfact> 0.25708344E+03</totfact>
</mgrwt>
</event>
<event>
 6    1  0.1386179E-004  0.6589117E+03  0.7818608E-02  0.9790199E-01
         21   -1    0    0  501  502  0.00000000000E+00  0.00000000000E+00  0.23161115088E+03  0.23161115088E+03  0.00000000000E+00 0. -1.
         13   -1    0    0    0    0 -0.00000000000E+00 -0.00000000000E+00 -0.10000000000E+04  0.10000000000E+04  0.00000000000E+00 0.  1.
    9000005    2    1    2  501    0 -0.65754114073E+02 -0.22600748823E+02 -0.88046481837E+03  0.10997194519E+04  0.65523291984E+03 0.  0.
         13    1    3    3    0    0  0.28870429318E+03 -0.76061076267E+02 -0.35888737877E+03  0.46683573864E+03  0.00000000000E+00 0.  1.
          1    1    3    3  501    0 -0.35445840725E+03  0.53460327444E+02 -0.52157743959E+03  0.63288371331E+03  0.00000000000E+00 0.  1.
         -1    1    1    2    0  502  0.65754114073E+02  0.22600748823E+02  0.11207596925E+03  0.13189169893E+03  0.00000000000E+00 0. -1.
<mgrwt>
<rscale>  1 0.65891166E+03</rscale>
<asrwt>0</asrwt>
<pdfrwt beam="1">  1       21 0.35632484E-01 0.65891166E+03</pdfrwt>
<pdfrwt beam="2">0</pdfrwt>
<totfact> 0.71609681E+02</totfact>
</mgrwt>
</event>
<event>
 6    1  0.1386179E-004  0.6621101E+03  0.7818608E-02  0.9784317E-01
         21   -1    0    0  501  502  0.00000000000E+00  0.00000000000E+00  0.15257999112E+03  0.15257999112E+03  0.00000000000E+00 0.  1.
         13   -1    0    0    0    0 -0.00000000000E+00 -0.00000000000E+00 -0.10000000000E+04  0.10000000000E+04  0.00000000000E+00 0.  1.
    9000005    2    1    2  501    0 -0.66468403334E+02 -0.57407360638E+02 -0.83217357438E+03  0.10634390496E+04  0.65625917178E+03 0.  0.
         13    1    3    3    0    0 -0.15290068864E+03 -0.28370278961E+03 -0.73478411152E+03  0.80235502364E+03  0.00000000000E+00 0.  1.
          1    1    3    3  501    0  0.86432285303E+02  0.22629542897E+03 -0.97389462854E+02  0.26108402592E+03  0.00000000000E+00 0.  1.
         -3    1    1    2    0  502  0.66468403334E+02  0.57407360638E+02 -0.15246434505E+02  0.89140941560E+02  0.00000000000E+00 0. -1.
<mgrwt>
<rscale>  1 0.66211008E+03</rscale>
<asrwt>0</asrwt>
<pdfrwt beam="1">  1       21 0.23473844E-01 0.66211008E+03</pdfrwt>
<pdfrwt beam="2">0</pdfrwt>
<totfact> 0.16459284E+03</totfact>
</mgrwt>
</event>
<event>
 6    1  0.1386179E-004  0.6887944E+03  0.7818608E-02  0.9736590E-01
         21   -1    0    0  501  502  0.00000000000E+00  0.00000000000E+00  0.21095080806E+03  0.21095080806E+03  0.00000000000E+00 0.  1.
         13   -1    0    0    0    0 -0.00000000000E+00 -0.00000000000E+00 -0.10000000000E+04  0.10000000000E+04  0.00000000000E+00 0.  1.
    9000005    2    1    2  501    0 -0.81084363358E+02  0.20659116681E+03 -0.52525512278E+03  0.86621627961E+03  0.65206066810E+03 0.  0.
         13    1    3    3    0    0 -0.15874934630E+03  0.45238100486E+02 -0.63505820504E+03  0.65616062399E+03  0.00000000000E+00 0.  1.
          1    1    3    3  501    0  0.77664982942E+02  0.16135306632E+03  0.10980308226E+03  0.21005565562E+03  0.00000000000E+00 0.  1.
         -3    1    1    2    0  502  0.81084363358E+02 -0.20659116681E+03 -0.26379406916E+03  0.34473452845E+03  0.00000000000E+00 0. -1.
<mgrwt>
<rscale>  1 0.68879438E+03</rscale>
<asrwt>0</asrwt>
<pdfrwt beam="1">  1       21 0.32453970E-01 0.68879438E+03</pdfrwt>
<pdfrwt beam="2">0</pdfrwt>
<totfact> 0.86416233E+02</totfact>
</mgrwt>
</event>
<event>
 6    1  0.1386179E-004  0.7341615E+03  0.7818608E-02  0.9660531E-01
         21   -1    0    0  501  502  0.00000000000E+00  0.00000000000E+00  0.25572844551E+03  0.25572844551E+03  0.00000000000E+00 0.  1.
         13   -1    0    0    0    0 -0.00000000000E+00 -0.00000000000E+00 -0.10000000000E+04  0.10000000000E+04  0.00000000000E+00 0.  1.
    9000005    2    1    2  501    0 -0.86545003949E+02  0.24704325764E+03 -0.64001199265E+03  0.97396530901E+03  0.68591009875E+03 0.  0.
         13    1    3    3    0    0  0.10134095753E+03  0.92398436297E+02 -0.70811401575E+03  0.72127173798E+03  0.00000000000E+00 0.  1.
          1    1    3    3  501    0 -0.18788596148E+03  0.15464482134E+03  0.68102023100E+02  0.25269357103E+03  0.00000000000E+00 0.  1.
         -3    1    1    2    0  502  0.86545003949E+02 -0.24704325764E+03 -0.10425956184E+03  0.28176313650E+03  0.00000000000E+00 0. -1.
<mgrwt>
<rscale>  1 0.73416148E+03</rscale>
<asrwt>0</asrwt>
<pdfrwt beam="1">  1       21 0.39342837E-01 0.73416148E+03</pdfrwt>
<pdfrwt beam="2">0</pdfrwt>
<totfact> 0.58081621E+02</totfact>
</mgrwt>
</event>
<event>
 6    1  0.1386179E-004  0.6271924E+03  0.7818608E-02  0.9850543E-01
         21   -1    0    0  501  502  0.00000000000E+00  0.00000000000E+00  0.15295135621E+03  0.15295135621E+03  0.00000000000E+00 0.  1.
         13   -1    0    0    0    0 -0.00000000000E+00 -0.00000000000E+00 -0.10000000000E+04  0.10000000000E+04  0.00000000000E+00 0.  1.
    9000005    2    1    2  501    0 -0.10048293339E+02  0.22801152312E+02 -0.89851859324E+03  0.10957672986E+04  0.62669725514E+03 0.  0.
         13    1    3    3    0    0  0.18219576218E+03  0.97704201662E+02 -0.86174199674E+03  0.88619449091E+03  0.00000000000E+00 0.  1.
          1    1    3    3  501    0 -0.19224405552E+03 -0.74903049351E+02 -0.36776596495E+02  0.20957280771E+03  0.00000000000E+00 0.  1.
         -3    1    1    2    0  502  0.10048293339E+02 -0.22801152312E+02  0.51469949441E+02  0.57184057580E+02  0.00000000000E+00 0. -1.
<mgrwt>
<rscale>  1 0.62719240E+03</rscale>
<asrwt>0</asrwt>
<pdfrwt beam="1">  1       21 0.23530977E-01 0.62719240E+03</pdfrwt>
<pdfrwt beam="2">0</pdfrwt>
<totfact> 0.16409530E+03</totfact>
</mgrwt>
</event>
<event>
 6    1  0.1386179E-004  0.6387477E+03  0.7818608E-02  0.9828125E-01
         21   -1    0    0  501  502  0.00000000000E+00  0.00000000000E+00  0.11403213880E+03  0.11403213880E+03  0.00000000000E+00 0.  1.
         13   -1    0    0    0    0 -0.00000000000E+00 -0.00000000000E+00 -0.10000000000E+04  0.10000000000E+04  0.00000000000E+00 0.  1.
    9000005    2    1    2  501    0 -0.30692238057E+02 -0.19507501957E+02 -0.84490527299E+03  0.10591805913E+04  0.63771157164E+03 0.  0.
         13    1    3    3    0    0 -0.38707688578E+02 -0.26569391461E+03 -0.74757740931E+03  0.79433212470E+03  0.00000000000E+00 0.  1.
          1    1    3    3  501    0  0.80154505201E+01  0.24618641266E+03 -0.97327863678E+02  0.26484846662E+03  0.00000000000E+00 0.  1.
         -3    1    1    2    0  502  0.30692238057E+02  0.19507501957E+02 -0.41062588211E+02  0.54851547473E+02  0.00000000000E+00 0. -1.
<mgrwt>
<rscale>  1 0.63874768E+03</rscale>
<asrwt>0</asrwt>
<pdfrwt beam="1">  1       21 0.17543405E-01 0.63874768E+03</pdfrwt>
<pdfrwt beam="2">0</pdfrwt>
<totfact> 0.28818262E+03</totfact>
</mgrwt>
</event>
<event>
 6    1  0.1386179E-004  0.6161303E+03  0.7818608E-02  0.9872495E-01
         21   -1    0    0  501  502  0.00000000000E+00  0.00000000000E+00  0.11883493854E+03  0.11883493854E+03  0.00000000000E+00 0.  1.
         13   -1    0    0    0    0 -0.00000000000E+00 -0.00000000000E+00 -0.10000000000E+04  0.10000000000E+04  0.00000000000E+00 0.  1.
    9000005    2    1    2  501    0  0.43184089003E+02 -0.53175318155E+02 -0.82819595803E+03  0.10322427569E+04  0.61231044761E+03 0.  0.
         13    1    3    3    0    0 -0.12795190434E+03  0.22983946058E+03 -0.50715272701E+03  0.57131581107E+03  0.00000000000E+00 0.  1.
          3    1    3    3  501    0  0.17113599334E+03 -0.28301477874E+03 -0.32104323102E+03  0.46092694582E+03  0.00000000000E+00 0.  1.
         -3    1    1    2    0  502 -0.43184089003E+02  0.53175318155E+02 -0.52969103431E+02  0.86592181646E+02  0.00000000000E+00 0. -1.
<mgrwt>
<rscale>  1 0.61613031E+03</rscale>
<asrwt>0</asrwt>
<pdfrwt beam="1">  1       21 0.18282298E-01 0.61613031E+03</pdfrwt>
<pdfrwt beam="2">0</pdfrwt>
<totfact> 0.26671243E+03</totfact>
</mgrwt>
</event>
<event>
 6    1  0.1386179E-004  0.6764575E+03  0.7818608E-02  0.9758362E-01
         21   -1    0    0  501  502  0.00000000000E+00  0.00000000000E+00  0.14667200140E+03  0.14667200140E+03  0.00000000000E+00 0.  1.
         13   -1    0    0    0    0 -0.00000000000E+00 -0.00000000000E+00 -0.10000000000E+04  0.10000000000E+04  0.00000000000E+00 0.  1.
    9000005    2    1    2  501    0 -0.56583005409E+02 -0.32433923228E+02 -0.84265612150E+03  0.10805850523E+04  0.67330611192E+03 0.  0.
         13    1    3    3    0    0  0.25530307992E+03  0.14946852813E+03 -0.25348723076E+03  0.38958475288E+03  0.00000000000E+00 0.  1.
          1    1    3    3  501    0 -0.31188608533E+03 -0.18190245135E+03 -0.58916889074E+03  0.69100029945E+03  0.00000000000E+00 0.  1.
         -3    1    1    2    0  502  0.56583005409E+02  0.32433923228E+02 -0.10671877097E+02  0.66086949074E+02  0.00000000000E+00 0. -1.
<mgrwt>
<rscale>  1 0.67645748E+03</rscale>
<asrwt>0</asrwt>
<pdfrwt beam="1">  1       21 0.22564923E-01 0.67645748E+03</pdfrwt>
<pdfrwt beam="2">0</pdfrwt>
<totfact> 0.17761541E+03</totfact>
</mgrwt>
</event>
<event>
 6    1  0.1386179E-004  0.6619429E+03  0.7818608E-02  0.9784624E-01
         21   -1    0    0  501  502  0.00000000000E+00  0.00000000000E+00  0.27647877456E+03  0.27647877456E+03  0.00000000000E+00 0.  1.
         13   -1    0    0    0    0 -0.00000000000E+00 -0.00000000000E+00 -0.10000000000E+04  0.10000000000E+04  0.00000000000E+00 0.  1.
    9000005    2    1    2  501    0 -0.43809863585E+02  0.13571068546E+03 -0.85582926855E+03  0.10819482819E+04  0.64639898943E+03 0.  0.
         13    1    3    3    0    0  0.29433470688E+03  0.13495023367E+03 -0.41800745469E+03  0.52874825524E+03  0.00000000000E+00 0.  1.
          3    1    3    3  501    0 -0.33814457046E+03  0.76045179058E+00 -0.43782181386E+03  0.55320002668E+03  0.00000000000E+00 0.  1.
         -3    1    1    2    0  502  0.43809863585E+02 -0.13571068546E+03  0.13230804311E+03  0.19453049264E+03  0.00000000000E+00 0. -1.
<mgrwt>
<rscale>  1 0.66194286E+03</rscale>
<asrwt>0</asrwt>
<pdfrwt beam="1">  1       21 0.42535195E-01 0.66194286E+03</pdfrwt>
<pdfrwt beam="2">0</pdfrwt>
<totfact> 0.49632592E+02</totfact>
</mgrwt>
</event>
<event>
 6    1  0.1386179E-004  0.6862901E+03  0.7818608E-02  0.9740969E-01
         21   -1    0    0  501  502  0.00000000000E+00  0.00000000000E+00  0.17024827490E+03  0.17024827490E+03  0.00000000000E+00 0.  1.
         13   -1    0    0    0    0 -0.00000000000E+00 -0.00000000000E+00 -0.10000000000E+04  0.10000000000E+04  0.00000000000E+00 0.  1.
    9000005    2    1    2  501    0  0.11769784807E+03  0.73636091361E+02 -0.69683115752E+03  0.97804282576E+03  0.67210047578E+03 0.  0.
         13    1    3    3    0    0 -0.79490297714E+02 -0.27471989503E+03 -0.29261830938E+03  0.40916402963E+03  0.00000000000E+00 0.  1.
          1    1    3    3  501    0  0.19718814579E+03  0.34835598639E+03 -0.40421284813E+03  0.56887879613E+03  0.00000000000E+00 0.  1.
         -3    1    1    2    0  502 -0.11769784807E+03 -0.73636091361E+02 -0.13292056758E+03  0.19220544914E+03  0.00000000000E+00 0. -1.
<mgrwt>
<rscale>  1 0.68629010E+03</rscale>
<asrwt>0</asrwt>
<pdfrwt beam="1">  1       21 0.26192042E-01 0.68629010E+03</pdfrwt>
<pdfrwt beam="2">0</pdfrwt>
<totfact> 0.13262348E+03</totfact>
</mgrwt>
</event>
<event>
 6    1  0.1386179E-004  0.6428378E+03  0.7818608E-02  0.9820312E-01
         21   -1    0    0  501  502  0.00000000000E+00  0.00000000000E+00  0.12329227834E+03  0.12329227834E+03  0.00000000000E+00 0.  1.
         13   -1    0    0    0    0 -0.00000000000E+00 -0.00000000000E+00 -0.10000000000E+04  0.10000000000E+04  0.00000000000E+00 0.  1.
    9000005    2    1    2  501    0  0.18244233030E+02  0.86376401537E+01 -0.89090508132E+03  0.10986138285E+04  0.64252083182E+03 0.  0.
         13    1    3    3    0    0 -0.71393591331E+02 -0.21757932250E+03 -0.81067929986E+03  0.84240057792E+03  0.00000000000E+00 0.  1.
          3    1    3    3  501    0  0.89637824360E+02  0.22621696265E+03 -0.80225781461E+02  0.25621325055E+03  0.00000000000E+00 0.  1.
         -3    1    1    2    0  502 -0.18244233030E+02 -0.86376401537E+01  0.14197359661E+02  0.24678449862E+02  0.00000000000E+00 0. -1.
<mgrwt>
<rscale>  1 0.64283783E+03</rscale>
<asrwt>0</asrwt>
<pdfrwt beam="1">  1       21 0.18968042E-01 0.64283783E+03</pdfrwt>
<pdfrwt beam="2">0</pdfrwt>
<totfact> 0.24842487E+03</totfact>
</mgrwt>
</event>
<event>
 6    1  0.1386179E-004  0.6665020E+03  0.7818608E-02  0.9776298E-01
         21   -1    0    0  501  502  0.00000000000E+00  0.00000000000E+00  0.23474159629E+03  0.23474159629E+03  0.00000000000E+00 0. -1.
         13   -1    0    0    0    0 -0.00000000000E+00 -0.00000000000E+00 -0.10000000000E+04  0.10000000000E+04  0.00000000000E+00 0.  1.
    9000005    2    1    2  501    0 -0.45055162055E+02 -0.92166094482E+02 -0.86477455683E+03  0.10918149671E+04  0.65855928483E+03 0.  0.
         13    1    3    3    0    0 -0.21147378593E+03 -0.97492684432E+02 -0.23302407165E+02  0.23402775013E+03  0.00000000000E+00 0.  1.
          1    1    3    3  501    0  0.16641862387E+03  0.53265899503E+01 -0.84147214967E+03  0.85778721697E+03  0.00000000000E+00 0.  1.
         -1    1    1    2    0  502  0.45055162055E+02  0.92166094482E+02  0.99516153123E+02  0.14292662919E+03  0.00000000000E+00 0. -1.
<mgrwt>
<rscale>  1 0.66650198E+03</rscale>
<asrwt>0</asrwt>
<pdfrwt beam="1">  1       21 0.36114091E-01 0.66650198E+03</pdfrwt>
<pdfrwt beam="2">0</pdfrwt>
<totfact> 0.69630969E+02</totfact>
</mgrwt>
</event>
<event>
 6    1  0.1386179E-004  0.6659722E+03  0.7818608E-02  0.9777262E-01
         21   -1    0    0  501  502  0.00000000000E+00  0.00000000000E+00  0.23095053392E+03  0.23095053392E+03  0.00000000000E+00 0. -1.
         13   -1    0    0    0    0 -0.00000000000E+00 -0.00000000000E+00 -0.10000000000E+04  0.10000000000E+04  0.00000000000E+00 0.  1.
    9000005    2    1    2  501    0 -0.52596431470E+01 -0.10782568558E+03 -0.86144500989E+03  0.10888555698E+04  0.65716429031E+03 0.  0.
         13    1    3    3    0    0 -0.62567465942E+02  0.79618490955E+02 -0.88559417165E+03  0.89136458800E+03  0.00000000000E+00 0.  1.
          3    1    3    3  501    0  0.57307822795E+02 -0.18744417653E+03  0.24149161753E+02  0.19749098178E+03  0.00000000000E+00 0.  1.
         -3    1    1    2    0  502  0.52596431470E+01  0.10782568558E+03  0.92395543813E+02  0.14209496414E+03  0.00000000000E+00 0. -1.
<mgrwt>
<rscale>  1 0.66597218E+03</rscale>
<asrwt>0</asrwt>
<pdfrwt beam="1">  1       21 0.35530850E-01 0.66597218E+03</pdfrwt>
<pdfrwt beam="2">0</pdfrwt>
<totfact> 0.71992309E+02</totfact>
</mgrwt>
</event>
<event>
 6    1  0.1386179E-004  0.6942702E+03  0.7818608E-02  0.9727081E-01
         21   -1    0    0  501  502  0.00000000000E+00  0.00000000000E+00  0.21698452305E+03  0.21698452305E+03  0.00000000000E+00 0.  1.
         13   -1    0    0    0    0 -0.00000000000E+00 -0.00000000000E+00 -0.10000000000E+04  0.10000000000E+04  0.00000000000E+00 0.  1.
    9000005    2    1    2  501    0 -0.16022320789E+03 -0.16938893617E+03 -0.53425663966E+03  0.87603724388E+03  0.65394725140E+03 0.  0.
         13    1    3    3    0    0 -0.19758757684E+03 -0.17584648837E+03  0.67584529883E+02  0.27300275946E+03  0.00000000000E+00 0.  1.
          1    1    3    3  501    0  0.37364368955E+02  0.64575522012E+01 -0.60184116954E+03  0.60303448442E+03  0.00000000000E+00 0.  1.
         -1    1    1    2    0  502  0.16022320789E+03  0.16938893617E+03 -0.24875883729E+03  0.34094727917E+03  0.00000000000E+00 0. -1.
<mgrwt>
<rscale>  1 0.69427019E+03</rscale>
<asrwt>0</asrwt>
<pdfrwt beam="1">  1       21 0.33382233E-01 0.69427019E+03</pdfrwt>
<pdfrwt beam="2">0</pdfrwt>
<totfact> 0.81587531E+02</totfact>
</mgrwt>
</event>
<event>
 6    1  0.1386179E-004  0.6589297E+03  0.7818608E-02  0.9790166E-01
         21   -1    0    0  501  502  0.00000000000E+00  0.00000000000E+00  0.17442778648E+03  0.17442778648E+03  0.00000000000E+00 0.  1.
         13   -1    0    0    0    0 -0.00000000000E+00 -0.00000000000E+00 -0.10000000000E+04  0.10000000000E+04  0.00000000000E+00 0.  1.
    9000005    2    1    2  501    0  0.70787007451E+02 -0.48586081143E+02 -0.85871552223E+03  0.10823957996E+04  0.65331226155E+03 0.  0.
         13    1    3    3    0    0  0.21365590685E+03 -0.29051496176E+03 -0.60234301793E+03  0.70204337529E+03  0.00000000000E+00 0.  1.
          3    1    3    3  501    0 -0.14286889940E+03  0.24192888062E+03 -0.25637250430E+03  0.38035242427E+03  0.00000000000E+00 0.  1.
         -1    1    1    2    0  502 -0.70787007451E+02  0.48586081143E+02  0.33143308712E+02  0.92031986924E+02  0.00000000000E+00 0. -1.
<mgrwt>
<rscale>  1 0.65892968E+03</rscale>
<asrwt>0</asrwt>
<pdfrwt beam="1">  1       21 0.26835043E-01 0.65892968E+03</pdfrwt>
<pdfrwt beam="2">0</pdfrwt>
<totfact> 0.12661052E+03</totfact>
</mgrwt>
</event>
<event>
 6    1  0.1386179E-004  0.5989330E+03  0.7818608E-02  0.9907622E-01
         21   -1    0    0  501  502  0.00000000000E+00  0.00000000000E+00  0.11344697356E+03  0.11344697356E+03  0.00000000000E+00 0. -1.
         13   -1    0    0    0    0 -0.00000000000E+00 -0.00000000000E+00 -0.10000000000E+04  0.10000000000E+04  0.00000000000E+00 0.  1.
    9000005    2    1    2  501    0  0.44591039510E+02 -0.56880032720E+02 -0.81804084790E+03  0.10138597378E+04  0.59455617066E+03 0.  0.
         13    1    3    3    0    0 -0.47921279082E+02  0.15283190364E+03  0.42453406902E+01  0.16022503761E+03  0.00000000000E+00 0.  1.
          1    1    3    3  501    0  0.92512318592E+02 -0.20971193636E+03 -0.82228618859E+03  0.85363470014E+03  0.00000000000E+00 0.  1.
         -3    1    1    2    0  502 -0.44591039510E+02  0.56880032720E+02 -0.68512178541E+02  0.99587235805E+02  0.00000000000E+00 0. -1.
<mgrwt>
<rscale>  1 0.59893300E+03</rscale>
<asrwt>0</asrwt>
<pdfrwt beam="1">  1       21 0.17453380E-01 0.59893300E+03</pdfrwt>
<pdfrwt beam="2">0</pdfrwt>
<totfact> 0.29138577E+03</totfact>
</mgrwt>
</event>
<event>
 6    1  0.1386179E-004  0.6839245E+03  0.7818608E-02  0.9745125E-01
         21   -1    0    0  501  502  0.00000000000E+00  0.00000000000E+00  0.16941770179E+03  0.16941770179E+03  0.00000000000E+00 0.  1.
         13   -1    0    0    0    0 -0.00000000000E+00 -0.00000000000E+00 -0.10000000000E+04  0.10000000000E+04  0.00000000000E+00 0.  1.
    9000005    2    1    2  501    0  0.33422821926E+02  0.20806035887E+02 -0.87466655197E+03  0.11103127309E+04  0.68279045621E+03 0.  0.
         13    1    3    3    0    0  0.19381086765E+03  0.29114967992E+03 -0.59184632147E+03  0.68746844057E+03  0.00000000000E+00 0.  1.
          3    1    3    3  501    0 -0.16038804573E+03 -0.27034364403E+03 -0.28282023050E+03  0.42284429033E+03  0.00000000000E+00 0.  1.
         -3    1    1    2    0  502 -0.33422821926E+02 -0.20806035887E+02  0.44084253758E+02  0.59104970893E+02  0.00000000000E+00 0. -1.
<mgrwt>
<rscale>  1 0.68392454E+03</rscale>
<asrwt>0</asrwt>
<pdfrwt beam="1">  1       21 0.26064261E-01 0.68392454E+03</pdfrwt>
<pdfrwt beam="2">0</pdfrwt>
<totfact> 0.13392475E+03</totfact>
</mgrwt>
</event>
<event>
 6    1  0.1386179E-004  0.6538674E+03  0.7818608E-02  0.9799549E-01
         21   -1    0    0  501  502  0.00000000000E+00  0.00000000000E+00  0.16344067478E+03  0.16344067478E+03  0.00000000000E+00 0.  1.
         13   -1    0    0    0    0 -0.00000000000E+00 -0.00000000000E+00 -0.10000000000E+04  0.10000000000E+04  0.00000000000E+00 0.  1.
    9000005    2    1    2  501    0  0.21795518707E+01  0.74788571850E+02 -0.86418941153E+03  0.10836816465E+04  0.64957254482E+03 0.  0.
         13    1    3    3    0    0 -0.25375446053E+02  0.72386725768E+02  0.96119532109E+02  0.12297445175E+03  0.00000000000E+00 0.  1.
          3    1    3    3  501    0  0.27554997923E+02  0.24018460819E+01 -0.96030894364E+03  0.96070719473E+03  0.00000000000E+00 0.  1.
         -3    1    1    2    0  502 -0.21795518707E+01 -0.74788571850E+02  0.27630086304E+02  0.79759028297E+02  0.00000000000E+00 0. -1.
<mgrwt>
<rscale>  1 0.65386740E+03</rscale>
<asrwt>0</asrwt>
<pdfrwt beam="1">  1       21 0.25144718E-01 0.65386740E+03</pdfrwt>
<pdfrwt beam="2">0</pdfrwt>
<totfact> 0.14394939E+03</totfact>
</mgrwt>
</event>
<event>
 6    1  0.1386179E-004  0.6605858E+03  0.7818608E-02  0.9787116E-01
         21   -1    0    0  501  502  0.00000000000E+00  0.00000000000E+00  0.15992158585E+03  0.15992158585E+03  0.00000000000E+00 0.  1.
         13   -1    0    0    0    0 -0.00000000000E+00 -0.00000000000E+00 -0.10000000000E+04  0.10000000000E+04  0.00000000000E+00 0.  1.
    9000005    2    1    2  501    0  0.20608809893E+02 -0.10460162473E+03 -0.81733679790E+03  0.10509105586E+04  0.65192586859E+03 0.  0.
         13    1    3    3    0    0 -0.30392443598E+03  0.31409722464E+02 -0.32892508267E+03  0.44894135860E+03  0.00000000000E+00 0.  1.
          3    1    3    3  501    0  0.32453324587E+03 -0.13601134719E+03 -0.48841171522E+03  0.60196920005E+03  0.00000000000E+00 0.  1.
         -1    1    1    2    0  502 -0.20608809893E+02  0.10460162473E+03 -0.22741616258E+02  0.10901102720E+03  0.00000000000E+00 0. -1.
<mgrwt>
<rscale>  1 0.66058577E+03</rscale>
<asrwt>0</asrwt>
<pdfrwt beam="1">  1       21 0.24603320E-01 0.66058577E+03</pdfrwt>
<pdfrwt beam="2">0</pdfrwt>
<totfact> 0.15017049E+03</totfact>
</mgrwt>
</event>
<event>
 6    1  0.1386179E-004  0.6514068E+03  0.7818608E-02  0.9804143E-01
         21   -1    0    0  501  502  0.00000000000E+00  0.00000000000E+00  0.13613050604E+03  0.13613050604E+03  0.00000000000E+00 0.  1.
         13   -1    0    0    0    0 -0.00000000000E+00 -0.00000000000E+00 -0.10000000000E+04  0.10000000000E+04  0.00000000000E+00 0.  1.
    9000005    2    1    2  501    0 -0.33025382711E+02  0.19853668214E+01 -0.88348425732E+03  0.10976681020E+04  0.65056607011E+03 0.  0.
         13    1    3    3    0    0  0.29939031709E+03  0.23298254709E+02 -0.29210089244E+03  0.41892756176E+03  0.00000000000E+00 0.  1.
          1    1    3    3  501    0 -0.33241569980E+03 -0.21312887888E+02 -0.59138336489E+03  0.67874054022E+03  0.00000000000E+00 0.  1.
         -3    1    1    2    0  502  0.33025382711E+02 -0.19853668214E+01  0.19614763369E+02  0.38462404067E+02  0.00000000000E+00 0. -1.
<mgrwt>
<rscale>  1 0.65140681E+03</rscale>
<asrwt>0</asrwt>
<pdfrwt beam="1">  1       21 0.20943154E-01 0.65140681E+03</pdfrwt>
<pdfrwt beam="2">0</pdfrwt>
<totfact> 0.20539370E+03</totfact>
</mgrwt>
</event>
<event>
 6    1  0.1386179E-004  0.6592364E+03  0.7818608E-02  0.9789600E-01
         21   -1    0    0  501  502  0.00000000000E+00  0.00000000000E+00  0.16085596241E+03  0.16085596241E+03  0.00000000000E+00 0. -1.
         13   -1    0    0    0    0 -0.00000000000E+00 -0.00000000000E+00 -0.10000000000E+04  0.10000000000E+04  0.00000000000E+00 0.  1.
    9000005    2    1    2  501    0 -0.30721147420E+01  0.23100736653E+02 -0.88845215853E+03  0.11063181525E+04  0.65882435789E+03 0.  0.
         13    1    3    3    0    0 -0.25716390501E+03 -0.79256489875E+02 -0.75516491537E+03  0.80167881014E+03  0.00000000000E+00 0.  1.
          3    1    3    3  501    0  0.25409179026E+03  0.10235722653E+03 -0.13328724316E+03  0.30463934233E+03  0.00000000000E+00 0.  1.
         -1    1    1    2    0  502  0.30721147420E+01 -0.23100736653E+02  0.49308120940E+02  0.54537809944E+02  0.00000000000E+00 0. -1.
<mgrwt>
<rscale>  1 0.65923639E+03</rscale>
<asrwt>0</asrwt>
<pdfrwt beam="1">  1       21 0.24747070E-01 0.65923639E+03</pdfrwt>
<pdfrwt beam="2">0</pdfrwt>
<totfact> 0.14847727E+03</totfact>
</mgrwt>
</event>
<event>
 6    1  0.1386179E-004  0.7400550E+03  0.7818608E-02  0.9651083E-01
         21   -1    0    0  501  502  0.00000000000E+00  0.00000000000E+00  0.18116759802E+03  0.18116759802E+03  0.00000000000E+00 0.  1.
         13   -1    0    0    0    0 -0.00000000000E+00 -0.00000000000E+00 -0.10000000000E+04  0.10000000000E+04  0.00000000000E+00 0.  1.
    9000005    2    1    2  501    0  0.29727984418E+02  0.25277932708E+01 -0.85726569514E+03  0.11325130934E+04  0.73945337371E+03 0.  0.
         13    1    3    3    0    0  0.36962441997E+03 -0.10280008826E+03 -0.46672634478E+03  0.60417178923E+03  0.00000000000E+00 0.  1.
          1    1    3    3  501    0 -0.33989643555E+03  0.10532788153E+03 -0.39053935035E+03  0.52834130418E+03  0.00000000000E+00 0.  1.
         -3    1    1    2    0  502 -0.29727984418E+02 -0.25277932708E+01  0.38433293156E+02  0.48654504614E+02  0.00000000000E+00 0. -1.
<mgrwt>
<rscale>  1 0.74005502E+03</rscale>
<asrwt>0</asrwt>
<pdfrwt beam="1">  1       21 0.27871937E-01 0.74005502E+03</pdfrwt>
<pdfrwt beam="2">0</pdfrwt>
<totfact> 0.11693178E+03</totfact>
</mgrwt>
</event>
<event>
 6    1  0.1386179E-004  0.6156588E+03  0.7818608E-02  0.9873441E-01
         21   -1    0    0  501  502  0.00000000000E+00  0.00000000000E+00  0.10809399967E+03  0.10809399967E+03  0.00000000000E+00 0.  1.
         13   -1    0    0    0    0 -0.00000000000E+00 -0.00000000000E+00 -0.10000000000E+04  0.10000000000E+04  0.00000000000E+00 0.  1.
    9000005    2    1    2  501    0 -0.23013578217E+02  0.26674350759E+02 -0.87258436802E+03  0.10679135163E+04  0.61465002495E+03 0.  0.
         13    1    3    3    0    0  0.21901997487E+03  0.10985567499E+03 -0.11966545585E+03  0.27268634004E+03  0.00000000000E+00 0.  1.
          3    1    3    3  501    0 -0.24203355309E+03 -0.83181324229E+02 -0.75291891218E+03  0.79522717624E+03  0.00000000000E+00 0.  1.
         -1    1    1    2    0  502  0.23013578217E+02 -0.26674350759E+02 -0.19321632307E+02  0.40180483394E+02  0.00000000000E+00 0. -1.
<mgrwt>
<rscale>  1 0.61565883E+03</rscale>
<asrwt>0</asrwt>
<pdfrwt beam="1">  1       21 0.16629846E-01 0.61565883E+03</pdfrwt>
<pdfrwt beam="2">0</pdfrwt>
<totfact> 0.31902462E+03</totfact>
</mgrwt>
</event>
<event>
 6    1  0.1386179E-004  0.7188223E+03  0.7818608E-02  0.9685574E-01
         21   -1    0    0  501  502  0.00000000000E+00  0.00000000000E+00  0.27627422657E+03  0.27627422657E+03  0.00000000000E+00 0.  1.
         13   -1    0    0    0    0 -0.00000000000E+00 -0.00000000000E+00 -0.10000000000E+04  0.10000000000E+04  0.00000000000E+00 0.  1.
    9000005    2    1    2  501    0 -0.99903369852E+02  0.94131326229E+02 -0.83340221232E+03  0.11005747356E+04  0.70559486336E+03 0.  0.
         13    1    3    3    0    0 -0.37247106745E+03  0.12901234315E+03 -0.28255258897E+03  0.48498953216E+03  0.00000000000E+00 0.  1.
          1    1    3    3  501    0  0.27256769760E+03 -0.34881016922E+02 -0.55084962336E+03  0.61558520342E+03  0.00000000000E+00 0.  1.
         -3    1    1    2    0  502  0.99903369852E+02 -0.94131326229E+02  0.10967643889E+03  0.17569949099E+03  0.00000000000E+00 0. -1.
<mgrwt>
<rscale>  1 0.71882230E+03</rscale>
<asrwt>0</asrwt>
<pdfrwt beam="1">  1       21 0.42503726E-01 0.71882230E+03</pdfrwt>
<pdfrwt beam="2">0</pdfrwt>
<totfact> 0.49483580E+02</totfact>
</mgrwt>
</event>
<event>
 6    1  0.1386179E-004  0.7099609E+03  0.7818608E-02  0.9700348E-01
         21   -1    0    0  501  502  0.00000000000E+00  0.00000000000E+00  0.25077224350E+03  0.25077224350E+03  0.00000000000E+00 0.  1.
         13   -1    0    0    0    0 -0.00000000000E+00 -0.00000000000E+00 -0.10000000000E+04  0.10000000000E+04  0.00000000000E+00 0.  1.
    9000005    2    1    2  501    0  0.10927754197E+03  0.24366212685E+03 -0.65962146976E+03  0.96909494612E+03  0.65782347023E+03 0.  0.
         13    1    3    3    0    0  0.15034481439E+03  0.18242869495E+03  0.61458102804E+02  0.24425578878E+03  0.00000000000E+00 0.  1.
          3    1    3    3  501    0 -0.41067272416E+02  0.61233431899E+02 -0.72107957256E+03  0.72483915734E+03  0.00000000000E+00 0.  1.
         -3    1    1    2    0  502 -0.10927754197E+03 -0.24366212685E+03 -0.89606286742E+02  0.28167729738E+03  0.00000000000E+00 0. -1.
<mgrwt>
<rscale>  1 0.70996094E+03</rscale>
<asrwt>0</asrwt>
<pdfrwt beam="1">  1       21 0.38580344E-01 0.70996094E+03</pdfrwt>
<pdfrwt beam="2">0</pdfrwt>
<totfact> 0.60588781E+02</totfact>
</mgrwt>
</event>
<event>
 6    1  0.1386179E-004  0.6565466E+03  0.7818608E-02  0.9794572E-01
         21   -1    0    0  501  502  0.00000000000E+00  0.00000000000E+00  0.38438084005E+03  0.38438084005E+03  0.00000000000E+00 0.  1.
         13   -1    0    0    0    0 -0.00000000000E+00 -0.00000000000E+00 -0.10000000000E+04  0.10000000000E+04  0.00000000000E+00 0.  1.
    9000005    2    1    2  501    0 -0.75468055232E+01 -0.57725960796E+02 -0.88883835947E+03  0.11050280670E+04  0.65396036484E+03 0.  0.
         13    1    3    3    0    0 -0.29240565970E+03 -0.74458063063E+02 -0.70159919254E+03  0.76373195557E+03  0.00000000000E+00 0.  1.
          3    1    3    3  501    0  0.28485885418E+03  0.16732102268E+02 -0.18723916693E+03  0.34129611144E+03  0.00000000000E+00 0.  1.
         -1    1    1    2    0  502  0.75468055232E+01  0.57725960796E+02  0.27321919952E+03  0.27935277305E+03  0.00000000000E+00 0. -1.
<mgrwt>
<rscale>  1 0.65654657E+03</rscale>
<asrwt>0</asrwt>
<pdfrwt beam="1">  1       21 0.59135512E-01 0.65654657E+03</pdfrwt>
<pdfrwt beam="2">0</pdfrwt>
<totfact> 0.24478481E+02</totfact>
</mgrwt>
</event>
<event>
 6    1  0.1386179E-004  0.7141494E+03  0.7818608E-02  0.9693336E-01
         21   -1    0    0  501  502  0.00000000000E+00  0.00000000000E+00  0.14516271612E+03  0.14516271612E+03  0.00000000000E+00 0.  1.
         13   -1    0    0    0    0 -0.00000000000E+00 -0.00000000000E+00 -0.10000000000E+04  0.10000000000E+04  0.00000000000E+00 0.  1.
    9000005    2    1    2  501    0 -0.10487898643E+02  0.26200469094E+02 -0.85849852723E+03  0.11167045837E+04  0.71359158163E+03 0.  0.
         13    1    3    3    0    0  0.41329161125E+02 -0.30496098572E+03 -0.17153035173E+03  0.35232366360E+03  0.00000000000E+00 0.  1.
          1    1    3    3  501    0 -0.51817059768E+02  0.33116145481E+03 -0.68696817550E+03  0.76438092009E+03  0.00000000000E+00 0.  1.
         -1    1    1    2    0  502  0.10487898643E+02 -0.26200469094E+02  0.36612433549E+01  0.28458132433E+02  0.00000000000E+00 0. -1.
<mgrwt>
<rscale>  1 0.71414943E+03</rscale>
<asrwt>0</asrwt>
<pdfrwt beam="1">  1       21 0.22332725E-01 0.71414943E+03</pdfrwt>
<pdfrwt beam="2">0</pdfrwt>
<totfact> 0.18092536E+03</totfact>
</mgrwt>
</event>
<event>
 6    1  0.1386179E-004  0.8210007E+03  0.7818608E-02  0.9530107E-01
         21   -1    0    0  501  502  0.00000000000E+00  0.00000000000E+00  0.21918762623E+03  0.21918762623E+03  0.00000000000E+00 0. -1.
         13   -1    0    0    0    0 -0.00000000000E+00 -0.00000000000E+00 -0.10000000000E+04  0.10000000000E+04  0.00000000000E+00 0.  1.
    9000005    2    1    2  501    0  0.20297903715E+02 -0.42538582435E+02 -0.81815087191E+03  0.11590569408E+04  0.81964663535E+03 0.  0.
         13    1    3    3    0    0 -0.31480803224E+01  0.31167524042E+03 -0.72930523734E+03  0.79311884047E+03  0.00000000000E+00 0.  1.
          1    1    3    3  501    0  0.23445984037E+02 -0.35421382285E+03 -0.88845634569E+02  0.36593810030E+03  0.00000000000E+00 0.  1.
         -3    1    1    2    0  502 -0.20297903715E+02  0.42538582435E+02  0.37338498134E+02  0.60130685459E+02  0.00000000000E+00 0. -1.
<mgrwt>
<rscale>  1 0.82100070E+03</rscale>
<asrwt>0</asrwt>
<pdfrwt beam="1">  1       21 0.33721172E-01 0.82100070E+03</pdfrwt>
<pdfrwt beam="2">0</pdfrwt>
<totfact> 0.79322515E+02</totfact>
</mgrwt>
</event>
<event>
 6    1  0.1386179E-004  0.6179083E+03  0.7818608E-02  0.9868933E-01
         21   -1    0    0  501  502  0.00000000000E+00  0.00000000000E+00  0.22262852045E+03  0.22262852045E+03  0.00000000000E+00 0. -1.
         13   -1    0    0    0    0 -0.00000000000E+00 -0.00000000000E+00 -0.10000000000E+04  0.10000000000E+04  0.00000000000E+00 0.  1.
    9000005    2    1    2  501    0 -0.92536685836E+01  0.20360849736E+02 -0.90346932502E+03  0.10945626733E+04  0.61750338448E+03 0.  0.
         13    1    3    3    0    0  0.22411680521E+03  0.13447448447E+03 -0.15866519531E+03  0.30575541460E+03  0.00000000000E+00 0.  1.
          3    1    3    3  501    0 -0.23337047380E+03 -0.11411363474E+03 -0.74480412971E+03  0.78880725866E+03  0.00000000000E+00 0.  1.
         -1    1    1    2    0  502  0.92536685836E+01 -0.20360849736E+02  0.12609784547E+03  0.12806584719E+03  0.00000000000E+00 0. -1.
<mgrwt>
<rscale>  1 0.61790827E+03</rscale>
<asrwt>0</asrwt>
<pdfrwt beam="1">  1       21 0.34250541E-01 0.61790827E+03</pdfrwt>
<pdfrwt beam="2">0</pdfrwt>
<totfact> 0.77855536E+02</totfact>
</mgrwt>
</event>
<event>
 6    1  0.1386179E-004  0.5837216E+03  0.7818608E-02  0.9939766E-01
         21   -1    0    0  501  502  0.00000000000E+00  0.00000000000E+00  0.10113542762E+03  0.10113542762E+03  0.00000000000E+00 0.  1.
         13   -1    0    0    0    0 -0.00000000000E+00 -0.00000000000E+00 -0.10000000000E+04  0.10000000000E+04  0.00000000000E+00 0.  1.
    9000005    2    1    2  501    0  0.46433927587E+02 -0.17013398991E+01 -0.86544831493E+03  0.10439021292E+04  0.58186928540E+03 0.  0.
         13    1    3    3    0    0  0.20232278304E+03 -0.21073598594E+03 -0.62187813408E+03  0.68707829099E+03  0.00000000000E+00 0.  1.
          1    1    3    3  501    0 -0.15588885545E+03  0.20903464604E+03 -0.24357018086E+03  0.35682383819E+03  0.00000000000E+00 0.  1.
         -3    1    1    2    0  502 -0.46433927587E+02  0.17013398991E+01 -0.33416257448E+02  0.57233298441E+02  0.00000000000E+00 0. -1.
<mgrwt>
<rscale>  1 0.58372157E+03</rscale>
<asrwt>0</asrwt>
<pdfrwt beam="1">  1       21 0.15559296E-01 0.58372157E+03</pdfrwt>
<pdfrwt beam="2">0</pdfrwt>
<totfact> 0.36178403E+03</totfact>
</mgrwt>
</event>
<event>
 6    1  0.1386179E-004  0.6725680E+03  0.7818608E-02  0.9765330E-01
         21   -1    0    0  501  502  0.00000000000E+00  0.00000000000E+00  0.17303695881E+03  0.17303695881E+03  0.00000000000E+00 0. -1.
         13   -1    0    0    0    0 -0.00000000000E+00 -0.00000000000E+00 -0.10000000000E+04  0.10000000000E+04  0.00000000000E+00 0.  1.
    9000005    2    1    2  501    0 -0.10553383066E+03  0.92643545066E+02 -0.76762567683E+03  0.10205865122E+04  0.65774420055E+03 0.  0.
         13    1    3    3    0    0  0.65694537174E+02  0.70436932390E+02 -0.83107302726E+03  0.83663582896E+03  0.00000000000E+00 0.  1.
          1    1    3    3  501    0 -0.17122836783E+03  0.22206612676E+02  0.63447350433E+02  0.18395068326E+03  0.00000000000E+00 0.  1.
         -3    1    1    2    0  502  0.10553383066E+03 -0.92643545066E+02 -0.59337364362E+02  0.15245044659E+03  0.00000000000E+00 0. -1.
<mgrwt>
<rscale>  1 0.67256795E+03</rscale>
<asrwt>0</asrwt>
<pdfrwt beam="1">  1       21 0.26621070E-01 0.67256795E+03</pdfrwt>
<pdfrwt beam="2">0</pdfrwt>
<totfact> 0.12853236E+03</totfact>
</mgrwt>
</event>
<event>
 6    1  0.1386179E-004  0.7148411E+03  0.7818608E-02  0.9692183E-01
         21   -1    0    0  501  502  0.00000000000E+00  0.00000000000E+00  0.72719393536E+03  0.72719393536E+03  0.00000000000E+00 0. -1.
         13   -1    0    0    0    0 -0.00000000000E+00 -0.00000000000E+00 -0.10000000000E+04  0.10000000000E+04  0.00000000000E+00 0.  1.
    9000005    2    1    2  501    0 -0.21852023243E+03  0.20512655261E+03 -0.82945565970E+03  0.10949860849E+04  0.64897599343E+03 0.  0.
         13    1    3    3    0    0 -0.37747123988E+03  0.12866823425E+03 -0.20960224848E+03  0.45052541994E+03  0.00000000000E+00 0.  1.
          1    1    3    3  501    0  0.15895100745E+03  0.76458318359E+02 -0.61985341122E+03  0.64446066491E+03  0.00000000000E+00 0.  1.
         -3    1    1    2    0  502  0.21852023243E+03 -0.20512655261E+03  0.55664959506E+03  0.63220785051E+03  0.00000000000E+00 0. -1.
<mgrwt>
<rscale>  1 0.71484113E+03</rscale>
<asrwt>0</asrwt>
<pdfrwt beam="1">  1       21 0.11187599E+00 0.71484113E+03</pdfrwt>
<pdfrwt beam="2">0</pdfrwt>
<totfact> 0.54311668E+01</totfact>
</mgrwt>
</event>
<event>
 6    1  0.1386179E-004  0.6358041E+03  0.7818608E-02  0.9833788E-01
         21   -1    0    0  501  502  0.00000000000E+00  0.00000000000E+00  0.32738177144E+03  0.32738177144E+03  0.00000000000E+00 0. -1.
         13   -1    0    0    0    0 -0.00000000000E+00 -0.00000000000E+00 -0.10000000000E+04  0.10000000000E+04  0.00000000000E+00 0.  1.
    9000005    2    1    2  501    0 -0.17446752798E+03 -0.74875120449E+02 -0.85408021101E+03  0.10647534160E+04  0.60679619985E+03 0.  0.
         13    1    3    3    0    0  0.80174761730E+02 -0.77439428874E+02  0.52409736677E+02  0.12317320350E+03  0.00000000000E+00 0.  1.
          1    1    3    3  501    0 -0.25464228971E+03  0.25643084249E+01 -0.90648994769E+03  0.94158021254E+03  0.00000000000E+00 0.  1.
         -3    1    1    2    0  502  0.17446752798E+03  0.74875120449E+02  0.18146198245E+03  0.26262835540E+03  0.00000000000E+00 0. -1.
<mgrwt>
<rscale>  1 0.63580408E+03</rscale>
<asrwt>0</asrwt>
<pdfrwt beam="1">  1       21 0.50366425E-01 0.63580408E+03</pdfrwt>
<pdfrwt beam="2">0</pdfrwt>
<totfact> 0.34771218E+02</totfact>
</mgrwt>
</event>
<event>
 6    1  0.1386179E-004  0.6478434E+03  0.7818608E-02  0.9810834E-01
         21   -1    0    0  501  502  0.00000000000E+00  0.00000000000E+00  0.26814283329E+03  0.26814283329E+03  0.00000000000E+00 0. -1.
         13   -1    0    0    0    0 -0.00000000000E+00 -0.00000000000E+00 -0.10000000000E+04  0.10000000000E+04  0.00000000000E+00 0.  1.
    9000005    2    1    2  501    0 -0.56776790828E+02  0.35014653168E+02 -0.88750564232E+03  0.10988027085E+04  0.64440010637E+03 0.  0.
         13    1    3    3    0    0  0.28317205099E+03  0.93739961754E+02 -0.47699995617E+03  0.56258559267E+03  0.00000000000E+00 0.  1.
          1    1    3    3  501    0 -0.33994884182E+03 -0.58725308585E+02 -0.41050568615E+03  0.53621711581E+03  0.00000000000E+00 0.  1.
         -3    1    1    2    0  502  0.56776790828E+02 -0.35014653168E+02  0.15564847560E+03  0.16934012481E+03  0.00000000000E+00 0. -1.
<mgrwt>
<rscale>  1 0.64784344E+03</rscale>
<asrwt>0</asrwt>
<pdfrwt beam="1">  1       21 0.41252742E-01 0.64784344E+03</pdfrwt>
<pdfrwt beam="2">0</pdfrwt>
<totfact> 0.52974579E+02</totfact>
</mgrwt>
</event>
<event>
 6    1  0.1386179E-004  0.6504983E+03  0.7818608E-02  0.9805845E-01
         21   -1    0    0  501  502  0.00000000000E+00  0.00000000000E+00  0.19108640510E+03  0.19108640510E+03  0.00000000000E+00 0. -1.
         13   -1    0    0    0    0 -0.00000000000E+00 -0.00000000000E+00 -0.10000000000E+04  0.10000000000E+04  0.00000000000E+00 0.  1.
    9000005    2    1    2  501    0 -0.55649210424E+02  0.15039583135E+02 -0.88329834516E+03  0.10969794726E+04  0.64793901949E+03 0.  0.
         13    1    3    3    0    0 -0.99877538472E+02 -0.20170143884E+03 -0.84249287355E+03  0.87203969812E+03  0.00000000000E+00 0.  1.
          3    1    3    3  501    0  0.44228328048E+02  0.21674102198E+03 -0.40805471611E+02  0.22493977444E+03  0.00000000000E+00 0.  1.
         -1    1    1    2    0  502  0.55649210424E+02 -0.15039583135E+02  0.74384750259E+02  0.94106932544E+02  0.00000000000E+00 0. -1.
<mgrwt>
<rscale>  1 0.65049827E+03</rscale>
<asrwt>0</asrwt>
<pdfrwt beam="1">  1       21 0.29397908E-01 0.65049827E+03</pdfrwt>
<pdfrwt beam="2">0</pdfrwt>
<totfact> 0.10567464E+03</totfact>
</mgrwt>
</event>
<event>
 6    1  0.1386179E-004  0.6946452E+03  0.7818608E-02  0.9726434E-01
         21   -1    0    0  501  502  0.00000000000E+00  0.00000000000E+00  0.26697916119E+03  0.26697916119E+03  0.00000000000E+00 0. -1.
         13   -1    0    0    0    0 -0.00000000000E+00 -0.00000000000E+00 -0.10000000000E+04  0.10000000000E+04  0.00000000000E+00 0.  1.
    9000005    2    1    2  501    0  0.85415601160E+02 -0.21839134113E+03 -0.76152394961E+03  0.10307525113E+04  0.65386650844E+03 0.  0.
         13    1    3    3    0    0  0.15485098205E+03  0.33293161819E+02  0.59514141066E+02  0.16920163785E+03  0.00000000000E+00 0.  1.
          1    1    3    3  501    0 -0.69435380889E+02 -0.25168450295E+03 -0.82103809068E+03  0.86155087342E+03  0.00000000000E+00 0.  1.
         -1    1    1    2    0  502 -0.85415601160E+02  0.21839134113E+03  0.28503110804E+02  0.23622664991E+03  0.00000000000E+00 0. -1.
<mgrwt>
<rscale>  1 0.69464524E+03</rscale>
<asrwt>0</asrwt>
<pdfrwt beam="1">  1       21 0.41073716E-01 0.69464524E+03</pdfrwt>
<pdfrwt beam="2">0</pdfrwt>
<totfact> 0.53257047E+02</totfact>
</mgrwt>
</event>
<event>
 6    1  0.1386179E-004  0.6753198E+03  0.7818608E-02  0.9760395E-01
         21   -1    0    0  501  502  0.00000000000E+00  0.00000000000E+00  0.13849544357E+03  0.13849544357E+03  0.00000000000E+00 0.  1.
         13   -1    0    0    0    0 -0.00000000000E+00 -0.00000000000E+00 -0.10000000000E+04  0.10000000000E+04  0.00000000000E+00 0.  1.
    9000005    2    1    2  501    0 -0.36710573341E+02  0.13989131524E+02 -0.86684049322E+03  0.10988490791E+04  0.67417616089E+03 0.  0.
         13    1    3    3    0    0  0.25238050464E+02  0.26396887713E+03 -0.89362055209E+02  0.27982513146E+03  0.00000000000E+00 0.  1.
          3    1    3    3  501    0 -0.61948623805E+02 -0.24997974561E+03 -0.77747843801E+03  0.81902394762E+03  0.00000000000E+00 0.  1.
         -3    1    1    2    0  502  0.36710573341E+02 -0.13989131524E+02  0.53359367916E+01  0.39646364490E+02  0.00000000000E+00 0. -1.
<mgrwt>
<rscale>  1 0.67531982E+03</rscale>
<asrwt>0</asrwt>
<pdfrwt beam="1">  1       21 0.21306991E-01 0.67531982E+03</pdfrwt>
<pdfrwt beam="2">0</pdfrwt>
<totfact> 0.19848694E+03</totfact>
</mgrwt>
</event>
<event>
 6    1  0.1386179E-004  0.6510654E+03  0.7818608E-02  0.9804782E-01
         21   -1    0    0  501  502  0.00000000000E+00  0.00000000000E+00  0.13552581999E+03  0.13552581999E+03  0.00000000000E+00 0.  1.
         13   -1    0    0    0    0 -0.00000000000E+00 -0.00000000000E+00 -0.10000000000E+04  0.10000000000E+04  0.00000000000E+00 0.  1.
    9000005    2    1    2  501    0 -0.66885657081E+01  0.48635792483E+02 -0.86942911320E+03  0.10861828510E+04  0.64921184970E+03 0.  0.
         13    1    3    3    0    0 -0.29032808530E+03 -0.11809667646E+03 -0.51251133773E+03  0.60075377103E+03  0.00000000000E+00 0.  1.
          1    1    3    3  501    0  0.28363951959E+03  0.16673246895E+03 -0.35691777547E+03  0.48542908001E+03  0.00000000000E+00 0.  1.
         -3    1    1    2    0  502  0.66885657081E+01 -0.48635792483E+02  0.49549331808E+01  0.49342968947E+02  0.00000000000E+00 0. -1.
<mgrwt>
<rscale>  1 0.65106544E+03</rscale>
<asrwt>0</asrwt>
<pdfrwt beam="1">  1       21 0.20850126E-01 0.65106544E+03</pdfrwt>
<pdfrwt beam="2">0</pdfrwt>
<totfact> 0.20716501E+03</totfact>
</mgrwt>
</event>
<event>
 6    1  0.1386179E-004  0.6654813E+03  0.7818608E-02  0.9778156E-01
         21   -1    0    0  501  502  0.00000000000E+00  0.00000000000E+00  0.19724147159E+03  0.19724147159E+03  0.00000000000E+00 0. -1.
         13   -1    0    0    0    0 -0.00000000000E+00 -0.00000000000E+00 -0.10000000000E+04  0.10000000000E+04  0.00000000000E+00 0.  1.
    9000005    2    1    2  501    0  0.11268681401E+03 -0.10997492292E+03 -0.79886523337E+03  0.10397360448E+04  0.64658532309E+03 0.  0.
         13    1    3    3    0    0  0.23811445024E+03 -0.20290865195E+03 -0.10724000160E+03  0.33071260996E+03  0.00000000000E+00 0.  1.
          3    1    3    3  501    0 -0.12542763622E+03  0.92933729027E+02 -0.69162523177E+03  0.70902343483E+03  0.00000000000E+00 0.  1.
         -1    1    1    2    0  502 -0.11268681401E+03  0.10997492292E+03 -0.38932950435E+01  0.15750542680E+03  0.00000000000E+00 0. -1.
<mgrwt>
<rscale>  1 0.66548132E+03</rscale>
<asrwt>0</asrwt>
<pdfrwt beam="1">  1       21 0.30344841E-01 0.66548132E+03</pdfrwt>
<pdfrwt beam="2">0</pdfrwt>
<totfact> 0.99085866E+02</totfact>
</mgrwt>
</event>
<event>
 6    1  0.1386179E-004  0.6385459E+03  0.7818608E-02  0.9828513E-01
         21   -1    0    0  501  502  0.00000000000E+00  0.00000000000E+00  0.11796522061E+03  0.11796522061E+03  0.00000000000E+00 0.  1.
         13   -1    0    0    0    0 -0.00000000000E+00 -0.00000000000E+00 -0.10000000000E+04  0.10000000000E+04  0.00000000000E+00 0.  1.
    9000005    2    1    2  501    0 -0.21528316673E+02  0.20567472484E+02 -0.88112958793E+03  0.10881774930E+04  0.63785140610E+03 0.  0.
         13    1    3    3    0    0  0.17947939576E+03  0.22158866173E+03 -0.68730309528E+03  0.74411016206E+03  0.00000000000E+00 0.  1.
          3    1    3    3  501    0 -0.20100771243E+03 -0.20102118925E+03 -0.19382649265E+03  0.34406733096E+03  0.00000000000E+00 0.  1.
         -1    1    1    2    0  502  0.21528316673E+02 -0.20567472484E+02 -0.90519145996E+00  0.29787727586E+02  0.00000000000E+00 0. -1.
<mgrwt>
<rscale>  1 0.63854593E+03</rscale>
<asrwt>0</asrwt>
<pdfrwt beam="1">  1       21 0.18148495E-01 0.63854593E+03</pdfrwt>
<pdfrwt beam="2">0</pdfrwt>
<totfact> 0.27024458E+03</totfact>
</mgrwt>
</event>
<event>
 6    1  0.1386179E-004  0.6548647E+03  0.7818608E-02  0.9797693E-01
         21   -1    0    0  501  502  0.00000000000E+00  0.00000000000E+00  0.26315287966E+03  0.26315287966E+03  0.00000000000E+00 0.  1.
         13   -1    0    0    0    0 -0.00000000000E+00 -0.00000000000E+00 -0.10000000000E+04  0.10000000000E+04  0.00000000000E+00 0.  1.
    9000005    2    1    2  501    0  0.19668971233E+02 -0.82352650245E+02 -0.87994506801E+03  0.10968824672E+04  0.64936815190E+03 0.  0.
         13    1    3    3    0    0 -0.28083174868E+03 -0.18525464871E+03 -0.42545171152E+03  0.54239737718E+03  0.00000000000E+00 0.  1.
          3    1    3    3  501    0  0.30050071992E+03  0.10290199846E+03 -0.45449335649E+03  0.55448509002E+03  0.00000000000E+00 0.  1.
         -3    1    1    2    0  502 -0.19668971233E+02  0.82352650245E+02  0.14309794768E+03  0.16627041246E+03  0.00000000000E+00 0. -1.
<mgrwt>
<rscale>  1 0.65486474E+03</rscale>
<asrwt>0</asrwt>
<pdfrwt beam="1">  1       21 0.40485057E-01 0.65486474E+03</pdfrwt>
<pdfrwt beam="2">0</pdfrwt>
<totfact> 0.55056639E+02</totfact>
</mgrwt>
</event>
<event>
 6    1  0.1386179E-004  0.6626654E+03  0.7818608E-02  0.9783300E-01
         21   -1    0    0  501  502  0.00000000000E+00  0.00000000000E+00  0.17993121600E+03  0.17993121600E+03  0.00000000000E+00 0.  1.
         13   -1    0    0    0    0 -0.00000000000E+00 -0.00000000000E+00 -0.10000000000E+04  0.10000000000E+04  0.00000000000E+00 0.  1.
    9000005    2    1    2  501    0 -0.82892204808E+02  0.35445549337E+02 -0.85630669324E+03  0.10827679994E+04  0.65650429027E+03 0.  0.
         13    1    3    3    0    0 -0.48081723625E+02 -0.21808979390E+03 -0.78637372418E+03  0.81747088293E+03  0.00000000000E+00 0.  1.
          1    1    3    3  501    0 -0.34810481183E+02  0.25353534323E+03 -0.69932969057E+02  0.26529711651E+03  0.00000000000E+00 0.  1.
         -1    1    1    2    0  502  0.82892204808E+02 -0.35445549337E+02  0.36237909241E+02  0.97163216558E+02  0.00000000000E+00 0. -1.
<mgrwt>
<rscale>  1 0.66266537E+03</rscale>
<asrwt>0</asrwt>
<pdfrwt beam="1">  1       21 0.27681725E-01 0.66266537E+03</pdfrwt>
<pdfrwt beam="2">0</pdfrwt>
<totfact> 0.11903229E+03</totfact>
</mgrwt>
</event>
<event>
 6    1  0.1386179E-004  0.6704085E+03  0.7818608E-02  0.9769220E-01
         21   -1    0    0  501  502  0.00000000000E+00  0.00000000000E+00  0.24485062110E+03  0.24485062110E+03  0.00000000000E+00 0. -1.
         13   -1    0    0    0    0 -0.00000000000E+00 -0.00000000000E+00 -0.10000000000E+04  0.10000000000E+04  0.00000000000E+00 0.  1.
    9000005    2    1    2  501    0  0.91641834779E+02 -0.10356102967E+03 -0.84597254155E+03  0.10794058883E+04  0.65599117207E+03 0.  0.
         13    1    3    3    0    0 -0.25441078444E+03 -0.18524899434E+03 -0.40805028857E+03  0.51531259945E+03  0.00000000000E+00 0.  1.
          3    1    3    3  501    0  0.34605261922E+03  0.81687964673E+02 -0.43792225298E+03  0.56409328882E+03  0.00000000000E+00 0.  1.
         -1    1    1    2    0  502 -0.91641834779E+02  0.10356102967E+03  0.90823162644E+02  0.16544473283E+03  0.00000000000E+00 0. -1.
<mgrwt>
<rscale>  1 0.67040848E+03</rscale>
<asrwt>0</asrwt>
<pdfrwt beam="1">  1       21 0.37669325E-01 0.67040848E+03</pdfrwt>
<pdfrwt beam="2">0</pdfrwt>
<totfact> 0.63836984E+02</totfact>
</mgrwt>
</event>
<event>
 6    1  0.1386179E-004  0.6793034E+03  0.7818608E-02  0.9753296E-01
         21   -1    0    0  501  502  0.00000000000E+00  0.00000000000E+00  0.13703242742E+03  0.13703242742E+03  0.00000000000E+00 0.  1.
         13   -1    0    0    0    0 -0.00000000000E+00 -0.00000000000E+00 -0.10000000000E+04  0.10000000000E+04  0.00000000000E+00 0.  1.
    9000005    2    1    2  501    0 -0.48499425339E+02  0.30623355724E+02 -0.82292566336E+03  0.10670800245E+04  0.67687749792E+03 0.  0.
         13    1    3    3    0    0 -0.25868436104E+02  0.35367748624E+03 -0.45650544513E+03  0.57806069032E+03  0.00000000000E+00 0.  1.
          3    1    3    3  501    0 -0.22630989234E+02 -0.32305413052E+03 -0.36642021824E+03  0.48901933423E+03  0.00000000000E+00 0.  1.
         -3    1    1    2    0  502  0.48499425339E+02 -0.30623355724E+02 -0.40041909216E+02  0.69952402873E+02  0.00000000000E+00 0. -1.
<mgrwt>
<rscale>  1 0.67930342E+03</rscale>
<asrwt>0</asrwt>
<pdfrwt beam="1">  1       21 0.21081911E-01 0.67930342E+03</pdfrwt>
<pdfrwt beam="2">0</pdfrwt>
<totfact> 0.20256366E+03</totfact>
</mgrwt>
</event>
<event>
 6    1  0.1386179E-004  0.6858778E+03  0.7818608E-02  0.9741693E-01
         21   -1    0    0  501  502  0.00000000000E+00  0.00000000000E+00  0.15615616601E+03  0.15615616601E+03  0.00000000000E+00 0.  1.
         13   -1    0    0    0    0 -0.00000000000E+00 -0.00000000000E+00 -0.10000000000E+04  0.10000000000E+04  0.00000000000E+00 0.  1.
    9000005    2    1    2  501    0  0.19143557463E+02  0.11543633495E+02 -0.87873296888E+03  0.11147196724E+04  0.68551337422E+03 0.  0.
         13    1    3    3    0    0  0.15320069469E+02  0.10899328962E+03  0.89331884753E+02  0.14175481418E+03  0.00000000000E+00 0.  1.
          3    1    3    3  501    0  0.38234879941E+01 -0.97449656124E+02 -0.96806485364E+03  0.97296485825E+03  0.00000000000E+00 0.  1.
         -1    1    1    2    0  502 -0.19143557463E+02 -0.11543633495E+02  0.34889134893E+02  0.41436493580E+02  0.00000000000E+00 0. -1.
<mgrwt>
<rscale>  1 0.68587777E+03</rscale>
<asrwt>0</asrwt>
<pdfrwt beam="1">  1       21 0.24024025E-01 0.68587777E+03</pdfrwt>
<pdfrwt beam="2">0</pdfrwt>
<totfact> 0.15714067E+03</totfact>
</mgrwt>
</event>
<event>
 6    1  0.1386179E-004  0.5823544E+03  0.7818608E-02  0.9942707E-01
         21   -1    0    0  501  502  0.00000000000E+00  0.00000000000E+00  0.11323114375E+03  0.11323114375E+03  0.00000000000E+00 0.  1.
         13   -1    0    0    0    0 -0.00000000000E+00 -0.00000000000E+00 -0.10000000000E+04  0.10000000000E+04  0.00000000000E+00 0.  1.
    9000005    2    1    2  501    0 -0.63152888766E+02  0.64820493465E+02 -0.75950838728E+03  0.95707349682E+03  0.57527967480E+03 0.  0.
         13    1    3    3    0    0  0.16202716537E+03 -0.15188738929E+03 -0.13815120858E+03  0.26154987626E+03  0.00000000000E+00 0.  1.
          3    1    3    3  501    0 -0.22518005414E+03  0.21670788275E+03 -0.62135717870E+03  0.69552362055E+03  0.00000000000E+00 0.  1.
         -1    1    1    2    0  502  0.63152888766E+02 -0.64820493465E+02 -0.12726046897E+03  0.15615764693E+03  0.00000000000E+00 0. -1.
<mgrwt>
<rscale>  1 0.58235444E+03</rscale>
<asrwt>0</asrwt>
<pdfrwt beam="1">  1       21 0.17420175E-01 0.58235444E+03</pdfrwt>
<pdfrwt beam="2">0</pdfrwt>
<totfact> 0.29259908E+03</totfact>
</mgrwt>
</event>
<event>
 6    1  0.1386179E-004  0.6565633E+03  0.7818608E-02  0.9794541E-01
         21   -1    0    0  501  502  0.00000000000E+00  0.00000000000E+00  0.13521895147E+03  0.13521895147E+03  0.00000000000E+00 0.  1.
         13   -1    0    0    0    0 -0.00000000000E+00 -0.00000000000E+00 -0.10000000000E+04  0.10000000000E+04  0.00000000000E+00 0.  1.
    9000005    2    1    2  501    0 -0.79357365036E+01  0.24661373784E+02 -0.88528369397E+03  0.11021808259E+04  0.65605197577E+03 0.  0.
         13    1    3    3    0    0  0.23109456595E+03 -0.20950141783E+03 -0.52345479185E+03  0.60934428822E+03  0.00000000000E+00 0.  1.
          3    1    3    3  501    0 -0.23903030245E+03  0.23416279161E+03 -0.36182890212E+03  0.49283653768E+03  0.00000000000E+00 0.  1.
         -3    1    1    2    0  502  0.79357365036E+01 -0.24661373784E+02  0.20502645446E+02  0.33038125568E+02  0.00000000000E+00 0. -1.
<mgrwt>
<rscale>  1 0.65656329E+03</rscale>
<asrwt>0</asrwt>
<pdfrwt beam="1">  1       21 0.20802915E-01 0.65656329E+03</pdfrwt>
<pdfrwt beam="2">0</pdfrwt>
<totfact> 0.20802387E+03</totfact>
</mgrwt>
</event>
<event>
 6    1  0.1386179E-004  0.6542082E+03  0.7818608E-02  0.9798915E-01
         21   -1    0    0  501  502  0.00000000000E+00  0.00000000000E+00  0.23758397683E+03  0.23758397683E+03  0.00000000000E+00 0. -1.
         13   -1    0    0    0    0 -0.00000000000E+00 -0.00000000000E+00 -0.10000000000E+04  0.10000000000E+04  0.00000000000E+00 0.  1.
    9000005    2    1    2  501    0  0.29982058074E+02 -0.47381141533E+01 -0.89104708517E+03  0.11054199740E+04  0.65350366289E+03 0.  0.
         13    1    3    3    0    0  0.12907111465E+02 -0.30206170131E+03 -0.66834309486E+03  0.73354642482E+03  0.00000000000E+00 0.  1.
          1    1    3    3  501    0  0.17074946608E+02  0.29732358716E+03 -0.22270399031E+03  0.37187354918E+03  0.00000000000E+00 0.  1.
         -3    1    1    2    0  502 -0.29982058074E+02  0.47381141533E+01  0.12863106200E+03  0.13216400283E+03  0.00000000000E+00 0. -1.
<mgrwt>
<rscale>  1 0.65420823E+03</rscale>
<asrwt>0</asrwt>
<pdfrwt beam="1">  1       21 0.36551380E-01 0.65420823E+03</pdfrwt>
<pdfrwt beam="2">0</pdfrwt>
<totfact> 0.67996114E+02</totfact>
</mgrwt>
</event>
<event>
 6    1  0.1386179E-004  0.6559965E+03  0.7818608E-02  0.9795592E-01
         21   -1    0    0  501  502  0.00000000000E+00  0.00000000000E+00  0.17331727807E+03  0.17331727807E+03  0.00000000000E+00 0.  1.
         13   -1    0    0    0    0 -0.00000000000E+00 -0.00000000000E+00 -0.10000000000E+04  0.10000000000E+04  0.00000000000E+00 0.  1.
    9000005    2    1    2  501    0 -0.13889478727E+03  0.10065553959E+03 -0.59964759295E+03  0.88876807429E+03  0.63317308422E+03 0.  0.
         13    1    3    3    0    0 -0.29608510510E+03 -0.14085004952E+03 -0.16442400179E+03  0.36679746220E+03  0.00000000000E+00 0.  1.
          1    1    3    3  501    0  0.15719031783E+03  0.24150558911E+03 -0.43522359116E+03  0.52197061209E+03  0.00000000000E+00 0.  1.
         -3    1    1    2    0  502  0.13889478727E+03 -0.10065553959E+03 -0.22703512898E+03  0.28454920378E+03  0.00000000000E+00 0. -1.
<mgrwt>
<rscale>  1 0.65599654E+03</rscale>
<asrwt>0</asrwt>
<pdfrwt beam="1">  1       21 0.26664196E-01 0.65599654E+03</pdfrwt>
<pdfrwt beam="2">0</pdfrwt>
<totfact> 0.12823838E+03</totfact>
</mgrwt>
</event>
<event>
 6    1  0.1386179E-004  0.6427480E+03  0.7818608E-02  0.9820483E-01
         21   -1    0    0  501  502  0.00000000000E+00  0.00000000000E+00  0.19621350045E+03  0.19621350045E+03  0.00000000000E+00 0.  1.
         13   -1    0    0    0    0 -0.00000000000E+00 -0.00000000000E+00 -0.10000000000E+04  0.10000000000E+04  0.00000000000E+00 0.  1.
    9000005    2    1    2  501    0 -0.67208328930E+00 -0.46477265885E+02 -0.89026040058E+03  0.10980385367E+04  0.64106509763E+03 0.  0.
         13    1    3    3    0    0  0.40989119053E+02 -0.12573775756E+03  0.58821940568E+02  0.14474153602E+03  0.00000000000E+00 0.  1.
          3    1    3    3  501    0 -0.41661202342E+02  0.79260491671E+02 -0.94908234115E+03  0.95329700073E+03  0.00000000000E+00 0.  1.
         -3    1    1    2    0  502  0.67208328930E+00  0.46477265885E+02  0.86473901031E+02  0.98174963711E+02  0.00000000000E+00 0. -1.
<mgrwt>
<rscale>  1 0.64274804E+03</rscale>
<asrwt>0</asrwt>
<pdfrwt beam="1">  1       21 0.30186692E-01 0.64274804E+03</pdfrwt>
<pdfrwt beam="2">0</pdfrwt>
<totfact> 0.10027278E+03</totfact>
</mgrwt>
</event>
<event>
 6    1  0.1386179E-004  0.6592897E+03  0.7818608E-02  0.9789502E-01
         21   -1    0    0  501  502  0.00000000000E+00  0.00000000000E+00  0.77723423172E+03  0.77723423172E+03  0.00000000000E+00 0. -1.
         13   -1    0    0    0    0 -0.00000000000E+00 -0.00000000000E+00 -0.10000000000E+04  0.10000000000E+04  0.00000000000E+00 0.  1.
    9000005    2    1    2  501    0  0.23091393748E+02  0.16831189426E+02 -0.89099574534E+03  0.11083935903E+04  0.65867019921E+03 0.  0.
         13    1    3    3    0    0  0.38934421650E+01  0.33753755012E+03 -0.43604136864E+03  0.55143343369E+03  0.00000000000E+00 0.  1.
          1    1    3    3  501    0  0.19197951583E+02 -0.32070636069E+03 -0.45495437671E+03  0.55696015658E+03  0.00000000000E+00 0.  1.
         -1    1    1    2    0  502 -0.23091393748E+02 -0.16831189426E+02  0.66822997706E+03  0.66884064144E+03  0.00000000000E+00 0. -1.
<mgrwt>
<rscale>  1 0.65928972E+03</rscale>
<asrwt>0</asrwt>
<pdfrwt beam="1">  1       21 0.11957449E+00 0.65928972E+03</pdfrwt>
<pdfrwt beam="2">0</pdfrwt>
<totfact> 0.46275528E+01</totfact>
</mgrwt>
</event>
<event>
 6    1  0.1386179E-004  0.6254628E+03  0.7818608E-02  0.9853943E-01
         21   -1    0    0  501  502  0.00000000000E+00  0.00000000000E+00  0.13141842768E+03  0.13141842768E+03  0.00000000000E+00 0.  1.
         13   -1    0    0    0    0 -0.00000000000E+00 -0.00000000000E+00 -0.10000000000E+04  0.10000000000E+04  0.00000000000E+00 0.  1.
    9000005    2    1    2  501    0  0.50283707218E+02  0.14277542494E+02 -0.87830519654E+03  0.10782503141E+04  0.62327475659E+03 0.  0.
         13    1    3    3    0    0 -0.10361404458E+03  0.28830152986E+03 -0.50045793208E+03  0.58678086552E+03  0.00000000000E+00 0.  1.
          3    1    3    3  501    0  0.15389775179E+03 -0.27402398736E+03 -0.37784726445E+03  0.49146944860E+03  0.00000000000E+00 0.  1.
         -3    1    1    2    0  502 -0.50283707218E+02 -0.14277542494E+02  0.97236242123E+01  0.53168113555E+02  0.00000000000E+00 0. -1.
<mgrwt>
<rscale>  1 0.62546281E+03</rscale>
<asrwt>0</asrwt>
<pdfrwt beam="1">  1       21 0.20218219E-01 0.62546281E+03</pdfrwt>
<pdfrwt beam="2">0</pdfrwt>
<totfact> 0.22001993E+03</totfact>
</mgrwt>
</event>
<event>
 6    1  0.1386179E-004  0.6834786E+03  0.7818608E-02  0.9745911E-01
         21   -1    0    0  501  502  0.00000000000E+00  0.00000000000E+00  0.19865248649E+03  0.19865248649E+03  0.00000000000E+00 0.  1.
         13   -1    0    0    0    0 -0.00000000000E+00 -0.00000000000E+00 -0.10000000000E+04  0.10000000000E+04  0.00000000000E+00 0.  1.
    9000005    2    1    2  501    0 -0.30136242489E+02 -0.58537207099E+01 -0.87998579357E+03  0.11142342524E+04  0.68278877640E+03 0.  0.
         13    1    3    3    0    0  0.20388568423E+03  0.25848508191E+03 -0.45787498137E+03  0.56394450824E+03  0.00000000000E+00 0.  1.
          1    1    3    3  501    0 -0.23402192672E+03 -0.26433880262E+03 -0.42211081220E+03  0.55028974416E+03  0.00000000000E+00 0.  1.
         -3    1    1    2    0  502  0.30136242489E+02  0.58537207099E+01  0.78638280055E+02  0.84418234094E+02  0.00000000000E+00 0. -1.
<mgrwt>
<rscale>  1 0.68347858E+03</rscale>
<asrwt>0</asrwt>
<pdfrwt beam="1">  1       21 0.30561920E-01 0.68347858E+03</pdfrwt>
<pdfrwt beam="2">0</pdfrwt>
<totfact> 0.97570186E+02</totfact>
</mgrwt>
</event>
<event>
 6    1  0.1386179E-004  0.6418718E+03  0.7818608E-02  0.9822152E-01
         21   -1    0    0  501  502  0.00000000000E+00  0.00000000000E+00  0.16979578070E+03  0.16979578070E+03  0.00000000000E+00 0.  1.
         13   -1    0    0    0    0 -0.00000000000E+00 -0.00000000000E+00 -0.10000000000E+04  0.10000000000E+04  0.00000000000E+00 0.  1.
    9000005    2    1    2  501    0  0.33383601919E+02 -0.24440832113E+02 -0.88985727976E+03  0.10971989022E+04  0.64053698831E+03 0.  0.
         13    1    3    3    0    0  0.24381104396E+03  0.91460996209E+02 -0.79898924977E+03  0.84035275940E+03  0.00000000000E+00 0.  1.
          3    1    3    3  501    0 -0.21042744204E+03 -0.11590182832E+03 -0.90868029996E+02  0.25684614276E+03  0.00000000000E+00 0.  1.
         -1    1    1    2    0  502 -0.33383601919E+02  0.24440832113E+02  0.59653060465E+02  0.72596878544E+02  0.00000000000E+00 0. -1.
<mgrwt>
<rscale>  1 0.64187183E+03</rscale>
<asrwt>0</asrwt>
<pdfrwt beam="1">  1       21 0.26122427E-01 0.64187183E+03</pdfrwt>
<pdfrwt beam="2">0</pdfrwt>
<totfact> 0.13363881E+03</totfact>
</mgrwt>
</event>
<event>
 6    1  0.1386179E-004  0.6620647E+03  0.7818608E-02  0.9784400E-01
         21   -1    0    0  501  502  0.00000000000E+00  0.00000000000E+00  0.16381728597E+03  0.16381728597E+03  0.00000000000E+00 0.  1.
         13   -1    0    0    0    0 -0.00000000000E+00 -0.00000000000E+00 -0.10000000000E+04  0.10000000000E+04  0.00000000000E+00 0.  1.
    9000005    2    1    2  501    0  0.11476044077E+03 -0.70743238042E+02 -0.76379941826E+03  0.10108012541E+04  0.64819368980E+03 0.  0.
         13    1    3    3    0    0  0.22679544001E+03 -0.15893802823E+03 -0.81385642871E+03  0.85968584668E+03  0.00000000000E+00 0.  1.
          1    1    3    3  501    0 -0.11203499924E+03  0.88194790189E+02  0.50057010451E+02  0.15111540744E+03  0.00000000000E+00 0.  1.
         -1    1    1    2    0  502 -0.11476044077E+03  0.70743238042E+02 -0.72383295777E+02  0.15301603185E+03  0.00000000000E+00 0. -1.
<mgrwt>
<rscale>  1 0.66206467E+03</rscale>
<asrwt>0</asrwt>
<pdfrwt beam="1">  1       21 0.25202659E-01 0.66206467E+03</pdfrwt>
<pdfrwt beam="2">0</pdfrwt>
<totfact> 0.14323986E+03</totfact>
</mgrwt>
</event>
<event>
 6    1  0.1386179E-004  0.6618231E+03  0.7818608E-02  0.9784843E-01
         21   -1    0    0  501  502  0.00000000000E+00  0.00000000000E+00  0.12549790870E+03  0.12549790870E+03  0.00000000000E+00 0.  1.
         13   -1    0    0    0    0 -0.00000000000E+00 -0.00000000000E+00 -0.10000000000E+04  0.10000000000E+04  0.00000000000E+00 0.  1.
    9000005    2    1    2  501    0 -0.17746809839E+02 -0.43017509347E+02 -0.82274329661E+03  0.10558959820E+04  0.66018507810E+03 0.  0.
         13    1    3    3    0    0  0.12214741785E+03  0.54785153620E+02  0.67158347714E+02  0.14977198808E+03  0.00000000000E+00 0.  1.
          1    1    3    3  501    0 -0.13989422769E+03 -0.97802662968E+02 -0.88990164432E+03  0.90612399394E+03  0.00000000000E+00 0.  1.
         -1    1    1    2    0  502  0.17746809839E+02  0.43017509347E+02 -0.51758794695E+02  0.69601926684E+02  0.00000000000E+00 0. -1.
<mgrwt>
<rscale>  1 0.66182308E+03</rscale>
<asrwt>0</asrwt>
<pdfrwt beam="1">  1       21 0.19307370E-01 0.66182308E+03</pdfrwt>
<pdfrwt beam="2">0</pdfrwt>
<totfact> 0.23998635E+03</totfact>
</mgrwt>
</event>
<event>
 6    1  0.1386179E-004  0.6416301E+03  0.7818608E-02  0.9822613E-01
         21   -1    0    0  501  502  0.00000000000E+00  0.00000000000E+00  0.21714508825E+03  0.21714508825E+03  0.00000000000E+00 0. -1.
         13   -1    0    0    0    0 -0.00000000000E+00 -0.00000000000E+00 -0.10000000000E+04  0.10000000000E+04  0.00000000000E+00 0.  1.
    9000005    2    1    2  501    0 -0.21501610567E+02 -0.28552312492E+02 -0.89398509751E+03  0.11004083246E+04  0.64063372720E+03 0.  0.
         13    1    3    3    0    0  0.13285854577E+03 -0.27948407600E+03 -0.64218171099E+03  0.71285348555E+03  0.00000000000E+00 0.  1.
          3    1    3    3  501    0 -0.15436015633E+03  0.25093176350E+03 -0.25180338651E+03  0.38755483903E+03  0.00000000000E+00 0.  1.
         -1    1    1    2    0  502  0.21501610567E+02  0.28552312492E+02  0.11113018576E+03  0.11673676367E+03  0.00000000000E+00 0. -1.
<mgrwt>
<rscale>  1 0.64163005E+03</rscale>
<asrwt>0</asrwt>
<pdfrwt beam="1">  1       21 0.33406936E-01 0.64163005E+03</pdfrwt>
<pdfrwt beam="2">0</pdfrwt>
<totfact> 0.81756324E+02</totfact>
</mgrwt>
</event>
<event>
 6    1  0.1386179E-004  0.6797180E+03  0.7818608E-02  0.9752560E-01
         21   -1    0    0  501  502  0.00000000000E+00  0.00000000000E+00  0.40728116144E+03  0.40728116144E+03  0.00000000000E+00 0. -1.
         13   -1    0    0    0    0 -0.00000000000E+00 -0.00000000000E+00 -0.10000000000E+04  0.10000000000E+04  0.00000000000E+00 0.  1.
    9000005    2    1    2  501    0  0.12678039247E+02 -0.17461119709E+03 -0.85479790358E+03  0.10921062272E+04  0.65678516487E+03 0.  0.
         13    1    3    3    0    0  0.30117141427E+03  0.48980014991E+02 -0.29921795490E+03  0.42735775080E+03  0.00000000000E+00 0.  1.
          3    1    3    3  501    0 -0.28849337502E+03 -0.22359121208E+03 -0.55557994868E+03  0.66474847644E+03  0.00000000000E+00 0.  1.
         -3    1    1    2    0  502 -0.12678039247E+02  0.17461119709E+03  0.26207906501E+03  0.31517493420E+03  0.00000000000E+00 0. -1.
<mgrwt>
<rscale>  1 0.67971800E+03</rscale>
<asrwt>0</asrwt>
<pdfrwt beam="1">  1       21 0.62658638E-01 0.67971800E+03</pdfrwt>
<pdfrwt beam="2">0</pdfrwt>
<totfact> 0.21478783E+02</totfact>
</mgrwt>
</event>
<event>
 6    1  0.1386179E-004  0.6572597E+03  0.7818608E-02  0.9793251E-01
         21   -1    0    0  501  502  0.00000000000E+00  0.00000000000E+00  0.18368188630E+03  0.18368188630E+03  0.00000000000E+00 0. -1.
         13   -1    0    0    0    0 -0.00000000000E+00 -0.00000000000E+00 -0.10000000000E+04  0.10000000000E+04  0.00000000000E+00 0.  1.
    9000005    2    1    2  501    0  0.23838726714E+02  0.93244582092E+01 -0.88959635467E+03  0.11060614572E+04  0.65676102387E+03 0.  0.
         13    1    3    3    0    0  0.16142605872E+03  0.31752994467E+01 -0.94420168278E+03  0.95790671399E+03  0.00000000000E+00 0.  1.
          3    1    3    3  501    0 -0.13758733200E+03  0.61491587625E+01  0.54605328107E+02  0.14815474322E+03  0.00000000000E+00 0.  1.
         -1    1    1    2    0  502 -0.23838726714E+02 -0.93244582092E+01  0.73278240973E+02  0.77620429091E+02  0.00000000000E+00 0. -1.
<mgrwt>
<rscale>  1 0.65725967E+03</rscale>
<asrwt>0</asrwt>
<pdfrwt beam="1">  1       21 0.28258751E-01 0.65725967E+03</pdfrwt>
<pdfrwt beam="2">0</pdfrwt>
<totfact> 0.11428809E+03</totfact>
</mgrwt>
</event>
<event>
 6    1  0.1386179E-004  0.6523449E+03  0.7818608E-02  0.9802389E-01
         21   -1    0    0  501  502  0.00000000000E+00  0.00000000000E+00  0.11373836237E+03  0.11373836237E+03  0.00000000000E+00 0.  1.
         13   -1    0    0    0    0 -0.00000000000E+00 -0.00000000000E+00 -0.10000000000E+04  0.10000000000E+04  0.00000000000E+00 0.  1.
    9000005    2    1    2  501    0  0.39348886455E+01 -0.20827394824E+02 -0.86767347619E+03  0.10855464580E+04  0.65200045059E+03 0.  0.
         13    1    3    3    0    0 -0.10241558709E+03 -0.27499967969E+03 -0.17883987736E+03  0.34365313623E+03  0.00000000000E+00 0.  1.
          1    1    3    3  501    0  0.10635047573E+03  0.25417228486E+03 -0.68883359883E+03  0.74189332182E+03  0.00000000000E+00 0.  1.
         -3    1    1    2    0  502 -0.39348886455E+01  0.20827394824E+02 -0.18588161437E+02  0.28191904324E+02  0.00000000000E+00 0. -1.
<mgrwt>
<rscale>  1 0.65234489E+03</rscale>
<asrwt>0</asrwt>
<pdfrwt beam="1">  1       21 0.17498209E-01 0.65234489E+03</pdfrwt>
<pdfrwt beam="2">0</pdfrwt>
<totfact> 0.28946725E+03</totfact>
</mgrwt>
</event>
<event>
 6    1  0.1386179E-004  0.6706694E+03  0.7818608E-02  0.9768749E-01
         21   -1    0    0  501  502  0.00000000000E+00  0.00000000000E+00  0.26278611539E+03  0.26278611539E+03  0.00000000000E+00 0.  1.
         13   -1    0    0    0    0 -0.00000000000E+00 -0.00000000000E+00 -0.10000000000E+04  0.10000000000E+04  0.00000000000E+00 0.  1.
    9000005    2    1    2  501    0 -0.11464472395E+03  0.64506083392E+02 -0.85469490600E+03  0.10864165094E+04  0.65764200143E+03 0.  0.
         13    1    3    3    0    0  0.63737347415E+01 -0.70663176501E+02  0.95547418253E+02  0.11900931956E+03  0.00000000000E+00 0.  1.
          1    1    3    3  501    0 -0.12101845870E+03  0.13516925989E+03 -0.95024232426E+03  0.96740718985E+03  0.00000000000E+00 0.  1.
         -3    1    1    2    0  502  0.11464472395E+03 -0.64506083392E+02  0.11748102139E+03  0.17636960598E+03  0.00000000000E+00 0. -1.
<mgrwt>
<rscale>  1 0.67066940E+03</rscale>
<asrwt>0</asrwt>
<pdfrwt beam="1">  1       21 0.40428632E-01 0.67066940E+03</pdfrwt>
<pdfrwt beam="2">0</pdfrwt>
<totfact> 0.55146805E+02</totfact>
</mgrwt>
</event>
<event>
 6    1  0.1386179E-004  0.6562711E+03  0.7818608E-02  0.9795083E-01
         21   -1    0    0  501  502  0.00000000000E+00  0.00000000000E+00  0.17176679180E+03  0.17176679180E+03  0.00000000000E+00 0.  1.
         13   -1    0    0    0    0 -0.00000000000E+00 -0.00000000000E+00 -0.10000000000E+04  0.10000000000E+04  0.00000000000E+00 0.  1.
    9000005    2    1    2  501    0 -0.22713302764E+01 -0.34911532248E+02 -0.88699303549E+03  0.11033804530E+04  0.65533793202E+03 0.  0.
         13    1    3    3    0    0  0.64019030692E+02  0.11386941159E+03  0.59092883057E+02  0.14337589761E+03  0.00000000000E+00 0.  1.
          1    1    3    3  501    0 -0.66290360969E+02 -0.14878094384E+03 -0.94608591854E+03  0.96000455544E+03  0.00000000000E+00 0.  1.
         -1    1    1    2    0  502  0.22713302764E+01  0.34911532248E+02  0.58759827288E+02  0.68386338753E+02  0.00000000000E+00 0. -1.
<mgrwt>
<rscale>  1 0.65627112E+03</rscale>
<asrwt>0</asrwt>
<pdfrwt beam="1">  1       21 0.26425660E-01 0.65627112E+03</pdfrwt>
<pdfrwt beam="2">0</pdfrwt>
<totfact> 0.13053038E+03</totfact>
</mgrwt>
</event>
<event>
 6    1  0.1386179E-004  0.5963478E+03  0.7818608E-02  0.9913012E-01
         21   -1    0    0  501  502  0.00000000000E+00  0.00000000000E+00  0.10308807523E+03  0.10308807523E+03  0.00000000000E+00 0.  1.
         13   -1    0    0    0    0 -0.00000000000E+00 -0.00000000000E+00 -0.10000000000E+04  0.10000000000E+04  0.00000000000E+00 0.  1.
    9000005    2    1    2  501    0 -0.56376283419E+01  0.20832565973E+02 -0.90162384631E+03  0.10809977863E+04  0.59595710852E+03 0.  0.
         13    1    3    3    0    0 -0.26704969251E+03  0.87730050308E+02 -0.25181102880E+03  0.37738692905E+03  0.00000000000E+00 0.  1.
          3    1    3    3  501    0  0.26141206417E+03 -0.66897484335E+02 -0.64981281751E+03  0.70361085730E+03  0.00000000000E+00 0.  1.
         -3    1    1    2    0  502  0.56376283419E+01 -0.20832565973E+02  0.47119215400E+01  0.22090288883E+02  0.00000000000E+00 0. -1.
<mgrwt>
<rscale>  1 0.59634776E+03</rscale>
<asrwt>0</asrwt>
<pdfrwt beam="1">  1       21 0.15859703E-01 0.59634776E+03</pdfrwt>
<pdfrwt beam="2">0</pdfrwt>
<totfact> 0.34894153E+03</totfact>
</mgrwt>
</event>
<event>
 6    1  0.1386179E-004  0.6485746E+03  0.7818608E-02  0.9809458E-01
         21   -1    0    0  501  502  0.00000000000E+00  0.00000000000E+00  0.13359217556E+03  0.13359217556E+03  0.00000000000E+00 0.  1.
         13   -1    0    0    0    0 -0.00000000000E+00 -0.00000000000E+00 -0.10000000000E+04  0.10000000000E+04  0.00000000000E+00 0.  1.
    9000005    2    1    2  501    0 -0.15629932223E+02 -0.32126933411E+02 -0.88184816209E+03  0.10946712473E+04  0.64758978064E+03 0.  0.
         13    1    3    3    0    0  0.20294561418E+03 -0.32879647976E+02 -0.21177992350E+02  0.20667970613E+03  0.00000000000E+00 0.  1.
          3    1    3    3  501    0 -0.21857554640E+03  0.75271456529E+00 -0.86067016974E+03  0.88799154115E+03  0.00000000000E+00 0.  1.
         -3    1    1    2    0  502  0.15629932223E+02  0.32126933411E+02  0.15440337649E+02  0.38920928283E+02  0.00000000000E+00 0. -1.
<mgrwt>
<rscale>  1 0.64857456E+03</rscale>
<asrwt>0</asrwt>
<pdfrwt beam="1">  1       21 0.20552642E-01 0.64857456E+03</pdfrwt>
<pdfrwt beam="2">0</pdfrwt>
<totfact> 0.21299422E+03</totfact>
</mgrwt>
</event>
<event>
 6    1  0.1386179E-004  0.6612799E+03  0.7818608E-02  0.9785841E-01
         21   -1    0    0  501  502  0.00000000000E+00  0.00000000000E+00  0.14115542824E+03  0.14115542824E+03  0.00000000000E+00 0.  1.
         13   -1    0    0    0    0 -0.00000000000E+00 -0.00000000000E+00 -0.10000000000E+04  0.10000000000E+04  0.00000000000E+00 0.  1.
    9000005    2    1    2  501    0 -0.48814899258E+02  0.75728617132E+02 -0.75940281601E+03  0.10069675725E+04  0.65511322477E+03 0.  0.
         13    1    3    3    0    0  0.18417966226E+03 -0.20407357084E+03 -0.20181270103E+03  0.34102278018E+03  0.00000000000E+00 0.  1.
          3    1    3    3  501    0 -0.23299456152E+03  0.27980218797E+03 -0.55759011498E+03  0.66594479232E+03  0.00000000000E+00 0.  1.
         -3    1    1    2    0  502  0.48814899258E+02 -0.75728617132E+02 -0.99441755749E+02  0.13418785574E+03  0.00000000000E+00 0. -1.
<mgrwt>
<rscale>  1 0.66127986E+03</rscale>
<asrwt>0</asrwt>
<pdfrwt beam="1">  1       21 0.21716219E-01 0.66127986E+03</pdfrwt>
<pdfrwt beam="2">0</pdfrwt>
<totfact> 0.19143747E+03</totfact>
</mgrwt>
</event>
<event>
 6    1  0.1386179E-004  0.6499195E+03  0.7818608E-02  0.9806930E-01
         21   -1    0    0  501  502  0.00000000000E+00  0.00000000000E+00  0.12475557389E+03  0.12475557389E+03  0.00000000000E+00 0.  1.
         13   -1    0    0    0    0 -0.00000000000E+00 -0.00000000000E+00 -0.10000000000E+04  0.10000000000E+04  0.00000000000E+00 0.  1.
    9000005    2    1    2  501    0  0.20001727380E+02  0.98161526384E+01 -0.88695586767E+03  0.10995844830E+04  0.64953744943E+03 0.  0.
         13    1    3    3    0    0 -0.18524070394E+03 -0.25310923132E+03 -0.37975181462E+03  0.49253410246E+03  0.00000000000E+00 0.  1.
          1    1    3    3  501    0  0.20524243132E+03  0.26292538396E+03 -0.50720405305E+03  0.60705038059E+03  0.00000000000E+00 0.  1.
         -3    1    1    2    0  502 -0.20001727380E+02 -0.98161526384E+01  0.11711441569E+02  0.25171090847E+02  0.00000000000E+00 0. -1.
<mgrwt>
<rscale>  1 0.64991948E+03</rscale>
<asrwt>0</asrwt>
<pdfrwt beam="1">  1       21 0.19193165E-01 0.64991948E+03</pdfrwt>
<pdfrwt beam="2">0</pdfrwt>
<totfact> 0.24282887E+03</totfact>
</mgrwt>
</event>
<event>
 6    1  0.1386179E-004  0.6567163E+03  0.7818608E-02  0.9794257E-01
         21   -1    0    0  501  502  0.00000000000E+00  0.00000000000E+00  0.15205219123E+03  0.15205219123E+03  0.00000000000E+00 0. -1.
         13   -1    0    0    0    0 -0.00000000000E+00 -0.00000000000E+00 -0.10000000000E+04  0.10000000000E+04  0.00000000000E+00 0.  1.
    9000005    2    1    2  501    0 -0.53140208991E+02  0.30461280315E+02 -0.86724064343E+03  0.10878339315E+04  0.65385362090E+03 0.  0.
         13    1    3    3    0    0 -0.15182630590E+03  0.11097078248E+03 -0.92790033293E+03  0.94676542479E+03  0.00000000000E+00 0.  1.
          3    1    3    3  501    0  0.98686096914E+02 -0.80509502163E+02  0.60659689502E+02  0.14106850674E+03  0.00000000000E+00 0.  1.
         -1    1    1    2    0  502  0.53140208991E+02 -0.30461280315E+02  0.19292834658E+02  0.64218259703E+02  0.00000000000E+00 0. -1.
<mgrwt>
<rscale>  1 0.65671632E+03</rscale>
<asrwt>0</asrwt>
<pdfrwt beam="1">  1       21 0.23392644E-01 0.65671632E+03</pdfrwt>
<pdfrwt beam="2">0</pdfrwt>
<totfact> 0.16575013E+03</totfact>
</mgrwt>
</event>
<event>
 6    1  0.1386179E-004  0.6606397E+03  0.7818608E-02  0.9787017E-01
         21   -1    0    0  501  502  0.00000000000E+00  0.00000000000E+00  0.16348292019E+03  0.16348292019E+03  0.00000000000E+00 0.  1.
         13   -1    0    0    0    0 -0.00000000000E+00 -0.00000000000E+00 -0.10000000000E+04  0.10000000000E+04  0.00000000000E+00 0.  1.
    9000005    2    1    2  501    0 -0.12247042385E+03  0.53556131628E+02 -0.76874860235E+03  0.10136168784E+04  0.64697565530E+03 0.  0.
         13    1    3    3    0    0  0.26395493580E+03  0.68007114198E+02 -0.28599303628E+03  0.39508124799E+03  0.00000000000E+00 0.  1.
          1    1    3    3  501    0 -0.38642535965E+03 -0.14450982570E+02 -0.48275556607E+03  0.61853563038E+03  0.00000000000E+00 0.  1.
         -1    1    1    2    0  502  0.12247042385E+03 -0.53556131628E+02 -0.67768477462E+02  0.14986604182E+03  0.00000000000E+00 0. -1.
<mgrwt>
<rscale>  1 0.66063966E+03</rscale>
<asrwt>0</asrwt>
<pdfrwt beam="1">  1       21 0.25151218E-01 0.66063966E+03</pdfrwt>
<pdfrwt beam="2">0</pdfrwt>
<totfact> 0.14382589E+03</totfact>
</mgrwt>
</event>
<event>
 6    1  0.1386179E-004  0.6561909E+03  0.7818608E-02  0.9795231E-01
         21   -1    0    0  501  502  0.00000000000E+00  0.00000000000E+00  0.13658805742E+03  0.13658805742E+03  0.00000000000E+00 0.  1.
         13   -1    0    0    0    0 -0.00000000000E+00 -0.00000000000E+00 -0.10000000000E+04  0.10000000000E+04  0.00000000000E+00 0.  1.
    9000005    2    1    2  501    0 -0.44393734868E+02 -0.48681167087E+02 -0.84161226339E+03  0.10671914744E+04  0.65287501207E+03 0.  0.
         13    1    3    3    0    0  0.29402765635E+02  0.24523277360E+03 -0.10074723405E+03  0.26674639837E+03  0.00000000000E+00 0.  1.
          3    1    3    3  501    0 -0.73796500502E+02 -0.29391394069E+03 -0.74086502933E+03  0.80044507601E+03  0.00000000000E+00 0.  1.
         -3    1    1    2    0  502  0.44393734868E+02  0.48681167087E+02 -0.21799679193E+02  0.69396583038E+02  0.00000000000E+00 0. -1.
<mgrwt>
<rscale>  1 0.65619086E+03</rscale>
<asrwt>0</asrwt>
<pdfrwt beam="1">  1       21 0.21013547E-01 0.65619086E+03</pdfrwt>
<pdfrwt beam="2">0</pdfrwt>
<totfact> 0.20402952E+03</totfact>
</mgrwt>
</event>
<event>
 6    1  0.1386179E-004  0.5022411E+03  0.7818608E-02  0.1013196E+00
         21   -1    0    0  501  502  0.00000000000E+00  0.00000000000E+00  0.82376348600E+02  0.82376348600E+02  0.00000000000E+00 0.  1.
         13   -1    0    0    0    0 -0.00000000000E+00 -0.00000000000E+00 -0.10000000000E+04  0.10000000000E+04  0.00000000000E+00 0.  1.
    9000005    2    1    2  501    0 -0.73596443894E+01  0.35527764878E+02 -0.91764218880E+03  0.10460943036E+04  0.50092885622E+03 0.  0.
         13    1    3    3    0    0 -0.12721166109E+03 -0.19390479675E+03 -0.54580789017E+03  0.59303299225E+03  0.00000000000E+00 0.  1.
          1    1    3    3  501    0  0.11985201670E+03  0.22943256163E+03 -0.37183429863E+03  0.45306131139E+03  0.00000000000E+00 0.  1.
         -1    1    1    2    0  502  0.73596443894E+01 -0.35527764878E+02  0.18537403925E-01  0.36282044959E+02  0.00000000000E+00 0. -1.
<mgrwt>
<rscale>  1 0.50224108E+03</rscale>
<asrwt>0</asrwt>
<pdfrwt beam="1">  1       21 0.12673284E-01 0.50224108E+03</pdfrwt>
<pdfrwt beam="2">0</pdfrwt>
<totfact> 0.52997358E+03</totfact>
</mgrwt>
</event>
<event>
 6    1  0.1386179E-004  0.6890625E+03  0.7818608E-02  0.9736122E-01
         21   -1    0    0  501  502  0.00000000000E+00  0.00000000000E+00  0.19380206374E+03  0.19380206374E+03  0.00000000000E+00 0.  1.
         13   -1    0    0    0    0 -0.00000000000E+00 -0.00000000000E+00 -0.10000000000E+04  0.10000000000E+04  0.00000000000E+00 0.  1.
    9000005    2    1    2  501    0 -0.50732282818E+02  0.16467881676E+03 -0.73462000467E+03  0.10072108595E+04  0.66716885945E+03 0.  0.
         13    1    3    3    0    0  0.27175675367E+03 -0.35995882740E+02 -0.15702481724E+03  0.31591807477E+03  0.00000000000E+00 0.  1.
          1    1    3    3  501    0 -0.32248903648E+03  0.20067469950E+03 -0.57759518743E+03  0.69129278472E+03  0.00000000000E+00 0.  1.
         -1    1    1    2    0  502  0.50732282818E+02 -0.16467881676E+03 -0.71577931594E+02  0.18659120424E+03  0.00000000000E+00 0. -1.
<mgrwt>
<rscale>  1 0.68906253E+03</rscale>
<asrwt>0</asrwt>
<pdfrwt beam="1">  1       21 0.29815701E-01 0.68906253E+03</pdfrwt>
<pdfrwt beam="2">0</pdfrwt>
<totfact> 0.10249475E+03</totfact>
</mgrwt>
</event>
<event>
 6    1  0.1386179E-004  0.6758916E+03  0.7818608E-02  0.9759373E-01
         21   -1    0    0  501  502  0.00000000000E+00  0.00000000000E+00  0.13256081556E+03  0.13256081556E+03  0.00000000000E+00 0.  1.
         13   -1    0    0    0    0 -0.00000000000E+00 -0.00000000000E+00 -0.10000000000E+04  0.10000000000E+04  0.00000000000E+00 0.  1.
    9000005    2    1    2  501    0  0.29082108475E+02 -0.29700748578E+01 -0.87168039105E+03  0.11030213807E+04  0.67525911455E+03 0.  0.
         13    1    3    3    0    0 -0.21400502525E+03 -0.14781100478E+03 -0.95832769627E+02  0.27718254581E+03  0.00000000000E+00 0.  1.
          3    1    3    3  501    0  0.24308713372E+03  0.14484092992E+03 -0.77584762142E+03  0.82583883490E+03  0.00000000000E+00 0.  1.
         -3    1    1    2    0  502 -0.29082108475E+02  0.29700748578E+01  0.42412066041E+01  0.29539434854E+02  0.00000000000E+00 0. -1.
<mgrwt>
<rscale>  1 0.67589161E+03</rscale>
<asrwt>0</asrwt>
<pdfrwt beam="1">  1       21 0.20393971E-01 0.67589161E+03</pdfrwt>
<pdfrwt beam="2">0</pdfrwt>
<totfact> 0.21595659E+03</totfact>
</mgrwt>
</event>
<event>
 6    1  0.1386179E-004  0.6505024E+03  0.7818608E-02  0.9805837E-01
         21   -1    0    0  501  502  0.00000000000E+00  0.00000000000E+00  0.13542585437E+03  0.13542585437E+03  0.00000000000E+00 0.  1.
         13   -1    0    0    0    0 -0.00000000000E+00 -0.00000000000E+00 -0.10000000000E+04  0.10000000000E+04  0.00000000000E+00 0.  1.
    9000005    2    1    2  501    0  0.29101738096E+02  0.53957240297E+02 -0.85349218258E+03  0.10731273404E+04  0.64760720194E+03 0.  0.
         13    1    3    3    0    0 -0.10801097226E+03  0.23246251191E+03 -0.80235391494E+03  0.84230457341E+03  0.00000000000E+00 0.  1.
          3    1    3    3  501    0  0.13711271035E+03 -0.17850527161E+03 -0.51138267640E+02  0.23082276697E+03  0.00000000000E+00 0.  1.
         -1    1    1    2    0  502 -0.29101738096E+02 -0.53957240297E+02 -0.11081963054E+02  0.62298513994E+02  0.00000000000E+00 0. -1.
<mgrwt>
<rscale>  1 0.65050241E+03</rscale>
<asrwt>0</asrwt>
<pdfrwt beam="1">  1       21 0.20834746E-01 0.65050241E+03</pdfrwt>
<pdfrwt beam="2">0</pdfrwt>
<totfact> 0.20746436E+03</totfact>
</mgrwt>
</event>
<event>
 6    1  0.1386179E-004  0.6524340E+03  0.7818608E-02  0.9802223E-01
         21   -1    0    0  501  502  0.00000000000E+00  0.00000000000E+00  0.50846628894E+03  0.50846628894E+03  0.00000000000E+00 0. -1.
         13   -1    0    0    0    0 -0.00000000000E+00 -0.00000000000E+00 -0.10000000000E+04  0.10000000000E+04  0.00000000000E+00 0.  1.
    9000005    2    1    2  501    0  0.35169804911E+02  0.29974122675E+02 -0.89211266419E+03  0.11052307983E+04  0.65079547382E+03 0.  0.
         13    1    3    3    0    0 -0.21169984555E+03  0.21186399951E+03 -0.23709758063E+03  0.38199272458E+03  0.00000000000E+00 0.  1.
          1    1    3    3  501    0  0.24686965046E+03 -0.18188987684E+03 -0.65501508356E+03  0.72323807374E+03  0.00000000000E+00 0.  1.
         -1    1    1    2    0  502 -0.35169804911E+02 -0.29974122675E+02  0.40057895313E+03  0.40323549062E+03  0.00000000000E+00 0. -1.
<mgrwt>
<rscale>  1 0.65243399E+03</rscale>
<asrwt>0</asrwt>
<pdfrwt beam="1">  1       21 0.78225581E-01 0.65243399E+03</pdfrwt>
<pdfrwt beam="2">0</pdfrwt>
<totfact> 0.13013340E+02</totfact>
</mgrwt>
</event>
<event>
 6    1  0.1386179E-004  0.6586277E+03  0.7818608E-02  0.9790723E-01
         21   -1    0    0  501  502  0.00000000000E+00  0.00000000000E+00  0.12921801187E+04  0.12921801187E+04  0.00000000000E+00 0. -1.
         13   -1    0    0    0    0 -0.00000000000E+00 -0.00000000000E+00 -0.10000000000E+04  0.10000000000E+04  0.00000000000E+00 0.  1.
    9000005    2    1    2  501    0 -0.35606551240E+02 -0.44706416948E+02 -0.89078761491E+03  0.11078325561E+04  0.65614320642E+03 0.  0.
         13    1    3    3    0    0  0.57508676102E+02  0.27495800765E+03 -0.61270002563E+03  0.67402557459E+03  0.00000000000E+00 0.  1.
          3    1    3    3  501    0 -0.93115227342E+02 -0.31966442460E+03 -0.27808758928E+03  0.43380698154E+03  0.00000000000E+00 0.  1.
         -3    1    1    2    0  502  0.35606551240E+02  0.44706416948E+02  0.11829677336E+04  0.11843475626E+04  0.00000000000E+00 0. -1.
<mgrwt>
<rscale>  1 0.65862766E+03</rscale>
<asrwt>0</asrwt>
<pdfrwt beam="1">  1       21 0.19879694E+00 0.65862766E+03</pdfrwt>
<pdfrwt beam="2">0</pdfrwt>
<totfact> 0.11152911E+01</totfact>
</mgrwt>
</event>
<event>
 6    1  0.1386179E-004  0.6343083E+03  0.7818608E-02  0.9836677E-01
         21   -1    0    0  501  502  0.00000000000E+00  0.00000000000E+00  0.14500834331E+03  0.14500834331E+03  0.00000000000E+00 0.  1.
         13   -1    0    0    0    0 -0.00000000000E+00 -0.00000000000E+00 -0.10000000000E+04  0.10000000000E+04  0.00000000000E+00 0.  1.
    9000005    2    1    2  501    0 -0.24209292362E+02  0.77787192550E+02 -0.85366825386E+03  0.10635301956E+04  0.62905488800E+03 0.  0.
         13    1    3    3    0    0  0.27842326331E+02 -0.26103661945E+03 -0.53293288166E+03  0.59408144911E+03  0.00000000000E+00 0.  1.
          1    1    3    3  501    0 -0.52051618692E+02  0.33882381200E+03 -0.32073537220E+03  0.46944874647E+03  0.00000000000E+00 0.  1.
         -3    1    1    2    0  502  0.24209292362E+02 -0.77787192550E+02 -0.13234028323E+01  0.81478147724E+02  0.00000000000E+00 0. -1.
<mgrwt>
<rscale>  1 0.63430828E+03</rscale>
<asrwt>0</asrwt>
<pdfrwt beam="1">  1       21 0.22308975E-01 0.63430828E+03</pdfrwt>
<pdfrwt beam="2">0</pdfrwt>
<totfact> 0.18193652E+03</totfact>
</mgrwt>
</event>
<event>
 6    1  0.1386179E-004  0.6484608E+03  0.7818608E-02  0.9809672E-01
         21   -1    0    0  501  502  0.00000000000E+00  0.00000000000E+00  0.17551597838E+03  0.17551597838E+03  0.00000000000E+00 0.  1.
         13   -1    0    0    0    0 -0.00000000000E+00 -0.00000000000E+00 -0.10000000000E+04  0.10000000000E+04  0.00000000000E+00 0.  1.
    9000005    2    1    2  501    0 -0.14926938992E+02 -0.96615280565E+02 -0.85500945688E+03  0.10730995337E+04  0.64104922735E+03 0.  0.
         13    1    3    3    0    0 -0.11900829823E+03 -0.32126005109E+03 -0.70442507306E+03  0.78331709992E+03  0.00000000000E+00 0.  1.
          1    1    3    3  501    0  0.10408135924E+03  0.22464477053E+03 -0.15058438382E+03  0.28978243376E+03  0.00000000000E+00 0.  1.
         -3    1    1    2    0  502  0.14926938992E+02  0.96615280565E+02  0.30525435264E+02  0.10241644470E+03  0.00000000000E+00 0. -1.
<mgrwt>
<rscale>  1 0.64846082E+03</rscale>
<asrwt>0</asrwt>
<pdfrwt beam="1">  1       21 0.27002457E-01 0.64846082E+03</pdfrwt>
<pdfrwt beam="2">0</pdfrwt>
<totfact> 0.12513768E+03</totfact>
</mgrwt>
</event>
<event>
 6    1  0.1386179E-004  0.6521194E+03  0.7818608E-02  0.9802810E-01
         21   -1    0    0  501  502  0.00000000000E+00  0.00000000000E+00  0.20019020409E+03  0.20019020409E+03  0.00000000000E+00 0.  1.
         13   -1    0    0    0    0 -0.00000000000E+00 -0.00000000000E+00 -0.10000000000E+04  0.10000000000E+04  0.00000000000E+00 0.  1.
    9000005    2    1    2  501    0 -0.13554883301E+03 -0.18265002985E+02 -0.83450563893E+03  0.10590842227E+04  0.63761479976E+03 0.  0.
         13    1    3    3    0    0 -0.23563129855E+03  0.25731116663E+03 -0.54454198916E+03  0.64672801337E+03  0.00000000000E+00 0.  1.
          1    1    3    3  501    0  0.10008246554E+03 -0.27557616962E+03 -0.28996364978E+03  0.41235620932E+03  0.00000000000E+00 0.  1.
         -3    1    1    2    0  502  0.13554883301E+03  0.18265002985E+02  0.34695843024E+02  0.14110598140E+03  0.00000000000E+00 0. -1.
<mgrwt>
<rscale>  1 0.65211941E+03</rscale>
<asrwt>0</asrwt>
<pdfrwt beam="1">  1       21 0.30798492E-01 0.65211941E+03</pdfrwt>
<pdfrwt beam="2">0</pdfrwt>
<totfact> 0.96259994E+02</totfact>
</mgrwt>
</event>
<event>
 6    1  0.1386179E-004  0.6952035E+03  0.7818608E-02  0.9725470E-01
         21   -1    0    0  501  502  0.00000000000E+00  0.00000000000E+00  0.20550013166E+03  0.20550013166E+03  0.00000000000E+00 0.  1.
         13   -1    0    0    0    0 -0.00000000000E+00 -0.00000000000E+00 -0.10000000000E+04  0.10000000000E+04  0.00000000000E+00 0.  1.
    9000005    2    1    2  501    0 -0.16966580125E+03 -0.42974516804E+01 -0.76418174624E+03  0.10330932271E+04  0.67416831906E+03 0.  0.
         13    1    3    3    0    0 -0.26116038672E+03  0.28516476080E+03 -0.48848545610E+03  0.62301021598E+03  0.00000000000E+00 0.  1.
          1    1    3    3  501    0  0.91494585471E+02 -0.28946221248E+03 -0.27569629014E+03  0.41008301114E+03  0.00000000000E+00 0.  1.
         -3    1    1    2    0  502  0.16966580125E+03  0.42974516804E+01 -0.30318122103E+02  0.17240690454E+03  0.00000000000E+00 0. -1.
<mgrwt>
<rscale>  1 0.69520348E+03</rscale>
<asrwt>0</asrwt>
<pdfrwt beam="1">  1       21 0.31615404E-01 0.69520348E+03</pdfrwt>
<pdfrwt beam="2">0</pdfrwt>
<totfact> 0.91071639E+02</totfact>
</mgrwt>
</event>
<event>
 6    1  0.1386179E-004  0.6515481E+03  0.7818608E-02  0.9803879E-01
         21   -1    0    0  501  502  0.00000000000E+00  0.00000000000E+00  0.10998354537E+04  0.10998354537E+04  0.00000000000E+00 0. -1.
         13   -1    0    0    0    0 -0.00000000000E+00 -0.00000000000E+00 -0.10000000000E+04  0.10000000000E+04  0.00000000000E+00 0.  1.
    9000005    2    1    2  501    0  0.63808762854E+01  0.26237937009E+02 -0.89366835572E+03  0.11059647557E+04  0.65098829945E+03 0.  0.
         13    1    3    3    0    0  0.28810687341E+03 -0.14137032907E+03 -0.39081334468E+03  0.50569379156E+03  0.00000000000E+00 0.  1.
          3    1    3    3  501    0 -0.28172599712E+03  0.16760826608E+03 -0.50285501104E+03  0.60027096418E+03  0.00000000000E+00 0.  1.
         -3    1    1    2    0  502 -0.63808762854E+01 -0.26237937009E+02  0.99350380945E+03  0.99387069798E+03  0.00000000000E+00 0. -1.
<mgrwt>
<rscale>  1 0.65154809E+03</rscale>
<asrwt>0</asrwt>
<pdfrwt beam="1">  1       21 0.16920545E+00 0.65154809E+03</pdfrwt>
<pdfrwt beam="2">0</pdfrwt>
<totfact> 0.18087574E+01</totfact>
</mgrwt>
</event>
<event>
 6    1  0.1386179E-004  0.6511633E+03  0.7818608E-02  0.9804599E-01
         21   -1    0    0  501  502  0.00000000000E+00  0.00000000000E+00  0.13923581664E+03  0.13923581664E+03  0.00000000000E+00 0.  1.
         13   -1    0    0    0    0 -0.00000000000E+00 -0.00000000000E+00 -0.10000000000E+04  0.10000000000E+04  0.00000000000E+00 0.  1.
    9000005    2    1    2  501    0  0.58603144823E+02 -0.43437860412E+02 -0.84106804131E+03  0.10636771354E+04  0.64706446506E+03 0.  0.
         13    1    3    3    0    0  0.26110903444E+03 -0.15860585755E+03 -0.16208513790E+03  0.34584004662E+03  0.00000000000E+00 0.  1.
          1    1    3    3  501    0 -0.20250588962E+03  0.11516799714E+03 -0.67898290341E+03  0.71783708877E+03  0.00000000000E+00 0.  1.
         -3    1    1    2    0  502 -0.58603144823E+02  0.43437860412E+02 -0.19696142056E+02  0.75558681250E+02  0.00000000000E+00 0. -1.
<mgrwt>
<rscale>  1 0.65116327E+03</rscale>
<asrwt>0</asrwt>
<pdfrwt beam="1">  1       21 0.21420894E-01 0.65116327E+03</pdfrwt>
<pdfrwt beam="2">0</pdfrwt>
<totfact> 0.19665465E+03</totfact>
</mgrwt>
</event>
<event>
 6    1  0.1386179E-004  0.6154555E+03  0.7818608E-02  0.9873850E-01
         21   -1    0    0  501  502  0.00000000000E+00  0.00000000000E+00  0.10852618623E+03  0.10852618623E+03  0.00000000000E+00 0.  1.
         13   -1    0    0    0    0 -0.00000000000E+00 -0.00000000000E+00 -0.10000000000E+04  0.10000000000E+04  0.00000000000E+00 0.  1.
    9000005    2    1    2  501    0 -0.22518457082E+02 -0.32451620268E+01 -0.89428536964E+03  0.10856020323E+04  0.61503482686E+03 0.  0.
         13    1    3    3    0    0  0.16079862628E+03  0.22915130490E+03 -0.24492007510E+03  0.37195747329E+03  0.00000000000E+00 0.  1.
          3    1    3    3  501    0 -0.18331708336E+03 -0.23239646693E+03 -0.64936529454E+03  0.71364455903E+03  0.00000000000E+00 0.  1.
         -3    1    1    2    0  502  0.22518457082E+02  0.32451620268E+01  0.28115558688E+01  0.22924153907E+02  0.00000000000E+00 0. -1.
<mgrwt>
<rscale>  1 0.61545548E+03</rscale>
<asrwt>0</asrwt>
<pdfrwt beam="1">  1       21 0.16696336E-01 0.61545548E+03</pdfrwt>
<pdfrwt beam="2">0</pdfrwt>
<totfact> 0.31663857E+03</totfact>
</mgrwt>
</event>
<event>
 6    1  0.1386179E-004  0.6912087E+03  0.7818608E-02  0.9732386E-01
         21   -1    0    0  501  502  0.00000000000E+00  0.00000000000E+00  0.22331477488E+03  0.22331477488E+03  0.00000000000E+00 0.  1.
         13   -1    0    0    0    0 -0.00000000000E+00 -0.00000000000E+00 -0.10000000000E+04  0.10000000000E+04  0.00000000000E+00 0.  1.
    9000005    2    1    2  501    0  0.22086794818E+03  0.80547387495E+02 -0.67839404452E+03  0.96849780460E+03  0.64999921977E+03 0.  0.
         13    1    3    3    0    0 -0.21484249294E+03  0.96736346211E+02 -0.13411311394E+03  0.27111168323E+03  0.00000000000E+00 0.  1.
          3    1    3    3  501    0  0.43571044112E+03 -0.16188958716E+02 -0.54428093058E+03  0.69738612137E+03  0.00000000000E+00 0.  1.
         -1    1    1    2    0  502 -0.22086794818E+03 -0.80547387495E+02 -0.98291180600E+02  0.25481697029E+03  0.00000000000E+00 0. -1.
<mgrwt>
<rscale>  1 0.69120874E+03</rscale>
<asrwt>0</asrwt>
<pdfrwt beam="1">  1       21 0.34356118E-01 0.69120874E+03</pdfrwt>
<pdfrwt beam="2">0</pdfrwt>
<totfact> 0.76969276E+02</totfact>
</mgrwt>
</event>
<event>
 6    1  0.1386179E-004  0.6371524E+03  0.7818608E-02  0.9831190E-01
         21   -1    0    0  501  502  0.00000000000E+00  0.00000000000E+00  0.12750052707E+03  0.12750052707E+03  0.00000000000E+00 0.  1.
         13   -1    0    0    0    0 -0.00000000000E+00 -0.00000000000E+00 -0.10000000000E+04  0.10000000000E+04  0.00000000000E+00 0.  1.
    9000005    2    1    2  501    0  0.11000199039E+02  0.36622463588E+02 -0.88203169778E+03  0.10880914859E+04  0.63600389661E+03 0.  0.
         13    1    3    3    0    0 -0.23167337920E+03 -0.19378677731E+03 -0.39730316802E+03  0.49907482105E+03  0.00000000000E+00 0.  1.
          1    1    3    3  501    0  0.24267357824E+03  0.23040924089E+03 -0.48472852977E+03  0.58901666482E+03  0.00000000000E+00 0.  1.
         -1    1    1    2    0  502 -0.11000199039E+02 -0.36622463588E+02  0.95322248552E+01  0.39409041207E+02  0.00000000000E+00 0. -1.
<mgrwt>
<rscale>  1 0.63715239E+03</rscale>
<asrwt>0</asrwt>
<pdfrwt beam="1">  1       21 0.19615465E-01 0.63715239E+03</pdfrwt>
<pdfrwt beam="2">0</pdfrwt>
<totfact> 0.23304499E+03</totfact>
</mgrwt>
</event>
<event>
 6    1  0.1386179E-004  0.7786432E+03  0.7818608E-02  0.9591455E-01
         21   -1    0    0  501  502  0.00000000000E+00  0.00000000000E+00  0.83314414242E+03  0.83314414242E+03  0.00000000000E+00 0. -1.
         13   -1    0    0    0    0 -0.00000000000E+00 -0.00000000000E+00 -0.10000000000E+04  0.10000000000E+04  0.00000000000E+00 0.  1.
    9000005    2    1    2  501    0 -0.39825828716E+03  0.15366051163E+03 -0.76944054654E+03  0.10946798417E+04  0.65120195404E+03 0.  0.
         13    1    3    3    0    0 -0.36458213734E+03 -0.17957045958E+03 -0.25165549508E+03  0.47801273312E+03  0.00000000000E+00 0.  1.
          1    1    3    3  501    0 -0.33676149816E+02  0.33323097121E+03 -0.51778505146E+03  0.61666710854E+03  0.00000000000E+00 0.  1.
         -3    1    1    2    0  502  0.39825828716E+03 -0.15366051163E+03  0.60258468896E+03  0.73846430076E+03  0.00000000000E+00 0. -1.
<mgrwt>
<rscale>  1 0.77864318E+03</rscale>
<asrwt>0</asrwt>
<pdfrwt beam="1">  1       21 0.12817602E+00 0.77864318E+03</pdfrwt>
<pdfrwt beam="2">0</pdfrwt>
<totfact> 0.37921248E+01</totfact>
</mgrwt>
</event>
<event>
 6    1  0.1386179E-004  0.6585179E+03  0.7818608E-02  0.9790926E-01
         21   -1    0    0  501  502  0.00000000000E+00  0.00000000000E+00  0.14014014557E+03  0.14014014557E+03  0.00000000000E+00 0.  1.
         13   -1    0    0    0    0 -0.00000000000E+00 -0.00000000000E+00 -0.10000000000E+04  0.10000000000E+04  0.00000000000E+00 0.  1.
    9000005    2    1    2  501    0  0.46070001736E+02  0.35887054606E+02 -0.85817705748E+03  0.10817179105E+04  0.65592335689E+03 0.  0.
         13    1    3    3    0    0  0.23227264454E+03 -0.22472644566E+03 -0.54581977635E+03  0.63432782143E+03  0.00000000000E+00 0.  1.
          1    1    3    3  501    0 -0.18620264281E+03  0.26061350026E+03 -0.31235728113E+03  0.44739008905E+03  0.00000000000E+00 0.  1.
         -1    1    1    2    0  502 -0.46070001736E+02 -0.35887054606E+02 -0.16827969465E+01  0.58422235098E+02  0.00000000000E+00 0. -1.
<mgrwt>
<rscale>  1 0.65851786E+03</rscale>
<asrwt>0</asrwt>
<pdfrwt beam="1">  1       21 0.21560022E-01 0.65851786E+03</pdfrwt>
<pdfrwt beam="2">0</pdfrwt>
<totfact> 0.19415003E+03</totfact>
</mgrwt>
</event>
<event>
 6    1  0.1386179E-004  0.6668739E+03  0.7818608E-02  0.9775622E-01
         21   -1    0    0  501  502  0.00000000000E+00  0.00000000000E+00  0.24314044352E+03  0.24314044352E+03  0.00000000000E+00 0.  1.
         13   -1    0    0    0    0 -0.00000000000E+00 -0.00000000000E+00 -0.10000000000E+04  0.10000000000E+04  0.00000000000E+00 0.  1.
    9000005    2    1    2  501    0 -0.19216902683E+02  0.16076166878E+02 -0.88749685952E+03  0.11101222589E+04  0.66640304741E+03 0.  0.
         13    1    3    3    0    0 -0.82731417401E+02  0.21268702097E+03 -0.87373776237E+03  0.90304924213E+03  0.00000000000E+00 0.  1.
          3    1    3    3  501    0  0.63514514718E+02 -0.19661085409E+03 -0.13759097142E+02  0.20707301679E+03  0.00000000000E+00 0.  1.
         -1    1    1    2    0  502  0.19216902683E+02 -0.16076166878E+02  0.13063730304E+03  0.13301818460E+03  0.00000000000E+00 0. -1.
<mgrwt>
<rscale>  1 0.66687387E+03</rscale>
<asrwt>0</asrwt>
<pdfrwt beam="1">  1       21 0.37406221E-01 0.66687387E+03</pdfrwt>
<pdfrwt beam="2">0</pdfrwt>
<totfact> 0.64781739E+02</totfact>
</mgrwt>
</event>
<event>
 6    1  0.1386179E-004  0.6441578E+03  0.7818608E-02  0.9817804E-01
         21   -1    0    0  501  502  0.00000000000E+00  0.00000000000E+00  0.13935207081E+03  0.13935207081E+03  0.00000000000E+00 0.  1.
         13   -1    0    0    0    0 -0.00000000000E+00 -0.00000000000E+00 -0.10000000000E+04  0.10000000000E+04  0.00000000000E+00 0.  1.
    9000005    2    1    2  501    0  0.20862912279E+02 -0.16022513350E+02 -0.89082329179E+03  0.10993204015E+04  0.64362040508E+03 0.  0.
         13    1    3    3    0    0 -0.11246582891E+02 -0.14099300132E+03 -0.94778224100E+03  0.95827798075E+03  0.00000000000E+00 0.  1.
          1    1    3    3  501    0  0.32109495171E+02  0.12497048797E+03  0.56958949207E+02  0.14104242071E+03  0.00000000000E+00 0.  1.
         -1    1    1    2    0  502 -0.20862912279E+02  0.16022513350E+02  0.30175362602E+02  0.40031669351E+02  0.00000000000E+00 0. -1.
<mgrwt>
<rscale>  1 0.64415775E+03</rscale>
<asrwt>0</asrwt>
<pdfrwt beam="1">  1       21 0.21438780E-01 0.64415775E+03</pdfrwt>
<pdfrwt beam="2">0</pdfrwt>
<totfact> 0.19639769E+03</totfact>
</mgrwt>
</event>
<event>
 6    1  0.1386179E-004  0.6455083E+03  0.7818608E-02  0.9815244E-01
         21   -1    0    0  501  502  0.00000000000E+00  0.00000000000E+00  0.14926861825E+03  0.14926861825E+03  0.00000000000E+00 0. -1.
         13   -1    0    0    0    0 -0.00000000000E+00 -0.00000000000E+00 -0.10000000000E+04  0.10000000000E+04  0.00000000000E+00 0.  1.
    9000005    2    1    2  501    0  0.21403297832E+02 -0.33643550984E+02 -0.88588047118E+03  0.10961136733E+04  0.64427555127E+03 0.  0.
         13    1    3    3    0    0 -0.11351766532E+03 -0.26505558762E+03 -0.73302845143E+03  0.78770009234E+03  0.00000000000E+00 0.  1.
          1    1    3    3  501    0  0.13492096315E+03  0.23141203663E+03 -0.15285201975E+03  0.30841358099E+03  0.00000000000E+00 0.  1.
         -1    1    1    2    0  502 -0.21403297832E+02  0.33643550984E+02  0.35149089431E+02  0.53154944913E+02  0.00000000000E+00 0. -1.
<mgrwt>
<rscale>  1 0.64550831E+03</rscale>
<asrwt>0</asrwt>
<pdfrwt beam="1">  1       21 0.22964402E-01 0.64550831E+03</pdfrwt>
<pdfrwt beam="2">0</pdfrwt>
<totfact> 0.17190738E+03</totfact>
</mgrwt>
</event>
<event>
 6    1  0.1386179E-004  0.6535413E+03  0.7818608E-02  0.9800157E-01
         21   -1    0    0  501  502  0.00000000000E+00  0.00000000000E+00  0.31464366519E+03  0.31464366519E+03  0.00000000000E+00 0. -1.
         13   -1    0    0    0    0 -0.00000000000E+00 -0.00000000000E+00 -0.10000000000E+04  0.10000000000E+04  0.00000000000E+00 0.  1.
    9000005    2    1    2  501    0 -0.65619695363E+02  0.52730250825E+02 -0.88373805513E+03  0.10991402297E+04  0.64809711508E+03 0.  0.
         13    1    3    3    0    0 -0.12875615555E+03  0.33556245391E+03 -0.55143731295E+03  0.65822748209E+03  0.00000000000E+00 0.  1.
          3    1    3    3  501    0  0.63136460183E+02 -0.28283220309E+03 -0.33230074218E+03  0.44091274756E+03  0.00000000000E+00 0.  1.
         -1    1    1    2    0  502  0.65619695363E+02 -0.52730250825E+02  0.19838172032E+03  0.21550343554E+03  0.00000000000E+00 0. -1.
<mgrwt>
<rscale>  1 0.65354135E+03</rscale>
<asrwt>0</asrwt>
<pdfrwt beam="1">  1       21 0.48406716E-01 0.65354135E+03</pdfrwt>
<pdfrwt beam="2">0</pdfrwt>
<totfact> 0.37788538E+02</totfact>
</mgrwt>
</event>
<event>
 6    1  0.1386179E-004  0.6533940E+03  0.7818608E-02  0.9800431E-01
         21   -1    0    0  501  502  0.00000000000E+00  0.00000000000E+00  0.12173114425E+03  0.12173114425E+03  0.00000000000E+00 0.  1.
         13   -1    0    0    0    0 -0.00000000000E+00 -0.00000000000E+00 -0.10000000000E+04  0.10000000000E+04  0.00000000000E+00 0.  1.
    9000005    2    1    2  501    0 -0.59063118533E+01 -0.38656708608E+02 -0.85550895623E+03  0.10764847227E+04  0.65222278271E+03 0.  0.
         13    1    3    3    0    0  0.98524475513E+02  0.17581179031E+02 -0.93068922209E+03  0.93605480515E+03  0.00000000000E+00 0.  1.
          3    1    3    3  501    0 -0.10443078737E+03 -0.56237887639E+02  0.75180265861E+02  0.14042991751E+03  0.00000000000E+00 0.  1.
         -3    1    1    2    0  502  0.59063118533E+01  0.38656708608E+02 -0.22759899525E+02  0.45246421587E+02  0.00000000000E+00 0. -1.
<mgrwt>
<rscale>  1 0.65339405E+03</rscale>
<asrwt>0</asrwt>
<pdfrwt beam="1">  1       21 0.18727868E-01 0.65339405E+03</pdfrwt>
<pdfrwt beam="2">0</pdfrwt>
<totfact> 0.25443868E+03</totfact>
</mgrwt>
</event>
<event>
 6    1  0.1386179E-004  0.6269906E+03  0.7818608E-02  0.9850939E-01
         21   -1    0    0  501  502  0.00000000000E+00  0.00000000000E+00  0.22291065454E+03  0.22291065454E+03  0.00000000000E+00 0.  1.
         13   -1    0    0    0    0 -0.00000000000E+00 -0.00000000000E+00 -0.10000000000E+04  0.10000000000E+04  0.00000000000E+00 0.  1.
    9000005    2    1    2  501    0  0.17902226483E+03 -0.43000513873E+02 -0.82158268756E+03  0.10334966292E+04  0.59934894229E+03 0.  0.
         13    1    3    3    0    0  0.36742430046E+03 -0.15187719308E+03 -0.43084630244E+03  0.58625577581E+03  0.00000000000E+00 0.  1.
          1    1    3    3  501    0 -0.18840203563E+03  0.10887667921E+03 -0.39073638511E+03  0.44724085341E+03  0.00000000000E+00 0.  1.
         -3    1    1    2    0  502 -0.17902226483E+03  0.43000513873E+02  0.44493342098E+02  0.18941402532E+03  0.00000000000E+00 0. -1.
<mgrwt>
<rscale>  1 0.62699057E+03</rscale>
<asrwt>0</asrwt>
<pdfrwt beam="1">  1       21 0.34293946E-01 0.62699057E+03</pdfrwt>
<pdfrwt beam="2">0</pdfrwt>
<totfact> 0.77603168E+02</totfact>
</mgrwt>
</event>
<event>
 6    1  0.1386179E-004  0.6689381E+03  0.7818608E-02  0.9771878E-01
         21   -1    0    0  501  502  0.00000000000E+00  0.00000000000E+00  0.14400109346E+03  0.14400109346E+03  0.00000000000E+00 0.  1.
         13   -1    0    0    0    0 -0.00000000000E+00 -0.00000000000E+00 -0.10000000000E+04  0.10000000000E+04  0.00000000000E+00 0.  1.
    9000005    2    1    2  501    0 -0.45769036137E+01  0.89884500299E+02 -0.75254037245E+03  0.10068740001E+04  0.66285599384E+03 0.  0.
         13    1    3    3    0    0 -0.31076204525E+03  0.13955782350E+03 -0.27678220369E+03  0.43892803869E+03  0.00000000000E+00 0.  1.
          1    1    3    3  501    0  0.30618514164E+03 -0.49673323203E+02 -0.47575816876E+03  0.56794596146E+03  0.00000000000E+00 0.  1.
         -3    1    1    2    0  502  0.45769036137E+01 -0.89884500299E+02 -0.10345853410E+03  0.13712709331E+03  0.00000000000E+00 0. -1.
<mgrwt>
<rscale>  1 0.66893814E+03</rscale>
<asrwt>0</asrwt>
<pdfrwt beam="1">  1       21 0.22154014E-01 0.66893814E+03</pdfrwt>
<pdfrwt beam="2">0</pdfrwt>
<totfact> 0.18412172E+03</totfact>
</mgrwt>
</event>
<event>
 6    1  0.1386179E-004  0.6920945E+03  0.7818608E-02  0.9730848E-01
         21   -1    0    0  501  502  0.00000000000E+00  0.00000000000E+00  0.26791639706E+03  0.26791639706E+03  0.00000000000E+00 0. -1.
         13   -1    0    0    0    0 -0.00000000000E+00 -0.00000000000E+00 -0.10000000000E+04  0.10000000000E+04  0.00000000000E+00 0.  1.
    9000005    2    1    2  501    0  0.54466922882E+02 -0.12240890268E+03 -0.84531424931E+03  0.10924975713E+04  0.67900234030E+03 0.  0.
         13    1    3    3    0    0 -0.20076700037E+03 -0.52791525452E+02 -0.88304519779E+00  0.20759362554E+03  0.00000000000E+00 0.  1.
          1    1    3    3  501    0  0.25523392325E+03 -0.69617377232E+02 -0.84443120411E+03  0.88490394579E+03  0.00000000000E+00 0.  1.
         -1    1    1    2    0  502 -0.54466922882E+02  0.12240890268E+03  0.11323064637E+03  0.17541882574E+03  0.00000000000E+00 0. -1.
<mgrwt>
<rscale>  1 0.69209448E+03</rscale>
<asrwt>0</asrwt>
<pdfrwt beam="1">  1       21 0.41217906E-01 0.69209448E+03</pdfrwt>
<pdfrwt beam="2">0</pdfrwt>
<totfact> 0.52879363E+02</totfact>
</mgrwt>
</event>
<event>
 6    1  0.1386179E-004  0.6592828E+03  0.7818608E-02  0.9789515E-01
         21   -1    0    0  501  502  0.00000000000E+00  0.00000000000E+00  0.36222969228E+03  0.36222969228E+03  0.00000000000E+00 0. -1.
         13   -1    0    0    0    0 -0.00000000000E+00 -0.00000000000E+00 -0.10000000000E+04  0.10000000000E+04  0.00000000000E+00 0.  1.
    9000005    2    1    2  501    0  0.27633379792E+02  0.19287581037E+01 -0.89049747911E+03  0.11079889659E+04  0.65870058788E+03 0.  0.
         13    1    3    3    0    0 -0.50069933610E+02  0.24493578432E+03 -0.79859679982E+03  0.83681382958E+03  0.00000000000E+00 0.  1.
          3    1    3    3  501    0  0.77703313402E+02 -0.24300702622E+03 -0.91900679290E+02  0.27117513632E+03  0.00000000000E+00 0.  1.
         -1    1    1    2    0  502 -0.27633379792E+02 -0.19287581037E+01  0.25272717139E+03  0.25424072638E+03  0.00000000000E+00 0. -1.
<mgrwt>
<rscale>  1 0.65928278E+03</rscale>
<asrwt>0</asrwt>
<pdfrwt beam="1">  1       21 0.55727643E-01 0.65928278E+03</pdfrwt>
<pdfrwt beam="2">0</pdfrwt>
<totfact> 0.27873169E+02</totfact>
</mgrwt>
</event>
<event>
 6    1  0.1386179E-004  0.6486027E+03  0.7818608E-02  0.9809405E-01
         21   -1    0    0  501  502  0.00000000000E+00  0.00000000000E+00  0.14279098818E+03  0.14279098818E+03  0.00000000000E+00 0.  1.
         13   -1    0    0    0    0 -0.00000000000E+00 -0.00000000000E+00 -0.10000000000E+04  0.10000000000E+04  0.00000000000E+00 0.  1.
    9000005    2    1    2  501    0 -0.40669016490E+02  0.98351330051E+02 -0.75319821564E+03  0.99397835852E+03  0.63981127853E+03 0.  0.
         13    1    3    3    0    0  0.19359782816E+03  0.14133765135E+03 -0.71327906181E+03  0.75247821947E+03  0.00000000000E+00 0.  1.
          3    1    3    3  501    0 -0.23426684465E+03 -0.42986321295E+02 -0.39919153833E+02  0.24150013905E+03  0.00000000000E+00 0.  1.
         -3    1    1    2    0  502  0.40669016490E+02 -0.98351330051E+02 -0.10401079618E+03  0.14881262966E+03  0.00000000000E+00 0. -1.
<mgrwt>
<rscale>  1 0.64860267E+03</rscale>
<asrwt>0</asrwt>
<pdfrwt beam="1">  1       21 0.21967844E-01 0.64860267E+03</pdfrwt>
<pdfrwt beam="2">0</pdfrwt>
<totfact> 0.18732338E+03</totfact>
</mgrwt>
</event>
<event>
 6    1  0.1386179E-004  0.6648549E+03  0.7818608E-02  0.9779297E-01
         21   -1    0    0  501  502  0.00000000000E+00  0.00000000000E+00  0.21335521157E+03  0.21335521157E+03  0.00000000000E+00 0. -1.
         13   -1    0    0    0    0 -0.00000000000E+00 -0.00000000000E+00 -0.10000000000E+04  0.10000000000E+04  0.00000000000E+00 0.  1.
    9000005    2    1    2  501    0 -0.10775515766E+03 -0.89223069902E+02 -0.83316383236E+03  0.10659240356E+04  0.64996934380E+03 0.  0.
         13    1    3    3    0    0 -0.18424293476E+03 -0.25925395236E+03 -0.13889873105E+03  0.34706041018E+03  0.00000000000E+00 0.  1.
          3    1    3    3  501    0  0.76487777099E+02  0.17003088246E+03 -0.69426510131E+03  0.71886362540E+03  0.00000000000E+00 0.  1.
         -3    1    1    2    0  502  0.10775515766E+03  0.89223069902E+02  0.46519043929E+02  0.14743117599E+03  0.00000000000E+00 0. -1.
<mgrwt>
<rscale>  1 0.66485493E+03</rscale>
<asrwt>0</asrwt>
<pdfrwt beam="1">  1       21 0.32823878E-01 0.66485493E+03</pdfrwt>
<pdfrwt beam="2">0</pdfrwt>
<totfact> 0.84589652E+02</totfact>
</mgrwt>
</event>
<event>
 6    1  0.1386179E-004  0.8899353E+03  0.7818608E-02  0.9438251E-01
         21   -1    0    0  501  502  0.00000000000E+00  0.00000000000E+00  0.57002643100E+03  0.57002643100E+03  0.00000000000E+00 0. -1.
         13   -1    0    0    0    0 -0.00000000000E+00 -0.00000000000E+00 -0.10000000000E+04  0.10000000000E+04  0.00000000000E+00 0.  1.
    9000005    2    1    2  501    0  0.61826742630E+03 -0.28870307266E+02 -0.28335236430E+03  0.93395577240E+03  0.63945032440E+03 0.  0.
         13    1    3    3    0    0  0.43585355295E+03 -0.27267206986E+03 -0.35039864857E+03  0.62217167263E+03  0.00000000000E+00 0.  1.
          3    1    3    3  501    0  0.18241387335E+03  0.24380176260E+03  0.67046284267E+02  0.31178409977E+03  0.00000000000E+00 0.  1.
         -3    1    1    2    0  502 -0.61826742630E+03  0.28870307266E+02 -0.14662120470E+03  0.63607065860E+03  0.00000000000E+00 0. -1.
<mgrwt>
<rscale>  1 0.88993529E+03</rscale>
<asrwt>0</asrwt>
<pdfrwt beam="1">  1       21 0.87696371E-01 0.88993529E+03</pdfrwt>
<pdfrwt beam="2">0</pdfrwt>
<totfact> 0.96799779E+01</totfact>
</mgrwt>
</event>
<event>
 6    1  0.1386179E-004  0.6560497E+03  0.7818608E-02  0.9795493E-01
         21   -1    0    0  501  502  0.00000000000E+00  0.00000000000E+00  0.38922197416E+03  0.38922197416E+03  0.00000000000E+00 0. -1.
         13   -1    0    0    0    0 -0.00000000000E+00 -0.00000000000E+00 -0.10000000000E+04  0.10000000000E+04  0.00000000000E+00 0.  1.
    9000005    2    1    2  501    0  0.45372525997E+02 -0.13390678900E+02 -0.89019713970E+03  0.11058264598E+04  0.65434183357E+03 0.  0.
         13    1    3    3    0    0  0.17947691822E+02  0.29286317670E+03 -0.65821847199E+03  0.72065422831E+03  0.00000000000E+00 0.  1.
          1    1    3    3  501    0  0.27424834176E+02 -0.30625385561E+03 -0.23197866771E+03  0.38517223144E+03  0.00000000000E+00 0.  1.
         -3    1    1    2    0  502 -0.45372525997E+02  0.13390678900E+02  0.27941911386E+03  0.28339551441E+03  0.00000000000E+00 0. -1.
<mgrwt>
<rscale>  1 0.65604970E+03</rscale>
<asrwt>0</asrwt>
<pdfrwt beam="1">  1       21 0.59880302E-01 0.65604970E+03</pdfrwt>
<pdfrwt beam="2">0</pdfrwt>
<totfact> 0.23812852E+02</totfact>
</mgrwt>
</event>
<event>
 6    1  0.1386179E-004  0.6475183E+03  0.7818608E-02  0.9811447E-01
         21   -1    0    0  501  502  0.00000000000E+00  0.00000000000E+00  0.11904043549E+03  0.11904043549E+03  0.00000000000E+00 0.  1.
         13   -1    0    0    0    0 -0.00000000000E+00 -0.00000000000E+00 -0.10000000000E+04  0.10000000000E+04  0.00000000000E+00 0.  1.
    9000005    2    1    2  501    0  0.25370372240E+02 -0.19690349071E+02 -0.87118861164E+03  0.10854720403E+04  0.64672141424E+03 0.  0.
         13    1    3    3    0    0 -0.19363070275E+03  0.20664348715E+03 -0.20821144095E+03  0.35149165562E+03  0.00000000000E+00 0.  1.
          3    1    3    3  501    0  0.21900107499E+03 -0.22633383622E+03 -0.66297717069E+03  0.73398038470E+03  0.00000000000E+00 0.  1.
         -1    1    1    2    0  502 -0.25370372240E+02  0.19690349071E+02 -0.97709528753E+01  0.33568395169E+02  0.00000000000E+00 0. -1.
<mgrwt>
<rscale>  1 0.64751830E+03</rscale>
<asrwt>0</asrwt>
<pdfrwt beam="1">  1       21 0.18313913E-01 0.64751830E+03</pdfrwt>
<pdfrwt beam="2">0</pdfrwt>
<totfact> 0.26554551E+03</totfact>
</mgrwt>
</event>
<event>
 6    1  0.1386179E-004  0.6480339E+03  0.7818608E-02  0.9810475E-01
         21   -1    0    0  501  502  0.00000000000E+00  0.00000000000E+00  0.17848963237E+03  0.17848963237E+03  0.00000000000E+00 0.  1.
         13   -1    0    0    0    0 -0.00000000000E+00 -0.00000000000E+00 -0.10000000000E+04  0.10000000000E+04  0.00000000000E+00 0.  1.
    9000005    2    1    2  501    0 -0.13458413269E+03 -0.76301183158E+02 -0.78791477378E+03  0.10201753145E+04  0.62929581456E+03 0.  0.
         13    1    3    3    0    0  0.77538206555E+02  0.27276250396E+02  0.83610131054E+02  0.11724683930E+03  0.00000000000E+00 0.  1.
          3    1    3    3  501    0 -0.21212233924E+03 -0.10357743355E+03 -0.87152490483E+03  0.90292847518E+03  0.00000000000E+00 0.  1.
         -3    1    1    2    0  502  0.13458413269E+03  0.76301183158E+02 -0.33595593852E+02  0.15831431789E+03  0.00000000000E+00 0. -1.
<mgrwt>
<rscale>  1 0.64803394E+03</rscale>
<asrwt>0</asrwt>
<pdfrwt beam="1">  1       21 0.27459943E-01 0.64803394E+03</pdfrwt>
<pdfrwt beam="2">0</pdfrwt>
<totfact> 0.12104803E+03</totfact>
</mgrwt>
</event>
<event>
 6    1  0.1386179E-004  0.6932023E+03  0.7818608E-02  0.9728928E-01
         21   -1    0    0  501  502  0.00000000000E+00  0.00000000000E+00  0.20895622003E+03  0.20895622003E+03  0.00000000000E+00 0.  1.
         13   -1    0    0    0    0 -0.00000000000E+00 -0.00000000000E+00 -0.10000000000E+04  0.10000000000E+04  0.00000000000E+00 0.  1.
    9000005    2    1    2  501    0 -0.89375012098E+02 -0.18243488781E+03 -0.70381764085E+03  0.98787076048E+03  0.66276616296E+03 0.  0.
         13    1    3    3    0    0 -0.29175955150E+03  0.10214494346E+03 -0.48701595381E+03  0.57683772817E+03  0.00000000000E+00 0.  1.
          3    1    3    3  501    0  0.20238453941E+03 -0.28457983127E+03 -0.21680168704E+03  0.41103303232E+03  0.00000000000E+00 0.  1.
         -3    1    1    2    0  502  0.89375012098E+02  0.18243488781E+03 -0.87226139117E+02  0.22108545955E+03  0.00000000000E+00 0. -1.
<mgrwt>
<rscale>  1 0.69320226E+03</rscale>
<asrwt>0</asrwt>
<pdfrwt beam="1">  1       21 0.32147110E-01 0.69320226E+03</pdfrwt>
<pdfrwt beam="2">0</pdfrwt>
<totfact> 0.88067367E+02</totfact>
</mgrwt>
</event>
<event>
 6    1  0.1386179E-004  0.6410878E+03  0.7818608E-02  0.9823648E-01
         21   -1    0    0  501  502  0.00000000000E+00  0.00000000000E+00  0.14615462541E+03  0.14615462541E+03  0.00000000000E+00 0. -1.
         13   -1    0    0    0    0 -0.00000000000E+00 -0.00000000000E+00 -0.10000000000E+04  0.10000000000E+04  0.00000000000E+00 0.  1.
    9000005    2    1    2  501    0 -0.32824833002E+02  0.24271191100E+02 -0.88640201285E+03  0.10939387746E+04  0.63978664714E+03 0.  0.
         13    1    3    3    0    0 -0.11784434124E+03  0.30989231854E+03 -0.56913552162E+03  0.65866211355E+03  0.00000000000E+00 0.  1.
          3    1    3    3  501    0  0.85019508241E+02 -0.28562112744E+03 -0.31726649122E+03  0.43527666107E+03  0.00000000000E+00 0.  1.
         -3    1    1    2    0  502  0.32824833002E+02 -0.24271191100E+02  0.32556638257E+02  0.52215850789E+02  0.00000000000E+00 0. -1.
<mgrwt>
<rscale>  1 0.64108776E+03</rscale>
<asrwt>0</asrwt>
<pdfrwt beam="1">  1       21 0.22485326E-01 0.64108776E+03</pdfrwt>
<pdfrwt beam="2">0</pdfrwt>
<totfact> 0.17912497E+03</totfact>
</mgrwt>
</event>
<event>
 6    1  0.1386179E-004  0.6520030E+03  0.7818608E-02  0.9803028E-01
         21   -1    0    0  501  502  0.00000000000E+00  0.00000000000E+00  0.36873856188E+03  0.36873856188E+03  0.00000000000E+00 0. -1.
         13   -1    0    0    0    0 -0.00000000000E+00 -0.00000000000E+00 -0.10000000000E+04  0.10000000000E+04  0.00000000000E+00 0.  1.
    9000005    2    1    2  501    0  0.40210922691E+02  0.26861217065E+02 -0.89125613060E+03  0.11042850057E+04  0.65020722858E+03 0.  0.
         13    1    3    3    0    0 -0.19645171595E+03  0.42422786064E+02 -0.20750829715E+02  0.20204842591E+03  0.00000000000E+00 0.  1.
          3    1    3    3  501    0  0.23666263865E+03 -0.15561568999E+02 -0.87050530088E+03  0.90223657974E+03  0.00000000000E+00 0.  1.
         -3    1    1    2    0  502 -0.40210922691E+02 -0.26861217065E+02  0.25999469247E+03  0.26445355623E+03  0.00000000000E+00 0. -1.
<mgrwt>
<rscale>  1 0.65200298E+03</rscale>
<asrwt>0</asrwt>
<pdfrwt beam="1">  1       21 0.56729008E-01 0.65200298E+03</pdfrwt>
<pdfrwt beam="2">0</pdfrwt>
<totfact> 0.26829982E+02</totfact>
</mgrwt>
</event>
<event>
 6    1  0.1386179E-004  0.6536117E+03  0.7818608E-02  0.9800026E-01
         21   -1    0    0  501  502  0.00000000000E+00  0.00000000000E+00  0.39569237458E+03  0.39569237458E+03  0.00000000000E+00 0. -1.
         13   -1    0    0    0    0 -0.00000000000E+00 -0.00000000000E+00 -0.10000000000E+04  0.10000000000E+04  0.00000000000E+00 0.  1.
    9000005    2    1    2  501    0 -0.10457930886E+02  0.39635387203E+02 -0.89158741460E+03  0.11055027650E+04  0.65232500591E+03 0.  0.
         13    1    3    3    0    0 -0.82428948670E+02  0.17121653449E+03  0.11187802088E+02  0.19035440677E+03  0.00000000000E+00 0.  1.
          1    1    3    3  501    0  0.71971017784E+02 -0.13158114728E+03 -0.90277521668E+03  0.91514835823E+03  0.00000000000E+00 0.  1.
         -1    1    1    2    0  502  0.10457930886E+02 -0.39635387203E+02  0.28727978918E+03  0.29018960958E+03  0.00000000000E+00 0. -1.
<mgrwt>
<rscale>  1 0.65361169E+03</rscale>
<asrwt>0</asrwt>
<pdfrwt beam="1">  1       21 0.60875748E-01 0.65361169E+03</pdfrwt>
<pdfrwt beam="2">0</pdfrwt>
<totfact> 0.22965986E+02</totfact>
</mgrwt>
</event>
<event>
 6    1  0.1386179E-004  0.6476399E+03  0.7818608E-02  0.9811218E-01
         21   -1    0    0  501  502  0.00000000000E+00  0.00000000000E+00  0.13196802523E+03  0.13196802523E+03  0.00000000000E+00 0.  1.
         13   -1    0    0    0    0 -0.00000000000E+00 -0.00000000000E+00 -0.10000000000E+04  0.10000000000E+04  0.00000000000E+00 0.  1.
    9000005    2    1    2  501    0  0.83985631204E+01  0.36114933913E+02 -0.88033774039E+03  0.10929006964E+04  0.64657758293E+03 0.  0.
         13    1    3    3    0    0 -0.28680196522E+03  0.27115744811E+02 -0.19849645609E+03  0.34984492844E+03  0.00000000000E+00 0.  1.
          3    1    3    3  501    0  0.29520052834E+03  0.89991891022E+01 -0.68184128430E+03  0.74305576797E+03  0.00000000000E+00 0.  1.
         -1    1    1    2    0  502 -0.83985631204E+01 -0.36114933913E+02  0.12305765612E+02  0.39067328822E+02  0.00000000000E+00 0. -1.
<mgrwt>
<rscale>  1 0.64763987E+03</rscale>
<asrwt>0</asrwt>
<pdfrwt beam="1">  1       21 0.20302773E-01 0.64763987E+03</pdfrwt>
<pdfrwt beam="2">0</pdfrwt>
<totfact> 0.21806752E+03</totfact>
</mgrwt>
</event>
<event>
 6    1  0.1386179E-004  0.6935128E+03  0.7818608E-02  0.9728391E-01
         21   -1    0    0  501  502  0.00000000000E+00  0.00000000000E+00  0.30825992309E+03  0.30825992309E+03  0.00000000000E+00 0. -1.
         13   -1    0    0    0    0 -0.00000000000E+00 -0.00000000000E+00 -0.10000000000E+04  0.10000000000E+04  0.00000000000E+00 0.  1.
    9000005    2    1    2  501    0 -0.22026691101E+03 -0.50521974006E+02 -0.79909459530E+03  0.10580700461E+04  0.65566002488E+03 0.  0.
         13    1    3    3    0    0 -0.38234776946E+03 -0.58867994148E+02 -0.19629603381E+03  0.43380570586E+03  0.00000000000E+00 0.  1.
          3    1    3    3  501    0  0.16208085845E+03  0.83460201424E+01 -0.60279856149E+03  0.62426434021E+03  0.00000000000E+00 0.  1.
         -3    1    1    2    0  502  0.22026691101E+03  0.50521974006E+02  0.10735451839E+03  0.25018987702E+03  0.00000000000E+00 0. -1.
<mgrwt>
<rscale>  1 0.69351283E+03</rscale>
<asrwt>0</asrwt>
<pdfrwt beam="1">  1       21 0.47424602E-01 0.69351283E+03</pdfrwt>
<pdfrwt beam="2">0</pdfrwt>
<totfact> 0.39335176E+02</totfact>
</mgrwt>
</event>
<event>
 6    1  0.1386179E-004  0.6729706E+03  0.7818608E-02  0.9764606E-01
         21   -1    0    0  501  502  0.00000000000E+00  0.00000000000E+00  0.14801256995E+03  0.14801256995E+03  0.00000000000E+00 0.  1.
         13   -1    0    0    0    0 -0.00000000000E+00 -0.00000000000E+00 -0.10000000000E+04  0.10000000000E+04  0.00000000000E+00 0.  1.
    9000005    2    1    2  501    0  0.12553228022E+02 -0.53553490325E+02 -0.86044386015E+03  0.10923612351E+04  0.67071892148E+03 0.  0.
         13    1    3    3    0    0  0.14176356051E+03  0.20540384115E+03 -0.73631281266E+03  0.77746009745E+03  0.00000000000E+00 0.  1.
          3    1    3    3  501    0 -0.12921033249E+03 -0.25895733147E+03 -0.12413104749E+03  0.31490113765E+03  0.00000000000E+00 0.  1.
         -1    1    1    2    0  502 -0.12553228022E+02  0.53553490325E+02  0.84564301030E+01  0.55651334843E+02  0.00000000000E+00 0. -1.
<mgrwt>
<rscale>  1 0.67297060E+03</rscale>
<asrwt>0</asrwt>
<pdfrwt beam="1">  1       21 0.22771164E-01 0.67297060E+03</pdfrwt>
<pdfrwt beam="2">0</pdfrwt>
<totfact> 0.17453144E+03</totfact>
</mgrwt>
</event>
<event>
 6    1  0.1386179E-004  0.6553076E+03  0.7818608E-02  0.9796870E-01
         21   -1    0    0  501  502  0.00000000000E+00  0.00000000000E+00  0.14591115031E+03  0.14591115031E+03  0.00000000000E+00 0. -1.
         13   -1    0    0    0    0 -0.00000000000E+00 -0.00000000000E+00 -0.10000000000E+04  0.10000000000E+04  0.00000000000E+00 0.  1.
    9000005    2    1    2  501    0 -0.22802822444E+02  0.47923897879E+01 -0.88870392376E+03  0.11041841918E+04  0.65489322004E+03 0.  0.
         13    1    3    3    0    0  0.30232223042E+03 -0.60744542568E+02 -0.54736809358E+03  0.62825190834E+03  0.00000000000E+00 0.  1.
          1    1    3    3  501    0 -0.32512505286E+03  0.65536932356E+02 -0.34133583018E+03  0.47593228349E+03  0.00000000000E+00 0.  1.
         -1    1    1    2    0  502  0.22802822444E+02 -0.47923897879E+01  0.34615074076E+02  0.41726958487E+02  0.00000000000E+00 0. -1.
<mgrwt>
<rscale>  1 0.65530761E+03</rscale>
<asrwt>0</asrwt>
<pdfrwt beam="1">  1       21 0.22447869E-01 0.65530761E+03</pdfrwt>
<pdfrwt beam="2">0</pdfrwt>
<totfact> 0.17958750E+03</totfact>
</mgrwt>
</event>
<event>
 6    1  0.1386179E-004  0.6870333E+03  0.7818608E-02  0.9739668E-01
         21   -1    0    0  501  502  0.00000000000E+00  0.00000000000E+00  0.23140336478E+03  0.23140336478E+03  0.00000000000E+00 0.  1.
         13   -1    0    0    0    0 -0.00000000000E+00 -0.00000000000E+00 -0.10000000000E+04  0.10000000000E+04  0.00000000000E+00 0.  1.
    9000005    2    1    2  501    0  0.18371126256E+03  0.16192488856E+03 -0.69123558122E+03  0.97458780800E+03  0.64190752390E+03 0.  0.
         13    1    3    3    0    0  0.45094410322E+01  0.12339981443E+03  0.10217882594E+03  0.16027589254E+03  0.00000000000E+00 0.  1.
          1    1    3    3  501    0  0.17920182153E+03  0.38525074133E+02 -0.79341440716E+03  0.81431191546E+03  0.00000000000E+00 0.  1.
         -1    1    1    2    0  502 -0.18371126256E+03 -0.16192488856E+03 -0.77361053999E+02  0.25681555678E+03  0.00000000000E+00 0. -1.
<mgrwt>
<rscale>  1 0.68703331E+03</rscale>
<asrwt>0</asrwt>
<pdfrwt beam="1">  1       21 0.35600517E-01 0.68703331E+03</pdfrwt>
<pdfrwt beam="2">0</pdfrwt>
<totfact> 0.71597867E+02</totfact>
</mgrwt>
</event>
<event>
 6    1  0.1386179E-004  0.6259462E+03  0.7818608E-02  0.9852991E-01
         21   -1    0    0  501  502  0.00000000000E+00  0.00000000000E+00  0.56312234823E+03  0.56312234823E+03  0.00000000000E+00 0.  1.
         13   -1    0    0    0    0 -0.00000000000E+00 -0.00000000000E+00 -0.10000000000E+04  0.10000000000E+04  0.00000000000E+00 0.  1.
    9000005    2    1    2  501    0 -0.64055863153E+02 -0.39207252019E+02 -0.89871651834E+03  0.10952169081E+04  0.62142443889E+03 0.  0.
         13    1    3    3    0    0  0.26362188354E+02  0.21940635577E+03 -0.85254017698E+02  0.23685937064E+03  0.00000000000E+00 0.  1.
          1    1    3    3  501    0 -0.90418051507E+02 -0.25861360779E+03 -0.81346250065E+03  0.85835753747E+03  0.00000000000E+00 0.  1.
         -3    1    1    2    0  502  0.64055863153E+02  0.39207252019E+02  0.46183886658E+03  0.46790544012E+03  0.00000000000E+00 0. -1.
<mgrwt>
<rscale>  1 0.62594624E+03</rscale>
<asrwt>0</asrwt>
<pdfrwt beam="1">  1       21 0.86634205E-01 0.62594624E+03</pdfrwt>
<pdfrwt beam="2">0</pdfrwt>
<totfact> 0.10280604E+02</totfact>
</mgrwt>
</event>
<event>
 6    1  0.1386179E-004  0.5229048E+03  0.7818608E-02  0.1007967E+00
         21   -1    0    0  501  502  0.00000000000E+00  0.00000000000E+00  0.13139678469E+03  0.13139678469E+03  0.00000000000E+00 0.  1.
         13   -1    0    0    0    0 -0.00000000000E+00 -0.00000000000E+00 -0.10000000000E+04  0.10000000000E+04  0.00000000000E+00 0.  1.
    9000005    2    1    2  501    0 -0.14963438026E+02  0.74209472540E+02 -0.90667756308E+03  0.10466583268E+04  0.51739588257E+03 0.  0.
         13    1    3    3    0    0  0.72349935523E+02 -0.12014622058E+03 -0.28645389841E+02  0.14314393402E+03  0.00000000000E+00 0.  1.
          1    1    3    3  501    0 -0.87313373549E+02  0.19435569312E+03 -0.87803217324E+03  0.90351439275E+03  0.00000000000E+00 0.  1.
         -3    1    1    2    0  502  0.14963438026E+02 -0.74209472540E+02  0.38074347775E+02  0.84738457921E+02  0.00000000000E+00 0. -1.
<mgrwt>
<rscale>  1 0.52290482E+03</rscale>
<asrwt>0</asrwt>
<pdfrwt beam="1">  1       21 0.20214889E-01 0.52290482E+03</pdfrwt>
<pdfrwt beam="2">0</pdfrwt>
<totfact> 0.22109597E+03</totfact>
</mgrwt>
</event>
<event>
 6    1  0.1386179E-004  0.6518347E+03  0.7818608E-02  0.9803343E-01
         21   -1    0    0  501  502  0.00000000000E+00  0.00000000000E+00  0.30307566469E+03  0.30307566469E+03  0.00000000000E+00 0. -1.
         13   -1    0    0    0    0 -0.00000000000E+00 -0.00000000000E+00 -0.10000000000E+04  0.10000000000E+04  0.00000000000E+00 0.  1.
    9000005    2    1    2  501    0 -0.15892574351E+02 -0.28150337257E+02 -0.89230852238E+03  0.11050352750E+04  0.65103259855E+03 0.  0.
         13    1    3    3    0    0  0.12272230326E+03 -0.67707591272E+02 -0.94214576298E+03  0.95251442002E+03  0.00000000000E+00 0.  1.
          3    1    3    3  501    0 -0.13861487761E+03  0.39557254016E+02  0.49837240601E+02  0.15252085494E+03  0.00000000000E+00 0.  1.
         -3    1    1    2    0  502  0.15892574351E+02  0.28150337257E+02  0.19538418707E+03  0.19804038973E+03  0.00000000000E+00 0. -1.
<mgrwt>
<rscale>  1 0.65183469E+03</rscale>
<asrwt>0</asrwt>
<pdfrwt beam="1">  1       21 0.46627024E-01 0.65183469E+03</pdfrwt>
<pdfrwt beam="2">0</pdfrwt>
<totfact> 0.40930241E+02</totfact>
</mgrwt>
</event>
<event>
 6    1  0.1386179E-004  0.6936984E+03  0.7818608E-02  0.9728070E-01
         21   -1    0    0  501  502  0.00000000000E+00  0.00000000000E+00  0.13712578144E+03  0.13712578144E+03  0.00000000000E+00 0.  1.
         13   -1    0    0    0    0 -0.00000000000E+00 -0.00000000000E+00 -0.10000000000E+04  0.10000000000E+04  0.00000000000E+00 0.  1.
    9000005    2    1    2  501    0 -0.10237173881E+02 -0.29483236897E+02 -0.86124215869E+03  0.11058731878E+04  0.69299595289E+03 0.  0.
         13    1    3    3    0    0 -0.33348570960E+03  0.93950527184E+02 -0.46364846842E+03  0.57879989835E+03  0.00000000000E+00 0.  1.
          3    1    3    3  501    0  0.32324853572E+03 -0.12343376408E+03 -0.39759369027E+03  0.52707328949E+03  0.00000000000E+00 0.  1.
         -3    1    1    2    0  502  0.10237173881E+02  0.29483236897E+02 -0.16320598703E+01  0.31252593595E+02  0.00000000000E+00 0. -1.
<mgrwt>
<rscale>  1 0.69369839E+03</rscale>
<asrwt>0</asrwt>
<pdfrwt beam="1">  1       21 0.21096273E-01 0.69369839E+03</pdfrwt>
<pdfrwt beam="2">0</pdfrwt>
<totfact> 0.20218109E+03</totfact>
</mgrwt>
</event>
<event>
 6    1  0.1386179E-004  0.6532261E+03  0.7818608E-02  0.9800744E-01
         21   -1    0    0  501  502  0.00000000000E+00  0.00000000000E+00  0.15215700209E+03  0.15215700209E+03  0.00000000000E+00 0.  1.
         13   -1    0    0    0    0 -0.00000000000E+00 -0.00000000000E+00 -0.10000000000E+04  0.10000000000E+04  0.00000000000E+00 0.  1.
    9000005    2    1    2  501    0  0.46662079188E+02 -0.41204835335E+02 -0.86834856570E+03  0.10866156686E+04  0.65025317496E+03 0.  0.
         13    1    3    3    0    0  0.11499590237E+03 -0.32617414422E+03 -0.35570954237E+03  0.49612791541E+03  0.00000000000E+00 0.  1.
          1    1    3    3  501    0 -0.68333823181E+02  0.28496930888E+03 -0.51263902333E+03  0.59048775316E+03  0.00000000000E+00 0.  1.
         -3    1    1    2    0  502 -0.46662079188E+02  0.41204835335E+02  0.20505567789E+02  0.65541333519E+02  0.00000000000E+00 0. -1.
<mgrwt>
<rscale>  1 0.65322613E+03</rscale>
<asrwt>0</asrwt>
<pdfrwt beam="1">  1       21 0.23408769E-01 0.65322613E+03</pdfrwt>
<pdfrwt beam="2">0</pdfrwt>
<totfact> 0.16555553E+03</totfact>
</mgrwt>
</event>
<event>
 6    1  0.1386179E-004  0.6723382E+03  0.7818608E-02  0.9765743E-01
         21   -1    0    0  501  502  0.00000000000E+00  0.00000000000E+00  0.10128188262E+04  0.10128188262E+04  0.00000000000E+00 0. -1.
         13   -1    0    0    0    0 -0.00000000000E+00 -0.00000000000E+00 -0.10000000000E+04  0.10000000000E+04  0.00000000000E+00 0.  1.
    9000005    2    1    2  501    0 -0.10789998966E+03  0.60181214102E+02 -0.88226555981E+03  0.11092479964E+04  0.66088910816E+03 0.  0.
         13    1    3    3    0    0  0.22538425971E+03 -0.65395475798E+02 -0.11076506527E+03  0.25950632451E+03  0.00000000000E+00 0.  1.
          3    1    3    3  501    0 -0.33328424937E+03  0.12557668990E+03 -0.77150049455E+03  0.84974167193E+03  0.00000000000E+00 0.  1.
         -3    1    1    2    0  502  0.10789998966E+03 -0.60181214102E+02  0.89508438599E+03  0.90357082973E+03  0.00000000000E+00 0. -1.
<mgrwt>
<rscale>  1 0.67233816E+03</rscale>
<asrwt>0</asrwt>
<pdfrwt beam="1">  1       21 0.15581828E+00 0.67233816E+03</pdfrwt>
<pdfrwt beam="2">0</pdfrwt>
<totfact> 0.22759855E+01</totfact>
</mgrwt>
</event>
<event>
 6    1  0.1386179E-004  0.7270473E+03  0.7818608E-02  0.9672064E-01
         21   -1    0    0  501  502  0.00000000000E+00  0.00000000000E+00  0.30790074164E+03  0.30790074164E+03  0.00000000000E+00 0.  1.
         13   -1    0    0    0    0 -0.00000000000E+00 -0.00000000000E+00 -0.10000000000E+04  0.10000000000E+04  0.00000000000E+00 0.  1.
    9000005    2    1    2  501    0 -0.22941148836E+02  0.33582885831E+03 -0.63736741641E+03  0.96686864211E+03  0.64443031370E+03 0.  0.
         13    1    3    3    0    0 -0.28335775897E+03  0.11749406406E+03 -0.52661663664E+03  0.60944364518E+03  0.00000000000E+00 0.  1.
          3    1    3    3  501    0  0.26041661014E+03  0.21833479425E+03 -0.11075077977E+03  0.35742499693E+03  0.00000000000E+00 0.  1.
         -1    1    1    2    0  502  0.22941148836E+02 -0.33582885831E+03 -0.54731841954E+02  0.34103209953E+03  0.00000000000E+00 0. -1.
<mgrwt>
<rscale>  1 0.72704728E+03</rscale>
<asrwt>0</asrwt>
<pdfrwt beam="1">  1       21 0.47369344E-01 0.72704728E+03</pdfrwt>
<pdfrwt beam="2">0</pdfrwt>
<totfact> 0.39321697E+02</totfact>
</mgrwt>
</event>
<event>
 6    1  0.1386179E-004  0.6566169E+03  0.7818608E-02  0.9794442E-01
         21   -1    0    0  501  502  0.00000000000E+00  0.00000000000E+00  0.14804659162E+03  0.14804659162E+03  0.00000000000E+00 0.  1.
         13   -1    0    0    0    0 -0.00000000000E+00 -0.00000000000E+00 -0.10000000000E+04  0.10000000000E+04  0.00000000000E+00 0.  1.
    9000005    2    1    2  501    0 -0.75856278801E+02  0.62669151804E+02 -0.80555205204E+03  0.10392592601E+04  0.64920266760E+03 0.  0.
         13    1    3    3    0    0  0.10430532509E+03 -0.24767106389E+03 -0.19858472459E+03  0.33415033977E+03  0.00000000000E+00 0.  1.
          1    1    3    3  501    0 -0.18016160389E+03  0.31034021569E+03 -0.60696732745E+03  0.70510892037E+03  0.00000000000E+00 0.  1.
         -1    1    1    2    0  502  0.75856278801E+02 -0.62669151804E+02 -0.46401356340E+02  0.10878733148E+03  0.00000000000E+00 0. -1.
<mgrwt>
<rscale>  1 0.65661686E+03</rscale>
<asrwt>0</asrwt>
<pdfrwt beam="1">  1       21 0.22776398E-01 0.65661686E+03</pdfrwt>
<pdfrwt beam="2">0</pdfrwt>
<totfact> 0.17458384E+03</totfact>
</mgrwt>
</event>
<event>
 6    1  0.1386179E-004  0.6143856E+03  0.7818608E-02  0.9876002E-01
         21   -1    0    0  501  502  0.00000000000E+00  0.00000000000E+00  0.13194712589E+03  0.13194712589E+03  0.00000000000E+00 0.  1.
         13   -1    0    0    0    0 -0.00000000000E+00 -0.00000000000E+00 -0.10000000000E+04  0.10000000000E+04  0.00000000000E+00 0.  1.
    9000005    2    1    2  501    0  0.18355831793E+02 -0.22572358486E+02 -0.89937686384E+03  0.10891962164E+04  0.61369634733E+03 0.  0.
         13    1    3    3    0    0  0.13222375040E+03  0.24736075854E+03 -0.63658217955E+03  0.69563448474E+03  0.00000000000E+00 0.  1.
          1    1    3    3  501    0 -0.11386791861E+03 -0.26993311702E+03 -0.26279468428E+03  0.39356173168E+03  0.00000000000E+00 0.  1.
         -1    1    1    2    0  502 -0.18355831793E+02  0.22572358486E+02  0.31323989725E+02  0.42750909473E+02  0.00000000000E+00 0. -1.
<mgrwt>
<rscale>  1 0.61438559E+03</rscale>
<asrwt>0</asrwt>
<pdfrwt beam="1">  1       21 0.20299557E-01 0.61438559E+03</pdfrwt>
<pdfrwt beam="2">0</pdfrwt>
<totfact> 0.21843316E+03</totfact>
</mgrwt>
</event>
<event>
 6    1  0.1386179E-004  0.6524345E+03  0.7818608E-02  0.9802222E-01
         21   -1    0    0  501  502  0.00000000000E+00  0.00000000000E+00  0.13669912341E+03  0.13669912341E+03  0.00000000000E+00 0.  1.
         13   -1    0    0    0    0 -0.00000000000E+00 -0.00000000000E+00 -0.10000000000E+04  0.10000000000E+04  0.00000000000E+00 0.  1.
    9000005    2    1    2  501    0 -0.11987812865E+01  0.26952870722E+02 -0.88678170086E+03  0.11009326108E+04  0.65187647158E+03 0.  0.
         13    1    3    3    0    0 -0.21594352406E+03 -0.12777609999E+03 -0.77322839020E+03  0.81292095601E+03  0.00000000000E+00 0.  1.
          3    1    3    3  501    0  0.21474474277E+03  0.15472897071E+03 -0.11355331066E+03  0.28801165478E+03  0.00000000000E+00 0.  1.
         -1    1    1    2    0  502  0.11987812865E+01 -0.26952870722E+02  0.23480824274E+02  0.35766512625E+02  0.00000000000E+00 0. -1.
<mgrwt>
<rscale>  1 0.65243454E+03</rscale>
<asrwt>0</asrwt>
<pdfrwt beam="1">  1       21 0.21030634E-01 0.65243454E+03</pdfrwt>
<pdfrwt beam="2">0</pdfrwt>
<totfact> 0.20374218E+03</totfact>
</mgrwt>
</event>
<event>
 6    1  0.1386179E-004  0.6104291E+03  0.7818608E-02  0.9884002E-01
         21   -1    0    0  501  502  0.00000000000E+00  0.00000000000E+00  0.11189505357E+03  0.11189505357E+03  0.00000000000E+00 0.  1.
         13   -1    0    0    0    0 -0.00000000000E+00 -0.00000000000E+00 -0.10000000000E+04  0.10000000000E+04  0.00000000000E+00 0.  1.
    9000005    2    1    2  501    0 -0.33445600665E+01  0.32822479799E+02 -0.88957118907E+03  0.10788700459E+04  0.60953685229E+03 0.  0.
         13    1    3    3    0    0  0.20709690803E+03  0.11782622501E+03 -0.10188584057E+03  0.25913871406E+03  0.00000000000E+00 0.  1.
          3    1    3    3  501    0 -0.21044146810E+03 -0.85003745212E+02 -0.78768534850E+03  0.81973133187E+03  0.00000000000E+00 0.  1.
         -3    1    1    2    0  502  0.33445600665E+01 -0.32822479799E+02  0.14662426402E+01  0.33025007640E+02  0.00000000000E+00 0. -1.
<mgrwt>
<rscale>  1 0.61042909E+03</rscale>
<asrwt>0</asrwt>
<pdfrwt beam="1">  1       21 0.17214623E-01 0.61042909E+03</pdfrwt>
<pdfrwt beam="2">0</pdfrwt>
<totfact> 0.29895062E+03</totfact>
</mgrwt>
</event>
<event>
 6    1  0.1386179E-004  0.5690187E+03  0.7818608E-02  0.9971852E-01
         21   -1    0    0  501  502  0.00000000000E+00  0.00000000000E+00  0.14332839222E+03  0.14332839222E+03  0.00000000000E+00 0.  1.
         13   -1    0    0    0    0 -0.00000000000E+00 -0.00000000000E+00 -0.10000000000E+04  0.10000000000E+04  0.00000000000E+00 0.  1.
    9000005    2    1    2  501    0  0.12347214730E+03  0.60178224954E+01 -0.84558497104E+03  0.10192135307E+04  0.55542838647E+03 0.  0.
         13    1    3    3    0    0  0.10718974492E+03 -0.15099438689E+03 -0.28901811463E+02  0.18741467658E+03  0.00000000000E+00 0.  1.
          3    1    3    3  501    0  0.16282402374E+02  0.15701220939E+03 -0.81668315958E+03  0.83179885409E+03  0.00000000000E+00 0.  1.
         -3    1    1    2    0  502 -0.12347214730E+03 -0.60178224954E+01 -0.11086636736E+02  0.12411486156E+03  0.00000000000E+00 0. -1.
<mgrwt>
<rscale>  1 0.56901870E+03</rscale>
<asrwt>0</asrwt>
<pdfrwt beam="1">  1       21 0.22050521E-01 0.56901870E+03</pdfrwt>
<pdfrwt beam="2">0</pdfrwt>
<totfact> 0.18667271E+03</totfact>
</mgrwt>
</event>
<event>
 6    1  0.1386179E-004  0.6483194E+03  0.7818608E-02  0.9809938E-01
         21   -1    0    0  501  502  0.00000000000E+00  0.00000000000E+00  0.22771904578E+03  0.22771904578E+03  0.00000000000E+00 0.  1.
         13   -1    0    0    0    0 -0.00000000000E+00 -0.00000000000E+00 -0.10000000000E+04  0.10000000000E+04  0.00000000000E+00 0.  1.
    9000005    2    1    2  501    0 -0.56051003213E+01 -0.21789603907E+02 -0.89377904181E+03  0.11041553404E+04  0.64792888210E+03 0.  0.
         13    1    3    3    0    0 -0.27470350120E+03 -0.18717654235E+03 -0.45147230304E+03  0.56064633414E+03  0.00000000000E+00 0.  1.
          1    1    3    3  501    0  0.26909840088E+03  0.16538693844E+03 -0.44230673878E+03  0.54350900630E+03  0.00000000000E+00 0.  1.
         -1    1    1    2    0  502  0.56051003213E+01  0.21789603907E+02  0.12149808759E+03  0.12356370534E+03  0.00000000000E+00 0. -1.
<mgrwt>
<rscale>  1 0.64831940E+03</rscale>
<asrwt>0</asrwt>
<pdfrwt beam="1">  1       21 0.35033698E-01 0.64831940E+03</pdfrwt>
<pdfrwt beam="2">0</pdfrwt>
<totfact> 0.74187833E+02</totfact>
</mgrwt>
</event>
<event>
 6    1  0.1386179E-004  0.6659902E+03  0.7818608E-02  0.9777229E-01
         21   -1    0    0  501  502  0.00000000000E+00  0.00000000000E+00  0.80472727891E+03  0.80472727891E+03  0.00000000000E+00 0. -1.
         13   -1    0    0    0    0 -0.00000000000E+00 -0.00000000000E+00 -0.10000000000E+04  0.10000000000E+04  0.00000000000E+00 0.  1.
    9000005    2    1    2  501    0  0.11629830280E+03  0.94452782818E+02 -0.88011055770E+03  0.11036926964E+04  0.64891937165E+03 0.  0.
         13    1    3    3    0    0 -0.15418147594E+03 -0.55880720377E+02 -0.75047739902E+03  0.76818676692E+03  0.00000000000E+00 0.  1.
          3    1    3    3  501    0  0.27047977874E+03  0.15033350319E+03 -0.12963315868E+03  0.33550592949E+03  0.00000000000E+00 0.  1.
         -3    1    1    2    0  502 -0.11629830280E+03 -0.94452782818E+02  0.68483783661E+03  0.70103458250E+03  0.00000000000E+00 0. -1.
<mgrwt>
<rscale>  1 0.66599022E+03</rscale>
<asrwt>0</asrwt>
<pdfrwt beam="1">  1       21 0.12380419E+00 0.66599022E+03</pdfrwt>
<pdfrwt beam="2">0</pdfrwt>
<totfact> 0.42252228E+01</totfact>
</mgrwt>
</event>
<event>
 6    1  0.1386179E-004  0.6726200E+03  0.7818608E-02  0.9765236E-01
         21   -1    0    0  501  502  0.00000000000E+00  0.00000000000E+00  0.19752896946E+03  0.19752896946E+03  0.00000000000E+00 0. -1.
         13   -1    0    0    0    0 -0.00000000000E+00 -0.00000000000E+00 -0.10000000000E+04  0.10000000000E+04  0.00000000000E+00 0.  1.
    9000005    2    1    2  501    0  0.11163692154E+02 -0.20132680602E+02 -0.88514478934E+03  0.11117099550E+04  0.67222598363E+03 0.  0.
         13    1    3    3    0    0  0.51467342257E+01 -0.34469417551E+03 -0.40102247085E+03  0.52882850304E+03  0.00000000000E+00 0.  1.
          3    1    3    3  501    0  0.60169579285E+01  0.32456149491E+03 -0.48412231849E+03  0.58288145194E+03  0.00000000000E+00 0.  1.
         -1    1    1    2    0  502 -0.11163692154E+02  0.20132680602E+02  0.82673758800E+02  0.85819014471E+02  0.00000000000E+00 0. -1.
<mgrwt>
<rscale>  1 0.67262005E+03</rscale>
<asrwt>0</asrwt>
<pdfrwt beam="1">  1       21 0.30389071E-01 0.67262005E+03</pdfrwt>
<pdfrwt beam="2">0</pdfrwt>
<totfact> 0.98753112E+02</totfact>
</mgrwt>
</event>
<event>
 6    1  0.1386179E-004  0.6529546E+03  0.7818608E-02  0.9801251E-01
         21   -1    0    0  501  502  0.00000000000E+00  0.00000000000E+00  0.12914897808E+03  0.12914897808E+03  0.00000000000E+00 0.  1.
         13   -1    0    0    0    0 -0.00000000000E+00 -0.00000000000E+00 -0.10000000000E+04  0.10000000000E+04  0.00000000000E+00 0.  1.
    9000005    2    1    2  501    0 -0.43349997291E+02  0.49483379608E+02 -0.78989773430E+03  0.10248356908E+04  0.64963215392E+03 0.  0.
         13    1    3    3    0    0 -0.23311487870E+03  0.60074643705E+02 -0.31259790685E+02  0.24275230998E+03  0.00000000000E+00 0.  1.
          1    1    3    3  501    0  0.18976488141E+03 -0.10591264096E+02 -0.75863794361E+03  0.78208338084E+03  0.00000000000E+00 0.  1.
         -3    1    1    2    0  502  0.43349997291E+02 -0.49483379608E+02 -0.80953287624E+02  0.10431328726E+03  0.00000000000E+00 0. -1.
<mgrwt>
<rscale>  1 0.65295464E+03</rscale>
<asrwt>0</asrwt>
<pdfrwt beam="1">  1       21 0.19869073E-01 0.65295464E+03</pdfrwt>
<pdfrwt beam="2">0</pdfrwt>
<totfact> 0.22724280E+03</totfact>
</mgrwt>
</event>
<event>
 6    1  0.1386179E-004  0.6601236E+03  0.7818608E-02  0.9787966E-01
         21   -1    0    0  501  502  0.00000000000E+00  0.00000000000E+00  0.14132663156E+03  0.14132663156E+03  0.00000000000E+00 0.  1.
         13   -1    0    0    0    0 -0.00000000000E+00 -0.00000000000E+00 -0.10000000000E+04  0.10000000000E+04  0.00000000000E+00 0.  1.
    9000005    2    1    2  501    0  0.38409377204E+02 -0.17398028004E+02 -0.87502726237E+03  0.10961002954E+04  0.65877551264E+03 0.  0.
         13    1    3    3    0    0  0.10909527261E+03  0.12917465207E+03 -0.91339414682E+03  0.92891158712E+03  0.00000000000E+00 0.  1.
          1    1    3    3  501    0 -0.70685895401E+02 -0.14657268008E+03  0.38366884453E+02  0.16718870828E+03  0.00000000000E+00 0.  1.
         -1    1    1    2    0  502 -0.38409377204E+02  0.17398028004E+02  0.16353893927E+02  0.45226336158E+02  0.00000000000E+00 0. -1.
<mgrwt>
<rscale>  1 0.66012359E+03</rscale>
<asrwt>0</asrwt>
<pdfrwt beam="1">  1       21 0.21742558E-01 0.66012359E+03</pdfrwt>
<pdfrwt beam="2">0</pdfrwt>
<totfact> 0.19099889E+03</totfact>
</mgrwt>
</event>
<event>
 6    1  0.1386179E-004  0.6545031E+03  0.7818608E-02  0.9798366E-01
         21   -1    0    0  501  502  0.00000000000E+00  0.00000000000E+00  0.14133848028E+03  0.14133848028E+03  0.00000000000E+00 0.  1.
         13   -1    0    0    0    0 -0.00000000000E+00 -0.00000000000E+00 -0.10000000000E+04  0.10000000000E+04  0.00000000000E+00 0.  1.
    9000005    2    1    2  501    0  0.24888501484E+02 -0.11452603262E+02 -0.88672829574E+03  0.11021167574E+04  0.65392941278E+03 0.  0.
         13    1    3    3    0    0  0.32724209483E+03  0.43148782776E+02 -0.58379215394E+03  0.67064333672E+03  0.00000000000E+00 0.  1.
          1    1    3    3  501    0 -0.30235359335E+03 -0.54601386038E+02 -0.30293614180E+03  0.43147342071E+03  0.00000000000E+00 0.  1.
         -3    1    1    2    0  502 -0.24888501484E+02  0.11452603262E+02  0.28066776019E+02  0.39221722855E+02  0.00000000000E+00 0. -1.
<mgrwt>
<rscale>  1 0.65450308E+03</rscale>
<asrwt>0</asrwt>
<pdfrwt beam="1">  1       21 0.21744381E-01 0.65450308E+03</pdfrwt>
<pdfrwt beam="2">0</pdfrwt>
<totfact> 0.19101464E+03</totfact>
</mgrwt>
</event>
<event>
 6    1  0.1386179E-004  0.6512254E+03  0.7818608E-02  0.9804482E-01
         21   -1    0    0  501  502  0.00000000000E+00  0.00000000000E+00  0.13159706987E+03  0.13159706987E+03  0.00000000000E+00 0.  1.
         13   -1    0    0    0    0 -0.00000000000E+00 -0.00000000000E+00 -0.10000000000E+04  0.10000000000E+04  0.00000000000E+00 0.  1.
    9000005    2    1    2  501    0  0.17252473462E+02 -0.18245880743E+02 -0.88696932888E+03  0.11003677380E+04  0.65074112251E+03 0.  0.
         13    1    3    3    0    0 -0.16763611268E+03 -0.27917396413E+03 -0.37419751713E+03  0.49604813310E+03  0.00000000000E+00 0.  1.
          3    1    3    3  501    0  0.18488858614E+03  0.26092808339E+03 -0.51277181174E+03  0.60431960493E+03  0.00000000000E+00 0.  1.
         -3    1    1    2    0  502 -0.17252473462E+02  0.18245880743E+02  0.18566398748E+02  0.31229331839E+02  0.00000000000E+00 0. -1.
<mgrwt>
<rscale>  1 0.65122544E+03</rscale>
<asrwt>0</asrwt>
<pdfrwt beam="1">  1       21 0.20245702E-01 0.65122544E+03</pdfrwt>
<pdfrwt beam="2">0</pdfrwt>
<totfact> 0.21921785E+03</totfact>
</mgrwt>
</event>
<event>
 6    1  0.1386179E-004  0.6538676E+03  0.7818608E-02  0.9799549E-01
         21   -1    0    0  501  502  0.00000000000E+00  0.00000000000E+00  0.12617276442E+03  0.12617276442E+03  0.00000000000E+00 0.  1.
         13   -1    0    0    0    0 -0.00000000000E+00 -0.00000000000E+00 -0.10000000000E+04  0.10000000000E+04  0.00000000000E+00 0.  1.
    9000005    2    1    2  501    0  0.88389880575E+01 -0.33112423605E+02 -0.87446655395E+03  0.10918949431E+04  0.65296879901E+03 0.  0.
         13    1    3    3    0    0  0.22382201898E+03 -0.25857537499E+03 -0.43983727500E+03  0.55714840860E+03  0.00000000000E+00 0.  1.
          3    1    3    3  501    0 -0.21498303092E+03  0.22546295138E+03 -0.43462927895E+03  0.53474653449E+03  0.00000000000E+00 0.  1.
         -3    1    1    2    0  502 -0.88389880575E+01  0.33112423605E+02  0.63931836415E+00  0.34277821326E+02  0.00000000000E+00 0. -1.
<mgrwt>
<rscale>  1 0.65386758E+03</rscale>
<asrwt>0</asrwt>
<pdfrwt beam="1">  1       21 0.19411194E-01 0.65386758E+03</pdfrwt>
<pdfrwt beam="2">0</pdfrwt>
<totfact> 0.23760759E+03</totfact>
</mgrwt>
</event>
<event>
 6    1  0.1386179E-004  0.6482967E+03  0.7818608E-02  0.9809980E-01
         21   -1    0    0  501  502  0.00000000000E+00  0.00000000000E+00  0.13317188608E+03  0.13317188608E+03  0.00000000000E+00 0.  1.
         13   -1    0    0    0    0 -0.00000000000E+00 -0.00000000000E+00 -0.10000000000E+04  0.10000000000E+04  0.00000000000E+00 0.  1.
    9000005    2    1    2  501    0  0.91976685392E+01  0.29551563790E+02 -0.88517791201E+03  0.10971912368E+04  0.64755755133E+03 0.  0.
         13    1    3    3    0    0 -0.50304972655E+00 -0.25485427126E+03 -0.12173565757E+03  0.28243675923E+03  0.00000000000E+00 0.  1.
          1    1    3    3  501    0  0.97007182657E+01  0.28440583505E+03 -0.76344225444E+03  0.81475447762E+03  0.00000000000E+00 0.  1.
         -3    1    1    2    0  502 -0.91976685392E+01 -0.29551563790E+02  0.18349798084E+02  0.35980649226E+02  0.00000000000E+00 0. -1.
<mgrwt>
<rscale>  1 0.64829675E+03</rscale>
<asrwt>0</asrwt>
<pdfrwt beam="1">  1       21 0.20487982E-01 0.64829675E+03</pdfrwt>
<pdfrwt beam="2">0</pdfrwt>
<totfact> 0.21429063E+03</totfact>
</mgrwt>
</event>
<event>
 6    1  0.1386179E-004  0.6355403E+03  0.7818608E-02  0.9834297E-01
         21   -1    0    0  501  502  0.00000000000E+00  0.00000000000E+00  0.25429030905E+03  0.25429030905E+03  0.00000000000E+00 0. -1.
         13   -1    0    0    0    0 -0.00000000000E+00 -0.00000000000E+00 -0.10000000000E+04  0.10000000000E+04  0.00000000000E+00 0.  1.
    9000005    2    1    2  501    0 -0.75329564647E+02  0.57772272030E+02 -0.88265766289E+03  0.10876562017E+04  0.62841012438E+03 0.  0.
         13    1    3    3    0    0 -0.17780960284E+03 -0.11263272355E+03 -0.86247612833E+03  0.88778795735E+03  0.00000000000E+00 0.  1.
          1    1    3    3  501    0  0.10248003819E+03  0.17040499558E+03 -0.20181534561E+02  0.19986824431E+03  0.00000000000E+00 0.  1.
         -1    1    1    2    0  502  0.75329564647E+02 -0.57772272030E+02  0.13694797194E+03  0.16663410739E+03  0.00000000000E+00 0. -1.
<mgrwt>
<rscale>  1 0.63554029E+03</rscale>
<asrwt>0</asrwt>
<pdfrwt beam="1">  1       21 0.39121585E-01 0.63554029E+03</pdfrwt>
<pdfrwt beam="2">0</pdfrwt>
<totfact> 0.59204468E+02</totfact>
</mgrwt>
</event>
<event>
 6    1  0.1386179E-004  0.6527851E+03  0.7818608E-02  0.9801567E-01
         21   -1    0    0  501  502  0.00000000000E+00  0.00000000000E+00  0.23191350674E+03  0.23191350674E+03  0.00000000000E+00 0.  1.
         13   -1    0    0    0    0 -0.00000000000E+00 -0.00000000000E+00 -0.10000000000E+04  0.10000000000E+04  0.00000000000E+00 0.  1.
    9000005    2    1    2  501    0 -0.16491198662E+02  0.12311513904E+03 -0.85834341107E+03  0.10783700005E+04  0.64085813529E+03 0.  0.
         13    1    3    3    0    0  0.72427406526E+02  0.37681557510E+03 -0.51907846242E+03  0.64550612468E+03  0.00000000000E+00 0.  1.
          3    1    3    3  501    0 -0.88918605188E+02 -0.25370043607E+03 -0.33926494865E+03  0.43286387582E+03  0.00000000000E+00 0.  1.
         -3    1    1    2    0  502  0.16491198662E+02 -0.12311513904E+03  0.90256917811E+02  0.15354350623E+03  0.00000000000E+00 0. -1.
<mgrwt>
<rscale>  1 0.65278515E+03</rscale>
<asrwt>0</asrwt>
<pdfrwt beam="1">  1       21 0.35679000E-01 0.65278515E+03</pdfrwt>
<pdfrwt beam="2">0</pdfrwt>
<totfact> 0.71450900E+02</totfact>
</mgrwt>
</event>
<event>
 6    1  0.1386179E-004  0.6783127E+03  0.7818608E-02  0.9755056E-01
         21   -1    0    0  501  502  0.00000000000E+00  0.00000000000E+00  0.18580378921E+03  0.18580378921E+03  0.00000000000E+00 0. -1.
         13   -1    0    0    0    0 -0.00000000000E+00 -0.00000000000E+00 -0.10000000000E+04  0.10000000000E+04  0.00000000000E+00 0.  1.
    9000005    2    1    2  501    0  0.10237490824E+03 -0.23610039852E+02 -0.83795435004E+03  0.10780888645E+04  0.67012689190E+03 0.  0.
         13    1    3    3    0    0  0.11996583303E+03 -0.32309518780E+03 -0.61252732837E+03  0.70283143745E+03  0.00000000000E+00 0.  1.
          3    1    3    3  501    0 -0.17590924781E+02  0.29948514795E+03 -0.22542702167E+03  0.37525742707E+03  0.00000000000E+00 0.  1.
         -1    1    1    2    0  502 -0.10237490824E+03  0.23610039852E+02  0.23758139246E+02  0.10771492469E+03  0.00000000000E+00 0. -1.
<mgrwt>
<rscale>  1 0.67831269E+03</rscale>
<asrwt>0</asrwt>
<pdfrwt beam="1">  1       21 0.28585198E-01 0.67831269E+03</pdfrwt>
<pdfrwt beam="2">0</pdfrwt>
<totfact> 0.11156791E+03</totfact>
</mgrwt>
</event>
<event>
 6    1  0.1386179E-004  0.6549522E+03  0.7818608E-02  0.9797531E-01
         21   -1    0    0  501  502  0.00000000000E+00  0.00000000000E+00  0.24936902865E+03  0.24936902865E+03  0.00000000000E+00 0. -1.
         13   -1    0    0    0    0 -0.00000000000E+00 -0.00000000000E+00 -0.10000000000E+04  0.10000000000E+04  0.00000000000E+00 0.  1.
    9000005    2    1    2  501    0 -0.18764837510E+00 -0.45991121218E+02 -0.88862660324E+03  0.11039110867E+04  0.65333546437E+03 0.  0.
         13    1    3    3    0    0 -0.25749009870E+03 -0.15127119795E+03 -0.71822037028E+03  0.77783328969E+03  0.00000000000E+00 0.  1.
          1    1    3    3  501    0  0.25730245033E+03  0.10528007673E+03 -0.17040623296E+03  0.32607779705E+03  0.00000000000E+00 0.  1.
         -1    1    1    2    0  502  0.18764837510E+00  0.45991121218E+02  0.13799563189E+03  0.14545794191E+03  0.00000000000E+00 0. -1.
<mgrwt>
<rscale>  1 0.65495225E+03</rscale>
<asrwt>0</asrwt>
<pdfrwt beam="1">  1       21 0.38364465E-01 0.65495225E+03</pdfrwt>
<pdfrwt beam="2">0</pdfrwt>
<totfact> 0.61548063E+02</totfact>
</mgrwt>
</event>
<event>
 6    1  0.1386179E-004  0.6625658E+03  0.7818608E-02  0.9783482E-01
         21   -1    0    0  501  502  0.00000000000E+00  0.00000000000E+00  0.12933537993E+03  0.12933537993E+03  0.00000000000E+00 0.  1.
         13   -1    0    0    0    0 -0.00000000000E+00 -0.00000000000E+00 -0.10000000000E+04  0.10000000000E+04  0.00000000000E+00 0.  1.
    9000005    2    1    2  501    0 -0.55343521743E+02 -0.52144164191E+01 -0.81896186921E+03  0.10534191762E+04  0.66022974948E+03 0.  0.
         13    1    3    3    0    0  0.13184622195E+02 -0.32877375979E+03 -0.45673011697E+03  0.56291066711E+03  0.00000000000E+00 0.  1.
          1    1    3    3  501    0 -0.68528143939E+02  0.32355934337E+03 -0.36223175223E+03  0.49050850912E+03  0.00000000000E+00 0.  1.
         -1    1    1    2    0  502  0.55343521743E+02  0.52144164191E+01 -0.51702750865E+02  0.75916203702E+02  0.00000000000E+00 0. -1.
<mgrwt>
<rscale>  1 0.66256578E+03</rscale>
<asrwt>0</asrwt>
<pdfrwt beam="1">  1       21 0.19897750E-01 0.66256578E+03</pdfrwt>
<pdfrwt beam="2">0</pdfrwt>
<totfact> 0.22653171E+03</totfact>
</mgrwt>
</event>
<event>
 6    1  0.1386179E-004  0.6423527E+03  0.7818608E-02  0.9821236E-01
         21   -1    0    0  501  502  0.00000000000E+00  0.00000000000E+00  0.12918833420E+03  0.12918833420E+03  0.00000000000E+00 0.  1.
         13   -1    0    0    0    0 -0.00000000000E+00 -0.00000000000E+00 -0.10000000000E+04  0.10000000000E+04  0.00000000000E+00 0.  1.
    9000005    2    1    2  501    0 -0.11808027333E+02  0.40054175218E+02 -0.87688702235E+03  0.10869902724E+04  0.64099394373E+03 0.  0.
         13    1    3    3    0    0 -0.47962433785E+00  0.18613606532E+03  0.11604909756E+02  0.18649809324E+03  0.00000000000E+00 0.  1.
          3    1    3    3  501    0 -0.11328402995E+02 -0.14608189010E+03 -0.88849193210E+03  0.90049217917E+03  0.00000000000E+00 0.  1.
         -3    1    1    2    0  502  0.11808027333E+02 -0.40054175218E+02  0.60753565494E+01  0.42198061793E+02  0.00000000000E+00 0. -1.
<mgrwt>
<rscale>  1 0.64235271E+03</rscale>
<asrwt>0</asrwt>
<pdfrwt beam="1">  1       21 0.19875128E-01 0.64235271E+03</pdfrwt>
<pdfrwt beam="2">0</pdfrwt>
<totfact> 0.22720402E+03</totfact>
</mgrwt>
</event>
<event>
 6    1  0.1386179E-004  0.6549213E+03  0.7818608E-02  0.9797588E-01
         21   -1    0    0  501  502  0.00000000000E+00  0.00000000000E+00  0.17510276322E+03  0.17510276322E+03  0.00000000000E+00 0.  1.
         13   -1    0    0    0    0 -0.00000000000E+00 -0.00000000000E+00 -0.10000000000E+04  0.10000000000E+04  0.00000000000E+00 0.  1.
    9000005    2    1    2  501    0  0.49429519799E+02  0.15006675599E+03 -0.76270229611E+03  0.10053042964E+04  0.63557739675E+03 0.  0.
         13    1    3    3    0    0  0.15489530210E+03  0.35915862707E+03 -0.32355677184E+03  0.50761841832E+03  0.00000000000E+00 0.  1.
          1    1    3    3  501    0 -0.10546578230E+03 -0.20909187108E+03 -0.43914552426E+03  0.49768587811E+03  0.00000000000E+00 0.  1.
         -1    1    1    2    0  502 -0.49429519799E+02 -0.15006675599E+03 -0.62194940669E+02  0.16979846679E+03  0.00000000000E+00 0. -1.
<mgrwt>
<rscale>  1 0.65492132E+03</rscale>
<asrwt>0</asrwt>
<pdfrwt beam="1">  1       21 0.26938886E-01 0.65492132E+03</pdfrwt>
<pdfrwt beam="2">0</pdfrwt>
<totfact> 0.12567613E+03</totfact>
</mgrwt>
</event>
<event>
 6    1  0.1386179E-004  0.6923195E+03  0.7818608E-02  0.9730458E-01
         21   -1    0    0  501  502  0.00000000000E+00  0.00000000000E+00  0.23303147593E+03  0.23303147593E+03  0.00000000000E+00 0.  1.
         13   -1    0    0    0    0 -0.00000000000E+00 -0.00000000000E+00 -0.10000000000E+04  0.10000000000E+04  0.00000000000E+00 0.  1.
    9000005    2    1    2  501    0 -0.15102041253E+03  0.16591904538E+03 -0.72922302238E+03  0.10055209981E+04  0.65495798846E+03 0.  0.
         13    1    3    3    0    0 -0.15464703504E+03  0.29335309320E+03 -0.76321094711E+02  0.34028907157E+03  0.00000000000E+00 0.  1.
          1    1    3    3  501    0  0.36266225124E+01 -0.12743404781E+03 -0.65290192767E+03  0.66523192654E+03  0.00000000000E+00 0.  1.
         -3    1    1    2    0  502  0.15102041253E+03 -0.16591904538E+03 -0.37745501693E+02  0.22751047782E+03  0.00000000000E+00 0. -1.
<mgrwt>
<rscale>  1 0.69231948E+03</rscale>
<asrwt>0</asrwt>
<pdfrwt beam="1">  1       21 0.35850995E-01 0.69231948E+03</pdfrwt>
<pdfrwt beam="2">0</pdfrwt>
<totfact> 0.70551821E+02</totfact>
</mgrwt>
</event>
<event>
 6    1  0.1386179E-004  0.6902579E+03  0.7818608E-02  0.9734039E-01
         21   -1    0    0  501  502  0.00000000000E+00  0.00000000000E+00  0.14300891562E+03  0.14300891562E+03  0.00000000000E+00 0.  1.
         13   -1    0    0    0    0 -0.00000000000E+00 -0.00000000000E+00 -0.10000000000E+04  0.10000000000E+04  0.00000000000E+00 0.  1.
    9000005    2    1    2  501    0  0.29136653527E+02  0.51050392075E+02 -0.82638009934E+03  0.10767358478E+04  0.68775063090E+03 0.  0.
         13    1    3    3    0    0  0.33713971372E+03 -0.93040722744E+02 -0.39904397963E+03  0.53061837543E+03  0.00000000000E+00 0.  1.
          3    1    3    3  501    0 -0.30800306020E+03  0.14409111482E+03 -0.42733611971E+03  0.54611747241E+03  0.00000000000E+00 0.  1.
         -3    1    1    2    0  502 -0.29136653527E+02 -0.51050392075E+02 -0.30610985035E+02  0.66273067792E+02  0.00000000000E+00 0. -1.
<mgrwt>
<rscale>  1 0.69025794E+03</rscale>
<asrwt>0</asrwt>
<pdfrwt beam="1">  1       21 0.22001371E-01 0.69025794E+03</pdfrwt>
<pdfrwt beam="2">0</pdfrwt>
<totfact> 0.18643391E+03</totfact>
</mgrwt>
</event>
<event>
 6    1  0.1386179E-004  0.6485366E+03  0.7818608E-02  0.9809529E-01
         21   -1    0    0  501  502  0.00000000000E+00  0.00000000000E+00  0.34234531720E+03  0.34234531720E+03  0.00000000000E+00 0. -1.
         13   -1    0    0    0    0 -0.00000000000E+00 -0.00000000000E+00 -0.10000000000E+04  0.10000000000E+04  0.00000000000E+00 0.  1.
    9000005    2    1    2  501    0 -0.67261958324E+02  0.15284335192E+02 -0.88929305071E+03  0.11006551945E+04  0.64485808137E+03 0.  0.
         13    1    3    3    0    0 -0.15860991465E+03  0.29651469174E+03 -0.59512562193E+03  0.68355875630E+03  0.00000000000E+00 0.  1.
          3    1    3    3  501    0  0.91347956325E+02 -0.28123035654E+03 -0.29416742879E+03  0.41709643816E+03  0.00000000000E+00 0.  1.
         -1    1    1    2    0  502  0.67261958324E+02 -0.15284335192E+02  0.23163836791E+03  0.24169012274E+03  0.00000000000E+00 0. -1.
<mgrwt>
<rscale>  1 0.64853660E+03</rscale>
<asrwt>0</asrwt>
<pdfrwt beam="1">  1       21 0.52668509E-01 0.64853660E+03</pdfrwt>
<pdfrwt beam="2">0</pdfrwt>
<totfact> 0.31541606E+02</totfact>
</mgrwt>
</event>
<event>
 6    1  0.1386179E-004  0.6443691E+03  0.7818608E-02  0.9817403E-01
         21   -1    0    0  501  502  0.00000000000E+00  0.00000000000E+00  0.22277593976E+03  0.22277593976E+03  0.00000000000E+00 0. -1.
         13   -1    0    0    0    0 -0.00000000000E+00 -0.00000000000E+00 -0.10000000000E+04  0.10000000000E+04  0.00000000000E+00 0.  1.
    9000005    2    1    2  501    0  0.13233653639E+03 -0.10138031321E+03 -0.82737014968E+03  0.10486910264E+04  0.62243118296E+03 0.  0.
         13    1    3    3    0    0  0.16828559659E+02 -0.19310925679E+02 -0.89241307569E+03  0.89278060571E+03  0.00000000000E+00 0.  1.
          3    1    3    3  501    0  0.11550797673E+03 -0.82069387536E+02  0.65042926012E+02  0.15591042070E+03  0.00000000000E+00 0.  1.
         -3    1    1    2    0  502 -0.13233653639E+03  0.10138031321E+03  0.50146089444E+02  0.17408491335E+03  0.00000000000E+00 0. -1.
<mgrwt>
<rscale>  1 0.64436907E+03</rscale>
<asrwt>0</asrwt>
<pdfrwt beam="1">  1       21 0.34273221E-01 0.64436907E+03</pdfrwt>
<pdfrwt beam="2">0</pdfrwt>
<totfact> 0.77600530E+02</totfact>
</mgrwt>
</event>
<event>
 6    1  0.1386179E-004  0.6457699E+03  0.7818608E-02  0.9814749E-01
         21   -1    0    0  501  502  0.00000000000E+00  0.00000000000E+00  0.13172135672E+03  0.13172135672E+03  0.00000000000E+00 0.  1.
         13   -1    0    0    0    0 -0.00000000000E+00 -0.00000000000E+00 -0.10000000000E+04  0.10000000000E+04  0.00000000000E+00 0.  1.
    9000005    2    1    2  501    0  0.14679651356E+02  0.15539821976E+02 -0.89107518635E+03  0.11004697871E+04  0.64541597924E+03 0.  0.
         13    1    3    3    0    0 -0.28513963673E+02  0.24671043222E+03 -0.87702102019E+02  0.26338326103E+03  0.00000000000E+00 0.  1.
          3    1    3    3  501    0  0.43193615029E+02 -0.23117061025E+03 -0.80337308433E+03  0.83708652602E+03  0.00000000000E+00 0.  1.
         -1    1    1    2    0  502 -0.14679651356E+02 -0.15539821976E+02  0.22796543066E+02  0.31251569668E+02  0.00000000000E+00 0. -1.
<mgrwt>
<rscale>  1 0.64576990E+03</rscale>
<asrwt>0</asrwt>
<pdfrwt beam="1">  1       21 0.20264824E-01 0.64576990E+03</pdfrwt>
<pdfrwt beam="2">0</pdfrwt>
<totfact> 0.21886870E+03</totfact>
</mgrwt>
</event>
<event>
 6    1  0.1386179E-004  0.6564569E+03  0.7818608E-02  0.9794738E-01
         21   -1    0    0  501  502  0.00000000000E+00  0.00000000000E+00  0.22989246506E+03  0.22989246506E+03  0.00000000000E+00 0. -1.
         13   -1    0    0    0    0 -0.00000000000E+00 -0.00000000000E+00 -0.10000000000E+04  0.10000000000E+04  0.00000000000E+00 0.  1.
    9000005    2    1    2  501    0 -0.46089718247E+02  0.16618851730E+01 -0.88742332084E+03  0.11038368519E+04  0.65483480453E+03 0.  0.
         13    1    3    3    0    0  0.10639897096E+03  0.29727377807E+03 -0.51879870483E+03  0.60732572504E+03  0.00000000000E+00 0.  1.
          1    1    3    3  501    0 -0.15248868921E+03 -0.29561189290E+03 -0.36862461601E+03  0.49651112685E+03  0.00000000000E+00 0.  1.
         -1    1    1    2    0  502  0.46089718247E+02 -0.16618851730E+01  0.11731578591E+03  0.12605561318E+03  0.00000000000E+00 0. -1.
<mgrwt>
<rscale>  1 0.65645689E+03</rscale>
<asrwt>0</asrwt>
<pdfrwt beam="1">  1       21 0.35368071E-01 0.65645689E+03</pdfrwt>
<pdfrwt beam="2">0</pdfrwt>
<totfact> 0.72720684E+02</totfact>
</mgrwt>
</event>
<event>
 6    1  0.1386179E-004  0.6485203E+03  0.7818608E-02  0.9809560E-01
         21   -1    0    0  501  502  0.00000000000E+00  0.00000000000E+00  0.15088240129E+03  0.15088240129E+03  0.00000000000E+00 0. -1.
         13   -1    0    0    0    0 -0.00000000000E+00 -0.00000000000E+00 -0.10000000000E+04  0.10000000000E+04  0.00000000000E+00 0.  1.
    9000005    2    1    2  501    0  0.29162232020E+02  0.33168476060E+01 -0.88959144950E+03  0.11008867030E+04  0.64785580839E+03 0.  0.
         13    1    3    3    0    0  0.16746195749E+03  0.14420025814E+03 -0.87550367156E+03  0.90296395308E+03  0.00000000000E+00 0.  1.
          1    1    3    3  501    0 -0.13829972547E+03 -0.14088341054E+03 -0.14087777940E+02  0.19792274987E+03  0.00000000000E+00 0.  1.
         -3    1    1    2    0  502 -0.29162232020E+02 -0.33168476060E+01  0.40473850785E+02  0.49995698333E+02  0.00000000000E+00 0. -1.
<mgrwt>
<rscale>  1 0.64852030E+03</rscale>
<asrwt>0</asrwt>
<pdfrwt beam="1">  1       21 0.23212676E-01 0.64852030E+03</pdfrwt>
<pdfrwt beam="2">0</pdfrwt>
<totfact> 0.16832645E+03</totfact>
</mgrwt>
</event>
<event>
 6    1  0.1386179E-004  0.6711398E+03  0.7818608E-02  0.9767901E-01
         21   -1    0    0  501  502  0.00000000000E+00  0.00000000000E+00  0.58851312330E+03  0.58851312330E+03  0.00000000000E+00 0. -1.
         13   -1    0    0    0    0 -0.00000000000E+00 -0.00000000000E+00 -0.10000000000E+04  0.10000000000E+04  0.00000000000E+00 0.  1.
    9000005    2    1    2  501    0 -0.50982671916E+02  0.70224865138E+01 -0.88584410978E+03  0.11113723341E+04  0.66916375424E+03 0.  0.
         13    1    3    3    0    0 -0.10032118631E+03  0.14185329184E+03  0.36822089088E+02  0.17760226089E+03  0.00000000000E+00 0.  1.
          1    1    3    3  501    0  0.49338514393E+02 -0.13483080533E+03 -0.92266619887E+03  0.93377007320E+03  0.00000000000E+00 0.  1.
         -1    1    1    2    0  502  0.50982671916E+02 -0.70224865138E+01  0.47435723308E+03  0.47714078921E+03  0.00000000000E+00 0. -1.
<mgrwt>
<rscale>  1 0.67113984E+03</rscale>
<asrwt>0</asrwt>
<pdfrwt beam="1">  1       21 0.90540478E-01 0.67113984E+03</pdfrwt>
<pdfrwt beam="2">0</pdfrwt>
<totfact> 0.91975371E+01</totfact>
</mgrwt>
</event>
<event>
 6    1  0.1386179E-004  0.6670330E+03  0.7818608E-02  0.9775333E-01
         21   -1    0    0  501  502  0.00000000000E+00  0.00000000000E+00  0.19815617037E+03  0.19815617037E+03  0.00000000000E+00 0. -1.
         13   -1    0    0    0    0 -0.00000000000E+00 -0.00000000000E+00 -0.10000000000E+04  0.10000000000E+04  0.00000000000E+00 0.  1.
    9000005    2    1    2  501    0 -0.79387531608E+01  0.19004949439E+02 -0.88740866814E+03  0.11101473441E+04  0.66671490873E+03 0.  0.
         13    1    3    3    0    0 -0.93863859849E+02 -0.10951443350E+03  0.55577418640E+02  0.15457258746E+03  0.00000000000E+00 0.  1.
          3    1    3    3  501    0  0.85925106689E+02  0.12851938294E+03 -0.94298608678E+03  0.95557475668E+03  0.00000000000E+00 0.  1.
         -3    1    1    2    0  502  0.79387531608E+01 -0.19004949439E+02  0.85564838513E+02  0.88008826232E+02  0.00000000000E+00 0. -1.
<mgrwt>
<rscale>  1 0.66703297E+03</rscale>
<asrwt>0</asrwt>
<pdfrwt beam="1">  1       21 0.30485564E-01 0.66703297E+03</pdfrwt>
<pdfrwt beam="2">0</pdfrwt>
<totfact> 0.98160959E+02</totfact>
</mgrwt>
</event>
<event>
 6    1  0.1386179E-004  0.7937280E+03  0.7818608E-02  0.9569140E-01
         21   -1    0    0  501  502  0.00000000000E+00  0.00000000000E+00  0.44535547979E+03  0.44535547979E+03  0.00000000000E+00 0. -1.
         13   -1    0    0    0    0 -0.00000000000E+00 -0.00000000000E+00 -0.10000000000E+04  0.10000000000E+04  0.00000000000E+00 0.  1.
    9000005    2    1    2  501    0 -0.34792855707E+03  0.31173688813E+03 -0.57122323884E+03  0.97790599358E+03  0.64169305391E+03 0.  0.
         13    1    3    3    0    0  0.19074353513E+03  0.78165114121E+02 -0.16317316445E+03  0.26290371404E+03  0.00000000000E+00 0.  1.
          1    1    3    3  501    0 -0.53867209220E+03  0.23357177401E+03 -0.40805007440E+03  0.71500227954E+03  0.00000000000E+00 0.  1.
         -3    1    1    2    0  502  0.34792855707E+03 -0.31173688813E+03  0.16578718633E+02  0.46744948621E+03  0.00000000000E+00 0. -1.
<mgrwt>
<rscale>  1 0.79372800E+03</rscale>
<asrwt>0</asrwt>
<pdfrwt beam="1">  1       21 0.68516226E-01 0.79372800E+03</pdfrwt>
<pdfrwt beam="2">0</pdfrwt>
<totfact> 0.17366341E+02</totfact>
</mgrwt>
</event>
<event>
 6    1  0.1386179E-004  0.6415086E+03  0.7818608E-02  0.9822844E-01
         21   -1    0    0  501  502  0.00000000000E+00  0.00000000000E+00  0.33252411203E+03  0.33252411203E+03  0.00000000000E+00 0. -1.
         13   -1    0    0    0    0 -0.00000000000E+00 -0.00000000000E+00 -0.10000000000E+04  0.10000000000E+04  0.00000000000E+00 0.  1.
    9000005    2    1    2  501    0 -0.68445502811E+01 -0.51261173471E+02 -0.89390035377E+03  0.11002686611E+04  0.63942061928E+03 0.  0.
         13    1    3    3    0    0 -0.16901779158E+03 -0.12054268136E+03 -0.90017656059E+03  0.92380484526E+03  0.00000000000E+00 0.  1.
          3    1    3    3  501    0  0.16217324130E+03  0.69281507884E+02  0.62762068225E+01  0.17646381584E+03  0.00000000000E+00 0.  1.
         -3    1    1    2    0  502  0.68445502811E+01  0.51261173471E+02  0.22642446580E+03  0.23225545093E+03  0.00000000000E+00 0. -1.
<mgrwt>
<rscale>  1 0.64150860E+03</rscale>
<asrwt>0</asrwt>
<pdfrwt beam="1">  1       21 0.51157554E-01 0.64150860E+03</pdfrwt>
<pdfrwt beam="2">0</pdfrwt>
<totfact> 0.33607597E+02</totfact>
</mgrwt>
</event>
<event>
 6    1  0.1386179E-004  0.1096618E+04  0.7818608E-02  0.9208494E-01
         21   -1    0    0  501  502  0.00000000000E+00  0.00000000000E+00  0.21319807125E+04  0.21319807125E+04  0.00000000000E+00 0. -1.
         13   -1    0    0    0    0 -0.00000000000E+00 -0.00000000000E+00 -0.10000000000E+04  0.10000000000E+04  0.00000000000E+00 0.  1.
    9000005    2    1    2  501    0  0.42697588326E+03 -0.78243418242E+03 -0.55120021351E+03  0.12273522226E+04  0.63879585810E+03 0.  0.
         13    1    3    3    0    0  0.48574832583E+03 -0.27256741540E+03 -0.15264541552E+03  0.57753359631E+03  0.00000000000E+00 0.  1.
          3    1    3    3  501    0 -0.58772442570E+02 -0.50986676701E+03 -0.39855479799E+03  0.64981862632E+03  0.00000000000E+00 0.  1.
         -3    1    1    2    0  502 -0.42697588326E+03  0.78243418242E+03  0.16831809260E+04  0.19046284898E+04  0.00000000000E+00 0. -1.
<mgrwt>
<rscale>  1 0.10966183E+04</rscale>
<asrwt>0</asrwt>
<pdfrwt beam="1">  1       21 0.32799702E+00 0.10966183E+04</pdfrwt>
<pdfrwt beam="2">0</pdfrwt>
<totfact> 0.15364516E+00</totfact>
</mgrwt>
</event>
<event>
 6    1  0.1386179E-004  0.6436119E+03  0.7818608E-02  0.9818840E-01
         21   -1    0    0  501  502  0.00000000000E+00  0.00000000000E+00  0.35759432787E+03  0.35759432787E+03  0.00000000000E+00 0. -1.
         13   -1    0    0    0    0 -0.00000000000E+00 -0.00000000000E+00 -0.10000000000E+04  0.10000000000E+04  0.00000000000E+00 0.  1.
    9000005    2    1    2  501    0 -0.10390170094E+02 -0.26852713625E+02 -0.89554021804E+03  0.11028275282E+04  0.64296753498E+03 0.  0.
         13    1    3    3    0    0 -0.66794176085E+02 -0.65284586348E+02 -0.98549460995E+03  0.98991068557E+03  0.00000000000E+00 0.  1.
          3    1    3    3  501    0  0.56404005991E+02  0.38431872723E+02  0.89954391907E+02  0.11291684266E+03  0.00000000000E+00 0.  1.
         -3    1    1    2    0  502  0.10390170094E+02  0.26852713625E+02  0.25313454591E+03  0.25476679964E+03  0.00000000000E+00 0. -1.
<mgrwt>
<rscale>  1 0.64361190E+03</rscale>
<asrwt>0</asrwt>
<pdfrwt beam="1">  1       21 0.55014510E-01 0.64361190E+03</pdfrwt>
<pdfrwt beam="2">0</pdfrwt>
<totfact> 0.28712198E+02</totfact>
</mgrwt>
</event>
<event>
 6    1  0.1386179E-004  0.6446895E+03  0.7818608E-02  0.9816795E-01
         21   -1    0    0  501  502  0.00000000000E+00  0.00000000000E+00  0.23195652201E+03  0.23195652201E+03  0.00000000000E+00 0. -1.
         13   -1    0    0    0    0 -0.00000000000E+00 -0.00000000000E+00 -0.10000000000E+04  0.10000000000E+04  0.00000000000E+00 0.  1.
    9000005    2    1    2  501    0 -0.18627717251E+02 -0.96192824149E+02 -0.87503409782E+03  0.10868805281E+04  0.63720056406E+03 0.  0.
         13    1    3    3    0    0  0.96791916331E+02 -0.47193732558E+02 -0.93966425258E+03  0.94581437451E+03  0.00000000000E+00 0.  1.
          1    1    3    3  501    0 -0.11541963358E+03 -0.48999091591E+02  0.64630154765E+02  0.14106615362E+03  0.00000000000E+00 0.  1.
         -1    1    1    2    0  502  0.18627717251E+02  0.96192824149E+02  0.10699061983E+03  0.14507599388E+03  0.00000000000E+00 0. -1.
<mgrwt>
<rscale>  1 0.64468955E+03</rscale>
<asrwt>0</asrwt>
<pdfrwt beam="1">  1       21 0.35685618E-01 0.64468955E+03</pdfrwt>
<pdfrwt beam="2">0</pdfrwt>
<totfact> 0.71466487E+02</totfact>
</mgrwt>
</event>
<event>
 6    1  0.1386179E-004  0.6445292E+03  0.7818608E-02  0.9817099E-01
         21   -1    0    0  501  502  0.00000000000E+00  0.00000000000E+00  0.22875769824E+03  0.22875769824E+03  0.00000000000E+00 0. -1.
         13   -1    0    0    0    0 -0.00000000000E+00 -0.00000000000E+00 -0.10000000000E+04  0.10000000000E+04  0.00000000000E+00 0.  1.
    9000005    2    1    2  501    0 -0.48368569511E+02 -0.42791146456E+02 -0.88685811217E+03  0.10963280326E+04  0.64128561744E+03 0.  0.
         13    1    3    3    0    0  0.96675409645E+02 -0.21783265189E+03 -0.82784531245E+03  0.86146680749E+03  0.00000000000E+00 0.  1.
          1    1    3    3  501    0 -0.14504397916E+03  0.17504150543E+03 -0.59012799721E+02  0.23486122508E+03  0.00000000000E+00 0.  1.
         -1    1    1    2    0  502  0.48368569511E+02  0.42791146456E+02  0.11561581042E+03  0.13242966567E+03  0.00000000000E+00 0. -1.
<mgrwt>
<rscale>  1 0.64452916E+03</rscale>
<asrwt>0</asrwt>
<pdfrwt beam="1">  1       21 0.35193491E-01 0.64452916E+03</pdfrwt>
<pdfrwt beam="2">0</pdfrwt>
<totfact> 0.73522759E+02</totfact>
</mgrwt>
</event>
<event>
 6    1  0.1386179E-004  0.6552887E+03  0.7818608E-02  0.9796906E-01
         21   -1    0    0  501  502  0.00000000000E+00  0.00000000000E+00  0.21159246862E+03  0.21159246862E+03  0.00000000000E+00 0.  1.
         13   -1    0    0    0    0 -0.00000000000E+00 -0.00000000000E+00 -0.10000000000E+04  0.10000000000E+04  0.00000000000E+00 0.  1.
    9000005    2    1    2  501    0  0.62493989768E+02 -0.13787246599E+02 -0.88164827064E+03  0.10985021402E+04  0.65215618677E+03 0.  0.
         13    1    3    3    0    0 -0.95809066469E+02  0.29317985861E+03 -0.37932724376E+03  0.48889974900E+03  0.00000000000E+00 0.  1.
          1    1    3    3  501    0  0.15830305624E+03 -0.30696710521E+03 -0.50232102689E+03  0.60960239119E+03  0.00000000000E+00 0.  1.
         -3    1    1    2    0  502 -0.62493989768E+02  0.13787246599E+02  0.93240739268E+02  0.11309032843E+03  0.00000000000E+00 0. -1.
<mgrwt>
<rscale>  1 0.65528870E+03</rscale>
<asrwt>0</asrwt>
<pdfrwt beam="1">  1       21 0.32552687E-01 0.65528870E+03</pdfrwt>
<pdfrwt beam="2">0</pdfrwt>
<totfact> 0.86076511E+02</totfact>
</mgrwt>
</event>
<event>
 6    1  0.1386179E-004  0.6495407E+03  0.7818608E-02  0.9807641E-01
         21   -1    0    0  501  502  0.00000000000E+00  0.00000000000E+00  0.27207132166E+03  0.27207132166E+03  0.00000000000E+00 0. -1.
         13   -1    0    0    0    0 -0.00000000000E+00 -0.00000000000E+00 -0.10000000000E+04  0.10000000000E+04  0.00000000000E+00 0.  1.
    9000005    2    1    2  501    0  0.35421420632E+02  0.10869307511E+02 -0.89224340118E+03  0.11036309850E+04  0.64848303379E+03 0.  0.
         13    1    3    3    0    0 -0.67118234003E+02  0.23353842522E+03 -0.80968117077E+02  0.25612670570E+03  0.00000000000E+00 0.  1.
          1    1    3    3  501    0  0.10253965463E+03 -0.22266911771E+03 -0.81127528411E+03  0.84750427926E+03  0.00000000000E+00 0.  1.
         -1    1    1    2    0  502 -0.35421420632E+02 -0.10869307511E+02  0.16431472284E+03  0.16844033670E+03  0.00000000000E+00 0. -1.
<mgrwt>
<rscale>  1 0.64954066E+03</rscale>
<asrwt>0</asrwt>
<pdfrwt beam="1">  1       21 0.41857125E-01 0.64954066E+03</pdfrwt>
<pdfrwt beam="2">0</pdfrwt>
<totfact> 0.51383078E+02</totfact>
</mgrwt>
</event>
<event>
 6    1  0.1386179E-004  0.6535130E+03  0.7818608E-02  0.9800209E-01
         21   -1    0    0  501  502  0.00000000000E+00  0.00000000000E+00  0.20357624442E+03  0.20357624442E+03  0.00000000000E+00 0. -1.
         13   -1    0    0    0    0 -0.00000000000E+00 -0.00000000000E+00 -0.10000000000E+04  0.10000000000E+04  0.00000000000E+00 0.  1.
    9000005    2    1    2  501    0  0.16796736972E+02 -0.20973334085E+02 -0.89116188447E+03  0.11051012517E+04  0.65296038253E+03 0.  0.
         13    1    3    3    0    0 -0.27839446117E+03 -0.16650119146E+03 -0.44584138890E+03  0.55136255479E+03  0.00000000000E+00 0.  1.
          3    1    3    3  501    0  0.29519119814E+03  0.14552785738E+03 -0.44532049558E+03  0.55373869696E+03  0.00000000000E+00 0.  1.
         -1    1    1    2    0  502 -0.16796736972E+02  0.20973334085E+02  0.94738128895E+02  0.98474992674E+02  0.00000000000E+00 0. -1.
<mgrwt>
<rscale>  1 0.65351302E+03</rscale>
<asrwt>0</asrwt>
<pdfrwt beam="1">  1       21 0.31319421E-01 0.65351302E+03</pdfrwt>
<pdfrwt beam="2">0</pdfrwt>
<totfact> 0.93060222E+02</totfact>
</mgrwt>
</event>
<event>
 6    1  0.1386179E-004  0.5176815E+03  0.7818608E-02  0.1009264E+00
         21   -1    0    0  501  502  0.00000000000E+00  0.00000000000E+00  0.17851938301E+03  0.17851938301E+03  0.00000000000E+00 0. -1.
         13   -1    0    0    0    0 -0.00000000000E+00 -0.00000000000E+00 -0.10000000000E+04  0.10000000000E+04  0.00000000000E+00 0.  1.
    9000005    2    1    2  501    0 -0.11810750558E+03  0.24355828758E+02 -0.89740502930E+03  0.10360163807E+04  0.50343973353E+03 0.  0.
         13    1    3    3    0    0 -0.29642389367E+03  0.58792036322E+02 -0.36715457551E+03  0.47552719228E+03  0.00000000000E+00 0.  1.
          1    1    3    3  501    0  0.17831638809E+03 -0.34436207564E+02 -0.53025045379E+03  0.56048918847E+03  0.00000000000E+00 0.  1.
         -3    1    1    2    0  502  0.11810750558E+03 -0.24355828758E+02  0.75924412314E+02  0.14250300226E+03  0.00000000000E+00 0. -1.
<mgrwt>
<rscale>  1 0.51768152E+03</rscale>
<asrwt>0</asrwt>
<pdfrwt beam="1">  1       21 0.27464520E-01 0.51768152E+03</pdfrwt>
<pdfrwt beam="2">0</pdfrwt>
<totfact> 0.12202670E+03</totfact>
</mgrwt>
</event>
<event>
 6    1  0.1386179E-004  0.6419559E+03  0.7818608E-02  0.9821992E-01
         21   -1    0    0  501  502  0.00000000000E+00  0.00000000000E+00  0.11543230469E+03  0.11543230469E+03  0.00000000000E+00 0.  1.
         13   -1    0    0    0    0 -0.00000000000E+00 -0.00000000000E+00 -0.10000000000E+04  0.10000000000E+04  0.00000000000E+00 0.  1.
    9000005    2    1    2  501    0 -0.36062671262E+02  0.10193759342E+02 -0.83190571186E+03  0.10507970706E+04  0.64086109347E+03 0.  0.
         13    1    3    3    0    0 -0.23421727686E+03  0.16225155468E+03 -0.72523752978E+03  0.77920008622E+03  0.00000000000E+00 0.  1.
          3    1    3    3  501    0  0.19815460559E+03 -0.15205779534E+03 -0.10666818208E+03  0.27159698435E+03  0.00000000000E+00 0.  1.
         -3    1    1    2    0  502  0.36062671262E+02 -0.10193759342E+02 -0.52661983451E+02  0.64635234115E+02  0.00000000000E+00 0. -1.
<mgrwt>
<rscale>  1 0.64195589E+03</rscale>
<asrwt>0</asrwt>
<pdfrwt beam="1">  1       21 0.17758816E-01 0.64195589E+03</pdfrwt>
<pdfrwt beam="2">0</pdfrwt>
<totfact> 0.28156931E+03</totfact>
</mgrwt>
</event>
<event>
 6    1  0.1386179E-004  0.7358146E+03  0.7818608E-02  0.9657872E-01
         21   -1    0    0  501  502  0.00000000000E+00  0.00000000000E+00  0.17221459965E+03  0.17221459965E+03  0.00000000000E+00 0.  1.
         13   -1    0    0    0    0 -0.00000000000E+00 -0.00000000000E+00 -0.10000000000E+04  0.10000000000E+04  0.00000000000E+00 0.  1.
    9000005    2    1    2  501    0 -0.18975099833E+02 -0.26762941882E+02 -0.85611131594E+03  0.11288710077E+04  0.73508289137E+03 0.  0.
         13    1    3    3    0    0 -0.20477252151E+03 -0.31614787190E+03 -0.33253117648E+03  0.50245223236E+03  0.00000000000E+00 0.  1.
          3    1    3    3  501    0  0.18579742167E+03  0.28938493001E+03 -0.52358013946E+03  0.62641877531E+03  0.00000000000E+00 0.  1.
         -3    1    1    2    0  502  0.18975099833E+02  0.26762941882E+02  0.28325915590E+02  0.43343591982E+02  0.00000000000E+00 0. -1.
<mgrwt>
<rscale>  1 0.73581463E+03</rscale>
<asrwt>0</asrwt>
<pdfrwt beam="1">  1       21 0.26494553E-01 0.73581463E+03</pdfrwt>
<pdfrwt beam="2">0</pdfrwt>
<totfact> 0.12932577E+03</totfact>
</mgrwt>
</event>
<event>
 6    1  0.1386179E-004  0.6510735E+03  0.7818608E-02  0.9804767E-01
         21   -1    0    0  501  502  0.00000000000E+00  0.00000000000E+00  0.35198049351E+03  0.35198049351E+03  0.00000000000E+00 0. -1.
         13   -1    0    0    0    0 -0.00000000000E+00 -0.00000000000E+00 -0.10000000000E+04  0.10000000000E+04  0.00000000000E+00 0.  1.
    9000005    2    1    2  501    0  0.27660575791E+02  0.13141471520E+02 -0.89297127061E+03  0.11051218853E+04  0.65035289298E+03 0.  0.
         13    1    3    3    0    0  0.17844221084E+03  0.28690374766E+03 -0.48879054309E+03  0.59419826493E+03  0.00000000000E+00 0.  1.
          1    1    3    3  501    0 -0.15078163505E+03 -0.27376227614E+03 -0.40418072752E+03  0.51092362033E+03  0.00000000000E+00 0.  1.
         -3    1    1    2    0  502 -0.27660575791E+02 -0.13141471520E+02  0.24495176411E+03  0.24685860825E+03  0.00000000000E+00 0. -1.
<mgrwt>
<rscale>  1 0.65107349E+03</rscale>
<asrwt>0</asrwt>
<pdfrwt beam="1">  1       21 0.54150844E-01 0.65107349E+03</pdfrwt>
<pdfrwt beam="2">0</pdfrwt>
<totfact> 0.29693975E+02</totfact>
</mgrwt>
</event>
<event>
 6    1  0.1386179E-004  0.6291049E+03  0.7818608E-02  0.9846797E-01
         21   -1    0    0  501  502  0.00000000000E+00  0.00000000000E+00  0.18181071751E+03  0.18181071751E+03  0.00000000000E+00 0.  1.
         13   -1    0    0    0    0 -0.00000000000E+00 -0.00000000000E+00 -0.10000000000E+04  0.10000000000E+04  0.00000000000E+00 0.  1.
    9000005    2    1    2  501    0  0.84756595629E+01 -0.36012363406E+02 -0.89649453038E+03  0.10952056428E+04  0.62801610635E+03 0.  0.
         13    1    3    3    0    0  0.62402152401E+02  0.11630779280E+03 -0.92219273746E+03  0.93159056259E+03  0.00000000000E+00 0.  1.
          3    1    3    3  501    0 -0.53926492838E+02 -0.15232015620E+03  0.25698207080E+02  0.16361508018E+03  0.00000000000E+00 0.  1.
         -1    1    1    2    0  502 -0.84756595629E+01  0.36012363406E+02  0.78305247894E+02  0.86605074741E+02  0.00000000000E+00 0. -1.
<mgrwt>
<rscale>  1 0.62910489E+03</rscale>
<asrwt>0</asrwt>
<pdfrwt beam="1">  1       21 0.27970879E-01 0.62910489E+03</pdfrwt>
<pdfrwt beam="2">0</pdfrwt>
<totfact> 0.11683287E+03</totfact>
</mgrwt>
</event>
<event>
 6    1  0.1386179E-004  0.7160349E+03  0.7818608E-02  0.9690197E-01
         21   -1    0    0  501  502  0.00000000000E+00  0.00000000000E+00  0.32112426610E+03  0.32112426610E+03  0.00000000000E+00 0. -1.
         13   -1    0    0    0    0 -0.00000000000E+00 -0.00000000000E+00 -0.10000000000E+04  0.10000000000E+04  0.00000000000E+00 0.  1.
    9000005    2    1    2  501    0  0.14667448159E+03 -0.25363991199E+03 -0.73129778085E+03  0.10234756822E+04  0.65334479352E+03 0.  0.
         13    1    3    3    0    0 -0.12108251218E+02 -0.32480098761E+03 -0.60667134899E+02  0.33063997422E+03  0.00000000000E+00 0.  1.
          1    1    3    3  501    0  0.15878273281E+03  0.71161075611E+02 -0.67063064595E+03  0.69283570795E+03  0.00000000000E+00 0.  1.
         -1    1    1    2    0  502 -0.14667448159E+03  0.25363991199E+03  0.52422046955E+02  0.29764858393E+03  0.00000000000E+00 0. -1.
<mgrwt>
<rscale>  1 0.71603493E+03</rscale>
<asrwt>0</asrwt>
<pdfrwt beam="1">  1       21 0.49403732E-01 0.71603493E+03</pdfrwt>
<pdfrwt beam="2">0</pdfrwt>
<totfact> 0.35973924E+02</totfact>
</mgrwt>
</event>
<event>
 6    1  0.1386179E-004  0.6354150E+03  0.7818608E-02  0.9834538E-01
         21   -1    0    0  501  502  0.00000000000E+00  0.00000000000E+00  0.72579399926E+03  0.72579399926E+03  0.00000000000E+00 0. -1.
         13   -1    0    0    0    0 -0.00000000000E+00 -0.00000000000E+00 -0.10000000000E+04  0.10000000000E+04  0.00000000000E+00 0.  1.
    9000005    2    1    2  501    0 -0.77451899509E+01 -0.19993627024E+02 -0.89885941825E+03  0.11007726995E+04  0.63505318610E+03 0.  0.
         13    1    3    3    0    0  0.32500401493E+02  0.15064635922E+03  0.28723722890E+02  0.15676623967E+03  0.00000000000E+00 0.  1.
          1    1    3    3  501    0 -0.40245591444E+02 -0.17063998625E+03 -0.92758314114E+03  0.94400645987E+03  0.00000000000E+00 0.  1.
         -3    1    1    2    0  502  0.77451899509E+01  0.19993627024E+02  0.62465341751E+03  0.62502129971E+03  0.00000000000E+00 0. -1.
<mgrwt>
<rscale>  1 0.63541505E+03</rscale>
<asrwt>0</asrwt>
<pdfrwt beam="1">  1       21 0.11166061E+00 0.63541505E+03</pdfrwt>
<pdfrwt beam="2">0</pdfrwt>
<totfact> 0.55253890E+01</totfact>
</mgrwt>
</event>
<event>
 6    1  0.1386179E-004  0.7585126E+03  0.7818608E-02  0.9622089E-01
         21   -1    0    0  501  502  0.00000000000E+00  0.00000000000E+00  0.18981107899E+03  0.18981107899E+03  0.00000000000E+00 0.  1.
         13   -1    0    0    0    0 -0.00000000000E+00 -0.00000000000E+00 -0.10000000000E+04  0.10000000000E+04  0.00000000000E+00 0.  1.
    9000005    2    1    2  501    0 -0.45658751733E+02 -0.96950006236E+02 -0.75094738006E+03  0.10673627818E+04  0.75090433143E+03 0.  0.
         13    1    3    3    0    0  0.33951356318E+03 -0.11663054527E+03 -0.46396146621E+03  0.58662797905E+03  0.00000000000E+00 0.  1.
          1    1    3    3  501    0 -0.38517231492E+03  0.19680539033E+02 -0.28698591386E+03  0.48073480272E+03  0.00000000000E+00 0.  1.
         -3    1    1    2    0  502  0.45658751733E+02  0.96950006236E+02 -0.59241540946E+02  0.12244829722E+03  0.00000000000E+00 0. -1.
<mgrwt>
<rscale>  1 0.75851258E+03</rscale>
<asrwt>0</asrwt>
<pdfrwt beam="1">  1       21 0.29201704E-01 0.75851258E+03</pdfrwt>
<pdfrwt beam="2">0</pdfrwt>
<totfact> 0.10644229E+03</totfact>
</mgrwt>
</event>
<event>
 6    1  0.1386179E-004  0.6258428E+03  0.7818608E-02  0.9853195E-01
         21   -1    0    0  501  502  0.00000000000E+00  0.00000000000E+00  0.11863120076E+03  0.11863120076E+03  0.00000000000E+00 0.  1.
         13   -1    0    0    0    0 -0.00000000000E+00 -0.00000000000E+00 -0.10000000000E+04  0.10000000000E+04  0.00000000000E+00 0.  1.
    9000005    2    1    2  501    0  0.11474707128E+02  0.23201333903E+02 -0.89282273256E+03  0.10903263710E+04  0.62530727866E+03 0.  0.
         13    1    3    3    0    0  0.60547388803E+02 -0.22027761225E+03 -0.78850934137E+03  0.82093556031E+03  0.00000000000E+00 0.  1.
          1    1    3    3  501    0 -0.49072681675E+02  0.24347894616E+03 -0.10431339119E+03  0.26939081070E+03  0.00000000000E+00 0.  1.
         -3    1    1    2    0  502 -0.11474707128E+02 -0.23201333903E+02  0.11453933322E+02  0.28304829749E+02  0.00000000000E+00 0. -1.
<mgrwt>
<rscale>  1 0.62584276E+03</rscale>
<asrwt>0</asrwt>
<pdfrwt beam="1">  1       21 0.18250953E-01 0.62584276E+03</pdfrwt>
<pdfrwt beam="2">0</pdfrwt>
<totfact> 0.26749004E+03</totfact>
</mgrwt>
</event>
<event>
 6    1  0.1386179E-004  0.6596027E+03  0.7818608E-02  0.9788925E-01
         21   -1    0    0  501  502  0.00000000000E+00  0.00000000000E+00  0.14611867878E+03  0.14611867878E+03  0.00000000000E+00 0.  1.
         13   -1    0    0    0    0 -0.00000000000E+00 -0.00000000000E+00 -0.10000000000E+04  0.10000000000E+04  0.00000000000E+00 0.  1.
    9000005    2    1    2  501    0  0.52446151093E+02  0.87709733680E+02 -0.77013232531E+03  0.10139918819E+04  0.65163804514E+03 0.  0.
         13    1    3    3    0    0 -0.26577815918E+02  0.26958870608E+03 -0.76938863912E+03  0.81568580271E+03  0.00000000000E+00 0.  1.
          1    1    3    3  501    0  0.79023967010E+02 -0.18187897240E+03 -0.74368619161E+00  0.19830607916E+03  0.00000000000E+00 0.  1.
         -3    1    1    2    0  502 -0.52446151093E+02 -0.87709733680E+02 -0.83748995906E+02  0.13212679691E+03  0.00000000000E+00 0. -1.
<mgrwt>
<rscale>  1 0.65960271E+03</rscale>
<asrwt>0</asrwt>
<pdfrwt beam="1">  1       21 0.22479796E-01 0.65960271E+03</pdfrwt>
<pdfrwt beam="2">0</pdfrwt>
<totfact> 0.17905822E+03</totfact>
</mgrwt>
</event>
<event>
 6    1  0.1386179E-004  0.6614454E+03  0.7818608E-02  0.9785537E-01
         21   -1    0    0  501  502  0.00000000000E+00  0.00000000000E+00  0.12427823799E+04  0.12427823799E+04  0.00000000000E+00 0. -1.
         13   -1    0    0    0    0 -0.00000000000E+00 -0.00000000000E+00 -0.10000000000E+04  0.10000000000E+04  0.00000000000E+00 0.  1.
    9000005    2    1    2  501    0  0.32924115180E+02 -0.17881720647E+02 -0.89027899243E+03  0.11091017252E+04  0.66038337294E+03 0.  0.
         13    1    3    3    0    0 -0.10684590060E+03  0.15074051125E+03 -0.86970947778E+03  0.88911940928E+03  0.00000000000E+00 0.  1.
          3    1    3    3  501    0  0.13977001578E+03 -0.16862223189E+03 -0.20569514650E+02  0.21998231596E+03  0.00000000000E+00 0.  1.
         -3    1    1    2    0  502 -0.32924115180E+02  0.17881720647E+02  0.11330613723E+04  0.11336806547E+04  0.00000000000E+00 0. -1.
<mgrwt>
<rscale>  1 0.66144535E+03</rscale>
<asrwt>0</asrwt>
<pdfrwt beam="1">  1       21 0.19119728E+00 0.66144535E+03</pdfrwt>
<pdfrwt beam="2">0</pdfrwt>
<totfact> 0.12567453E+01</totfact>
</mgrwt>
</event>
<event>
 6    1  0.1386179E-004  0.6652729E+03  0.7818608E-02  0.9778535E-01
         21   -1    0    0  501  502  0.00000000000E+00  0.00000000000E+00  0.38273049714E+03  0.38273049714E+03  0.00000000000E+00 0.  1.
         13   -1    0    0    0    0 -0.00000000000E+00 -0.00000000000E+00 -0.10000000000E+04  0.10000000000E+04  0.00000000000E+00 0.  1.
    9000005    2    1    2  501    0 -0.28105548547E+02  0.91150234975E+01 -0.88846173762E+03  0.11099334412E+04  0.66461641514E+03 0.  0.
         13    1    3    3    0    0 -0.62975042420E+02 -0.29407627011E+03 -0.21242038752E+03  0.36819713422E+03  0.00000000000E+00 0.  1.
          3    1    3    3  501    0  0.34869493873E+02  0.30319129361E+03 -0.67604135009E+03  0.74173630703E+03  0.00000000000E+00 0.  1.
         -3    1    1    2    0  502  0.28105548547E+02 -0.91150234975E+01  0.27119223476E+03  0.27279705589E+03  0.00000000000E+00 0. -1.
<mgrwt>
<rscale>  1 0.66527286E+03</rscale>
<asrwt>0</asrwt>
<pdfrwt beam="1">  1       21 0.58881613E-01 0.66527286E+03</pdfrwt>
<pdfrwt beam="2">0</pdfrwt>
<totfact> 0.24689014E+02</totfact>
</mgrwt>
</event>
<event>
 6    1  0.1386179E-004  0.6492558E+03  0.7818608E-02  0.9808177E-01
         21   -1    0    0  501  502  0.00000000000E+00  0.00000000000E+00  0.23818015791E+03  0.23818015791E+03  0.00000000000E+00 0. -1.
         13   -1    0    0    0    0 -0.00000000000E+00 -0.00000000000E+00 -0.10000000000E+04  0.10000000000E+04  0.00000000000E+00 0.  1.
    9000005    2    1    2  501    0 -0.37218138475E+02 -0.90529766074E+02 -0.87434386599E+03  0.10890410137E+04  0.64183510747E+03 0.  0.
         13    1    3    3    0    0 -0.84581124908E+02 -0.28999044787E+03 -0.82445449741E+03  0.87805104911E+03  0.00000000000E+00 0.  1.
          3    1    3    3  501    0  0.47362986433E+02  0.19946068179E+03 -0.49889368577E+02  0.21098996460E+03  0.00000000000E+00 0.  1.
         -1    1    1    2    0  502  0.37218138475E+02  0.90529766074E+02  0.11252402390E+03  0.14913914420E+03  0.00000000000E+00 0. -1.
<mgrwt>
<rscale>  1 0.64925583E+03</rscale>
<asrwt>0</asrwt>
<pdfrwt beam="1">  1       21 0.36643100E-01 0.64925583E+03</pdfrwt>
<pdfrwt beam="2">0</pdfrwt>
<totfact> 0.67672703E+02</totfact>
</mgrwt>
</event>
<event>
 6    1  0.1386179E-004  0.6332247E+03  0.7818608E-02  0.9838776E-01
         21   -1    0    0  501  502  0.00000000000E+00  0.00000000000E+00  0.11900971674E+03  0.11900971674E+03  0.00000000000E+00 0.  1.
         13   -1    0    0    0    0 -0.00000000000E+00 -0.00000000000E+00 -0.10000000000E+04  0.10000000000E+04  0.00000000000E+00 0.  1.
    9000005    2    1    2  501    0 -0.29043057917E+02 -0.26198748572E+02 -0.87399121253E+03  0.10792748375E+04  0.63201555484E+03 0.  0.
         13    1    3    3    0    0 -0.38651867251E+02 -0.29218568595E+03 -0.20425664879E+03  0.35859060290E+03  0.00000000000E+00 0.  1.
          3    1    3    3  501    0  0.96088093340E+01  0.26598693738E+03 -0.66973456375E+03  0.72068423456E+03  0.00000000000E+00 0.  1.
         -3    1    1    2    0  502  0.29043057917E+02  0.26198748572E+02 -0.69990707262E+01  0.39734879274E+02  0.00000000000E+00 0. -1.
<mgrwt>
<rscale>  1 0.63322471E+03</rscale>
<asrwt>0</asrwt>
<pdfrwt beam="1">  1       21 0.18309187E-01 0.63322471E+03</pdfrwt>
<pdfrwt beam="2">0</pdfrwt>
<totfact> 0.26580765E+03</totfact>
</mgrwt>
</event>
<event>
 6    1  0.1386179E-004  0.6472463E+03  0.7818608E-02  0.9811960E-01
         21   -1    0    0  501  502  0.00000000000E+00  0.00000000000E+00  0.15779861948E+03  0.15779861948E+03  0.00000000000E+00 0.  1.
         13   -1    0    0    0    0 -0.00000000000E+00 -0.00000000000E+00 -0.10000000000E+04  0.10000000000E+04  0.00000000000E+00 0.  1.
    9000005    2    1    2  501    0  0.29183392033E+02 -0.13290210374E+03 -0.76226208666E+03  0.99998565978E+03  0.63278210424E+03 0.  0.
         13    1    3    3    0    0 -0.50927622290E+02 -0.31529839332E+03 -0.14386227704E+03  0.35028995746E+03  0.00000000000E+00 0.  1.
          3    1    3    3  501    0  0.80111014323E+02  0.18239628958E+03 -0.61839980962E+03  0.64969570232E+03  0.00000000000E+00 0.  1.
         -1    1    1    2    0  502 -0.29183392033E+02  0.13290210374E+03 -0.79939293854E+02  0.15781295970E+03  0.00000000000E+00 0. -1.
<mgrwt>
<rscale>  1 0.64724634E+03</rscale>
<asrwt>0</asrwt>
<pdfrwt beam="1">  1       21 0.24276710E-01 0.64724634E+03</pdfrwt>
<pdfrwt beam="2">0</pdfrwt>
<totfact> 0.15425122E+03</totfact>
</mgrwt>
</event>
<event>
 6    1  0.1386179E-004  0.6523926E+03  0.7818608E-02  0.9802300E-01
         21   -1    0    0  501  502  0.00000000000E+00  0.00000000000E+00  0.14018054649E+03  0.14018054649E+03  0.00000000000E+00 0.  1.
         13   -1    0    0    0    0 -0.00000000000E+00 -0.00000000000E+00 -0.10000000000E+04  0.10000000000E+04  0.00000000000E+00 0.  1.
    9000005    2    1    2  501    0  0.79690797054E+02 -0.43846883664E+02 -0.79537843319E+03  0.10287093958E+04  0.64602089490E+03 0.  0.
         13    1    3    3    0    0  0.73774455582E+02  0.29974129135E+03 -0.36903586556E+03  0.48111846992E+03  0.00000000000E+00 0.  1.
          3    1    3    3  501    0  0.59163414720E+01 -0.34358817501E+03 -0.42634256764E+03  0.54759092586E+03  0.00000000000E+00 0.  1.
         -1    1    1    2    0  502 -0.79690797054E+02  0.43846883664E+02 -0.64441020313E+02  0.11147115071E+03  0.00000000000E+00 0. -1.
<mgrwt>
<rscale>  1 0.65239265E+03</rscale>
<asrwt>0</asrwt>
<pdfrwt beam="1">  1       21 0.21566237E-01 0.65239265E+03</pdfrwt>
<pdfrwt beam="2">0</pdfrwt>
<totfact> 0.19409326E+03</totfact>
</mgrwt>
</event>
<event>
 6    1  0.1386179E-004  0.6653108E+03  0.7818608E-02  0.9778466E-01
         21   -1    0    0  501  502  0.00000000000E+00  0.00000000000E+00  0.37736852858E+03  0.37736852858E+03  0.00000000000E+00 0. -1.
         13   -1    0    0    0    0 -0.00000000000E+00 -0.00000000000E+00 -0.10000000000E+04  0.10000000000E+04  0.00000000000E+00 0.  1.
    9000005    2    1    2  501    0 -0.16440006976E+03  0.22814710763E+02 -0.86026074911E+03  0.10875141383E+04  0.64427521334E+03 0.  0.
         13    1    3    3    0    0  0.12181952525E+03 -0.13698340242E+03 -0.69814576183E+03  0.72181157793E+03  0.00000000000E+00 0.  1.
          3    1    3    3  501    0 -0.28621959501E+03  0.15979811318E+03 -0.16211498728E+03  0.36570256035E+03  0.00000000000E+00 0.  1.
         -3    1    1    2    0  502  0.16440006976E+03 -0.22814710763E+02  0.23762927769E+03  0.28985439030E+03  0.00000000000E+00 0. -1.
<mgrwt>
<rscale>  1 0.66531079E+03</rscale>
<asrwt>0</asrwt>
<pdfrwt beam="1">  1       21 0.58056695E-01 0.66531079E+03</pdfrwt>
<pdfrwt beam="2">0</pdfrwt>
<totfact> 0.25467636E+02</totfact>
</mgrwt>
</event>
<event>
 6    1  0.1386179E-004  0.6615468E+03  0.7818608E-02  0.9785351E-01
         21   -1    0    0  501  502  0.00000000000E+00  0.00000000000E+00  0.16820091453E+03  0.16820091453E+03  0.00000000000E+00 0.  1.
         13   -1    0    0    0    0 -0.00000000000E+00 -0.00000000000E+00 -0.10000000000E+04  0.10000000000E+04  0.00000000000E+00 0.  1.
    9000005    2    1    2  501    0 -0.99930846930E+02  0.48573902679E+02 -0.82416089540E+03  0.10568279369E+04  0.65214914598E+03 0.  0.
         13    1    3    3    0    0  0.10566314467E+03  0.81278525312E+02 -0.83767009579E+03  0.84821111063E+03  0.00000000000E+00 0.  1.
          3    1    3    3  501    0 -0.20559399160E+03 -0.32704622633E+02  0.13509200384E+02  0.20861682631E+03  0.00000000000E+00 0.  1.
         -1    1    1    2    0  502  0.99930846930E+02 -0.48573902679E+02 -0.76381900645E+01  0.11137297759E+03  0.00000000000E+00 0. -1.
<mgrwt>
<rscale>  1 0.66154675E+03</rscale>
<asrwt>0</asrwt>
<pdfrwt beam="1">  1       21 0.25877063E-01 0.66154675E+03</pdfrwt>
<pdfrwt beam="2">0</pdfrwt>
<totfact> 0.13599929E+03</totfact>
</mgrwt>
</event>
<event>
 6    1  0.1386179E-004  0.6534561E+03  0.7818608E-02  0.9800316E-01
         21   -1    0    0  501  502  0.00000000000E+00  0.00000000000E+00  0.14654115353E+03  0.14654115353E+03  0.00000000000E+00 0.  1.
         13   -1    0    0    0    0 -0.00000000000E+00 -0.00000000000E+00 -0.10000000000E+04  0.10000000000E+04  0.00000000000E+00 0.  1.
    9000005    2    1    2  501    0 -0.87891115617E+02 -0.69225013606E+02 -0.73940822732E+03  0.98677728263E+03  0.64380736884E+03 0.  0.
         13    1    3    3    0    0  0.17709137886E+03 -0.76470983662E+02 -0.69086315911E+03  0.71728730117E+03  0.00000000000E+00 0.  1.
          1    1    3    3  501    0 -0.26498249448E+03  0.72459700561E+01 -0.48545068211E+02  0.26948998146E+03  0.00000000000E+00 0.  1.
         -3    1    1    2    0  502  0.87891115617E+02  0.69225013606E+02 -0.11405061916E+03  0.15976387090E+03  0.00000000000E+00 0. -1.
<mgrwt>
<rscale>  1 0.65345610E+03</rscale>
<asrwt>0</asrwt>
<pdfrwt beam="1">  1       21 0.22544792E-01 0.65345610E+03</pdfrwt>
<pdfrwt beam="2">0</pdfrwt>
<totfact> 0.17810800E+03</totfact>
</mgrwt>
</event>
<event>
 6    1  0.1386179E-004  0.6590548E+03  0.7818608E-02  0.9789935E-01
         21   -1    0    0  501  502  0.00000000000E+00  0.00000000000E+00  0.13259039391E+03  0.13259039391E+03  0.00000000000E+00 0.  1.
         13   -1    0    0    0    0 -0.00000000000E+00 -0.00000000000E+00 -0.10000000000E+04  0.10000000000E+04  0.00000000000E+00 0.  1.
    9000005    2    1    2  501    0  0.58462528015E+01  0.34103217713E+02 -0.87667218352E+03  0.10967713561E+04  0.65814594281E+03 0.  0.
         13    1    3    3    0    0  0.11250863516E+03 -0.16733810005E+03 -0.11384335957E+02  0.20196493710E+03  0.00000000000E+00 0.  1.
          3    1    3    3  501    0 -0.10666238236E+03  0.20144131776E+03 -0.86528784756E+03  0.89480641898E+03  0.00000000000E+00 0.  1.
         -1    1    1    2    0  502 -0.58462528015E+01 -0.34103217713E+02  0.92625774242E+01  0.35819037825E+02  0.00000000000E+00 0. -1.
<mgrwt>
<rscale>  1 0.65905485E+03</rscale>
<asrwt>0</asrwt>
<pdfrwt beam="1">  1       21 0.20398522E-01 0.65905485E+03</pdfrwt>
<pdfrwt beam="2">0</pdfrwt>
<totfact> 0.21600687E+03</totfact>
</mgrwt>
</event>
<event>
 6    1  0.1386179E-004  0.6686849E+03  0.7818608E-02  0.9772337E-01
         21   -1    0    0  501  502  0.00000000000E+00  0.00000000000E+00  0.17506414815E+03  0.17506414815E+03  0.00000000000E+00 0.  1.
         13   -1    0    0    0    0 -0.00000000000E+00 -0.00000000000E+00 -0.10000000000E+04  0.10000000000E+04  0.00000000000E+00 0.  1.
    9000005    2    1    2  501    0 -0.13610735620E+03  0.98226222494E+02 -0.64710526103E+03  0.93052923811E+03  0.64727570705E+03 0.  0.
         13    1    3    3    0    0 -0.12280316705E+03  0.37339624021E+03 -0.37169724338E+03  0.54098448294E+03  0.00000000000E+00 0.  1.
          1    1    3    3  501    0 -0.13304189147E+02 -0.27517001772E+03 -0.27540801765E+03  0.38954475518E+03  0.00000000000E+00 0.  1.
         -3    1    1    2    0  502  0.13610735620E+03 -0.98226222494E+02 -0.17783059082E+03  0.24453491004E+03  0.00000000000E+00 0. -1.
<mgrwt>
<rscale>  1 0.66868486E+03</rscale>
<asrwt>0</asrwt>
<pdfrwt beam="1">  1       21 0.26932945E-01 0.66868486E+03</pdfrwt>
<pdfrwt beam="2">0</pdfrwt>
<totfact> 0.12563491E+03</totfact>
</mgrwt>
</event>
<event>
 6    1  0.1386179E-004  0.6453149E+03  0.7818608E-02  0.9815610E-01
         21   -1    0    0  501  502  0.00000000000E+00  0.00000000000E+00  0.11670495220E+03  0.11670495220E+03  0.00000000000E+00 0.  1.
         13   -1    0    0    0    0 -0.00000000000E+00 -0.00000000000E+00 -0.10000000000E+04  0.10000000000E+04  0.00000000000E+00 0.  1.
    9000005    2    1    2  501    0 -0.68163035170E+01  0.26096481804E+02 -0.87729782258E+03  0.10890742615E+04  0.64475095137E+03 0.  0.
         13    1    3    3    0    0  0.19040816804E+03 -0.72417599056E+02 -0.84140135692E+03  0.86571116576E+03  0.00000000000E+00 0.  1.
          3    1    3    3  501    0 -0.19722447155E+03  0.98514080860E+02 -0.35896465660E+02  0.22336309577E+03  0.00000000000E+00 0.  1.
         -1    1    1    2    0  502  0.68163035170E+01 -0.26096481804E+02 -0.59972252214E+01  0.27630690663E+02  0.00000000000E+00 0. -1.
<mgrwt>
<rscale>  1 0.64531487E+03</rscale>
<asrwt>0</asrwt>
<pdfrwt beam="1">  1       21 0.17954608E-01 0.64531487E+03</pdfrwt>
<pdfrwt beam="2">0</pdfrwt>
<totfact> 0.27574593E+03</totfact>
</mgrwt>
</event>
<event>
 6    1  0.1386179E-004  0.6492872E+03  0.7818608E-02  0.9808118E-01
         21   -1    0    0  501  502  0.00000000000E+00  0.00000000000E+00  0.16685644335E+03  0.16685644335E+03  0.00000000000E+00 0.  1.
         13   -1    0    0    0    0 -0.00000000000E+00 -0.00000000000E+00 -0.10000000000E+04  0.10000000000E+04  0.00000000000E+00 0.  1.
    9000005    2    1    2  501    0  0.64995137509E+02  0.26355864655E+02 -0.87160899019E+03  0.10868652621E+04  0.64548808406E+03 0.  0.
         13    1    3    3    0    0 -0.44758290145E+02  0.16179448510E+02  0.99090757022E+02  0.10992750892E+03  0.00000000000E+00 0.  1.
          3    1    3    3  501    0  0.10975342765E+03  0.10176416146E+02 -0.97069974721E+03  0.97693775317E+03  0.00000000000E+00 0.  1.
         -1    1    1    2    0  502 -0.64995137509E+02 -0.26355864655E+02  0.38465433544E+02  0.79991181260E+02  0.00000000000E+00 0. -1.
<mgrwt>
<rscale>  1 0.64928720E+03</rscale>
<asrwt>0</asrwt>
<pdfrwt beam="1">  1       21 0.25670221E-01 0.64928720E+03</pdfrwt>
<pdfrwt beam="2">0</pdfrwt>
<totfact> 0.13825354E+03</totfact>
</mgrwt>
</event>
<event>
 6    1  0.1386179E-004  0.6504213E+03  0.7818608E-02  0.9805989E-01
         21   -1    0    0  501  502  0.00000000000E+00  0.00000000000E+00  0.20739747039E+03  0.20739747039E+03  0.00000000000E+00 0.  1.
         13   -1    0    0    0    0 -0.00000000000E+00 -0.00000000000E+00 -0.10000000000E+04  0.10000000000E+04  0.00000000000E+00 0.  1.
    9000005    2    1    2  501    0  0.17322809043E+01 -0.21481695725E+02 -0.89297308490E+03  0.11047392393E+04  0.65006414482E+03 0.  0.
         13    1    3    3    0    0 -0.55344460401E+02 -0.25851686043E+03 -0.80209694336E+03  0.84454335766E+03  0.00000000000E+00 0.  1.
          3    1    3    3  501    0  0.57076741305E+02  0.23703516471E+03 -0.90876141542E+02  0.26019588161E+03  0.00000000000E+00 0.  1.
         -3    1    1    2    0  502 -0.17322809043E+01  0.21481695725E+02  0.10037055529E+03  0.10265823112E+03  0.00000000000E+00 0. -1.
<mgrwt>
<rscale>  1 0.65042129E+03</rscale>
<asrwt>0</asrwt>
<pdfrwt beam="1">  1       21 0.31907302E-01 0.65042129E+03</pdfrwt>
<pdfrwt beam="2">0</pdfrwt>
<totfact> 0.89657083E+02</totfact>
</mgrwt>
</event>
<event>
 6    1  0.1386179E-004  0.6356656E+03  0.7818608E-02  0.9834055E-01
         21   -1    0    0  501  502  0.00000000000E+00  0.00000000000E+00  0.14573066056E+03  0.14573066056E+03  0.00000000000E+00 0.  1.
         13   -1    0    0    0    0 -0.00000000000E+00 -0.00000000000E+00 -0.10000000000E+04  0.10000000000E+04  0.00000000000E+00 0.  1.
    9000005    2    1    2  501    0  0.11229213055E+01  0.65091311705E+02 -0.87121081579E+03  0.10784613999E+04  0.63232314971E+03 0.  0.
         13    1    3    3    0    0  0.15828820158E+03 -0.15860350340E+03 -0.74478613789E+02  0.23612981591E+03  0.00000000000E+00 0.  1.
          1    1    3    3  501    0 -0.15716528028E+03  0.22369481511E+03 -0.79673220201E+03  0.84233158396E+03  0.00000000000E+00 0.  1.
         -3    1    1    2    0  502 -0.11229213055E+01 -0.65091311705E+02  0.16941476354E+02  0.67269260682E+02  0.00000000000E+00 0. -1.
<mgrwt>
<rscale>  1 0.63566556E+03</rscale>
<asrwt>0</asrwt>
<pdfrwt beam="1">  1       21 0.22420101E-01 0.63566556E+03</pdfrwt>
<pdfrwt beam="2">0</pdfrwt>
<totfact> 0.18018204E+03</totfact>
</mgrwt>
</event>
<event>
 6    1  0.1386179E-004  0.6112755E+03  0.7818608E-02  0.9882285E-01
         21   -1    0    0  501  502  0.00000000000E+00  0.00000000000E+00  0.10995746317E+03  0.10995746317E+03  0.00000000000E+00 0.  1.
         13   -1    0    0    0    0 -0.00000000000E+00 -0.00000000000E+00 -0.10000000000E+04  0.10000000000E+04  0.00000000000E+00 0.  1.
    9000005    2    1    2  501    0 -0.26674742176E+02  0.11251428635E+02 -0.89153519137E+03  0.10809684215E+04  0.61058954660E+03 0.  0.
         13    1    3    3    0    0 -0.31944926492E+02  0.11526089997E+03 -0.95270915634E+03  0.96018763268E+03  0.00000000000E+00 0.  1.
          1    1    3    3  501    0  0.52701843157E+01 -0.10400947133E+03  0.61173964965E+02  0.12078078887E+03  0.00000000000E+00 0.  1.
         -3    1    1    2    0  502  0.26674742176E+02 -0.11251428635E+02  0.14926545411E+01  0.28989041621E+02  0.00000000000E+00 0. -1.
<mgrwt>
<rscale>  1 0.61127550E+03</rscale>
<asrwt>0</asrwt>
<pdfrwt beam="1">  1       21 0.16916532E-01 0.61127550E+03</pdfrwt>
<pdfrwt beam="2">0</pdfrwt>
<totfact> 0.30895771E+03</totfact>
</mgrwt>
</event>
<event>
 6    1  0.1386179E-004  0.6490108E+03  0.7818608E-02  0.9808637E-01
         21   -1    0    0  501  502  0.00000000000E+00  0.00000000000E+00  0.11977506516E+03  0.11977506516E+03  0.00000000000E+00 0.  1.
         13   -1    0    0    0    0 -0.00000000000E+00 -0.00000000000E+00 -0.10000000000E+04  0.10000000000E+04  0.00000000000E+00 0.  1.
    9000005    2    1    2  501    0 -0.33931668060E+02  0.14949338327E+01 -0.86771603979E+03  0.10835802398E+04  0.64812145277E+03 0.  0.
         13    1    3    3    0    0  0.22906161338E+03  0.27892008633E+02 -0.66875536987E+02  0.24024887995E+03  0.00000000000E+00 0.  1.
          3    1    3    3  501    0 -0.26299328144E+03 -0.26397074801E+02 -0.80084050281E+03  0.84333135989E+03  0.00000000000E+00 0.  1.
         -1    1    1    2    0  502  0.33931668060E+02 -0.14949338327E+01 -0.12508895045E+02  0.36194825318E+02  0.00000000000E+00 0. -1.
<mgrwt>
<rscale>  1 0.64901079E+03</rscale>
<asrwt>0</asrwt>
<pdfrwt beam="1">  1       21 0.18426933E-01 0.64901079E+03</pdfrwt>
<pdfrwt beam="2">0</pdfrwt>
<totfact> 0.26244457E+03</totfact>
</mgrwt>
</event>
<event>
 6    1  0.1386179E-004  0.6475404E+03  0.7818608E-02  0.9811406E-01
         21   -1    0    0  501  502  0.00000000000E+00  0.00000000000E+00  0.33356101510E+03  0.33356101510E+03  0.00000000000E+00 0. -1.
         13   -1    0    0    0    0 -0.00000000000E+00 -0.00000000000E+00 -0.10000000000E+04  0.10000000000E+04  0.00000000000E+00 0.  1.
    9000005    2    1    2  501    0  0.26226517043E+02 -0.26661519247E+01 -0.89433334935E+03  0.11041470227E+04  0.64700353122E+03 0.  0.
         13    1    3    3    0    0 -0.12135008176E+03 -0.17145270713E+03 -0.85004084062E+03  0.87560910448E+03  0.00000000000E+00 0.  1.
          1    1    3    3  501    0  0.14757659880E+03  0.16878655521E+03 -0.44292508725E+02  0.22853791822E+03  0.00000000000E+00 0.  1.
         -1    1    1    2    0  502 -0.26226517043E+02  0.26661519247E+01  0.22789436445E+03  0.22941399240E+03  0.00000000000E+00 0. -1.
<mgrwt>
<rscale>  1 0.64754035E+03</rscale>
<asrwt>0</asrwt>
<pdfrwt beam="1">  1       21 0.51317078E-01 0.64754035E+03</pdfrwt>
<pdfrwt beam="2">0</pdfrwt>
<totfact> 0.33363501E+02</totfact>
</mgrwt>
</event>
<event>
 6    1  0.1386179E-004  0.6437909E+03  0.7818608E-02  0.9818500E-01
         21   -1    0    0  501  502  0.00000000000E+00  0.00000000000E+00  0.21350101094E+03  0.21350101094E+03  0.00000000000E+00 0. -1.
         13   -1    0    0    0    0 -0.00000000000E+00 -0.00000000000E+00 -0.10000000000E+04  0.10000000000E+04  0.00000000000E+00 0.  1.
    9000005    2    1    2  501    0  0.74712652610E+01 -0.32518924825E+02 -0.89358057287E+03  0.11013414555E+04  0.64292570427E+03 0.  0.
         13    1    3    3    0    0 -0.26867889306E+03 -0.15422684060E+03 -0.62406939062E+03  0.69673299782E+03  0.00000000000E+00 0.  1.
          3    1    3    3  501    0  0.27615015832E+03  0.12170791577E+03 -0.26951118224E+03  0.40460845772E+03  0.00000000000E+00 0.  1.
         -1    1    1    2    0  502 -0.74712652610E+01  0.32518924825E+02  0.10708158381E+03  0.11215955540E+03  0.00000000000E+00 0. -1.
<mgrwt>
<rscale>  1 0.64379093E+03</rscale>
<asrwt>0</asrwt>
<pdfrwt beam="1">  1       21 0.32846308E-01 0.64379093E+03</pdfrwt>
<pdfrwt beam="2">0</pdfrwt>
<totfact> 0.84593971E+02</totfact>
</mgrwt>
</event>
<event>
 6    1  0.1386179E-004  0.6531525E+03  0.7818608E-02  0.9800882E-01
         21   -1    0    0  501  502  0.00000000000E+00  0.00000000000E+00  0.18785083969E+03  0.18785083969E+03  0.00000000000E+00 0.  1.
         13   -1    0    0    0    0 -0.00000000000E+00 -0.00000000000E+00 -0.10000000000E+04  0.10000000000E+04  0.00000000000E+00 0.  1.
    9000005    2    1    2  501    0 -0.86612447318E+02 -0.40576487042E+02 -0.86079533509E+03  0.10805446532E+04  0.64611142336E+03 0.  0.
         13    1    3    3    0    0  0.26203214331E+03  0.92446375165E+02 -0.32466504039E+03  0.42733425425E+03  0.00000000000E+00 0.  1.
          1    1    3    3  501    0 -0.34864459063E+03 -0.13302286221E+03 -0.53613029470E+03  0.65321039898E+03  0.00000000000E+00 0.  1.
         -3    1    1    2    0  502  0.86612447318E+02  0.40576487042E+02  0.48646174777E+02  0.10730618646E+03  0.00000000000E+00 0. -1.
<mgrwt>
<rscale>  1 0.65315246E+03</rscale>
<asrwt>0</asrwt>
<pdfrwt beam="1">  1       21 0.28900128E-01 0.65315246E+03</pdfrwt>
<pdfrwt beam="2">0</pdfrwt>
<totfact> 0.10932004E+03</totfact>
</mgrwt>
</event>
<event>
 6    1  0.1386179E-004  0.6829432E+03  0.7818608E-02  0.9746855E-01
         21   -1    0    0  501  502  0.00000000000E+00  0.00000000000E+00  0.45464569176E+03  0.45464569176E+03  0.00000000000E+00 0. -1.
         13   -1    0    0    0    0 -0.00000000000E+00 -0.00000000000E+00 -0.10000000000E+04  0.10000000000E+04  0.00000000000E+00 0.  1.
    9000005    2    1    2  501    0 -0.83607514404E+02 -0.19301332999E+03 -0.84629185194E+03  0.10874839192E+04  0.64974380631E+03 0.  0.
         13    1    3    3    0    0 -0.16985252752E+03  0.16396903209E+03 -0.10132058968E+03  0.25690773924E+03  0.00000000000E+00 0.  1.
          3    1    3    3  501    0  0.86245013114E+02 -0.35698236208E+03 -0.74497126227E+03  0.83057617996E+03  0.00000000000E+00 0.  1.
         -3    1    1    2    0  502  0.83607514404E+02  0.19301332999E+03  0.30093754371E+03  0.36716177256E+03  0.00000000000E+00 0. -1.
<mgrwt>
<rscale>  1 0.68294317E+03</rscale>
<asrwt>0</asrwt>
<pdfrwt beam="1">  1       21 0.69945489E-01 0.68294317E+03</pdfrwt>
<pdfrwt beam="2">0</pdfrwt>
<totfact> 0.16762652E+02</totfact>
</mgrwt>
</event>
<event>
 6    1  0.1386179E-004  0.6572590E+03  0.7818608E-02  0.9793253E-01
         21   -1    0    0  501  502  0.00000000000E+00  0.00000000000E+00  0.30090794968E+03  0.30090794968E+03  0.00000000000E+00 0. -1.
         13   -1    0    0    0    0 -0.00000000000E+00 -0.00000000000E+00 -0.10000000000E+04  0.10000000000E+04  0.00000000000E+00 0.  1.
    9000005    2    1    2  501    0 -0.74320208234E+01  0.88507877826E+02 -0.88059724937E+03  0.10988361390E+04  0.65122996361E+03 0.  0.
         13    1    3    3    0    0  0.10508349816E+03 -0.26063554252E+03 -0.47549323377E+03  0.55232892643E+03  0.00000000000E+00 0.  1.
          1    1    3    3  501    0 -0.11251551898E+03  0.34914342035E+03 -0.40510401560E+03  0.54650721261E+03  0.00000000000E+00 0.  1.
         -3    1    1    2    0  502  0.74320208234E+01 -0.88507877826E+02  0.18150519905E+03  0.20207181063E+03  0.00000000000E+00 0. -1.
<mgrwt>
<rscale>  1 0.65725896E+03</rscale>
<asrwt>0</asrwt>
<pdfrwt beam="1">  1       21 0.46293529E-01 0.65725896E+03</pdfrwt>
<pdfrwt beam="2">0</pdfrwt>
<totfact> 0.41537890E+02</totfact>
</mgrwt>
</event>
<event>
 6    1  0.1386179E-004  0.6451354E+03  0.7818608E-02  0.9815950E-01
         21   -1    0    0  501  502  0.00000000000E+00  0.00000000000E+00  0.14589303335E+03  0.14589303335E+03  0.00000000000E+00 0.  1.
         13   -1    0    0    0    0 -0.00000000000E+00 -0.00000000000E+00 -0.10000000000E+04  0.10000000000E+04  0.00000000000E+00 0.  1.
    9000005    2    1    2  501    0  0.91906385528E+01 -0.69679542467E+02 -0.86031851868E+03  0.10753360361E+04  0.64129550955E+03 0.  0.
         13    1    3    3    0    0  0.24459393106E+03  0.17304468691E+03 -0.48578537617E+03  0.57075221111E+03  0.00000000000E+00 0.  1.
          1    1    3    3  501    0 -0.23540329251E+03 -0.24272422938E+03 -0.37453314251E+03  0.50458382504E+03  0.00000000000E+00 0.  1.
         -1    1    1    2    0  502 -0.91906385528E+01  0.69679542467E+02  0.62115520348E+01  0.70556997201E+02  0.00000000000E+00 0. -1.
<mgrwt>
<rscale>  1 0.64513536E+03</rscale>
<asrwt>0</asrwt>
<pdfrwt beam="1">  1       21 0.22445081E-01 0.64513536E+03</pdfrwt>
<pdfrwt beam="2">0</pdfrwt>
<totfact> 0.17971447E+03</totfact>
</mgrwt>
</event>
<event>
 6    1  0.1386179E-004  0.6500019E+03  0.7818608E-02  0.9806776E-01
         21   -1    0    0  501  502  0.00000000000E+00  0.00000000000E+00  0.13611709479E+03  0.13611709479E+03  0.00000000000E+00 0.  1.
         13   -1    0    0    0    0 -0.00000000000E+00 -0.00000000000E+00 -0.10000000000E+04  0.10000000000E+04  0.00000000000E+00 0.  1.
    9000005    2    1    2  501    0  0.38629699722E+02  0.16111041147E+02 -0.87757405986E+03  0.10920799847E+04  0.64865294507E+03 0.  0.
         13    1    3    3    0    0  0.49226193990E+01  0.92752563955E+02 -0.96591253651E+03  0.97036812524E+03  0.00000000000E+00 0.  1.
          3    1    3    3  501    0  0.33707080323E+02 -0.76641522808E+02  0.88338476649E+02  0.12171185948E+03  0.00000000000E+00 0.  1.
         -3    1    1    2    0  502 -0.38629699722E+02 -0.16111041147E+02  0.13691154647E+02  0.44037110066E+02  0.00000000000E+00 0. -1.
<mgrwt>
<rscale>  1 0.65000189E+03</rscale>
<asrwt>0</asrwt>
<pdfrwt beam="1">  1       21 0.20941091E-01 0.65000189E+03</pdfrwt>
<pdfrwt beam="2">0</pdfrwt>
<totfact> 0.20544474E+03</totfact>
</mgrwt>
</event>
<event>
 6    1  0.1386179E-004  0.6646258E+03  0.7818608E-02  0.9779715E-01
         21   -1    0    0  501  502  0.00000000000E+00  0.00000000000E+00  0.15448341782E+03  0.15448341782E+03  0.00000000000E+00 0. -1.
         13   -1    0    0    0    0 -0.00000000000E+00 -0.00000000000E+00 -0.10000000000E+04  0.10000000000E+04  0.00000000000E+00 0.  1.
    9000005    2    1    2  501    0  0.41697229531E+02 -0.10223949658E+03 -0.78501148290E+03  0.10285769420E+04  0.65538990208E+03 0.  0.
         13    1    3    3    0    0 -0.22271205143E+03 -0.16940799037E+03 -0.11025625114E+03  0.30075931568E+03  0.00000000000E+00 0.  1.
          1    1    3    3  501    0  0.26440928096E+03  0.67168493792E+02 -0.67475523175E+03  0.72781762633E+03  0.00000000000E+00 0.  1.
         -1    1    1    2    0  502 -0.41697229531E+02  0.10223949658E+03 -0.60505099280E+02  0.12590647581E+03  0.00000000000E+00 0. -1.
<mgrwt>
<rscale>  1 0.66462583E+03</rscale>
<asrwt>0</asrwt>
<pdfrwt beam="1">  1       21 0.23766679E-01 0.66462583E+03</pdfrwt>
<pdfrwt beam="2">0</pdfrwt>
<totfact> 0.16064280E+03</totfact>
</mgrwt>
</event>
<event>
 6    1  0.1386179E-004  0.6438018E+03  0.7818608E-02  0.9818480E-01
         21   -1    0    0  501  502  0.00000000000E+00  0.00000000000E+00  0.14710286284E+03  0.14710286284E+03  0.00000000000E+00 0.  1.
         13   -1    0    0    0    0 -0.00000000000E+00 -0.00000000000E+00 -0.10000000000E+04  0.10000000000E+04  0.00000000000E+00 0.  1.
    9000005    2    1    2  501    0  0.36183319368E+01  0.61647022709E+02 -0.87067088638E+03  0.10828428139E+04  0.64083330078E+03 0.  0.
         13    1    3    3    0    0  0.12229857695E+03  0.30711102527E+03 -0.66045739954E+03  0.73856489246E+03  0.00000000000E+00 0.  1.
          1    1    3    3  501    0 -0.11868024501E+03 -0.24546400256E+03 -0.21021348683E+03  0.34427792139E+03  0.00000000000E+00 0.  1.
         -1    1    1    2    0  502 -0.36183319368E+01 -0.61647022709E+02  0.17773749215E+02  0.64260048988E+02  0.00000000000E+00 0. -1.
<mgrwt>
<rscale>  1 0.64380181E+03</rscale>
<asrwt>0</asrwt>
<pdfrwt beam="1">  1       21 0.22631209E-01 0.64380181E+03</pdfrwt>
<pdfrwt beam="2">0</pdfrwt>
<totfact> 0.17686990E+03</totfact>
</mgrwt>
</event>
<event>
 6    1  0.1386179E-004  0.6484101E+03  0.7818608E-02  0.9809767E-01
         21   -1    0    0  501  502  0.00000000000E+00  0.00000000000E+00  0.13750058243E+03  0.13750058243E+03  0.00000000000E+00 0.  1.
         13   -1    0    0    0    0 -0.00000000000E+00 -0.00000000000E+00 -0.10000000000E+04  0.10000000000E+04  0.00000000000E+00 0.  1.
    9000005    2    1    2  501    0  0.38009158934E+02 -0.59725718546E+02 -0.84402131422E+03  0.10643343476E+04  0.64453375936E+03 0.  0.
         13    1    3    3    0    0  0.15931715936E+03  0.22425716323E+03 -0.63334839993E+03  0.69050954245E+03  0.00000000000E+00 0.  1.
          3    1    3    3  501    0 -0.12130800042E+03 -0.28398288178E+03 -0.21067291429E+03  0.37382480512E+03  0.00000000000E+00 0.  1.
         -3    1    1    2    0  502 -0.38009158934E+02  0.59725718546E+02 -0.18478103349E+02  0.73166234850E+02  0.00000000000E+00 0. -1.
<mgrwt>
<rscale>  1 0.64841007E+03</rscale>
<asrwt>0</asrwt>
<pdfrwt beam="1">  1       21 0.21153935E-01 0.64841007E+03</pdfrwt>
<pdfrwt beam="2">0</pdfrwt>
<totfact> 0.20149375E+03</totfact>
</mgrwt>
</event>
<event>
 6    1  0.1386179E-004  0.6566734E+03  0.7818608E-02  0.9794337E-01
         21   -1    0    0  501  502  0.00000000000E+00  0.00000000000E+00  0.14128526076E+03  0.14128526076E+03  0.00000000000E+00 0.  1.
         13   -1    0    0    0    0 -0.00000000000E+00 -0.00000000000E+00 -0.10000000000E+04  0.10000000000E+04  0.00000000000E+00 0.  1.
    9000005    2    1    2  501    0  0.47186952213E+02 -0.44460566068E+02 -0.85258858796E+03  0.10761632205E+04  0.65346509204E+03 0.  0.
         13    1    3    3    0    0  0.19261536160E+03 -0.73703191594E+02 -0.89772437891E+03  0.92110905894E+03  0.00000000000E+00 0.  1.
          1    1    3    3  501    0 -0.14542840938E+03  0.29242625526E+02  0.45135790946E+02  0.15505416159E+03  0.00000000000E+00 0.  1.
         -1    1    1    2    0  502 -0.47186952213E+02  0.44460566068E+02 -0.61261512736E+01  0.65122040229E+02  0.00000000000E+00 0. -1.
<mgrwt>
<rscale>  1 0.65667342E+03</rscale>
<asrwt>0</asrwt>
<pdfrwt beam="1">  1       21 0.21736193E-01 0.65667342E+03</pdfrwt>
<pdfrwt beam="2">0</pdfrwt>
<totfact> 0.19113567E+03</totfact>
</mgrwt>
</event>
<event>
 6    1  0.1386179E-004  0.6475529E+03  0.7818608E-02  0.9811382E-01
         21   -1    0    0  501  502  0.00000000000E+00  0.00000000000E+00  0.18545487566E+03  0.18545487566E+03  0.00000000000E+00 0. -1.
         13   -1    0    0    0    0 -0.00000000000E+00 -0.00000000000E+00 -0.10000000000E+04  0.10000000000E+04  0.00000000000E+00 0.  1.
    9000005    2    1    2  501    0 -0.66868119154E+02 -0.14167484019E+01 -0.87953125651E+03  0.10921995814E+04  0.64408954492E+03 0.  0.
         13    1    3    3    0    0 -0.40758233691E+02 -0.29952440101E+03 -0.64386989881E+03  0.71129779066E+03  0.00000000000E+00 0.  1.
          1    1    3    3  501    0 -0.26109885462E+02  0.29810765261E+03 -0.23566135770E+03  0.38090179072E+03  0.00000000000E+00 0.  1.
         -3    1    1    2    0  502  0.66868119154E+02  0.14167484019E+01  0.64986132171E+02  0.93255294272E+02  0.00000000000E+00 0. -1.
<mgrwt>
<rscale>  1 0.64755285E+03</rscale>
<asrwt>0</asrwt>
<pdfrwt beam="1">  1       21 0.28531519E-01 0.64755285E+03</pdfrwt>
<pdfrwt beam="2">0</pdfrwt>
<totfact> 0.11218925E+03</totfact>
</mgrwt>
</event>
<event>
 6    1  0.1386179E-004  0.6451194E+03  0.7818608E-02  0.9815981E-01
         21   -1    0    0  501  502  0.00000000000E+00  0.00000000000E+00  0.28122019438E+03  0.28122019438E+03  0.00000000000E+00 0.  1.
         13   -1    0    0    0    0 -0.00000000000E+00 -0.00000000000E+00 -0.10000000000E+04  0.10000000000E+04  0.00000000000E+00 0.  1.
    9000005    2    1    2  501    0 -0.28163059108E+02 -0.16873240090E+02 -0.89427434747E+03  0.11026811277E+04  0.64428347535E+03 0.  0.
         13    1    3    3    0    0  0.15257613586E+03 -0.13229927831E+03 -0.86257368811E+03  0.88589838226E+03  0.00000000000E+00 0.  1.
          3    1    3    3  501    0 -0.18073919497E+03  0.11542603822E+03 -0.31700659358E+02  0.21678274539E+03  0.00000000000E+00 0.  1.
         -3    1    1    2    0  502  0.28163059108E+02  0.16873240090E+02  0.17549454185E+03  0.17853906673E+03  0.00000000000E+00 0. -1.
<mgrwt>
<rscale>  1 0.64511942E+03</rscale>
<asrwt>0</asrwt>
<pdfrwt beam="1">  1       21 0.43264644E-01 0.64511942E+03</pdfrwt>
<pdfrwt beam="2">0</pdfrwt>
<totfact> 0.47962446E+02</totfact>
</mgrwt>
</event>
<event>
 6    1  0.1386179E-004  0.7314078E+03  0.7818608E-02  0.9664979E-01
         21   -1    0    0  501  502  0.00000000000E+00  0.00000000000E+00  0.65600536984E+03  0.65600536984E+03  0.00000000000E+00 0. -1.
         13   -1    0    0    0    0 -0.00000000000E+00 -0.00000000000E+00 -0.10000000000E+04  0.10000000000E+04  0.00000000000E+00 0.  1.
    9000005    2    1    2  501    0  0.32040744879E+03  0.11670883728E+03 -0.80171790981E+03  0.10852230237E+04  0.64705140314E+03 0.  0.
         13    1    3    3    0    0  0.34014483703E+03  0.29559792494E+03 -0.78412041917E+03  0.90439011226E+03  0.00000000000E+00 0.  1.
          1    1    3    3  501    0 -0.19737388243E+02 -0.17888908767E+03 -0.17597490634E+02  0.18083291143E+03  0.00000000000E+00 0.  1.
         -1    1    1    2    0  502 -0.32040744879E+03 -0.11670883728E+03  0.45772327965E+03  0.57078234615E+03  0.00000000000E+00 0. -1.
<mgrwt>
<rscale>  1 0.73140782E+03</rscale>
<asrwt>0</asrwt>
<pdfrwt beam="1">  1       21 0.10092390E+00 0.73140782E+03</pdfrwt>
<pdfrwt beam="2">0</pdfrwt>
<totfact> 0.70085394E+01</totfact>
</mgrwt>
</event>
<event>
 6    1  0.1386179E-004  0.6641954E+03  0.7818608E-02  0.9780501E-01
         21   -1    0    0  501  502  0.00000000000E+00  0.00000000000E+00  0.13996469344E+03  0.13996469344E+03  0.00000000000E+00 0.  1.
         13   -1    0    0    0    0 -0.00000000000E+00 -0.00000000000E+00 -0.10000000000E+04  0.10000000000E+04  0.00000000000E+00 0.  1.
    9000005    2    1    2  501    0 -0.25132087045E+02  0.21969094808E+02 -0.87888275162E+03  0.11016307775E+04  0.66335602501E+03 0.  0.
         13    1    3    3    0    0 -0.17651484591E+02  0.25859430765E+03 -0.81671889319E+03  0.85686191498E+03  0.00000000000E+00 0.  1.
          3    1    3    3  501    0 -0.74806024535E+01 -0.23662521284E+03 -0.62163858432E+02  0.24476886252E+03  0.00000000000E+00 0.  1.
         -1    1    1    2    0  502  0.25132087045E+02 -0.21969094808E+02  0.18847445055E+02  0.38333915936E+02  0.00000000000E+00 0. -1.
<mgrwt>
<rscale>  1 0.66419536E+03</rscale>
<asrwt>0</asrwt>
<pdfrwt beam="1">  1       21 0.21533029E-01 0.66419536E+03</pdfrwt>
<pdfrwt beam="2">0</pdfrwt>
<totfact> 0.19457327E+03</totfact>
</mgrwt>
</event>
<event>
 6    1  0.1386179E-004  0.6524373E+03  0.7818608E-02  0.9802216E-01
         21   -1    0    0  501  502  0.00000000000E+00  0.00000000000E+00  0.11918867315E+03  0.11918867315E+03  0.00000000000E+00 0.  1.
         13   -1    0    0    0    0 -0.00000000000E+00 -0.00000000000E+00 -0.10000000000E+04  0.10000000000E+04  0.00000000000E+00 0.  1.
    9000005    2    1    2  501    0 -0.38267448903E+01 -0.25215443642E+02 -0.87749787959E+03  0.10934701680E+04  0.65193866049E+03 0.  0.
         13    1    3    3    0    0 -0.10606978041E+03  0.28318253981E+03 -0.27398582037E+03  0.40805805829E+03  0.00000000000E+00 0.  1.
          3    1    3    3  501    0  0.10224303552E+03 -0.30839798345E+03 -0.60351205922E+03  0.68541210970E+03  0.00000000000E+00 0.  1.
         -1    1    1    2    0  502  0.38267448903E+01  0.25215443642E+02 -0.33134472603E+01  0.25718505152E+02  0.00000000000E+00 0. -1.
<mgrwt>
<rscale>  1 0.65243734E+03</rscale>
<asrwt>0</asrwt>
<pdfrwt beam="1">  1       21 0.18336718E-01 0.65243734E+03</pdfrwt>
<pdfrwt beam="2">0</pdfrwt>
<totfact> 0.26487352E+03</totfact>
</mgrwt>
</event>
<event>
 6    1  0.1386179E-004  0.6543228E+03  0.7818608E-02  0.9798701E-01
         21   -1    0    0  501  502  0.00000000000E+00  0.00000000000E+00  0.12266630641E+03  0.12266630641E+03  0.00000000000E+00 0.  1.
         13   -1    0    0    0    0 -0.00000000000E+00 -0.00000000000E+00 -0.10000000000E+04  0.10000000000E+04  0.00000000000E+00 0.  1.
    9000005    2    1    2  501    0  0.28879210128E+02  0.25252680676E+02 -0.85986891212E+03  0.10805150876E+04  0.65319721506E+03 0.  0.
         13    1    3    3    0    0  0.99045069194E+01 -0.14511449646E+03  0.50636001594E+02  0.15401402858E+03  0.00000000000E+00 0.  1.
          3    1    3    3  501    0  0.18974703208E+02  0.17036717714E+03 -0.91050491372E+03  0.92650105899E+03  0.00000000000E+00 0.  1.
         -1    1    1    2    0  502 -0.28879210128E+02 -0.25252680676E+02 -0.17464781463E+02  0.42151218849E+02  0.00000000000E+00 0. -1.
<mgrwt>
<rscale>  1 0.65432279E+03</rscale>
<asrwt>0</asrwt>
<pdfrwt beam="1">  1       21 0.18871739E-01 0.65432279E+03</pdfrwt>
<pdfrwt beam="2">0</pdfrwt>
<totfact> 0.25074473E+03</totfact>
</mgrwt>
</event>
<event>
 6    1  0.1386179E-004  0.6367481E+03  0.7818608E-02  0.9831968E-01
         21   -1    0    0  501  502  0.00000000000E+00  0.00000000000E+00  0.15436224424E+03  0.15436224424E+03  0.00000000000E+00 0.  1.
         13   -1    0    0    0    0 -0.00000000000E+00 -0.00000000000E+00 -0.10000000000E+04  0.10000000000E+04  0.00000000000E+00 0.  1.
    9000005    2    1    2  501    0  0.42704470466E+02 -0.74334602829E+02 -0.85724030319E+03  0.10678525680E+04  0.63095076243E+03 0.  0.
         13    1    3    3    0    0  0.82859843501E+02 -0.33822411602E+03 -0.34474624648E+03  0.49001151087E+03  0.00000000000E+00 0.  1.
          3    1    3    3  501    0 -0.40155373035E+02  0.26388951319E+03 -0.51249405671E+03  0.57784105714E+03  0.00000000000E+00 0.  1.
         -3    1    1    2    0  502 -0.42704470466E+02  0.74334602829E+02  0.11602547427E+02  0.86509676235E+02  0.00000000000E+00 0. -1.
<mgrwt>
<rscale>  1 0.63674812E+03</rscale>
<asrwt>0</asrwt>
<pdfrwt beam="1">  1       21 0.23748037E-01 0.63674812E+03</pdfrwt>
<pdfrwt beam="2">0</pdfrwt>
<totfact> 0.16110904E+03</totfact>
</mgrwt>
</event>
<event>
 6    1  0.1386179E-004  0.6581934E+03  0.7818608E-02  0.9791525E-01
         21   -1    0    0  501  502  0.00000000000E+00  0.00000000000E+00  0.27973923748E+03  0.27973923748E+03  0.00000000000E+00 0.  1.
         13   -1    0    0    0    0 -0.00000000000E+00 -0.00000000000E+00 -0.10000000000E+04  0.10000000000E+04  0.00000000000E+00 0.  1.
    9000005    2    1    2  501    0 -0.49806918148E+02 -0.14704820951E+02 -0.88732386994E+03  0.11047905515E+04  0.65614141140E+03 0.  0.
         13    1    3    3    0    0 -0.18234833420E+03  0.27713514791E+03 -0.52507167526E+03  0.62109183648E+03  0.00000000000E+00 0.  1.
          3    1    3    3  501    0  0.13254141605E+03 -0.29183996886E+03 -0.36225219468E+03  0.48369871505E+03  0.00000000000E+00 0.  1.
         -3    1    1    2    0  502  0.49806918148E+02  0.14704820951E+02  0.16706310741E+03  0.17494868594E+03  0.00000000000E+00 0. -1.
<mgrwt>
<rscale>  1 0.65819337E+03</rscale>
<asrwt>0</asrwt>
<pdfrwt beam="1">  1       21 0.43036805E-01 0.65819337E+03</pdfrwt>
<pdfrwt beam="2">0</pdfrwt>
<totfact> 0.48442665E+02</totfact>
</mgrwt>
</event>
<event>
 6    1  0.1386179E-004  0.6502969E+03  0.7818608E-02  0.9806222E-01
         21   -1    0    0  501  502  0.00000000000E+00  0.00000000000E+00  0.11893730300E+03  0.11893730300E+03  0.00000000000E+00 0.  1.
         13   -1    0    0    0    0 -0.00000000000E+00 -0.00000000000E+00 -0.10000000000E+04  0.10000000000E+04  0.00000000000E+00 0.  1.
    9000005    2    1    2  501    0  0.30492633986E+02  0.23542400783E+02 -0.84411999444E+03  0.10655630711E+04  0.64915487215E+03 0.  0.
         13    1    3    3    0    0  0.90365757672E+02  0.30567804002E+03 -0.24986824040E+03  0.40501749576E+03  0.00000000000E+00 0.  1.
          3    1    3    3  501    0 -0.59873123685E+02 -0.28213563924E+03 -0.59425175404E+03  0.66054557530E+03  0.00000000000E+00 0.  1.
         -1    1    1    2    0  502 -0.30492633986E+02 -0.23542400783E+02 -0.36942702561E+02  0.53374231934E+02  0.00000000000E+00 0. -1.
<mgrwt>
<rscale>  1 0.65029693E+03</rscale>
<asrwt>0</asrwt>
<pdfrwt beam="1">  1       21 0.18298046E-01 0.65029693E+03</pdfrwt>
<pdfrwt beam="2">0</pdfrwt>
<totfact> 0.26595792E+03</totfact>
</mgrwt>
</event>
<event>
 6    1  0.1386179E-004  0.6573287E+03  0.7818608E-02  0.9793124E-01
         21   -1    0    0  501  502  0.00000000000E+00  0.00000000000E+00  0.14473945623E+03  0.14473945623E+03  0.00000000000E+00 0.  1.
         13   -1    0    0    0    0 -0.00000000000E+00 -0.00000000000E+00 -0.10000000000E+04  0.10000000000E+04  0.00000000000E+00 0.  1.
    9000005    2    1    2  501    0  0.56577693196E+02  0.57080260834E+02 -0.83343631798E+03  0.10614598766E+04  0.65239695129E+03 0.  0.
         13    1    3    3    0    0  0.31094373021E+03 -0.80809996630E+02 -0.63180410827E+03  0.70879664936E+03  0.00000000000E+00 0.  1.
          3    1    3    3  501    0 -0.25436603701E+03  0.13789025746E+03 -0.20163220971E+03  0.35266322729E+03  0.00000000000E+00 0.  1.
         -3    1    1    2    0  502 -0.56577693196E+02 -0.57080260834E+02 -0.21824225791E+02  0.83279579584E+02  0.00000000000E+00 0. -1.
<mgrwt>
<rscale>  1 0.65732866E+03</rscale>
<asrwt>0</asrwt>
<pdfrwt beam="1">  1       21 0.22267608E-01 0.65732866E+03</pdfrwt>
<pdfrwt beam="2">0</pdfrwt>
<totfact> 0.18239990E+03</totfact>
</mgrwt>
</event>
<event>
 6    1  0.1386179E-004  0.6492195E+03  0.7818608E-02  0.9808245E-01
         21   -1    0    0  501  502  0.00000000000E+00  0.00000000000E+00  0.24983613870E+03  0.24983613870E+03  0.00000000000E+00 0. -1.
         13   -1    0    0    0    0 -0.00000000000E+00 -0.00000000000E+00 -0.10000000000E+04  0.10000000000E+04  0.00000000000E+00 0.  1.
    9000005    2    1    2  501    0 -0.25721103294E+02 -0.88470819727E+01 -0.89321178530E+03  0.11042251687E+04  0.64864943063E+03 0.  0.
         13    1    3    3    0    0 -0.61796520566E+02 -0.32444788583E+03 -0.42058690267E+03  0.53476965441E+03  0.00000000000E+00 0.  1.
          1    1    3    3  501    0  0.36075417272E+02  0.31560080385E+03 -0.47262488262E+03  0.56945551433E+03  0.00000000000E+00 0.  1.
         -1    1    1    2    0  502  0.25721103294E+02  0.88470819727E+01  0.14304792400E+03  0.14561096997E+03  0.00000000000E+00 0. -1.
<mgrwt>
<rscale>  1 0.64921948E+03</rscale>
<asrwt>0</asrwt>
<pdfrwt beam="1">  1       21 0.38436328E-01 0.64921948E+03</pdfrwt>
<pdfrwt beam="2">0</pdfrwt>
<totfact> 0.61338281E+02</totfact>
</mgrwt>
</event>
<event>
 6    1  0.1386179E-004  0.6524361E+03  0.7818608E-02  0.9802219E-01
         21   -1    0    0  501  502  0.00000000000E+00  0.00000000000E+00  0.12391625310E+03  0.12391625310E+03  0.00000000000E+00 0.  1.
         13   -1    0    0    0    0 -0.00000000000E+00 -0.00000000000E+00 -0.10000000000E+04  0.10000000000E+04  0.00000000000E+00 0.  1.
    9000005    2    1    2  501    0 -0.23159200978E+02 -0.22165717062E+02 -0.87548327822E+03  0.10918533748E+04  0.65164802922E+03 0.  0.
         13    1    3    3    0    0  0.10237284121E+03  0.21437394016E+03 -0.76696545667E+03  0.80291493731E+03  0.00000000000E+00 0.  1.
          3    1    3    3  501    0 -0.12553204219E+03 -0.23653965722E+03 -0.10851782155E+03  0.28893843747E+03  0.00000000000E+00 0.  1.
         -1    1    1    2    0  502  0.23159200978E+02  0.22165717062E+02 -0.60046868227E+00  0.32062878309E+02  0.00000000000E+00 0. -1.
<mgrwt>
<rscale>  1 0.65243607E+03</rscale>
<asrwt>0</asrwt>
<pdfrwt beam="1">  1       21 0.19064038E-01 0.65243607E+03</pdfrwt>
<pdfrwt beam="2">0</pdfrwt>
<totfact> 0.24595687E+03</totfact>
</mgrwt>
</event>
<event>
 6    1  0.1386179E-004  0.6650893E+03  0.7818608E-02  0.9778870E-01
         21   -1    0    0  501  502  0.00000000000E+00  0.00000000000E+00  0.13595379702E+03  0.13595379702E+03  0.00000000000E+00 0.  1.
         13   -1    0    0    0    0 -0.00000000000E+00 -0.00000000000E+00 -0.10000000000E+04  0.10000000000E+04  0.00000000000E+00 0.  1.
    9000005    2    1    2  501    0  0.61288622687E+02 -0.37089860357E+02 -0.79416269657E+03  0.10358755402E+04  0.66121992804E+03 0.  0.
         13    1    3    3    0    0  0.21165901403E+03  0.25309482794E+03 -0.48059893647E+03  0.58295099955E+03  0.00000000000E+00 0.  1.
          3    1    3    3  501    0 -0.15037039134E+03 -0.29018468829E+03 -0.31356376010E+03  0.45292454069E+03  0.00000000000E+00 0.  1.
         -3    1    1    2    0  502 -0.61288622687E+02  0.37089860357E+02 -0.69883506405E+02  0.10007825678E+03  0.00000000000E+00 0. -1.
<mgrwt>
<rscale>  1 0.66508928E+03</rscale>
<asrwt>0</asrwt>
<pdfrwt beam="1">  1       21 0.20915968E-01 0.66508928E+03</pdfrwt>
<pdfrwt beam="2">0</pdfrwt>
<totfact> 0.20579199E+03</totfact>
</mgrwt>
</event>
<event>
 6    1  0.1386179E-004  0.6548437E+03  0.7818608E-02  0.9797733E-01
         21   -1    0    0  501  502  0.00000000000E+00  0.00000000000E+00  0.25194099505E+03  0.25194099505E+03  0.00000000000E+00 0.  1.
         13   -1    0    0    0    0 -0.00000000000E+00 -0.00000000000E+00 -0.10000000000E+04  0.10000000000E+04  0.00000000000E+00 0.  1.
    9000005    2    1    2  501    0  0.11343700886E+03  0.45373455248E+01 -0.86765934959E+03  0.10870386454E+04  0.64492769143E+03 0.  0.
         13    1    3    3    0    0  0.18804555982E+03  0.25176720745E+03 -0.20334439605E+03  0.37429507440E+03  0.00000000000E+00 0.  1.
          3    1    3    3  501    0 -0.74608550958E+02 -0.24722986192E+03 -0.66431495354E+03  0.71274357099E+03  0.00000000000E+00 0.  1.
         -1    1    1    2    0  502 -0.11343700886E+03 -0.45373455248E+01  0.11960034464E+03  0.16490234966E+03  0.00000000000E+00 0. -1.
<mgrwt>
<rscale>  1 0.65484370E+03</rscale>
<asrwt>0</asrwt>
<pdfrwt beam="1">  1       21 0.38760152E-01 0.65484370E+03</pdfrwt>
<pdfrwt beam="2">0</pdfrwt>
<totfact> 0.60258354E+02</totfact>
</mgrwt>
</event>
<event>
 6    1  0.1386179E-004  0.6384570E+03  0.7818608E-02  0.9828683E-01
         21   -1    0    0  501  502  0.00000000000E+00  0.00000000000E+00  0.12583234907E+03  0.12583234907E+03  0.00000000000E+00 0.  1.
         13   -1    0    0    0    0 -0.00000000000E+00 -0.00000000000E+00 -0.10000000000E+04  0.10000000000E+04  0.00000000000E+00 0.  1.
    9000005    2    1    2  501    0  0.50336807752E+02  0.26766695514E+02 -0.85197483818E+03  0.10646541574E+04  0.63590651803E+03 0.  0.
         13    1    3    3    0    0  0.71850591387E+02 -0.15490483204E+03  0.21610435383E+02  0.17211921854E+03  0.00000000000E+00 0.  1.
          1    1    3    3  501    0 -0.21513783635E+02  0.18167152756E+03 -0.87358527356E+03  0.89253493881E+03  0.00000000000E+00 0.  1.
         -1    1    1    2    0  502 -0.50336807752E+02 -0.26766695514E+02 -0.22192812754E+02  0.61178191713E+02  0.00000000000E+00 0. -1.
<mgrwt>
<rscale>  1 0.63845701E+03</rscale>
<asrwt>0</asrwt>
<pdfrwt beam="1">  1       21 0.19358822E-01 0.63845701E+03</pdfrwt>
<pdfrwt beam="2">0</pdfrwt>
<totfact> 0.23897661E+03</totfact>
</mgrwt>
</event>
<event>
 6    1  0.1386179E-004  0.6509257E+03  0.7818608E-02  0.9805044E-01
         21   -1    0    0  501  502  0.00000000000E+00  0.00000000000E+00  0.14274117896E+03  0.14274117896E+03  0.00000000000E+00 0.  1.
         13   -1    0    0    0    0 -0.00000000000E+00 -0.00000000000E+00 -0.10000000000E+04  0.10000000000E+04  0.00000000000E+00 0.  1.
    9000005    2    1    2  501    0 -0.21789525552E+02 -0.17888890869E+02 -0.88800557935E+03  0.11010259661E+04  0.65031490308E+03 0.  0.
         13    1    3    3    0    0  0.13216569983E+03 -0.17400085872E+03 -0.85108109375E+03  0.87868259296E+03  0.00000000000E+00 0.  1.
          1    1    3    3  501    0 -0.15395522538E+03  0.15611196785E+03 -0.36924485599E+02  0.22234337311E+03  0.00000000000E+00 0.  1.
         -3    1    1    2    0  502  0.21789525552E+02  0.17888890869E+02  0.30746758308E+02  0.41715212893E+02  0.00000000000E+00 0. -1.
<mgrwt>
<rscale>  1 0.65092570E+03</rscale>
<asrwt>0</asrwt>
<pdfrwt beam="1">  1       21 0.21960181E-01 0.65092570E+03</pdfrwt>
<pdfrwt beam="2">0</pdfrwt>
<totfact> 0.18743046E+03</totfact>
</mgrwt>
</event>
<event>
 6    1  0.1386179E-004  0.8810935E+03  0.7818608E-02  0.9449529E-01
         21   -1    0    0  501  502  0.00000000000E+00  0.00000000000E+00  0.72237816122E+03  0.72237816122E+03  0.00000000000E+00 0. -1.
         13   -1    0    0    0    0 -0.00000000000E+00 -0.00000000000E+00 -0.10000000000E+04  0.10000000000E+04  0.00000000000E+00 0.  1.
    9000005    2    1    2  501    0  0.58539039582E+03  0.11632832909E+03 -0.57845648724E+03  0.10540102376E+04  0.64816007095E+03 0.  0.
         13    1    3    3    0    0  0.37888774806E+03 -0.23060106594E+00 -0.69365015705E+03  0.79038377968E+03  0.00000000000E+00 0.  1.
          3    1    3    3  501    0  0.20650264776E+03  0.11655893016E+03  0.11519366980E+03  0.26362645788E+03  0.00000000000E+00 0.  1.
         -3    1    1    2    0  502 -0.58539039582E+03 -0.11632832909E+03  0.30083464846E+03  0.66836792366E+03  0.00000000000E+00 0. -1.
<mgrwt>
<rscale>  1 0.88109345E+03</rscale>
<asrwt>0</asrwt>
<pdfrwt beam="1">  1       21 0.11113510E+00 0.88109345E+03</pdfrwt>
<pdfrwt beam="2">0</pdfrwt>
<totfact> 0.54055796E+01</totfact>
</mgrwt>
</event>
<event>
 6    1  0.1386179E-004  0.6493302E+03  0.7818608E-02  0.9808037E-01
         21   -1    0    0  501  502  0.00000000000E+00  0.00000000000E+00  0.13235127345E+03  0.13235127345E+03  0.00000000000E+00 0.  1.
         13   -1    0    0    0    0 -0.00000000000E+00 -0.00000000000E+00 -0.10000000000E+04  0.10000000000E+04  0.00000000000E+00 0.  1.
    9000005    2    1    2  501    0  0.49114427715E+02 -0.54342077272E+02 -0.81550627108E+03  0.10424395165E+04  0.64518553847E+03 0.  0.
         13    1    3    3    0    0  0.10084067188E+03 -0.51877572830E+02 -0.91939352043E+03  0.92636092808E+03  0.00000000000E+00 0.  1.
          3    1    3    3  501    0 -0.51726244167E+02 -0.24645044417E+01  0.10388724934E+03  0.11607858844E+03  0.00000000000E+00 0.  1.
         -1    1    1    2    0  502 -0.49114427715E+02  0.54342077272E+02 -0.52142455467E+02  0.89911756930E+02  0.00000000000E+00 0. -1.
<mgrwt>
<rscale>  1 0.64933017E+03</rscale>
<asrwt>0</asrwt>
<pdfrwt beam="1">  1       21 0.20361734E-01 0.64933017E+03</pdfrwt>
<pdfrwt beam="2">0</pdfrwt>
<totfact> 0.21684167E+03</totfact>
</mgrwt>
</event>
<event>
 6    1  0.1386179E-004  0.6538831E+03  0.7818608E-02  0.9799520E-01
         21   -1    0    0  501  502  0.00000000000E+00  0.00000000000E+00  0.15157373786E+03  0.15157373786E+03  0.00000000000E+00 0.  1.
         13   -1    0    0    0    0 -0.00000000000E+00 -0.00000000000E+00 -0.10000000000E+04  0.10000000000E+04  0.00000000000E+00 0.  1.
    9000005    2    1    2  501    0 -0.28072495991E+02 -0.39648774281E+02 -0.87797219708E+03  0.10947137994E+04  0.65207594142E+03 0.  0.
         13    1    3    3    0    0 -0.13890823344E+03 -0.99235816257E+01 -0.94939176172E+03  0.95955129723E+03  0.00000000000E+00 0.  1.
          3    1    3    3  501    0  0.11083573745E+03 -0.29725192655E+02  0.71419564642E+02  0.13516250215E+03  0.00000000000E+00 0.  1.
         -1    1    1    2    0  502  0.28072495991E+02  0.39648774281E+02  0.29545934937E+02  0.56859938484E+02  0.00000000000E+00 0. -1.
<mgrwt>
<rscale>  1 0.65388311E+03</rscale>
<asrwt>0</asrwt>
<pdfrwt beam="1">  1       21 0.23319036E-01 0.65388311E+03</pdfrwt>
<pdfrwt beam="2">0</pdfrwt>
<totfact> 0.16679287E+03</totfact>
</mgrwt>
</event>
<event>
 6    1  0.1386179E-004  0.6563418E+03  0.7818608E-02  0.9794952E-01
         21   -1    0    0  501  502  0.00000000000E+00  0.00000000000E+00  0.15239510996E+03  0.15239510996E+03  0.00000000000E+00 0.  1.
         13   -1    0    0    0    0 -0.00000000000E+00 -0.00000000000E+00 -0.10000000000E+04  0.10000000000E+04  0.00000000000E+00 0.  1.
    9000005    2    1    2  501    0 -0.18023760979E+02  0.22495072039E+02 -0.88709464959E+03  0.11035041564E+04  0.65570848839E+03 0.  0.
         13    1    3    3    0    0 -0.16476016647E+03 -0.26749745736E+03 -0.56178153699E+03  0.64366085593E+03  0.00000000000E+00 0.  1.
          3    1    3    3  501    0  0.14673640549E+03  0.28999252940E+03 -0.32531311260E+03  0.45984330052E+03  0.00000000000E+00 0.  1.
         -1    1    1    2    0  502  0.18023760979E+02 -0.22495072039E+02  0.39489759553E+02  0.48890953513E+02  0.00000000000E+00 0. -1.
<mgrwt>
<rscale>  1 0.65634176E+03</rscale>
<asrwt>0</asrwt>
<pdfrwt beam="1">  1       21 0.23445401E-01 0.65634176E+03</pdfrwt>
<pdfrwt beam="2">0</pdfrwt>
<totfact> 0.16502747E+03</totfact>
</mgrwt>
</event>
<event>
 6    1  0.1386179E-004  0.6391567E+03  0.7818608E-02  0.9827341E-01
         21   -1    0    0  501  502  0.00000000000E+00  0.00000000000E+00  0.40853085777E+03  0.40853085777E+03  0.00000000000E+00 0. -1.
         13   -1    0    0    0    0 -0.00000000000E+00 -0.00000000000E+00 -0.10000000000E+04  0.10000000000E+04  0.00000000000E+00 0.  1.
    9000005    2    1    2  501    0  0.15672117038E+02 -0.96595823594E+02 -0.88922902218E+03  0.10951025334E+04  0.63162088032E+03 0.  0.
         13    1    3    3    0    0  0.21481912226E+03 -0.37065029523E+02 -0.85757951397E+03  0.88485235745E+03  0.00000000000E+00 0.  1.
          1    1    3    3  501    0 -0.19914700522E+03 -0.59530794071E+02 -0.31649508206E+02  0.21025017598E+03  0.00000000000E+00 0.  1.
         -1    1    1    2    0  502 -0.15672117038E+02  0.96595823594E+02  0.29775987995E+03  0.31342832434E+03  0.00000000000E+00 0. -1.
<mgrwt>
<rscale>  1 0.63915671E+03</rscale>
<asrwt>0</asrwt>
<pdfrwt beam="1">  1       21 0.62850899E-01 0.63915671E+03</pdfrwt>
<pdfrwt beam="2">0</pdfrwt>
<totfact> 0.21428167E+02</totfact>
</mgrwt>
</event>
<event>
 6    1  0.1386179E-004  0.6783651E+03  0.7818608E-02  0.9754963E-01
         21   -1    0    0  501  502  0.00000000000E+00  0.00000000000E+00  0.41012729174E+03  0.41012729174E+03  0.00000000000E+00 0.  1.
         13   -1    0    0    0    0 -0.00000000000E+00 -0.00000000000E+00 -0.10000000000E+04  0.10000000000E+04  0.00000000000E+00 0.  1.
    9000005    2    1    2  501    0  0.13684364338E+03  0.21267484171E+03 -0.82274597625E+03  0.10663443224E+04  0.62946207317E+03 0.  0.
         13    1    3    3    0    0  0.11501037979E+03  0.16801321884E+03 -0.92792944346E+03  0.95000467430E+03  0.00000000000E+00 0.  1.
          1    1    3    3  501    0  0.21833263589E+02  0.44661622874E+02  0.10518346721E+03  0.11633964815E+03  0.00000000000E+00 0.  1.
         -1    1    1    2    0  502 -0.13684364338E+03 -0.21267484171E+03  0.23287326799E+03  0.34378296929E+03  0.00000000000E+00 0. -1.
<mgrwt>
<rscale>  1 0.67836515E+03</rscale>
<asrwt>0</asrwt>
<pdfrwt beam="1">  1       21 0.63096505E-01 0.67836515E+03</pdfrwt>
<pdfrwt beam="2">0</pdfrwt>
<totfact> 0.21150947E+02</totfact>
</mgrwt>
</event>
<event>
 6    1  0.1386179E-004  0.6599712E+03  0.7818608E-02  0.9788247E-01
         21   -1    0    0  501  502  0.00000000000E+00  0.00000000000E+00  0.25224212407E+03  0.25224212407E+03  0.00000000000E+00 0.  1.
         13   -1    0    0    0    0 -0.00000000000E+00 -0.00000000000E+00 -0.10000000000E+04  0.10000000000E+04  0.00000000000E+00 0.  1.
    9000005    2    1    2  501    0 -0.16676954087E+02 -0.47244934800E+02 -0.88623668682E+03  0.11049784635E+04  0.65806666459E+03 0.  0.
         13    1    3    3    0    0 -0.32889073000E+03 -0.91912548670E+02 -0.51388441216E+03  0.61700422847E+03  0.00000000000E+00 0.  1.
          1    1    3    3  501    0  0.31221377591E+03  0.44667613870E+02 -0.37235227466E+03  0.48797423502E+03  0.00000000000E+00 0.  1.
         -1    1    1    2    0  502  0.16676954087E+02  0.47244934800E+02  0.13847881089E+03  0.14726366058E+03  0.00000000000E+00 0. -1.
<mgrwt>
<rscale>  1 0.65997117E+03</rscale>
<asrwt>0</asrwt>
<pdfrwt beam="1">  1       21 0.38806480E-01 0.65997117E+03</pdfrwt>
<pdfrwt beam="2">0</pdfrwt>
<totfact> 0.60085758E+02</totfact>
</mgrwt>
</event>
<event>
 6    1  0.1386179E-004  0.4965736E+03  0.7818608E-02  0.1014677E+00
         21   -1    0    0  501  502  0.00000000000E+00  0.00000000000E+00  0.23850576335E+03  0.23850576335E+03  0.00000000000E+00 0. -1.
         13   -1    0    0    0    0 -0.00000000000E+00 -0.00000000000E+00 -0.10000000000E+04  0.10000000000E+04  0.00000000000E+00 0.  1.
    9000005    2    1    2  501    0  0.41919081852E+02 -0.38576671732E+02 -0.93347421524E+03  0.10573360030E+04  0.49329498651E+03 0.  0.
         13    1    3    3    0    0 -0.80868916652E+02  0.15793766710E+03 -0.12692664060E+03  0.21816154672E+03  0.00000000000E+00 0.  1.
          1    1    3    3  501    0  0.12278799850E+03 -0.19651433884E+03 -0.80654757464E+03  0.83917445630E+03  0.00000000000E+00 0.  1.
         -1    1    1    2    0  502 -0.41919081852E+02  0.38576671732E+02  0.17197997860E+03  0.18116976034E+03  0.00000000000E+00 0. -1.
<mgrwt>
<rscale>  1 0.49657357E+03</rscale>
<asrwt>0</asrwt>
<pdfrwt beam="1">  1       21 0.36693193E-01 0.49657357E+03</pdfrwt>
<pdfrwt beam="2">0</pdfrwt>
<totfact> 0.68376712E+02</totfact>
</mgrwt>
</event>
<event>
 6    1  0.1386179E-004  0.6573423E+03  0.7818608E-02  0.9793099E-01
         21   -1    0    0  501  502  0.00000000000E+00  0.00000000000E+00  0.72102856990E+03  0.72102856990E+03  0.00000000000E+00 0. -1.
         13   -1    0    0    0    0 -0.00000000000E+00 -0.00000000000E+00 -0.10000000000E+04  0.10000000000E+04  0.00000000000E+00 0.  1.
    9000005    2    1    2  501    0 -0.48317105203E+02 -0.74510889300E+02 -0.88840837723E+03  0.11051553623E+04  0.65131598696E+03 0.  0.
         13    1    3    3    0    0 -0.12880369233E+03 -0.13825987846E+03  0.20859680447E+02  0.19010868317E+03  0.00000000000E+00 0.  1.
          3    1    3    3  501    0  0.80486587124E+02  0.63748989157E+02 -0.90926805768E+03  0.91504667916E+03  0.00000000000E+00 0.  1.
         -1    1    1    2    0  502  0.48317105203E+02  0.74510889300E+02  0.60943694713E+03  0.61587320757E+03  0.00000000000E+00 0. -1.
<mgrwt>
<rscale>  1 0.65734232E+03</rscale>
<asrwt>0</asrwt>
<pdfrwt beam="1">  1       21 0.11092747E+00 0.65734232E+03</pdfrwt>
<pdfrwt beam="2">0</pdfrwt>
<totfact> 0.55977271E+01</totfact>
</mgrwt>
</event>
<event>
 6    1  0.1386179E-004  0.6624454E+03  0.7818608E-02  0.9783702E-01
         21   -1    0    0  501  502  0.00000000000E+00  0.00000000000E+00  0.14754760790E+03  0.14754760790E+03  0.00000000000E+00 0.  1.
         13   -1    0    0    0    0 -0.00000000000E+00 -0.00000000000E+00 -0.10000000000E+04  0.10000000000E+04  0.00000000000E+00 0.  1.
    9000005    2    1    2  501    0  0.52775793797E+02  0.84997740094E+02 -0.78362370612E+03  0.10261091945E+04  0.65484659734E+03 0.  0.
         13    1    3    3    0    0 -0.26370460051E+03  0.84146971142E+02 -0.59862218354E+03  0.65952206007E+03  0.00000000000E+00 0.  1.
          1    1    3    3  501    0  0.31648039431E+03  0.85076895241E+00 -0.18500152257E+03  0.36658713445E+03  0.00000000000E+00 0.  1.
         -1    1    1    2    0  502 -0.52775793797E+02 -0.84997740094E+02 -0.68828685981E+02  0.12143841339E+03  0.00000000000E+00 0. -1.
<mgrwt>
<rscale>  1 0.66244544E+03</rscale>
<asrwt>0</asrwt>
<pdfrwt beam="1">  1       21 0.22699631E-01 0.66244544E+03</pdfrwt>
<pdfrwt beam="2">0</pdfrwt>
<totfact> 0.17568524E+03</totfact>
</mgrwt>
</event>
<event>
 6    1  0.1386179E-004  0.6595874E+03  0.7818608E-02  0.9788954E-01
         21   -1    0    0  501  502  0.00000000000E+00  0.00000000000E+00  0.17018266045E+03  0.17018266045E+03  0.00000000000E+00 0.  1.
         13   -1    0    0    0    0 -0.00000000000E+00 -0.00000000000E+00 -0.10000000000E+04  0.10000000000E+04  0.00000000000E+00 0.  1.
    9000005    2    1    2  501    0  0.50601498736E+02  0.86482567864E+02 -0.84162220750E+03  0.10692911290E+04  0.65193238308E+03 0.  0.
         13    1    3    3    0    0 -0.22875980291E+03  0.17282919750E+03 -0.67353980299E+03  0.73202243487E+03  0.00000000000E+00 0.  1.
          3    1    3    3  501    0  0.27936130165E+03 -0.86346629638E+02 -0.16808240451E+03  0.33726869409E+03  0.00000000000E+00 0.  1.
         -1    1    1    2    0  502 -0.50601498736E+02 -0.86482567864E+02  0.11804867954E+02  0.10089153149E+03  0.00000000000E+00 0. -1.
<mgrwt>
<rscale>  1 0.65958743E+03</rscale>
<asrwt>0</asrwt>
<pdfrwt beam="1">  1       21 0.26181947E-01 0.65958743E+03</pdfrwt>
<pdfrwt beam="2">0</pdfrwt>
<totfact> 0.13291231E+03</totfact>
</mgrwt>
</event>
<event>
 6    1  0.1386179E-004  0.5017045E+03  0.7818608E-02  0.1013335E+00
         21   -1    0    0  501  502  0.00000000000E+00  0.00000000000E+00  0.29760726513E+03  0.29760726513E+03  0.00000000000E+00 0. -1.
         13   -1    0    0    0    0 -0.00000000000E+00 -0.00000000000E+00 -0.10000000000E+04  0.10000000000E+04  0.00000000000E+00 0.  1.
    9000005    2    1    2  501    0 -0.20308061935E+02 -0.26626254412E+02 -0.93580289678E+03  0.10618071835E+04  0.50058571548E+03 0.  0.
         13    1    3    3    0    0 -0.38206004614E+02 -0.25099401405E+03 -0.65130761705E+03  0.69904170541E+03  0.00000000000E+00 0.  1.
          3    1    3    3  501    0  0.17897942679E+02  0.22436775964E+03 -0.28449527974E+03  0.36276547811E+03  0.00000000000E+00 0.  1.
         -1    1    1    2    0  502  0.20308061935E+02  0.26626254412E+02  0.23341016192E+03  0.23580008162E+03  0.00000000000E+00 0. -1.
<mgrwt>
<rscale>  1 0.50170453E+03</rscale>
<asrwt>0</asrwt>
<pdfrwt beam="1">  1       21 0.45785732E-01 0.50170453E+03</pdfrwt>
<pdfrwt beam="2">0</pdfrwt>
<totfact> 0.43197154E+02</totfact>
</mgrwt>
</event>
<event>
 6    1  0.1386179E-004  0.6403196E+03  0.7818608E-02  0.9825115E-01
         21   -1    0    0  501  502  0.00000000000E+00  0.00000000000E+00  0.20628711458E+03  0.20628711458E+03  0.00000000000E+00 0. -1.
         13   -1    0    0    0    0 -0.00000000000E+00 -0.00000000000E+00 -0.10000000000E+04  0.10000000000E+04  0.00000000000E+00 0.  1.
    9000005    2    1    2  501    0  0.45567723861E+02  0.28414897190E+02 -0.88978031356E+03  0.10962290636E+04  0.63806373473E+03 0.  0.
         13    1    3    3    0    0  0.14665666582E+03  0.30697609159E+03 -0.53447247782E+03  0.63356398887E+03  0.00000000000E+00 0.  1.
          3    1    3    3  501    0 -0.10108894196E+03 -0.27856119440E+03 -0.35530783574E+03  0.46266507471E+03  0.00000000000E+00 0.  1.
         -3    1    1    2    0  502 -0.45567723861E+02 -0.28414897190E+02  0.96067428141E+02  0.11005805100E+03  0.00000000000E+00 0. -1.
<mgrwt>
<rscale>  1 0.64031957E+03</rscale>
<asrwt>0</asrwt>
<pdfrwt beam="1">  1       21 0.31736478E-01 0.64031957E+03</pdfrwt>
<pdfrwt beam="2">0</pdfrwt>
<totfact> 0.90693736E+02</totfact>
</mgrwt>
</event>
<event>
 6    1  0.1386179E-004  0.5407454E+03  0.7818608E-02  0.1003659E+00
         21   -1    0    0  501  502  0.00000000000E+00  0.00000000000E+00  0.94443355532E+02  0.94443355532E+02  0.00000000000E+00 0. -1.
         13   -1    0    0    0    0 -0.00000000000E+00 -0.00000000000E+00 -0.10000000000E+04  0.10000000000E+04  0.00000000000E+00 0.  1.
    9000005    2    1    2  501    0  0.23578788870E+02  0.12841190672E+02 -0.91755059054E+03  0.10650374003E+04  0.54007844088E+03 0.  0.
         13    1    3    3    0    0  0.10559047889E+03  0.33710190043E+02 -0.96274194471E+03  0.96910153145E+03  0.00000000000E+00 0.  1.
          3    1    3    3  501    0 -0.82011690022E+02 -0.20868999371E+02  0.45191354170E+02  0.95935868823E+02  0.00000000000E+00 0.  1.
         -1    1    1    2    0  502 -0.23578788870E+02 -0.12841190672E+02  0.11993946074E+02  0.29405955262E+02  0.00000000000E+00 0. -1.
<mgrwt>
<rscale>  1 0.54074539E+03</rscale>
<asrwt>0</asrwt>
<pdfrwt beam="1">  1       21 0.14529747E-01 0.54074539E+03</pdfrwt>
<pdfrwt beam="2">0</pdfrwt>
<totfact> 0.41146854E+03</totfact>
</mgrwt>
</event>
<event>
 6    1  0.1386179E-004  0.6557211E+03  0.7818608E-02  0.9796103E-01
         21   -1    0    0  501  502  0.00000000000E+00  0.00000000000E+00  0.38906618158E+03  0.38906618158E+03  0.00000000000E+00 0. -1.
         13   -1    0    0    0    0 -0.00000000000E+00 -0.00000000000E+00 -0.10000000000E+04  0.10000000000E+04  0.00000000000E+00 0.  1.
    9000005    2    1    2  501    0  0.90425915513E+02 -0.51534283643E+02 -0.88180577983E+03  0.10988864992E+04  0.64740827627E+03 0.  0.
         13    1    3    3    0    0  0.66237288107E+02 -0.25647664998E+03 -0.84970829322E+03  0.89004035520E+03  0.00000000000E+00 0.  1.
          3    1    3    3  501    0  0.24188627406E+02  0.20494236633E+03 -0.32097486612E+02  0.20884614399E+03  0.00000000000E+00 0.  1.
         -3    1    1    2    0  502 -0.90425915513E+02  0.51534283643E+02  0.27087196141E+03  0.29017968238E+03  0.00000000000E+00 0. -1.
<mgrwt>
<rscale>  1 0.65572106E+03</rscale>
<asrwt>0</asrwt>
<pdfrwt beam="1">  1       21 0.59856334E-01 0.65572106E+03</pdfrwt>
<pdfrwt beam="2">0</pdfrwt>
<totfact> 0.23834762E+02</totfact>
</mgrwt>
</event>
<event>
 6    1  0.1386179E-004  0.6504063E+03  0.7818608E-02  0.9806017E-01
         21   -1    0    0  501  502  0.00000000000E+00  0.00000000000E+00  0.14807921465E+03  0.14807921465E+03  0.00000000000E+00 0.  1.
         13   -1    0    0    0    0 -0.00000000000E+00 -0.00000000000E+00 -0.10000000000E+04  0.10000000000E+04  0.00000000000E+00 0.  1.
    9000005    2    1    2  501    0  0.83317424155E+02 -0.62611170050E+02 -0.80180884953E+03  0.10324368440E+04  0.64200191108E+03 0.  0.
         13    1    3    3    0    0 -0.41099843122E+02 -0.34044883730E+03 -0.47447077060E+03  0.58542046435E+03  0.00000000000E+00 0.  1.
          3    1    3    3  501    0  0.12441726728E+03  0.27783766725E+03 -0.32733807893E+03  0.44701637963E+03  0.00000000000E+00 0.  1.
         -3    1    1    2    0  502 -0.83317424155E+02  0.62611170050E+02 -0.50111935824E+02  0.11564237067E+03  0.00000000000E+00 0. -1.
<mgrwt>
<rscale>  1 0.65040634E+03</rscale>
<asrwt>0</asrwt>
<pdfrwt beam="1">  1       21 0.22781417E-01 0.65040634E+03</pdfrwt>
<pdfrwt beam="2">0</pdfrwt>
<totfact> 0.17455948E+03</totfact>
</mgrwt>
</event>
<event>
 6    1  0.1386179E-004  0.6463256E+03  0.7818608E-02  0.9813698E-01
         21   -1    0    0  501  502  0.00000000000E+00  0.00000000000E+00  0.12178674237E+03  0.12178674237E+03  0.00000000000E+00 0.  1.
         13   -1    0    0    0    0 -0.00000000000E+00 -0.00000000000E+00 -0.10000000000E+04  0.10000000000E+04  0.00000000000E+00 0.  1.
    9000005    2    1    2  501    0 -0.29565779252E+02  0.34848050710E+02 -0.85093924747E+03  0.10685665059E+04  0.64470788167E+03 0.  0.
         13    1    3    3    0    0  0.21716559356E+03 -0.21814295343E+02 -0.43736251569E+02  0.22259743531E+03  0.00000000000E+00 0.  1.
          1    1    3    3  501    0 -0.24673137281E+03  0.56662346053E+02 -0.80720299590E+03  0.84596907058E+03  0.00000000000E+00 0.  1.
         -3    1    1    2    0  502  0.29565779252E+02 -0.34848050710E+02 -0.27274010159E+02  0.53220236482E+02  0.00000000000E+00 0. -1.
<mgrwt>
<rscale>  1 0.64632559E+03</rscale>
<asrwt>0</asrwt>
<pdfrwt beam="1">  1       21 0.18736421E-01 0.64632559E+03</pdfrwt>
<pdfrwt beam="2">0</pdfrwt>
<totfact> 0.25428132E+03</totfact>
</mgrwt>
</event>
<event>
 6    1  0.1386179E-004  0.6710490E+03  0.7818608E-02  0.9768065E-01
         21   -1    0    0  501  502  0.00000000000E+00  0.00000000000E+00  0.20246178192E+03  0.20246178192E+03  0.00000000000E+00 0. -1.
         13   -1    0    0    0    0 -0.00000000000E+00 -0.00000000000E+00 -0.10000000000E+04  0.10000000000E+04  0.00000000000E+00 0.  1.
    9000005    2    1    2  501    0  0.55126137750E+02  0.21069756617E+01 -0.87789465956E+03  0.11049913346E+04  0.66877760572E+03 0.  0.
         13    1    3    3    0    0 -0.28179991757E+03  0.59136541469E+02 -0.59636406770E+03  0.66223743878E+03  0.00000000000E+00 0.  1.
          3    1    3    3  501    0  0.33692605532E+03 -0.57029565808E+02 -0.28153059185E+03  0.44275389584E+03  0.00000000000E+00 0.  1.
         -1    1    1    2    0  502 -0.55126137750E+02 -0.21069756617E+01  0.80356441479E+02  0.97470447300E+02  0.00000000000E+00 0. -1.
<mgrwt>
<rscale>  1 0.67104904E+03</rscale>
<asrwt>0</asrwt>
<pdfrwt beam="1">  1       21 0.31147966E-01 0.67104904E+03</pdfrwt>
<pdfrwt beam="2">0</pdfrwt>
<totfact> 0.93987821E+02</totfact>
</mgrwt>
</event>
<event>
 6    1  0.1386179E-004  0.7025110E+03  0.7818608E-02  0.9712948E-01
         21   -1    0    0  501  502  0.00000000000E+00  0.00000000000E+00  0.39065827602E+03  0.39065827602E+03  0.00000000000E+00 0. -1.
         13   -1    0    0    0    0 -0.00000000000E+00 -0.00000000000E+00 -0.10000000000E+04  0.10000000000E+04  0.00000000000E+00 0.  1.
    9000005    2    1    2  501    0  0.13385608672E+03 -0.22493579133E+03 -0.80161026514E+03  0.10658802686E+04  0.65192650481E+03 0.  0.
         13    1    3    3    0    0  0.26224179881E+03  0.81854177207E+02 -0.10526962099E+03  0.29419816531E+03  0.00000000000E+00 0.  1.
          3    1    3    3  501    0 -0.12838571209E+03 -0.30678996854E+03 -0.69634064415E+03  0.77168210330E+03  0.00000000000E+00 0.  1.
         -3    1    1    2    0  502 -0.13385608672E+03  0.22493579133E+03  0.19226854116E+03  0.32477800740E+03  0.00000000000E+00 0. -1.
<mgrwt>
<rscale>  1 0.70251102E+03</rscale>
<asrwt>0</asrwt>
<pdfrwt beam="1">  1       21 0.60101272E-01 0.70251102E+03</pdfrwt>
<pdfrwt beam="2">0</pdfrwt>
<totfact> 0.23505870E+02</totfact>
</mgrwt>
</event>
<event>
 6    1  0.1386179E-004  0.6502045E+03  0.7818608E-02  0.9806395E-01
         21   -1    0    0  501  502  0.00000000000E+00  0.00000000000E+00  0.12099043470E+03  0.12099043470E+03  0.00000000000E+00 0.  1.
         13   -1    0    0    0    0 -0.00000000000E+00 -0.00000000000E+00 -0.10000000000E+04  0.10000000000E+04  0.00000000000E+00 0.  1.
    9000005    2    1    2  501    0  0.22588719297E+02  0.47136498251E+01 -0.88401103371E+03  0.10973793479E+04  0.64979493435E+03 0.  0.
         13    1    3    3    0    0  0.23302148159E+03 -0.19398159845E+03 -0.22482605419E+03  0.37745811167E+03  0.00000000000E+00 0.  1.
          3    1    3    3  501    0 -0.21043276230E+03  0.19869524827E+03 -0.65918497952E+03  0.71992123622E+03  0.00000000000E+00 0.  1.
         -3    1    1    2    0  502 -0.22588719297E+02 -0.47136498251E+01  0.50014684149E+01  0.23611086812E+02  0.00000000000E+00 0. -1.
<mgrwt>
<rscale>  1 0.65020453E+03</rscale>
<asrwt>0</asrwt>
<pdfrwt beam="1">  1       21 0.18613912E-01 0.65020453E+03</pdfrwt>
<pdfrwt beam="2">0</pdfrwt>
<totfact> 0.25744142E+03</totfact>
</mgrwt>
</event>
<event>
 6    1  0.1386179E-004  0.6586066E+03  0.7818608E-02  0.9790762E-01
         21   -1    0    0  501  502  0.00000000000E+00  0.00000000000E+00  0.12532362429E+03  0.12532362429E+03  0.00000000000E+00 0. -1.
         13   -1    0    0    0    0 -0.00000000000E+00 -0.00000000000E+00 -0.10000000000E+04  0.10000000000E+04  0.00000000000E+00 0.  1.
    9000005    2    1    2  501    0  0.39493583117E+01 -0.25949360141E+02 -0.87936889621E+03  0.10986592947E+04  0.65808329527E+03 0.  0.
         13    1    3    3    0    0  0.13281723378E+03 -0.37542385920E+01 -0.94364309301E+03  0.95295162463E+03  0.00000000000E+00 0.  1.
          1    1    3    3  501    0 -0.12886787547E+03 -0.22195121549E+02  0.64274196797E+02  0.14570767009E+03  0.00000000000E+00 0.  1.
         -1    1    1    2    0  502 -0.39493583117E+01  0.25949360141E+02  0.46925205012E+01  0.26664329571E+02  0.00000000000E+00 0. -1.
<mgrwt>
<rscale>  1 0.65860655E+03</rscale>
<asrwt>0</asrwt>
<pdfrwt beam="1">  1       21 0.19280557E-01 0.65860655E+03</pdfrwt>
<pdfrwt beam="2">0</pdfrwt>
<totfact> 0.24065311E+03</totfact>
</mgrwt>
</event>
<event>
 6    1  0.1386179E-004  0.7295158E+03  0.7818608E-02  0.9668046E-01
         21   -1    0    0  501  502  0.00000000000E+00  0.00000000000E+00  0.36667344164E+03  0.36667344164E+03  0.00000000000E+00 0. -1.
         13   -1    0    0    0    0 -0.00000000000E+00 -0.00000000000E+00 -0.10000000000E+04  0.10000000000E+04  0.00000000000E+00 0.  1.
    9000005    2    1    2  501    0 -0.80729184670E+02  0.81724586826E+02 -0.85079178288E+03  0.11207319176E+04  0.72041464732E+03 0.  0.
         13    1    3    3    0    0  0.99873993832E+02  0.36840027446E+03 -0.36251349037E+03  0.52641201313E+03  0.00000000000E+00 0.  1.
          3    1    3    3  501    0 -0.18060317850E+03 -0.28667568764E+03 -0.48827829251E+03  0.59431990452E+03  0.00000000000E+00 0.  1.
         -1    1    1    2    0  502  0.80729184670E+02 -0.81724586826E+02  0.21746522451E+03  0.24594152399E+03  0.00000000000E+00 0. -1.
<mgrwt>
<rscale>  1 0.72951585E+03</rscale>
<asrwt>0</asrwt>
<pdfrwt beam="1">  1       21 0.56411297E-01 0.72951585E+03</pdfrwt>
<pdfrwt beam="2">0</pdfrwt>
<totfact> 0.26955876E+02</totfact>
</mgrwt>
</event>
<event>
 6    1  0.1386179E-004  0.6473217E+03  0.7818608E-02  0.9811818E-01
         21   -1    0    0  501  502  0.00000000000E+00  0.00000000000E+00  0.12565345943E+03  0.12565345943E+03  0.00000000000E+00 0.  1.
         13   -1    0    0    0    0 -0.00000000000E+00 -0.00000000000E+00 -0.10000000000E+04  0.10000000000E+04  0.00000000000E+00 0.  1.
    9000005    2    1    2  501    0  0.34895977210E+02 -0.14956896819E+02 -0.87409161334E+03  0.10876863292E+04  0.64620736941E+03 0.  0.
         13    1    3    3    0    0 -0.18374066029E+03 -0.83871281161E+02 -0.83002847155E+03  0.85424954530E+03  0.00000000000E+00 0.  1.
          1    1    3    3  501    0  0.21863663750E+03  0.68914384342E+02 -0.44063141791E+02  0.23343678393E+03  0.00000000000E+00 0.  1.
         -3    1    1    2    0  502 -0.34895977210E+02  0.14956896819E+02 -0.25492722580E+00  0.37967130202E+02  0.00000000000E+00 0. -1.
<mgrwt>
<rscale>  1 0.64732171E+03</rscale>
<asrwt>0</asrwt>
<pdfrwt beam="1">  1       21 0.19331301E-01 0.64732171E+03</pdfrwt>
<pdfrwt beam="2">0</pdfrwt>
<totfact> 0.23954718E+03</totfact>
</mgrwt>
</event>
<event>
 6    1  0.1386179E-004  0.6495410E+03  0.7818608E-02  0.9807641E-01
         21   -1    0    0  501  502  0.00000000000E+00  0.00000000000E+00  0.18154901401E+03  0.18154901401E+03  0.00000000000E+00 0.  1.
         13   -1    0    0    0    0 -0.00000000000E+00 -0.00000000000E+00 -0.10000000000E+04  0.10000000000E+04  0.00000000000E+00 0.  1.
    9000005    2    1    2  501    0  0.24580306389E+01  0.30323878128E+02 -0.89114621738E+03  0.11027443430E+04  0.64882811735E+03 0.  0.
         13    1    3    3    0    0 -0.24727367069E+03 -0.17934904963E+03 -0.56063714317E+03  0.63845466255E+03  0.00000000000E+00 0.  1.
          1    1    3    3  501    0  0.24973170133E+03  0.20967292776E+03 -0.33050907421E+03  0.46428968050E+03  0.00000000000E+00 0.  1.
         -1    1    1    2    0  502 -0.24580306389E+01 -0.30323878128E+02  0.72695231387E+02  0.78804670964E+02  0.00000000000E+00 0. -1.
<mgrwt>
<rscale>  1 0.64954100E+03</rscale>
<asrwt>0</asrwt>
<pdfrwt beam="1">  1       21 0.27930617E-01 0.64954100E+03</pdfrwt>
<pdfrwt beam="2">0</pdfrwt>
<totfact> 0.11702476E+03</totfact>
</mgrwt>
</event>
<event>
 6    1  0.1386179E-004  0.6591896E+03  0.7818608E-02  0.9789687E-01
         21   -1    0    0  501  502  0.00000000000E+00  0.00000000000E+00  0.16013867592E+03  0.16013867592E+03  0.00000000000E+00 0.  1.
         13   -1    0    0    0    0 -0.00000000000E+00 -0.00000000000E+00 -0.10000000000E+04  0.10000000000E+04  0.00000000000E+00 0.  1.
    9000005    2    1    2  501    0 -0.63036104121E+02  0.25806455240E+02 -0.86498940638E+03  0.10875374082E+04  0.65566105385E+03 0.  0.
         13    1    3    3    0    0 -0.28599298632E+03  0.80867194540E+02 -0.14283843019E+03  0.32974885673E+03  0.00000000000E+00 0.  1.
          1    1    3    3  501    0  0.22295688220E+03 -0.55060739300E+02 -0.72215097618E+03  0.75778855147E+03  0.00000000000E+00 0.  1.
         -3    1    1    2    0  502  0.63036104121E+02 -0.25806455240E+02  0.25128082300E+02  0.72601267722E+02  0.00000000000E+00 0. -1.
<mgrwt>
<rscale>  1 0.65918961E+03</rscale>
<asrwt>0</asrwt>
<pdfrwt beam="1">  1       21 0.24636719E-01 0.65918961E+03</pdfrwt>
<pdfrwt beam="2">0</pdfrwt>
<totfact> 0.14978276E+03</totfact>
</mgrwt>
</event>
<event>
 6    1  0.1386179E-004  0.6713517E+03  0.7818608E-02  0.9767519E-01
         21   -1    0    0  501  502  0.00000000000E+00  0.00000000000E+00  0.18718322318E+03  0.18718322318E+03  0.00000000000E+00 0.  1.
         13   -1    0    0    0    0 -0.00000000000E+00 -0.00000000000E+00 -0.10000000000E+04  0.10000000000E+04  0.00000000000E+00 0.  1.
    9000005    2    1    2  501    0  0.79588155818E+02  0.15430147244E+03 -0.73931079891E+03  0.99864583237E+03  0.64851354819E+03 0.  0.
         13    1    3    3    0    0 -0.49868201611E+02  0.28279499694E+03 -0.76249859175E+03  0.81477846698E+03  0.00000000000E+00 0.  1.
          1    1    3    3  501    0  0.12945635743E+03 -0.12849352451E+03  0.23187792847E+02  0.18386736539E+03  0.00000000000E+00 0.  1.
         -1    1    1    2    0  502 -0.79588155818E+02 -0.15430147244E+03 -0.73505977914E+02  0.18853739080E+03  0.00000000000E+00 0. -1.
<mgrwt>
<rscale>  1 0.67135165E+03</rscale>
<asrwt>0</asrwt>
<pdfrwt beam="1">  1       21 0.28797418E-01 0.67135165E+03</pdfrwt>
<pdfrwt beam="2">0</pdfrwt>
<totfact> 0.10997960E+03</totfact>
</mgrwt>
</event>
<event>
 6    1  0.1386179E-004  0.6370285E+03  0.7818608E-02  0.9831428E-01
         21   -1    0    0  501  502  0.00000000000E+00  0.00000000000E+00  0.69597330088E+03  0.69597330088E+03  0.00000000000E+00 0. -1.
         13   -1    0    0    0    0 -0.00000000000E+00 -0.00000000000E+00 -0.10000000000E+04  0.10000000000E+04  0.00000000000E+00 0.  1.
    9000005    2    1    2  501    0 -0.12057533948E+02  0.25082946675E+02 -0.89818989616E+03  0.11011586717E+04  0.63642029542E+03 0.  0.
         13    1    3    3    0    0  0.24650734361E+03  0.15099980539E+03 -0.21612067843E+03  0.36093622612E+03  0.00000000000E+00 0.  1.
          1    1    3    3  501    0 -0.25856487755E+03 -0.12591685871E+03 -0.68206921773E+03  0.74022244561E+03  0.00000000000E+00 0.  1.
         -1    1    1    2    0  502  0.12057533948E+02 -0.25082946675E+02  0.59416319704E+03  0.59481462915E+03  0.00000000000E+00 0. -1.
<mgrwt>
<rscale>  1 0.63702852E+03</rscale>
<asrwt>0</asrwt>
<pdfrwt beam="1">  1       21 0.10707281E+00 0.63702852E+03</pdfrwt>
<pdfrwt beam="2">0</pdfrwt>
<totfact> 0.61353494E+01</totfact>
</mgrwt>
</event>
<event>
 6    1  0.1386179E-004  0.6530304E+03  0.7818608E-02  0.9801109E-01
         21   -1    0    0  501  502  0.00000000000E+00  0.00000000000E+00  0.52341232758E+03  0.52341232758E+03  0.00000000000E+00 0.  1.
         13   -1    0    0    0    0 -0.00000000000E+00 -0.00000000000E+00 -0.10000000000E+04  0.10000000000E+04  0.00000000000E+00 0.  1.
    9000005    2    1    2  501    0 -0.26874102274E+02 -0.81701053376E+02 -0.88847011365E+03  0.11026458545E+04  0.64734184017E+03 0.  0.
         13    1    3    3    0    0  0.18738550488E+03 -0.97464718871E+02 -0.86044136967E+03  0.88598648381E+03  0.00000000000E+00 0.  1.
          1    1    3    3  501    0 -0.21425960715E+03  0.15763665495E+02 -0.28028743985E+02  0.21665937066E+03  0.00000000000E+00 0.  1.
         -3    1    1    2    0  502  0.26874102274E+02  0.81701053376E+02  0.41188244123E+03  0.42076647311E+03  0.00000000000E+00 0. -1.
<mgrwt>
<rscale>  1 0.65303043E+03</rscale>
<asrwt>0</asrwt>
<pdfrwt beam="1">  1       21 0.80524971E-01 0.65303043E+03</pdfrwt>
<pdfrwt beam="2">0</pdfrwt>
<totfact> 0.12164171E+02</totfact>
</mgrwt>
</event>
<event>
 6    1  0.1386179E-004  0.6503024E+03  0.7818608E-02  0.9806212E-01
         21   -1    0    0  501  502  0.00000000000E+00  0.00000000000E+00  0.12515877270E+03  0.12515877270E+03  0.00000000000E+00 0.  1.
         13   -1    0    0    0    0 -0.00000000000E+00 -0.00000000000E+00 -0.10000000000E+04  0.10000000000E+04  0.00000000000E+00 0.  1.
    9000005    2    1    2  501    0  0.21956294244E+02  0.47203951493E+01 -0.88682354934E+03  0.10997041655E+04  0.64991451970E+03 0.  0.
         13    1    3    3    0    0 -0.70375979931E+02  0.22561628364E+03 -0.67020734700E+02  0.24565680303E+03  0.00000000000E+00 0.  1.
          1    1    3    3  501    0  0.92332274175E+02 -0.22089588849E+03 -0.81980281465E+03  0.85404736245E+03  0.00000000000E+00 0.  1.
         -3    1    1    2    0  502 -0.21956294244E+02 -0.47203951493E+01  0.11982322048E+02  0.25454607225E+02  0.00000000000E+00 0. -1.
<mgrwt>
<rscale>  1 0.65030242E+03</rscale>
<asrwt>0</asrwt>
<pdfrwt beam="1">  1       21 0.19255195E-01 0.65030242E+03</pdfrwt>
<pdfrwt beam="2">0</pdfrwt>
<totfact> 0.24133309E+03</totfact>
</mgrwt>
</event>
<event>
 6    1  0.1386179E-004  0.6340342E+03  0.7818608E-02  0.9837208E-01
         21   -1    0    0  501  502  0.00000000000E+00  0.00000000000E+00  0.12604800823E+03  0.12604800823E+03  0.00000000000E+00 0.  1.
         13   -1    0    0    0    0 -0.00000000000E+00 -0.00000000000E+00 -0.10000000000E+04  0.10000000000E+04  0.00000000000E+00 0.  1.
    9000005    2    1    2  501    0 -0.60747309233E+02  0.19377725953E+02 -0.84394550110E+03  0.10555772957E+04  0.63081985266E+03 0.  0.
         13    1    3    3    0    0  0.19154712087E+03  0.22775824852E+03 -0.31298855646E+03  0.43188650796E+03  0.00000000000E+00 0.  1.
          1    1    3    3  501    0 -0.25229443010E+03 -0.20838052256E+03 -0.53095694464E+03  0.62369078774E+03  0.00000000000E+00 0.  1.
         -3    1    1    2    0  502  0.60747309233E+02 -0.19377725953E+02 -0.30006490672E+02  0.70470712531E+02  0.00000000000E+00 0. -1.
<mgrwt>
<rscale>  1 0.63403424E+03</rscale>
<asrwt>0</asrwt>
<pdfrwt beam="1">  1       21 0.19392001E-01 0.63403424E+03</pdfrwt>
<pdfrwt beam="2">0</pdfrwt>
<totfact> 0.23823605E+03</totfact>
</mgrwt>
</event>
<event>
 6    1  0.1386179E-004  0.6144606E+03  0.7818608E-02  0.9875851E-01
         21   -1    0    0  501  502  0.00000000000E+00  0.00000000000E+00  0.11340094006E+03  0.11340094006E+03  0.00000000000E+00 0. -1.
         13   -1    0    0    0    0 -0.00000000000E+00 -0.00000000000E+00 -0.10000000000E+04  0.10000000000E+04  0.00000000000E+00 0.  1.
    9000005    2    1    2  501    0 -0.18182651231E+02 -0.27895220921E+02 -0.88824162925E+03  0.10800625209E+04  0.61355774384E+03 0.  0.
         13    1    3    3    0    0 -0.16778713922E+03 -0.20153864895E+03 -0.78691678929E+03  0.82946270825E+03  0.00000000000E+00 0.  1.
          3    1    3    3  501    0  0.14960448799E+03  0.17364342802E+03 -0.10132483996E+03  0.25059981268E+03  0.00000000000E+00 0.  1.
         -3    1    1    2    0  502  0.18182651231E+02  0.27895220921E+02  0.16425693050E+01  0.33338419128E+02  0.00000000000E+00 0. -1.
<mgrwt>
<rscale>  1 0.61446062E+03</rscale>
<asrwt>0</asrwt>
<pdfrwt beam="1">  1       21 0.17446298E-01 0.61446062E+03</pdfrwt>
<pdfrwt beam="2">0</pdfrwt>
<totfact> 0.29145659E+03</totfact>
</mgrwt>
</event>
<event>
 6    1  0.1386179E-004  0.6659685E+03  0.7818608E-02  0.9777268E-01
         21   -1    0    0  501  502  0.00000000000E+00  0.00000000000E+00  0.20079277550E+04  0.20079277550E+04  0.00000000000E+00 0. -1.
         13   -1    0    0    0    0 -0.00000000000E+00 -0.00000000000E+00 -0.10000000000E+04  0.10000000000E+04  0.00000000000E+00 0.  1.
    9000005    2    1    2  501    0  0.13616219492E+02 -0.72045957292E+02 -0.88833439166E+03  0.11102486066E+04  0.66191990124E+03 0.  0.
         13    1    3    3    0    0  0.30787299694E+03 -0.69442338563E+02 -0.23432328233E+03  0.39308449635E+03  0.00000000000E+00 0.  1.
          3    1    3    3  501    0 -0.29425677745E+03 -0.26036187291E+01 -0.65401110933E+03  0.71716411025E+03  0.00000000000E+00 0.  1.
         -3    1    1    2    0  502 -0.13616219492E+02  0.72045957292E+02  0.18962621467E+04  0.18976791484E+04  0.00000000000E+00 0. -1.
<mgrwt>
<rscale>  1 0.66596845E+03</rscale>
<asrwt>0</asrwt>
<pdfrwt beam="1">  1       21 0.30891195E+00 0.66596845E+03</pdfrwt>
<pdfrwt beam="2">0</pdfrwt>
<totfact> 0.22519144E+00</totfact>
</mgrwt>
</event>
<event>
 6    1  0.1386179E-004  0.6159950E+03  0.7818608E-02  0.9872766E-01
         21   -1    0    0  501  502  0.00000000000E+00  0.00000000000E+00  0.11711619205E+03  0.11711619205E+03  0.00000000000E+00 0.  1.
         13   -1    0    0    0    0 -0.00000000000E+00 -0.00000000000E+00 -0.10000000000E+04  0.10000000000E+04  0.00000000000E+00 0.  1.
    9000005    2    1    2  501    0 -0.48459564258E+02 -0.47481072381E+02 -0.78059311865E+03  0.99437187765E+03  0.61224752557E+03 0.  0.
         13    1    3    3    0    0  0.10717093402E+03  0.24486039974E+03 -0.46806624628E+03  0.53900671180E+03  0.00000000000E+00 0.  1.
          1    1    3    3  501    0 -0.15563049828E+03 -0.29234147212E+03 -0.31252687237E+03  0.45536516585E+03  0.00000000000E+00 0.  1.
         -1    1    1    2    0  502  0.48459564258E+02  0.47481072381E+02 -0.10229068930E+03  0.12274431441E+03  0.00000000000E+00 0. -1.
<mgrwt>
<rscale>  1 0.61599498E+03</rscale>
<asrwt>0</asrwt>
<pdfrwt beam="1">  1       21 0.18017875E-01 0.61599498E+03</pdfrwt>
<pdfrwt beam="2">0</pdfrwt>
<totfact> 0.27418773E+03</totfact>
</mgrwt>
</event>
<event>
 6    1  0.1386179E-004  0.6544557E+03  0.7818608E-02  0.9798454E-01
         21   -1    0    0  501  502  0.00000000000E+00  0.00000000000E+00  0.19323023933E+03  0.19323023933E+03  0.00000000000E+00 0.  1.
         13   -1    0    0    0    0 -0.00000000000E+00 -0.00000000000E+00 -0.10000000000E+04  0.10000000000E+04  0.00000000000E+00 0.  1.
    9000005    2    1    2  501    0  0.23130118007E+01  0.31719053949E+02 -0.88965968482E+03  0.11044485524E+04  0.65368249304E+03 0.  0.
         13    1    3    3    0    0 -0.28259700792E+03 -0.76526778832E+02 -0.66255642649E+03  0.72436070783E+03  0.00000000000E+00 0.  1.
          3    1    3    3  501    0  0.28491001972E+03  0.10824583278E+03 -0.22710325833E+03  0.38008784458E+03  0.00000000000E+00 0.  1.
         -1    1    1    2    0  502 -0.23130118007E+01 -0.31719053949E+02  0.82889924150E+02  0.88781686921E+02  0.00000000000E+00 0. -1.
<mgrwt>
<rscale>  1 0.65445569E+03</rscale>
<asrwt>0</asrwt>
<pdfrwt beam="1">  1       21 0.29727728E-01 0.65445569E+03</pdfrwt>
<pdfrwt beam="2">0</pdfrwt>
<totfact> 0.10331902E+03</totfact>
</mgrwt>
</event>
<event>
 6    1  0.1386179E-004  0.6633765E+03  0.7818608E-02  0.9781998E-01
         21   -1    0    0  501  502  0.00000000000E+00  0.00000000000E+00  0.12304868410E+03  0.12304868410E+03  0.00000000000E+00 0.  1.
         13   -1    0    0    0    0 -0.00000000000E+00 -0.00000000000E+00 -0.10000000000E+04  0.10000000000E+04  0.00000000000E+00 0.  1.
    9000005    2    1    2  501    0 -0.17945703076E+02 -0.20007879681E+02 -0.87211030808E+03  0.10957393658E+04  0.66283180735E+03 0.  0.
         13    1    3    3    0    0  0.93969339891E+02 -0.56488264764E+02 -0.94888875734E+03  0.95520209102E+03  0.00000000000E+00 0.  1.
          3    1    3    3  501    0 -0.11191504297E+03  0.36480385084E+02  0.76778449254E+02  0.14053727480E+03  0.00000000000E+00 0.  1.
         -3    1    1    2    0  502  0.17945703076E+02  0.20007879681E+02 -0.48410078139E+01  0.27309318279E+02  0.00000000000E+00 0. -1.
<mgrwt>
<rscale>  1 0.66337649E+03</rscale>
<asrwt>0</asrwt>
<pdfrwt beam="1">  1       21 0.18930566E-01 0.66337649E+03</pdfrwt>
<pdfrwt beam="2">0</pdfrwt>
<totfact> 0.24917994E+03</totfact>
</mgrwt>
</event>
<event>
 6    1  0.1386179E-004  0.6416232E+03  0.7818608E-02  0.9822626E-01
         21   -1    0    0  501  502  0.00000000000E+00  0.00000000000E+00  0.14291895056E+03  0.14291895056E+03  0.00000000000E+00 0.  1.
         13   -1    0    0    0    0 -0.00000000000E+00 -0.00000000000E+00 -0.10000000000E+04  0.10000000000E+04  0.00000000000E+00 0.  1.
    9000005    2    1    2  501    0 -0.69635121507E+02 -0.69563383803E+02 -0.81132975656E+03  0.10343772751E+04  0.63402859465E+03 0.  0.
         13    1    3    3    0    0 -0.18495099138E+03 -0.31756340489E+03 -0.44240554356E+03  0.57513133310E+03  0.00000000000E+00 0.  1.
          1    1    3    3  501    0  0.11531586987E+03  0.24800002109E+03 -0.36892421300E+03  0.45924594200E+03  0.00000000000E+00 0.  1.
         -1    1    1    2    0  502  0.69635121507E+02  0.69563383803E+02 -0.45751292875E+02  0.10854167547E+03  0.00000000000E+00 0. -1.
<mgrwt>
<rscale>  1 0.64162323E+03</rscale>
<asrwt>0</asrwt>
<pdfrwt beam="1">  1       21 0.21987530E-01 0.64162323E+03</pdfrwt>
<pdfrwt beam="2">0</pdfrwt>
<totfact> 0.18705768E+03</totfact>
</mgrwt>
</event>
<event>
 6    1  0.1386179E-004  0.6790952E+03  0.7818608E-02  0.9753665E-01
         21   -1    0    0  501  502  0.00000000000E+00  0.00000000000E+00  0.20148666629E+03  0.20148666629E+03  0.00000000000E+00 0.  1.
         13   -1    0    0    0    0 -0.00000000000E+00 -0.00000000000E+00 -0.10000000000E+04  0.10000000000E+04  0.00000000000E+00 0.  1.
    9000005    2    1    2  501    0 -0.56422542604E+02 -0.17506366599E+03 -0.74896360602E+03  0.10109979108E+04  0.65371209412E+03 0.  0.
         13    1    3    3    0    0 -0.31767729390E+03 -0.24829377947E+03 -0.50416435750E+03  0.64556205229E+03  0.00000000000E+00 0.  1.
          1    1    3    3  501    0  0.26125475130E+03  0.73230113480E+02 -0.24479924852E+03  0.36543585849E+03  0.00000000000E+00 0.  1.
         -3    1    1    2    0  502  0.56422542604E+02  0.17506366599E+03 -0.49549727686E+02  0.19048875551E+03  0.00000000000E+00 0. -1.
<mgrwt>
<rscale>  1 0.67909520E+03</rscale>
<asrwt>0</asrwt>
<pdfrwt beam="1">  1       21 0.30997948E-01 0.67909520E+03</pdfrwt>
<pdfrwt beam="2">0</pdfrwt>
<totfact> 0.94857138E+02</totfact>
</mgrwt>
</event>
<event>
 6    1  0.1386179E-004  0.6028300E+03  0.7818608E-02  0.9899552E-01
         21   -1    0    0  501  502  0.00000000000E+00  0.00000000000E+00  0.12612202652E+03  0.12612202652E+03  0.00000000000E+00 0. -1.
         13   -1    0    0    0    0 -0.00000000000E+00 -0.00000000000E+00 -0.10000000000E+04  0.10000000000E+04  0.00000000000E+00 0.  1.
    9000005    2    1    2  501    0 -0.47665842707E+02 -0.47061972835E+01 -0.89055575783E+03  0.10754038903E+04  0.60092411214E+03 0.  0.
         13    1    3    3    0    0  0.14457611375E+03  0.59518508412E+02 -0.85554772178E+03  0.86971639616E+03  0.00000000000E+00 0.  1.
          3    1    3    3  501    0 -0.19224195646E+03 -0.64224705696E+02 -0.35008036057E+02  0.20568749411E+03  0.00000000000E+00 0.  1.
         -1    1    1    2    0  502  0.47665842707E+02  0.47061972835E+01  0.16677784355E+02  0.50718136251E+02  0.00000000000E+00 0. -1.
<mgrwt>
<rscale>  1 0.60282997E+03</rscale>
<asrwt>0</asrwt>
<pdfrwt beam="1">  1       21 0.19403388E-01 0.60282997E+03</pdfrwt>
<pdfrwt beam="2">0</pdfrwt>
<totfact> 0.23826134E+03</totfact>
</mgrwt>
</event>
<event>
 6    1  0.1386179E-004  0.6289336E+03  0.7818608E-02  0.9847132E-01
         21   -1    0    0  501  502  0.00000000000E+00  0.00000000000E+00  0.12905437882E+03  0.12905437882E+03  0.00000000000E+00 0.  1.
         13   -1    0    0    0    0 -0.00000000000E+00 -0.00000000000E+00 -0.10000000000E+04  0.10000000000E+04  0.00000000000E+00 0.  1.
    9000005    2    1    2  501    0 -0.62082419121E+02  0.62039714422E+02 -0.73652608132E+03  0.96851850861E+03  0.62277947953E+03 0.  0.
         13    1    3    3    0    0  0.18548962058E+03  0.25183139677E+03 -0.31278313499E+03  0.44233329208E+03  0.00000000000E+00 0.  1.
          3    1    3    3  501    0 -0.24757203971E+03 -0.18979168235E+03 -0.42374294633E+03  0.52618521653E+03  0.00000000000E+00 0.  1.
         -3    1    1    2    0  502  0.62082419121E+02 -0.62039714422E+02 -0.13441953986E+03  0.16053587021E+03  0.00000000000E+00 0. -1.
<mgrwt>
<rscale>  1 0.62893357E+03</rscale>
<asrwt>0</asrwt>
<pdfrwt beam="1">  1       21 0.19854519E-01 0.62893357E+03</pdfrwt>
<pdfrwt beam="2">0</pdfrwt>
<totfact> 0.22777722E+03</totfact>
</mgrwt>
</event>
<event>
 6    1  0.1386179E-004  0.6582597E+03  0.7818608E-02  0.9791403E-01
         21   -1    0    0  501  502  0.00000000000E+00  0.00000000000E+00  0.12788636487E+03  0.12788636487E+03  0.00000000000E+00 0.  1.
         13   -1    0    0    0    0 -0.00000000000E+00 -0.00000000000E+00 -0.10000000000E+04  0.10000000000E+04  0.00000000000E+00 0.  1.
    9000005    2    1    2  501    0 -0.16696400525E+02 -0.26056871819E+02 -0.87699987202E+03  0.10965557781E+04  0.65753180038E+03 0.  0.
         13    1    3    3    0    0  0.19198236663E+02  0.11354117026E+03  0.72567461464E+02  0.13611100653E+03  0.00000000000E+00 0.  1.
          1    1    3    3  501    0 -0.35894637188E+02 -0.13959804208E+03 -0.94956733348E+03  0.96044477152E+03  0.00000000000E+00 0.  1.
         -1    1    1    2    0  502  0.16696400525E+02  0.26056871819E+02  0.48862368867E+01  0.31330586818E+02  0.00000000000E+00 0. -1.
<mgrwt>
<rscale>  1 0.65825967E+03</rscale>
<asrwt>0</asrwt>
<pdfrwt beam="1">  1       21 0.19674825E-01 0.65825967E+03</pdfrwt>
<pdfrwt beam="2">0</pdfrwt>
<totfact> 0.23151359E+03</totfact>
</mgrwt>
</event>
<event>
 6    1  0.1386179E-004  0.6514493E+03  0.7818608E-02  0.9804063E-01
         21   -1    0    0  501  502  0.00000000000E+00  0.00000000000E+00  0.12110416580E+03  0.12110416580E+03  0.00000000000E+00 0.  1.
         13   -1    0    0    0    0 -0.00000000000E+00 -0.00000000000E+00 -0.10000000000E+04  0.10000000000E+04  0.00000000000E+00 0.  1.
    9000005    2    1    2  501    0  0.21994146329E+02 -0.28723861037E+02 -0.86377609913E+03  0.10818943577E+04  0.65044403991E+03 0.  0.
         13    1    3    3    0    0  0.21084325595E+03 -0.12566243041E+03 -0.62925653261E+02  0.25338816633E+03  0.00000000000E+00 0.  1.
          1    1    3    3  501    0 -0.18884910962E+03  0.96938569372E+02 -0.80085044587E+03  0.82850619134E+03  0.00000000000E+00 0.  1.
         -3    1    1    2    0  502 -0.21994146329E+02  0.28723861037E+02 -0.15119735063E+02  0.39209808134E+02  0.00000000000E+00 0. -1.
<mgrwt>
<rscale>  1 0.65144935E+03</rscale>
<asrwt>0</asrwt>
<pdfrwt beam="1">  1       21 0.18631410E-01 0.65144935E+03</pdfrwt>
<pdfrwt beam="2">0</pdfrwt>
<totfact> 0.25697021E+03</totfact>
</mgrwt>
</event>
<event>
 6    1  0.1386179E-004  0.6572198E+03  0.7818608E-02  0.9793325E-01
         21   -1    0    0  501  502  0.00000000000E+00  0.00000000000E+00  0.12266657726E+03  0.12266657726E+03  0.00000000000E+00 0.  1.
         13   -1    0    0    0    0 -0.00000000000E+00 -0.00000000000E+00 -0.10000000000E+04  0.10000000000E+04  0.00000000000E+00 0.  1.
    9000005    2    1    2  501    0 -0.35563361239E+02  0.11808577965E+02 -0.85712213460E+03  0.10800908642E+04  0.65615068854E+03 0.  0.
         13    1    3    3    0    0 -0.61262128238E+02  0.15263452975E+03  0.41916081601E+02  0.16972715141E+03  0.00000000000E+00 0.  1.
          1    1    3    3  501    0  0.25698766999E+02 -0.14082595179E+03 -0.89903821620E+03  0.91036371276E+03  0.00000000000E+00 0.  1.
         -1    1    1    2    0  502  0.35563361239E+02 -0.11808577965E+02 -0.20211288140E+02  0.42575713082E+02  0.00000000000E+00 0. -1.
<mgrwt>
<rscale>  1 0.65721984E+03</rscale>
<asrwt>0</asrwt>
<pdfrwt beam="1">  1       21 0.18871781E-01 0.65721984E+03</pdfrwt>
<pdfrwt beam="2">0</pdfrwt>
<totfact> 0.25071781E+03</totfact>
</mgrwt>
</event>
<event>
 6    1  0.1386179E-004  0.6353975E+03  0.7818608E-02  0.9834572E-01
         21   -1    0    0  501  502  0.00000000000E+00  0.00000000000E+00  0.17384868479E+03  0.17384868479E+03  0.00000000000E+00 0.  1.
         13   -1    0    0    0    0 -0.00000000000E+00 -0.00000000000E+00 -0.10000000000E+04  0.10000000000E+04  0.00000000000E+00 0.  1.
    9000005    2    1    2  501    0  0.91199439443E+02  0.59846734630E+02 -0.85093245531E+03  0.10619868311E+04  0.62596406973E+03 0.  0.
         13    1    3    3    0    0 -0.65290670319E+01 -0.22480261822E+03 -0.67922731434E+03  0.71549185210E+03  0.00000000000E+00 0.  1.
          1    1    3    3  501    0  0.97728506475E+02  0.28464935285E+03 -0.17170514096E+03  0.34649497902E+03  0.00000000000E+00 0.  1.
         -1    1    1    2    0  502 -0.91199439443E+02 -0.59846734630E+02  0.24781140099E+02  0.11186185366E+03  0.00000000000E+00 0. -1.
<mgrwt>
<rscale>  1 0.63539750E+03</rscale>
<asrwt>0</asrwt>
<pdfrwt beam="1">  1       21 0.26745951E-01 0.63539750E+03</pdfrwt>
<pdfrwt beam="2">0</pdfrwt>
<totfact> 0.12761385E+03</totfact>
</mgrwt>
</event>
<event>
 6    1  0.1386179E-004  0.6776182E+03  0.7818608E-02  0.9756293E-01
         21   -1    0    0  501  502  0.00000000000E+00  0.00000000000E+00  0.59302687381E+03  0.59302687381E+03  0.00000000000E+00 0. -1.
         13   -1    0    0    0    0 -0.00000000000E+00 -0.00000000000E+00 -0.10000000000E+04  0.10000000000E+04  0.00000000000E+00 0.  1.
    9000005    2    1    2  501    0 -0.54656061871E+02  0.14270796209E+03 -0.87154115965E+03  0.11039703277E+04  0.66016183170E+03 0.  0.
         13    1    3    3    0    0 -0.18394736522E+03 -0.20461850227E+03 -0.54286759323E+03  0.60861366105E+03  0.00000000000E+00 0.  1.
          3    1    3    3  501    0  0.12929130335E+03  0.34732646437E+03 -0.32867356642E+03  0.49535666669E+03  0.00000000000E+00 0.  1.
         -1    1    1    2    0  502  0.54656061871E+02 -0.14270796209E+03  0.46456803345E+03  0.48905654607E+03  0.00000000000E+00 0. -1.
<mgrwt>
<rscale>  1 0.67761825E+03</rscale>
<asrwt>0</asrwt>
<pdfrwt beam="1">  1       21 0.91234901E-01 0.67761825E+03</pdfrwt>
<pdfrwt beam="2">0</pdfrwt>
<totfact> 0.90226176E+01</totfact>
</mgrwt>
</event>
<event>
 6    1  0.1386179E-004  0.6439646E+03  0.7818608E-02  0.9818171E-01
         21   -1    0    0  501  502  0.00000000000E+00  0.00000000000E+00  0.12375411153E+03  0.12375411153E+03  0.00000000000E+00 0.  1.
         13   -1    0    0    0    0 -0.00000000000E+00 -0.00000000000E+00 -0.10000000000E+04  0.10000000000E+04  0.00000000000E+00 0.  1.
    9000005    2    1    2  501    0  0.56971422813E+01 -0.34408765959E+02 -0.87799061031E+03  0.10888332774E+04  0.64301941922E+03 0.  0.
         13    1    3    3    0    0 -0.65482776501E+02  0.28634338347E+03 -0.55590749923E+03  0.62873975139E+03  0.00000000000E+00 0.  1.
          3    1    3    3  501    0  0.71179918783E+02 -0.32075214943E+03 -0.32208311108E+03  0.46009352597E+03  0.00000000000E+00 0.  1.
         -1    1    1    2    0  502 -0.56971422813E+01  0.34408765959E+02  0.17447218428E+01  0.34920834172E+02  0.00000000000E+00 0. -1.
<mgrwt>
<rscale>  1 0.64396459E+03</rscale>
<asrwt>0</asrwt>
<pdfrwt beam="1">  1       21 0.19039094E-01 0.64396459E+03</pdfrwt>
<pdfrwt beam="2">0</pdfrwt>
<totfact> 0.24664870E+03</totfact>
</mgrwt>
</event>
<event>
 6    1  0.1386179E-004  0.6804726E+03  0.7818608E-02  0.9751222E-01
         21   -1    0    0  501  502  0.00000000000E+00  0.00000000000E+00  0.16223995695E+03  0.16223995695E+03  0.00000000000E+00 0. -1.
         13   -1    0    0    0    0 -0.00000000000E+00 -0.00000000000E+00 -0.10000000000E+04  0.10000000000E+04  0.00000000000E+00 0.  1.
    9000005    2    1    2  501    0  0.45272987947E+01  0.25644447213E+02 -0.88013014020E+03  0.11125070781E+04  0.67997411789E+03 0.  0.
         13    1    3    3    0    0  0.14115917278E+03 -0.18442818868E+03 -0.82345623177E+03  0.85558157675E+03  0.00000000000E+00 0.  1.
          1    1    3    3  501    0 -0.13663187399E+03  0.21007263589E+03 -0.56673908433E+02  0.25692550134E+03  0.00000000000E+00 0.  1.
         -3    1    1    2    0  502 -0.45272987947E+01 -0.25644447213E+02  0.42370097146E+02  0.49732878857E+02  0.00000000000E+00 0. -1.
<mgrwt>
<rscale>  1 0.68047258E+03</rscale>
<asrwt>0</asrwt>
<pdfrwt beam="1">  1       21 0.24959993E-01 0.68047258E+03</pdfrwt>
<pdfrwt beam="2">0</pdfrwt>
<totfact> 0.14584895E+03</totfact>
</mgrwt>
</event>
<event>
 6    1  0.1386179E-004  0.6417621E+03  0.7818608E-02  0.9822361E-01
         21   -1    0    0  501  502  0.00000000000E+00  0.00000000000E+00  0.12716805581E+03  0.12716805581E+03  0.00000000000E+00 0.  1.
         13   -1    0    0    0    0 -0.00000000000E+00 -0.00000000000E+00 -0.10000000000E+04  0.10000000000E+04  0.00000000000E+00 0.  1.
    9000005    2    1    2  501    0  0.40879875171E+02  0.37924485375E+01 -0.87607337176E+03  0.10859848831E+04  0.64044755194E+03 0.  0.
         13    1    3    3    0    0 -0.14437970016E+03 -0.12704889970E+02 -0.88786649491E+03  0.89961871080E+03  0.00000000000E+00 0.  1.
          3    1    3    3  501    0  0.18525957533E+03  0.16497338508E+02  0.11793123144E+02  0.18636617232E+03  0.00000000000E+00 0.  1.
         -1    1    1    2    0  502 -0.40879875171E+02 -0.37924485375E+01  0.32414275695E+01  0.41183172688E+02  0.00000000000E+00 0. -1.
<mgrwt>
<rscale>  1 0.64176212E+03</rscale>
<asrwt>0</asrwt>
<pdfrwt beam="1">  1       21 0.19564316E-01 0.64176212E+03</pdfrwt>
<pdfrwt beam="2">0</pdfrwt>
<totfact> 0.23417039E+03</totfact>
</mgrwt>
</event>
<event>
 6    1  0.1386179E-004  0.6679490E+03  0.7818608E-02  0.9773670E-01
         21   -1    0    0  501  502  0.00000000000E+00  0.00000000000E+00  0.13334086861E+03  0.13334086861E+03  0.00000000000E+00 0.  1.
         13   -1    0    0    0    0 -0.00000000000E+00 -0.00000000000E+00 -0.10000000000E+04  0.10000000000E+04  0.00000000000E+00 0.  1.
    9000005    2    1    2  501    0  0.25798944303E+02 -0.29643307401E+01 -0.87948499759E+03  0.11043775189E+04  0.66744398299E+03 0.  0.
         13    1    3    3    0    0 -0.34359384090E+02 -0.32041504945E+03 -0.58161441349E+03  0.66492232416E+03  0.00000000000E+00 0.  1.
          3    1    3    3  501    0  0.60158328394E+02  0.31745071871E+03 -0.29787058410E+03  0.43945519471E+03  0.00000000000E+00 0.  1.
         -3    1    1    2    0  502 -0.25798944303E+02  0.29643307401E+01  0.12825866196E+02  0.28963349730E+02  0.00000000000E+00 0. -1.
<mgrwt>
<rscale>  1 0.66794898E+03</rscale>
<asrwt>0</asrwt>
<pdfrwt beam="1">  1       21 0.20513979E-01 0.66794898E+03</pdfrwt>
<pdfrwt beam="2">0</pdfrwt>
<totfact> 0.21360031E+03</totfact>
</mgrwt>
</event>
<event>
 6    1  0.1386179E-004  0.6544307E+03  0.7818608E-02  0.9798501E-01
         21   -1    0    0  501  502  0.00000000000E+00  0.00000000000E+00  0.14753891397E+03  0.14753891397E+03  0.00000000000E+00 0.  1.
         13   -1    0    0    0    0 -0.00000000000E+00 -0.00000000000E+00 -0.10000000000E+04  0.10000000000E+04  0.00000000000E+00 0.  1.
    9000005    2    1    2  501    0 -0.12108509349E+00 -0.43161179692E+02 -0.87975559432E+03  0.10964713873E+04  0.65300589232E+03 0.  0.
         13    1    3    3    0    0 -0.15816176553E+03 -0.30575300171E+03 -0.52331010980E+03  0.62638128416E+03  0.00000000000E+00 0.  1.
          1    1    3    3  501    0  0.15804068044E+03  0.26259182202E+03 -0.35644548453E+03  0.47009010317E+03  0.00000000000E+00 0.  1.
         -3    1    1    2    0  502  0.12108509349E+00  0.43161179692E+02  0.27294508294E+02  0.51067526639E+02  0.00000000000E+00 0. -1.
<mgrwt>
<rscale>  1 0.65443074E+03</rscale>
<asrwt>0</asrwt>
<pdfrwt beam="1">  1       21 0.22698294E-01 0.65443074E+03</pdfrwt>
<pdfrwt beam="2">0</pdfrwt>
<totfact> 0.17576998E+03</totfact>
</mgrwt>
</event>
<event>
 6    1  0.1386179E-004  0.6525598E+03  0.7818608E-02  0.9801988E-01
         21   -1    0    0  501  502  0.00000000000E+00  0.00000000000E+00  0.30681674034E+03  0.30681674034E+03  0.00000000000E+00 0.  1.
         13   -1    0    0    0    0 -0.00000000000E+00 -0.00000000000E+00 -0.10000000000E+04  0.10000000000E+04  0.00000000000E+00 0.  1.
    9000005    2    1    2  501    0  0.48541464715E+02  0.76771516641E+02 -0.88207610484E+03  0.10972203508E+04  0.64620747740E+03 0.  0.
         13    1    3    3    0    0 -0.85542719666E+02  0.22412820511E+03 -0.54513211422E+02  0.24601361636E+03  0.00000000000E+00 0.  1.
          3    1    3    3  501    0  0.13408418438E+03 -0.14735668847E+03 -0.82756289341E+03  0.85120673440E+03  0.00000000000E+00 0.  1.
         -1    1    1    2    0  502 -0.48541464715E+02 -0.76771516641E+02  0.18889284517E+03  0.20959638957E+03  0.00000000000E+00 0. -1.
<mgrwt>
<rscale>  1 0.65255976E+03</rscale>
<asrwt>0</asrwt>
<pdfrwt beam="1">  1       21 0.47202574E-01 0.65255976E+03</pdfrwt>
<pdfrwt beam="2">0</pdfrwt>
<totfact> 0.39874881E+02</totfact>
</mgrwt>
</event>
<event>
 6    1  0.1386179E-004  0.6437494E+03  0.7818608E-02  0.9818579E-01
         21   -1    0    0  501  502  0.00000000000E+00  0.00000000000E+00  0.13765758953E+03  0.13765758953E+03  0.00000000000E+00 0.  1.
         13   -1    0    0    0    0 -0.00000000000E+00 -0.00000000000E+00 -0.10000000000E+04  0.10000000000E+04  0.00000000000E+00 0.  1.
    9000005    2    1    2  501    0 -0.58776239241E+02  0.36578010769E+02 -0.85169797092E+03  0.10676154503E+04  0.64001618647E+03 0.  0.
         13    1    3    3    0    0  0.20390284505E+03 -0.16715622768E+02 -0.34360709086E+02  0.20745226100E+03  0.00000000000E+00 0.  1.
          1    1    3    3  501    0 -0.26267908429E+03  0.53293633538E+02 -0.81733726184E+03  0.86016318933E+03  0.00000000000E+00 0.  1.
         -3    1    1    2    0  502  0.58776239241E+02 -0.36578010769E+02 -0.10644439546E+02  0.70042139205E+02  0.00000000000E+00 0. -1.
<mgrwt>
<rscale>  1 0.64374942E+03</rscale>
<asrwt>0</asrwt>
<pdfrwt beam="1">  1       21 0.21178090E-01 0.64374942E+03</pdfrwt>
<pdfrwt beam="2">0</pdfrwt>
<totfact> 0.20109097E+03</totfact>
</mgrwt>
</event>
<event>
 6    1  0.1386179E-004  0.6423046E+03  0.7818608E-02  0.9821327E-01
         21   -1    0    0  501  502  0.00000000000E+00  0.00000000000E+00  0.14632359176E+03  0.14632359176E+03  0.00000000000E+00 0.  1.
         13   -1    0    0    0    0 -0.00000000000E+00 -0.00000000000E+00 -0.10000000000E+04  0.10000000000E+04  0.00000000000E+00 0.  1.
    9000005    2    1    2  501    0  0.95600161710E+01  0.19275729754E+02 -0.89388477177E+03  0.11007203006E+04  0.64194411538E+03 0.  0.
         13    1    3    3    0    0 -0.23720395510E+03  0.20956574975E+03 -0.33530306775E+03  0.46109832685E+03  0.00000000000E+00 0.  1.
          3    1    3    3  501    0  0.24676397127E+03 -0.19029002000E+03 -0.55858170403E+03  0.63962197375E+03  0.00000000000E+00 0.  1.
         -3    1    1    2    0  502 -0.95600161710E+01 -0.19275729754E+02  0.40208363536E+02  0.45603291164E+02  0.00000000000E+00 0. -1.
<mgrwt>
<rscale>  1 0.64230460E+03</rscale>
<asrwt>0</asrwt>
<pdfrwt beam="1">  1       21 0.22511321E-01 0.64230460E+03</pdfrwt>
<pdfrwt beam="2">0</pdfrwt>
<totfact> 0.17871401E+03</totfact>
</mgrwt>
</event>
<event>
 6    1  0.1386179E-004  0.6542487E+03  0.7818608E-02  0.9798839E-01
         21   -1    0    0  501  502  0.00000000000E+00  0.00000000000E+00  0.41986479316E+03  0.41986479316E+03  0.00000000000E+00 0. -1.
         13   -1    0    0    0    0 -0.00000000000E+00 -0.00000000000E+00 -0.10000000000E+04  0.10000000000E+04  0.00000000000E+00 0.  1.
    9000005    2    1    2  501    0  0.48161154306E+01  0.19913488572E+02 -0.89261828981E+03  0.11067108069E+04  0.65392786813E+03 0.  0.
         13    1    3    3    0    0 -0.15062782210E+03  0.24546911828E+03 -0.17121536850E+03  0.33505004287E+03  0.00000000000E+00 0.  1.
          3    1    3    3  501    0  0.15544393753E+03 -0.22555562971E+03 -0.72140292131E+03  0.77166076399E+03  0.00000000000E+00 0.  1.
         -1    1    1    2    0  502 -0.48161154306E+01 -0.19913488572E+02  0.31248308296E+03  0.31315398630E+03  0.00000000000E+00 0. -1.
<mgrwt>
<rscale>  1 0.65424873E+03</rscale>
<asrwt>0</asrwt>
<pdfrwt beam="1">  1       21 0.64594582E-01 0.65424873E+03</pdfrwt>
<pdfrwt beam="2">0</pdfrwt>
<totfact> 0.20123919E+02</totfact>
</mgrwt>
</event>
<event>
 6    1  0.1386179E-004  0.6593894E+03  0.7818608E-02  0.9789318E-01
         21   -1    0    0  501  502  0.00000000000E+00  0.00000000000E+00  0.19486006872E+03  0.19486006872E+03  0.00000000000E+00 0.  1.
         13   -1    0    0    0    0 -0.00000000000E+00 -0.00000000000E+00 -0.10000000000E+04  0.10000000000E+04  0.00000000000E+00 0.  1.
    9000005    2    1    2  501    0  0.53706856164E+02 -0.26385920982E+02 -0.87961382627E+03  0.10993247126E+04  0.65666863580E+03 0.  0.
         13    1    3    3    0    0 -0.30038539324E+03  0.12987818820E+02 -0.45001208103E+03  0.54121247305E+03  0.00000000000E+00 0.  1.
          1    1    3    3  501    0  0.35409224941E+03 -0.39373739802E+02 -0.42960174524E+03  0.55811223960E+03  0.00000000000E+00 0.  1.
         -3    1    1    2    0  502 -0.53706856164E+02  0.26385920982E+02  0.74473894991E+02  0.95535356074E+02  0.00000000000E+00 0. -1.
<mgrwt>
<rscale>  1 0.65938937E+03</rscale>
<asrwt>0</asrwt>
<pdfrwt beam="1">  1       21 0.29978471E-01 0.65938937E+03</pdfrwt>
<pdfrwt beam="2">0</pdfrwt>
<totfact> 0.10156579E+03</totfact>
</mgrwt>
</event>
<event>
 6    1  0.1386179E-004  0.6534510E+03  0.7818608E-02  0.9800325E-01
         21   -1    0    0  501  502  0.00000000000E+00  0.00000000000E+00  0.15669919461E+03  0.15669919461E+03  0.00000000000E+00 0.  1.
         13   -1    0    0    0    0 -0.00000000000E+00 -0.00000000000E+00 -0.10000000000E+04  0.10000000000E+04  0.00000000000E+00 0.  1.
    9000005    2    1    2  501    0  0.14697951692E+02 -0.16662406264E+02 -0.89050058734E+03  0.11045313407E+04  0.65307313600E+03 0.  0.
         13    1    3    3    0    0 -0.26991344139E+03 -0.11096413564E+03 -0.20591183307E+03  0.35716381149E+03  0.00000000000E+00 0.  1.
          1    1    3    3  501    0  0.28461139309E+03  0.94301729374E+02 -0.68458875426E+03  0.74736752920E+03  0.00000000000E+00 0.  1.
         -3    1    1    2    0  502 -0.14697951692E+02  0.16662406264E+02  0.47199781944E+02  0.52167853914E+02  0.00000000000E+00 0. -1.
<mgrwt>
<rscale>  1 0.65345098E+03</rscale>
<asrwt>0</asrwt>
<pdfrwt beam="1">  1       21 0.24107568E-01 0.65345098E+03</pdfrwt>
<pdfrwt beam="2">0</pdfrwt>
<totfact> 0.15632396E+03</totfact>
</mgrwt>
</event>
<event>
 6    1  0.1386179E-004  0.6843787E+03  0.7818608E-02  0.9744326E-01
         21   -1    0    0  501  502  0.00000000000E+00  0.00000000000E+00  0.21762754726E+03  0.21762754726E+03  0.00000000000E+00 0. -1.
         13   -1    0    0    0    0 -0.00000000000E+00 -0.00000000000E+00 -0.10000000000E+04  0.10000000000E+04  0.00000000000E+00 0.  1.
    9000005    2    1    2  501    0  0.13230454179E+03 -0.17533474389E+03 -0.71053698916E+03  0.98652778953E+03  0.64817243257E+03 0.  0.
         13    1    3    3    0    0  0.78804986907E+02 -0.29450602979E+03 -0.78079488696E+03  0.83820324686E+03  0.00000000000E+00 0.  1.
          3    1    3    3  501    0  0.53499554882E+02  0.11917128589E+03  0.70257897802E+02  0.14832454267E+03  0.00000000000E+00 0.  1.
         -1    1    1    2    0  502 -0.13230454179E+03  0.17533474389E+03 -0.71835463584E+02  0.23109975773E+03  0.00000000000E+00 0. -1.
<mgrwt>
<rscale>  1 0.68437874E+03</rscale>
<asrwt>0</asrwt>
<pdfrwt beam="1">  1       21 0.33481160E-01 0.68437874E+03</pdfrwt>
<pdfrwt beam="2">0</pdfrwt>
<totfact> 0.81151702E+02</totfact>
</mgrwt>
</event>
<event>
 6    1  0.1386179E-004  0.6568071E+03  0.7818608E-02  0.9794089E-01
         21   -1    0    0  501  502  0.00000000000E+00  0.00000000000E+00  0.12825890018E+03  0.12825890018E+03  0.00000000000E+00 0.  1.
         13   -1    0    0    0    0 -0.00000000000E+00 -0.00000000000E+00 -0.10000000000E+04  0.10000000000E+04  0.00000000000E+00 0.  1.
    9000005    2    1    2  501    0 -0.95479823223E+01  0.22415924329E+02 -0.88375058522E+03  0.11010952228E+04  0.65635505265E+03 0.  0.
         13    1    3    3    0    0  0.15964186309E+03  0.22375868872E+03 -0.13249386935E+03  0.30513620015E+03  0.00000000000E+00 0.  1.
          3    1    3    3  501    0 -0.16918984541E+03 -0.20134276440E+03 -0.75125671588E+03  0.79595902263E+03  0.00000000000E+00 0.  1.
         -1    1    1    2    0  502  0.95479823223E+01 -0.22415924329E+02  0.12009485407E+02  0.27163677396E+02  0.00000000000E+00 0. -1.
<mgrwt>
<rscale>  1 0.65680712E+03</rscale>
<asrwt>0</asrwt>
<pdfrwt beam="1">  1       21 0.19732138E-01 0.65680712E+03</pdfrwt>
<pdfrwt beam="2">0</pdfrwt>
<totfact> 0.23024003E+03</totfact>
</mgrwt>
</event>
<event>
 6    1  0.1386179E-004  0.6729575E+03  0.7818608E-02  0.9764630E-01
         21   -1    0    0  501  502  0.00000000000E+00  0.00000000000E+00  0.39533089301E+03  0.39533089301E+03  0.00000000000E+00 0. -1.
         13   -1    0    0    0    0 -0.00000000000E+00 -0.00000000000E+00 -0.10000000000E+04  0.10000000000E+04  0.00000000000E+00 0.  1.
    9000005    2    1    2  501    0 -0.11914861542E+03 -0.72637305670E+02 -0.86740023764E+03  0.10978410314E+04  0.65833060638E+03 0.  0.
         13    1    3    3    0    0  0.22542175054E+03 -0.14304040446E+03 -0.16922261568E+03  0.31608830504E+03  0.00000000000E+00 0.  1.
          3    1    3    3  501    0 -0.34457036595E+03  0.70403098791E+02 -0.69817762196E+03  0.78175272639E+03  0.00000000000E+00 0.  1.
         -3    1    1    2    0  502  0.11914861542E+03  0.72637305670E+02  0.26273113065E+03  0.29748986158E+03  0.00000000000E+00 0. -1.
<mgrwt>
<rscale>  1 0.67295747E+03</rscale>
<asrwt>0</asrwt>
<pdfrwt beam="1">  1       21 0.60820136E-01 0.67295747E+03</pdfrwt>
<pdfrwt beam="2">0</pdfrwt>
<totfact> 0.22964847E+02</totfact>
</mgrwt>
</event>
<event>
 6    1  0.1386179E-004  0.6554359E+03  0.7818608E-02  0.9796632E-01
         21   -1    0    0  501  502  0.00000000000E+00  0.00000000000E+00  0.12987999263E+03  0.12987999263E+03  0.00000000000E+00 0.  1.
         13   -1    0    0    0    0 -0.00000000000E+00 -0.00000000000E+00 -0.10000000000E+04  0.10000000000E+04  0.00000000000E+00 0.  1.
    9000005    2    1    2  501    0  0.17649425322E+02 -0.48904441033E+02 -0.85173809176E+03  0.10747343546E+04  0.65337049944E+03 0.  0.
         13    1    3    3    0    0 -0.22895037598E+03 -0.30878341778E+02 -0.50858600543E+02  0.23655516038E+03  0.00000000000E+00 0.  1.
          3    1    3    3  501    0  0.24659980130E+03 -0.18026099255E+02 -0.80087949122E+03  0.83817919427E+03  0.00000000000E+00 0.  1.
         -3    1    1    2    0  502 -0.17649425322E+02  0.48904441033E+02 -0.18381915612E+02  0.55145637982E+02  0.00000000000E+00 0. -1.
<mgrwt>
<rscale>  1 0.65543585E+03</rscale>
<asrwt>0</asrwt>
<pdfrwt beam="1">  1       21 0.19981537E-01 0.65543585E+03</pdfrwt>
<pdfrwt beam="2">0</pdfrwt>
<totfact> 0.22477544E+03</totfact>
</mgrwt>
</event>
<event>
 6    1  0.1386179E-004  0.6629150E+03  0.7818608E-02  0.9782842E-01
         21   -1    0    0  501  502  0.00000000000E+00  0.00000000000E+00  0.14366966000E+03  0.14366966000E+03  0.00000000000E+00 0.  1.
         13   -1    0    0    0    0 -0.00000000000E+00 -0.00000000000E+00 -0.10000000000E+04  0.10000000000E+04  0.00000000000E+00 0.  1.
    9000005    2    1    2  501    0 -0.55440741074E+02 -0.12272222402E+02 -0.86106791460E+03  0.10866895948E+04  0.66047864368E+03 0.  0.
         13    1    3    3    0    0 -0.47785442558E+02  0.16581137804E+03 -0.88959197523E+03  0.90617368313E+03  0.00000000000E+00 0.  1.
          3    1    3    3  501    0 -0.76552985162E+01 -0.17808360044E+03  0.28524060632E+02  0.18051591170E+03  0.00000000000E+00 0.  1.
         -3    1    1    2    0  502  0.55440741074E+02  0.12272222402E+02  0.47375746019E+01  0.56980065169E+02  0.00000000000E+00 0. -1.
<mgrwt>
<rscale>  1 0.66291502E+03</rscale>
<asrwt>0</asrwt>
<pdfrwt beam="1">  1       21 0.22103024E-01 0.66291502E+03</pdfrwt>
<pdfrwt beam="2">0</pdfrwt>
<totfact> 0.18499441E+03</totfact>
</mgrwt>
</event>
<event>
 6    1  0.1386179E-004  0.6125721E+03  0.7818608E-02  0.9879661E-01
         21   -1    0    0  501  502  0.00000000000E+00  0.00000000000E+00  0.10489859277E+03  0.10489859277E+03  0.00000000000E+00 0.  1.
         13   -1    0    0    0    0 -0.00000000000E+00 -0.00000000000E+00 -0.10000000000E+04  0.10000000000E+04  0.00000000000E+00 0.  1.
    9000005    2    1    2  501    0 -0.25615931625E+02 -0.20976357111E+02 -0.86640007854E+03  0.10610813612E+04  0.61167669203E+03 0.  0.
         13    1    3    3    0    0 -0.40304705210E+02  0.17123465017E+02  0.91958607306E+02  0.10185316772E+03  0.00000000000E+00 0.  1.
          3    1    3    3  501    0  0.14688773586E+02 -0.38099822128E+02 -0.95835868585E+03  0.95922819353E+03  0.00000000000E+00 0.  1.
         -1    1    1    2    0  502  0.25615931625E+02  0.20976357111E+02 -0.28701328683E+02  0.43817231528E+02  0.00000000000E+00 0. -1.
<mgrwt>
<rscale>  1 0.61257208E+03</rscale>
<asrwt>0</asrwt>
<pdfrwt beam="1">  1       21 0.16138245E-01 0.61257208E+03</pdfrwt>
<pdfrwt beam="2">0</pdfrwt>
<totfact> 0.33757189E+03</totfact>
</mgrwt>
</event>
<event>
 6    1  0.1386179E-004  0.6888379E+03  0.7818608E-02  0.9736514E-01
         21   -1    0    0  501  502  0.00000000000E+00  0.00000000000E+00  0.18893716203E+03  0.18893716203E+03  0.00000000000E+00 0. -1.
         13   -1    0    0    0    0 -0.00000000000E+00 -0.00000000000E+00 -0.10000000000E+04  0.10000000000E+04  0.00000000000E+00 0.  1.
    9000005    2    1    2  501    0  0.21590802930E+02  0.24935888638E+02 -0.87701789405E+03  0.11151941574E+04  0.68804771699E+03 0.  0.
         13    1    3    3    0    0  0.23798118628E+03 -0.24587153233E+03 -0.43214875364E+03  0.55121719921E+03  0.00000000000E+00 0.  1.
          3    1    3    3  501    0 -0.21639038335E+03  0.27080742097E+03 -0.44486914040E+03  0.56397695816E+03  0.00000000000E+00 0.  1.
         -3    1    1    2    0  502 -0.21590802930E+02 -0.24935888638E+02  0.65955056072E+02  0.73743004650E+02  0.00000000000E+00 0. -1.
<mgrwt>
<rscale>  1 0.68883788E+03</rscale>
<asrwt>0</asrwt>
<pdfrwt beam="1">  1       21 0.29067255E-01 0.68883788E+03</pdfrwt>
<pdfrwt beam="2">0</pdfrwt>
<totfact> 0.10784202E+03</totfact>
</mgrwt>
</event>
<event>
 6    1  0.1386179E-004  0.6535984E+03  0.7818608E-02  0.9800050E-01
         21   -1    0    0  501  502  0.00000000000E+00  0.00000000000E+00  0.23078058752E+03  0.23078058752E+03  0.00000000000E+00 0.  1.
         13   -1    0    0    0    0 -0.00000000000E+00 -0.00000000000E+00 -0.10000000000E+04  0.10000000000E+04  0.00000000000E+00 0.  1.
    9000005    2    1    2  501    0  0.18128018248E+02  0.98295526249E+01 -0.89225245485E+03  0.11060313404E+04  0.65327301914E+03 0.  0.
         13    1    3    3    0    0 -0.28015505241E+03  0.13016514902E+02 -0.69220540561E+03  0.74686317797E+03  0.00000000000E+00 0.  1.
          1    1    3    3  501    0  0.29828307066E+03 -0.31869622775E+01 -0.20004704925E+03  0.35916816240E+03  0.00000000000E+00 0.  1.
         -3    1    1    2    0  502 -0.18128018248E+02 -0.98295526249E+01  0.12303304237E+03  0.12474924716E+03  0.00000000000E+00 0. -1.
<mgrwt>
<rscale>  1 0.65359841E+03</rscale>
<asrwt>0</asrwt>
<pdfrwt beam="1">  1       21 0.35504705E-01 0.65359841E+03</pdfrwt>
<pdfrwt beam="2">0</pdfrwt>
<totfact> 0.72165217E+02</totfact>
</mgrwt>
</event>
<event>
 6    1  0.1386179E-004  0.6612687E+03  0.7818608E-02  0.9785861E-01
         21   -1    0    0  501  502  0.00000000000E+00  0.00000000000E+00  0.27098478012E+03  0.27098478012E+03  0.00000000000E+00 0.  1.
         13   -1    0    0    0    0 -0.00000000000E+00 -0.00000000000E+00 -0.10000000000E+04  0.10000000000E+04  0.00000000000E+00 0.  1.
    9000005    2    1    2  501    0  0.29072827938E+02 -0.61466901183E+02 -0.88270498558E+03  0.11029254057E+04  0.65776359704E+03 0.  0.
         13    1    3    3    0    0  0.74380844773E+01 -0.28520933627E+03 -0.12304991524E+03  0.31071043149E+03  0.00000000000E+00 0.  1.
          1    1    3    3  501    0  0.21634743461E+02  0.22374243509E+03 -0.75965507034E+03  0.79221497416E+03  0.00000000000E+00 0.  1.
         -1    1    1    2    0  502 -0.29072827938E+02  0.61466901183E+02  0.15368976570E+03  0.16805937447E+03  0.00000000000E+00 0. -1.
<mgrwt>
<rscale>  1 0.66126875E+03</rscale>
<asrwt>0</asrwt>
<pdfrwt beam="1">  1       21 0.41689965E-01 0.66126875E+03</pdfrwt>
<pdfrwt beam="2">0</pdfrwt>
<totfact> 0.51764092E+02</totfact>
</mgrwt>
</event>
<event>
 6    1  0.1386179E-004  0.6723464E+03  0.7818608E-02  0.9765728E-01
         21   -1    0    0  501  502  0.00000000000E+00  0.00000000000E+00  0.47329639152E+03  0.47329639152E+03  0.00000000000E+00 0. -1.
         13   -1    0    0    0    0 -0.00000000000E+00 -0.00000000000E+00 -0.10000000000E+04  0.10000000000E+04  0.00000000000E+00 0.  1.
    9000005    2    1    2  501    0  0.73316854686E+02 -0.11740389729E+03 -0.87210726604E+03  0.11011905962E+04  0.65794422966E+03 0.  0.
         13    1    3    3    0    0  0.10719616057E+03 -0.22332890890E+03 -0.27445416277E+02  0.24923898023E+03  0.00000000000E+00 0.  1.
          3    1    3    3  501    0 -0.33879305886E+02  0.10592501162E+03 -0.84466184976E+03  0.85195161594E+03  0.00000000000E+00 0.  1.
         -1    1    1    2    0  502 -0.73316854686E+02  0.11740389729E+03  0.34540365756E+03  0.37210579535E+03  0.00000000000E+00 0. -1.
<mgrwt>
<rscale>  1 0.67234637E+03</rscale>
<asrwt>0</asrwt>
<pdfrwt beam="1">  1       21 0.72814827E-01 0.67234637E+03</pdfrwt>
<pdfrwt beam="2">0</pdfrwt>
<totfact> 0.15312762E+02</totfact>
</mgrwt>
</event>
<event>
 6    1  0.1386179E-004  0.6169403E+03  0.7818608E-02  0.9870870E-01
         21   -1    0    0  501  502  0.00000000000E+00  0.00000000000E+00  0.11524387236E+03  0.11524387236E+03  0.00000000000E+00 0.  1.
         13   -1    0    0    0    0 -0.00000000000E+00 -0.00000000000E+00 -0.10000000000E+04  0.10000000000E+04  0.00000000000E+00 0.  1.
    9000005    2    1    2  501    0  0.50913293769E+02 -0.71586772874E+01 -0.85940654344E+03  0.10579201289E+04  0.61479426001E+03 0.  0.
         13    1    3    3    0    0  0.24822383529E+03  0.13557329478E+03 -0.72842117497E+03  0.78140424801E+03  0.00000000000E+00 0.  1.
          1    1    3    3  501    0 -0.19731054152E+03 -0.14273197207E+03 -0.13098536846E+03  0.27651588091E+03  0.00000000000E+00 0.  1.
         -1    1    1    2    0  502 -0.50913293769E+02  0.71586772874E+01 -0.25349584200E+02  0.57323743441E+02  0.00000000000E+00 0. -1.
<mgrwt>
<rscale>  1 0.61694035E+03</rscale>
<asrwt>0</asrwt>
<pdfrwt beam="1">  1       21 0.17729826E-01 0.61694035E+03</pdfrwt>
<pdfrwt beam="2">0</pdfrwt>
<totfact> 0.28267879E+03</totfact>
</mgrwt>
</event>
<event>
 6    1  0.1386179E-004  0.6605932E+03  0.7818608E-02  0.9787102E-01
         21   -1    0    0  501  502  0.00000000000E+00  0.00000000000E+00  0.14929789460E+03  0.14929789460E+03  0.00000000000E+00 0.  1.
         13   -1    0    0    0    0 -0.00000000000E+00 -0.00000000000E+00 -0.10000000000E+04  0.10000000000E+04  0.00000000000E+00 0.  1.
    9000005    2    1    2  501    0 -0.15064362589E+02  0.26969108933E+02 -0.88420834221E+03  0.11037244839E+04  0.65987049950E+03 0.  0.
         13    1    3    3    0    0  0.98863538385E+02 -0.23092623426E+03 -0.75100591564E+03  0.79190328338E+03  0.00000000000E+00 0.  1.
          3    1    3    3  501    0 -0.11392790097E+03  0.25789534319E+03 -0.13320242656E+03  0.31182120054E+03  0.00000000000E+00 0.  1.
         -1    1    1    2    0  502  0.15064362589E+02 -0.26969108933E+02  0.33506236810E+02  0.45573410692E+02  0.00000000000E+00 0. -1.
<mgrwt>
<rscale>  1 0.66059318E+03</rscale>
<asrwt>0</asrwt>
<pdfrwt beam="1">  1       21 0.22968906E-01 0.66059318E+03</pdfrwt>
<pdfrwt beam="2">0</pdfrwt>
<totfact> 0.17172024E+03</totfact>
</mgrwt>
</event>
<event>
 6    1  0.1386179E-004  0.6723766E+03  0.7818608E-02  0.9765674E-01
         21   -1    0    0  501  502  0.00000000000E+00  0.00000000000E+00  0.18991313548E+03  0.18991313548E+03  0.00000000000E+00 0.  1.
         13   -1    0    0    0    0 -0.00000000000E+00 -0.00000000000E+00 -0.10000000000E+04  0.10000000000E+04  0.00000000000E+00 0.  1.
    9000005    2    1    2  501    0  0.14490807519E+03 -0.79913601766E+02 -0.76481848133E+03  0.10183504341E+04  0.65169453211E+03 0.  0.
         13    1    3    3    0    0 -0.15248452916E+03  0.20075488673E+03 -0.20411116985E+03  0.32436927388E+03  0.00000000000E+00 0.  1.
          3    1    3    3  501    0  0.29739260434E+03 -0.28066848849E+03 -0.56070731148E+03  0.69398116019E+03  0.00000000000E+00 0.  1.
         -1    1    1    2    0  502 -0.14490807519E+03  0.79913601766E+02 -0.45268383185E+02  0.17156270142E+03  0.00000000000E+00 0. -1.
<mgrwt>
<rscale>  1 0.67237660E+03</rscale>
<asrwt>0</asrwt>
<pdfrwt beam="1">  1       21 0.29217405E-01 0.67237660E+03</pdfrwt>
<pdfrwt beam="2">0</pdfrwt>
<totfact> 0.10684099E+03</totfact>
</mgrwt>
</event>
<event>
 6    1  0.1386179E-004  0.7070877E+03  0.7818608E-02  0.9705187E-01
         21   -1    0    0  501  502  0.00000000000E+00  0.00000000000E+00  0.25470108812E+03  0.25470108812E+03  0.00000000000E+00 0.  1.
         13   -1    0    0    0    0 -0.00000000000E+00 -0.00000000000E+00 -0.10000000000E+04  0.10000000000E+04  0.00000000000E+00 0.  1.
    9000005    2    1    2  501    0 -0.18774503664E+03 -0.17917010694E+03 -0.69280711283E+03  0.98992662754E+03  0.65774075921E+03 0.  0.
         13    1    3    3    0    0 -0.27371554691E+02 -0.39472219739E+03 -0.23812337286E+03  0.46179817650E+03  0.00000000000E+00 0.  1.
          1    1    3    3  501    0 -0.16037348195E+03  0.21555209045E+03 -0.45468373996E+03  0.52812845104E+03  0.00000000000E+00 0.  1.
         -1    1    1    2    0  502  0.18774503664E+03  0.17917010694E+03 -0.52491799056E+02  0.26477446057E+03  0.00000000000E+00 0. -1.
<mgrwt>
<rscale>  1 0.70708771E+03</rscale>
<asrwt>0</asrwt>
<pdfrwt beam="1">  1       21 0.39184782E-01 0.70708771E+03</pdfrwt>
<pdfrwt beam="2">0</pdfrwt>
<totfact> 0.58682250E+02</totfact>
</mgrwt>
</event>
<event>
 6    1  0.1386179E-004  0.6526381E+03  0.7818608E-02  0.9801841E-01
         21   -1    0    0  501  502  0.00000000000E+00  0.00000000000E+00  0.12241384065E+03  0.12241384065E+03  0.00000000000E+00 0.  1.
         13   -1    0    0    0    0 -0.00000000000E+00 -0.00000000000E+00 -0.10000000000E+04  0.10000000000E+04  0.00000000000E+00 0.  1.
    9000005    2    1    2  501    0 -0.16198487179E+02 -0.43947283873E+02 -0.82643858130E+03  0.10530609064E+04  0.65095528971E+03 0.  0.
         13    1    3    3    0    0 -0.23729225708E+03  0.35743661905E+02 -0.54419483811E+02  0.24606240033E+03  0.00000000000E+00 0.  1.
          3    1    3    3  501    0  0.22109376990E+03 -0.79690945777E+02 -0.77201909749E+03  0.80699850608E+03  0.00000000000E+00 0.  1.
         -3    1    1    2    0  502  0.16198487179E+02  0.43947283873E+02 -0.51147578049E+02  0.69352934234E+02  0.00000000000E+00 0. -1.
<mgrwt>
<rscale>  1 0.65263814E+03</rscale>
<asrwt>0</asrwt>
<pdfrwt beam="1">  1       21 0.18832898E-01 0.65263814E+03</pdfrwt>
<pdfrwt beam="2">0</pdfrwt>
<totfact> 0.25174709E+03</totfact>
</mgrwt>
</event>
<event>
 6    1  0.1386179E-004  0.6736048E+03  0.7818608E-02  0.9763468E-01
         21   -1    0    0  501  502  0.00000000000E+00  0.00000000000E+00  0.39139098411E+03  0.39139098411E+03  0.00000000000E+00 0. -1.
         13   -1    0    0    0    0 -0.00000000000E+00 -0.00000000000E+00 -0.10000000000E+04  0.10000000000E+04  0.00000000000E+00 0.  1.
    9000005    2    1    2  501    0  0.18264567506E+03  0.28130674111E+02 -0.85179600463E+03  0.10859557390E+04  0.64775972103E+03 0.  0.
         13    1    3    3    0    0  0.40883634753E+03  0.11257089711E+03 -0.45908261854E+03  0.62496097204E+03  0.00000000000E+00 0.  1.
          3    1    3    3  501    0 -0.22619067247E+03 -0.84440222997E+02 -0.39271338609E+03  0.46099476699E+03  0.00000000000E+00 0.  1.
         -1    1    1    2    0  502 -0.18264567506E+03 -0.28130674111E+02  0.24318698875E+03  0.30543524508E+03  0.00000000000E+00 0. -1.
<mgrwt>
<rscale>  1 0.67360481E+03</rscale>
<asrwt>0</asrwt>
<pdfrwt beam="1">  1       21 0.60213996E-01 0.67360481E+03</pdfrwt>
<pdfrwt beam="2">0</pdfrwt>
<totfact> 0.23478303E+02</totfact>
</mgrwt>
</event>
<event>
 6    1  0.1386179E-004  0.6547185E+03  0.7818608E-02  0.9797965E-01
         21   -1    0    0  501  502  0.00000000000E+00  0.00000000000E+00  0.11552964802E+03  0.11552964802E+03  0.00000000000E+00 0.  1.
         13   -1    0    0    0    0 -0.00000000000E+00 -0.00000000000E+00 -0.10000000000E+04  0.10000000000E+04  0.00000000000E+00 0.  1.
    9000005    2    1    2  501    0 -0.27034284065E+01 -0.21717018148E+02 -0.87170069538E+03  0.10901918989E+04  0.65435260878E+03 0.  0.
         13    1    3    3    0    0 -0.11823739515E+03  0.13111963314E+03 -0.88086187380E+03  0.89838192352E+03  0.00000000000E+00 0.  1.
          3    1    3    3  501    0  0.11553396674E+03 -0.15283665129E+03  0.91611784204E+01  0.19180997534E+03  0.00000000000E+00 0.  1.
         -1    1    1    2    0  502  0.27034284065E+01  0.21717018148E+02 -0.12769656608E+02  0.25337749156E+02  0.00000000000E+00 0. -1.
<mgrwt>
<rscale>  1 0.65471847E+03</rscale>
<asrwt>0</asrwt>
<pdfrwt beam="1">  1       21 0.17773791E-01 0.65471847E+03</pdfrwt>
<pdfrwt beam="2">0</pdfrwt>
<totfact> 0.28100282E+03</totfact>
</mgrwt>
</event>
<event>
 6    1  0.1386179E-004  0.6500426E+03  0.7818608E-02  0.9806699E-01
         21   -1    0    0  501  502  0.00000000000E+00  0.00000000000E+00  0.15146432448E+03  0.15146432448E+03  0.00000000000E+00 0.  1.
         13   -1    0    0    0    0 -0.00000000000E+00 -0.00000000000E+00 -0.10000000000E+04  0.10000000000E+04  0.00000000000E+00 0.  1.
    9000005    2    1    2  501    0  0.22147565971E+02 -0.24201738031E+02 -0.88777484499E+03  0.11003179539E+04  0.64921428319E+03 0.  0.
         13    1    3    3    0    0  0.46325354643E+02  0.21567574936E+03 -0.82104186467E+03  0.85015987372E+03  0.00000000000E+00 0.  1.
          1    1    3    3  501    0 -0.24177788672E+02 -0.23987748739E+03 -0.66732980318E+02  0.25015808019E+03  0.00000000000E+00 0.  1.
         -1    1    1    2    0  502 -0.22147565971E+02  0.24201738031E+02  0.39239169466E+02  0.51146370571E+02  0.00000000000E+00 0. -1.
<mgrwt>
<rscale>  1 0.65004263E+03</rscale>
<asrwt>0</asrwt>
<pdfrwt beam="1">  1       21 0.23302203E-01 0.65004263E+03</pdfrwt>
<pdfrwt beam="2">0</pdfrwt>
<totfact> 0.16705818E+03</totfact>
</mgrwt>
</event>
<event>
 6    1  0.1386179E-004  0.6577252E+03  0.7818608E-02  0.9792390E-01
         21   -1    0    0  501  502  0.00000000000E+00  0.00000000000E+00  0.12391913313E+03  0.12391913313E+03  0.00000000000E+00 0.  1.
         13   -1    0    0    0    0 -0.00000000000E+00 -0.00000000000E+00 -0.10000000000E+04  0.10000000000E+04  0.00000000000E+00 0.  1.
    9000005    2    1    2  501    0  0.28140612571E+02  0.14443165452E+02 -0.87168011339E+03  0.10919837964E+04  0.65696414843E+03 0.  0.
         13    1    3    3    0    0 -0.20322707966E+03  0.38708462488E+02 -0.83031265444E+03  0.85569778257E+03  0.00000000000E+00 0.  1.
          1    1    3    3  501    0  0.23136769223E+03 -0.24265297036E+02 -0.41367458946E+02  0.23628601378E+03  0.00000000000E+00 0.  1.
         -1    1    1    2    0  502 -0.28140612571E+02 -0.14443165452E+02 -0.44007534780E+01  0.31935336781E+02  0.00000000000E+00 0. -1.
<mgrwt>
<rscale>  1 0.65772516E+03</rscale>
<asrwt>0</asrwt>
<pdfrwt beam="1">  1       21 0.19064481E-01 0.65772516E+03</pdfrwt>
<pdfrwt beam="2">0</pdfrwt>
<totfact> 0.24589886E+03</totfact>
</mgrwt>
</event>
<event>
 6    1  0.1386179E-004  0.6157325E+03  0.7818608E-02  0.9873293E-01
         21   -1    0    0  501  502  0.00000000000E+00  0.00000000000E+00  0.10616640180E+03  0.10616640180E+03  0.00000000000E+00 0.  1.
         13   -1    0    0    0    0 -0.00000000000E+00 -0.00000000000E+00 -0.10000000000E+04  0.10000000000E+04  0.00000000000E+00 0.  1.
    9000005    2    1    2  501    0 -0.28506192093E+00  0.32724630991E+02 -0.86926008312E+03  0.10652415881E+04  0.61486223347E+03 0.  0.
         13    1    3    3    0    0 -0.18297538348E+03  0.25804634844E+03 -0.54511309551E+03  0.63025089908E+03  0.00000000000E+00 0.  1.
          3    1    3    3  501    0  0.18269032155E+03 -0.22532171745E+03 -0.32414698761E+03  0.43499068900E+03  0.00000000000E+00 0.  1.
         -1    1    1    2    0  502  0.28506192093E+00 -0.32724630991E+02 -0.24573515083E+02  0.40924813712E+02  0.00000000000E+00 0. -1.
<mgrwt>
<rscale>  1 0.61573253E+03</rscale>
<asrwt>0</asrwt>
<pdfrwt beam="1">  1       21 0.16333292E-01 0.61573253E+03</pdfrwt>
<pdfrwt beam="2">0</pdfrwt>
<totfact> 0.33000763E+03</totfact>
</mgrwt>
</event>
<event>
 6    1  0.1386179E-004  0.6384044E+03  0.7818608E-02  0.9828784E-01
         21   -1    0    0  501  502  0.00000000000E+00  0.00000000000E+00  0.11246546175E+03  0.11246546175E+03  0.00000000000E+00 0.  1.
         13   -1    0    0    0    0 -0.00000000000E+00 -0.00000000000E+00 -0.10000000000E+04  0.10000000000E+04  0.00000000000E+00 0.  1.
    9000005    2    1    2  501    0  0.19986457151E+02 -0.14000659615E+02 -0.87949834019E+03  0.10867738791E+04  0.63793781593E+03 0.  0.
         13    1    3    3    0    0  0.16044507082E+03 -0.29083296213E+02 -0.92430066966E+03  0.93857348503E+03  0.00000000000E+00 0.  1.
          3    1    3    3  501    0 -0.14045861367E+03  0.15082636598E+02  0.44802329468E+02  0.14820039408E+03  0.00000000000E+00 0.  1.
         -3    1    1    2    0  502 -0.19986457151E+02  0.14000659615E+02 -0.80361980585E+01  0.25691582636E+02  0.00000000000E+00 0. -1.
<mgrwt>
<rscale>  1 0.63840437E+03</rscale>
<asrwt>0</asrwt>
<pdfrwt beam="1">  1       21 0.17302378E-01 0.63840437E+03</pdfrwt>
<pdfrwt beam="2">0</pdfrwt>
<totfact> 0.29582632E+03</totfact>
</mgrwt>
</event>
<event>
 6    1  0.1386179E-004  0.6543656E+03  0.7818608E-02  0.9798622E-01
         21   -1    0    0  501  502  0.00000000000E+00  0.00000000000E+00  0.22073650263E+03  0.22073650263E+03  0.00000000000E+00 0. -1.
         13   -1    0    0    0    0 -0.00000000000E+00 -0.00000000000E+00 -0.10000000000E+04  0.10000000000E+04  0.00000000000E+00 0.  1.
    9000005    2    1    2  501    0 -0.21001478967E+02 -0.52344867501E+01 -0.89180977190E+03  0.11061279258E+04  0.65400753592E+03 0.  0.
         13    1    3    3    0    0  0.13010721084E+03  0.26101241901E+03 -0.21196371049E+03  0.36053291633E+03  0.00000000000E+00 0.  1.
          1    1    3    3  501    0 -0.15110868980E+03 -0.26624690576E+03 -0.67984606141E+03  0.74559500949E+03  0.00000000000E+00 0.  1.
         -3    1    1    2    0  502  0.21001478967E+02  0.52344867501E+01  0.11254627453E+03  0.11460857682E+03  0.00000000000E+00 0. -1.
<mgrwt>
<rscale>  1 0.65436559E+03</rscale>
<asrwt>0</asrwt>
<pdfrwt beam="1">  1       21 0.33959461E-01 0.65436559E+03</pdfrwt>
<pdfrwt beam="2">0</pdfrwt>
<totfact> 0.79008777E+02</totfact>
</mgrwt>
</event>
<event>
 6    1  0.1386179E-004  0.6490994E+03  0.7818608E-02  0.9808471E-01
         21   -1    0    0  501  502  0.00000000000E+00  0.00000000000E+00  0.12532167914E+03  0.12532167914E+03  0.00000000000E+00 0.  1.
         13   -1    0    0    0    0 -0.00000000000E+00 -0.00000000000E+00 -0.10000000000E+04  0.10000000000E+04  0.00000000000E+00 0.  1.
    9000005    2    1    2  501    0 -0.52345851750E+02  0.18815173855E+02 -0.83177653174E+03  0.10550745264E+04  0.64671165017E+03 0.  0.
         13    1    3    3    0    0  0.21612640880E+03 -0.14104614228E+03 -0.13457868137E+03  0.29106023485E+03  0.00000000000E+00 0.  1.
          3    1    3    3  501    0 -0.26847226055E+03  0.15986131613E+03 -0.69719785037E+03  0.76401429151E+03  0.00000000000E+00 0.  1.
         -3    1    1    2    0  502  0.52345851750E+02 -0.18815173855E+02 -0.42901789123E+02  0.70247152772E+02  0.00000000000E+00 0. -1.
<mgrwt>
<rscale>  1 0.64909942E+03</rscale>
<asrwt>0</asrwt>
<pdfrwt beam="1">  1       21 0.19280258E-01 0.64909942E+03</pdfrwt>
<pdfrwt beam="2">0</pdfrwt>
<totfact> 0.24074472E+03</totfact>
</mgrwt>
</event>
<event>
 6    1  0.1386179E-004  0.6564322E+03  0.7818608E-02  0.9794784E-01
         21   -1    0    0  501  502  0.00000000000E+00  0.00000000000E+00  0.11160479469E+04  0.11160479469E+04  0.00000000000E+00 0.  1.
         13   -1    0    0    0    0 -0.00000000000E+00 -0.00000000000E+00 -0.10000000000E+04  0.10000000000E+04  0.00000000000E+00 0.  1.
    9000005    2    1    2  501    0  0.24028977879E+02 -0.30124245816E+02 -0.89186636520E+03  0.11073973025E+04  0.65530016801E+03 0.  0.
         13    1    3    3    0    0  0.27412354887E+03 -0.10338400945E+03 -0.76168825825E+03  0.81608882863E+03  0.00000000000E+00 0.  1.
          1    1    3    3  501    0 -0.25009457099E+03  0.73259763639E+02 -0.13017810694E+03  0.29130847384E+03  0.00000000000E+00 0.  1.
         -3    1    1    2    0  502 -0.24028977879E+02  0.30124245816E+02  0.10079143121E+04  0.10086506444E+04  0.00000000000E+00 0. -1.
<mgrwt>
<rscale>  1 0.65643215E+03</rscale>
<asrwt>0</asrwt>
<pdfrwt beam="1">  1       21 0.17169968E+00 0.65643215E+03</pdfrwt>
<pdfrwt beam="2">0</pdfrwt>
<totfact> 0.17321168E+01</totfact>
</mgrwt>
</event>
<event>
 6    1  0.1386179E-004  0.6476010E+03  0.7818608E-02  0.9811291E-01
         21   -1    0    0  501  502  0.00000000000E+00  0.00000000000E+00  0.17399659736E+03  0.17399659736E+03  0.00000000000E+00 0.  1.
         13   -1    0    0    0    0 -0.00000000000E+00 -0.00000000000E+00 -0.10000000000E+04  0.10000000000E+04  0.00000000000E+00 0.  1.
    9000005    2    1    2  501    0  0.17607198490E+02  0.53991260569E+02 -0.88201696787E+03  0.10942307579E+04  0.64510615424E+03 0.  0.
         13    1    3    3    0    0  0.94884968997E+02 -0.28331960899E+03 -0.45932910602E+03  0.54795655468E+03  0.00000000000E+00 0.  1.
          1    1    3    3  501    0 -0.77277770507E+02  0.33731086956E+03 -0.42268786186E+03  0.54627420321E+03  0.00000000000E+00 0.  1.
         -1    1    1    2    0  502 -0.17607198490E+02 -0.53991260569E+02  0.56013565237E+02  0.79765839475E+02  0.00000000000E+00 0. -1.
<mgrwt>
<rscale>  1 0.64760097E+03</rscale>
<asrwt>0</asrwt>
<pdfrwt beam="1">  1       21 0.26768707E-01 0.64760097E+03</pdfrwt>
<pdfrwt beam="2">0</pdfrwt>
<totfact> 0.12731153E+03</totfact>
</mgrwt>
</event>
<event>
 6    1  0.1386179E-004  0.6588513E+03  0.7818608E-02  0.9790311E-01
         21   -1    0    0  501  502  0.00000000000E+00  0.00000000000E+00  0.13917391468E+03  0.13917391468E+03  0.00000000000E+00 0.  1.
         13   -1    0    0    0    0 -0.00000000000E+00 -0.00000000000E+00 -0.10000000000E+04  0.10000000000E+04  0.00000000000E+00 0.  1.
    9000005    2    1    2  501    0 -0.31913731032E+02 -0.14096015372E+02 -0.88004127811E+03  0.10993441832E+04  0.65792689413E+03 0.  0.
         13    1    3    3    0    0  0.11912205904E+03  0.26212321942E+03 -0.20179460491E+03  0.35159594662E+03  0.00000000000E+00 0.  1.
          3    1    3    3  501    0 -0.15103579007E+03 -0.27621923480E+03 -0.67824667320E+03  0.74774823655E+03  0.00000000000E+00 0.  1.
         -1    1    1    2    0  502  0.31913731032E+02  0.14096015372E+02  0.19215192788E+02  0.39829731504E+02  0.00000000000E+00 0. -1.
<mgrwt>
<rscale>  1 0.65885126E+03</rscale>
<asrwt>0</asrwt>
<pdfrwt beam="1">  1       21 0.21411371E-01 0.65885126E+03</pdfrwt>
<pdfrwt beam="2">0</pdfrwt>
<totfact> 0.19675878E+03</totfact>
</mgrwt>
</event>
<event>
 6    1  0.1386179E-004  0.6559451E+03  0.7818608E-02  0.9795687E-01
         21   -1    0    0  501  502  0.00000000000E+00  0.00000000000E+00  0.24295659560E+03  0.24295659560E+03  0.00000000000E+00 0.  1.
         13   -1    0    0    0    0 -0.00000000000E+00 -0.00000000000E+00 -0.10000000000E+04  0.10000000000E+04  0.00000000000E+00 0.  1.
    9000005    2    1    2  501    0 -0.78070660178E+01 -0.34520274742E+02 -0.88986697704E+03  0.11054985980E+04  0.65498955242E+03 0.  0.
         13    1    3    3    0    0  0.79053017065E+02 -0.31089498168E+03 -0.26260463991E+03  0.41456756512E+03  0.00000000000E+00 0.  1.
          1    1    3    3  501    0 -0.86860083083E+02  0.27637470694E+03 -0.62726233712E+03  0.69093103291E+03  0.00000000000E+00 0.  1.
         -3    1    1    2    0  502  0.78070660178E+01  0.34520274742E+02  0.13282357264E+03  0.13745799757E+03  0.00000000000E+00 0. -1.
<mgrwt>
<rscale>  1 0.65594505E+03</rscale>
<asrwt>0</asrwt>
<pdfrwt beam="1">  1       21 0.37377937E-01 0.65594505E+03</pdfrwt>
<pdfrwt beam="2">0</pdfrwt>
<totfact> 0.64936027E+02</totfact>
</mgrwt>
</event>
<event>
 6    1  0.1386179E-004  0.6577817E+03  0.7818608E-02  0.9792286E-01
         21   -1    0    0  501  502  0.00000000000E+00  0.00000000000E+00  0.11729503731E+03  0.11729503731E+03  0.00000000000E+00 0.  1.
         13   -1    0    0    0    0 -0.00000000000E+00 -0.00000000000E+00 -0.10000000000E+04  0.10000000000E+04  0.00000000000E+00 0.  1.
    9000005    2    1    2  501    0  0.19038235373E+02  0.79634668457E+01 -0.87625658121E+03  0.10956743797E+04  0.65745789149E+03 0.  0.
         13    1    3    3    0    0  0.27913268804E+03 -0.16612866988E+03 -0.31183073851E+03  0.45028013721E+03  0.00000000000E+00 0.  1.
          3    1    3    3  501    0 -0.26009445267E+03  0.17409213672E+03 -0.56442584270E+03  0.64539424252E+03  0.00000000000E+00 0.  1.
         -3    1    1    2    0  502 -0.19038235373E+02 -0.79634668457E+01 -0.64483814773E+01  0.21620657575E+02  0.00000000000E+00 0. -1.
<mgrwt>
<rscale>  1 0.65778169E+03</rscale>
<asrwt>0</asrwt>
<pdfrwt beam="1">  1       21 0.18045390E-01 0.65778169E+03</pdfrwt>
<pdfrwt beam="2">0</pdfrwt>
<totfact> 0.27300647E+03</totfact>
</mgrwt>
</event>
<event>
 6    1  0.1386179E-004  0.6583473E+03  0.7818608E-02  0.9791241E-01
         21   -1    0    0  501  502  0.00000000000E+00  0.00000000000E+00  0.15136371531E+03  0.15136371531E+03  0.00000000000E+00 0. -1.
         13   -1    0    0    0    0 -0.00000000000E+00 -0.00000000000E+00 -0.10000000000E+04  0.10000000000E+04  0.00000000000E+00 0.  1.
    9000005    2    1    2  501    0  0.47828151389E+02 -0.28352839709E+02 -0.87067325095E+03  0.10915553257E+04  0.65599520089E+03 0.  0.
         13    1    3    3    0    0  0.33606848402E+03 -0.14876375882E+02 -0.29420401073E+03  0.44689968946E+03  0.00000000000E+00 0.  1.
          1    1    3    3  501    0 -0.28824033263E+03 -0.13476463827E+02 -0.57646924022E+03  0.64465563625E+03  0.00000000000E+00 0.  1.
         -3    1    1    2    0  502 -0.47828151389E+02  0.28352839709E+02  0.22036966258E+02  0.59808389602E+02  0.00000000000E+00 0. -1.
<mgrwt>
<rscale>  1 0.65834726E+03</rscale>
<asrwt>0</asrwt>
<pdfrwt beam="1">  1       21 0.23286725E-01 0.65834726E+03</pdfrwt>
<pdfrwt beam="2">0</pdfrwt>
<totfact> 0.16720816E+03</totfact>
</mgrwt>
</event>
<event>
 6    1  0.1386179E-004  0.6676783E+03  0.7818608E-02  0.9774161E-01
         21   -1    0    0  501  502  0.00000000000E+00  0.00000000000E+00  0.13609074490E+03  0.13609074490E+03  0.00000000000E+00 0.  1.
         13   -1    0    0    0    0 -0.00000000000E+00 -0.00000000000E+00 -0.10000000000E+04  0.10000000000E+04  0.00000000000E+00 0.  1.
    9000005    2    1    2  501    0 -0.18309986381E+02 -0.65813887931E+02 -0.80523097389E+03  0.10460359608E+04  0.66417436463E+03 0.  0.
         13    1    3    3    0    0  0.80493337614E+02 -0.28470954696E+03 -0.74032632728E+03  0.79725891302E+03  0.00000000000E+00 0.  1.
          3    1    3    3  501    0 -0.98803323994E+02  0.21889565903E+03 -0.64904646616E+02  0.24877704783E+03  0.00000000000E+00 0.  1.
         -3    1    1    2    0  502  0.18309986381E+02  0.65813887931E+02 -0.58678281207E+02  0.90054784055E+02  0.00000000000E+00 0. -1.
<mgrwt>
<rscale>  1 0.66767830E+03</rscale>
<asrwt>0</asrwt>
<pdfrwt beam="1">  1       21 0.20937037E-01 0.66767830E+03</pdfrwt>
<pdfrwt beam="2">0</pdfrwt>
<totfact> 0.20537147E+03</totfact>
</mgrwt>
</event>
<event>
 6    1  0.1386179E-004  0.7458840E+03  0.7818608E-02  0.9641830E-01
         21   -1    0    0  501  502  0.00000000000E+00  0.00000000000E+00  0.50189611442E+03  0.50189611442E+03  0.00000000000E+00 0. -1.
         13   -1    0    0    0    0 -0.00000000000E+00 -0.00000000000E+00 -0.10000000000E+04  0.10000000000E+04  0.00000000000E+00 0.  1.
    9000005    2    1    2  501    0  0.29336462725E+03 -0.27814146657E+03 -0.72342858743E+03  0.10390822196E+04  0.62683128359E+03 0.  0.
         13    1    3    3    0    0  0.41994412841E+03 -0.64733807273E+02 -0.65664356431E+03  0.78212806326E+03  0.00000000000E+00 0.  1.
          1    1    3    3  501    0 -0.12657950116E+03 -0.21340765930E+03 -0.66785023118E+02  0.25695415637E+03  0.00000000000E+00 0.  1.
         -3    1    1    2    0  502 -0.29336462725E+03  0.27814146657E+03  0.22532470185E+03  0.46281389479E+03  0.00000000000E+00 0. -1.
<mgrwt>
<rscale>  1 0.74588400E+03</rscale>
<asrwt>0</asrwt>
<pdfrwt beam="1">  1       21 0.77214785E-01 0.74588400E+03</pdfrwt>
<pdfrwt beam="2">0</pdfrwt>
<totfact> 0.13263883E+02</totfact>
</mgrwt>
</event>
<event>
 6    1  0.1386179E-004  0.6453710E+03  0.7818608E-02  0.9815504E-01
         21   -1    0    0  501  502  0.00000000000E+00  0.00000000000E+00  0.31113521414E+03  0.31113521414E+03  0.00000000000E+00 0. -1.
         13   -1    0    0    0    0 -0.00000000000E+00 -0.00000000000E+00 -0.10000000000E+04  0.10000000000E+04  0.00000000000E+00 0.  1.
    9000005    2    1    2  501    0  0.14254316578E+02  0.23103163474E+02 -0.89489087863E+03  0.11033283504E+04  0.64479983134E+03 0.  0.
         13    1    3    3    0    0  0.28126687149E+03 -0.15109473283E+03 -0.53038521288E+03  0.61907119569E+03  0.00000000000E+00 0.  1.
          3    1    3    3  501    0 -0.26701255491E+03  0.17419789630E+03 -0.36450566575E+03  0.48425715474E+03  0.00000000000E+00 0.  1.
         -3    1    1    2    0  502 -0.14254316578E+02 -0.23103163474E+02  0.20602609277E+03  0.20780686371E+03  0.00000000000E+00 0. -1.
<mgrwt>
<rscale>  1 0.64537103E+03</rscale>
<asrwt>0</asrwt>
<pdfrwt beam="1">  1       21 0.47866955E-01 0.64537103E+03</pdfrwt>
<pdfrwt beam="2">0</pdfrwt>
<totfact> 0.38732158E+02</totfact>
</mgrwt>
</event>
<event>
 6    1  0.1386179E-004  0.6492504E+03  0.7818608E-02  0.9808187E-01
         21   -1    0    0  501  502  0.00000000000E+00  0.00000000000E+00  0.12106720468E+03  0.12106720468E+03  0.00000000000E+00 0.  1.
         13   -1    0    0    0    0 -0.00000000000E+00 -0.00000000000E+00 -0.10000000000E+04  0.10000000000E+04  0.00000000000E+00 0.  1.
    9000005    2    1    2  501    0 -0.10313959422E+02  0.44488650486E+02 -0.83486688939E+03  0.10576052330E+04  0.64764225322E+03 0.  0.
         13    1    3    3    0    0  0.19966039394E+03  0.21366796108E+03 -0.16562057419E+03  0.33607803423E+03  0.00000000000E+00 0.  1.
          1    1    3    3  501    0 -0.20997435336E+03 -0.16917931059E+03 -0.66924631519E+03  0.72152719880E+03  0.00000000000E+00 0.  1.
         -3    1    1    2    0  502  0.10313959422E+02 -0.44488650486E+02 -0.44065905930E+02  0.63461971656E+02  0.00000000000E+00 0. -1.
<mgrwt>
<rscale>  1 0.64925042E+03</rscale>
<asrwt>0</asrwt>
<pdfrwt beam="1">  1       21 0.18625723E-01 0.64925042E+03</pdfrwt>
<pdfrwt beam="2">0</pdfrwt>
<totfact> 0.25713943E+03</totfact>
</mgrwt>
</event>
<event>
 6    1  0.1386179E-004  0.6855631E+03  0.7818608E-02  0.9742245E-01
         21   -1    0    0  501  502  0.00000000000E+00  0.00000000000E+00  0.30554043919E+03  0.30554043919E+03  0.00000000000E+00 0. -1.
         13   -1    0    0    0    0 -0.00000000000E+00 -0.00000000000E+00 -0.10000000000E+04  0.10000000000E+04  0.00000000000E+00 0.  1.
    9000005    2    1    2  501    0  0.38729553992E+02 -0.22287047002E+03 -0.80198757493E+03  0.10550738774E+04  0.64716735985E+03 0.  0.
         13    1    3    3    0    0  0.23348686590E+03 -0.87958305872E+02 -0.34535646094E+02  0.25188388390E+03  0.00000000000E+00 0.  1.
          3    1    3    3  501    0 -0.19475731190E+03 -0.13491216415E+03 -0.76745192883E+03  0.80318999349E+03  0.00000000000E+00 0.  1.
         -3    1    1    2    0  502 -0.38729553992E+02  0.22287047002E+03  0.10752801412E+03  0.25046656180E+03  0.00000000000E+00 0. -1.
<mgrwt>
<rscale>  1 0.68556314E+03</rscale>
<asrwt>0</asrwt>
<pdfrwt beam="1">  1       21 0.47006220E-01 0.68556314E+03</pdfrwt>
<pdfrwt beam="2">0</pdfrwt>
<totfact> 0.40111719E+02</totfact>
</mgrwt>
</event>
<event>
 6    1  0.1386179E-004  0.6544728E+03  0.7818608E-02  0.9798422E-01
         21   -1    0    0  501  502  0.00000000000E+00  0.00000000000E+00  0.17971081734E+03  0.17971081734E+03  0.00000000000E+00 0.  1.
         13   -1    0    0    0    0 -0.00000000000E+00 -0.00000000000E+00 -0.10000000000E+04  0.10000000000E+04  0.00000000000E+00 0.  1.
    9000005    2    1    2  501    0  0.27958459162E+02 -0.32412594393E+02 -0.88586293460E+03  0.11014026526E+04  0.65307152184E+03 0.  0.
         13    1    3    3    0    0 -0.45618393407E+01  0.24849034936E+03 -0.10299413640E+03  0.26902798411E+03  0.00000000000E+00 0.  1.
          3    1    3    3  501    0  0.32520298502E+02 -0.28090294375E+03 -0.78286879820E+03  0.83237466853E+03  0.00000000000E+00 0.  1.
         -1    1    1    2    0  502 -0.27958459162E+02  0.32412594393E+02  0.65573751941E+02  0.78308164693E+02  0.00000000000E+00 0. -1.
<mgrwt>
<rscale>  1 0.65447281E+03</rscale>
<asrwt>0</asrwt>
<pdfrwt beam="1">  1       21 0.27647817E-01 0.65447281E+03</pdfrwt>
<pdfrwt beam="2">0</pdfrwt>
<totfact> 0.11937817E+03</totfact>
</mgrwt>
</event>
<event>
 6    1  0.1386179E-004  0.6545949E+03  0.7818608E-02  0.9798195E-01
         21   -1    0    0  501  502  0.00000000000E+00  0.00000000000E+00  0.44257538398E+03  0.44257538398E+03  0.00000000000E+00 0. -1.
         13   -1    0    0    0    0 -0.00000000000E+00 -0.00000000000E+00 -0.10000000000E+04  0.10000000000E+04  0.00000000000E+00 0.  1.
    9000005    2    1    2  501    0  0.39512562051E+02  0.82121456896E+01 -0.89153187165E+03  0.11060395907E+04  0.65334968901E+03 0.  0.
         13    1    3    3    0    0  0.26374324084E+03 -0.90172246178E+02 -0.13275712007E+03  0.30873286834E+03  0.00000000000E+00 0.  1.
          1    1    3    3  501    0 -0.22423067879E+03  0.98384391867E+02 -0.75877475158E+03  0.79730672235E+03  0.00000000000E+00 0.  1.
         -3    1    1    2    0  502 -0.39512562051E+02 -0.82121456896E+01  0.33410725563E+03  0.33653579328E+03  0.00000000000E+00 0. -1.
<mgrwt>
<rscale>  1 0.65459491E+03</rscale>
<asrwt>0</asrwt>
<pdfrwt beam="1">  1       21 0.68088519E-01 0.65459491E+03</pdfrwt>
<pdfrwt beam="2">0</pdfrwt>
<totfact> 0.17875035E+02</totfact>
</mgrwt>
</event>
<event>
 6    1  0.1386179E-004  0.6677668E+03  0.7818608E-02  0.9774001E-01
         21   -1    0    0  501  502  0.00000000000E+00  0.00000000000E+00  0.28904127870E+03  0.28904127870E+03  0.00000000000E+00 0. -1.
         13   -1    0    0    0    0 -0.00000000000E+00 -0.00000000000E+00 -0.10000000000E+04  0.10000000000E+04  0.00000000000E+00 0.  1.
    9000005    2    1    2  501    0  0.11009642202E+03  0.76199791082E+02 -0.85991967447E+03  0.10887490026E+04  0.65420555927E+03 0.  0.
         13    1    3    3    0    0 -0.65270132092E+02 -0.21551556686E+03 -0.82038718329E+02  0.23966122132E+03  0.00000000000E+00 0.  1.
          1    1    3    3  501    0  0.17536655411E+03  0.29171535794E+03 -0.77788095614E+03  0.84908778126E+03  0.00000000000E+00 0.  1.
         -3    1    1    2    0  502 -0.11009642202E+03 -0.76199791082E+02  0.14896095317E+03  0.20029227612E+03  0.00000000000E+00 0. -1.
<mgrwt>
<rscale>  1 0.66776683E+03</rscale>
<asrwt>0</asrwt>
<pdfrwt beam="1">  1       21 0.44467888E-01 0.66776683E+03</pdfrwt>
<pdfrwt beam="2">0</pdfrwt>
<totfact> 0.45184704E+02</totfact>
</mgrwt>
</event>
<event>
 6    1  0.1386179E-004  0.6595451E+03  0.7818608E-02  0.9789032E-01
         21   -1    0    0  501  502  0.00000000000E+00  0.00000000000E+00  0.27734320428E+03  0.27734320428E+03  0.00000000000E+00 0. -1.
         13   -1    0    0    0    0 -0.00000000000E+00 -0.00000000000E+00 -0.10000000000E+04  0.10000000000E+04  0.00000000000E+00 0.  1.
    9000005    2    1    2  501    0  0.15786391314E+02  0.21421556822E+02 -0.89008497596E+03  0.11078135939E+04  0.65900804337E+03 0.  0.
         13    1    3    3    0    0  0.30605994862E+03  0.54016489923E+02 -0.23205502024E+03  0.38786596365E+03  0.00000000000E+00 0.  1.
          3    1    3    3  501    0 -0.29027355731E+03 -0.32594933102E+02 -0.65802995572E+03  0.71994763029E+03  0.00000000000E+00 0.  1.
         -3    1    1    2    0  502 -0.15786391314E+02 -0.21421556822E+02  0.16742818023E+03  0.16952961034E+03  0.00000000000E+00 0. -1.
<mgrwt>
<rscale>  1 0.65954507E+03</rscale>
<asrwt>0</asrwt>
<pdfrwt beam="1">  1       21 0.42668184E-01 0.65954507E+03</pdfrwt>
<pdfrwt beam="2">0</pdfrwt>
<totfact> 0.49318866E+02</totfact>
</mgrwt>
</event>
<event>
 6    1  0.1386179E-004  0.6584968E+03  0.7818608E-02  0.9790965E-01
         21   -1    0    0  501  502  0.00000000000E+00  0.00000000000E+00  0.17635314637E+03  0.17635314637E+03  0.00000000000E+00 0.  1.
         13   -1    0    0    0    0 -0.00000000000E+00 -0.00000000000E+00 -0.10000000000E+04  0.10000000000E+04  0.00000000000E+00 0.  1.
    9000005    2    1    2  501    0  0.44986866011E+02  0.13710302258E+02 -0.88244687971E+03  0.11010588334E+04  0.65681524690E+03 0.  0.
         13    1    3    3    0    0 -0.47762588801E+02  0.86240869757E+02 -0.95676073742E+03  0.96182631549E+03  0.00000000000E+00 0.  1.
          3    1    3    3  501    0  0.92749454812E+02 -0.72530567499E+02  0.74313857712E+02  0.13923251789E+03  0.00000000000E+00 0.  1.
         -1    1    1    2    0  502 -0.44986866011E+02 -0.13710302258E+02  0.58800026077E+02  0.75294312986E+02  0.00000000000E+00 0. -1.
<mgrwt>
<rscale>  1 0.65849682E+03</rscale>
<asrwt>0</asrwt>
<pdfrwt beam="1">  1       21 0.27131253E-01 0.65849682E+03</pdfrwt>
<pdfrwt beam="2">0</pdfrwt>
<totfact> 0.12389571E+03</totfact>
</mgrwt>
</event>
<event>
 6    1  0.1386179E-004  0.6604264E+03  0.7818608E-02  0.9787409E-01
         21   -1    0    0  501  502  0.00000000000E+00  0.00000000000E+00  0.18157844852E+03  0.18157844852E+03  0.00000000000E+00 0.  1.
         13   -1    0    0    0    0 -0.00000000000E+00 -0.00000000000E+00 -0.10000000000E+04  0.10000000000E+04  0.00000000000E+00 0.  1.
    9000005    2    1    2  501    0 -0.31817245656E+02 -0.24318518590E+02 -0.88477383538E+03  0.11040777837E+04  0.65921110824E+03 0.  0.
         13    1    3    3    0    0 -0.22933074397E+03  0.11777489463E+03 -0.80923257871E+03  0.84930611818E+03  0.00000000000E+00 0.  1.
          3    1    3    3  501    0  0.19751349831E+03 -0.14209341322E+03 -0.75541256675E+02  0.25477166553E+03  0.00000000000E+00 0.  1.
         -1    1    1    2    0  502  0.31817245656E+02  0.24318518590E+02  0.66352283900E+02  0.77500664812E+02  0.00000000000E+00 0. -1.
<mgrwt>
<rscale>  1 0.66042639E+03</rscale>
<asrwt>0</asrwt>
<pdfrwt beam="1">  1       21 0.27935145E-01 0.66042639E+03</pdfrwt>
<pdfrwt beam="2">0</pdfrwt>
<totfact> 0.11691298E+03</totfact>
</mgrwt>
</event>
<event>
 6    1  0.1386179E-004  0.6493789E+03  0.7818608E-02  0.9807945E-01
         21   -1    0    0  501  502  0.00000000000E+00  0.00000000000E+00  0.14143013985E+03  0.14143013985E+03  0.00000000000E+00 0.  1.
         13   -1    0    0    0    0 -0.00000000000E+00 -0.00000000000E+00 -0.10000000000E+04  0.10000000000E+04  0.00000000000E+00 0.  1.
    9000005    2    1    2  501    0 -0.29024468063E+02 -0.34625279848E+02 -0.87816371405E+03  0.10921833241E+04  0.64780519835E+03 0.  0.
         13    1    3    3    0    0  0.11644470271E+03  0.12047138357E+03 -0.86287698724E+03  0.87899341189E+03  0.00000000000E+00 0.  1.
          1    1    3    3  501    0 -0.14546917077E+03 -0.15509666342E+03 -0.15286726817E+02  0.21318991220E+03  0.00000000000E+00 0.  1.
         -1    1    1    2    0  502  0.29024468063E+02  0.34625279848E+02  0.19593853897E+02  0.49246815750E+02  0.00000000000E+00 0. -1.
<mgrwt>
<rscale>  1 0.64937886E+03</rscale>
<asrwt>0</asrwt>
<pdfrwt beam="1">  1       21 0.21758482E-01 0.64937886E+03</pdfrwt>
<pdfrwt beam="2">0</pdfrwt>
<totfact> 0.19081830E+03</totfact>
</mgrwt>
</event>
<event>
 6    1  0.1386179E-004  0.8162348E+03  0.7818608E-02  0.9536811E-01
         21   -1    0    0  501  502  0.00000000000E+00  0.00000000000E+00  0.52666115265E+03  0.52666115265E+03  0.00000000000E+00 0. -1.
         13   -1    0    0    0    0 -0.00000000000E+00 -0.00000000000E+00 -0.10000000000E+04  0.10000000000E+04  0.00000000000E+00 0.  1.
    9000005    2    1    2  501    0 -0.51081767455E+03 -0.13663220672E+03 -0.56132126725E+03  0.99061641314E+03  0.62180081729E+03 0.  0.
         13    1    3    3    0    0 -0.52581655998E+03 -0.29699581263E+03 -0.27821496490E+03  0.66490084537E+03  0.00000000000E+00 0.  1.
          1    1    3    3  501    0  0.14998885430E+02  0.16036360592E+03 -0.28310630234E+03  0.32571556778E+03  0.00000000000E+00 0.  1.
         -3    1    1    2    0  502  0.51081767455E+03  0.13663220672E+03  0.87982419898E+02  0.53604473951E+03  0.00000000000E+00 0. -1.
<mgrwt>
<rscale>  1 0.81623484E+03</rscale>
<asrwt>0</asrwt>
<pdfrwt beam="1">  1       21 0.81024790E-01 0.81623484E+03</pdfrwt>
<pdfrwt beam="2">0</pdfrwt>
<totfact> 0.11765093E+02</totfact>
</mgrwt>
</event>
<event>
 6    1  0.1386179E-004  0.7332663E+03  0.7818608E-02  0.9661975E-01
         21   -1    0    0  501  502  0.00000000000E+00  0.00000000000E+00  0.30069689079E+03  0.30069689079E+03  0.00000000000E+00 0.  1.
         13   -1    0    0    0    0 -0.00000000000E+00 -0.00000000000E+00 -0.10000000000E+04  0.10000000000E+04  0.00000000000E+00 0.  1.
    9000005    2    1    2  501    0  0.33139536067E+03  0.64025213360E+02 -0.60394187223E+03  0.94996069571E+03  0.65096653166E+03 0.  0.
         13    1    3    3    0    0  0.95870271374E+02  0.28580014736E+03 -0.45896410962E+02  0.30492509523E+03  0.00000000000E+00 0.  1.
          1    1    3    3  501    0  0.23552508930E+03 -0.22177493400E+03 -0.55804546127E+03  0.64503560048E+03  0.00000000000E+00 0.  1.
         -1    1    1    2    0  502 -0.33139536067E+03 -0.64025213360E+02 -0.95361236981E+02  0.35073619508E+03  0.00000000000E+00 0. -1.
<mgrwt>
<rscale>  1 0.73326635E+03</rscale>
<asrwt>0</asrwt>
<pdfrwt beam="1">  1       21 0.46261059E-01 0.73326635E+03</pdfrwt>
<pdfrwt beam="2">0</pdfrwt>
<totfact> 0.41332991E+02</totfact>
</mgrwt>
</event>
<event>
 6    1  0.1386179E-004  0.6314230E+03  0.7818608E-02  0.9842276E-01
         21   -1    0    0  501  502  0.00000000000E+00  0.00000000000E+00  0.18197055913E+03  0.18197055913E+03  0.00000000000E+00 0.  1.
         13   -1    0    0    0    0 -0.00000000000E+00 -0.00000000000E+00 -0.10000000000E+04  0.10000000000E+04  0.00000000000E+00 0.  1.
    9000005    2    1    2  501    0  0.92423607418E+01  0.45898863954E+02 -0.89293833490E+03  0.10936333113E+04  0.62968470108E+03 0.  0.
         13    1    3    3    0    0  0.44498681431E+02  0.29812091915E+03 -0.73387783615E+03  0.79336806935E+03  0.00000000000E+00 0.  1.
          1    1    3    3  501    0 -0.35256320689E+02 -0.25222205520E+03 -0.15906049875E+03  0.30026524198E+03  0.00000000000E+00 0.  1.
         -3    1    1    2    0  502 -0.92423607418E+01 -0.45898863954E+02  0.74908894029E+02  0.88337247801E+02  0.00000000000E+00 0. -1.
<mgrwt>
<rscale>  1 0.63142296E+03</rscale>
<asrwt>0</asrwt>
<pdfrwt beam="1">  1       21 0.27995470E-01 0.63142296E+03</pdfrwt>
<pdfrwt beam="2">0</pdfrwt>
<totfact> 0.11661290E+03</totfact>
</mgrwt>
</event>
<event>
 6    1  0.1386179E-004  0.6524668E+03  0.7818608E-02  0.9802161E-01
         21   -1    0    0  501  502  0.00000000000E+00  0.00000000000E+00  0.22147426459E+03  0.22147426459E+03  0.00000000000E+00 0. -1.
         13   -1    0    0    0    0 -0.00000000000E+00 -0.00000000000E+00 -0.10000000000E+04  0.10000000000E+04  0.00000000000E+00 0.  1.
    9000005    2    1    2  501    0 -0.37906208434E+02  0.46332143018E+02 -0.88488569192E+03  0.10994251414E+04  0.64971486495E+03 0.  0.
         13    1    3    3    0    0  0.26261935473E+03  0.18403284855E+03 -0.46926174685E+03  0.56836924783E+03  0.00000000000E+00 0.  1.
          1    1    3    3  501    0 -0.30052556316E+03 -0.13770070553E+03 -0.41562394506E+03  0.53105589360E+03  0.00000000000E+00 0.  1.
         -1    1    1    2    0  502  0.37906208434E+02 -0.46332143018E+02  0.10635995651E+03  0.12204912315E+03  0.00000000000E+00 0. -1.
<mgrwt>
<rscale>  1 0.65246682E+03</rscale>
<asrwt>0</asrwt>
<pdfrwt beam="1">  1       21 0.34072963E-01 0.65246682E+03</pdfrwt>
<pdfrwt beam="2">0</pdfrwt>
<totfact> 0.78485338E+02</totfact>
</mgrwt>
</event>
<event>
 6    1  0.1386179E-004  0.6756608E+03  0.7818608E-02  0.9759785E-01
         21   -1    0    0  501  502  0.00000000000E+00  0.00000000000E+00  0.19993261399E+03  0.19993261399E+03  0.00000000000E+00 0.  1.
         13   -1    0    0    0    0 -0.00000000000E+00 -0.00000000000E+00 -0.10000000000E+04  0.10000000000E+04  0.00000000000E+00 0.  1.
    9000005    2    1    2  501    0 -0.17971407648E+03  0.15738077556E+02 -0.75658191132E+03  0.10143636972E+04  0.65113184939E+03 0.  0.
         13    1    3    3    0    0 -0.20447089068E+03  0.31473834390E+03 -0.43576512476E+03  0.57511721781E+03  0.00000000000E+00 0.  1.
          1    1    3    3  501    0  0.24756814200E+02 -0.29900026634E+03 -0.32081678656E+03  0.43924647940E+03  0.00000000000E+00 0.  1.
         -3    1    1    2    0  502  0.17971407648E+03 -0.15738077556E+02 -0.43485474683E+02  0.18556891679E+03  0.00000000000E+00 0. -1.
<mgrwt>
<rscale>  1 0.67566080E+03</rscale>
<asrwt>0</asrwt>
<pdfrwt beam="1">  1       21 0.30758863E-01 0.67566080E+03</pdfrwt>
<pdfrwt beam="2">0</pdfrwt>
<totfact> 0.96365734E+02</totfact>
</mgrwt>
</event>
<event>
 6    1  0.1386179E-004  0.6587545E+03  0.7818608E-02  0.9790489E-01
         21   -1    0    0  501  502  0.00000000000E+00  0.00000000000E+00  0.16578609832E+03  0.16578609832E+03  0.00000000000E+00 0.  1.
         13   -1    0    0    0    0 -0.00000000000E+00 -0.00000000000E+00 -0.10000000000E+04  0.10000000000E+04  0.00000000000E+00 0.  1.
    9000005    2    1    2  501    0 -0.38420607371E+02 -0.28445561566E+01 -0.88423638561E+03  0.11026474931E+04  0.65762700205E+03 0.  0.
         13    1    3    3    0    0 -0.26971557199E+03  0.17670984264E+03 -0.26388074385E+03  0.41666041956E+03  0.00000000000E+00 0.  1.
          1    1    3    3  501    0  0.23129496462E+03 -0.17955439880E+03 -0.62035564177E+03  0.68598707353E+03  0.00000000000E+00 0.  1.
         -1    1    1    2    0  502  0.38420607371E+02  0.28445561566E+01  0.50022483929E+02  0.63138605218E+02  0.00000000000E+00 0. -1.
<mgrwt>
<rscale>  1 0.65875451E+03</rscale>
<asrwt>0</asrwt>
<pdfrwt beam="1">  1       21 0.25505553E-01 0.65875451E+03</pdfrwt>
<pdfrwt beam="2">0</pdfrwt>
<totfact> 0.13994273E+03</totfact>
</mgrwt>
</event>
<event>
 6    1  0.1386179E-004  0.6416803E+03  0.7818608E-02  0.9822517E-01
         21   -1    0    0  501  502  0.00000000000E+00  0.00000000000E+00  0.44706588272E+03  0.44706588272E+03  0.00000000000E+00 0. -1.
         13   -1    0    0    0    0 -0.00000000000E+00 -0.00000000000E+00 -0.10000000000E+04  0.10000000000E+04  0.00000000000E+00 0.  1.
    9000005    2    1    2  501    0 -0.30872311345E+02  0.30342317312E+02 -0.89555942371E+03  0.11017169918E+04  0.64021862898E+03 0.  0.
         13    1    3    3    0    0 -0.13703126321E+03 -0.25379049901E+03 -0.22518927085E+03  0.36591992593E+03  0.00000000000E+00 0.  1.
          1    1    3    3  501    0  0.10615895186E+03  0.28413281632E+03 -0.67037015285E+03  0.73579706592E+03  0.00000000000E+00 0.  1.
         -3    1    1    2    0  502  0.30872311345E+02 -0.30342317312E+02  0.34262530643E+03  0.34534889088E+03  0.00000000000E+00 0. -1.
<mgrwt>
<rscale>  1 0.64168033E+03</rscale>
<asrwt>0</asrwt>
<pdfrwt beam="1">  1       21 0.68779365E-01 0.64168033E+03</pdfrwt>
<pdfrwt beam="2">0</pdfrwt>
<totfact> 0.17498344E+02</totfact>
</mgrwt>
</event>
<event>
 6    1  0.1386179E-004  0.6690680E+03  0.7818608E-02  0.9771643E-01
         21   -1    0    0  501  502  0.00000000000E+00  0.00000000000E+00  0.19575454126E+03  0.19575454126E+03  0.00000000000E+00 0.  1.
         13   -1    0    0    0    0 -0.00000000000E+00 -0.00000000000E+00 -0.10000000000E+04  0.10000000000E+04  0.00000000000E+00 0.  1.
    9000005    2    1    2  501    0  0.10965886656E+03  0.93915318774E+02 -0.81081759963E+03  0.10512265262E+04  0.65330458081E+03 0.  0.
         13    1    3    3    0    0  0.87965600551E+02 -0.10883023742E+03 -0.83431982673E+03  0.84597372343E+03  0.00000000000E+00 0.  1.
          3    1    3    3  501    0  0.21693266010E+02  0.20274555619E+03  0.23502227104E+02  0.20525280272E+03  0.00000000000E+00 0.  1.
         -3    1    1    2    0  502 -0.10965886656E+03 -0.93915318774E+02  0.65721408863E+01  0.14452801511E+03  0.00000000000E+00 0. -1.
<mgrwt>
<rscale>  1 0.66906803E+03</rscale>
<asrwt>0</asrwt>
<pdfrwt beam="1">  1       21 0.30116082E-01 0.66906803E+03</pdfrwt>
<pdfrwt beam="2">0</pdfrwt>
<totfact> 0.10057816E+03</totfact>
</mgrwt>
</event>
<event>
 6    1  0.1386179E-004  0.6629322E+03  0.7818608E-02  0.9782811E-01
         21   -1    0    0  501  502  0.00000000000E+00  0.00000000000E+00  0.13976432708E+03  0.13976432708E+03  0.00000000000E+00 0.  1.
         13   -1    0    0    0    0 -0.00000000000E+00 -0.00000000000E+00 -0.10000000000E+04  0.10000000000E+04  0.00000000000E+00 0.  1.
    9000005    2    1    2  501    0 -0.51242696071E+02 -0.63999581141E+02 -0.79398892175E+03  0.10343584813E+04  0.65784291413E+03 0.  0.
         13    1    3    3    0    0 -0.32188531868E+03 -0.39717423739E+02 -0.65097031223E+03  0.72728947438E+03  0.00000000000E+00 0.  1.
          1    1    3    3  501    0  0.27064262261E+03 -0.24282157402E+02 -0.14301860952E+03  0.30706900692E+03  0.00000000000E+00 0.  1.
         -1    1    1    2    0  502  0.51242696071E+02  0.63999581141E+02 -0.66246751161E+02  0.10540584579E+03  0.00000000000E+00 0. -1.
<mgrwt>
<rscale>  1 0.66293217E+03</rscale>
<asrwt>0</asrwt>
<pdfrwt beam="1">  1       21 0.21502204E-01 0.66293217E+03</pdfrwt>
<pdfrwt beam="2">0</pdfrwt>
<totfact> 0.19512297E+03</totfact>
</mgrwt>
</event>
<event>
 6    1  0.1386179E-004  0.6319361E+03  0.7818608E-02  0.9841278E-01
         21   -1    0    0  501  502  0.00000000000E+00  0.00000000000E+00  0.11706398551E+03  0.11706398551E+03  0.00000000000E+00 0.  1.
         13   -1    0    0    0    0 -0.00000000000E+00 -0.00000000000E+00 -0.10000000000E+04  0.10000000000E+04  0.00000000000E+00 0.  1.
    9000005    2    1    2  501    0  0.46323372559E+02 -0.16473263105E+02 -0.84392443452E+03  0.10543015237E+04  0.63002065715E+03 0.  0.
         13    1    3    3    0    0  0.10575693860E+03 -0.20437927076E+03 -0.82479319811E+03  0.85629389583E+03  0.00000000000E+00 0.  1.
          1    1    3    3  501    0 -0.59433566040E+02  0.18790600766E+03 -0.19131236404E+02  0.19800762786E+03  0.00000000000E+00 0.  1.
         -1    1    1    2    0  502 -0.46323372559E+02  0.16473263105E+02 -0.39011579969E+02  0.62762461824E+02  0.00000000000E+00 0. -1.
<mgrwt>
<rscale>  1 0.63193611E+03</rscale>
<asrwt>0</asrwt>
<pdfrwt beam="1">  1       21 0.18009843E-01 0.63193611E+03</pdfrwt>
<pdfrwt beam="2">0</pdfrwt>
<totfact> 0.27426802E+03</totfact>
</mgrwt>
</event>
<event>
 6    1  0.1386179E-004  0.6574944E+03  0.7818608E-02  0.9792817E-01
         21   -1    0    0  501  502  0.00000000000E+00  0.00000000000E+00  0.14947153468E+03  0.14947153468E+03  0.00000000000E+00 0.  1.
         13   -1    0    0    0    0 -0.00000000000E+00 -0.00000000000E+00 -0.10000000000E+04  0.10000000000E+04  0.00000000000E+00 0.  1.
    9000005    2    1    2  501    0  0.90036483142E+01  0.65519865840E+02 -0.86012627083E+03  0.10826431248E+04  0.65415977812E+03 0.  0.
         13    1    3    3    0    0 -0.97607061060E+02  0.27782316528E+03 -0.14332287275E+03  0.32749701585E+03  0.00000000000E+00 0.  1.
          1    1    3    3  501    0  0.10661070937E+03 -0.21230329944E+03 -0.71680339808E+03  0.75514610891E+03  0.00000000000E+00 0.  1.
         -3    1    1    2    0  502 -0.90036483142E+01 -0.65519865840E+02  0.95978055163E+01  0.66828409927E+02  0.00000000000E+00 0. -1.
<mgrwt>
<rscale>  1 0.65749444E+03</rscale>
<asrwt>0</asrwt>
<pdfrwt beam="1">  1       21 0.22995620E-01 0.65749444E+03</pdfrwt>
<pdfrwt beam="2">0</pdfrwt>
<totfact> 0.17135736E+03</totfact>
</mgrwt>
</event>
<event>
 6    1  0.1386179E-004  0.6441795E+03  0.7818608E-02  0.9817763E-01
         21   -1    0    0  501  502  0.00000000000E+00  0.00000000000E+00  0.18452055072E+03  0.18452055072E+03  0.00000000000E+00 0.  1.
         13   -1    0    0    0    0 -0.00000000000E+00 -0.00000000000E+00 -0.10000000000E+04  0.10000000000E+04  0.00000000000E+00 0.  1.
    9000005    2    1    2  501    0 -0.72979779534E+02  0.47057886106E+02 -0.86959484278E+03  0.10822025724E+04  0.63829987024E+03 0.  0.
         13    1    3    3    0    0  0.90068860951E+02  0.31303667208E+03 -0.36753485657E+03  0.49110714572E+03  0.00000000000E+00 0.  1.
          3    1    3    3  501    0 -0.16304864049E+03 -0.26597878597E+03 -0.50205998620E+03  0.59109542673E+03  0.00000000000E+00 0.  1.
         -3    1    1    2    0  502  0.72979779534E+02 -0.47057886106E+02  0.54115393499E+02  0.10231797828E+03  0.00000000000E+00 0. -1.
<mgrwt>
<rscale>  1 0.64417949E+03</rscale>
<asrwt>0</asrwt>
<pdfrwt beam="1">  1       21 0.28387776E-01 0.64417949E+03</pdfrwt>
<pdfrwt beam="2">0</pdfrwt>
<totfact> 0.11334535E+03</totfact>
</mgrwt>
</event>
<event>
 6    1  0.1386179E-004  0.7152219E+03  0.7818608E-02  0.9691549E-01
         21   -1    0    0  501  502  0.00000000000E+00  0.00000000000E+00  0.17783127475E+03  0.17783127475E+03  0.00000000000E+00 0.  1.
         13   -1    0    0    0    0 -0.00000000000E+00 -0.00000000000E+00 -0.10000000000E+04  0.10000000000E+04  0.00000000000E+00 0.  1.
    9000005    2    1    2  501    0  0.93713150194E+02 -0.67523700895E+02 -0.77051447912E+03  0.10513015713E+04  0.70583342699E+03 0.  0.
         13    1    3    3    0    0  0.24482708386E+03  0.24916080053E+03 -0.49157018955E+03  0.60304448987E+03  0.00000000000E+00 0.  1.
          1    1    3    3  501    0 -0.15111393367E+03 -0.31668450143E+03 -0.27894428958E+03  0.44825708146E+03  0.00000000000E+00 0.  1.
         -3    1    1    2    0  502 -0.93713150194E+02  0.67523700895E+02 -0.51654246129E+02  0.12652970341E+03  0.00000000000E+00 0. -1.
<mgrwt>
<rscale>  1 0.71522195E+03</rscale>
<asrwt>0</asrwt>
<pdfrwt beam="1">  1       21 0.27358657E-01 0.71522195E+03</pdfrwt>
<pdfrwt beam="2">0</pdfrwt>
<totfact> 0.12148885E+03</totfact>
</mgrwt>
</event>
<event>
 6    1  0.1386179E-004  0.6445365E+03  0.7818608E-02  0.9817085E-01
         21   -1    0    0  501  502  0.00000000000E+00  0.00000000000E+00  0.19388158390E+03  0.19388158390E+03  0.00000000000E+00 0.  1.
         13   -1    0    0    0    0 -0.00000000000E+00 -0.00000000000E+00 -0.10000000000E+04  0.10000000000E+04  0.00000000000E+00 0.  1.
    9000005    2    1    2  501    0 -0.73268617571E+01  0.52495737583E+02 -0.88744484474E+03  0.10968070076E+04  0.64235330940E+03 0.  0.
         13    1    3    3    0    0  0.19851885310E+03  0.26698954204E+03 -0.35189194994E+03  0.48427378107E+03  0.00000000000E+00 0.  1.
          1    1    3    3  501    0 -0.20584571486E+03 -0.21449380446E+03 -0.53555289480E+03  0.61253322654E+03  0.00000000000E+00 0.  1.
         -3    1    1    2    0  502  0.73268617571E+01 -0.52495737583E+02  0.81326428646E+02  0.97074576301E+02  0.00000000000E+00 0. -1.
<mgrwt>
<rscale>  1 0.64453647E+03</rscale>
<asrwt>0</asrwt>
<pdfrwt beam="1">  1       21 0.29827935E-01 0.64453647E+03</pdfrwt>
<pdfrwt beam="2">0</pdfrwt>
<totfact> 0.10268962E+03</totfact>
</mgrwt>
</event>
<event>
 6    1  0.1386179E-004  0.6513505E+03  0.7818608E-02  0.9804248E-01
         21   -1    0    0  501  502  0.00000000000E+00  0.00000000000E+00  0.13022390928E+03  0.13022390928E+03  0.00000000000E+00 0.  1.
         13   -1    0    0    0    0 -0.00000000000E+00 -0.00000000000E+00 -0.10000000000E+04  0.10000000000E+04  0.00000000000E+00 0.  1.
    9000005    2    1    2  501    0 -0.14133743146E+02 -0.27980379744E+02 -0.88211717526E+03  0.10965346422E+04  0.65059576265E+03 0.  0.
         13    1    3    3    0    0  0.11468280255E+03 -0.17913255139E+03 -0.87212420517E+03  0.89768660757E+03  0.00000000000E+00 0.  1.
          1    1    3    3  501    0 -0.12881654570E+03  0.15115217165E+03 -0.99929700943E+01  0.19884803467E+03  0.00000000000E+00 0.  1.
         -3    1    1    2    0  502  0.14133743146E+02  0.27980379744E+02  0.12341084542E+02  0.33689267039E+02  0.00000000000E+00 0. -1.
<mgrwt>
<rscale>  1 0.65135053E+03</rscale>
<asrwt>0</asrwt>
<pdfrwt beam="1">  1       21 0.20034447E-01 0.65135053E+03</pdfrwt>
<pdfrwt beam="2">0</pdfrwt>
<totfact> 0.22367399E+03</totfact>
</mgrwt>
</event>
<event>
 6    1  0.1386179E-004  0.6405678E+03  0.7818608E-02  0.9824641E-01
         21   -1    0    0  501  502  0.00000000000E+00  0.00000000000E+00  0.14242394348E+03  0.14242394348E+03  0.00000000000E+00 0.  1.
         13   -1    0    0    0    0 -0.00000000000E+00 -0.00000000000E+00 -0.10000000000E+04  0.10000000000E+04  0.00000000000E+00 0.  1.
    9000005    2    1    2  501    0  0.86350752102E+02 -0.70002215926E+01 -0.83590381449E+03  0.10531202954E+04  0.63468237250E+03 0.  0.
         13    1    3    3    0    0 -0.31748840534E+02  0.48334986945E+02  0.96033547119E+02  0.11210130245E+03  0.00000000000E+00 0.  1.
          1    1    3    3  501    0  0.11809959264E+03 -0.55335208538E+02 -0.93193736160E+03  0.94101899292E+03  0.00000000000E+00 0.  1.
         -1    1    1    2    0  502 -0.86350752102E+02  0.70002215926E+01 -0.21672242036E+02  0.89303648110E+02  0.00000000000E+00 0. -1.
<mgrwt>
<rscale>  1 0.64056785E+03</rscale>
<asrwt>0</asrwt>
<pdfrwt beam="1">  1       21 0.21911375E-01 0.64056785E+03</pdfrwt>
<pdfrwt beam="2">0</pdfrwt>
<totfact> 0.18832621E+03</totfact>
</mgrwt>
</event>
<event>
 6    1  0.1386179E-004  0.6712930E+03  0.7818608E-02  0.9767625E-01
         21   -1    0    0  501  502  0.00000000000E+00  0.00000000000E+00  0.18157610657E+03  0.18157610657E+03  0.00000000000E+00 0.  1.
         13   -1    0    0    0    0 -0.00000000000E+00 -0.00000000000E+00 -0.10000000000E+04  0.10000000000E+04  0.00000000000E+00 0.  1.
    9000005    2    1    2  501    0 -0.11154740090E+03  0.13566140897E+03 -0.69928832315E+03  0.96934951860E+03  0.64791009391E+03 0.  0.
         13    1    3    3    0    0 -0.41469346442E+02  0.17128279501E+02 -0.79841949784E+03  0.79967917265E+03  0.00000000000E+00 0.  1.
          1    1    3    3  501    0 -0.70078054454E+02  0.11853312947E+03  0.99131174690E+02  0.16967034595E+03  0.00000000000E+00 0.  1.
         -3    1    1    2    0  502  0.11154740090E+03 -0.13566140897E+03 -0.11913557029E+03  0.21222658796E+03  0.00000000000E+00 0. -1.
<mgrwt>
<rscale>  1 0.67129303E+03</rscale>
<asrwt>0</asrwt>
<pdfrwt beam="1">  1       21 0.27934785E-01 0.67129303E+03</pdfrwt>
<pdfrwt beam="2">0</pdfrwt>
<totfact> 0.11684319E+03</totfact>
</mgrwt>
</event>
<event>
 6    1  0.1386179E-004  0.6410074E+03  0.7818608E-02  0.9823801E-01
         21   -1    0    0  501  502  0.00000000000E+00  0.00000000000E+00  0.13352313634E+03  0.13352313634E+03  0.00000000000E+00 0.  1.
         13   -1    0    0    0    0 -0.00000000000E+00 -0.00000000000E+00 -0.10000000000E+04  0.10000000000E+04  0.00000000000E+00 0.  1.
    9000005    2    1    2  501    0  0.20593692820E+02 -0.31922910129E+02 -0.88378892554E+03  0.10917753237E+04  0.63988070773E+03 0.  0.
         13    1    3    3    0    0 -0.21435939041E+03  0.20406969676E+03 -0.52193962846E+03  0.60001280415E+03  0.00000000000E+00 0.  1.
          1    1    3    3  501    0  0.23495308323E+03 -0.23599260689E+03 -0.36184929708E+03  0.49176251953E+03  0.00000000000E+00 0.  1.
         -1    1    1    2    0  502 -0.20593692820E+02  0.31922910129E+02  0.17312061881E+02  0.41747812656E+02  0.00000000000E+00 0. -1.
<mgrwt>
<rscale>  1 0.64100740E+03</rscale>
<asrwt>0</asrwt>
<pdfrwt beam="1">  1       21 0.20542020E-01 0.64100740E+03</pdfrwt>
<pdfrwt beam="2">0</pdfrwt>
<totfact> 0.21327223E+03</totfact>
</mgrwt>
</event>
<event>
 6    1  0.1386179E-004  0.7014188E+03  0.7818608E-02  0.9714809E-01
         21   -1    0    0  501  502  0.00000000000E+00  0.00000000000E+00  0.19163503278E+03  0.19163503278E+03  0.00000000000E+00 0.  1.
         13   -1    0    0    0    0 -0.00000000000E+00 -0.00000000000E+00 -0.10000000000E+04  0.10000000000E+04  0.00000000000E+00 0.  1.
    9000005    2    1    2  501    0 -0.28081581696E+02 -0.23191857613E+01 -0.87373731183E+03  0.11204486767E+04  0.70085261872E+03 0.  0.
         13    1    3    3    0    0  0.21367580901E+03  0.21425176033E+03 -0.17388709694E+03  0.34899554530E+03  0.00000000000E+00 0.  1.
          1    1    3    3  501    0 -0.24175739070E+03 -0.21657094609E+03 -0.69985021489E+03  0.77145313139E+03  0.00000000000E+00 0.  1.
         -1    1    1    2    0  502  0.28081581696E+02  0.23191857613E+01  0.65372344607E+02  0.71186356084E+02  0.00000000000E+00 0. -1.
<mgrwt>
<rscale>  1 0.70141881E+03</rscale>
<asrwt>0</asrwt>
<pdfrwt beam="1">  1       21 0.29482312E-01 0.70141881E+03</pdfrwt>
<pdfrwt beam="2">0</pdfrwt>
<totfact> 0.10475254E+03</totfact>
</mgrwt>
</event>
<event>
 6    1  0.1386179E-004  0.6681764E+03  0.7818608E-02  0.9773258E-01
         21   -1    0    0  501  502  0.00000000000E+00  0.00000000000E+00  0.16614549183E+03  0.16614549183E+03  0.00000000000E+00 0.  1.
         13   -1    0    0    0    0 -0.00000000000E+00 -0.00000000000E+00 -0.10000000000E+04  0.10000000000E+04  0.00000000000E+00 0.  1.
    9000005    2    1    2  501    0  0.13584843081E+03 -0.56116553837E+02 -0.68890475648E+03  0.95971319232E+03  0.65180962271E+03 0.  0.
         13    1    3    3    0    0  0.27738584793E+03 -0.15779639724E+03 -0.83707918224E+02  0.32992366873E+03  0.00000000000E+00 0.  1.
          1    1    3    3  501    0 -0.14153741712E+03  0.10167984340E+03 -0.60519683825E+03  0.62978952360E+03  0.00000000000E+00 0.  1.
         -1    1    1    2    0  502 -0.13584843081E+03  0.56116553837E+02 -0.14494975169E+03  0.20643229951E+03  0.00000000000E+00 0. -1.
<mgrwt>
<rscale>  1 0.66817636E+03</rscale>
<asrwt>0</asrwt>
<pdfrwt beam="1">  1       21 0.25560844E-01 0.66817636E+03</pdfrwt>
<pdfrwt beam="2">0</pdfrwt>
<totfact> 0.13927980E+03</totfact>
</mgrwt>
</event>
<event>
 6    1  0.1386179E-004  0.6622179E+03  0.7818608E-02  0.9784119E-01
         21   -1    0    0  501  502  0.00000000000E+00  0.00000000000E+00  0.15249470081E+03  0.15249470081E+03  0.00000000000E+00 0.  1.
         13   -1    0    0    0    0 -0.00000000000E+00 -0.00000000000E+00 -0.10000000000E+04  0.10000000000E+04  0.00000000000E+00 0.  1.
    9000005    2    1    2  501    0 -0.76808096155E+02  0.43450163874E+02 -0.83121691622E+03  0.10627577976E+04  0.65631179648E+03 0.  0.
         13    1    3    3    0    0  0.27170342984E+03 -0.28745399218E+02 -0.20173721236E+03  0.33962767056E+03  0.00000000000E+00 0.  1.
          1    1    3    3  501    0 -0.34851152599E+03  0.72195563092E+02 -0.62947970386E+03  0.72313012705E+03  0.00000000000E+00 0.  1.
         -3    1    1    2    0  502  0.76808096155E+02 -0.43450163874E+02 -0.16288382973E+02  0.89736903198E+02  0.00000000000E+00 0. -1.
<mgrwt>
<rscale>  1 0.66221792E+03</rscale>
<asrwt>0</asrwt>
<pdfrwt beam="1">  1       21 0.23460723E-01 0.66221792E+03</pdfrwt>
<pdfrwt beam="2">0</pdfrwt>
<totfact> 0.16477139E+03</totfact>
</mgrwt>
</event>
<event>
 6    1  0.1386179E-004  0.6756300E+03  0.7818608E-02  0.9759840E-01
         21   -1    0    0  501  502  0.00000000000E+00  0.00000000000E+00  0.81525022698E+03  0.81525022698E+03  0.00000000000E+00 0. -1.
         13   -1    0    0    0    0 -0.00000000000E+00 -0.00000000000E+00 -0.10000000000E+04  0.10000000000E+04  0.00000000000E+00 0.  1.
    9000005    2    1    2  501    0  0.11497515242E+03 -0.42684221891E+02 -0.87989720752E+03  0.11093669617E+04  0.66440554747E+03 0.  0.
         13    1    3    3    0    0 -0.17412527145E+03  0.13145441186E+03 -0.68661354513E+03  0.72044294217E+03  0.00000000000E+00 0.  1.
          3    1    3    3  501    0  0.28910042387E+03 -0.17413863375E+03 -0.19328366238E+03  0.38892401956E+03  0.00000000000E+00 0.  1.
         -3    1    1    2    0  502 -0.11497515242E+03  0.42684221891E+02  0.69514743450E+03  0.70588326525E+03  0.00000000000E+00 0. -1.
<mgrwt>
<rscale>  1 0.67563005E+03</rscale>
<asrwt>0</asrwt>
<pdfrwt beam="1">  1       21 0.12542311E+00 0.67563005E+03</pdfrwt>
<pdfrwt beam="2">0</pdfrwt>
<totfact> 0.40782932E+01</totfact>
</mgrwt>
</event>
<event>
 6    1  0.1386179E-004  0.6312882E+03  0.7818608E-02  0.9842538E-01
         21   -1    0    0  501  502  0.00000000000E+00  0.00000000000E+00  0.12638402991E+03  0.12638402991E+03  0.00000000000E+00 0.  1.
         13   -1    0    0    0    0 -0.00000000000E+00 -0.00000000000E+00 -0.10000000000E+04  0.10000000000E+04  0.00000000000E+00 0.  1.
    9000005    2    1    2  501    0 -0.51850535532E+02 -0.60377831821E+02 -0.76872425030E+03  0.99471689851E+03  0.62625136692E+03 0.  0.
         13    1    3    3    0    0  0.20351777913E+03  0.14989120978E+03 -0.52870647840E+03  0.58601826037E+03  0.00000000000E+00 0.  1.
          1    1    3    3  501    0 -0.25536831466E+03 -0.21026904160E+03 -0.24001777191E+03  0.40869863814E+03  0.00000000000E+00 0.  1.
         -1    1    1    2    0  502  0.51850535532E+02  0.60377831821E+02 -0.10489171979E+03  0.13166713140E+03  0.00000000000E+00 0. -1.
<mgrwt>
<rscale>  1 0.63128816E+03</rscale>
<asrwt>0</asrwt>
<pdfrwt beam="1">  1       21 0.19443696E-01 0.63128816E+03</pdfrwt>
<pdfrwt beam="2">0</pdfrwt>
<totfact> 0.23705196E+03</totfact>
</mgrwt>
</event>
<event>
 6    1  0.1386179E-004  0.6359628E+03  0.7818608E-02  0.9833481E-01
         21   -1    0    0  501  502  0.00000000000E+00  0.00000000000E+00  0.13135879973E+03  0.13135879973E+03  0.00000000000E+00 0.  1.
         13   -1    0    0    0    0 -0.00000000000E+00 -0.00000000000E+00 -0.10000000000E+04  0.10000000000E+04  0.00000000000E+00 0.  1.
    9000005    2    1    2  501    0  0.20146035274E+02  0.39360843823E+01 -0.89500587186E+03  0.10979454580E+04  0.63563146758E+03 0.  0.
         13    1    3    3    0    0  0.19388229489E+03 -0.18526252547E+03 -0.76380305403E+03  0.80951074913E+03  0.00000000000E+00 0.  1.
          3    1    3    3  501    0 -0.17373625961E+03  0.18919860985E+03 -0.13120281783E+03  0.28843470887E+03  0.00000000000E+00 0.  1.
         -1    1    1    2    0  502 -0.20146035274E+02 -0.39360843823E+01  0.26364671597E+02  0.33413341736E+02  0.00000000000E+00 0. -1.
<mgrwt>
<rscale>  1 0.63596283E+03</rscale>
<asrwt>0</asrwt>
<pdfrwt beam="1">  1       21 0.20209046E-01 0.63596283E+03</pdfrwt>
<pdfrwt beam="2">0</pdfrwt>
<totfact> 0.22011680E+03</totfact>
</mgrwt>
</event>
<event>
 6    1  0.1386179E-004  0.6540494E+03  0.7818608E-02  0.9799210E-01
         21   -1    0    0  501  502  0.00000000000E+00  0.00000000000E+00  0.28040683146E+03  0.28040683146E+03  0.00000000000E+00 0. -1.
         13   -1    0    0    0    0 -0.00000000000E+00 -0.00000000000E+00 -0.10000000000E+04  0.10000000000E+04  0.00000000000E+00 0.  1.
    9000005    2    1    2  501    0 -0.17278116172E+02 -0.20760013806E+02 -0.89189013911E+03  0.11060056917E+04  0.65349143715E+03 0.  0.
         13    1    3    3    0    0 -0.29671005768E+03  0.77205402078E+02 -0.23776627169E+03  0.38798238670E+03  0.00000000000E+00 0.  1.
          3    1    3    3  501    0  0.27943194151E+03 -0.97965415883E+02 -0.65412386741E+03  0.71802330503E+03  0.00000000000E+00 0.  1.
         -1    1    1    2    0  502  0.17278116172E+02  0.20760013806E+02  0.17229697057E+03  0.17440113973E+03  0.00000000000E+00 0. -1.
<mgrwt>
<rscale>  1 0.65404936E+03</rscale>
<asrwt>0</asrwt>
<pdfrwt beam="1">  1       21 0.43139511E-01 0.65404936E+03</pdfrwt>
<pdfrwt beam="2">0</pdfrwt>
<totfact> 0.48217915E+02</totfact>
</mgrwt>
</event>
<event>
 6    1  0.1386179E-004  0.6372674E+03  0.7818608E-02  0.9830969E-01
         21   -1    0    0  501  502  0.00000000000E+00  0.00000000000E+00  0.14626393836E+03  0.14626393836E+03  0.00000000000E+00 0.  1.
         13   -1    0    0    0    0 -0.00000000000E+00 -0.00000000000E+00 -0.10000000000E+04  0.10000000000E+04  0.00000000000E+00 0.  1.
    9000005    2    1    2  501    0  0.33289208621E+02 -0.11276349398E+02 -0.89073936989E+03  0.10952289279E+04  0.63629745565E+03 0.  0.
         13    1    3    3    0    0  0.25462589245E+03 -0.13663222933E+03 -0.18024970361E+03  0.34057696172E+03  0.00000000000E+00 0.  1.
          3    1    3    3  501    0 -0.22133668383E+03  0.12535587994E+03 -0.71048966628E+03  0.75465196623E+03  0.00000000000E+00 0.  1.
         -1    1    1    2    0  502 -0.33289208621E+02  0.11276349398E+02  0.37003308252E+02  0.51035010414E+02  0.00000000000E+00 0. -1.
<mgrwt>
<rscale>  1 0.63726743E+03</rscale>
<asrwt>0</asrwt>
<pdfrwt beam="1">  1       21 0.22502144E-01 0.63726743E+03</pdfrwt>
<pdfrwt beam="2">0</pdfrwt>
<totfact> 0.17889743E+03</totfact>
</mgrwt>
</event>
<event>
 6    1  0.1386179E-004  0.6525890E+03  0.7818608E-02  0.9801933E-01
         21   -1    0    0  501  502  0.00000000000E+00  0.00000000000E+00  0.44068163490E+03  0.44068163490E+03  0.00000000000E+00 0. -1.
         13   -1    0    0    0    0 -0.00000000000E+00 -0.00000000000E+00 -0.10000000000E+04  0.10000000000E+04  0.00000000000E+00 0.  1.
    9000005    2    1    2  501    0 -0.10670212092E+03  0.14188915942E+02 -0.88390702756E+03  0.10987101920E+04  0.64365035909E+03 0.  0.
         13    1    3    3    0    0 -0.26194680118E+03 -0.16798479177E+03 -0.77617813573E+03  0.83623412709E+03  0.00000000000E+00 0.  1.
          1    1    3    3  501    0  0.15524468027E+03  0.18217370771E+03 -0.10772889182E+03  0.26247606494E+03  0.00000000000E+00 0.  1.
         -1    1    1    2    0  502  0.10670212092E+03 -0.14188915942E+02  0.32458866246E+03  0.34197144287E+03  0.00000000000E+00 0. -1.
<mgrwt>
<rscale>  1 0.65258904E+03</rscale>
<asrwt>0</asrwt>
<pdfrwt beam="1">  1       21 0.67797173E-01 0.65258904E+03</pdfrwt>
<pdfrwt beam="2">0</pdfrwt>
<totfact> 0.18053226E+02</totfact>
</mgrwt>
</event>
<event>
 6    1  0.1386179E-004  0.6419712E+03  0.7818608E-02  0.9821962E-01
         21   -1    0    0  501  502  0.00000000000E+00  0.00000000000E+00  0.12896644996E+03  0.12896644996E+03  0.00000000000E+00 0.  1.
         13   -1    0    0    0    0 -0.00000000000E+00 -0.00000000000E+00 -0.10000000000E+04  0.10000000000E+04  0.00000000000E+00 0.  1.
    9000005    2    1    2  501    0  0.50661164638E+02  0.52639241614E+02 -0.81148088669E+03  0.10347116725E+04  0.63780057417E+03 0.  0.
         13    1    3    3    0    0  0.55691768210E+02  0.31658587729E+03 -0.22742704265E+03  0.39376547648E+03  0.00000000000E+00 0.  1.
          1    1    3    3  501    0 -0.50306035711E+01 -0.26394663567E+03 -0.58405384405E+03  0.64094619603E+03  0.00000000000E+00 0.  1.
         -1    1    1    2    0  502 -0.50661164638E+02 -0.52639241614E+02 -0.59552663345E+02  0.94254777448E+02  0.00000000000E+00 0. -1.
<mgrwt>
<rscale>  1 0.64197120E+03</rscale>
<asrwt>0</asrwt>
<pdfrwt beam="1">  1       21 0.19840992E-01 0.64197120E+03</pdfrwt>
<pdfrwt beam="2">0</pdfrwt>
<totfact> 0.22795694E+03</totfact>
</mgrwt>
</event>
<event>
 6    1  0.1386179E-004  0.6583993E+03  0.7818608E-02  0.9791145E-01
         21   -1    0    0  501  502  0.00000000000E+00  0.00000000000E+00  0.16213830291E+03  0.16213830291E+03  0.00000000000E+00 0.  1.
         13   -1    0    0    0    0 -0.00000000000E+00 -0.00000000000E+00 -0.10000000000E+04  0.10000000000E+04  0.00000000000E+00 0.  1.
    9000005    2    1    2  501    0  0.19233472220E+02  0.11985876342E+03 -0.79760476548E+03  0.10342451046E+04  0.64711167887E+03 0.  0.
         13    1    3    3    0    0  0.84724652841E+02 -0.10152689291E+03 -0.79235766792E+03  0.80331603414E+03  0.00000000000E+00 0.  1.
          1    1    3    3  501    0 -0.65491180622E+02  0.22138565633E+03 -0.52470975587E+01  0.23092907050E+03  0.00000000000E+00 0.  1.
         -1    1    1    2    0  502 -0.19233472220E+02 -0.11985876342E+03 -0.40256931604E+02  0.12789319828E+03  0.00000000000E+00 0. -1.
<mgrwt>
<rscale>  1 0.65839925E+03</rscale>
<asrwt>0</asrwt>
<pdfrwt beam="1">  1       21 0.24944354E-01 0.65839925E+03</pdfrwt>
<pdfrwt beam="2">0</pdfrwt>
<totfact> 0.14619125E+03</totfact>
</mgrwt>
</event>
<event>
 6    1  0.1386179E-004  0.6488124E+03  0.7818608E-02  0.9809010E-01
         21   -1    0    0  501  502  0.00000000000E+00  0.00000000000E+00  0.22517962442E+03  0.22517962442E+03  0.00000000000E+00 0. -1.
         13   -1    0    0    0    0 -0.00000000000E+00 -0.00000000000E+00 -0.10000000000E+04  0.10000000000E+04  0.00000000000E+00 0.  1.
    9000005    2    1    2  501    0 -0.43470182015E+01  0.74916753053E+02 -0.88163427052E+03  0.10946398810E+04  0.64445796271E+03 0.  0.
         13    1    3    3    0    0  0.27727900628E+02 -0.14484038093E+03 -0.85881573853E+03  0.87138513022E+03  0.00000000000E+00 0.  1.
          3    1    3    3  501    0 -0.32074918830E+02  0.21975713398E+03 -0.22818531992E+02  0.22325475080E+03  0.00000000000E+00 0.  1.
         -1    1    1    2    0  502  0.43470182015E+01 -0.74916753053E+02  0.10681389493E+03  0.13053974340E+03  0.00000000000E+00 0. -1.
<mgrwt>
<rscale>  1 0.64881236E+03</rscale>
<asrwt>0</asrwt>
<pdfrwt beam="1">  1       21 0.34643018E-01 0.64881236E+03</pdfrwt>
<pdfrwt beam="2">0</pdfrwt>
<totfact> 0.75899999E+02</totfact>
</mgrwt>
</event>
<event>
 6    1  0.1386179E-004  0.6496628E+03  0.7818608E-02  0.9807412E-01
         21   -1    0    0  501  502  0.00000000000E+00  0.00000000000E+00  0.21049565836E+03  0.21049565836E+03  0.00000000000E+00 0.  1.
         13   -1    0    0    0    0 -0.00000000000E+00 -0.00000000000E+00 -0.10000000000E+04  0.10000000000E+04  0.00000000000E+00 0.  1.
    9000005    2    1    2  501    0  0.62258462574E+01  0.28143673455E+02 -0.89229248297E+03  0.11037425342E+04  0.64902301897E+03 0.  0.
         13    1    3    3    0    0 -0.30755696158E+03  0.10747186714E+03 -0.43344883767E+03  0.54223554081E+03  0.00000000000E+00 0.  1.
          1    1    3    3  501    0  0.31378280784E+03 -0.79328193688E+02 -0.45884364530E+03  0.56150699340E+03  0.00000000000E+00 0.  1.
         -3    1    1    2    0  502 -0.62258462574E+01 -0.28143673455E+02  0.10278814133E+03  0.10675312415E+03  0.00000000000E+00 0. -1.
<mgrwt>
<rscale>  1 0.64966276E+03</rscale>
<asrwt>0</asrwt>
<pdfrwt beam="1">  1       21 0.32383947E-01 0.64966276E+03</pdfrwt>
<pdfrwt beam="2">0</pdfrwt>
<totfact> 0.87018283E+02</totfact>
</mgrwt>
</event>
<event>
 6    1  0.1386179E-004  0.6542558E+03  0.7818608E-02  0.9798826E-01
         21   -1    0    0  501  502  0.00000000000E+00  0.00000000000E+00  0.49205408866E+03  0.49205408866E+03  0.00000000000E+00 0. -1.
         13   -1    0    0    0    0 -0.00000000000E+00 -0.00000000000E+00 -0.10000000000E+04  0.10000000000E+04  0.00000000000E+00 0.  1.
    9000005    2    1    2  501    0 -0.43675871483E+02 -0.40761487978E+01 -0.89160364557E+03  0.11058967972E+04  0.65278363067E+03 0.  0.
         13    1    3    3    0    0 -0.20737988397E+03 -0.19353250049E+03 -0.78332468313E+03  0.83310191707E+03  0.00000000000E+00 0.  1.
          1    1    3    3  501    0  0.16370401249E+03  0.18945635170E+03 -0.10827896243E+03  0.27279488010E+03  0.00000000000E+00 0.  1.
         -3    1    1    2    0  502  0.43675871483E+02  0.40761487978E+01  0.38365773422E+03  0.38615729149E+03  0.00000000000E+00 0. -1.
<mgrwt>
<rscale>  1 0.65425581E+03</rscale>
<asrwt>0</asrwt>
<pdfrwt beam="1">  1       21 0.75700627E-01 0.65425581E+03</pdfrwt>
<pdfrwt beam="2">0</pdfrwt>
<totfact> 0.14035835E+02</totfact>
</mgrwt>
</event>
<event>
 6    1  0.1386179E-004  0.6719819E+03  0.7818608E-02  0.9766384E-01
         21   -1    0    0  501  502  0.00000000000E+00  0.00000000000E+00  0.29860164253E+03  0.29860164253E+03  0.00000000000E+00 0. -1.
         13   -1    0    0    0    0 -0.00000000000E+00 -0.00000000000E+00 -0.10000000000E+04  0.10000000000E+04  0.00000000000E+00 0.  1.
    9000005    2    1    2  501    0 -0.81161851944E+02 -0.11239781295E+03 -0.85775400328E+03  0.10896336963E+04  0.65752501661E+03 0.  0.
         13    1    3    3    0    0  0.28774970161E+03 -0.92542461072E+02 -0.40142923320E+03  0.50250316133E+03  0.00000000000E+00 0.  1.
          3    1    3    3  501    0 -0.36891155355E+03 -0.19855351875E+02 -0.45632477007E+03  0.58713053499E+03  0.00000000000E+00 0.  1.
         -3    1    1    2    0  502  0.81161851944E+02  0.11239781295E+03  0.15635564580E+03  0.20896794620E+03  0.00000000000E+00 0. -1.
<mgrwt>
<rscale>  1 0.67198189E+03</rscale>
<asrwt>0</asrwt>
<pdfrwt beam="1">  1       21 0.45938713E-01 0.67198189E+03</pdfrwt>
<pdfrwt beam="2">0</pdfrwt>
<totfact> 0.42165966E+02</totfact>
</mgrwt>
</event>
<event>
 6    1  0.1386179E-004  0.6285482E+03  0.7818608E-02  0.9847886E-01
         21   -1    0    0  501  502  0.00000000000E+00  0.00000000000E+00  0.30208438326E+03  0.30208438326E+03  0.00000000000E+00 0. -1.
         13   -1    0    0    0    0 -0.00000000000E+00 -0.00000000000E+00 -0.10000000000E+04  0.10000000000E+04  0.00000000000E+00 0.  1.
    9000005    2    1    2  501    0 -0.24174138174E+02 -0.12046034103E+02 -0.90024569747E+03  0.10979595257E+04  0.62796760143E+03 0.  0.
         13    1    3    3    0    0  0.27425079936E+03  0.12268529503E+02 -0.65748825781E+03  0.71249900135E+03  0.00000000000E+00 0.  1.
          3    1    3    3  501    0 -0.29842493754E+03 -0.24314563606E+02 -0.24275743966E+03  0.38546052438E+03  0.00000000000E+00 0.  1.
         -1    1    1    2    0  502  0.24174138174E+02  0.12046034103E+02  0.20233008073E+03  0.20412485753E+03  0.00000000000E+00 0. -1.
<mgrwt>
<rscale>  1 0.62854817E+03</rscale>
<asrwt>0</asrwt>
<pdfrwt beam="1">  1       21 0.46474519E-01 0.62854817E+03</pdfrwt>
<pdfrwt beam="2">0</pdfrwt>
<totfact> 0.41304083E+02</totfact>
</mgrwt>
</event>
<event>
 6    1  0.1386179E-004  0.7294940E+03  0.7818608E-02  0.9668082E-01
         21   -1    0    0  501  502  0.00000000000E+00  0.00000000000E+00  0.26363895723E+03  0.26363895723E+03  0.00000000000E+00 0. -1.
         13   -1    0    0    0    0 -0.00000000000E+00 -0.00000000000E+00 -0.10000000000E+04  0.10000000000E+04  0.00000000000E+00 0.  1.
    9000005    2    1    2  501    0  0.64304307579E+02  0.28849540711E+03 -0.48914779002E+03  0.87830918127E+03  0.66693089112E+03 0.  0.
         13    1    3    3    0    0 -0.23376940083E+03  0.34048189263E+03 -0.19651955355E+03  0.45737947801E+03  0.00000000000E+00 0.  1.
          3    1    3    3  501    0  0.29807370841E+03 -0.51986485515E+02 -0.29262823646E+03  0.42092970327E+03  0.00000000000E+00 0.  1.
         -1    1    1    2    0  502 -0.64304307579E+02 -0.28849540711E+03 -0.24721325275E+03  0.38532977595E+03  0.00000000000E+00 0. -1.
<mgrwt>
<rscale>  1 0.72949397E+03</rscale>
<asrwt>0</asrwt>
<pdfrwt beam="1">  1       21 0.40559838E-01 0.72949397E+03</pdfrwt>
<pdfrwt beam="2">0</pdfrwt>
<totfact> 0.54531642E+02</totfact>
</mgrwt>
</event>
<event>
 6    1  0.1386179E-004  0.6457398E+03  0.7818608E-02  0.9814806E-01
         21   -1    0    0  501  502  0.00000000000E+00  0.00000000000E+00  0.13764031345E+03  0.13764031345E+03  0.00000000000E+00 0.  1.
         13   -1    0    0    0    0 -0.00000000000E+00 -0.00000000000E+00 -0.10000000000E+04  0.10000000000E+04  0.00000000000E+00 0.  1.
    9000005    2    1    2  501    0  0.30034159330E+02  0.85505157460E+01 -0.88749391810E+03  0.10975542605E+04  0.64498429284E+03 0.  0.
         13    1    3    3    0    0  0.24442629440E+03 -0.20669643712E+03 -0.59602025307E+03  0.67654103540E+03  0.00000000000E+00 0.  1.
          1    1    3    3  501    0 -0.21439213507E+03  0.21524695286E+03 -0.29147366503E+03  0.42101322509E+03  0.00000000000E+00 0.  1.
         -1    1    1    2    0  502 -0.30034159330E+02 -0.85505157460E+01  0.25134231550E+02  0.40086052959E+02  0.00000000000E+00 0. -1.
<mgrwt>
<rscale>  1 0.64573981E+03</rscale>
<asrwt>0</asrwt>
<pdfrwt beam="1">  1       21 0.21175432E-01 0.64573981E+03</pdfrwt>
<pdfrwt beam="2">0</pdfrwt>
<totfact> 0.20112249E+03</totfact>
</mgrwt>
</event>
<event>
 6    1  0.1386179E-004  0.6552885E+03  0.7818608E-02  0.9796906E-01
         21   -1    0    0  501  502  0.00000000000E+00  0.00000000000E+00  0.64000573084E+03  0.64000573084E+03  0.00000000000E+00 0.  1.
         13   -1    0    0    0    0 -0.00000000000E+00 -0.00000000000E+00 -0.10000000000E+04  0.10000000000E+04  0.00000000000E+00 0.  1.
    9000005    2    1    2  501    0 -0.10947438053E+02 -0.28874733471E+02 -0.89215357757E+03  0.11069512063E+04  0.65456044065E+03 0.  0.
         13    1    3    3    0    0 -0.31611828851E+03 -0.40629504741E+02 -0.28607104420E+03  0.42827347725E+03  0.00000000000E+00 0.  1.
          1    1    3    3  501    0  0.30517085046E+03  0.11754771271E+02 -0.60608253337E+03  0.67867772902E+03  0.00000000000E+00 0.  1.
         -1    1    1    2    0  502  0.10947438053E+02  0.28874733471E+02  0.53215930841E+03  0.53305452457E+03  0.00000000000E+00 0. -1.
<mgrwt>
<rscale>  1 0.65528846E+03</rscale>
<asrwt>0</asrwt>
<pdfrwt beam="1">  1       21 0.98462417E-01 0.65528846E+03</pdfrwt>
<pdfrwt beam="2">0</pdfrwt>
<totfact> 0.75265452E+01</totfact>
</mgrwt>
</event>
<event>
 6    1  0.1386179E-004  0.6549840E+03  0.7818608E-02  0.9797472E-01
         21   -1    0    0  501  502  0.00000000000E+00  0.00000000000E+00  0.14061884553E+03  0.14061884553E+03  0.00000000000E+00 0.  1.
         13   -1    0    0    0    0 -0.00000000000E+00 -0.00000000000E+00 -0.10000000000E+04  0.10000000000E+04  0.00000000000E+00 0.  1.
    9000005    2    1    2  501    0 -0.47827305916E+02  0.20292010064E+02 -0.86857864506E+03  0.10878570156E+04  0.65292021479E+03 0.  0.
         13    1    3    3    0    0  0.22035074647E+03 -0.19942868576E+03 -0.30262974442E+03  0.42415918519E+03  0.00000000000E+00 0.  1.
          3    1    3    3  501    0 -0.26817805239E+03  0.21972069582E+03 -0.56594890065E+03  0.66369783042E+03  0.00000000000E+00 0.  1.
         -3    1    1    2    0  502  0.47827305916E+02 -0.20292010064E+02  0.91974905939E+01  0.52761829923E+02  0.00000000000E+00 0. -1.
<mgrwt>
<rscale>  1 0.65498399E+03</rscale>
<asrwt>0</asrwt>
<pdfrwt beam="1">  1       21 0.21633668E-01 0.65498399E+03</pdfrwt>
<pdfrwt beam="2">0</pdfrwt>
<totfact> 0.19290449E+03</totfact>
</mgrwt>
</event>
<event>
 6    1  0.1386179E-004  0.6242610E+03  0.7818608E-02  0.9856313E-01
         21   -1    0    0  501  502  0.00000000000E+00  0.00000000000E+00  0.29844208564E+03  0.29844208564E+03  0.00000000000E+00 0. -1.
         13   -1    0    0    0    0 -0.00000000000E+00 -0.00000000000E+00 -0.10000000000E+04  0.10000000000E+04  0.00000000000E+00 0.  1.
    9000005    2    1    2  501    0  0.33164583030E+03 -0.13101710236E+03 -0.70523271005E+03  0.94183594157E+03  0.51239372326E+03 0.  0.
         13    1    3    3    0    0  0.72097574193E+02  0.12246599207E+03 -0.51085106117E+03  0.53024973938E+03  0.00000000000E+00 0.  1.
          3    1    3    3  501    0  0.25954825611E+03 -0.25348309443E+03 -0.19438164888E+03  0.41158620219E+03  0.00000000000E+00 0.  1.
         -3    1    1    2    0  502 -0.33164583030E+03  0.13101710236E+03  0.36747956935E+01  0.35660614407E+03  0.00000000000E+00 0. -1.
<mgrwt>
<rscale>  1 0.62426098E+03</rscale>
<asrwt>0</asrwt>
<pdfrwt beam="1">  1       21 0.45914166E-01 0.62426098E+03</pdfrwt>
<pdfrwt beam="2">0</pdfrwt>
<totfact> 0.42395720E+02</totfact>
</mgrwt>
</event>
<event>
 6    1  0.1386179E-004  0.6727453E+03  0.7818608E-02  0.9765011E-01
         21   -1    0    0  501  502  0.00000000000E+00  0.00000000000E+00  0.25726073050E+03  0.25726073050E+03  0.00000000000E+00 0. -1.
         13   -1    0    0    0    0 -0.00000000000E+00 -0.00000000000E+00 -0.10000000000E+04  0.10000000000E+04  0.00000000000E+00 0.  1.
    9000005    2    1    2  501    0  0.10930693407E+03  0.13983426997E+03 -0.82257424086E+03  0.10626450797E+04  0.64891028250E+03 0.  0.
         13    1    3    3    0    0  0.89627697408E+02 -0.24622805021E+03 -0.47652782183E+03  0.54381995350E+03  0.00000000000E+00 0.  1.
          3    1    3    3  501    0  0.19679236661E+02  0.38606232018E+03 -0.34604641904E+03  0.51882512617E+03  0.00000000000E+00 0.  1.
         -3    1    1    2    0  502 -0.10930693407E+03 -0.13983426997E+03  0.79834971361E+02  0.19461565082E+03  0.00000000000E+00 0. -1.
<mgrwt>
<rscale>  1 0.67274526E+03</rscale>
<asrwt>0</asrwt>
<pdfrwt beam="1">  1       21 0.39578573E-01 0.67274526E+03</pdfrwt>
<pdfrwt beam="2">0</pdfrwt>
<totfact> 0.57627315E+02</totfact>
</mgrwt>
</event>
<event>
 6    1  0.1386179E-004  0.6974854E+03  0.7818608E-02  0.9721542E-01
         21   -1    0    0  501  502  0.00000000000E+00  0.00000000000E+00  0.37585493200E+03  0.37585493200E+03  0.00000000000E+00 0.  1.
         13   -1    0    0    0    0 -0.00000000000E+00 -0.00000000000E+00 -0.10000000000E+04  0.10000000000E+04  0.00000000000E+00 0.  1.
    9000005    2    1    2  501    0 -0.13910767344E+03  0.20992021680E+03 -0.80550669867E+03  0.10655172396E+04  0.65043716385E+03 0.  0.
         13    1    3    3    0    0 -0.40888133538E+02  0.43100892922E+03 -0.63890339477E+03  0.77177592887E+03  0.00000000000E+00 0.  1.
          1    1    3    3  501    0 -0.98219539899E+02 -0.22108871242E+03 -0.16660330389E+03  0.29374131076E+03  0.00000000000E+00 0.  1.
         -1    1    1    2    0  502  0.13910767344E+03 -0.20992021680E+03  0.18136163066E+03  0.31033769237E+03  0.00000000000E+00 0. -1.
<mgrwt>
<rscale>  1 0.69748545E+03</rscale>
<asrwt>0</asrwt>
<pdfrwt beam="1">  1       21 0.57823834E-01 0.69748545E+03</pdfrwt>
<pdfrwt beam="2">0</pdfrwt>
<totfact> 0.25610143E+02</totfact>
</mgrwt>
</event>
<event>
 6    1  0.1386179E-004  0.6483031E+03  0.7818608E-02  0.9809969E-01
         21   -1    0    0  501  502  0.00000000000E+00  0.00000000000E+00  0.18085574809E+03  0.18085574809E+03  0.00000000000E+00 0. -1.
         13   -1    0    0    0    0 -0.00000000000E+00 -0.00000000000E+00 -0.10000000000E+04  0.10000000000E+04  0.00000000000E+00 0.  1.
    9000005    2    1    2  501    0 -0.24357582388E+02 -0.48246550431E+02 -0.88411910726E+03  0.10963409371E+04  0.64604630878E+03 0.  0.
         13    1    3    3    0    0 -0.11956099648E+03  0.62454368178E+02  0.55195594482E+02  0.14574612734E+03  0.00000000000E+00 0.  1.
          3    1    3    3  501    0  0.95203414094E+02 -0.11070091861E+03 -0.93931470174E+03  0.95059480976E+03  0.00000000000E+00 0.  1.
         -3    1    1    2    0  502  0.24357582388E+02  0.48246550431E+02  0.64974855356E+02  0.84514810991E+02  0.00000000000E+00 0. -1.
<mgrwt>
<rscale>  1 0.64830306E+03</rscale>
<asrwt>0</asrwt>
<pdfrwt beam="1">  1       21 0.27823960E-01 0.64830306E+03</pdfrwt>
<pdfrwt beam="2">0</pdfrwt>
<totfact> 0.11792554E+03</totfact>
</mgrwt>
</event>
<event>
 6    1  0.1386179E-004  0.6512576E+03  0.7818608E-02  0.9804422E-01
         21   -1    0    0  501  502  0.00000000000E+00  0.00000000000E+00  0.15798894607E+03  0.15798894607E+03  0.00000000000E+00 0.  1.
         13   -1    0    0    0    0 -0.00000000000E+00 -0.00000000000E+00 -0.10000000000E+04  0.10000000000E+04  0.00000000000E+00 0.  1.
    9000005    2    1    2  501    0 -0.28011758759E+02  0.28882631172E+02 -0.88520076981E+03  0.10989616933E+04  0.65001348868E+03 0.  0.
         13    1    3    3    0    0  0.31074998958E+03  0.52299195849E+00 -0.40000865921E+03  0.50653011459E+03  0.00000000000E+00 0.  1.
          1    1    3    3  501    0 -0.33876174833E+03  0.28359639213E+02 -0.48519211060E+03  0.59243157871E+03  0.00000000000E+00 0.  1.
         -1    1    1    2    0  502  0.28011758759E+02 -0.28882631172E+02  0.43189715874E+02  0.59027252769E+02  0.00000000000E+00 0. -1.
<mgrwt>
<rscale>  1 0.65125755E+03</rscale>
<asrwt>0</asrwt>
<pdfrwt beam="1">  1       21 0.24305991E-01 0.65125755E+03</pdfrwt>
<pdfrwt beam="2">0</pdfrwt>
<totfact> 0.15385711E+03</totfact>
</mgrwt>
</event>
<event>
 6    1  0.1386179E-004  0.6633180E+03  0.7818608E-02  0.9782105E-01
         21   -1    0    0  501  502  0.00000000000E+00  0.00000000000E+00  0.27447789191E+03  0.27447789191E+03  0.00000000000E+00 0. -1.
         13   -1    0    0    0    0 -0.00000000000E+00 -0.00000000000E+00 -0.10000000000E+04  0.10000000000E+04  0.00000000000E+00 0.  1.
    9000005    2    1    2  501    0  0.75296645165E+02  0.10720006238E+03 -0.86043063514E+03  0.10864306935E+04  0.65025328589E+03 0.  0.
         13    1    3    3    0    0 -0.11581403998E+03 -0.17723597678E+03 -0.66847628751E+02  0.22202272134E+03  0.00000000000E+00 0.  1.
          3    1    3    3  501    0  0.19111068514E+03  0.28443603916E+03 -0.79358300639E+03  0.86440797219E+03  0.00000000000E+00 0.  1.
         -1    1    1    2    0  502 -0.75296645165E+02 -0.10720006238E+03  0.13490852706E+03  0.18804719838E+03  0.00000000000E+00 0. -1.
<mgrwt>
<rscale>  1 0.66331800E+03</rscale>
<asrwt>0</asrwt>
<pdfrwt beam="1">  1       21 0.42227367E-01 0.66331800E+03</pdfrwt>
<pdfrwt beam="2">0</pdfrwt>
<totfact> 0.50387532E+02</totfact>
</mgrwt>
</event>
<event>
 6    1  0.1386179E-004  0.6595922E+03  0.7818608E-02  0.9788945E-01
         21   -1    0    0  501  502  0.00000000000E+00  0.00000000000E+00  0.25177030129E+03  0.25177030129E+03  0.00000000000E+00 0. -1.
         13   -1    0    0    0    0 -0.00000000000E+00 -0.00000000000E+00 -0.10000000000E+04  0.10000000000E+04  0.00000000000E+00 0.  1.
    9000005    2    1    2  501    0  0.10349611565E+03 -0.31777949337E+02 -0.86809294188E+03  0.10902510112E+04  0.65064631529E+03 0.  0.
         13    1    3    3    0    0 -0.37610937577E+02  0.18882068183E+03 -0.96685941339E+01  0.19277270093E+03  0.00000000000E+00 0.  1.
          1    1    3    3  501    0  0.14110705323E+03 -0.22059863117E+03 -0.85842434774E+03  0.89747831024E+03  0.00000000000E+00 0.  1.
         -1    1    1    2    0  502 -0.10349611565E+03  0.31777949337E+02  0.11986324317E+03  0.16151929012E+03  0.00000000000E+00 0. -1.
<mgrwt>
<rscale>  1 0.65959223E+03</rscale>
<asrwt>0</asrwt>
<pdfrwt beam="1">  1       21 0.38733891E-01 0.65959223E+03</pdfrwt>
<pdfrwt beam="2">0</pdfrwt>
<totfact> 0.60320451E+02</totfact>
</mgrwt>
</event>
<event>
 6    1  0.1386179E-004  0.6502817E+03  0.7818608E-02  0.9806251E-01
         21   -1    0    0  501  502  0.00000000000E+00  0.00000000000E+00  0.21953380627E+03  0.21953380627E+03  0.00000000000E+00 0. -1.
         13   -1    0    0    0    0 -0.00000000000E+00 -0.00000000000E+00 -0.10000000000E+04  0.10000000000E+04  0.00000000000E+00 0.  1.
    9000005    2    1    2  501    0 -0.32869340752E+02 -0.10803107640E+02 -0.89136813547E+03  0.11033600512E+04  0.64936056923E+03 0.  0.
         13    1    3    3    0    0  0.24255128353E+03  0.18096872150E+03 -0.52907229123E+03  0.60950659771E+03  0.00000000000E+00 0.  1.
          1    1    3    3  501    0 -0.27542062428E+03 -0.19177182914E+03 -0.36229584423E+03  0.49385345345E+03  0.00000000000E+00 0.  1.
         -3    1    1    2    0  502  0.32869340752E+02  0.10803107640E+02  0.11090194173E+03  0.11617375511E+03  0.00000000000E+00 0. -1.
<mgrwt>
<rscale>  1 0.65028167E+03</rscale>
<asrwt>0</asrwt>
<pdfrwt beam="1">  1       21 0.33774431E-01 0.65028167E+03</pdfrwt>
<pdfrwt beam="2">0</pdfrwt>
<totfact> 0.79913241E+02</totfact>
</mgrwt>
</event>
<event>
 6    1  0.1386179E-004  0.6704934E+03  0.7818608E-02  0.9769067E-01
         21   -1    0    0  501  502  0.00000000000E+00  0.00000000000E+00  0.55789601074E+03  0.55789601074E+03  0.00000000000E+00 0. -1.
         13   -1    0    0    0    0 -0.00000000000E+00 -0.00000000000E+00 -0.10000000000E+04  0.10000000000E+04  0.00000000000E+00 0.  1.
    9000005    2    1    2  501    0  0.19753306579E+02 -0.79874060226E+01 -0.88732623232E+03  0.11121642108E+04  0.67015475632E+03 0.  0.
         13    1    3    3    0    0 -0.18920492630E+03  0.46815658004E+01  0.11180310353E+02  0.18959277553E+03  0.00000000000E+00 0.  1.
          1    1    3    3  501    0  0.20895823287E+03 -0.12668971823E+02 -0.89850654267E+03  0.92257143526E+03  0.00000000000E+00 0.  1.
         -1    1    1    2    0  502 -0.19753306579E+02  0.79874060226E+01  0.44522224306E+03  0.44573179995E+03  0.00000000000E+00 0. -1.
<mgrwt>
<rscale>  1 0.67049339E+03</rscale>
<asrwt>0</asrwt>
<pdfrwt beam="1">  1       21 0.85830153E-01 0.67049339E+03</pdfrwt>
<pdfrwt beam="2">0</pdfrwt>
<totfact> 0.10446245E+02</totfact>
</mgrwt>
</event>
<event>
 6    1  0.1386179E-004  0.6320694E+03  0.7818608E-02  0.9841019E-01
         21   -1    0    0  501  502  0.00000000000E+00  0.00000000000E+00  0.35712359296E+03  0.35712359296E+03  0.00000000000E+00 0. -1.
         13   -1    0    0    0    0 -0.00000000000E+00 -0.00000000000E+00 -0.10000000000E+04  0.10000000000E+04  0.00000000000E+00 0.  1.
    9000005    2    1    2  501    0  0.12288267330E+02  0.63141755415E+02 -0.89569051054E+03  0.10962541741E+04  0.62878759582E+03 0.  0.
         13    1    3    3    0    0  0.13334038106E+03 -0.50590109270E+01 -0.94076681321E+03  0.95018284959E+03  0.00000000000E+00 0.  1.
          3    1    3    3  501    0 -0.12105211373E+03  0.68200766342E+02  0.45076302668E+02  0.14607132446E+03  0.00000000000E+00 0.  1.
         -1    1    1    2    0  502 -0.12288267330E+02 -0.63141755415E+02  0.25281410351E+03  0.26086941891E+03  0.00000000000E+00 0. -1.
<mgrwt>
<rscale>  1 0.63206940E+03</rscale>
<asrwt>0</asrwt>
<pdfrwt beam="1">  1       21 0.54942090E-01 0.63206940E+03</pdfrwt>
<pdfrwt beam="2">0</pdfrwt>
<totfact> 0.28829120E+02</totfact>
</mgrwt>
</event>
<event>
 6    1  0.1386179E-004  0.6532180E+03  0.7818608E-02  0.9800760E-01
         21   -1    0    0  501  502  0.00000000000E+00  0.00000000000E+00  0.36044818308E+03  0.36044818308E+03  0.00000000000E+00 0. -1.
         13   -1    0    0    0    0 -0.00000000000E+00 -0.00000000000E+00 -0.10000000000E+04  0.10000000000E+04  0.00000000000E+00 0.  1.
    9000005    2    1    2  501    0  0.38113222572E+02 -0.23781031835E+02 -0.89112408829E+03  0.11048963039E+04  0.65167134856E+03 0.  0.
         13    1    3    3    0    0  0.29151194182E+03 -0.13339968183E+03 -0.24897802572E+03  0.40591223759E+03  0.00000000000E+00 0.  1.
          1    1    3    3  501    0 -0.25339871925E+03  0.10961865000E+03 -0.64214606257E+03  0.69898406635E+03  0.00000000000E+00 0.  1.
         -1    1    1    2    0  502 -0.38113222572E+02  0.23781031835E+02  0.25157227136E+03  0.25555187913E+03  0.00000000000E+00 0. -1.
<mgrwt>
<rscale>  1 0.65321796E+03</rscale>
<asrwt>0</asrwt>
<pdfrwt beam="1">  1       21 0.55453565E-01 0.65321796E+03</pdfrwt>
<pdfrwt beam="2">0</pdfrwt>
<totfact> 0.28191775E+02</totfact>
</mgrwt>
</event>
<event>
 6    1  0.1386179E-004  0.8969282E+03  0.7818608E-02  0.9429429E-01
         21   -1    0    0  501  502  0.00000000000E+00  0.00000000000E+00  0.11548551284E+04  0.11548551284E+04  0.00000000000E+00 0. -1.
         13   -1    0    0    0    0 -0.00000000000E+00 -0.00000000000E+00 -0.10000000000E+04  0.10000000000E+04  0.00000000000E+00 0.  1.
    9000005    2    1    2  501    0 -0.21804940256E+03  0.44092050863E+03 -0.72068931349E+03  0.11505969412E+04  0.75001586489E+03 0.  0.
         13    1    3    3    0    0 -0.89129529912E+01  0.34470115891E+03 -0.82775901424E+03  0.89670692834E+03  0.00000000000E+00 0.  1.
          1    1    3    3  501    0 -0.20913644957E+03  0.96219349714E+02  0.10706970075E+03  0.25389001283E+03  0.00000000000E+00 0.  1.
         -1    1    1    2    0  502  0.21804940256E+03 -0.44092050863E+03  0.87554444190E+03  0.10042581872E+04  0.00000000000E+00 0. -1.
<mgrwt>
<rscale>  1 0.89692822E+03</rscale>
<asrwt>0</asrwt>
<pdfrwt beam="1">  1       21 0.17767001E+00 0.89692822E+03</pdfrwt>
<pdfrwt beam="2">0</pdfrwt>
<totfact> 0.14997021E+01</totfact>
</mgrwt>
</event>
<event>
 6    1  0.1386179E-004  0.6504111E+03  0.7818608E-02  0.9806008E-01
         21   -1    0    0  501  502  0.00000000000E+00  0.00000000000E+00  0.26235187595E+03  0.26235187595E+03  0.00000000000E+00 0. -1.
         13   -1    0    0    0    0 -0.00000000000E+00 -0.00000000000E+00 -0.10000000000E+04  0.10000000000E+04  0.00000000000E+00 0.  1.
    9000005    2    1    2  501    0  0.39762005943E+02  0.11554168780E+02 -0.89120822266E+03  0.11033071658E+04  0.64909174245E+03 0.  0.
         13    1    3    3    0    0  0.28014267946E+03 -0.15082441825E+03 -0.65879757357E+03  0.73160246646E+03  0.00000000000E+00 0.  1.
          3    1    3    3  501    0 -0.24038067352E+03  0.16237858703E+03 -0.23241064909E+03  0.37170469937E+03  0.00000000000E+00 0.  1.
         -1    1    1    2    0  502 -0.39762005943E+02 -0.11554168780E+02  0.15356009860E+03  0.15904471012E+03  0.00000000000E+00 0. -1.
<mgrwt>
<rscale>  1 0.65041111E+03</rscale>
<asrwt>0</asrwt>
<pdfrwt beam="1">  1       21 0.40361826E-01 0.65041111E+03</pdfrwt>
<pdfrwt beam="2">0</pdfrwt>
<totfact> 0.55426876E+02</totfact>
</mgrwt>
</event>
<event>
 6    1  0.1386179E-004  0.6566606E+03  0.7818608E-02  0.9794361E-01
         21   -1    0    0  501  502  0.00000000000E+00  0.00000000000E+00  0.12249332711E+03  0.12249332711E+03  0.00000000000E+00 0.  1.
         13   -1    0    0    0    0 -0.00000000000E+00 -0.00000000000E+00 -0.10000000000E+04  0.10000000000E+04  0.00000000000E+00 0.  1.
    9000005    2    1    2  501    0 -0.11433833058E+02  0.18039253561E+02 -0.88303338680E+03  0.11004322353E+04  0.65631318361E+03 0.  0.
         13    1    3    3    0    0 -0.10604441238E+02  0.14530060292E+03  0.53568702317E+02  0.15522346875E+03  0.00000000000E+00 0.  1.
          1    1    3    3  501    0 -0.82939182005E+00 -0.12726134936E+03 -0.93660208912E+03  0.94520876650E+03  0.00000000000E+00 0.  1.
         -1    1    1    2    0  502  0.11433833058E+02 -0.18039253561E+02  0.55267139121E+01  0.22061091861E+02  0.00000000000E+00 0. -1.
<mgrwt>
<rscale>  1 0.65666060E+03</rscale>
<asrwt>0</asrwt>
<pdfrwt beam="1">  1       21 0.18845127E-01 0.65666060E+03</pdfrwt>
<pdfrwt beam="2">0</pdfrwt>
<totfact> 0.25139966E+03</totfact>
</mgrwt>
</event>
<event>
 6    1  0.1386179E-004  0.6678944E+03  0.7818608E-02  0.9773769E-01
         21   -1    0    0  501  502  0.00000000000E+00  0.00000000000E+00  0.19700511024E+03  0.19700511024E+03  0.00000000000E+00 0. -1.
         13   -1    0    0    0    0 -0.00000000000E+00 -0.00000000000E+00 -0.10000000000E+04  0.10000000000E+04  0.00000000000E+00 0.  1.
    9000005    2    1    2  501    0 -0.28981281931E+02  0.44070105168E+01 -0.88567589367E+03  0.11092811976E+04  0.66725081508E+03 0.  0.
         13    1    3    3    0    0  0.23249037049E+03 -0.19599595296E+03 -0.25137533972E+03  0.39453231473E+03  0.00000000000E+00 0.  1.
          1    1    3    3  501    0 -0.26147165242E+03  0.20040296348E+03 -0.63430055396E+03  0.71474888285E+03  0.00000000000E+00 0.  1.
         -1    1    1    2    0  502  0.28981281931E+02 -0.44070105168E+01  0.82681003909E+02  0.87723912655E+02  0.00000000000E+00 0. -1.
<mgrwt>
<rscale>  1 0.66789444E+03</rscale>
<asrwt>0</asrwt>
<pdfrwt beam="1">  1       21 0.30308478E-01 0.66789444E+03</pdfrwt>
<pdfrwt beam="2">0</pdfrwt>
<totfact> 0.99309536E+02</totfact>
</mgrwt>
</event>
<event>
 6    1  0.1386179E-004  0.6491011E+03  0.7818608E-02  0.9808467E-01
         21   -1    0    0  501  502  0.00000000000E+00  0.00000000000E+00  0.14726335439E+03  0.14726335439E+03  0.00000000000E+00 0.  1.
         13   -1    0    0    0    0 -0.00000000000E+00 -0.00000000000E+00 -0.10000000000E+04  0.10000000000E+04  0.00000000000E+00 0.  1.
    9000005    2    1    2  501    0  0.10313487278E+02  0.19552170637E+02 -0.89142164324E+03  0.11027079458E+04  0.64872460429E+03 0.  0.
         13    1    3    3    0    0  0.18943474629E+03  0.10921138982E+03 -0.87479771781E+03  0.90171153805E+03  0.00000000000E+00 0.  1.
          3    1    3    3  501    0 -0.17912125901E+03 -0.89659219182E+02 -0.16623925430E+02  0.20099640771E+03  0.00000000000E+00 0.  1.
         -1    1    1    2    0  502 -0.10313487278E+02 -0.19552170637E+02  0.38684997631E+02  0.44555408630E+02  0.00000000000E+00 0. -1.
<mgrwt>
<rscale>  1 0.64910112E+03</rscale>
<asrwt>0</asrwt>
<pdfrwt beam="1">  1       21 0.22655900E-01 0.64910112E+03</pdfrwt>
<pdfrwt beam="2">0</pdfrwt>
<totfact> 0.17645249E+03</totfact>
</mgrwt>
</event>
<event>
 6    1  0.1386179E-004  0.7734894E+03  0.7818608E-02  0.9599203E-01
         21   -1    0    0  501  502  0.00000000000E+00  0.00000000000E+00  0.66336109403E+03  0.66336109403E+03  0.00000000000E+00 0. -1.
         13   -1    0    0    0    0 -0.00000000000E+00 -0.00000000000E+00 -0.10000000000E+04  0.10000000000E+04  0.00000000000E+00 0.  1.
    9000005    2    1    2  501    0 -0.27628215610E+03  0.13062905003E+03 -0.79710829431E+03  0.11107058343E+04  0.71055614770E+03 0.  0.
         13    1    3    3    0    0  0.70221408807E+02  0.12390314730E+03 -0.74709311521E+03  0.76054661853E+03  0.00000000000E+00 0.  1.
          1    1    3    3  501    0 -0.34650356490E+03  0.67259027335E+01 -0.50015179097E+02  0.35015921578E+03  0.00000000000E+00 0.  1.
         -3    1    1    2    0  502  0.27628215610E+03 -0.13062905003E+03  0.46046938834E+03  0.55265525971E+03  0.00000000000E+00 0. -1.
<mgrwt>
<rscale>  1 0.77348938E+03</rscale>
<asrwt>0</asrwt>
<pdfrwt beam="1">  1       21 0.10205555E+00 0.77348938E+03</pdfrwt>
<pdfrwt beam="2">0</pdfrwt>
<totfact> 0.67808798E+01</totfact>
</mgrwt>
</event>
<event>
 6    1  0.1386179E-004  0.6541400E+03  0.7818608E-02  0.9799042E-01
         21   -1    0    0  501  502  0.00000000000E+00  0.00000000000E+00  0.16928879550E+03  0.16928879550E+03  0.00000000000E+00 0.  1.
         13   -1    0    0    0    0 -0.00000000000E+00 -0.00000000000E+00 -0.10000000000E+04  0.10000000000E+04  0.00000000000E+00 0.  1.
    9000005    2    1    2  501    0  0.75283313507E+02 -0.14214051465E+01 -0.86668736075E+03  0.10858389213E+04  0.64979195442E+03 0.  0.
         13    1    3    3    0    0 -0.21407013663E+03  0.16335526053E+03 -0.18359843085E+03  0.32591309938E+03  0.00000000000E+00 0.  1.
          1    1    3    3  501    0  0.28935345013E+03 -0.16477666568E+03 -0.68308892990E+03  0.75992582191E+03  0.00000000000E+00 0.  1.
         -1    1    1    2    0  502 -0.75283313507E+02  0.14214051465E+01  0.35976156249E+02  0.83449874198E+02  0.00000000000E+00 0. -1.
<mgrwt>
<rscale>  1 0.65414003E+03</rscale>
<asrwt>0</asrwt>
<pdfrwt beam="1">  1       21 0.26044429E-01 0.65414003E+03</pdfrwt>
<pdfrwt beam="2">0</pdfrwt>
<totfact> 0.13433769E+03</totfact>
</mgrwt>
</event>
<event>
 6    1  0.1386179E-004  0.6530508E+03  0.7818608E-02  0.9801071E-01
         21   -1    0    0  501  502  0.00000000000E+00  0.00000000000E+00  0.43687213824E+03  0.43687213824E+03  0.00000000000E+00 0. -1.
         13   -1    0    0    0    0 -0.00000000000E+00 -0.00000000000E+00 -0.10000000000E+04  0.10000000000E+04  0.00000000000E+00 0.  1.
    9000005    2    1    2  501    0  0.24910873375E+02  0.12082318743E+02 -0.89273888300E+03  0.11061003750E+04  0.65246363293E+03 0.  0.
         13    1    3    3    0    0  0.25601792402E+03 -0.83925394084E+02 -0.12201284507E+03  0.29576305305E+03  0.00000000000E+00 0.  1.
          1    1    3    3  501    0 -0.23110705064E+03  0.96007712827E+02 -0.77072603793E+03  0.81033732194E+03  0.00000000000E+00 0.  1.
         -3    1    1    2    0  502 -0.24910873375E+02 -0.12082318743E+02  0.32961102124E+03  0.33077176325E+03  0.00000000000E+00 0. -1.
<mgrwt>
<rscale>  1 0.65305078E+03</rscale>
<asrwt>0</asrwt>
<pdfrwt beam="1">  1       21 0.67211096E-01 0.65305078E+03</pdfrwt>
<pdfrwt beam="2">0</pdfrwt>
<totfact> 0.18409306E+02</totfact>
</mgrwt>
</event>
<event>
 6    1  0.1386179E-004  0.6731117E+03  0.7818608E-02  0.9764353E-01
         21   -1    0    0  501  502  0.00000000000E+00  0.00000000000E+00  0.19446188768E+03  0.19446188768E+03  0.00000000000E+00 0. -1.
         13   -1    0    0    0    0 -0.00000000000E+00 -0.00000000000E+00 -0.10000000000E+04  0.10000000000E+04  0.00000000000E+00 0.  1.
    9000005    2    1    2  501    0  0.60694730367E+02  0.70725617012E+01 -0.87370043528E+03  0.11029196914E+04  0.67033239792E+03 0.  0.
         13    1    3    3    0    0  0.36639430335E+03 -0.12038761037E+02 -0.46182233258E+03  0.58963512799E+03  0.00000000000E+00 0.  1.
          3    1    3    3  501    0 -0.30569957298E+03  0.19111322739E+02 -0.41187810270E+03  0.51328456344E+03  0.00000000000E+00 0.  1.
         -3    1    1    2    0  502 -0.60694730367E+02 -0.70725617012E+01  0.68162322957E+02  0.91542196250E+02  0.00000000000E+00 0. -1.
<mgrwt>
<rscale>  1 0.67311173E+03</rscale>
<asrwt>0</asrwt>
<pdfrwt beam="1">  1       21 0.29917213E-01 0.67311173E+03</pdfrwt>
<pdfrwt beam="2">0</pdfrwt>
<totfact> 0.10189681E+03</totfact>
</mgrwt>
</event>
<event>
 6    1  0.1386179E-004  0.6099981E+03  0.7818608E-02  0.9884878E-01
         21   -1    0    0  501  502  0.00000000000E+00  0.00000000000E+00  0.29204213829E+03  0.29204213829E+03  0.00000000000E+00 0. -1.
         13   -1    0    0    0    0 -0.00000000000E+00 -0.00000000000E+00 -0.10000000000E+04  0.10000000000E+04  0.00000000000E+00 0.  1.
    9000005    2    1    2  501    0 -0.66759425565E+01 -0.34316534201E+02 -0.90529604479E+03  0.10916311824E+04  0.60899549836E+03 0.  0.
         13    1    3    3    0    0  0.46208147431E+02  0.10464709088E+03 -0.93333915145E+03  0.94032344337E+03  0.00000000000E+00 0.  1.
          3    1    3    3  501    0 -0.52884089987E+02 -0.13896362508E+03  0.28043106666E+02  0.15130773906E+03  0.00000000000E+00 0.  1.
         -1    1    1    2    0  502  0.66759425565E+01  0.34316534201E+02  0.19733818307E+03  0.20041095585E+03  0.00000000000E+00 0. -1.
<mgrwt>
<rscale>  1 0.60999812E+03</rscale>
<asrwt>0</asrwt>
<pdfrwt beam="1">  1       21 0.44929558E-01 0.60999812E+03</pdfrwt>
<pdfrwt beam="2">0</pdfrwt>
<totfact> 0.44440812E+02</totfact>
</mgrwt>
</event>
<event>
 6    1  0.1386179E-004  0.5470519E+03  0.7818608E-02  0.1002179E+00
         21   -1    0    0  501  502  0.00000000000E+00  0.00000000000E+00  0.12809093720E+03  0.12809093720E+03  0.00000000000E+00 0. -1.
         13   -1    0    0    0    0 -0.00000000000E+00 -0.00000000000E+00 -0.10000000000E+04  0.10000000000E+04  0.00000000000E+00 0.  1.
    9000005    2    1    2  501    0 -0.24866452363E+02 -0.77571847779E+02 -0.88996417053E+03  0.10446540213E+04  0.54095292527E+03 0.  0.
         13    1    3    3    0    0 -0.21082694912E+03  0.53529636630E+02 -0.13466444740E+03  0.25582794583E+03  0.00000000000E+00 0.  1.
          1    1    3    3  501    0  0.18596049676E+03 -0.13110148441E+03 -0.75529972313E+03  0.78882607547E+03  0.00000000000E+00 0.  1.
         -3    1    1    2    0  502  0.24866452363E+02  0.77571847779E+02  0.18055107728E+02  0.83436915907E+02  0.00000000000E+00 0. -1.
<mgrwt>
<rscale>  1 0.54705192E+03</rscale>
<asrwt>0</asrwt>
<pdfrwt beam="1">  1       21 0.19706297E-01 0.54705192E+03</pdfrwt>
<pdfrwt beam="2">0</pdfrwt>
<totfact> 0.23186199E+03</totfact>
</mgrwt>
</event>
<event>
 6    1  0.1386179E-004  0.6635028E+03  0.7818608E-02  0.9781767E-01
         21   -1    0    0  501  502  0.00000000000E+00  0.00000000000E+00  0.16225078319E+03  0.16225078319E+03  0.00000000000E+00 0.  1.
         13   -1    0    0    0    0 -0.00000000000E+00 -0.00000000000E+00 -0.10000000000E+04  0.10000000000E+04  0.00000000000E+00 0.  1.
    9000005    2    1    2  501    0 -0.13838259772E+03  0.47157684226E+01 -0.73249469339E+03  0.98832408449E+03  0.64889447394E+03 0.  0.
         13    1    3    3    0    0 -0.22983361076E+03  0.12546584103E+03 -0.23019427990E+02  0.26285939201E+03  0.00000000000E+00 0.  1.
          1    1    3    3  501    0  0.91451013044E+02 -0.12075007261E+03 -0.70947526540E+03  0.72546469248E+03  0.00000000000E+00 0.  1.
         -1    1    1    2    0  502  0.13838259772E+03 -0.47157684226E+01 -0.10525452341E+03  0.17392669870E+03  0.00000000000E+00 0. -1.
<mgrwt>
<rscale>  1 0.66350284E+03</rscale>
<asrwt>0</asrwt>
<pdfrwt beam="1">  1       21 0.24961658E-01 0.66350284E+03</pdfrwt>
<pdfrwt beam="2">0</pdfrwt>
<totfact> 0.14595453E+03</totfact>
</mgrwt>
</event>
<event>
 6    1  0.1386179E-004  0.6502947E+03  0.7818608E-02  0.9806226E-01
         21   -1    0    0  501  502  0.00000000000E+00  0.00000000000E+00  0.21002042590E+03  0.21002042590E+03  0.00000000000E+00 0.  1.
         13   -1    0    0    0    0 -0.00000000000E+00 -0.00000000000E+00 -0.10000000000E+04  0.10000000000E+04  0.00000000000E+00 0.  1.
    9000005    2    1    2  501    0  0.10152958023E+02  0.27168733776E+02 -0.89204464204E+03  0.11039143434E+04  0.64964760563E+03 0.  0.
         13    1    3    3    0    0 -0.73526097854E+02 -0.29995391005E+03 -0.36680655605E+03  0.47950545855E+03  0.00000000000E+00 0.  1.
          3    1    3    3  501    0  0.83679055877E+02  0.32712264382E+03 -0.52523808599E+03  0.62440888484E+03  0.00000000000E+00 0.  1.
         -1    1    1    2    0  502 -0.10152958023E+02 -0.27168733776E+02  0.10206506794E+03  0.10610608251E+03  0.00000000000E+00 0. -1.
<mgrwt>
<rscale>  1 0.65029473E+03</rscale>
<asrwt>0</asrwt>
<pdfrwt beam="1">  1       21 0.32310834E-01 0.65029473E+03</pdfrwt>
<pdfrwt beam="2">0</pdfrwt>
<totfact> 0.87412687E+02</totfact>
</mgrwt>
</event>
<event>
 6    1  0.1386179E-004  0.6845124E+03  0.7818608E-02  0.9744091E-01
         21   -1    0    0  501  502  0.00000000000E+00  0.00000000000E+00  0.14103931809E+03  0.14103931809E+03  0.00000000000E+00 0.  1.
         13   -1    0    0    0    0 -0.00000000000E+00 -0.00000000000E+00 -0.10000000000E+04  0.10000000000E+04  0.00000000000E+00 0.  1.
    9000005    2    1    2  501    0 -0.20306963220E+02  0.28348609756E+02 -0.86759521559E+03  0.11051147916E+04  0.68362360120E+03 0.  0.
         13    1    3    3    0    0 -0.15135481409E+03 -0.18551717895E+03 -0.81419746252E+03  0.84867096769E+03  0.00000000000E+00 0.  1.
          3    1    3    3  501    0  0.13104785087E+03  0.21386578871E+03 -0.53397753069E+02  0.25644382393E+03  0.00000000000E+00 0.  1.
         -1    1    1    2    0  502  0.20306963220E+02 -0.28348609756E+02  0.86345336755E+01  0.35924526470E+02  0.00000000000E+00 0. -1.
<mgrwt>
<rscale>  1 0.68451241E+03</rscale>
<asrwt>0</asrwt>
<pdfrwt beam="1">  1       21 0.21698356E-01 0.68451241E+03</pdfrwt>
<pdfrwt beam="2">0</pdfrwt>
<totfact> 0.19155339E+03</totfact>
</mgrwt>
</event>
<event>
 6    1  0.1386179E-004  0.6604663E+03  0.7818608E-02  0.9787336E-01
         21   -1    0    0  501  502  0.00000000000E+00  0.00000000000E+00  0.14409543020E+03  0.14409543020E+03  0.00000000000E+00 0.  1.
         13   -1    0    0    0    0 -0.00000000000E+00 -0.00000000000E+00 -0.10000000000E+04  0.10000000000E+04  0.00000000000E+00 0.  1.
    9000005    2    1    2  501    0  0.37231190558E+02  0.87729413145E+02 -0.78135261432E+03  0.10230970602E+04  0.65355418686E+03 0.  0.
         13    1    3    3    0    0  0.63286351943E+02  0.19042955268E+03  0.31709634502E+02  0.20316022691E+03  0.00000000000E+00 0.  1.
          3    1    3    3  501    0 -0.26055161384E+02 -0.10270013954E+03 -0.81306224883E+03  0.81993683328E+03  0.00000000000E+00 0.  1.
         -1    1    1    2    0  502 -0.37231190558E+02 -0.87729413145E+02 -0.74551955477E+02  0.12099837002E+03  0.00000000000E+00 0. -1.
<mgrwt>
<rscale>  1 0.66046626E+03</rscale>
<asrwt>0</asrwt>
<pdfrwt beam="1">  1       21 0.22168527E-01 0.66046626E+03</pdfrwt>
<pdfrwt beam="2">0</pdfrwt>
<totfact> 0.18395700E+03</totfact>
</mgrwt>
</event>
<event>
 6    1  0.1386179E-004  0.6506486E+03  0.7818608E-02  0.9805563E-01
         21   -1    0    0  501  502  0.00000000000E+00  0.00000000000E+00  0.34970124913E+03  0.34970124913E+03  0.00000000000E+00 0. -1.
         13   -1    0    0    0    0 -0.00000000000E+00 -0.00000000000E+00 -0.10000000000E+04  0.10000000000E+04  0.00000000000E+00 0.  1.
    9000005    2    1    2  501    0  0.52764903466E+02  0.12563694082E+02 -0.89082355976E+03  0.11031365210E+04  0.64838382767E+03 0.  0.
         13    1    3    3    0    0  0.25873100830E+03 -0.18184156433E+03 -0.25207657346E+03  0.40441400577E+03  0.00000000000E+00 0.  1.
          3    1    3    3  501    0 -0.20596610483E+03  0.19440525842E+03 -0.63874698630E+03  0.69872251527E+03  0.00000000000E+00 0.  1.
         -3    1    1    2    0  502 -0.52764903466E+02 -0.12563694082E+02  0.24052480889E+03  0.24656472809E+03  0.00000000000E+00 0. -1.
<mgrwt>
<rscale>  1 0.65064858E+03</rscale>
<asrwt>0</asrwt>
<pdfrwt beam="1">  1       21 0.53800191E-01 0.65064858E+03</pdfrwt>
<pdfrwt beam="2">0</pdfrwt>
<totfact> 0.30116707E+02</totfact>
</mgrwt>
</event>
<event>
 6    1  0.1386179E-004  0.6669102E+03  0.7818608E-02  0.9775556E-01
         21   -1    0    0  501  502  0.00000000000E+00  0.00000000000E+00  0.21190539418E+03  0.21190539418E+03  0.00000000000E+00 0. -1.
         13   -1    0    0    0    0 -0.00000000000E+00 -0.00000000000E+00 -0.10000000000E+04  0.10000000000E+04  0.00000000000E+00 0.  1.
    9000005    2    1    2  501    0  0.67198796758E+00  0.79634520972E+02 -0.87096470655E+03  0.10969725351E+04  0.66213828937E+03 0.  0.
         13    1    3    3    0    0  0.26712930178E+03 -0.15545136082E+03 -0.35800956876E+03  0.47296304378E+03  0.00000000000E+00 0.  1.
          3    1    3    3  501    0 -0.26645731381E+03  0.23508588179E+03 -0.51295513778E+03  0.62400949134E+03  0.00000000000E+00 0.  1.
         -1    1    1    2    0  502 -0.67198796758E+00 -0.79634520972E+02  0.82870100730E+02  0.11493285907E+03  0.00000000000E+00 0. -1.
<mgrwt>
<rscale>  1 0.66691021E+03</rscale>
<asrwt>0</asrwt>
<pdfrwt beam="1">  1       21 0.32600829E-01 0.66691021E+03</pdfrwt>
<pdfrwt beam="2">0</pdfrwt>
<totfact> 0.85752986E+02</totfact>
</mgrwt>
</event>
<event>
 6    1  0.1386179E-004  0.6480206E+03  0.7818608E-02  0.9810501E-01
         21   -1    0    0  501  502  0.00000000000E+00  0.00000000000E+00  0.16591046013E+03  0.16591046013E+03  0.00000000000E+00 0. -1.
         13   -1    0    0    0    0 -0.00000000000E+00 -0.00000000000E+00 -0.10000000000E+04  0.10000000000E+04  0.00000000000E+00 0.  1.
    9000005    2    1    2  501    0 -0.10232374282E+03 -0.63218726986E+02 -0.81949549970E+03  0.10447504758E+04  0.63676049417E+03 0.  0.
         13    1    3    3    0    0 -0.31321574621E+03 -0.19969129197E+03 -0.34060498876E+03  0.50397666031E+03  0.00000000000E+00 0.  1.
          1    1    3    3  501    0  0.21089200340E+03  0.13647256499E+03 -0.47889051094E+03  0.54077381552E+03  0.00000000000E+00 0.  1.
         -3    1    1    2    0  502  0.10232374282E+03  0.63218726986E+02 -0.14594040170E+02  0.12115998430E+03  0.00000000000E+00 0. -1.
<mgrwt>
<rscale>  1 0.64802059E+03</rscale>
<asrwt>0</asrwt>
<pdfrwt beam="1">  1       21 0.25524685E-01 0.64802059E+03</pdfrwt>
<pdfrwt beam="2">0</pdfrwt>
<totfact> 0.13981627E+03</totfact>
</mgrwt>
</event>
<event>
 6    1  0.1386179E-004  0.6657234E+03  0.7818608E-02  0.9777715E-01
         21   -1    0    0  501  502  0.00000000000E+00  0.00000000000E+00  0.61480017783E+03  0.61480017783E+03  0.00000000000E+00 0. -1.
         13   -1    0    0    0    0 -0.00000000000E+00 -0.00000000000E+00 -0.10000000000E+04  0.10000000000E+04  0.00000000000E+00 0.  1.
    9000005    2    1    2  501    0  0.11264873817E+02 -0.72805065473E+02 -0.88621004125E+03  0.11084023949E+04  0.66163445865E+03 0.  0.
         13    1    3    3    0    0  0.27742064692E+03  0.15280932317E+03 -0.43066075095E+03  0.53458543470E+03  0.00000000000E+00 0.  1.
          1    1    3    3  501    0 -0.26615577310E+03 -0.22561438864E+03 -0.45554929029E+03  0.57381696019E+03  0.00000000000E+00 0.  1.
         -1    1    1    2    0  502 -0.11264873817E+02  0.72805065473E+02  0.50101021908E+03  0.50639778294E+03  0.00000000000E+00 0. -1.
<mgrwt>
<rscale>  1 0.66572339E+03</rscale>
<asrwt>0</asrwt>
<pdfrwt beam="1">  1       21 0.94584640E-01 0.66572339E+03</pdfrwt>
<pdfrwt beam="2">0</pdfrwt>
<totfact> 0.82856529E+01</totfact>
</mgrwt>
</event>
<event>
 6    1  0.1386179E-004  0.7964636E+03  0.7818608E-02  0.9565150E-01
         21   -1    0    0  501  502  0.00000000000E+00  0.00000000000E+00  0.30776202456E+03  0.30776202456E+03  0.00000000000E+00 0.  1.
         13   -1    0    0    0    0 -0.00000000000E+00 -0.00000000000E+00 -0.10000000000E+04  0.10000000000E+04  0.00000000000E+00 0.  1.
    9000005    2    1    2  501    0 -0.25770996361E+03 -0.24604834105E+02 -0.68219249695E+03  0.10486853277E+04  0.75321609813E+03 0.  0.
         13    1    3    3    0    0 -0.51600443835E+03 -0.83507886751E+02 -0.52390473389E+03  0.74007453525E+03  0.00000000000E+00 0.  1.
          3    1    3    3  501    0  0.25829447474E+03  0.58903052645E+02 -0.15828776306E+03  0.30861079246E+03  0.00000000000E+00 0.  1.
         -1    1    1    2    0  502  0.25770996361E+03  0.24604834105E+02 -0.10045478496E+02  0.25907669684E+03  0.00000000000E+00 0. -1.
<mgrwt>
<rscale>  1 0.79646363E+03</rscale>
<asrwt>0</asrwt>
<pdfrwt beam="1">  1       21 0.47348002E-01 0.79646363E+03</pdfrwt>
<pdfrwt beam="2">0</pdfrwt>
<totfact> 0.39147566E+02</totfact>
</mgrwt>
</event>
<event>
 6    1  0.1386179E-004  0.6606151E+03  0.7818608E-02  0.9787062E-01
         21   -1    0    0  501  502  0.00000000000E+00  0.00000000000E+00  0.25174112348E+03  0.25174112348E+03  0.00000000000E+00 0. -1.
         13   -1    0    0    0    0 -0.00000000000E+00 -0.00000000000E+00 -0.10000000000E+04  0.10000000000E+04  0.00000000000E+00 0.  1.
    9000005    2    1    2  501    0 -0.24801756221E+02  0.12125554311E+03 -0.86037877497E+03  0.10847414065E+04  0.64891775188E+03 0.  0.
         13    1    3    3    0    0 -0.24533391993E+02  0.24057108440E+01 -0.94087443852E+03  0.94119731397E+03  0.00000000000E+00 0.  1.
          3    1    3    3  501    0 -0.26836422821E+00  0.11884983226E+03  0.80495663553E+02  0.14354409253E+03  0.00000000000E+00 0.  1.
         -3    1    1    2    0  502  0.24801756221E+02 -0.12125554311E+03  0.11211989845E+03  0.16699971699E+03  0.00000000000E+00 0. -1.
<mgrwt>
<rscale>  1 0.66061508E+03</rscale>
<asrwt>0</asrwt>
<pdfrwt beam="1">  1       21 0.38729403E-01 0.66061508E+03</pdfrwt>
<pdfrwt beam="2">0</pdfrwt>
<totfact> 0.60330107E+02</totfact>
</mgrwt>
</event>
<event>
 6    1  0.1386179E-004  0.6462289E+03  0.7818608E-02  0.9813881E-01
         21   -1    0    0  501  502  0.00000000000E+00  0.00000000000E+00  0.17195449031E+03  0.17195449031E+03  0.00000000000E+00 0. -1.
         13   -1    0    0    0    0 -0.00000000000E+00 -0.00000000000E+00 -0.10000000000E+04  0.10000000000E+04  0.00000000000E+00 0.  1.
    9000005    2    1    2  501    0  0.77606779582E+00  0.49501132158E+02 -0.88542450719E+03  0.10961698367E+04  0.64432972043E+03 0.  0.
         13    1    3    3    0    0  0.10985281479E+03  0.15157948403E+03 -0.92327197199E+03  0.94205897647E+03  0.00000000000E+00 0.  1.
          1    1    3    3  501    0 -0.10907674699E+03 -0.10207835187E+03  0.37847464795E+02  0.15411086025E+03  0.00000000000E+00 0.  1.
         -3    1    1    2    0  502 -0.77606779582E+00 -0.49501132158E+02  0.57378997496E+02  0.75784653590E+02  0.00000000000E+00 0. -1.
<mgrwt>
<rscale>  1 0.64622887E+03</rscale>
<asrwt>0</asrwt>
<pdfrwt beam="1">  1       21 0.26454536E-01 0.64622887E+03</pdfrwt>
<pdfrwt beam="2">0</pdfrwt>
<totfact> 0.13032188E+03</totfact>
</mgrwt>
</event>
<event>
 6    1  0.1386179E-004  0.6921201E+03  0.7818608E-02  0.9730803E-01
         21   -1    0    0  501  502  0.00000000000E+00  0.00000000000E+00  0.23553651765E+03  0.23553651765E+03  0.00000000000E+00 0.  1.
         13   -1    0    0    0    0 -0.00000000000E+00 -0.00000000000E+00 -0.10000000000E+04  0.10000000000E+04  0.00000000000E+00 0.  1.
    9000005    2    1    2  501    0  0.75606465744E+02 -0.25311975665E+03 -0.64326138516E+03  0.94488914156E+03  0.63972207350E+03 0.  0.
         13    1    3    3    0    0 -0.11890443552E+03 -0.33704936048E+03 -0.11455147238E+03  0.37531663433E+03  0.00000000000E+00 0.  1.
          1    1    3    3  501    0  0.19451090126E+03  0.83929603831E+02 -0.52870991278E+03  0.56957250722E+03  0.00000000000E+00 0.  1.
         -1    1    1    2    0  502 -0.75606465744E+02  0.25311975665E+03 -0.12120209719E+03  0.29064737609E+03  0.00000000000E+00 0. -1.
<mgrwt>
<rscale>  1 0.69212013E+03</rscale>
<asrwt>0</asrwt>
<pdfrwt beam="1">  1       21 0.36236386E-01 0.69212013E+03</pdfrwt>
<pdfrwt beam="2">0</pdfrwt>
<totfact> 0.69023819E+02</totfact>
</mgrwt>
</event>
<event>
 6    1  0.1386179E-004  0.6676610E+03  0.7818608E-02  0.9774193E-01
         21   -1    0    0  501  502  0.00000000000E+00  0.00000000000E+00  0.18618503114E+03  0.18618503114E+03  0.00000000000E+00 0.  1.
         13   -1    0    0    0    0 -0.00000000000E+00 -0.00000000000E+00 -0.10000000000E+04  0.10000000000E+04  0.00000000000E+00 0.  1.
    9000005    2    1    2  501    0  0.92456450920E+02 -0.10317681755E+03 -0.80712335349E+03  0.10474823682E+04  0.65312904766E+03 0.  0.
         13    1    3    3    0    0 -0.12645133646E+03  0.16375761986E+02  0.63066147424E+02  0.14225134455E+03  0.00000000000E+00 0.  1.
          1    1    3    3  501    0  0.21890778738E+03 -0.11955257953E+03 -0.87018950091E+03  0.90523102363E+03  0.00000000000E+00 0.  1.
         -1    1    1    2    0  502 -0.92456450920E+02  0.10317681755E+03 -0.66916153772E+01  0.13870266296E+03  0.00000000000E+00 0. -1.
<mgrwt>
<rscale>  1 0.66766099E+03</rscale>
<asrwt>0</asrwt>
<pdfrwt beam="1">  1       21 0.28643850E-01 0.66766099E+03</pdfrwt>
<pdfrwt beam="2">0</pdfrwt>
<totfact> 0.11118199E+03</totfact>
</mgrwt>
</event>
<event>
 6    1  0.1386179E-004  0.5773978E+03  0.7818608E-02  0.9953441E-01
         21   -1    0    0  501  502  0.00000000000E+00  0.00000000000E+00  0.11093701039E+03  0.11093701039E+03  0.00000000000E+00 0.  1.
         13   -1    0    0    0    0 -0.00000000000E+00 -0.00000000000E+00 -0.10000000000E+04  0.10000000000E+04  0.00000000000E+00 0.  1.
    9000005    2    1    2  501    0  0.11394771629E+02 -0.17488659159E+02 -0.91232214006E+03  0.10796850969E+04  0.57702038710E+03 0.  0.
         13    1    3    3    0    0 -0.12378499833E+03 -0.26408905437E+03 -0.39696626055E+03  0.49259310436E+03  0.00000000000E+00 0.  1.
          3    1    3    3  501    0  0.13517976996E+03  0.24660039521E+03 -0.51535587950E+03  0.58709199250E+03  0.00000000000E+00 0.  1.
         -1    1    1    2    0  502 -0.11394771629E+02  0.17488659159E+02  0.23259150441E+02  0.31251913524E+02  0.00000000000E+00 0. -1.
<mgrwt>
<rscale>  1 0.57739780E+03</rscale>
<asrwt>0</asrwt>
<pdfrwt beam="1">  1       21 0.17067232E-01 0.57739780E+03</pdfrwt>
<pdfrwt beam="2">0</pdfrwt>
<totfact> 0.30416759E+03</totfact>
</mgrwt>
</event>
<event>
 6    1  0.1386179E-004  0.6175183E+03  0.7818608E-02  0.9869713E-01
         21   -1    0    0  501  502  0.00000000000E+00  0.00000000000E+00  0.21419703087E+03  0.21419703087E+03  0.00000000000E+00 0. -1.
         13   -1    0    0    0    0 -0.00000000000E+00 -0.00000000000E+00 -0.10000000000E+04  0.10000000000E+04  0.00000000000E+00 0.  1.
    9000005    2    1    2  501    0 -0.58886283131E+02 -0.31420425262E+02 -0.89431737783E+03  0.10867991723E+04  0.61390066886E+03 0.  0.
         13    1    3    3    0    0 -0.70738144019E+02 -0.28966108186E+03 -0.23835005946E+03  0.38173050469E+03  0.00000000000E+00 0.  1.
          3    1    3    3  501    0  0.11851860888E+02  0.25824065660E+03 -0.65596731837E+03  0.70506866764E+03  0.00000000000E+00 0.  1.
         -1    1    1    2    0  502  0.58886283131E+02  0.31420425262E+02  0.10851440870E+03  0.12739785854E+03  0.00000000000E+00 0. -1.
<mgrwt>
<rscale>  1 0.61751831E+03</rscale>
<asrwt>0</asrwt>
<pdfrwt beam="1">  1       21 0.32953388E-01 0.61751831E+03</pdfrwt>
<pdfrwt beam="2">0</pdfrwt>
<totfact> 0.84194997E+02</totfact>
</mgrwt>
</event>
<event>
 6    1  0.1386179E-004  0.6533001E+03  0.7818608E-02  0.9800606E-01
         21   -1    0    0  501  502  0.00000000000E+00  0.00000000000E+00  0.16855807802E+03  0.16855807802E+03  0.00000000000E+00 0. -1.
         13   -1    0    0    0    0 -0.00000000000E+00 -0.00000000000E+00 -0.10000000000E+04  0.10000000000E+04  0.00000000000E+00 0.  1.
    9000005    2    1    2  501    0 -0.23036936707E+02 -0.52927411069E+02 -0.87800725532E+03  0.10943937904E+04  0.65074497054E+03 0.  0.
         13    1    3    3    0    0 -0.24221454189E+03  0.13276598289E+03 -0.70946122107E+03  0.76133429892E+03  0.00000000000E+00 0.  1.
          3    1    3    3  501    0  0.21917760518E+03 -0.18569339396E+03 -0.16854603425E+03  0.33305949144E+03  0.00000000000E+00 0.  1.
         -3    1    1    2    0  502  0.23036936707E+02  0.52927411069E+02  0.46565333339E+02  0.74164287661E+02  0.00000000000E+00 0. -1.
<mgrwt>
<rscale>  1 0.65330011E+03</rscale>
<asrwt>0</asrwt>
<pdfrwt beam="1">  1       21 0.25932011E-01 0.65330011E+03</pdfrwt>
<pdfrwt beam="2">0</pdfrwt>
<totfact> 0.13549261E+03</totfact>
</mgrwt>
</event>
<event>
 6    1  0.1386179E-004  0.6691610E+03  0.7818608E-02  0.9771475E-01
         21   -1    0    0  501  502  0.00000000000E+00  0.00000000000E+00  0.17126146596E+03  0.17126146596E+03  0.00000000000E+00 0.  1.
         13   -1    0    0    0    0 -0.00000000000E+00 -0.00000000000E+00 -0.10000000000E+04  0.10000000000E+04  0.00000000000E+00 0.  1.
    9000005    2    1    2  501    0 -0.14614668157E+03  0.15244239678E+02 -0.74787713858E+03  0.10035420436E+04  0.65282859880E+03 0.  0.
         13    1    3    3    0    0  0.18534206077E+03 -0.73981131930E+02 -0.59532941848E+03  0.62788693559E+03  0.00000000000E+00 0.  1.
          1    1    3    3  501    0 -0.33148874234E+03  0.89225371609E+02 -0.15254772010E+03  0.37565510797E+03  0.00000000000E+00 0.  1.
         -1    1    1    2    0  502  0.14614668157E+03 -0.15244239678E+02 -0.80861395461E+02  0.16771942241E+03  0.00000000000E+00 0. -1.
<mgrwt>
<rscale>  1 0.66916098E+03</rscale>
<asrwt>0</asrwt>
<pdfrwt beam="1">  1       21 0.26347917E-01 0.66916098E+03</pdfrwt>
<pdfrwt beam="2">0</pdfrwt>
<totfact> 0.13119928E+03</totfact>
</mgrwt>
</event>
<event>
 6    1  0.1386179E-004  0.6656415E+03  0.7818608E-02  0.9777864E-01
         21   -1    0    0  501  502  0.00000000000E+00  0.00000000000E+00  0.51902489401E+03  0.51902489401E+03  0.00000000000E+00 0. -1.
         13   -1    0    0    0    0 -0.00000000000E+00 -0.00000000000E+00 -0.10000000000E+04  0.10000000000E+04  0.00000000000E+00 0.  1.
    9000005    2    1    2  501    0 -0.93855207496E+02  0.12733189204E+03 -0.87211127945E+03  0.10971129163E+04  0.64657285495E+03 0.  0.
         13    1    3    3    0    0  0.78889681959E+01  0.15073880605E+03 -0.95310117713E+03  0.96497993622E+03  0.00000000000E+00 0.  1.
          1    1    3    3  501    0 -0.10174417569E+03 -0.23406914015E+02  0.80989897676E+02  0.13213298012E+03  0.00000000000E+00 0.  1.
         -3    1    1    2    0  502  0.93855207496E+02 -0.12733189204E+03  0.39113617346E+03  0.42191197766E+03  0.00000000000E+00 0. -1.
<mgrwt>
<rscale>  1 0.66564155E+03</rscale>
<asrwt>0</asrwt>
<pdfrwt beam="1">  1       21 0.79849981E-01 0.66564155E+03</pdfrwt>
<pdfrwt beam="2">0</pdfrwt>
<totfact> 0.12385195E+02</totfact>
</mgrwt>
</event>
<event>
 6    1  0.1386179E-004  0.6317141E+03  0.7818608E-02  0.9841710E-01
         21   -1    0    0  501  502  0.00000000000E+00  0.00000000000E+00  0.17021490027E+03  0.17021490027E+03  0.00000000000E+00 0. -1.
         13   -1    0    0    0    0 -0.00000000000E+00 -0.00000000000E+00 -0.10000000000E+04  0.10000000000E+04  0.00000000000E+00 0.  1.
    9000005    2    1    2  501    0  0.70506225747E+02 -0.17951797229E+02 -0.87894487909E+03  0.10824078459E+04  0.62751035805E+03 0.  0.
         13    1    3    3    0    0 -0.27197712270E+02  0.36969781760E+02 -0.94908104378E+03  0.95019014306E+03  0.00000000000E+00 0.  1.
          1    1    3    3  501    0  0.97703938017E+02 -0.54921578989E+02  0.70136164688E+02  0.13221770282E+03  0.00000000000E+00 0.  1.
         -3    1    1    2    0  502 -0.70506225747E+02  0.17951797229E+02  0.49159779354E+02  0.87807054381E+02  0.00000000000E+00 0. -1.
<mgrwt>
<rscale>  1 0.63171405E+03</rscale>
<asrwt>0</asrwt>
<pdfrwt beam="1">  1       21 0.26186907E-01 0.63171405E+03</pdfrwt>
<pdfrwt beam="2">0</pdfrwt>
<totfact> 0.13306719E+03</totfact>
</mgrwt>
</event>
<event>
 6    1  0.1386179E-004  0.6616490E+03  0.7818608E-02  0.9785163E-01
         21   -1    0    0  501  502  0.00000000000E+00  0.00000000000E+00  0.24626970661E+03  0.24626970661E+03  0.00000000000E+00 0.  1.
         13   -1    0    0    0    0 -0.00000000000E+00 -0.00000000000E+00 -0.10000000000E+04  0.10000000000E+04  0.00000000000E+00 0.  1.
    9000005    2    1    2  501    0 -0.23961793831E+02  0.46087532404E+02 -0.88506094872E+03  0.11050395072E+04  0.65960685354E+03 0.  0.
         13    1    3    3    0    0 -0.17894202985E+03 -0.26055819572E+03 -0.46684327191E+03  0.56378494475E+03  0.00000000000E+00 0.  1.
          3    1    3    3  501    0  0.15498023602E+03  0.30664572812E+03 -0.41821767681E+03  0.54125456241E+03  0.00000000000E+00 0.  1.
         -3    1    1    2    0  502  0.23961793831E+02 -0.46087532404E+02  0.13133065533E+03  0.14123019945E+03  0.00000000000E+00 0. -1.
<mgrwt>
<rscale>  1 0.66164902E+03</rscale>
<asrwt>0</asrwt>
<pdfrwt beam="1">  1       21 0.37887646E-01 0.66164902E+03</pdfrwt>
<pdfrwt beam="2">0</pdfrwt>
<totfact> 0.63123288E+02</totfact>
</mgrwt>
</event>
<event>
 6    1  0.1386179E-004  0.5739370E+03  0.7818608E-02  0.9961004E-01
         21   -1    0    0  501  502  0.00000000000E+00  0.00000000000E+00  0.17413360757E+03  0.17413360757E+03  0.00000000000E+00 0. -1.
         13   -1    0    0    0    0 -0.00000000000E+00 -0.00000000000E+00 -0.10000000000E+04  0.10000000000E+04  0.00000000000E+00 0.  1.
    9000005    2    1    2  501    0 -0.19276645730E+03 -0.38921978604E+02 -0.78638524614E+03  0.97355297942E+03  0.53919367661E+03 0.  0.
         13    1    3    3    0    0 -0.28845838326E+03 -0.22395713252E+03 -0.48245002574E+03  0.60508103872E+03  0.00000000000E+00 0.  1.
          1    1    3    3  501    0  0.95691925965E+02  0.18503515391E+03 -0.30393522040E+03  0.36847194069E+03  0.00000000000E+00 0.  1.
         -1    1    1    2    0  502  0.19276645730E+03  0.38921978604E+02 -0.39481146288E+02  0.20058062815E+03  0.00000000000E+00 0. -1.
<mgrwt>
<rscale>  1 0.57393697E+03</rscale>
<asrwt>0</asrwt>
<pdfrwt beam="1">  1       21 0.26789785E-01 0.57393697E+03</pdfrwt>
<pdfrwt beam="2">0</pdfrwt>
<totfact> 0.12767400E+03</totfact>
</mgrwt>
</event>
<event>
 6    1  0.1386179E-004  0.6537748E+03  0.7818608E-02  0.9799722E-01
         21   -1    0    0  501  502  0.00000000000E+00  0.00000000000E+00  0.16262365001E+03  0.16262365001E+03  0.00000000000E+00 0. -1.
         13   -1    0    0    0    0 -0.00000000000E+00 -0.00000000000E+00 -0.10000000000E+04  0.10000000000E+04  0.00000000000E+00 0.  1.
    9000005    2    1    2  501    0 -0.74527524377E+02  0.63760954649E+01 -0.86378106525E+03  0.10833001638E+04  0.64948172386E+03 0.  0.
         13    1    3    3    0    0 -0.55401533484E+02 -0.65602200666E+02  0.91291594972E+02  0.12532810522E+03  0.00000000000E+00 0.  1.
          3    1    3    3  501    0 -0.19125990893E+02  0.71978296131E+02 -0.95507266022E+03  0.95797205854E+03  0.00000000000E+00 0.  1.
         -3    1    1    2    0  502  0.74527524377E+02 -0.63760954649E+01  0.26404715256E+02  0.79323486250E+02  0.00000000000E+00 0. -1.
<mgrwt>
<rscale>  1 0.65377482E+03</rscale>
<asrwt>0</asrwt>
<pdfrwt beam="1">  1       21 0.25019022E-01 0.65377482E+03</pdfrwt>
<pdfrwt beam="2">0</pdfrwt>
<totfact> 0.14537180E+03</totfact>
</mgrwt>
</event>
<event>
 6    1  0.1386179E-004  0.6734484E+03  0.7818608E-02  0.9763748E-01
         21   -1    0    0  501  502  0.00000000000E+00  0.00000000000E+00  0.27008631855E+03  0.27008631855E+03  0.00000000000E+00 0.  1.
         13   -1    0    0    0    0 -0.00000000000E+00 -0.00000000000E+00 -0.10000000000E+04  0.10000000000E+04  0.00000000000E+00 0.  1.
    9000005    2    1    2  501    0 -0.21853892776E+03  0.21246309179E+03 -0.68744372405E+03  0.96234693920E+03  0.60052720948E+03 0.  0.
         13    1    3    3    0    0 -0.23818708328E+03  0.30428502933E+03 -0.14641648464E+03  0.41323147592E+03  0.00000000000E+00 0.  1.
          3    1    3    3  501    0  0.19648155523E+02 -0.91821937534E+02 -0.54102723942E+03  0.54911546329E+03  0.00000000000E+00 0.  1.
         -3    1    1    2    0  502  0.21853892776E+03 -0.21246309179E+03 -0.42469957397E+02  0.30773937935E+03  0.00000000000E+00 0. -1.
<mgrwt>
<rscale>  1 0.67344841E+03</rscale>
<asrwt>0</asrwt>
<pdfrwt beam="1">  1       21 0.41551740E-01 0.67344841E+03</pdfrwt>
<pdfrwt beam="2">0</pdfrwt>
<totfact> 0.52072868E+02</totfact>
</mgrwt>
</event>
<event>
 6    1  0.1386179E-004  0.6459300E+03  0.7818608E-02  0.9814446E-01
         21   -1    0    0  501  502  0.00000000000E+00  0.00000000000E+00  0.12028157607E+03  0.12028157607E+03  0.00000000000E+00 0.  1.
         13   -1    0    0    0    0 -0.00000000000E+00 -0.00000000000E+00 -0.10000000000E+04  0.10000000000E+04  0.00000000000E+00 0.  1.
    9000005    2    1    2  501    0 -0.23406989863E+02  0.31808521307E+01 -0.88541141967E+03  0.10959831153E+04  0.64549794886E+03 0.  0.
         13    1    3    3    0    0 -0.24797836166E+03 -0.13979201827E+03 -0.16747578588E+03  0.33027748195E+03  0.00000000000E+00 0.  1.
          3    1    3    3  501    0  0.22457137180E+03  0.14297287041E+03 -0.71793563379E+03  0.76570563337E+03  0.00000000000E+00 0.  1.
         -3    1    1    2    0  502  0.23406989863E+02 -0.31808521307E+01  0.56929957427E+01  0.24298460758E+02  0.00000000000E+00 0. -1.
<mgrwt>
<rscale>  1 0.64593003E+03</rscale>
<asrwt>0</asrwt>
<pdfrwt beam="1">  1       21 0.18504857E-01 0.64593003E+03</pdfrwt>
<pdfrwt beam="2">0</pdfrwt>
<totfact> 0.26037477E+03</totfact>
</mgrwt>
</event>
<event>
 6    1  0.1386179E-004  0.6541190E+03  0.7818608E-02  0.9799081E-01
         21   -1    0    0  501  502  0.00000000000E+00  0.00000000000E+00  0.12469241709E+03  0.12469241709E+03  0.00000000000E+00 0.  1.
         13   -1    0    0    0    0 -0.00000000000E+00 -0.00000000000E+00 -0.10000000000E+04  0.10000000000E+04  0.00000000000E+00 0.  1.
    9000005    2    1    2  501    0 -0.14480571734E+02  0.17181086336E+02 -0.88476862741E+03  0.11003123423E+04  0.65373301110E+03 0.  0.
         13    1    3    3    0    0  0.12293695931E+03 -0.57372391098E+02  0.55907166598E+02  0.14673342667E+03  0.00000000000E+00 0.  1.
          3    1    3    3  501    0 -0.13741753104E+03  0.74553477435E+02 -0.94067579401E+03  0.95357891560E+03  0.00000000000E+00 0.  1.
         -3    1    1    2    0  502  0.14480571734E+02 -0.17181086336E+02  0.94610444986E+01  0.24380074824E+02  0.00000000000E+00 0. -1.
<mgrwt>
<rscale>  1 0.65411905E+03</rscale>
<asrwt>0</asrwt>
<pdfrwt beam="1">  1       21 0.19183448E-01 0.65411905E+03</pdfrwt>
<pdfrwt beam="2">0</pdfrwt>
<totfact> 0.24302638E+03</totfact>
</mgrwt>
</event>
<event>
 6    1  0.1386179E-004  0.5465756E+03  0.7818608E-02  0.1002290E+00
         21   -1    0    0  501  502  0.00000000000E+00  0.00000000000E+00  0.16329747480E+03  0.16329747480E+03  0.00000000000E+00 0. -1.
         13   -1    0    0    0    0 -0.00000000000E+00 -0.00000000000E+00 -0.10000000000E+04  0.10000000000E+04  0.00000000000E+00 0.  1.
    9000005    2    1    2  501    0  0.19750614896E+02  0.11485969188E+02 -0.92372888284E+03  0.10733219159E+04  0.54609785925E+03 0.  0.
         13    1    3    3    0    0  0.26065899669E+03  0.32523869669E+01 -0.26433558123E+03  0.37125057587E+03  0.00000000000E+00 0.  1.
          1    1    3    3  501    0 -0.24090838179E+03  0.82335822211E+01 -0.65939330160E+03  0.70207134003E+03  0.00000000000E+00 0.  1.
         -1    1    1    2    0  502 -0.19750614896E+02 -0.11485969188E+02  0.87026357633E+02  0.89975558902E+02  0.00000000000E+00 0. -1.
<mgrwt>
<rscale>  1 0.54657560E+03</rscale>
<asrwt>0</asrwt>
<pdfrwt beam="1">  1       21 0.25122688E-01 0.54657560E+03</pdfrwt>
<pdfrwt beam="2">0</pdfrwt>
<totfact> 0.14507584E+03</totfact>
</mgrwt>
</event>
<event>
 6    1  0.1386179E-004  0.5942389E+03  0.7818608E-02  0.9917431E-01
         21   -1    0    0  501  502  0.00000000000E+00  0.00000000000E+00  0.16770401913E+03  0.16770401913E+03  0.00000000000E+00 0.  1.
         13   -1    0    0    0    0 -0.00000000000E+00 -0.00000000000E+00 -0.10000000000E+04  0.10000000000E+04  0.00000000000E+00 0.  1.
    9000005    2    1    2  501    0  0.24451036645E+02  0.12199884996E+01 -0.90966233261E+03  0.10865566597E+04  0.59373434612E+03 0.  0.
         13    1    3    3    0    0 -0.25643698174E+03 -0.12109158187E+03 -0.37243897077E+03  0.46811738245E+03  0.00000000000E+00 0.  1.
          3    1    3    3  501    0  0.28088801838E+03  0.12231157037E+03 -0.53722336184E+03  0.61843927723E+03  0.00000000000E+00 0.  1.
         -1    1    1    2    0  502 -0.24451036645E+02 -0.12199884996E+01  0.77366351732E+02  0.81147359448E+02  0.00000000000E+00 0. -1.
<mgrwt>
<rscale>  1 0.59423885E+03</rscale>
<asrwt>0</asrwt>
<pdfrwt beam="1">  1       21 0.25800618E-01 0.59423885E+03</pdfrwt>
<pdfrwt beam="2">0</pdfrwt>
<totfact> 0.13730818E+03</totfact>
</mgrwt>
</event>
<event>
 6    1  0.1386179E-004  0.6478596E+03  0.7818608E-02  0.9810804E-01
         21   -1    0    0  501  502  0.00000000000E+00  0.00000000000E+00  0.12745881094E+03  0.12745881094E+03  0.00000000000E+00 0.  1.
         13   -1    0    0    0    0 -0.00000000000E+00 -0.00000000000E+00 -0.10000000000E+04  0.10000000000E+04  0.00000000000E+00 0.  1.
    9000005    2    1    2  501    0 -0.12676253888E+02  0.39566732362E+02 -0.87146459611E+03  0.10858971366E+04  0.64652597416E+03 0.  0.
         13    1    3    3    0    0 -0.18190523514E+03 -0.18592772212E+03 -0.72066046722E+03  0.76616587070E+03  0.00000000000E+00 0.  1.
          1    1    3    3  501    0  0.16922898125E+03  0.22549445448E+03 -0.15080412889E+03  0.31973126589E+03  0.00000000000E+00 0.  1.
         -1    1    1    2    0  502  0.12676253888E+02 -0.39566732362E+02 -0.10765929526E+01  0.41561674351E+02  0.00000000000E+00 0. -1.
<mgrwt>
<rscale>  1 0.64785959E+03</rscale>
<asrwt>0</asrwt>
<pdfrwt beam="1">  1       21 0.19609047E-01 0.64785959E+03</pdfrwt>
<pdfrwt beam="2">0</pdfrwt>
<totfact> 0.23309481E+03</totfact>
</mgrwt>
</event>
<event>
 6    1  0.1386179E-004  0.6465828E+03  0.7818608E-02  0.9813212E-01
         21   -1    0    0  501  502  0.00000000000E+00  0.00000000000E+00  0.59297795345E+03  0.59297795345E+03  0.00000000000E+00 0. -1.
         13   -1    0    0    0    0 -0.00000000000E+00 -0.00000000000E+00 -0.10000000000E+04  0.10000000000E+04  0.00000000000E+00 0.  1.
    9000005    2    1    2  501    0  0.10933952038E+02 -0.54136129165E+02 -0.89375749409E+03  0.11031191292E+04  0.64421974761E+03 0.  0.
         13    1    3    3    0    0 -0.23367604385E+03 -0.65594424970E+02 -0.80798956571E+03  0.84365529712E+03  0.00000000000E+00 0.  1.
          1    1    3    3  501    0  0.24460999588E+03  0.11458295805E+02 -0.85767928379E+02  0.25946383210E+03  0.00000000000E+00 0.  1.
         -1    1    1    2    0  502 -0.10933952038E+02  0.54136129165E+02  0.48673544754E+03  0.48985882423E+03  0.00000000000E+00 0. -1.
<mgrwt>
<rscale>  1 0.64658283E+03</rscale>
<asrwt>0</asrwt>
<pdfrwt beam="1">  1       21 0.91227375E-01 0.64658283E+03</pdfrwt>
<pdfrwt beam="2">0</pdfrwt>
<totfact> 0.90634335E+01</totfact>
</mgrwt>
</event>
<event>
 6    1  0.1386179E-004  0.6448320E+03  0.7818608E-02  0.9816525E-01
         21   -1    0    0  501  502  0.00000000000E+00  0.00000000000E+00  0.11557477316E+03  0.11557477316E+03  0.00000000000E+00 0.  1.
         13   -1    0    0    0    0 -0.00000000000E+00 -0.00000000000E+00 -0.10000000000E+04  0.10000000000E+04  0.00000000000E+00 0.  1.
    9000005    2    1    2  501    0 -0.10578657828E+02 -0.33392912379E+02 -0.83535997342E+03  0.10552888404E+04  0.64387984656E+03 0.  0.
         13    1    3    3    0    0  0.23567938063E+03 -0.22260630638E+03 -0.51931772442E+03  0.61220032423E+03  0.00000000000E+00 0.  1.
          1    1    3    3  501    0 -0.24625803846E+03  0.18921339400E+03 -0.31604224899E+03  0.44308851613E+03  0.00000000000E+00 0.  1.
         -3    1    1    2    0  502  0.10578657828E+02  0.33392912379E+02 -0.49065253429E+02  0.60285932792E+02  0.00000000000E+00 0. -1.
<mgrwt>
<rscale>  1 0.64483196E+03</rscale>
<asrwt>0</asrwt>
<pdfrwt beam="1">  1       21 0.17780734E-01 0.64483196E+03</pdfrwt>
<pdfrwt beam="2">0</pdfrwt>
<totfact> 0.28088537E+03</totfact>
</mgrwt>
</event>
<event>
 6    1  0.1386179E-004  0.6653029E+03  0.7818608E-02  0.9778481E-01
         21   -1    0    0  501  502  0.00000000000E+00  0.00000000000E+00  0.12258639250E+03  0.12258639250E+03  0.00000000000E+00 0.  1.
         13   -1    0    0    0    0 -0.00000000000E+00 -0.00000000000E+00 -0.10000000000E+04  0.10000000000E+04  0.00000000000E+00 0.  1.
    9000005    2    1    2  501    0 -0.11564235730E+02  0.27982590606E+02 -0.86116264676E+03  0.10882228850E+04  0.66461356161E+03 0.  0.
         13    1    3    3    0    0 -0.17143776396E+03  0.17433456917E+03 -0.51263696849E+02  0.24982276824E+03  0.00000000000E+00 0.  1.
          3    1    3    3  501    0  0.15987352823E+03 -0.14635197856E+03 -0.80989894991E+03  0.83840011672E+03  0.00000000000E+00 0.  1.
         -3    1    1    2    0  502  0.11564235730E+02 -0.27982590606E+02 -0.16250960742E+02  0.34363507535E+02  0.00000000000E+00 0. -1.
<mgrwt>
<rscale>  1 0.66530290E+03</rscale>
<asrwt>0</asrwt>
<pdfrwt beam="1">  1       21 0.18859444E-01 0.66530290E+03</pdfrwt>
<pdfrwt beam="2">0</pdfrwt>
<totfact> 0.25095917E+03</totfact>
</mgrwt>
</event>
<event>
 6    1  0.1386179E-004  0.6719460E+03  0.7818608E-02  0.9766449E-01
         21   -1    0    0  501  502  0.00000000000E+00  0.00000000000E+00  0.27312938103E+03  0.27312938103E+03  0.00000000000E+00 0.  1.
         13   -1    0    0    0    0 -0.00000000000E+00 -0.00000000000E+00 -0.10000000000E+04  0.10000000000E+04  0.00000000000E+00 0.  1.
    9000005    2    1    2  501    0 -0.91773576657E+02 -0.54285962801E+02 -0.86708849340E+03  0.10969748823E+04  0.66343204759E+03 0.  0.
         13    1    3    3    0    0 -0.15619259099E+03  0.16125550455E+03 -0.25621507418E+02  0.22595558163E+03  0.00000000000E+00 0.  1.
          3    1    3    3  501    0  0.64419014337E+02 -0.21554146735E+03 -0.84146698598E+03  0.87101930062E+03  0.00000000000E+00 0.  1.
         -1    1    1    2    0  502  0.91773576657E+02  0.54285962801E+02  0.14021787443E+03  0.17615449878E+03  0.00000000000E+00 0. -1.
<mgrwt>
<rscale>  1 0.67194601E+03</rscale>
<asrwt>0</asrwt>
<pdfrwt beam="1">  1       21 0.42019904E-01 0.67194601E+03</pdfrwt>
<pdfrwt beam="2">0</pdfrwt>
<totfact> 0.50873499E+02</totfact>
</mgrwt>
</event>
<event>
 6    1  0.1386179E-004  0.7459421E+03  0.7818608E-02  0.9641738E-01
         21   -1    0    0  501  502  0.00000000000E+00  0.00000000000E+00  0.32642661851E+03  0.32642661851E+03  0.00000000000E+00 0. -1.
         13   -1    0    0    0    0 -0.00000000000E+00 -0.00000000000E+00 -0.10000000000E+04  0.10000000000E+04  0.00000000000E+00 0.  1.
    9000005    2    1    2  501    0  0.20663651075E+00 -0.36753160415E+03 -0.30489757253E+03  0.80584869461E+03  0.64911483277E+03 0.  0.
         13    1    3    3    0    0  0.22483215848E+01  0.11993829837E+03  0.11222537442E+03  0.16427046305E+03  0.00000000000E+00 0.  1.
          3    1    3    3  501    0 -0.20416850740E+01 -0.48746990252E+03 -0.41712294695E+03  0.64157823156E+03  0.00000000000E+00 0.  1.
         -3    1    1    2    0  502 -0.20663651075E+00  0.36753160415E+03 -0.36867580895E+03  0.52057792390E+03  0.00000000000E+00 0. -1.
<mgrwt>
<rscale>  1 0.74594208E+03</rscale>
<asrwt>0</asrwt>
<pdfrwt beam="1">  1       21 0.50219478E-01 0.74594208E+03</pdfrwt>
<pdfrwt beam="2">0</pdfrwt>
<totfact> 0.34643459E+02</totfact>
</mgrwt>
</event>
<event>
 6    1  0.1386179E-004  0.6497935E+03  0.7818608E-02  0.9807167E-01
         21   -1    0    0  501  502  0.00000000000E+00  0.00000000000E+00  0.26658867164E+03  0.26658867164E+03  0.00000000000E+00 0.  1.
         13   -1    0    0    0    0 -0.00000000000E+00 -0.00000000000E+00 -0.10000000000E+04  0.10000000000E+04  0.00000000000E+00 0.  1.
    9000005    2    1    2  501    0 -0.77322610994E+02 -0.58181320470E+01 -0.88404821155E+03  0.10971658060E+04  0.64515031476E+03 0.  0.
         13    1    3    3    0    0  0.26104607670E+02  0.79796437362E+00 -0.96518891291E+03  0.96554219218E+03  0.00000000000E+00 0.  1.
          1    1    3    3  501    0 -0.10342721866E+03 -0.66160964206E+01  0.81140701356E+02  0.13162361380E+03  0.00000000000E+00 0.  1.
         -1    1    1    2    0  502  0.77322610994E+02  0.58181320470E+01  0.15063688318E+03  0.16942286566E+03  0.00000000000E+00 0. -1.
<mgrwt>
<rscale>  1 0.64979348E+03</rscale>
<asrwt>0</asrwt>
<pdfrwt beam="1">  1       21 0.41013641E-01 0.64979348E+03</pdfrwt>
<pdfrwt beam="2">0</pdfrwt>
<totfact> 0.53611746E+02</totfact>
</mgrwt>
</event>
<event>
 6    1  0.1386179E-004  0.6563076E+03  0.7818608E-02  0.9795015E-01
         21   -1    0    0  501  502  0.00000000000E+00  0.00000000000E+00  0.18642229806E+03  0.18642229806E+03  0.00000000000E+00 0.  1.
         13   -1    0    0    0    0 -0.00000000000E+00 -0.00000000000E+00 -0.10000000000E+04  0.10000000000E+04  0.00000000000E+00 0.  1.
    9000005    2    1    2  501    0 -0.83053371206E+02  0.29765433973E+02 -0.86384460275E+03  0.10848811495E+04  0.65035049580E+03 0.  0.
         13    1    3    3    0    0 -0.18332149549E+03 -0.10067028805E+03 -0.89355006878E+03  0.91769984364E+03  0.00000000000E+00 0.  1.
          1    1    3    3  501    0  0.10026812428E+03  0.13043572202E+03  0.29705466035E+02  0.16718130589E+03  0.00000000000E+00 0.  1.
         -1    1    1    2    0  502  0.83053371206E+02 -0.29765433973E+02  0.50266900811E+02  0.10154114853E+03  0.00000000000E+00 0. -1.
<mgrwt>
<rscale>  1 0.65630756E+03</rscale>
<asrwt>0</asrwt>
<pdfrwt beam="1">  1       21 0.28680353E-01 0.65630756E+03</pdfrwt>
<pdfrwt beam="2">0</pdfrwt>
<totfact> 0.11097476E+03</totfact>
</mgrwt>
</event>
<event>
 6    1  0.1386179E-004  0.6581772E+03  0.7818608E-02  0.9791555E-01
         21   -1    0    0  501  502  0.00000000000E+00  0.00000000000E+00  0.15555144255E+03  0.15555144255E+03  0.00000000000E+00 0.  1.
         13   -1    0    0    0    0 -0.00000000000E+00 -0.00000000000E+00 -0.10000000000E+04  0.10000000000E+04  0.00000000000E+00 0.  1.
    9000005    2    1    2  501    0 -0.27094909432E+02  0.12513849999E+03 -0.73967099335E+03  0.99010623640E+03  0.64560313093E+03 0.  0.
         13    1    3    3    0    0  0.22540321569E+02 -0.61324425621E+01 -0.82534842550E+03  0.82567893059E+03  0.00000000000E+00 0.  1.
          1    1    3    3  501    0 -0.49635231002E+02  0.13127094256E+03  0.85677432152E+02  0.16442730581E+03  0.00000000000E+00 0.  1.
         -3    1    1    2    0  502  0.27094909432E+02 -0.12513849999E+03 -0.10477756410E+03  0.16544520615E+03  0.00000000000E+00 0. -1.
<mgrwt>
<rscale>  1 0.65817717E+03</rscale>
<asrwt>0</asrwt>
<pdfrwt beam="1">  1       21 0.23930990E-01 0.65817717E+03</pdfrwt>
<pdfrwt beam="2">0</pdfrwt>
<totfact> 0.15854704E+03</totfact>
</mgrwt>
</event>
<event>
 6    1  0.1386179E-004  0.6602028E+03  0.7818608E-02  0.9787821E-01
         21   -1    0    0  501  502  0.00000000000E+00  0.00000000000E+00  0.12710834069E+03  0.12710834069E+03  0.00000000000E+00 0.  1.
         13   -1    0    0    0    0 -0.00000000000E+00 -0.00000000000E+00 -0.10000000000E+04  0.10000000000E+04  0.00000000000E+00 0.  1.
    9000005    2    1    2  501    0 -0.23406966813E+02  0.46947165526E+01 -0.88185665675E+03  0.11016074066E+04  0.65977101241E+03 0.  0.
         13    1    3    3    0    0 -0.12211511374E+03 -0.27306360688E+03 -0.20297277214E+03  0.36148828561E+03  0.00000000000E+00 0.  1.
          3    1    3    3  501    0  0.98708146926E+02  0.27775832343E+03 -0.67888388462E+03  0.74011912102E+03  0.00000000000E+00 0.  1.
         -1    1    1    2    0  502  0.23406966813E+02 -0.46947165526E+01  0.89649974431E+01  0.25500934062E+02  0.00000000000E+00 0. -1.
<mgrwt>
<rscale>  1 0.66020278E+03</rscale>
<asrwt>0</asrwt>
<pdfrwt beam="1">  1       21 0.19555129E-01 0.66020278E+03</pdfrwt>
<pdfrwt beam="2">0</pdfrwt>
<totfact> 0.23421728E+03</totfact>
</mgrwt>
</event>
<event>
 6    1  0.1386179E-004  0.7507858E+03  0.7818608E-02  0.9634118E-01
         21   -1    0    0  501  502  0.00000000000E+00  0.00000000000E+00  0.37570386457E+03  0.37570386457E+03  0.00000000000E+00 0. -1.
         13   -1    0    0    0    0 -0.00000000000E+00 -0.00000000000E+00 -0.10000000000E+04  0.10000000000E+04  0.00000000000E+00 0.  1.
    9000005    2    1    2  501    0 -0.37390334541E+03 -0.38727756941E+02 -0.65796268208E+03  0.99829561449E+03  0.64990437144E+03 0.  0.
         13    1    3    3    0    0 -0.34488721093E+03  0.22180523494E+03 -0.60497766994E+03  0.73085069038E+03  0.00000000000E+00 0.  1.
          3    1    3    3  501    0 -0.29016134475E+02 -0.26053299188E+03 -0.52985012148E+02  0.26744492410E+03  0.00000000000E+00 0.  1.
         -3    1    1    2    0  502  0.37390334541E+03  0.38727756941E+02  0.33666546650E+02  0.37740825008E+03  0.00000000000E+00 0. -1.
<mgrwt>
<rscale>  1 0.75078575E+03</rscale>
<asrwt>0</asrwt>
<pdfrwt beam="1">  1       21 0.57800593E-01 0.75078575E+03</pdfrwt>
<pdfrwt beam="2">0</pdfrwt>
<totfact> 0.25504288E+02</totfact>
</mgrwt>
</event>
<event>
 6    1  0.1386179E-004  0.6440898E+03  0.7818608E-02  0.9817933E-01
         21   -1    0    0  501  502  0.00000000000E+00  0.00000000000E+00  0.18312063388E+03  0.18312063388E+03  0.00000000000E+00 0.  1.
         13   -1    0    0    0    0 -0.00000000000E+00 -0.00000000000E+00 -0.10000000000E+04  0.10000000000E+04  0.00000000000E+00 0.  1.
    9000005    2    1    2  501    0  0.20197383860E+02 -0.10801409590E+02 -0.89445992143E+03  0.11022296744E+04  0.64368245223E+03 0.  0.
         13    1    3    3    0    0  0.11254576874E+03  0.29213606823E+03 -0.32918411582E+03  0.45428208696E+03  0.00000000000E+00 0.  1.
          3    1    3    3  501    0 -0.92348384881E+02 -0.30293747782E+03 -0.56527580561E+03  0.64794758744E+03  0.00000000000E+00 0.  1.
         -1    1    1    2    0  502 -0.20197383860E+02  0.10801409590E+02  0.77580555311E+02  0.80890959485E+02  0.00000000000E+00 0. -1.
<mgrwt>
<rscale>  1 0.64408983E+03</rscale>
<asrwt>0</asrwt>
<pdfrwt beam="1">  1       21 0.28172404E-01 0.64408983E+03</pdfrwt>
<pdfrwt beam="2">0</pdfrwt>
<totfact> 0.11507519E+03</totfact>
</mgrwt>
</event>
<event>
 6    1  0.1386179E-004  0.7078638E+03  0.7818608E-02  0.9703878E-01
         21   -1    0    0  501  502  0.00000000000E+00  0.00000000000E+00  0.18957631671E+03  0.18957631671E+03  0.00000000000E+00 0.  1.
         13   -1    0    0    0    0 -0.00000000000E+00 -0.00000000000E+00 -0.10000000000E+04  0.10000000000E+04  0.00000000000E+00 0.  1.
    9000005    2    1    2  501    0 -0.12327646794E+03  0.46506895126E+02 -0.78198441908E+03  0.10547847347E+04  0.69549351252E+03 0.  0.
         13    1    3    3    0    0 -0.24625998846E+02  0.67515847427E+02  0.12393673329E+03  0.14326598805E+03  0.00000000000E+00 0.  1.
          1    1    3    3  501    0 -0.98650469089E+02 -0.21008952301E+02 -0.90592115237E+03  0.91151874662E+03  0.00000000000E+00 0.  1.
         -3    1    1    2    0  502  0.12327646794E+03 -0.46506895126E+02 -0.28439264211E+02  0.13479158204E+03  0.00000000000E+00 0. -1.
<mgrwt>
<rscale>  1 0.70786383E+03</rscale>
<asrwt>0</asrwt>
<pdfrwt beam="1">  1       21 0.29165586E-01 0.70786383E+03</pdfrwt>
<pdfrwt beam="2">0</pdfrwt>
<totfact> 0.10700057E+03</totfact>
</mgrwt>
</event>
<event>
 6    1  0.1386179E-004  0.6666843E+03  0.7818608E-02  0.9775966E-01
         21   -1    0    0  501  502  0.00000000000E+00  0.00000000000E+00  0.68406789414E+03  0.68406789414E+03  0.00000000000E+00 0. -1.
         13   -1    0    0    0    0 -0.00000000000E+00 -0.00000000000E+00 -0.10000000000E+04  0.10000000000E+04  0.00000000000E+00 0.  1.
    9000005    2    1    2  501    0 -0.79197821556E+02 -0.11032744014E+03 -0.87991933555E+03  0.11039592541E+04  0.65270480209E+03 0.  0.
         13    1    3    3    0    0  0.49063183721E+02 -0.21379967916E+03 -0.91032661882E+03  0.93638242815E+03  0.00000000000E+00 0.  1.
          1    1    3    3  501    0 -0.12826100528E+03  0.10347223902E+03  0.30407283275E+02  0.16757682596E+03  0.00000000000E+00 0.  1.
         -3    1    1    2    0  502  0.79197821556E+02  0.11032744014E+03  0.56398722969E+03  0.58010864003E+03  0.00000000000E+00 0. -1.
<mgrwt>
<rscale>  1 0.66668433E+03</rscale>
<asrwt>0</asrwt>
<pdfrwt beam="1">  1       21 0.10524121E+00 0.66668433E+03</pdfrwt>
<pdfrwt beam="2">0</pdfrwt>
<totfact> 0.63753198E+01</totfact>
</mgrwt>
</event>
<event>
 6    1  0.1386179E-004  0.6590519E+03  0.7818608E-02  0.9789941E-01
         21   -1    0    0  501  502  0.00000000000E+00  0.00000000000E+00  0.22662990745E+03  0.22662990745E+03  0.00000000000E+00 0.  1.
         13   -1    0    0    0    0 -0.00000000000E+00 -0.00000000000E+00 -0.10000000000E+04  0.10000000000E+04  0.00000000000E+00 0.  1.
    9000005    2    1    2  501    0 -0.14488004984E+03 -0.56062330908E+02 -0.83128106252E+03  0.10608381880E+04  0.64048125848E+03 0.  0.
         13    1    3    3    0    0 -0.21873234522E+03  0.45652339466E+02 -0.89319434456E+03  0.92071934491E+03  0.00000000000E+00 0.  1.
          3    1    3    3  501    0  0.73852295371E+02 -0.10171467037E+03  0.61913282040E+02  0.14011884311E+03  0.00000000000E+00 0.  1.
         -1    1    1    2    0  502  0.14488004984E+03  0.56062330908E+02  0.57910969975E+02  0.16579171943E+03  0.00000000000E+00 0. -1.
<mgrwt>
<rscale>  1 0.65905194E+03</rscale>
<asrwt>0</asrwt>
<pdfrwt beam="1">  1       21 0.34866139E-01 0.65905194E+03</pdfrwt>
<pdfrwt beam="2">0</pdfrwt>
<totfact> 0.74858756E+02</totfact>
</mgrwt>
</event>
<event>
 6    1  0.1386179E-004  0.6500064E+03  0.7818608E-02  0.9806767E-01
         21   -1    0    0  501  502  0.00000000000E+00  0.00000000000E+00  0.12318471975E+03  0.12318471975E+03  0.00000000000E+00 0.  1.
         13   -1    0    0    0    0 -0.00000000000E+00 -0.00000000000E+00 -0.10000000000E+04  0.10000000000E+04  0.00000000000E+00 0.  1.
    9000005    2    1    2  501    0 -0.40762654867E+02 -0.27329738434E+02 -0.83840885534E+03  0.10608664872E+04  0.64815105206E+03 0.  0.
         13    1    3    3    0    0 -0.10377563296E+03  0.22613065132E+03 -0.74176924150E+03  0.78238485485E+03  0.00000000000E+00 0.  1.
          3    1    3    3  501    0  0.63012978092E+02 -0.25346038976E+03 -0.96639613837E+02  0.27848163233E+03  0.00000000000E+00 0.  1.
         -1    1    1    2    0  502  0.40762654867E+02  0.27329738434E+02 -0.38406424919E+02  0.62318232563E+02  0.00000000000E+00 0. -1.
<mgrwt>
<rscale>  1 0.65000638E+03</rscale>
<asrwt>0</asrwt>
<pdfrwt beam="1">  1       21 0.18951495E-01 0.65000638E+03</pdfrwt>
<pdfrwt beam="2">0</pdfrwt>
<totfact> 0.24877401E+03</totfact>
</mgrwt>
</event>
<event>
 6    1  0.1386179E-004  0.6895147E+03  0.7818608E-02  0.9735333E-01
         21   -1    0    0  501  502  0.00000000000E+00  0.00000000000E+00  0.26936036718E+03  0.26936036718E+03  0.00000000000E+00 0. -1.
         13   -1    0    0    0    0 -0.00000000000E+00 -0.00000000000E+00 -0.10000000000E+04  0.10000000000E+04  0.00000000000E+00 0.  1.
    9000005    2    1    2  501    0 -0.18965109737E+03  0.13446684200E+03 -0.76996393700E+03  0.10335738722E+04  0.64913913349E+03 0.  0.
         13    1    3    3    0    0 -0.38472848559E+03  0.19877479825E+03 -0.31843539233E+03  0.53752072251E+03  0.00000000000E+00 0.  1.
          1    1    3    3  501    0  0.19507738822E+03 -0.64307956247E+02 -0.45152854467E+03  0.49605314966E+03  0.00000000000E+00 0.  1.
         -1    1    1    2    0  502  0.18965109737E+03 -0.13446684200E+03  0.39324304180E+02  0.23578649501E+03  0.00000000000E+00 0. -1.
<mgrwt>
<rscale>  1 0.68951467E+03</rscale>
<asrwt>0</asrwt>
<pdfrwt beam="1">  1       21 0.41440055E-01 0.68951467E+03</pdfrwt>
<pdfrwt beam="2">0</pdfrwt>
<totfact> 0.52299593E+02</totfact>
</mgrwt>
</event>
<event>
 6    1  0.1386179E-004  0.7178917E+03  0.7818608E-02  0.9687115E-01
         21   -1    0    0  501  502  0.00000000000E+00  0.00000000000E+00  0.16307475530E+03  0.16307475530E+03  0.00000000000E+00 0.  1.
         13   -1    0    0    0    0 -0.00000000000E+00 -0.00000000000E+00 -0.10000000000E+04  0.10000000000E+04  0.00000000000E+00 0.  1.
    9000005    2    1    2  501    0  0.35805935132E+02 -0.99830266511E+01 -0.85927829114E+03  0.11196998259E+04  0.71692872225E+03 0.  0.
         13    1    3    3    0    0 -0.21604728552E+03  0.13869126775E+02 -0.83835402144E+03  0.86585578910E+03  0.00000000000E+00 0.  1.
          3    1    3    3  501    0  0.25185322065E+03 -0.23852153426E+02 -0.20924269699E+02  0.25384403684E+03  0.00000000000E+00 0.  1.
         -1    1    1    2    0  502 -0.35805935132E+02  0.99830266511E+01  0.22353046444E+02  0.43374929361E+02  0.00000000000E+00 0. -1.
<mgrwt>
<rscale>  1 0.71789172E+03</rscale>
<asrwt>0</asrwt>
<pdfrwt beam="1">  1       21 0.25088423E-01 0.71789172E+03</pdfrwt>
<pdfrwt beam="2">0</pdfrwt>
<totfact> 0.14412444E+03</totfact>
</mgrwt>
</event>
<event>
 6    1  0.1386179E-004  0.6926211E+03  0.7818608E-02  0.9729935E-01
         21   -1    0    0  501  502  0.00000000000E+00  0.00000000000E+00  0.18467742702E+03  0.18467742702E+03  0.00000000000E+00 0.  1.
         13   -1    0    0    0    0 -0.00000000000E+00 -0.00000000000E+00 -0.10000000000E+04  0.10000000000E+04  0.00000000000E+00 0.  1.
    9000005    2    1    2  501    0  0.36817029242E+01  0.20753970760E+02 -0.87814129448E+03  0.11184167750E+04  0.69230027245E+03 0.  0.
         13    1    3    3    0    0  0.28711219735E+03  0.13573107783E+03 -0.20217639036E+03  0.37647261810E+03  0.00000000000E+00 0.  1.
          3    1    3    3  501    0 -0.28343049443E+03 -0.11497710707E+03 -0.67596490412E+03  0.74194415688E+03  0.00000000000E+00 0.  1.
         -1    1    1    2    0  502 -0.36817029242E+01 -0.20753970760E+02  0.62818721499E+02  0.66260652046E+02  0.00000000000E+00 0. -1.
<mgrwt>
<rscale>  1 0.69262107E+03</rscale>
<asrwt>0</asrwt>
<pdfrwt beam="1">  1       21 0.28411911E-01 0.69262107E+03</pdfrwt>
<pdfrwt beam="2">0</pdfrwt>
<totfact> 0.11283584E+03</totfact>
</mgrwt>
</event>
<event>
 6    1  0.1386179E-004  0.6561679E+03  0.7818608E-02  0.9795274E-01
         21   -1    0    0  501  502  0.00000000000E+00  0.00000000000E+00  0.14689657921E+03  0.14689657921E+03  0.00000000000E+00 0.  1.
         13   -1    0    0    0    0 -0.00000000000E+00 -0.00000000000E+00 -0.10000000000E+04  0.10000000000E+04  0.00000000000E+00 0.  1.
    9000005    2    1    2  501    0 -0.25912596747E+02 -0.28856884025E+01 -0.88750526962E+03  0.11037308860E+04  0.65564965891E+03 0.  0.
         13    1    3    3    0    0 -0.15080785772E+03 -0.24280888714E+03 -0.74511274885E+03  0.79805524503E+03  0.00000000000E+00 0.  1.
          3    1    3    3  501    0  0.12489526097E+03  0.23992319874E+03 -0.14239252077E+03  0.30567564096E+03  0.00000000000E+00 0.  1.
         -1    1    1    2    0  502  0.25912596747E+02  0.28856884025E+01  0.34401848826E+02  0.43165693211E+02  0.00000000000E+00 0. -1.
<mgrwt>
<rscale>  1 0.65616786E+03</rscale>
<asrwt>0</asrwt>
<pdfrwt beam="1">  1       21 0.22599473E-01 0.65616786E+03</pdfrwt>
<pdfrwt beam="2">0</pdfrwt>
<totfact> 0.17725075E+03</totfact>
</mgrwt>
</event>
<event>
 6    1  0.1386179E-004  0.6544006E+03  0.7818608E-02  0.9798557E-01
         21   -1    0    0  501  502  0.00000000000E+00  0.00000000000E+00  0.33007725155E+03  0.33007725155E+03  0.00000000000E+00 0. -1.
         13   -1    0    0    0    0 -0.00000000000E+00 -0.00000000000E+00 -0.10000000000E+04  0.10000000000E+04  0.00000000000E+00 0.  1.
    9000005    2    1    2  501    0  0.69049403599E+01 -0.88933958038E+02 -0.88301368141E+03  0.10990693019E+04  0.64829255873E+03 0.  0.
         13    1    3    3    0    0 -0.27491354478E+03  0.86433193825E+02 -0.23837155330E+03  0.37399084417E+03  0.00000000000E+00 0.  1.
          1    1    3    3  501    0  0.28181848514E+03 -0.17536715186E+03 -0.64464212812E+03  0.72507845773E+03  0.00000000000E+00 0.  1.
         -3    1    1    2    0  502 -0.69049403599E+01  0.88933958038E+02  0.21309093297E+03  0.23100794966E+03  0.00000000000E+00 0. -1.
<mgrwt>
<rscale>  1 0.65440062E+03</rscale>
<asrwt>0</asrwt>
<pdfrwt beam="1">  1       21 0.50781114E-01 0.65440062E+03</pdfrwt>
<pdfrwt beam="2">0</pdfrwt>
<totfact> 0.34102766E+02</totfact>
</mgrwt>
</event>
<event>
 6    1  0.1386179E-004  0.6584116E+03  0.7818608E-02  0.9791122E-01
         21   -1    0    0  501  502  0.00000000000E+00  0.00000000000E+00  0.43003934481E+03  0.43003934481E+03  0.00000000000E+00 0. -1.
         13   -1    0    0    0    0 -0.00000000000E+00 -0.00000000000E+00 -0.10000000000E+04  0.10000000000E+04  0.00000000000E+00 0.  1.
    9000005    2    1    2  501    0 -0.10057738707E+03  0.11787803061E+02 -0.88275863668E+03  0.11012577451E+04  0.65057747225E+03 0.  0.
         13    1    3    3    0    0 -0.23137883845E+03  0.16532607640E+03 -0.11382283198E+03  0.30630787698E+03  0.00000000000E+00 0.  1.
          3    1    3    3  501    0  0.13080145138E+03 -0.15353827334E+03 -0.76893580469E+03  0.79494986811E+03  0.00000000000E+00 0.  1.
         -3    1    1    2    0  502  0.10057738707E+03 -0.11787803061E+02  0.31279798148E+03  0.32878159972E+03  0.00000000000E+00 0. -1.
<mgrwt>
<rscale>  1 0.65841158E+03</rscale>
<asrwt>0</asrwt>
<pdfrwt beam="1">  1       21 0.66159897E-01 0.65841158E+03</pdfrwt>
<pdfrwt beam="2">0</pdfrwt>
<totfact> 0.19062549E+02</totfact>
</mgrwt>
</event>
<event>
 6    1  0.1386179E-004  0.6373339E+03  0.7818608E-02  0.9830841E-01
         21   -1    0    0  501  502  0.00000000000E+00  0.00000000000E+00  0.23660054169E+03  0.23660054169E+03  0.00000000000E+00 0.  1.
         13   -1    0    0    0    0 -0.00000000000E+00 -0.00000000000E+00 -0.10000000000E+04  0.10000000000E+04  0.00000000000E+00 0.  1.
    9000005    2    1    2  501    0 -0.33468049756E+01  0.35236151566E+02 -0.89589175559E+03  0.10994619391E+04  0.63635032044E+03 0.  0.
         13    1    3    3    0    0 -0.26488164008E+03  0.18241787401E+02 -0.14154306338E+03  0.30088118062E+03  0.00000000000E+00 0.  1.
          1    1    3    3  501    0  0.26153483510E+03  0.16994364165E+02 -0.75434869221E+03  0.79858075849E+03  0.00000000000E+00 0.  1.
         -3    1    1    2    0  502  0.33468049756E+01 -0.35236151566E+02  0.13249229728E+03  0.13713860259E+03  0.00000000000E+00 0. -1.
<mgrwt>
<rscale>  1 0.63733391E+03</rscale>
<asrwt>0</asrwt>
<pdfrwt beam="1">  1       21 0.36400082E-01 0.63733391E+03</pdfrwt>
<pdfrwt beam="2">0</pdfrwt>
<totfact> 0.68663970E+02</totfact>
</mgrwt>
</event>
<event>
 6    1  0.1386179E-004  0.6387076E+03  0.7818608E-02  0.9828202E-01
         21   -1    0    0  501  502  0.00000000000E+00  0.00000000000E+00  0.43309592546E+03  0.43309592546E+03  0.00000000000E+00 0. -1.
         13   -1    0    0    0    0 -0.00000000000E+00 -0.00000000000E+00 -0.10000000000E+04  0.10000000000E+04  0.00000000000E+00 0.  1.
    9000005    2    1    2  501    0  0.18830666111E+02 -0.23787922809E+02 -0.89724708041E+03  0.11013626579E+04  0.63798661564E+03 0.  0.
         13    1    3    3    0    0  0.22956619780E+03 -0.15639723614E+03 -0.77640487796E+03  0.82460006619E+03  0.00000000000E+00 0.  1.
          1    1    3    3  501    0 -0.21073553169E+03  0.13260931333E+03 -0.12084220245E+03  0.27676259175E+03  0.00000000000E+00 0.  1.
         -3    1    1    2    0  502 -0.18830666111E+02  0.23787922809E+02  0.33034300586E+03  0.33173326752E+03  0.00000000000E+00 0. -1.
<mgrwt>
<rscale>  1 0.63870759E+03</rscale>
<asrwt>0</asrwt>
<pdfrwt beam="1">  1       21 0.66630140E-01 0.63870759E+03</pdfrwt>
<pdfrwt beam="2">0</pdfrwt>
<totfact> 0.18804245E+02</totfact>
</mgrwt>
</event>
<event>
 6    1  0.1386179E-004  0.5963595E+03  0.7818608E-02  0.9912988E-01
         21   -1    0    0  501  502  0.00000000000E+00  0.00000000000E+00  0.11737099470E+03  0.11737099470E+03  0.00000000000E+00 0.  1.
         13   -1    0    0    0    0 -0.00000000000E+00 -0.00000000000E+00 -0.10000000000E+04  0.10000000000E+04  0.00000000000E+00 0.  1.
    9000005    2    1    2  501    0 -0.92261113567E+01  0.54989299320E+02 -0.87805468242E+03  0.10614257661E+04  0.59374715789E+03 0.  0.
         13    1    3    3    0    0  0.21021955729E+03 -0.17474003383E+03 -0.47708258127E+03  0.54984918936E+03  0.00000000000E+00 0.  1.
          1    1    3    3  501    0 -0.21944566865E+03  0.22972933315E+03 -0.40097210114E+03  0.51157657676E+03  0.00000000000E+00 0.  1.
         -3    1    1    2    0  502  0.92261113567E+01 -0.54989299320E+02 -0.45743228873E+01  0.55945228575E+02  0.00000000000E+00 0. -1.
<mgrwt>
<rscale>  1 0.59635948E+03</rscale>
<asrwt>0</asrwt>
<pdfrwt beam="1">  1       21 0.18057076E-01 0.59635948E+03</pdfrwt>
<pdfrwt beam="2">0</pdfrwt>
<totfact> 0.27325235E+03</totfact>
</mgrwt>
</event>
<event>
 6    1  0.1386179E-004  0.7609336E+03  0.7818608E-02  0.9618352E-01
         21   -1    0    0  501  502  0.00000000000E+00  0.00000000000E+00  0.52959985086E+03  0.52959985086E+03  0.00000000000E+00 0. -1.
         13   -1    0    0    0    0 -0.00000000000E+00 -0.00000000000E+00 -0.10000000000E+04  0.10000000000E+04  0.00000000000E+00 0.  1.
    9000005    2    1    2  501    0  0.58654775638E+02  0.34627471393E+03 -0.75920190495E+03  0.10748988344E+04  0.67503585941E+03 0.  0.
         13    1    3    3    0    0  0.29081465029E+02  0.39179084119E+02  0.12725531939E+03  0.13628884237E+03  0.00000000000E+00 0.  1.
          3    1    3    3  501    0  0.29573310609E+02  0.30709562981E+03 -0.88645722434E+03  0.93860999203E+03  0.00000000000E+00 0.  1.
         -1    1    1    2    0  502 -0.58654775638E+02 -0.34627471393E+03  0.28880175581E+03  0.45470101646E+03  0.00000000000E+00 0. -1.
<mgrwt>
<rscale>  1 0.76093362E+03</rscale>
<asrwt>0</asrwt>
<pdfrwt beam="1">  1       21 0.81476898E-01 0.76093362E+03</pdfrwt>
<pdfrwt beam="2">0</pdfrwt>
<totfact> 0.11681365E+02</totfact>
</mgrwt>
</event>
<event>
 6    1  0.1386179E-004  0.6414475E+03  0.7818608E-02  0.9822961E-01
         21   -1    0    0  501  502  0.00000000000E+00  0.00000000000E+00  0.34578174759E+03  0.34578174759E+03  0.00000000000E+00 0. -1.
         13   -1    0    0    0    0 -0.00000000000E+00 -0.00000000000E+00 -0.10000000000E+04  0.10000000000E+04  0.00000000000E+00 0.  1.
    9000005    2    1    2  501    0  0.25372348427E+02  0.28670132707E+02 -0.89547135482E+03  0.11015097844E+04  0.64030393196E+03 0.  0.
         13    1    3    3    0    0  0.29529710697E+03  0.10897943905E+03 -0.67176439854E+03  0.74185194389E+03  0.00000000000E+00 0.  1.
          3    1    3    3  501    0 -0.26992475854E+03 -0.80309306343E+02 -0.22370695628E+03  0.35965784052E+03  0.00000000000E+00 0.  1.
         -3    1    1    2    0  502 -0.25372348427E+02 -0.28670132707E+02  0.24125310241E+03  0.24427196318E+03  0.00000000000E+00 0. -1.
<mgrwt>
<rscale>  1 0.64144747E+03</rscale>
<asrwt>0</asrwt>
<pdfrwt beam="1">  1       21 0.53197190E-01 0.64144747E+03</pdfrwt>
<pdfrwt beam="2">0</pdfrwt>
<totfact> 0.30889640E+02</totfact>
</mgrwt>
</event>
<event>
 6    1  0.1386179E-004  0.6747858E+03  0.7818608E-02  0.9761351E-01
         21   -1    0    0  501  502  0.00000000000E+00  0.00000000000E+00  0.20417294929E+03  0.20417294929E+03  0.00000000000E+00 0. -1.
         13   -1    0    0    0    0 -0.00000000000E+00 -0.00000000000E+00 -0.10000000000E+04  0.10000000000E+04  0.00000000000E+00 0.  1.
    9000005    2    1    2  501    0  0.12153378543E+01 -0.29278868251E+02 -0.88351045792E+03  0.11117223729E+04  0.67414922383E+03 0.  0.
         13    1    3    3    0    0  0.23110782227E+03 -0.78746045265E+02 -0.54713013510E+02  0.25021046942E+03  0.00000000000E+00 0.  1.
          1    1    3    3  501    0 -0.22989248441E+03  0.49467177015E+02 -0.82879744441E+03  0.86151190349E+03  0.00000000000E+00 0.  1.
         -3    1    1    2    0  502 -0.12153378543E+01  0.29278868251E+02  0.87683407210E+02  0.92450576375E+02  0.00000000000E+00 0. -1.
<mgrwt>
<rscale>  1 0.67478582E+03</rscale>
<asrwt>0</asrwt>
<pdfrwt beam="1">  1       21 0.31411222E-01 0.67478582E+03</pdfrwt>
<pdfrwt beam="2">0</pdfrwt>
<totfact> 0.92386990E+02</totfact>
</mgrwt>
</event>
<event>
 6    1  0.1386179E-004  0.6214344E+03  0.7818608E-02  0.9861908E-01
         21   -1    0    0  501  502  0.00000000000E+00  0.00000000000E+00  0.10663153266E+03  0.10663153266E+03  0.00000000000E+00 0.  1.
         13   -1    0    0    0    0 -0.00000000000E+00 -0.00000000000E+00 -0.10000000000E+04  0.10000000000E+04  0.00000000000E+00 0.  1.
    9000005    2    1    2  501    0  0.26895324236E+01 -0.20158880384E+02 -0.89078573413E+03  0.10861306899E+04  0.62110147107E+03 0.  0.
         13    1    3    3    0    0 -0.30782818249E+03 -0.30162039733E+00 -0.49123422035E+03  0.57971487833E+03  0.00000000000E+00 0.  1.
          1    1    3    3  501    0  0.31051771491E+03 -0.19857259987E+02 -0.39955151378E+03  0.50641581158E+03  0.00000000000E+00 0.  1.
         -1    1    1    2    0  502 -0.26895324236E+01  0.20158880384E+02 -0.25827332100E+01  0.20500842759E+02  0.00000000000E+00 0. -1.
<mgrwt>
<rscale>  1 0.62143435E+03</rscale>
<asrwt>0</asrwt>
<pdfrwt beam="1">  1       21 0.16404851E-01 0.62143435E+03</pdfrwt>
<pdfrwt beam="2">0</pdfrwt>
<totfact> 0.32725125E+03</totfact>
</mgrwt>
</event>
<event>
 6    1  0.1386179E-004  0.6673105E+03  0.7818608E-02  0.9774829E-01
         21   -1    0    0  501  502  0.00000000000E+00  0.00000000000E+00  0.20216392516E+03  0.20216392516E+03  0.00000000000E+00 0.  1.
         13   -1    0    0    0    0 -0.00000000000E+00 -0.00000000000E+00 -0.10000000000E+04  0.10000000000E+04  0.00000000000E+00 0.  1.
    9000005    2    1    2  501    0  0.10208707435E+03  0.98313198576E+02 -0.82159959389E+03  0.10584560249E+04  0.65208589018E+03 0.  0.
         13    1    3    3    0    0 -0.15088001548E+03  0.17161191634E+03 -0.37828012946E+02  0.23161689805E+03  0.00000000000E+00 0.  1.
          3    1    3    3  501    0  0.25296708983E+03 -0.73298717761E+02 -0.78377158094E+03  0.82683912683E+03  0.00000000000E+00 0.  1.
         -3    1    1    2    0  502 -0.10208707435E+03 -0.98313198576E+02  0.23763519046E+02  0.14370790027E+03  0.00000000000E+00 0. -1.
<mgrwt>
<rscale>  1 0.66731047E+03</rscale>
<asrwt>0</asrwt>
<pdfrwt beam="1">  1       21 0.31102141E-01 0.66731047E+03</pdfrwt>
<pdfrwt beam="2">0</pdfrwt>
<totfact> 0.94288942E+02</totfact>
</mgrwt>
</event>
<event>
 6    1  0.1386179E-004  0.5791761E+03  0.7818608E-02  0.9949576E-01
         21   -1    0    0  501  502  0.00000000000E+00  0.00000000000E+00  0.59061290423E+03  0.59061290423E+03  0.00000000000E+00 0. -1.
         13   -1    0    0    0    0 -0.00000000000E+00 -0.00000000000E+00 -0.10000000000E+04  0.10000000000E+04  0.00000000000E+00 0.  1.
    9000005    2    1    2  501    0 -0.23999650347E+02  0.12802097731E+01 -0.91582986922E+03  0.10836001776E+04  0.57867726191E+03 0.  0.
         13    1    3    3    0    0 -0.38138863004E+02 -0.18540888759E+03 -0.87066706289E+03  0.89100626422E+03  0.00000000000E+00 0.  1.
          3    1    3    3  501    0  0.14139212657E+02  0.18668909736E+03 -0.45162806329E+02  0.19259391341E+03  0.00000000000E+00 0.  1.
         -1    1    1    2    0  502  0.23999650347E+02 -0.12802097731E+01  0.50644277345E+03  0.50701272660E+03  0.00000000000E+00 0. -1.
<mgrwt>
<rscale>  1 0.57917614E+03</rscale>
<asrwt>0</asrwt>
<pdfrwt beam="1">  1       21 0.90863521E-01 0.57917614E+03</pdfrwt>
<pdfrwt beam="2">0</pdfrwt>
<totfact> 0.92437014E+01</totfact>
</mgrwt>
</event>
<event>
 6    1  0.1386179E-004  0.6367970E+03  0.7818608E-02  0.9831874E-01
         21   -1    0    0  501  502  0.00000000000E+00  0.00000000000E+00  0.13056350882E+03  0.13056350882E+03  0.00000000000E+00 0.  1.
         13   -1    0    0    0    0 -0.00000000000E+00 -0.00000000000E+00 -0.10000000000E+04  0.10000000000E+04  0.00000000000E+00 0.  1.
    9000005    2    1    2  501    0 -0.34629936348E+02  0.42497025084E+02 -0.86694400960E+03  0.10756869009E+04  0.63443294630E+03 0.  0.
         13    1    3    3    0    0 -0.25247712290E+03  0.20204719655E+03 -0.66178590395E+03  0.73656523804E+03  0.00000000000E+00 0.  1.
          3    1    3    3  501    0  0.21784718656E+03 -0.15955017147E+03 -0.20515810566E+03  0.33912166286E+03  0.00000000000E+00 0.  1.
         -3    1    1    2    0  502  0.34629936348E+02 -0.42497025084E+02 -0.24924815746E+01  0.54876607921E+02  0.00000000000E+00 0. -1.
<mgrwt>
<rscale>  1 0.63679698E+03</rscale>
<asrwt>0</asrwt>
<pdfrwt beam="1">  1       21 0.20086693E-01 0.63679698E+03</pdfrwt>
<pdfrwt beam="2">0</pdfrwt>
<totfact> 0.22268830E+03</totfact>
</mgrwt>
</event>
<event>
 6    1  0.1386179E-004  0.6636857E+03  0.7818608E-02  0.9781433E-01
         21   -1    0    0  501  502  0.00000000000E+00  0.00000000000E+00  0.16395994486E+03  0.16395994486E+03  0.00000000000E+00 0.  1.
         13   -1    0    0    0    0 -0.00000000000E+00 -0.00000000000E+00 -0.10000000000E+04  0.10000000000E+04  0.00000000000E+00 0.  1.
    9000005    2    1    2  501    0  0.12598463212E+02 -0.14040412064E+03 -0.73632931266E+03  0.99129185131E+03  0.64854193342E+03 0.  0.
         13    1    3    3    0    0 -0.14687717476E+03  0.78496517244E+02 -0.69820266869E+03  0.71778936621E+03  0.00000000000E+00 0.  1.
          3    1    3    3  501    0  0.15947563797E+03 -0.21890063788E+03 -0.38126643974E+02  0.27350248509E+03  0.00000000000E+00 0.  1.
         -3    1    1    2    0  502 -0.12598463212E+02  0.14040412064E+03 -0.99710742474E+02  0.17266809356E+03  0.00000000000E+00 0. -1.
<mgrwt>
<rscale>  1 0.66368568E+03</rscale>
<asrwt>0</asrwt>
<pdfrwt beam="1">  1       21 0.25224606E-01 0.66368568E+03</pdfrwt>
<pdfrwt beam="2">0</pdfrwt>
<totfact> 0.14298339E+03</totfact>
</mgrwt>
</event>
<event>
 6    1  0.1386179E-004  0.6653905E+03  0.7818608E-02  0.9778321E-01
         21   -1    0    0  501  502  0.00000000000E+00  0.00000000000E+00  0.17172042573E+03  0.17172042573E+03  0.00000000000E+00 0. -1.
         13   -1    0    0    0    0 -0.00000000000E+00 -0.00000000000E+00 -0.10000000000E+04  0.10000000000E+04  0.00000000000E+00 0.  1.
    9000005    2    1    2  501    0 -0.39878212469E+02  0.13650872527E+02 -0.88111476627E+03  0.11041321452E+04  0.66405417292E+03 0.  0.
         13    1    3    3    0    0 -0.15233904275E+03 -0.21604961291E+03 -0.78930643034E+03  0.83239969977E+03  0.00000000000E+00 0.  1.
          1    1    3    3  501    0  0.11246083028E+03  0.22970048544E+03 -0.91808335929E+02  0.27173244544E+03  0.00000000000E+00 0.  1.
         -3    1    1    2    0  502  0.39878212469E+02 -0.13650872527E+02  0.52835192008E+02  0.67588280530E+02  0.00000000000E+00 0. -1.
<mgrwt>
<rscale>  1 0.66539053E+03</rscale>
<asrwt>0</asrwt>
<pdfrwt beam="1">  1       21 0.26418526E-01 0.66539053E+03</pdfrwt>
<pdfrwt beam="2">0</pdfrwt>
<totfact> 0.13053505E+03</totfact>
</mgrwt>
</event>
<event>
 6    1  0.1386179E-004  0.6569091E+03  0.7818608E-02  0.9793900E-01
         21   -1    0    0  501  502  0.00000000000E+00  0.00000000000E+00  0.14084905636E+03  0.14084905636E+03  0.00000000000E+00 0.  1.
         13   -1    0    0    0    0 -0.00000000000E+00 -0.00000000000E+00 -0.10000000000E+04  0.10000000000E+04  0.00000000000E+00 0.  1.
    9000005    2    1    2  501    0 -0.18008071365E+02 -0.33018110878E+02 -0.87976547474E+03  0.10979603029E+04  0.65583157132E+03 0.  0.
         13    1    3    3    0    0  0.19128091450E+03 -0.24175577621E+03 -0.66376652863E+03  0.73186081199E+03  0.00000000000E+00 0.  1.
          1    1    3    3  501    0 -0.20928898587E+03  0.20873766533E+03 -0.21599894611E+03  0.36609949092E+03  0.00000000000E+00 0.  1.
         -3    1    1    2    0  502  0.18008071365E+02  0.33018110878E+02  0.20614531104E+02  0.42888753455E+02  0.00000000000E+00 0. -1.
<mgrwt>
<rscale>  1 0.65690908E+03</rscale>
<asrwt>0</asrwt>
<pdfrwt beam="1">  1       21 0.21669085E-01 0.65690908E+03</pdfrwt>
<pdfrwt beam="2">0</pdfrwt>
<totfact> 0.19227959E+03</totfact>
</mgrwt>
</event>
<event>
 6    1  0.1386179E-004  0.6556296E+03  0.7818608E-02  0.9796273E-01
         21   -1    0    0  501  502  0.00000000000E+00  0.00000000000E+00  0.31288144895E+03  0.31288144895E+03  0.00000000000E+00 0. -1.
         13   -1    0    0    0    0 -0.00000000000E+00 -0.00000000000E+00 -0.10000000000E+04  0.10000000000E+04  0.00000000000E+00 0.  1.
    9000005    2    1    2  501    0  0.48169949108E+00  0.65981825472E+02 -0.88664981725E+03  0.11027230337E+04  0.65230081802E+03 0.  0.
         13    1    3    3    0    0  0.26957738865E+03 -0.61106605623E+02 -0.69706003984E+03  0.74986577790E+03  0.00000000000E+00 0.  1.
          3    1    3    3  501    0 -0.26909568916E+03  0.12708843109E+03 -0.18958977741E+03  0.35285725576E+03  0.00000000000E+00 0.  1.
         -1    1    1    2    0  502 -0.48169949108E+00 -0.65981825472E+02  0.19953126620E+03  0.21015841530E+03  0.00000000000E+00 0. -1.
<mgrwt>
<rscale>  1 0.65562961E+03</rscale>
<asrwt>0</asrwt>
<pdfrwt beam="1">  1       21 0.48135606E-01 0.65562961E+03</pdfrwt>
<pdfrwt beam="2">0</pdfrwt>
<totfact> 0.38236563E+02</totfact>
</mgrwt>
</event>
<event>
 6    1  0.1386179E-004  0.6508583E+03  0.7818608E-02  0.9805170E-01
         21   -1    0    0  501  502  0.00000000000E+00  0.00000000000E+00  0.14573383044E+03  0.14573383044E+03  0.00000000000E+00 0.  1.
         13   -1    0    0    0    0 -0.00000000000E+00 -0.00000000000E+00 -0.10000000000E+04  0.10000000000E+04  0.00000000000E+00 0.  1.
    9000005    2    1    2  501    0  0.26449274584E+02 -0.30951868451E+02 -0.88223645871E+03  0.10963382905E+04  0.64958363276E+03 0.  0.
         13    1    3    3    0    0 -0.10927723932E+03  0.19674528268E+03 -0.78067538941E+03  0.81246802086E+03  0.00000000000E+00 0.  1.
          1    1    3    3  501    0  0.13572651390E+03 -0.22769715114E+03 -0.10156106930E+03  0.28387026968E+03  0.00000000000E+00 0.  1.
         -3    1    1    2    0  502 -0.26449274584E+02  0.30951868451E+02  0.27970289145E+02  0.49395539894E+02  0.00000000000E+00 0. -1.
<mgrwt>
<rscale>  1 0.65085826E+03</rscale>
<asrwt>0</asrwt>
<pdfrwt beam="1">  1       21 0.22420589E-01 0.65085826E+03</pdfrwt>
<pdfrwt beam="2">0</pdfrwt>
<totfact> 0.18004796E+03</totfact>
</mgrwt>
</event>
<event>
 6    1  0.1386179E-004  0.6165798E+03  0.7818608E-02  0.9871593E-01
         21   -1    0    0  501  502  0.00000000000E+00  0.00000000000E+00  0.11242785025E+03  0.11242785025E+03  0.00000000000E+00 0.  1.
         13   -1    0    0    0    0 -0.00000000000E+00 -0.00000000000E+00 -0.10000000000E+04  0.10000000000E+04  0.00000000000E+00 0.  1.
    9000005    2    1    2  501    0 -0.22459288375E+02 -0.43464952479E+01 -0.89633757608E+03  0.10879300064E+04  0.61615528630E+03 0.  0.
         13    1    3    3    0    0  0.24751985398E+03 -0.10485791129E+03 -0.66888293401E+03  0.72087838023E+03  0.00000000000E+00 0.  1.
          3    1    3    3  501    0 -0.26997914235E+03  0.10051141604E+03 -0.22745464207E+03  0.36705162615E+03  0.00000000000E+00 0.  1.
         -3    1    1    2    0  502  0.22459288375E+02  0.43464952479E+01  0.87654263281E+01  0.24497843863E+02  0.00000000000E+00 0. -1.
<mgrwt>
<rscale>  1 0.61657980E+03</rscale>
<asrwt>0</asrwt>
<pdfrwt beam="1">  1       21 0.17296592E-01 0.61657980E+03</pdfrwt>
<pdfrwt beam="2">0</pdfrwt>
<totfact> 0.29622117E+03</totfact>
</mgrwt>
</event>
<event>
 6    1  0.1386179E-004  0.6521968E+03  0.7818608E-02  0.9802666E-01
         21   -1    0    0  501  502  0.00000000000E+00  0.00000000000E+00  0.72697995442E+03  0.72697995442E+03  0.00000000000E+00 0. -1.
         13   -1    0    0    0    0 -0.00000000000E+00 -0.00000000000E+00 -0.10000000000E+04  0.10000000000E+04  0.00000000000E+00 0.  1.
    9000005    2    1    2  501    0 -0.36213362986E+02  0.40227022007E+02 -0.89235384284E+03  0.11052855171E+04  0.64994697670E+03 0.  0.
         13    1    3    3    0    0  0.26510189570E+03  0.99455774067E+02 -0.19639155533E+03  0.34458686729E+03  0.00000000000E+00 0.  1.
          1    1    3    3  501    0 -0.30131525869E+03 -0.59228752060E+02 -0.69596228751E+03  0.76069864982E+03  0.00000000000E+00 0.  1.
         -1    1    1    2    0  502  0.36213362986E+02 -0.40227022007E+02  0.61933379726E+03  0.62169443731E+03  0.00000000000E+00 0. -1.
<mgrwt>
<rscale>  1 0.65219682E+03</rscale>
<asrwt>0</asrwt>
<pdfrwt beam="1">  1       21 0.11184307E+00 0.65219682E+03</pdfrwt>
<pdfrwt beam="2">0</pdfrwt>
<totfact> 0.54878209E+01</totfact>
</mgrwt>
</event>
<event>
 6    1  0.1386179E-004  0.7023552E+03  0.7818608E-02  0.9713213E-01
         21   -1    0    0  501  502  0.00000000000E+00  0.00000000000E+00  0.36745915301E+03  0.36745915301E+03  0.00000000000E+00 0. -1.
         13   -1    0    0    0    0 -0.00000000000E+00 -0.00000000000E+00 -0.10000000000E+04  0.10000000000E+04  0.00000000000E+00 0.  1.
    9000005    2    1    2  501    0 -0.26470068332E+02  0.27523025654E+02 -0.87499538815E+03  0.11220159091E+04  0.70131632626E+03 0.  0.
         13    1    3    3    0    0  0.16395880451E+03 -0.18411207299E+03 -0.53073361289E+02  0.25218351785E+03  0.00000000000E+00 0.  1.
          3    1    3    3  501    0 -0.19042887284E+03  0.21163509864E+03 -0.82192202687E+03  0.86983239123E+03  0.00000000000E+00 0.  1.
         -3    1    1    2    0  502  0.26470068332E+02 -0.27523025654E+02  0.24245454116E+03  0.24544324393E+03  0.00000000000E+00 0. -1.
<mgrwt>
<rscale>  1 0.70235516E+03</rscale>
<asrwt>0</asrwt>
<pdfrwt beam="1">  1       21 0.56532176E-01 0.70235516E+03</pdfrwt>
<pdfrwt beam="2">0</pdfrwt>
<totfact> 0.26898621E+02</totfact>
</mgrwt>
</event>
<event>
 6    1  0.1386179E-004  0.6638707E+03  0.7818608E-02  0.9781094E-01
         21   -1    0    0  501  502  0.00000000000E+00  0.00000000000E+00  0.22593257525E+03  0.22593257525E+03  0.00000000000E+00 0.  1.
         13   -1    0    0    0    0 -0.00000000000E+00 -0.00000000000E+00 -0.10000000000E+04  0.10000000000E+04  0.00000000000E+00 0.  1.
    9000005    2    1    2  501    0 -0.12503946104E+03  0.50471932363E+01 -0.85078478595E+03  0.10791473768E+04  0.65196929977E+03 0.  0.
         13    1    3    3    0    0  0.19956450807E+02 -0.34769631917E+01  0.10776666925E+03  0.10965402046E+03  0.00000000000E+00 0.  1.
          1    1    3    3  501    0 -0.14499591185E+03  0.85241564280E+01 -0.95855145520E+03  0.96949335633E+03  0.00000000000E+00 0.  1.
         -1    1    1    2    0  502  0.12503946104E+03 -0.50471932363E+01  0.76717361205E+02  0.14678519846E+03  0.00000000000E+00 0. -1.
<mgrwt>
<rscale>  1 0.66387070E+03</rscale>
<asrwt>0</asrwt>
<pdfrwt beam="1">  1       21 0.34758857E-01 0.66387070E+03</pdfrwt>
<pdfrwt beam="2">0</pdfrwt>
<totfact> 0.75304747E+02</totfact>
</mgrwt>
</event>
<event>
 6    1  0.1386179E-004  0.6585065E+03  0.7818608E-02  0.9790947E-01
         21   -1    0    0  501  502  0.00000000000E+00  0.00000000000E+00  0.15404039580E+03  0.15404039580E+03  0.00000000000E+00 0.  1.
         13   -1    0    0    0    0 -0.00000000000E+00 -0.00000000000E+00 -0.10000000000E+04  0.10000000000E+04  0.00000000000E+00 0.  1.
    9000005    2    1    2  501    0  0.40433945197E+02 -0.11769258131E+03 -0.74025802953E+03  0.99076372721E+03  0.64664083172E+03 0.  0.
         13    1    3    3    0    0 -0.10623514969E+03  0.23751768456E+03 -0.20202366729E+03  0.32941481395E+03  0.00000000000E+00 0.  1.
          1    1    3    3  501    0  0.14666909488E+03 -0.35521026586E+03 -0.53823436223E+03  0.66134891325E+03  0.00000000000E+00 0.  1.
         -3    1    1    2    0  502 -0.40433945197E+02  0.11769258131E+03 -0.10570157467E+03  0.16327666859E+03  0.00000000000E+00 0. -1.
<mgrwt>
<rscale>  1 0.65850650E+03</rscale>
<asrwt>0</asrwt>
<pdfrwt beam="1">  1       21 0.23698522E-01 0.65850650E+03</pdfrwt>
<pdfrwt beam="2">0</pdfrwt>
<totfact> 0.16159285E+03</totfact>
</mgrwt>
</event>
<event>
 6    1  0.1386179E-004  0.6476971E+03  0.7818608E-02  0.9811110E-01
         21   -1    0    0  501  502  0.00000000000E+00  0.00000000000E+00  0.13014167603E+03  0.13014167603E+03  0.00000000000E+00 0.  1.
         13   -1    0    0    0    0 -0.00000000000E+00 -0.00000000000E+00 -0.10000000000E+04  0.10000000000E+04  0.00000000000E+00 0.  1.
    9000005    2    1    2  501    0  0.61906136580E+02 -0.39880849482E+02 -0.78823871169E+03  0.10202116391E+04  0.64349721842E+03 0.  0.
         13    1    3    3    0    0 -0.87782420633E+02 -0.28354062650E+03 -0.62261170709E+03  0.68974370461E+03  0.00000000000E+00 0.  1.
          1    1    3    3  501    0  0.14968855721E+03  0.24365977701E+03 -0.16562700460E+03  0.33046793452E+03  0.00000000000E+00 0.  1.
         -3    1    1    2    0  502 -0.61906136580E+02  0.39880849482E+02 -0.81619612286E+02  0.10993003689E+03  0.00000000000E+00 0. -1.
<mgrwt>
<rscale>  1 0.64769709E+03</rscale>
<asrwt>0</asrwt>
<pdfrwt beam="1">  1       21 0.20021796E-01 0.64769709E+03</pdfrwt>
<pdfrwt beam="2">0</pdfrwt>
<totfact> 0.22397729E+03</totfact>
</mgrwt>
</event>
<event>
 6    1  0.1386179E-004  0.6512579E+03  0.7818608E-02  0.9804422E-01
         21   -1    0    0  501  502  0.00000000000E+00  0.00000000000E+00  0.16842865018E+03  0.16842865018E+03  0.00000000000E+00 0. -1.
         13   -1    0    0    0    0 -0.00000000000E+00 -0.00000000000E+00 -0.10000000000E+04  0.10000000000E+04  0.00000000000E+00 0.  1.
    9000005    2    1    2  501    0  0.15962170573E+03 -0.49485945639E+02 -0.69655751462E+03  0.95358758463E+03  0.62945131871E+03 0.  0.
         13    1    3    3    0    0  0.35263330801E+03  0.95797889969E+02 -0.24037672776E+03  0.43738822217E+03  0.00000000000E+00 0.  1.
          1    1    3    3  501    0 -0.19301160228E+03 -0.14528383561E+03 -0.45618078686E+03  0.51619936246E+03  0.00000000000E+00 0.  1.
         -1    1    1    2    0  502 -0.15962170573E+03  0.49485945639E+02 -0.13501383520E+03  0.21484106556E+03  0.00000000000E+00 0. -1.
<mgrwt>
<rscale>  1 0.65125794E+03</rscale>
<asrwt>0</asrwt>
<pdfrwt beam="1">  1       21 0.25912099E-01 0.65125794E+03</pdfrwt>
<pdfrwt beam="2">0</pdfrwt>
<totfact> 0.13571254E+03</totfact>
</mgrwt>
</event>
<event>
 6    1  0.1386179E-004  0.6632935E+03  0.7818608E-02  0.9782150E-01
         21   -1    0    0  501  502  0.00000000000E+00  0.00000000000E+00  0.16616532409E+03  0.16616532409E+03  0.00000000000E+00 0.  1.
         13   -1    0    0    0    0 -0.00000000000E+00 -0.00000000000E+00 -0.10000000000E+04  0.10000000000E+04  0.00000000000E+00 0.  1.
    9000005    2    1    2  501    0  0.10181108744E+03 -0.73400456725E+02 -0.79375343430E+03  0.10344093736E+04  0.65131030474E+03 0.  0.
         13    1    3    3    0    0 -0.19133810178E+03  0.16897646478E+03 -0.18002122704E+03  0.31236350143E+03  0.00000000000E+00 0.  1.
          3    1    3    3  501    0  0.29314918921E+03 -0.24237692151E+03 -0.61373220726E+03  0.72204587212E+03  0.00000000000E+00 0.  1.
         -1    1    1    2    0  502 -0.10181108744E+03  0.73400456725E+02 -0.40081241613E+02  0.13175595054E+03  0.00000000000E+00 0. -1.
<mgrwt>
<rscale>  1 0.66329348E+03</rscale>
<asrwt>0</asrwt>
<pdfrwt beam="1">  1       21 0.25563895E-01 0.66329348E+03</pdfrwt>
<pdfrwt beam="2">0</pdfrwt>
<totfact> 0.13928260E+03</totfact>
</mgrwt>
</event>
<event>
 6    1  0.1386179E-004  0.6643715E+03  0.7818608E-02  0.9780180E-01
         21   -1    0    0  501  502  0.00000000000E+00  0.00000000000E+00  0.12598680897E+03  0.12598680897E+03  0.00000000000E+00 0.  1.
         13   -1    0    0    0    0 -0.00000000000E+00 -0.00000000000E+00 -0.10000000000E+04  0.10000000000E+04  0.00000000000E+00 0.  1.
    9000005    2    1    2  501    0 -0.24173280217E+02 -0.21436032360E+02 -0.86807853222E+03  0.10931375908E+04  0.66358541525E+03 0.  0.
         13    1    3    3    0    0  0.22890247127E+03 -0.21377107810E+03 -0.60201595872E+03  0.67861449273E+03  0.00000000000E+00 0.  1.
          1    1    3    3  501    0 -0.25307575149E+03  0.19233504574E+03 -0.26606257350E+03  0.41452309806E+03  0.00000000000E+00 0.  1.
         -1    1    1    2    0  502  0.24173280217E+02  0.21436032360E+02 -0.59346588166E+01  0.32849218180E+02  0.00000000000E+00 0. -1.
<mgrwt>
<rscale>  1 0.66437147E+03</rscale>
<asrwt>0</asrwt>
<pdfrwt beam="1">  1       21 0.19382585E-01 0.66437147E+03</pdfrwt>
<pdfrwt beam="2">0</pdfrwt>
<totfact> 0.23818633E+03</totfact>
</mgrwt>
</event>
<event>
 6    1  0.1386179E-004  0.6642727E+03  0.7818608E-02  0.9780360E-01
         21   -1    0    0  501  502  0.00000000000E+00  0.00000000000E+00  0.19372566795E+03  0.19372566795E+03  0.00000000000E+00 0.  1.
         13   -1    0    0    0    0 -0.00000000000E+00 -0.00000000000E+00 -0.10000000000E+04  0.10000000000E+04  0.00000000000E+00 0.  1.
    9000005    2    1    2  501    0 -0.10047344737E+03  0.88994987819E+02 -0.82392192109E+03  0.10583504158E+04  0.65057147892E+03 0.  0.
         13    1    3    3    0    0 -0.52260809110E+02  0.26861985013E+02  0.10808840814E+03  0.12302789269E+03  0.00000000000E+00 0.  1.
          3    1    3    3  501    0 -0.48212638263E+02  0.62133002806E+02 -0.93201032923E+03  0.93532252315E+03  0.00000000000E+00 0.  1.
         -3    1    1    2    0  502  0.10047344737E+03 -0.88994987819E+02  0.17647589049E+02  0.13537525211E+03  0.00000000000E+00 0. -1.
<mgrwt>
<rscale>  1 0.66427274E+03</rscale>
<asrwt>0</asrwt>
<pdfrwt beam="1">  1       21 0.29803948E-01 0.66427274E+03</pdfrwt>
<pdfrwt beam="2">0</pdfrwt>
<totfact> 0.10272889E+03</totfact>
</mgrwt>
</event>
<event>
 6    1  0.1386179E-004  0.6518009E+03  0.7818608E-02  0.9803406E-01
         21   -1    0    0  501  502  0.00000000000E+00  0.00000000000E+00  0.15855895815E+03  0.15855895815E+03  0.00000000000E+00 0. -1.
         13   -1    0    0    0    0 -0.00000000000E+00 -0.00000000000E+00 -0.10000000000E+04  0.10000000000E+04  0.00000000000E+00 0.  1.
    9000005    2    1    2  501    0 -0.16185174398E+02 -0.68454422189E+02 -0.86615147859E+03  0.10840031169E+04  0.64799414018E+03 0.  0.
         13    1    3    3    0    0  0.16506224718E+03  0.22019952454E+03 -0.21568560947E+03  0.34964790602E+03  0.00000000000E+00 0.  1.
          1    1    3    3  501    0 -0.18124742158E+03 -0.28865394673E+03 -0.65046586912E+03  0.73435521083E+03  0.00000000000E+00 0.  1.
         -1    1    1    2    0  502  0.16185174398E+02  0.68454422189E+02  0.24710436743E+02  0.74555841298E+02  0.00000000000E+00 0. -1.
<mgrwt>
<rscale>  1 0.65180087E+03</rscale>
<asrwt>0</asrwt>
<pdfrwt beam="1">  1       21 0.24393685E-01 0.65180087E+03</pdfrwt>
<pdfrwt beam="2">0</pdfrwt>
<totfact> 0.15277346E+03</totfact>
</mgrwt>
</event>
<event>
 6    1  0.1386179E-004  0.6551063E+03  0.7818608E-02  0.9797245E-01
         21   -1    0    0  501  502  0.00000000000E+00  0.00000000000E+00  0.30182866912E+03  0.30182866912E+03  0.00000000000E+00 0. -1.
         13   -1    0    0    0    0 -0.00000000000E+00 -0.00000000000E+00 -0.10000000000E+04  0.10000000000E+04  0.00000000000E+00 0.  1.
    9000005    2    1    2  501    0 -0.12465385953E+02  0.30237413386E+02 -0.89118544191E+03  0.11060631613E+04  0.65428933798E+03 0.  0.
         13    1    3    3    0    0 -0.16910837843E+03 -0.26864119762E+03 -0.41732840245E+03  0.52433646850E+03  0.00000000000E+00 0.  1.
          3    1    3    3  501    0  0.15664299247E+03  0.29887861101E+03 -0.47385703946E+03  0.58172669275E+03  0.00000000000E+00 0.  1.
         -1    1    1    2    0  502  0.12465385953E+02 -0.30237413386E+02  0.19301411103E+03  0.19576550787E+03  0.00000000000E+00 0. -1.
<mgrwt>
<rscale>  1 0.65510627E+03</rscale>
<asrwt>0</asrwt>
<pdfrwt beam="1">  1       21 0.46435179E-01 0.65510627E+03</pdfrwt>
<pdfrwt beam="2">0</pdfrwt>
<totfact> 0.41277624E+02</totfact>
</mgrwt>
</event>
<event>
 6    1  0.1386179E-004  0.7012511E+03  0.7818608E-02  0.9715095E-01
         21   -1    0    0  501  502  0.00000000000E+00  0.00000000000E+00  0.14607415482E+03  0.14607415482E+03  0.00000000000E+00 0.  1.
         13   -1    0    0    0    0 -0.00000000000E+00 -0.00000000000E+00 -0.10000000000E+04  0.10000000000E+04  0.00000000000E+00 0.  1.
    9000005    2    1    2  501    0 -0.86356767193E+01  0.25101848542E+02 -0.86812271863E+03  0.11159705184E+04  0.70074850376E+03 0.  0.
         13    1    3    3    0    0  0.18877556241E+02 -0.33720439386E+03 -0.40595535110E+03  0.52807472242E+03  0.00000000000E+00 0.  1.
          1    1    3    3  501    0 -0.27513232960E+02  0.36230624240E+03 -0.46216736753E+03  0.58789579594E+03  0.00000000000E+00 0.  1.
         -1    1    1    2    0  502  0.86356767193E+01 -0.25101848542E+02  0.14196873450E+02  0.30103636465E+02  0.00000000000E+00 0. -1.
<mgrwt>
<rscale>  1 0.70125113E+03</rscale>
<asrwt>0</asrwt>
<pdfrwt beam="1">  1       21 0.22472946E-01 0.70125113E+03</pdfrwt>
<pdfrwt beam="2">0</pdfrwt>
<totfact> 0.17883674E+03</totfact>
</mgrwt>
</event>
<event>
 6    1  0.1386179E-004  0.6509840E+03  0.7818608E-02  0.9804935E-01
         21   -1    0    0  501  502  0.00000000000E+00  0.00000000000E+00  0.32321833553E+03  0.32321833553E+03  0.00000000000E+00 0. -1.
         13   -1    0    0    0    0 -0.00000000000E+00 -0.00000000000E+00 -0.10000000000E+04  0.10000000000E+04  0.00000000000E+00 0.  1.
    9000005    2    1    2  501    0  0.40276560017E+02 -0.54532649310E+00 -0.89198803783E+03  0.11042747770E+04  0.64973658116E+03 0.  0.
         13    1    3    3    0    0  0.25931310917E+03  0.22006157830E+03 -0.46785694003E+03  0.57841205310E+03  0.00000000000E+00 0.  1.
          3    1    3    3  501    0 -0.21903654915E+03 -0.22060690480E+03 -0.42413109780E+03  0.52586272394E+03  0.00000000000E+00 0.  1.
         -1    1    1    2    0  502 -0.40276560017E+02  0.54532649310E+00  0.21520637337E+03  0.21894355849E+03  0.00000000000E+00 0. -1.
<mgrwt>
<rscale>  1 0.65098397E+03</rscale>
<asrwt>0</asrwt>
<pdfrwt beam="1">  1       21 0.49725896E-01 0.65098397E+03</pdfrwt>
<pdfrwt beam="2">0</pdfrwt>
<totfact> 0.35686115E+02</totfact>
</mgrwt>
</event>
<event>
 6    1  0.1386179E-004  0.6414020E+03  0.7818608E-02  0.9823048E-01
         21   -1    0    0  501  502  0.00000000000E+00  0.00000000000E+00  0.16444283410E+03  0.16444283410E+03  0.00000000000E+00 0.  1.
         13   -1    0    0    0    0 -0.00000000000E+00 -0.00000000000E+00 -0.10000000000E+04  0.10000000000E+04  0.00000000000E+00 0.  1.
    9000005    2    1    2  501    0  0.69321881209E+02 -0.55128415664E+01 -0.87468327699E+03  0.10846508094E+04  0.63762106980E+03 0.  0.
         13    1    3    3    0    0 -0.18888290444E+03 -0.43639838168E+02 -0.24614605055E+02  0.19541511162E+03  0.00000000000E+00 0.  1.
          3    1    3    3  501    0  0.25820478565E+03  0.38126996601E+02 -0.85006867194E+03  0.88923569778E+03  0.00000000000E+00 0.  1.
         -1    1    1    2    0  502 -0.69321881209E+02  0.55128415664E+01  0.39126111092E+02  0.79792024700E+02  0.00000000000E+00 0. -1.
<mgrwt>
<rscale>  1 0.64140201E+03</rscale>
<asrwt>0</asrwt>
<pdfrwt beam="1">  1       21 0.25298897E-01 0.64140201E+03</pdfrwt>
<pdfrwt beam="2">0</pdfrwt>
<totfact> 0.14232697E+03</totfact>
</mgrwt>
</event>
<event>
 6    1  0.1386179E-004  0.5378023E+03  0.7818608E-02  0.1004357E+00
         21   -1    0    0  501  502  0.00000000000E+00  0.00000000000E+00  0.10860288194E+03  0.10860288194E+03  0.00000000000E+00 0.  1.
         13   -1    0    0    0    0 -0.00000000000E+00 -0.00000000000E+00 -0.10000000000E+04  0.10000000000E+04  0.00000000000E+00 0.  1.
    9000005    2    1    2  501    0 -0.18238568630E+02 -0.87500691442E+02 -0.85912987412E+03  0.10135755626E+04  0.53032279237E+03 0.  0.
         13    1    3    3    0    0 -0.83063761049E+02  0.21318325760E+03 -0.33043886482E+03  0.40191607719E+03  0.00000000000E+00 0.  1.
          3    1    3    3  501    0  0.64825192419E+02 -0.30068394904E+03 -0.52869100930E+03  0.61165948541E+03  0.00000000000E+00 0.  1.
         -1    1    1    2    0  502  0.18238568630E+02  0.87500691442E+02 -0.32267243944E+02  0.95027319337E+02  0.00000000000E+00 0. -1.
<mgrwt>
<rscale>  1 0.53780227E+03</rscale>
<asrwt>0</asrwt>
<pdfrwt beam="1">  1       21 0.16708135E-01 0.53780227E+03</pdfrwt>
<pdfrwt beam="2">0</pdfrwt>
<totfact> 0.31700178E+03</totfact>
</mgrwt>
</event>
<event>
 6    1  0.1386179E-004  0.6317513E+03  0.7818608E-02  0.9841637E-01
         21   -1    0    0  501  502  0.00000000000E+00  0.00000000000E+00  0.13041614560E+03  0.13041614560E+03  0.00000000000E+00 0.  1.
         13   -1    0    0    0    0 -0.00000000000E+00 -0.00000000000E+00 -0.10000000000E+04  0.10000000000E+04  0.00000000000E+00 0.  1.
    9000005    2    1    2  501    0  0.22990393801E+02 -0.31776883265E+02 -0.88577586958E+03  0.10879837302E+04  0.63053261425E+03 0.  0.
         13    1    3    3    0    0  0.28875495728E+03 -0.37462830837E+02 -0.71503450403E+03  0.77204742795E+03  0.00000000000E+00 0.  1.
          3    1    3    3  501    0 -0.26576456348E+03  0.56859475721E+01 -0.17074136555E+03  0.31593630230E+03  0.00000000000E+00 0.  1.
         -1    1    1    2    0  502 -0.22990393801E+02  0.31776883265E+02  0.16192015174E+02  0.42432415352E+02  0.00000000000E+00 0. -1.
<mgrwt>
<rscale>  1 0.63175130E+03</rscale>
<asrwt>0</asrwt>
<pdfrwt beam="1">  1       21 0.20064022E-01 0.63175130E+03</pdfrwt>
<pdfrwt beam="2">0</pdfrwt>
<totfact> 0.22321647E+03</totfact>
</mgrwt>
</event>
<event>
 6    1  0.1386179E-004  0.6311655E+03  0.7818608E-02  0.9842777E-01
         21   -1    0    0  501  502  0.00000000000E+00  0.00000000000E+00  0.15262038014E+03  0.15262038014E+03  0.00000000000E+00 0. -1.
         13   -1    0    0    0    0 -0.00000000000E+00 -0.00000000000E+00 -0.10000000000E+04  0.10000000000E+04  0.00000000000E+00 0.  1.
    9000005    2    1    2  501    0  0.32014414944E+02  0.23616385753E+02 -0.89207799763E+03  0.10927822534E+04  0.62991050396E+03 0.  0.
         13    1    3    3    0    0 -0.78414594511E+02  0.67880723426E+02  0.68869902045E+02  0.12449780983E+03  0.00000000000E+00 0.  1.
          3    1    3    3  501    0  0.11042900946E+03 -0.44264337673E+02 -0.96094789967E+03  0.96828444354E+03  0.00000000000E+00 0.  1.
         -1    1    1    2    0  502 -0.32014414944E+02 -0.23616385753E+02  0.44698377771E+02  0.59838126772E+02  0.00000000000E+00 0. -1.
<mgrwt>
<rscale>  1 0.63116551E+03</rscale>
<asrwt>0</asrwt>
<pdfrwt beam="1">  1       21 0.23480058E-01 0.63116551E+03</pdfrwt>
<pdfrwt beam="2">0</pdfrwt>
<totfact> 0.16475600E+03</totfact>
</mgrwt>
</event>
<event>
 6    1  0.1386179E-004  0.6472033E+03  0.7818608E-02  0.9812041E-01
         21   -1    0    0  501  502  0.00000000000E+00  0.00000000000E+00  0.13961345693E+03  0.13961345693E+03  0.00000000000E+00 0.  1.
         13   -1    0    0    0    0 -0.00000000000E+00 -0.00000000000E+00 -0.10000000000E+04  0.10000000000E+04  0.00000000000E+00 0.  1.
    9000005    2    1    2  501    0  0.17582756599E+02  0.14394791989E+02 -0.89114718248E+03  0.11013697607E+04  0.64680420959E+03 0.  0.
         13    1    3    3    0    0  0.20504546432E+03  0.20981174645E+03 -0.18942027207E+03  0.34920574288E+03  0.00000000000E+00 0.  1.
          1    1    3    3  501    0 -0.18746270773E+03 -0.19541695447E+03 -0.70172691041E+03  0.75216401780E+03  0.00000000000E+00 0.  1.
         -1    1    1    2    0  502 -0.17582756599E+02 -0.14394791989E+02  0.30760639409E+02  0.38243696250E+02  0.00000000000E+00 0. -1.
<mgrwt>
<rscale>  1 0.64720325E+03</rscale>
<asrwt>0</asrwt>
<pdfrwt beam="1">  1       21 0.21478993E-01 0.64720325E+03</pdfrwt>
<pdfrwt beam="2">0</pdfrwt>
<totfact> 0.19566262E+03</totfact>
</mgrwt>
</event>
<event>
 6    1  0.1386179E-004  0.6681900E+03  0.7818608E-02  0.9773233E-01
         21   -1    0    0  501  502  0.00000000000E+00  0.00000000000E+00  0.20241369426E+03  0.20241369426E+03  0.00000000000E+00 0. -1.
         13   -1    0    0    0    0 -0.00000000000E+00 -0.00000000000E+00 -0.10000000000E+04  0.10000000000E+04  0.00000000000E+00 0.  1.
    9000005    2    1    2  501    0  0.12799850631E+02  0.20514577818E+02 -0.88658707097E+03  0.11101866901E+04  0.66775232569E+03 0.  0.
         13    1    3    3    0    0 -0.85969384954E+02  0.31237903379E+03 -0.27338271896E+03  0.42392158111E+03  0.00000000000E+00 0.  1.
          1    1    3    3  501    0  0.98769235585E+02 -0.29186445597E+03 -0.61320435200E+03  0.68626510903E+03  0.00000000000E+00 0.  1.
         -3    1    1    2    0  502 -0.12799850631E+02 -0.20514577818E+02  0.89000765226E+02  0.92227004126E+02  0.00000000000E+00 0. -1.
<mgrwt>
<rscale>  1 0.66818998E+03</rscale>
<asrwt>0</asrwt>
<pdfrwt beam="1">  1       21 0.31140567E-01 0.66818998E+03</pdfrwt>
<pdfrwt beam="2">0</pdfrwt>
<totfact> 0.94049795E+02</totfact>
</mgrwt>
</event>
<event>
 6    1  0.1386179E-004  0.6076258E+03  0.7818608E-02  0.9889710E-01
         21   -1    0    0  501  502  0.00000000000E+00  0.00000000000E+00  0.11190034439E+03  0.11190034439E+03  0.00000000000E+00 0.  1.
         13   -1    0    0    0    0 -0.00000000000E+00 -0.00000000000E+00 -0.10000000000E+04  0.10000000000E+04  0.00000000000E+00 0.  1.
    9000005    2    1    2  501    0  0.23986249115E+02 -0.28496042795E+02 -0.88632926096E+03  0.10746109505E+04  0.60648311719E+03 0.  0.
         13    1    3    3    0    0  0.29803555642E+03  0.69674986949E+02 -0.55309377480E+03  0.63213330906E+03  0.00000000000E+00 0.  1.
          3    1    3    3  501    0 -0.27404930730E+03 -0.98171029744E+02 -0.33323548616E+03  0.44247764141E+03  0.00000000000E+00 0.  1.
         -1    1    1    2    0  502 -0.23986249115E+02  0.28496042795E+02 -0.17703946531E+01  0.37289393918E+02  0.00000000000E+00 0. -1.
<mgrwt>
<rscale>  1 0.60762582E+03</rscale>
<asrwt>0</asrwt>
<pdfrwt beam="1">  1       21 0.17215437E-01 0.60762582E+03</pdfrwt>
<pdfrwt beam="2">0</pdfrwt>
<totfact> 0.29895144E+03</totfact>
</mgrwt>
</event>
<event>
 6    1  0.1386179E-004  0.6562242E+03  0.7818608E-02  0.9795170E-01
         21   -1    0    0  501  502  0.00000000000E+00  0.00000000000E+00  0.14045104287E+03  0.14045104287E+03  0.00000000000E+00 0.  1.
         13   -1    0    0    0    0 -0.00000000000E+00 -0.00000000000E+00 -0.10000000000E+04  0.10000000000E+04  0.00000000000E+00 0.  1.
    9000005    2    1    2  501    0 -0.92361529969E+02  0.76436185187E+00 -0.73379556402E+03  0.98442171119E+03  0.64969141846E+03 0.  0.
         13    1    3    3    0    0  0.24888922073E+03  0.14120310130E+03 -0.29301875363E+03  0.40956580667E+03  0.00000000000E+00 0.  1.
          3    1    3    3  501    0 -0.34125075070E+03 -0.14043873945E+03 -0.44077681039E+03  0.57485590452E+03  0.00000000000E+00 0.  1.
         -1    1    1    2    0  502  0.92361529969E+02 -0.76436185187E+00 -0.12575339311E+03  0.15602933168E+03  0.00000000000E+00 0. -1.
<mgrwt>
<rscale>  1 0.65622418E+03</rscale>
<asrwt>0</asrwt>
<pdfrwt beam="1">  1       21 0.21607852E-01 0.65622418E+03</pdfrwt>
<pdfrwt beam="2">0</pdfrwt>
<totfact> 0.19333968E+03</totfact>
</mgrwt>
</event>
<event>
 6    1  0.1386179E-004  0.7509474E+03  0.7818608E-02  0.9633865E-01
         21   -1    0    0  501  502  0.00000000000E+00  0.00000000000E+00  0.36889461405E+03  0.36889461405E+03  0.00000000000E+00 0.  1.
         13   -1    0    0    0    0 -0.00000000000E+00 -0.00000000000E+00 -0.10000000000E+04  0.10000000000E+04  0.00000000000E+00 0.  1.
    9000005    2    1    2  501    0 -0.18399776604E+03 -0.34592003306E+03 -0.62504303168E+03  0.97703673252E+03  0.64062948579E+03 0.  0.
         13    1    3    3    0    0  0.12161170102E+02  0.17711710142E+03 -0.73888428866E+02  0.19229628596E+03  0.00000000000E+00 0.  1.
          1    1    3    3  501    0 -0.19615893614E+03 -0.52303713448E+03 -0.55115460281E+03  0.78474044656E+03  0.00000000000E+00 0.  1.
         -1    1    1    2    0  502  0.18399776604E+03  0.34592003306E+03 -0.60623542684E+01  0.39185788153E+03  0.00000000000E+00 0. -1.
<mgrwt>
<rscale>  1 0.75094739E+03</rscale>
<asrwt>0</asrwt>
<pdfrwt beam="1">  1       21 0.56753016E-01 0.75094739E+03</pdfrwt>
<pdfrwt beam="2">0</pdfrwt>
<totfact> 0.26550078E+02</totfact>
</mgrwt>
</event>
<event>
 6    1  0.1386179E-004  0.6596837E+03  0.7818608E-02  0.9788776E-01
         21   -1    0    0  501  502  0.00000000000E+00  0.00000000000E+00  0.13396116871E+03  0.13396116871E+03  0.00000000000E+00 0.  1.
         13   -1    0    0    0    0 -0.00000000000E+00 -0.00000000000E+00 -0.10000000000E+04  0.10000000000E+04  0.00000000000E+00 0.  1.
    9000005    2    1    2  501    0  0.57963939614E+02 -0.42652534818E+02 -0.79117639777E+03  0.10301178205E+04  0.65574657805E+03 0.  0.
         13    1    3    3    0    0  0.29748160975E+03  0.75930776739E+02 -0.16334712583E+03  0.34776870836E+03  0.00000000000E+00 0.  1.
          3    1    3    3  501    0 -0.23951767013E+03 -0.11858331156E+03 -0.62782927194E+03  0.68234911211E+03  0.00000000000E+00 0.  1.
         -1    1    1    2    0  502 -0.57963939614E+02  0.42652534818E+02 -0.74862433521E+02  0.10384334824E+03  0.00000000000E+00 0. -1.
<mgrwt>
<rscale>  1 0.65968374E+03</rscale>
<asrwt>0</asrwt>
<pdfrwt beam="1">  1       21 0.20609410E-01 0.65968374E+03</pdfrwt>
<pdfrwt beam="2">0</pdfrwt>
<totfact> 0.21177192E+03</totfact>
</mgrwt>
</event>
<event>
 6    1  0.1386179E-004  0.6106078E+03  0.7818608E-02  0.9883639E-01
         21   -1    0    0  501  502  0.00000000000E+00  0.00000000000E+00  0.13929512998E+03  0.13929512998E+03  0.00000000000E+00 0.  1.
         13   -1    0    0    0    0 -0.00000000000E+00 -0.00000000000E+00 -0.10000000000E+04  0.10000000000E+04  0.00000000000E+00 0.  1.
    9000005    2    1    2  501    0 -0.23143837966E+02 -0.10141651588E+02 -0.90297486825E+03  0.10900483729E+04  0.61008470907E+03 0.  0.
         13    1    3    3    0    0  0.88203872360E+02 -0.17581512684E+03 -0.86470900571E+03  0.88679904515E+03  0.00000000000E+00 0.  1.
          1    1    3    3  501    0 -0.11134771033E+03  0.16567347525E+03 -0.38265862541E+02  0.20324932775E+03  0.00000000000E+00 0.  1.
         -3    1    1    2    0  502  0.23143837966E+02  0.10141651588E+02  0.42269998224E+02  0.49246757077E+02  0.00000000000E+00 0. -1.
<mgrwt>
<rscale>  1 0.61060776E+03</rscale>
<asrwt>0</asrwt>
<pdfrwt beam="1">  1       21 0.21430019E-01 0.61060776E+03</pdfrwt>
<pdfrwt beam="2">0</pdfrwt>
<totfact> 0.19684749E+03</totfact>
</mgrwt>
</event>
<event>
 6    1  0.1386179E-004  0.6475832E+03  0.7818608E-02  0.9811325E-01
         21   -1    0    0  501  502  0.00000000000E+00  0.00000000000E+00  0.12368738237E+03  0.12368738237E+03  0.00000000000E+00 0.  1.
         13   -1    0    0    0    0 -0.00000000000E+00 -0.00000000000E+00 -0.10000000000E+04  0.10000000000E+04  0.00000000000E+00 0.  1.
    9000005    2    1    2  501    0 -0.18928787277E+02  0.33330372336E+02 -0.87043966801E+03  0.10849097568E+04  0.64644779529E+03 0.  0.
         13    1    3    3    0    0 -0.13896437328E+03  0.28205897867E+03 -0.68075959123E+03  0.74986797874E+03  0.00000000000E+00 0.  1.
          1    1    3    3  501    0  0.12003558600E+03 -0.24872860633E+03 -0.18968007678E+03  0.33504177806E+03  0.00000000000E+00 0.  1.
         -3    1    1    2    0  502  0.18928787277E+02 -0.33330372336E+02 -0.58729496189E+01  0.38777625573E+02  0.00000000000E+00 0. -1.
<mgrwt>
<rscale>  1 0.64758317E+03</rscale>
<asrwt>0</asrwt>
<pdfrwt beam="1">  1       21 0.19028828E-01 0.64758317E+03</pdfrwt>
<pdfrwt beam="2">0</pdfrwt>
<totfact> 0.24687000E+03</totfact>
</mgrwt>
</event>
<event>
 6    1  0.1386179E-004  0.6544082E+03  0.7818608E-02  0.9798543E-01
         21   -1    0    0  501  502  0.00000000000E+00  0.00000000000E+00  0.20871658812E+03  0.20871658812E+03  0.00000000000E+00 0. -1.
         13   -1    0    0    0    0 -0.00000000000E+00 -0.00000000000E+00 -0.10000000000E+04  0.10000000000E+04  0.00000000000E+00 0.  1.
    9000005    2    1    2  501    0  0.25235584660E+02  0.98411170581E+01 -0.89093577760E+03  0.11054486051E+04  0.65384736480E+03 0.  0.
         13    1    3    3    0    0 -0.15782947394E+03  0.22132199754E+03 -0.73840979855E+03  0.78685614952E+03  0.00000000000E+00 0.  1.
          3    1    3    3  501    0  0.18306505860E+03 -0.21148088048E+03 -0.15252597905E+03  0.31859245561E+03  0.00000000000E+00 0.  1.
         -1    1    1    2    0  502 -0.25235584660E+02 -0.98411170581E+01  0.99652365713E+02  0.10326798299E+03  0.00000000000E+00 0. -1.
<mgrwt>
<rscale>  1 0.65440817E+03</rscale>
<asrwt>0</asrwt>
<pdfrwt beam="1">  1       21 0.32110243E-01 0.65440817E+03</pdfrwt>
<pdfrwt beam="2">0</pdfrwt>
<totfact> 0.88494153E+02</totfact>
</mgrwt>
</event>
<event>
 6    1  0.1386179E-004  0.6460070E+03  0.7818608E-02  0.9814301E-01
         21   -1    0    0  501  502  0.00000000000E+00  0.00000000000E+00  0.44359612027E+03  0.44359612027E+03  0.00000000000E+00 0. -1.
         13   -1    0    0    0    0 -0.00000000000E+00 -0.00000000000E+00 -0.10000000000E+04  0.10000000000E+04  0.00000000000E+00 0.  1.
    9000005    2    1    2  501    0  0.84241137334E+02 -0.36544319312E+00 -0.88988141426E+03  0.10996426804E+04  0.64049074179E+03 0.  0.
         13    1    3    3    0    0 -0.22273444928E+02 -0.19105087042E+03 -0.95082387713E+01  0.19257971867E+03  0.00000000000E+00 0.  1.
          1    1    3    3  501    0  0.10651458226E+03  0.19068542723E+03 -0.88037317549E+03  0.90706296172E+03  0.00000000000E+00 0.  1.
         -3    1    1    2    0  502 -0.84241137334E+02  0.36544319312E+00  0.33347753453E+03  0.34395343988E+03  0.00000000000E+00 0. -1.
<mgrwt>
<rscale>  1 0.64600704E+03</rscale>
<asrwt>0</asrwt>
<pdfrwt beam="1">  1       21 0.68245555E-01 0.64600704E+03</pdfrwt>
<pdfrwt beam="2">0</pdfrwt>
<totfact> 0.17800197E+02</totfact>
</mgrwt>
</event>
<event>
 6    1  0.1386179E-004  0.6876613E+03  0.7818608E-02  0.9738569E-01
         21   -1    0    0  501  502  0.00000000000E+00  0.00000000000E+00  0.25496417614E+03  0.25496417614E+03  0.00000000000E+00 0.  1.
         13   -1    0    0    0    0 -0.00000000000E+00 -0.00000000000E+00 -0.10000000000E+04  0.10000000000E+04  0.00000000000E+00 0.  1.
    9000005    2    1    2  501    0 -0.12993335627E+03  0.19165077764E+03 -0.75751116182E+03  0.10230841820E+04  0.64750705437E+03 0.  0.
         13    1    3    3    0    0  0.17902648417E+03  0.22562389147E+03 -0.61913693402E+03  0.68285222817E+03  0.00000000000E+00 0.  1.
          1    1    3    3  501    0 -0.30895984044E+03 -0.33973113838E+02 -0.13837422780E+03  0.34023195380E+03  0.00000000000E+00 0.  1.
         -3    1    1    2    0  502  0.12993335627E+03 -0.19165077764E+03  0.12475337960E+02  0.23187999417E+03  0.00000000000E+00 0. -1.
<mgrwt>
<rscale>  1 0.68766131E+03</rscale>
<asrwt>0</asrwt>
<pdfrwt beam="1">  1       21 0.39225257E-01 0.68766131E+03</pdfrwt>
<pdfrwt beam="2">0</pdfrwt>
<totfact> 0.58641585E+02</totfact>
</mgrwt>
</event>
<event>
 6    1  0.1386179E-004  0.6470249E+03  0.7818608E-02  0.9812378E-01
         21   -1    0    0  501  502  0.00000000000E+00  0.00000000000E+00  0.12572097279E+03  0.12572097279E+03  0.00000000000E+00 0.  1.
         13   -1    0    0    0    0 -0.00000000000E+00 -0.00000000000E+00 -0.10000000000E+04  0.10000000000E+04  0.00000000000E+00 0.  1.
    9000005    2    1    2  501    0 -0.55059675918E+02 -0.23664265143E+02 -0.82271128678E+03  0.10466589894E+04  0.64424344267E+03 0.  0.
         13    1    3    3    0    0 -0.12980100352E+03 -0.28469426829E+03 -0.21097300535E+03  0.37737082015E+03  0.00000000000E+00 0.  1.
          3    1    3    3  501    0  0.74741327605E+02  0.26103000314E+03 -0.61173828143E+03  0.66928816929E+03  0.00000000000E+00 0.  1.
         -1    1    1    2    0  502  0.55059675918E+02  0.23664265143E+02 -0.51567740434E+02  0.79061983345E+02  0.00000000000E+00 0. -1.
<mgrwt>
<rscale>  1 0.64702487E+03</rscale>
<asrwt>0</asrwt>
<pdfrwt beam="1">  1       21 0.19341688E-01 0.64702487E+03</pdfrwt>
<pdfrwt beam="2">0</pdfrwt>
<totfact> 0.23930402E+03</totfact>
</mgrwt>
</event>
<event>
 6    1  0.1386179E-004  0.6648159E+03  0.7818608E-02  0.9779369E-01
         21   -1    0    0  501  502  0.00000000000E+00  0.00000000000E+00  0.44874763098E+03  0.44874763098E+03  0.00000000000E+00 0. -1.
         13   -1    0    0    0    0 -0.00000000000E+00 -0.00000000000E+00 -0.10000000000E+04  0.10000000000E+04  0.00000000000E+00 0.  1.
    9000005    2    1    2  501    0  0.86673828907E+02  0.11371516733E+03 -0.87261494047E+03  0.10970127959E+04  0.64925861419E+03 0.  0.
         13    1    3    3    0    0  0.26691010395E+03  0.26109696328E+03 -0.30031830298E+03  0.47916981429E+03  0.00000000000E+00 0.  1.
          1    1    3    3  501    0 -0.18023627504E+03 -0.14738179595E+03 -0.57229663749E+03  0.61784298159E+03  0.00000000000E+00 0.  1.
         -3    1    1    2    0  502 -0.86673828907E+02 -0.11371516733E+03  0.32136257145E+03  0.35173483510E+03  0.00000000000E+00 0. -1.
<mgrwt>
<rscale>  1 0.66481594E+03</rscale>
<asrwt>0</asrwt>
<pdfrwt beam="1">  1       21 0.69038095E-01 0.66481594E+03</pdfrwt>
<pdfrwt beam="2">0</pdfrwt>
<totfact> 0.17302922E+02</totfact>
</mgrwt>
</event>
<event>
 6    1  0.1386179E-004  0.6911826E+03  0.7818608E-02  0.9732431E-01
         21   -1    0    0  501  502  0.00000000000E+00  0.00000000000E+00  0.21208584555E+03  0.21208584555E+03  0.00000000000E+00 0.  1.
         13   -1    0    0    0    0 -0.00000000000E+00 -0.00000000000E+00 -0.10000000000E+04  0.10000000000E+04  0.00000000000E+00 0.  1.
    9000005    2    1    2  501    0 -0.18717255146E+03  0.12716063955E+03 -0.63818641883E+03  0.94075249507E+03  0.65309261175E+03 0.  0.
         13    1    3    3    0    0 -0.34425718675E+02  0.38178927943E+03 -0.27574639093E+03  0.47221208806E+03  0.00000000000E+00 0.  1.
          3    1    3    3  501    0 -0.15274683279E+03 -0.25462863989E+03 -0.36244002790E+03  0.46854040701E+03  0.00000000000E+00 0.  1.
         -3    1    1    2    0  502  0.18717255146E+03 -0.12716063955E+03 -0.14972773562E+03  0.27133335048E+03  0.00000000000E+00 0. -1.
<mgrwt>
<rscale>  1 0.69118257E+03</rscale>
<asrwt>0</asrwt>
<pdfrwt beam="1">  1       21 0.32628591E-01 0.69118257E+03</pdfrwt>
<pdfrwt beam="2">0</pdfrwt>
<totfact> 0.85469880E+02</totfact>
</mgrwt>
</event>
<event>
 6    1  0.1386179E-004  0.6440822E+03  0.7818608E-02  0.9817947E-01
         21   -1    0    0  501  502  0.00000000000E+00  0.00000000000E+00  0.32152274483E+03  0.32152274483E+03  0.00000000000E+00 0. -1.
         13   -1    0    0    0    0 -0.00000000000E+00 -0.00000000000E+00 -0.10000000000E+04  0.10000000000E+04  0.00000000000E+00 0.  1.
    9000005    2    1    2  501    0 -0.19728553028E+02 -0.56021723945E+01 -0.89575657335E+03  0.11032776939E+04  0.64375556777E+03 0.  0.
         13    1    3    3    0    0 -0.79536964530E+02 -0.14955332668E+03  0.23399992104E+02  0.17099674230E+03  0.00000000000E+00 0.  1.
          1    1    3    3  501    0  0.59808411502E+02  0.14395115428E+03 -0.91915656546E+03  0.93228095161E+03  0.00000000000E+00 0.  1.
         -1    1    1    2    0  502  0.19728553028E+02  0.56021723945E+01  0.21727931818E+03  0.21824505092E+03  0.00000000000E+00 0. -1.
<mgrwt>
<rscale>  1 0.64408216E+03</rscale>
<asrwt>0</asrwt>
<pdfrwt beam="1">  1       21 0.49465036E-01 0.64408216E+03</pdfrwt>
<pdfrwt beam="2">0</pdfrwt>
<totfact> 0.36114037E+02</totfact>
</mgrwt>
</event>
<event>
 6    1  0.1386179E-004  0.6660464E+03  0.7818608E-02  0.9777127E-01
         21   -1    0    0  501  502  0.00000000000E+00  0.00000000000E+00  0.17802869347E+03  0.17802869347E+03  0.00000000000E+00 0.  1.
         13   -1    0    0    0    0 -0.00000000000E+00 -0.00000000000E+00 -0.10000000000E+04  0.10000000000E+04  0.00000000000E+00 0.  1.
    9000005    2    1    2  501    0  0.47731444361E+01 -0.20564407333E+02 -0.88724617216E+03  0.11094248609E+04  0.66571170508E+03 0.  0.
         13    1    3    3    0    0 -0.15592836560E+03 -0.27771090010E+03 -0.25418838350E+03  0.40749077724E+03  0.00000000000E+00 0.  1.
          1    1    3    3  501    0  0.16070151003E+03  0.25714649276E+03 -0.63305778866E+03  0.70193408369E+03  0.00000000000E+00 0.  1.
         -3    1    1    2    0  502 -0.47731444361E+01  0.20564407333E+02  0.65274865628E+02  0.68603832542E+02  0.00000000000E+00 0. -1.
<mgrwt>
<rscale>  1 0.66604636E+03</rscale>
<asrwt>0</asrwt>
<pdfrwt beam="1">  1       21 0.27389029E-01 0.66604636E+03</pdfrwt>
<pdfrwt beam="2">0</pdfrwt>
<totfact> 0.12154527E+03</totfact>
</mgrwt>
</event>
<event>
 6    1  0.1386179E-004  0.6654405E+03  0.7818608E-02  0.9778230E-01
         21   -1    0    0  501  502  0.00000000000E+00  0.00000000000E+00  0.13581612763E+03  0.13581612763E+03  0.00000000000E+00 0.  1.
         13   -1    0    0    0    0 -0.00000000000E+00 -0.00000000000E+00 -0.10000000000E+04  0.10000000000E+04  0.00000000000E+00 0.  1.
    9000005    2    1    2  501    0 -0.36571513046E+02  0.46056126735E+02 -0.84142262014E+03  0.10727549115E+04  0.66283665566E+03 0.  0.
         13    1    3    3    0    0 -0.32567911833E+03  0.12632875016E+03 -0.56797067067E+03  0.66679571383E+03  0.00000000000E+00 0.  1.
          1    1    3    3  501    0  0.28910760529E+03 -0.80272623428E+02 -0.27345194947E+03  0.40595919767E+03  0.00000000000E+00 0.  1.
         -1    1    1    2    0  502  0.36571513046E+02 -0.46056126735E+02 -0.22761252236E+02  0.63061216129E+02  0.00000000000E+00 0. -1.
<mgrwt>
<rscale>  1 0.66544051E+03</rscale>
<asrwt>0</asrwt>
<pdfrwt beam="1">  1       21 0.20894788E-01 0.66544051E+03</pdfrwt>
<pdfrwt beam="2">0</pdfrwt>
<totfact> 0.20619110E+03</totfact>
</mgrwt>
</event>
<event>
 6    1  0.1386179E-004  0.6510998E+03  0.7818608E-02  0.9804718E-01
         21   -1    0    0  501  502  0.00000000000E+00  0.00000000000E+00  0.34329577869E+03  0.34329577869E+03  0.00000000000E+00 0. -1.
         13   -1    0    0    0    0 -0.00000000000E+00 -0.00000000000E+00 -0.10000000000E+04  0.10000000000E+04  0.00000000000E+00 0.  1.
    9000005    2    1    2  501    0  0.28186303886E+02 -0.84964632559E+01 -0.89300700328E+03  0.11051662711E+04  0.65043394842E+03 0.  0.
         13    1    3    3    0    0 -0.65793785939E+02  0.11521266889E+03 -0.93489313920E+03  0.94426053770E+03  0.00000000000E+00 0.  1.
          3    1    3    3  501    0  0.93980089825E+02 -0.12370913215E+03  0.41886135913E+02  0.16090573340E+03  0.00000000000E+00 0.  1.
         -1    1    1    2    0  502 -0.28186303886E+02  0.84964632559E+01  0.23630278197E+03  0.23812950758E+03  0.00000000000E+00 0. -1.
<mgrwt>
<rscale>  1 0.65109982E+03</rscale>
<asrwt>0</asrwt>
<pdfrwt beam="1">  1       21 0.52814734E-01 0.65109982E+03</pdfrwt>
<pdfrwt beam="2">0</pdfrwt>
<totfact> 0.31345183E+02</totfact>
</mgrwt>
</event>
<event>
 6    1  0.1386179E-004  0.6062041E+03  0.7818608E-02  0.9892618E-01
         21   -1    0    0  501  502  0.00000000000E+00  0.00000000000E+00  0.11557227587E+03  0.11557227587E+03  0.00000000000E+00 0.  1.
         13   -1    0    0    0    0 -0.00000000000E+00 -0.00000000000E+00 -0.10000000000E+04  0.10000000000E+04  0.00000000000E+00 0.  1.
    9000005    2    1    2  501    0 -0.57535453849E+02 -0.89398393664E+01 -0.86057445463E+03  0.10526498821E+04  0.60340130348E+03 0.  0.
         13    1    3    3    0    0  0.58308225474E+02 -0.29174085583E+03 -0.37153736236E+03  0.47597540666E+03  0.00000000000E+00 0.  1.
          3    1    3    3  501    0 -0.11584367932E+03  0.28280101646E+03 -0.48903709227E+03  0.57667447539E+03  0.00000000000E+00 0.  1.
         -3    1    1    2    0  502  0.57535453849E+02  0.89398393664E+01 -0.23853269504E+02  0.62922393816E+02  0.00000000000E+00 0. -1.
<mgrwt>
<rscale>  1 0.60620408E+03</rscale>
<asrwt>0</asrwt>
<pdfrwt beam="1">  1       21 0.17780350E-01 0.60620408E+03</pdfrwt>
<pdfrwt beam="2">0</pdfrwt>
<totfact> 0.28126431E+03</totfact>
</mgrwt>
</event>
<event>
 6    1  0.1386179E-004  0.6501927E+03  0.7818608E-02  0.9806418E-01
         21   -1    0    0  501  502  0.00000000000E+00  0.00000000000E+00  0.17784815397E+03  0.17784815397E+03  0.00000000000E+00 0.  1.
         13   -1    0    0    0    0 -0.00000000000E+00 -0.00000000000E+00 -0.10000000000E+04  0.10000000000E+04  0.00000000000E+00 0.  1.
    9000005    2    1    2  501    0 -0.22233884104E+02 -0.53094313831E+02 -0.88138187806E+03  0.10952554881E+04  0.64763972814E+03 0.  0.
         13    1    3    3    0    0 -0.27459292473E+02  0.20151794600E+03 -0.28747889716E+02  0.20540189012E+03  0.00000000000E+00 0.  1.
          1    1    3    3  501    0  0.52254083695E+01 -0.25461225983E+03 -0.85263398834E+03  0.88985359797E+03  0.00000000000E+00 0.  1.
         -1    1    1    2    0  502  0.22233884104E+02  0.53094313831E+02  0.59230032032E+02  0.82592665885E+02  0.00000000000E+00 0. -1.
<mgrwt>
<rscale>  1 0.65019272E+03</rscale>
<asrwt>0</asrwt>
<pdfrwt beam="1">  1       21 0.27361254E-01 0.65019272E+03</pdfrwt>
<pdfrwt beam="2">0</pdfrwt>
<totfact> 0.12189953E+03</totfact>
</mgrwt>
</event>
<event>
 6    1  0.1386179E-004  0.6632699E+03  0.7818608E-02  0.9782193E-01
         21   -1    0    0  501  502  0.00000000000E+00  0.00000000000E+00  0.19103358754E+03  0.19103358754E+03  0.00000000000E+00 0.  1.
         13   -1    0    0    0    0 -0.00000000000E+00 -0.00000000000E+00 -0.10000000000E+04  0.10000000000E+04  0.00000000000E+00 0.  1.
    9000005    2    1    2  501    0  0.92279951853E+02  0.15886556610E+02 -0.85868171914E+03  0.10850166836E+04  0.65662693881E+03 0.  0.
         13    1    3    3    0    0 -0.22586086376E+02  0.15063071223E+03 -0.89194733330E+03  0.90485898799E+03  0.00000000000E+00 0.  1.
          3    1    3    3  501    0  0.11486603823E+03 -0.13474415562E+03  0.33265614158E+02  0.18015769564E+03  0.00000000000E+00 0.  1.
         -3    1    1    2    0  502 -0.92279951853E+02 -0.15886556610E+02  0.49715306683E+02  0.10601690390E+03  0.00000000000E+00 0. -1.
<mgrwt>
<rscale>  1 0.66326986E+03</rscale>
<asrwt>0</asrwt>
<pdfrwt beam="1">  1       21 0.29389782E-01 0.66326986E+03</pdfrwt>
<pdfrwt beam="2">0</pdfrwt>
<totfact> 0.10565054E+03</totfact>
</mgrwt>
</event>
<event>
 6    1  0.1386179E-004  0.6700879E+03  0.7818608E-02  0.9769799E-01
         21   -1    0    0  501  502  0.00000000000E+00  0.00000000000E+00  0.26482563301E+03  0.26482563301E+03  0.00000000000E+00 0. -1.
         13   -1    0    0    0    0 -0.00000000000E+00 -0.00000000000E+00 -0.10000000000E+04  0.10000000000E+04  0.00000000000E+00 0.  1.
    9000005    2    1    2  501    0  0.32166928656E+02  0.10855828974E+03 -0.86394819597E+03  0.10933546075E+04  0.66045302542E+03 0.  0.
         13    1    3    3    0    0  0.30281359952E+03 -0.66223962266E+02 -0.60585925501E+03  0.68054913571E+03  0.00000000000E+00 0.  1.
          1    1    3    3  501    0 -0.27064667087E+03  0.17478225201E+03 -0.25808894095E+03  0.41280547175E+03  0.00000000000E+00 0.  1.
         -1    1    1    2    0  502 -0.32166928656E+02 -0.10855828974E+03  0.12877382897E+03  0.17147102554E+03  0.00000000000E+00 0. -1.
<mgrwt>
<rscale>  1 0.67008791E+03</rscale>
<asrwt>0</asrwt>
<pdfrwt beam="1">  1       21 0.40742404E-01 0.67008791E+03</pdfrwt>
<pdfrwt beam="2">0</pdfrwt>
<totfact> 0.54268702E+02</totfact>
</mgrwt>
</event>
<event>
 6    1  0.1386179E-004  0.6561476E+03  0.7818608E-02  0.9795312E-01
         21   -1    0    0  501  502  0.00000000000E+00  0.00000000000E+00  0.16176881600E+03  0.16176881600E+03  0.00000000000E+00 0. -1.
         13   -1    0    0    0    0 -0.00000000000E+00 -0.00000000000E+00 -0.10000000000E+04  0.10000000000E+04  0.00000000000E+00 0.  1.
    9000005    2    1    2  501    0 -0.45024378509E+02  0.36196298324E+02 -0.87470173897E+03  0.10934499456E+04  0.65359948341E+03 0.  0.
         13    1    3    3    0    0  0.11134381743E+03  0.31534108762E+03 -0.40685601507E+03  0.52665858411E+03  0.00000000000E+00 0.  1.
          3    1    3    3  501    0 -0.15636819594E+03 -0.27914478929E+03 -0.46784572390E+03  0.56679136149E+03  0.00000000000E+00 0.  1.
         -1    1    1    2    0  502  0.45024378509E+02 -0.36196298324E+02  0.36470554973E+02  0.68318870399E+02  0.00000000000E+00 0. -1.
<mgrwt>
<rscale>  1 0.65614758E+03</rscale>
<asrwt>0</asrwt>
<pdfrwt beam="1">  1       21 0.24887509E-01 0.65614758E+03</pdfrwt>
<pdfrwt beam="2">0</pdfrwt>
<totfact> 0.14686339E+03</totfact>
</mgrwt>
</event>
<event>
 6    1  0.1386179E-004  0.6468351E+03  0.7818608E-02  0.9812736E-01
         21   -1    0    0  501  502  0.00000000000E+00  0.00000000000E+00  0.23675522033E+03  0.23675522033E+03  0.00000000000E+00 0.  1.
         13   -1    0    0    0    0 -0.00000000000E+00 -0.00000000000E+00 -0.10000000000E+04  0.10000000000E+04  0.00000000000E+00 0.  1.
    9000005    2    1    2  501    0 -0.91409884175E+02 -0.30151999635E+02 -0.87572633483E+03  0.10887112733E+04  0.63963326450E+03 0.  0.
         13    1    3    3    0    0 -0.35166268447E+03  0.59523689936E+02 -0.37644677409E+03  0.51857678991E+03  0.00000000000E+00 0.  1.
          1    1    3    3  501    0  0.26025280029E+03 -0.89675689570E+02 -0.49927956073E+03  0.57013448337E+03  0.00000000000E+00 0.  1.
         -1    1    1    2    0  502  0.91409884175E+02  0.30151999635E+02  0.11248155516E+03  0.14804394705E+03  0.00000000000E+00 0. -1.
<mgrwt>
<rscale>  1 0.64683508E+03</rscale>
<asrwt>0</asrwt>
<pdfrwt beam="1">  1       21 0.36423879E-01 0.64683508E+03</pdfrwt>
<pdfrwt beam="2">0</pdfrwt>
<totfact> 0.68522749E+02</totfact>
</mgrwt>
</event>
<event>
 6    1  0.1386179E-004  0.6523067E+03  0.7818608E-02  0.9802460E-01
         21   -1    0    0  501  502  0.00000000000E+00  0.00000000000E+00  0.48364719520E+03  0.48364719520E+03  0.00000000000E+00 0. -1.
         13   -1    0    0    0    0 -0.00000000000E+00 -0.00000000000E+00 -0.10000000000E+04  0.10000000000E+04  0.00000000000E+00 0.  1.
    9000005    2    1    2  501    0  0.85304082005E+02  0.15276160693E+01 -0.88827755109E+03  0.11020621628E+04  0.64670308718E+03 0.  0.
         13    1    3    3    0    0  0.26168312466E+03  0.28946666239E+02 -0.81251481740E+02  0.27553179581E+03  0.00000000000E+00 0.  1.
          1    1    3    3  501    0 -0.17637904266E+03 -0.27419050169E+02 -0.80702606935E+03  0.82653036703E+03  0.00000000000E+00 0.  1.
         -1    1    1    2    0  502 -0.85304082005E+02 -0.15276160693E+01  0.37192474630E+03  0.38158503237E+03  0.00000000000E+00 0. -1.
<mgrwt>
<rscale>  1 0.65230668E+03</rscale>
<asrwt>0</asrwt>
<pdfrwt beam="1">  1       21 0.74407259E-01 0.65230668E+03</pdfrwt>
<pdfrwt beam="2">0</pdfrwt>
<totfact> 0.14607138E+02</totfact>
</mgrwt>
</event>
<event>
 6    1  0.1386179E-004  0.6705867E+03  0.7818608E-02  0.9768899E-01
         21   -1    0    0  501  502  0.00000000000E+00  0.00000000000E+00  0.20348772689E+03  0.20348772689E+03  0.00000000000E+00 0.  1.
         13   -1    0    0    0    0 -0.00000000000E+00 -0.00000000000E+00 -0.10000000000E+04  0.10000000000E+04  0.00000000000E+00 0.  1.
    9000005    2    1    2  501    0 -0.16254977789E+03 -0.70692575195E+02 -0.77513131847E+03  0.10249463712E+04  0.64673536507E+03 0.  0.
         13    1    3    3    0    0 -0.30278491675E+03  0.13873926295E+03 -0.17987328590E+03  0.37852567664E+03  0.00000000000E+00 0.  1.
          1    1    3    3  501    0  0.14023513885E+03 -0.20943183814E+03 -0.59525803256E+03  0.64642069454E+03  0.00000000000E+00 0.  1.
         -1    1    1    2    0  502  0.16254977789E+03  0.70692575195E+02 -0.21380954641E+02  0.17854135572E+03  0.00000000000E+00 0. -1.
<mgrwt>
<rscale>  1 0.67058669E+03</rscale>
<asrwt>0</asrwt>
<pdfrwt beam="1">  1       21 0.31305803E-01 0.67058669E+03</pdfrwt>
<pdfrwt beam="2">0</pdfrwt>
<totfact> 0.93039319E+02</totfact>
</mgrwt>
</event>
<event>
 6    1  0.1386179E-004  0.6534553E+03  0.7818608E-02  0.9800317E-01
         21   -1    0    0  501  502  0.00000000000E+00  0.00000000000E+00  0.18163366638E+03  0.18163366638E+03  0.00000000000E+00 0.  1.
         13   -1    0    0    0    0 -0.00000000000E+00 -0.00000000000E+00 -0.10000000000E+04  0.10000000000E+04  0.00000000000E+00 0.  1.
    9000005    2    1    2  501    0 -0.31536537255E+02  0.45948542205E+01 -0.88947656863E+03  0.11037085011E+04  0.65267773310E+03 0.  0.
         13    1    3    3    0    0 -0.22250079108E+03  0.24559265455E+03 -0.57647610885E+03  0.66494139447E+03  0.00000000000E+00 0.  1.
          1    1    3    3  501    0  0.19096425382E+03 -0.24099780033E+03 -0.31300045978E+03  0.43876710659E+03  0.00000000000E+00 0.  1.
         -1    1    1    2    0  502  0.31536537255E+02 -0.45948542205E+01  0.71110235014E+02  0.77925165326E+02  0.00000000000E+00 0. -1.
<mgrwt>
<rscale>  1 0.65345535E+03</rscale>
<asrwt>0</asrwt>
<pdfrwt beam="1">  1       21 0.27943640E-01 0.65345535E+03</pdfrwt>
<pdfrwt beam="2">0</pdfrwt>
<totfact> 0.11688970E+03</totfact>
</mgrwt>
</event>
<event>
 6    1  0.1386179E-004  0.6603566E+03  0.7818608E-02  0.9787538E-01
         21   -1    0    0  501  502  0.00000000000E+00  0.00000000000E+00  0.23987051923E+03  0.23987051923E+03  0.00000000000E+00 0.  1.
         13   -1    0    0    0    0 -0.00000000000E+00 -0.00000000000E+00 -0.10000000000E+04  0.10000000000E+04  0.00000000000E+00 0.  1.
    9000005    2    1    2  501    0 -0.28844335044E+02 -0.72249184381E+02 -0.87801675385E+03  0.10986283532E+04  0.65575826197E+03 0.  0.
         13    1    3    3    0    0  0.15669552378E+03  0.20074772966E+03 -0.14104328933E+03  0.29111225945E+03  0.00000000000E+00 0.  1.
          1    1    3    3  501    0 -0.18553985882E+03 -0.27299691404E+03 -0.73697346451E+03  0.80751609376E+03  0.00000000000E+00 0.  1.
         -1    1    1    2    0  502  0.28844335044E+02  0.72249184381E+02  0.11788727307E+03  0.14124216601E+03  0.00000000000E+00 0. -1.
<mgrwt>
<rscale>  1 0.66035660E+03</rscale>
<asrwt>0</asrwt>
<pdfrwt beam="1">  1       21 0.36903156E-01 0.66035660E+03</pdfrwt>
<pdfrwt beam="2">0</pdfrwt>
<totfact> 0.66642249E+02</totfact>
</mgrwt>
</event>
<event>
 6    1  0.1386179E-004  0.6627509E+03  0.7818608E-02  0.9783143E-01
         21   -1    0    0  501  502  0.00000000000E+00  0.00000000000E+00  0.23002459865E+03  0.23002459865E+03  0.00000000000E+00 0.  1.
         13   -1    0    0    0    0 -0.00000000000E+00 -0.00000000000E+00 -0.10000000000E+04  0.10000000000E+04  0.00000000000E+00 0.  1.
    9000005    2    1    2  501    0  0.81623675204E+02 -0.14246233863E+03 -0.82374277421E+03  0.10572563358E+04  0.64209100535E+03 0.  0.
         13    1    3    3    0    0  0.16029594674E+03 -0.22509369491E+03 -0.57105205531E+02  0.28217541801E+03  0.00000000000E+00 0.  1.
          3    1    3    3  501    0 -0.78672271532E+02  0.82631356282E+02 -0.76663756867E+03  0.77508091774E+03  0.00000000000E+00 0.  1.
         -3    1    1    2    0  502 -0.81623675204E+02  0.14246233863E+03  0.53767372859E+02  0.17276826290E+03  0.00000000000E+00 0. -1.
<mgrwt>
<rscale>  1 0.66275093E+03</rscale>
<asrwt>0</asrwt>
<pdfrwt beam="1">  1       21 0.35388399E-01 0.66275093E+03</pdfrwt>
<pdfrwt beam="2">0</pdfrwt>
<totfact> 0.72602448E+02</totfact>
</mgrwt>
</event>
<event>
 6    1  0.1386179E-004  0.6786014E+03  0.7818608E-02  0.9754543E-01
         21   -1    0    0  501  502  0.00000000000E+00  0.00000000000E+00  0.26503362945E+03  0.26503362945E+03  0.00000000000E+00 0. -1.
         13   -1    0    0    0    0 -0.00000000000E+00 -0.00000000000E+00 -0.10000000000E+04  0.10000000000E+04  0.00000000000E+00 0.  1.
    9000005    2    1    2  501    0 -0.15730712622E+03 -0.10811761495E+02 -0.83676713016E+03  0.10773481990E+04  0.66002839759E+03 0.  0.
         13    1    3    3    0    0 -0.24278428387E+03  0.20581168095E+03 -0.77290347959E+03  0.83587226612E+03  0.00000000000E+00 0.  1.
          3    1    3    3  501    0  0.85477157652E+02 -0.21662344244E+03 -0.63863650572E+02  0.24147593288E+03  0.00000000000E+00 0.  1.
         -3    1    1    2    0  502  0.15730712622E+03  0.10811761495E+02  0.10180075961E+03  0.18768543045E+03  0.00000000000E+00 0. -1.
<mgrwt>
<rscale>  1 0.67860144E+03</rscale>
<asrwt>0</asrwt>
<pdfrwt beam="1">  1       21 0.40774403E-01 0.67860144E+03</pdfrwt>
<pdfrwt beam="2">0</pdfrwt>
<totfact> 0.54143461E+02</totfact>
</mgrwt>
</event>
<event>
 6    1  0.1386179E-004  0.7914431E+03  0.7818608E-02  0.9572486E-01
         21   -1    0    0  501  502  0.00000000000E+00  0.00000000000E+00  0.26881409103E+03  0.26881409103E+03  0.00000000000E+00 0. -1.
         13   -1    0    0    0    0 -0.00000000000E+00 -0.00000000000E+00 -0.10000000000E+04  0.10000000000E+04  0.00000000000E+00 0.  1.
    9000005    2    1    2  501    0 -0.15207845417E+02 -0.52781799501E+02 -0.83554808149E+03  0.11508791091E+04  0.78953462891E+03 0.  0.
         13    1    3    3    0    0  0.53377377484E+02 -0.10331836381E+03  0.13409691475E+03  0.17749876414E+03  0.00000000000E+00 0.  1.
          3    1    3    3  501    0 -0.68585222901E+02  0.50536564305E+02 -0.96964499624E+03  0.97338034491E+03  0.00000000000E+00 0.  1.
         -3    1    1    2    0  502  0.15207845417E+02  0.52781799501E+02  0.10436217252E+03  0.11793498198E+03  0.00000000000E+00 0. -1.
<mgrwt>
<rscale>  1 0.79144307E+03</rscale>
<asrwt>0</asrwt>
<pdfrwt beam="1">  1       21 0.41356013E-01 0.79144307E+03</pdfrwt>
<pdfrwt beam="2">0</pdfrwt>
<totfact> 0.52134096E+02</totfact>
</mgrwt>
</event>
<event>
 6    1  0.1386179E-004  0.6581189E+03  0.7818608E-02  0.9791663E-01
         21   -1    0    0  501  502  0.00000000000E+00  0.00000000000E+00  0.16014583428E+03  0.16014583428E+03  0.00000000000E+00 0.  1.
         13   -1    0    0    0    0 -0.00000000000E+00 -0.00000000000E+00 -0.10000000000E+04  0.10000000000E+04  0.00000000000E+00 0.  1.
    9000005    2    1    2  501    0 -0.14797466281E+02 -0.64874157024E+02 -0.86682248047E+03  0.10883481236E+04  0.65474636635E+03 0.  0.
         13    1    3    3    0    0  0.82940480940E+02  0.13773317068E+03 -0.84744898908E+03  0.86256555622E+03  0.00000000000E+00 0.  1.
          3    1    3    3  501    0 -0.97737947220E+02 -0.20260732770E+03 -0.19373491388E+02  0.22578256738E+03  0.00000000000E+00 0.  1.
         -1    1    1    2    0  502  0.14797466281E+02  0.64874157024E+02  0.26968314754E+02  0.71797710678E+02  0.00000000000E+00 0. -1.
<mgrwt>
<rscale>  1 0.65811885E+03</rscale>
<asrwt>0</asrwt>
<pdfrwt beam="1">  1       21 0.24637820E-01 0.65811885E+03</pdfrwt>
<pdfrwt beam="2">0</pdfrwt>
<totfact> 0.14977776E+03</totfact>
</mgrwt>
</event>
<event>
 6    1  0.1386179E-004  0.6528414E+03  0.7818608E-02  0.9801462E-01
         21   -1    0    0  501  502  0.00000000000E+00  0.00000000000E+00  0.28642763749E+03  0.28642763749E+03  0.00000000000E+00 0. -1.
         13   -1    0    0    0    0 -0.00000000000E+00 -0.00000000000E+00 -0.10000000000E+04  0.10000000000E+04  0.00000000000E+00 0.  1.
    9000005    2    1    2  501    0 -0.83255022794E+01 -0.46826796798E+02 -0.88996304350E+03  0.11037373662E+04  0.65110666702E+03 0.  0.
         13    1    3    3    0    0 -0.21838077537E+03  0.21708769809E+03 -0.50913958202E+03  0.59501289540E+03  0.00000000000E+00 0.  1.
          1    1    3    3  501    0  0.21005527309E+03 -0.26391449489E+03 -0.38082346148E+03  0.50872447079E+03  0.00000000000E+00 0.  1.
         -1    1    1    2    0  502  0.83255022794E+01  0.46826796798E+02  0.17639068100E+03  0.18269027131E+03  0.00000000000E+00 0. -1.
<mgrwt>
<rscale>  1 0.65284145E+03</rscale>
<asrwt>0</asrwt>
<pdfrwt beam="1">  1       21 0.44065789E-01 0.65284145E+03</pdfrwt>
<pdfrwt beam="2">0</pdfrwt>
<totfact> 0.46117010E+02</totfact>
</mgrwt>
</event>
<event>
 6    1  0.1386179E-004  0.5714926E+03  0.7818608E-02  0.9966381E-01
         21   -1    0    0  501  502  0.00000000000E+00  0.00000000000E+00  0.10872454295E+03  0.10872454295E+03  0.00000000000E+00 0.  1.
         13   -1    0    0    0    0 -0.00000000000E+00 -0.00000000000E+00 -0.10000000000E+04  0.10000000000E+04  0.00000000000E+00 0.  1.
    9000005    2    1    2  501    0  0.93064133250E+01 -0.47883342717E+02 -0.89265813023E+03  0.10599256124E+04  0.56940700952E+03 0.  0.
         13    1    3    3    0    0 -0.23640610818E+03 -0.17485160233E+03 -0.48919596739E+03  0.57076582355E+03  0.00000000000E+00 0.  1.
          1    1    3    3  501    0  0.24571252151E+03  0.12696825961E+03 -0.40346216285E+03  0.48915978885E+03  0.00000000000E+00 0.  1.
         -3    1    1    2    0  502 -0.93064133250E+01  0.47883342717E+02  0.13826731878E+01  0.48798930561E+02  0.00000000000E+00 0. -1.
<mgrwt>
<rscale>  1 0.57149258E+03</rscale>
<asrwt>0</asrwt>
<pdfrwt beam="1">  1       21 0.16726852E-01 0.57149258E+03</pdfrwt>
<pdfrwt beam="2">0</pdfrwt>
<totfact> 0.31598553E+03</totfact>
</mgrwt>
</event>
<event>
 6    1  0.1386179E-004  0.6791054E+03  0.7818608E-02  0.9753647E-01
         21   -1    0    0  501  502  0.00000000000E+00  0.00000000000E+00  0.33423107133E+03  0.33423107133E+03  0.00000000000E+00 0. -1.
         13   -1    0    0    0    0 -0.00000000000E+00 -0.00000000000E+00 -0.10000000000E+04  0.10000000000E+04  0.00000000000E+00 0.  1.
    9000005    2    1    2  501    0  0.50974372361E+02 -0.14772637764E+03 -0.85302207870E+03  0.10903351684E+04  0.66088020346E+03 0.  0.
         13    1    3    3    0    0 -0.19496484266E+03  0.15822047685E+03 -0.51239423012E+03  0.57060744494E+03  0.00000000000E+00 0.  1.
          3    1    3    3  501    0  0.24593921502E+03 -0.30594685449E+03 -0.34062784858E+03  0.51972772342E+03  0.00000000000E+00 0.  1.
         -1    1    1    2    0  502 -0.50974372361E+02  0.14772637764E+03  0.18725315003E+03  0.24389590297E+03  0.00000000000E+00 0. -1.
<mgrwt>
<rscale>  1 0.67910538E+03</rscale>
<asrwt>0</asrwt>
<pdfrwt beam="1">  1       21 0.51420163E-01 0.67910538E+03</pdfrwt>
<pdfrwt beam="2">0</pdfrwt>
<totfact> 0.33119538E+02</totfact>
</mgrwt>
</event>
<event>
 6    1  0.1386179E-004  0.6513684E+03  0.7818608E-02  0.9804215E-01
         21   -1    0    0  501  502  0.00000000000E+00  0.00000000000E+00  0.21839171506E+03  0.21839171506E+03  0.00000000000E+00 0.  1.
         13   -1    0    0    0    0 -0.00000000000E+00 -0.00000000000E+00 -0.10000000000E+04  0.10000000000E+04  0.00000000000E+00 0.  1.
    9000005    2    1    2  501    0  0.10835959332E+02  0.22919036642E+02 -0.89234520204E+03  0.11047899322E+04  0.65087489926E+03 0.  0.
         13    1    3    3    0    0 -0.67488963288E+02  0.31888557105E+03 -0.32604176521E+03  0.46102711444E+03  0.00000000000E+00 0.  1.
          3    1    3    3  501    0  0.78324922620E+02 -0.29596653441E+03 -0.56630343683E+03  0.64376281778E+03  0.00000000000E+00 0.  1.
         -3    1    1    2    0  502 -0.10835959332E+02 -0.22919036642E+02  0.11073691710E+03  0.11360178283E+03  0.00000000000E+00 0. -1.
<mgrwt>
<rscale>  1 0.65136843E+03</rscale>
<asrwt>0</asrwt>
<pdfrwt beam="1">  1       21 0.33598724E-01 0.65136843E+03</pdfrwt>
<pdfrwt beam="2">0</pdfrwt>
<totfact> 0.80757559E+02</totfact>
</mgrwt>
</event>
<event>
 6    1  0.1386179E-004  0.7680348E+03  0.7818608E-02  0.9607474E-01
         21   -1    0    0  501  502  0.00000000000E+00  0.00000000000E+00  0.17632563230E+03  0.17632563230E+03  0.00000000000E+00 0.  1.
         13   -1    0    0    0    0 -0.00000000000E+00 -0.00000000000E+00 -0.10000000000E+04  0.10000000000E+04  0.00000000000E+00 0.  1.
    9000005    2    1    2  501    0 -0.50619701907E+02 -0.68557092123E+01 -0.82234875789E+03  0.11252265891E+04  0.76633415842E+03 0.  0.
         13    1    3    3    0    0 -0.11126254583E+03 -0.23583294509E+02  0.12889813205E+03  0.17190187414E+03  0.00000000000E+00 0.  1.
          3    1    3    3  501    0  0.60642843927E+02  0.16727585297E+02 -0.95124688994E+03  0.95332471501E+03  0.00000000000E+00 0.  1.
         -3    1    1    2    0  502  0.50619701907E+02  0.68557092123E+01 -0.13256098074E+01  0.51099043154E+02  0.00000000000E+00 0. -1.
<mgrwt>
<rscale>  1 0.76803476E+03</rscale>
<asrwt>0</asrwt>
<pdfrwt beam="1">  1       21 0.27127020E-01 0.76803476E+03</pdfrwt>
<pdfrwt beam="2">0</pdfrwt>
<totfact> 0.12322904E+03</totfact>
</mgrwt>
</event>
<event>
 6    1  0.1386179E-004  0.6482996E+03  0.7818608E-02  0.9809975E-01
         21   -1    0    0  501  502  0.00000000000E+00  0.00000000000E+00  0.40040191469E+03  0.40040191469E+03  0.00000000000E+00 0. -1.
         13   -1    0    0    0    0 -0.00000000000E+00 -0.00000000000E+00 -0.10000000000E+04  0.10000000000E+04  0.00000000000E+00 0.  1.
    9000005    2    1    2  501    0 -0.27667429975E+02 -0.58053054083E+01 -0.89417908511E+03  0.11044675407E+04  0.64768288847E+03 0.  0.
         13    1    3    3    0    0  0.78277603286E+02 -0.13948067799E+03  0.31659812855E+02  0.16304780421E+03  0.00000000000E+00 0.  1.
          1    1    3    3  501    0 -0.10594503326E+03  0.13367537258E+03 -0.92583889796E+03  0.94141973651E+03  0.00000000000E+00 0.  1.
         -1    1    1    2    0  502  0.27667429975E+02  0.58053054083E+01  0.29458099979E+03  0.29593437396E+03  0.00000000000E+00 0. -1.
<mgrwt>
<rscale>  1 0.64829955E+03</rscale>
<asrwt>0</asrwt>
<pdfrwt beam="1">  1       21 0.61600293E-01 0.64829955E+03</pdfrwt>
<pdfrwt beam="2">0</pdfrwt>
<totfact> 0.22384329E+02</totfact>
</mgrwt>
</event>
<event>
 6    1  0.1386179E-004  0.6462981E+03  0.7818608E-02  0.9813751E-01
         21   -1    0    0  501  502  0.00000000000E+00  0.00000000000E+00  0.12464429022E+03  0.12464429022E+03  0.00000000000E+00 0.  1.
         13   -1    0    0    0    0 -0.00000000000E+00 -0.00000000000E+00 -0.10000000000E+04  0.10000000000E+04  0.00000000000E+00 0.  1.
    9000005    2    1    2  501    0 -0.33997672676E+02  0.47038106412E+02 -0.82337113440E+03  0.10467288150E+04  0.64368685085E+03 0.  0.
         13    1    3    3    0    0  0.27233980879E+03  0.16141619550E+03 -0.35710264619E+03  0.47722789057E+03  0.00000000000E+00 0.  1.
          1    1    3    3  501    0 -0.30633748147E+03 -0.11437808909E+03 -0.46626848820E+03  0.56950092441E+03  0.00000000000E+00 0.  1.
         -3    1    1    2    0  502  0.33997672676E+02 -0.47038106412E+02 -0.51984575389E+02  0.77915475231E+02  0.00000000000E+00 0. -1.
<mgrwt>
<rscale>  1 0.64629806E+03</rscale>
<asrwt>0</asrwt>
<pdfrwt beam="1">  1       21 0.19176044E-01 0.64629806E+03</pdfrwt>
<pdfrwt beam="2">0</pdfrwt>
<totfact> 0.24327568E+03</totfact>
</mgrwt>
</event>
<event>
 6    1  0.1386179E-004  0.6537676E+03  0.7818608E-02  0.9799735E-01
         21   -1    0    0  501  502  0.00000000000E+00  0.00000000000E+00  0.21702293475E+03  0.21702293475E+03  0.00000000000E+00 0.  1.
         13   -1    0    0    0    0 -0.00000000000E+00 -0.00000000000E+00 -0.10000000000E+04  0.10000000000E+04  0.00000000000E+00 0.  1.
    9000005    2    1    2  501    0 -0.50849399740E+02  0.44531363047E+02 -0.88154089077E+03  0.10975092056E+04  0.65026410832E+03 0.  0.
         13    1    3    3    0    0  0.18283236634E+03  0.26639010820E+03 -0.35342415640E+03  0.47885279393E+03  0.00000000000E+00 0.  1.
          3    1    3    3  501    0 -0.23368176608E+03 -0.22185874515E+03 -0.52811673437E+03  0.61865641169E+03  0.00000000000E+00 0.  1.
         -1    1    1    2    0  502  0.50849399740E+02 -0.44531363047E+02  0.98563825525E+02  0.11951372913E+03  0.00000000000E+00 0. -1.
<mgrwt>
<rscale>  1 0.65376763E+03</rscale>
<asrwt>0</asrwt>
<pdfrwt beam="1">  1       21 0.33388143E-01 0.65376763E+03</pdfrwt>
<pdfrwt beam="2">0</pdfrwt>
<totfact> 0.81780365E+02</totfact>
</mgrwt>
</event>
<event>
 6    1  0.1386179E-004  0.6426955E+03  0.7818608E-02  0.9820583E-01
         21   -1    0    0  501  502  0.00000000000E+00  0.00000000000E+00  0.14597822766E+03  0.14597822766E+03  0.00000000000E+00 0.  1.
         13   -1    0    0    0    0 -0.00000000000E+00 -0.00000000000E+00 -0.10000000000E+04  0.10000000000E+04  0.00000000000E+00 0.  1.
    9000005    2    1    2  501    0  0.15839133579E+02  0.67182468698E+02 -0.86337370575E+03  0.10763232141E+04  0.63897820245E+03 0.  0.
         13    1    3    3    0    0  0.26664365059E+03  0.20405663838E+03 -0.32749808906E+03  0.46903405676E+03  0.00000000000E+00 0.  1.
          3    1    3    3  501    0 -0.25080451701E+03 -0.13687416968E+03 -0.53587561669E+03  0.60728915736E+03  0.00000000000E+00 0.  1.
         -3    1    1    2    0  502 -0.15839133579E+02 -0.67182468698E+02  0.93519334134E+01  0.69655013541E+02  0.00000000000E+00 0. -1.
<mgrwt>
<rscale>  1 0.64269550E+03</rscale>
<asrwt>0</asrwt>
<pdfrwt beam="1">  1       21 0.22458188E-01 0.64269550E+03</pdfrwt>
<pdfrwt beam="2">0</pdfrwt>
<totfact> 0.17953145E+03</totfact>
</mgrwt>
</event>
<event>
 6    1  0.1386179E-004  0.6463015E+03  0.7818608E-02  0.9813744E-01
         21   -1    0    0  501  502  0.00000000000E+00  0.00000000000E+00  0.13731943937E+03  0.13731943937E+03  0.00000000000E+00 0.  1.
         13   -1    0    0    0    0 -0.00000000000E+00 -0.00000000000E+00 -0.10000000000E+04  0.10000000000E+04  0.00000000000E+00 0.  1.
    9000005    2    1    2  501    0 -0.14718982652E+02 -0.28483447926E+02 -0.88671081639E+03  0.10972518908E+04  0.64550575885E+03 0.  0.
         13    1    3    3    0    0  0.26214548781E+03  0.51371944581E+02 -0.71154598234E+03  0.76003751121E+03  0.00000000000E+00 0.  1.
          1    1    3    3  501    0 -0.27686447046E+03 -0.79855392507E+02 -0.17516483406E+03  0.33721437959E+03  0.00000000000E+00 0.  1.
         -1    1    1    2    0  502  0.14718982652E+02  0.28483447926E+02  0.24030255768E+02  0.40067548569E+02  0.00000000000E+00 0. -1.
<mgrwt>
<rscale>  1 0.64630151E+03</rscale>
<asrwt>0</asrwt>
<pdfrwt beam="1">  1       21 0.21126067E-01 0.64630151E+03</pdfrwt>
<pdfrwt beam="2">0</pdfrwt>
<totfact> 0.20202453E+03</totfact>
</mgrwt>
</event>
<event>
 6    1  0.1386179E-004  0.6433210E+03  0.7818608E-02  0.9819393E-01
         21   -1    0    0  501  502  0.00000000000E+00  0.00000000000E+00  0.13274507520E+03  0.13274507520E+03  0.00000000000E+00 0.  1.
         13   -1    0    0    0    0 -0.00000000000E+00 -0.00000000000E+00 -0.10000000000E+04  0.10000000000E+04  0.00000000000E+00 0.  1.
    9000005    2    1    2  501    0 -0.23576615609E+02 -0.18718310931E+02 -0.88774030816E+03  0.10963324002E+04  0.64261625024E+03 0.  0.
         13    1    3    3    0    0 -0.32580533313E+03 -0.63584650222E+01 -0.34213282431E+03  0.47248747565E+03  0.00000000000E+00 0.  1.
          1    1    3    3  501    0  0.30222871752E+03 -0.12359845909E+02 -0.54560748385E+03  0.62384492457E+03  0.00000000000E+00 0.  1.
         -1    1    1    2    0  502  0.23576615609E+02  0.18718310931E+02  0.20485383364E+02  0.36412674981E+02  0.00000000000E+00 0. -1.
<mgrwt>
<rscale>  1 0.64332098E+03</rscale>
<asrwt>0</asrwt>
<pdfrwt beam="1">  1       21 0.20422319E-01 0.64332098E+03</pdfrwt>
<pdfrwt beam="2">0</pdfrwt>
<totfact> 0.21566019E+03</totfact>
</mgrwt>
</event>
<event>
 6    1  0.1386179E-004  0.6792823E+03  0.7818608E-02  0.9753333E-01
         21   -1    0    0  501  502  0.00000000000E+00  0.00000000000E+00  0.63577502039E+03  0.63577502039E+03  0.00000000000E+00 0. -1.
         13   -1    0    0    0    0 -0.00000000000E+00 -0.00000000000E+00 -0.10000000000E+04  0.10000000000E+04  0.00000000000E+00 0.  1.
    9000005    2    1    2  501    0  0.62946900685E+02  0.19091767962E+03 -0.86285071809E+03  0.10981510814E+04  0.64885480901E+03 0.  0.
         13    1    3    3    0    0 -0.27363265808E+03  0.13173727223E+03 -0.57935362295E+03  0.65412549323E+03  0.00000000000E+00 0.  1.
          1    1    3    3  501    0  0.33657955877E+03  0.59180407384E+02 -0.28349709514E+03  0.44402558817E+03  0.00000000000E+00 0.  1.
         -3    1    1    2    0  502 -0.62946900685E+02 -0.19091767962E+03  0.49862573849E+03  0.53762393899E+03  0.00000000000E+00 0. -1.
<mgrwt>
<rscale>  1 0.67928229E+03</rscale>
<asrwt>0</asrwt>
<pdfrwt beam="1">  1       21 0.97811539E-01 0.67928229E+03</pdfrwt>
<pdfrwt beam="2">0</pdfrwt>
<totfact> 0.76228044E+01</totfact>
</mgrwt>
</event>
<event>
 6    1  0.1386179E-004  0.6729654E+03  0.7818608E-02  0.9764616E-01
         21   -1    0    0  501  502  0.00000000000E+00  0.00000000000E+00  0.19253928161E+03  0.19253928161E+03  0.00000000000E+00 0.  1.
         13   -1    0    0    0    0 -0.00000000000E+00 -0.00000000000E+00 -0.10000000000E+04  0.10000000000E+04  0.00000000000E+00 0.  1.
    9000005    2    1    2  501    0 -0.16551310089E+03 -0.19733609533E+02 -0.76822344954E+03  0.10212980331E+04  0.65199570715E+03 0.  0.
         13    1    3    3    0    0  0.53402601955E+02  0.69723633574E+02  0.93165743941E+02  0.12803545922E+03  0.00000000000E+00 0.  1.
          1    1    3    3  501    0 -0.21891570285E+03 -0.89457243107E+02 -0.86138919349E+03  0.89326257391E+03  0.00000000000E+00 0.  1.
         -3    1    1    2    0  502  0.16551310089E+03  0.19733609533E+02 -0.39237268849E+02  0.17124124847E+03  0.00000000000E+00 0. -1.
<mgrwt>
<rscale>  1 0.67296538E+03</rscale>
<asrwt>0</asrwt>
<pdfrwt beam="1">  1       21 0.29621427E-01 0.67296538E+03</pdfrwt>
<pdfrwt beam="2">0</pdfrwt>
<totfact> 0.10394444E+03</totfact>
</mgrwt>
</event>
<event>
 6    1  0.1386179E-004  0.6514817E+03  0.7818608E-02  0.9804003E-01
         21   -1    0    0  501  502  0.00000000000E+00  0.00000000000E+00  0.17000076927E+03  0.17000076927E+03  0.00000000000E+00 0.  1.
         13   -1    0    0    0    0 -0.00000000000E+00 -0.00000000000E+00 -0.10000000000E+04  0.10000000000E+04  0.00000000000E+00 0.  1.
    9000005    2    1    2  501    0 -0.17515891479E+01  0.37919326426E+02 -0.88759328595E+03  0.11010223772E+04  0.65037488448E+03 0.  0.
         13    1    3    3    0    0  0.30231234334E+03  0.26635121620E+02 -0.24501294245E+03  0.39004297790E+03  0.00000000000E+00 0.  1.
          1    1    3    3  501    0 -0.30406393249E+03  0.11284204806E+02 -0.64258034350E+03  0.71097939926E+03  0.00000000000E+00 0.  1.
         -3    1    1    2    0  502  0.17515891479E+01 -0.37919326426E+02  0.57594055220E+02  0.68978392108E+02  0.00000000000E+00 0. -1.
<mgrwt>
<rscale>  1 0.65148172E+03</rscale>
<asrwt>0</asrwt>
<pdfrwt beam="1">  1       21 0.26153964E-01 0.65148172E+03</pdfrwt>
<pdfrwt beam="2">0</pdfrwt>
<totfact> 0.13325126E+03</totfact>
</mgrwt>
</event>
<event>
 6    1  0.1386179E-004  0.6618556E+03  0.7818608E-02  0.9784784E-01
         21   -1    0    0  501  502  0.00000000000E+00  0.00000000000E+00  0.31621187683E+03  0.31621187683E+03  0.00000000000E+00 0.  1.
         13   -1    0    0    0    0 -0.00000000000E+00 -0.00000000000E+00 -0.10000000000E+04  0.10000000000E+04  0.00000000000E+00 0.  1.
    9000005    2    1    2  501    0 -0.13310510123E+03 -0.18550437840E+02 -0.86590121740E+03  0.10898796745E+04  0.64806766613E+03 0.  0.
         13    1    3    3    0    0 -0.68508927872E+02  0.30823783918E+03 -0.52919850193E+03  0.61624272259E+03  0.00000000000E+00 0.  1.
          1    1    3    3  501    0 -0.64596173361E+02 -0.32678827702E+03 -0.33670271547E+03  0.47363695191E+03  0.00000000000E+00 0.  1.
         -3    1    1    2    0  502  0.13310510123E+03  0.18550437840E+02  0.18211309423E+03  0.22633220232E+03  0.00000000000E+00 0. -1.
<mgrwt>
<rscale>  1 0.66185556E+03</rscale>
<asrwt>0</asrwt>
<pdfrwt beam="1">  1       21 0.48647980E-01 0.66185556E+03</pdfrwt>
<pdfrwt beam="2">0</pdfrwt>
<totfact> 0.37360821E+02</totfact>
</mgrwt>
</event>
<event>
 6    1  0.1386179E-004  0.6604696E+03  0.7818608E-02  0.9787330E-01
         21   -1    0    0  501  502  0.00000000000E+00  0.00000000000E+00  0.32738024002E+03  0.32738024002E+03  0.00000000000E+00 0. -1.
         13   -1    0    0    0    0 -0.00000000000E+00 -0.00000000000E+00 -0.10000000000E+04  0.10000000000E+04  0.00000000000E+00 0.  1.
    9000005    2    1    2  501    0  0.56766643584E+02  0.48998149921E-01 -0.88684351394E+03  0.11057628423E+04  0.65802552452E+03 0.  0.
         13    1    3    3    0    0 -0.17914378261E+03  0.25339584239E+03 -0.35907808660E+03  0.47459353142E+03  0.00000000000E+00 0.  1.
          3    1    3    3  501    0  0.23591042619E+03 -0.25334684424E+03 -0.52776542733E+03  0.63116931085E+03  0.00000000000E+00 0.  1.
         -3    1    1    2    0  502 -0.56766643584E+02 -0.48998149921E-01  0.21422375396E+03  0.22161739775E+03  0.00000000000E+00 0. -1.
<mgrwt>
<rscale>  1 0.66046956E+03</rscale>
<asrwt>0</asrwt>
<pdfrwt beam="1">  1       21 0.50366189E-01 0.66046956E+03</pdfrwt>
<pdfrwt beam="2">0</pdfrwt>
<totfact> 0.34689039E+02</totfact>
</mgrwt>
</event>
<event>
 6    1  0.1386179E-004  0.6470335E+03  0.7818608E-02  0.9812362E-01
         21   -1    0    0  501  502  0.00000000000E+00  0.00000000000E+00  0.25720948730E+03  0.25720948730E+03  0.00000000000E+00 0. -1.
         13   -1    0    0    0    0 -0.00000000000E+00 -0.00000000000E+00 -0.10000000000E+04  0.10000000000E+04  0.00000000000E+00 0.  1.
    9000005    2    1    2  501    0  0.22348491802E+02  0.19019984362E+02 -0.89377606597E+03  0.11033983948E+04  0.64636765587E+03 0.  0.
         13    1    3    3    0    0 -0.61557621387E+02 -0.19743349655E+03 -0.84002763031E+03  0.86511025077E+03  0.00000000000E+00 0.  1.
          1    1    3    3  501    0  0.83906113190E+02  0.21645348091E+03 -0.53748435666E+02  0.23828814399E+03  0.00000000000E+00 0.  1.
         -1    1    1    2    0  502 -0.22348491802E+02 -0.19019984362E+02  0.15098555327E+03  0.15381109254E+03  0.00000000000E+00 0. -1.
<mgrwt>
<rscale>  1 0.64703351E+03</rscale>
<asrwt>0</asrwt>
<pdfrwt beam="1">  1       21 0.39570689E-01 0.64703351E+03</pdfrwt>
<pdfrwt beam="2">0</pdfrwt>
<totfact> 0.57768377E+02</totfact>
</mgrwt>
</event>
<event>
 6    1  0.1386179E-004  0.6729164E+03  0.7818608E-02  0.9764704E-01
         21   -1    0    0  501  502  0.00000000000E+00  0.00000000000E+00  0.17348637485E+03  0.17348637485E+03  0.00000000000E+00 0.  1.
         13   -1    0    0    0    0 -0.00000000000E+00 -0.00000000000E+00 -0.10000000000E+04  0.10000000000E+04  0.00000000000E+00 0.  1.
    9000005    2    1    2  501    0 -0.17090420124E+02 -0.15668276485E+03 -0.70385148551E+03  0.97376764322E+03  0.65419793493E+03 0.  0.
         13    1    3    3    0    0  0.26084036132E+03 -0.14027028523E+03 -0.10651948494E+03  0.31473774430E+03  0.00000000000E+00 0.  1.
          3    1    3    3  501    0 -0.27793078145E+03 -0.16412479614E+02 -0.59733200057E+03  0.65902989892E+03  0.00000000000E+00 0.  1.
         -3    1    1    2    0  502  0.17090420124E+02  0.15668276485E+03 -0.12266213964E+03  0.19971873163E+03  0.00000000000E+00 0. -1.
<mgrwt>
<rscale>  1 0.67291642E+03</rscale>
<asrwt>0</asrwt>
<pdfrwt beam="1">  1       21 0.26690211E-01 0.67291642E+03</pdfrwt>
<pdfrwt beam="2">0</pdfrwt>
<totfact> 0.12787322E+03</totfact>
</mgrwt>
</event>
<event>
 6    1  0.1386179E-004  0.6605072E+03  0.7818608E-02  0.9787261E-01
         21   -1    0    0  501  502  0.00000000000E+00  0.00000000000E+00  0.15839684410E+03  0.15839684410E+03  0.00000000000E+00 0.  1.
         13   -1    0    0    0    0 -0.00000000000E+00 -0.00000000000E+00 -0.10000000000E+04  0.10000000000E+04  0.00000000000E+00 0.  1.
    9000005    2    1    2  501    0  0.15404790821E+02 -0.10410209918E+03 -0.81649639376E+03  0.10502076388E+04  0.65206991113E+03 0.  0.
         13    1    3    3    0    0 -0.76231641672E+02  0.23916228965E+02  0.95619320857E+02  0.12460458949E+03  0.00000000000E+00 0.  1.
          1    1    3    3  501    0  0.91636432493E+02 -0.12801832814E+03 -0.91211571462E+03  0.92560304934E+03  0.00000000000E+00 0.  1.
         -3    1    1    2    0  502 -0.15404790821E+02  0.10410209918E+03 -0.25106762135E+02  0.10818920527E+03  0.00000000000E+00 0. -1.
<mgrwt>
<rscale>  1 0.66050717E+03</rscale>
<asrwt>0</asrwt>
<pdfrwt beam="1">  1       21 0.24368745E-01 0.66050717E+03</pdfrwt>
<pdfrwt beam="2">0</pdfrwt>
<totfact> 0.15301253E+03</totfact>
</mgrwt>
</event>
<event>
 6    1  0.1386179E-004  0.6729232E+03  0.7818608E-02  0.9764691E-01
         21   -1    0    0  501  502  0.00000000000E+00  0.00000000000E+00  0.22676292864E+03  0.22676292864E+03  0.00000000000E+00 0.  1.
         13   -1    0    0    0    0 -0.00000000000E+00 -0.00000000000E+00 -0.10000000000E+04  0.10000000000E+04  0.00000000000E+00 0.  1.
    9000005    2    1    2  501    0  0.17734695483E+03 -0.43376654692E+02 -0.79650591647E+03  0.10427115344E+04  0.64768216936E+03 0.  0.
         13    1    3    3    0    0 -0.12015965518E+03  0.21870353162E+03 -0.45719167266E+03  0.52085871695E+03  0.00000000000E+00 0.  1.
          3    1    3    3  501    0  0.29750661001E+03 -0.26208018631E+03 -0.33931424381E+03  0.52185281747E+03  0.00000000000E+00 0.  1.
         -1    1    1    2    0  502 -0.17734695483E+03  0.43376654692E+02  0.23268845105E+02  0.18405139421E+03  0.00000000000E+00 0. -1.
<mgrwt>
<rscale>  1 0.67292323E+03</rscale>
<asrwt>0</asrwt>
<pdfrwt beam="1">  1       21 0.34886603E-01 0.67292323E+03</pdfrwt>
<pdfrwt beam="2">0</pdfrwt>
<totfact> 0.74696098E+02</totfact>
</mgrwt>
</event>
<event>
 6    1  0.1386179E-004  0.7869371E+03  0.7818608E-02  0.9579120E-01
         21   -1    0    0  501  502  0.00000000000E+00  0.00000000000E+00  0.38465475563E+03  0.38465475563E+03  0.00000000000E+00 0. -1.
         13   -1    0    0    0    0 -0.00000000000E+00 -0.00000000000E+00 -0.10000000000E+04  0.10000000000E+04  0.00000000000E+00 0.  1.
    9000005    2    1    2  501    0 -0.33761515201E+03  0.28300280800E+03 -0.48845131881E+03  0.92620448729E+03  0.65207015054E+03 0.  0.
         13    1    3    3    0    0  0.45713271102E+02 -0.14044619924E+03 -0.28294823461E+03  0.31917791512E+03  0.00000000000E+00 0.  1.
          1    1    3    3  501    0 -0.38332842311E+03  0.42344900724E+03 -0.20550308420E+03  0.60702657216E+03  0.00000000000E+00 0.  1.
         -3    1    1    2    0  502  0.33761515201E+03 -0.28300280800E+03 -0.12689392556E+03  0.45845026834E+03  0.00000000000E+00 0. -1.
<mgrwt>
<rscale>  1 0.78693714E+03</rscale>
<asrwt>0</asrwt>
<pdfrwt beam="1">  1       21 0.59177653E-01 0.78693714E+03</pdfrwt>
<pdfrwt beam="2">0</pdfrwt>
<totfact> 0.24134616E+02</totfact>
</mgrwt>
</event>
<event>
 6    1  0.1386179E-004  0.6539266E+03  0.7818608E-02  0.9799439E-01
         21   -1    0    0  501  502  0.00000000000E+00  0.00000000000E+00  0.20495148267E+03  0.20495148267E+03  0.00000000000E+00 0. -1.
         13   -1    0    0    0    0 -0.00000000000E+00 -0.00000000000E+00 -0.10000000000E+04  0.10000000000E+04  0.00000000000E+00 0.  1.
    9000005    2    1    2  501    0  0.75436634836E+01 -0.50660561113E+02 -0.88563065763E+03  0.11008912912E+04  0.65191761286E+03 0.  0.
         13    1    3    3    0    0  0.82839975202E+02 -0.19837616533E+03 -0.15973759791E+02  0.21557069713E+03  0.00000000000E+00 0.  1.
          1    1    3    3  501    0 -0.75296311718E+02  0.14771560421E+03 -0.86965689784E+03  0.88532059405E+03  0.00000000000E+00 0.  1.
         -3    1    1    2    0  502 -0.75436634836E+01  0.50660561113E+02  0.90582140303E+02  0.10406019149E+03  0.00000000000E+00 0. -1.
<mgrwt>
<rscale>  1 0.65392658E+03</rscale>
<asrwt>0</asrwt>
<pdfrwt beam="1">  1       21 0.31530996E-01 0.65392658E+03</pdfrwt>
<pdfrwt beam="2">0</pdfrwt>
<totfact> 0.91805024E+02</totfact>
</mgrwt>
</event>
<event>
 6    1  0.1386179E-004  0.6526658E+03  0.7818608E-02  0.9801790E-01
         21   -1    0    0  501  502  0.00000000000E+00  0.00000000000E+00  0.11512977106E+03  0.11512977106E+03  0.00000000000E+00 0.  1.
         13   -1    0    0    0    0 -0.00000000000E+00 -0.00000000000E+00 -0.10000000000E+04  0.10000000000E+04  0.00000000000E+00 0.  1.
    9000005    2    1    2  501    0 -0.38859201120E+01 -0.20632962677E+02 -0.87583457876E+03  0.10922723325E+04  0.65232799989E+03 0.  0.
         13    1    3    3    0    0 -0.27543055292E+03  0.16103565053E+03 -0.51204537811E+03  0.60331164374E+03  0.00000000000E+00 0.  1.
          3    1    3    3  501    0  0.27154463281E+03 -0.18166861321E+03 -0.36378920065E+03  0.48896068875E+03  0.00000000000E+00 0.  1.
         -3    1    1    2    0  502  0.38859201120E+01  0.20632962677E+02 -0.90356501787E+01  0.22857438573E+02  0.00000000000E+00 0. -1.
<mgrwt>
<rscale>  1 0.65266579E+03</rscale>
<asrwt>0</asrwt>
<pdfrwt beam="1">  1       21 0.17712272E-01 0.65266579E+03</pdfrwt>
<pdfrwt beam="2">0</pdfrwt>
<totfact> 0.28287429E+03</totfact>
</mgrwt>
</event>
<event>
 6    1  0.1386179E-004  0.6843063E+03  0.7818608E-02  0.9744453E-01
         21   -1    0    0  501  502  0.00000000000E+00  0.00000000000E+00  0.28774778522E+03  0.28774778522E+03  0.00000000000E+00 0. -1.
         13   -1    0    0    0    0 -0.00000000000E+00 -0.00000000000E+00 -0.10000000000E+04  0.10000000000E+04  0.00000000000E+00 0.  1.
    9000005    2    1    2  501    0  0.70814523284E+02  0.16461851142E+03 -0.82817902179E+03  0.10743163546E+04  0.66042500448E+03 0.  0.
         13    1    3    3    0    0  0.16904065694E+03 -0.13226190233E+02  0.46930616026E+02  0.17593225551E+03  0.00000000000E+00 0.  1.
          3    1    3    3  501    0 -0.98226133658E+02  0.17784470165E+03 -0.87510963781E+03  0.89838409906E+03  0.00000000000E+00 0.  1.
         -3    1    1    2    0  502 -0.70814523284E+02 -0.16461851142E+03  0.11592680701E+03  0.21343143066E+03  0.00000000000E+00 0. -1.
<mgrwt>
<rscale>  1 0.68430632E+03</rscale>
<asrwt>0</asrwt>
<pdfrwt beam="1">  1       21 0.44268889E-01 0.68430632E+03</pdfrwt>
<pdfrwt beam="2">0</pdfrwt>
<totfact> 0.45550403E+02</totfact>
</mgrwt>
</event>
<event>
 6    1  0.1386179E-004  0.6861917E+03  0.7818608E-02  0.9741142E-01
         21   -1    0    0  501  502  0.00000000000E+00  0.00000000000E+00  0.19966322996E+03  0.19966322996E+03  0.00000000000E+00 0.  1.
         13   -1    0    0    0    0 -0.00000000000E+00 -0.00000000000E+00 -0.10000000000E+04  0.10000000000E+04  0.00000000000E+00 0.  1.
    9000005    2    1    2  501    0  0.59541550711E+01  0.25976843683E+02 -0.87985526204E+03  0.11157976295E+04  0.68567398921E+03 0.  0.
         13    1    3    3    0    0  0.21358123165E+03 -0.74711371155E+02 -0.21872377310E+02  0.22732604862E+03  0.00000000000E+00 0.  1.
          1    1    3    3  501    0 -0.20762707657E+03  0.10068821484E+03 -0.85798288473E+03  0.88847158088E+03  0.00000000000E+00 0.  1.
         -3    1    1    2    0  502 -0.59541550711E+01 -0.25976843683E+02  0.79518492004E+02  0.83865600462E+02  0.00000000000E+00 0. -1.
<mgrwt>
<rscale>  1 0.68619171E+03</rscale>
<asrwt>0</asrwt>
<pdfrwt beam="1">  1       21 0.30717419E-01 0.68619171E+03</pdfrwt>
<pdfrwt beam="2">0</pdfrwt>
<totfact> 0.96564476E+02</totfact>
</mgrwt>
</event>
<event>
 6    1  0.1386179E-004  0.6000966E+03  0.7818608E-02  0.9905206E-01
         21   -1    0    0  501  502  0.00000000000E+00  0.00000000000E+00  0.12610849689E+03  0.12610849689E+03  0.00000000000E+00 0.  1.
         13   -1    0    0    0    0 -0.00000000000E+00 -0.00000000000E+00 -0.10000000000E+04  0.10000000000E+04  0.00000000000E+00 0.  1.
    9000005    2    1    2  501    0  0.81791292758E+02 -0.71790833244E+02 -0.76330509516E+03  0.97095343596E+03  0.59014588637E+03 0.  0.
         13    1    3    3    0    0  0.14414948864E+03  0.12138328624E+03 -0.77528775416E+01  0.18860828286E+03  0.00000000000E+00 0.  1.
          1    1    3    3  501    0 -0.62358195882E+02 -0.19317411948E+03 -0.75555221762E+03  0.78234515310E+03  0.00000000000E+00 0.  1.
         -1    1    1    2    0  502 -0.81791292758E+02  0.71790833244E+02 -0.11058640795E+03  0.15515506093E+03  0.00000000000E+00 0. -1.
<mgrwt>
<rscale>  1 0.60009658E+03</rscale>
<asrwt>0</asrwt>
<pdfrwt beam="1">  1       21 0.19401307E-01 0.60009658E+03</pdfrwt>
<pdfrwt beam="2">0</pdfrwt>
<totfact> 0.23833648E+03</totfact>
</mgrwt>
</event>
<event>
 6    1  0.1386179E-004  0.6466435E+03  0.7818608E-02  0.9813098E-01
         21   -1    0    0  501  502  0.00000000000E+00  0.00000000000E+00  0.11926661843E+03  0.11926661843E+03  0.00000000000E+00 0.  1.
         13   -1    0    0    0    0 -0.00000000000E+00 -0.00000000000E+00 -0.10000000000E+04  0.10000000000E+04  0.00000000000E+00 0.  1.
    9000005    2    1    2  501    0 -0.27315335905E+02 -0.18655450475E+02 -0.87097563108E+03  0.10847794164E+04  0.64579693321E+03 0.  0.
         13    1    3    3    0    0 -0.24942648285E+03  0.10939287925E+03 -0.75644287886E+03  0.80398146829E+03  0.00000000000E+00 0.  1.
          3    1    3    3  501    0  0.22211114694E+03 -0.12804832972E+03 -0.11453275221E+03  0.28079794812E+03  0.00000000000E+00 0.  1.
         -3    1    1    2    0  502  0.27315335905E+02  0.18655450475E+02 -0.97577504924E+01  0.34487202013E+02  0.00000000000E+00 0. -1.
<mgrwt>
<rscale>  1 0.64664351E+03</rscale>
<asrwt>0</asrwt>
<pdfrwt beam="1">  1       21 0.18348710E-01 0.64664351E+03</pdfrwt>
<pdfrwt beam="2">0</pdfrwt>
<totfact> 0.26459723E+03</totfact>
</mgrwt>
</event>
<event>
 6    1  0.1386179E-004  0.6491975E+03  0.7818608E-02  0.9808286E-01
         21   -1    0    0  501  502  0.00000000000E+00  0.00000000000E+00  0.92720879731E+03  0.92720879731E+03  0.00000000000E+00 0. -1.
         13   -1    0    0    0    0 -0.00000000000E+00 -0.00000000000E+00 -0.10000000000E+04  0.10000000000E+04  0.00000000000E+00 0.  1.
    9000005    2    1    2  501    0 -0.25050880575E+02 -0.28720643590E+02 -0.89414722251E+03  0.11049690918E+04  0.64807794006E+03 0.  0.
         13    1    3    3    0    0  0.21920506205E+03 -0.23906853193E+03 -0.49687465667E+03  0.59337091825E+03  0.00000000000E+00 0.  1.
          3    1    3    3  501    0 -0.24425594263E+03  0.21034788834E+03 -0.39727256584E+03  0.51159817358E+03  0.00000000000E+00 0.  1.
         -1    1    1    2    0  502  0.25050880575E+02  0.28720643590E+02  0.82135601981E+03  0.82223970548E+03  0.00000000000E+00 0. -1.
<mgrwt>
<rscale>  1 0.64919753E+03</rscale>
<asrwt>0</asrwt>
<pdfrwt beam="1">  1       21 0.14264750E+00 0.64919753E+03</pdfrwt>
<pdfrwt beam="2">0</pdfrwt>
<totfact> 0.29134437E+01</totfact>
</mgrwt>
</event>
<event>
 6    1  0.1386179E-004  0.5760362E+03  0.7818608E-02  0.9956410E-01
         21   -1    0    0  501  502  0.00000000000E+00  0.00000000000E+00  0.96646973321E+02  0.96646973321E+02  0.00000000000E+00 0.  1.
         13   -1    0    0    0    0 -0.00000000000E+00 -0.00000000000E+00 -0.10000000000E+04  0.10000000000E+04  0.00000000000E+00 0.  1.
    9000005    2    1    2  501    0  0.31017711270E+02 -0.13433126003E+02 -0.89032272226E+03  0.10604207933E+04  0.57504361728E+03 0.  0.
         13    1    3    3    0    0  0.74642420150E+02 -0.24907721176E+03 -0.72246728556E+03  0.76783457008E+03  0.00000000000E+00 0.  1.
          3    1    3    3  501    0 -0.43624708880E+02  0.23564408576E+03 -0.16785543670E+03  0.29258622320E+03  0.00000000000E+00 0.  1.
         -3    1    1    2    0  502 -0.31017711270E+02  0.13433126003E+02 -0.13030304419E+02  0.36226180035E+02  0.00000000000E+00 0. -1.
<mgrwt>
<rscale>  1 0.57603620E+03</rscale>
<asrwt>0</asrwt>
<pdfrwt beam="1">  1       21 0.14868765E-01 0.57603620E+03</pdfrwt>
<pdfrwt beam="2">0</pdfrwt>
<totfact> 0.39385336E+03</totfact>
</mgrwt>
</event>
<event>
 6    1  0.1386179E-004  0.6652384E+03  0.7818608E-02  0.9778598E-01
         21   -1    0    0  501  502  0.00000000000E+00  0.00000000000E+00  0.23296828468E+03  0.23296828468E+03  0.00000000000E+00 0. -1.
         13   -1    0    0    0    0 -0.00000000000E+00 -0.00000000000E+00 -0.10000000000E+04  0.10000000000E+04  0.00000000000E+00 0.  1.
    9000005    2    1    2  501    0  0.18620142019E+02 -0.27978558728E+02 -0.88679485336E+03  0.11085789014E+04  0.66438886148E+03 0.  0.
         13    1    3    3    0    0 -0.24210536302E+03 -0.20733823520E+03 -0.28021797792E+03  0.42441284821E+03  0.00000000000E+00 0.  1.
          3    1    3    3  501    0  0.26072550504E+03  0.17935967647E+03 -0.60657687544E+03  0.68416605319E+03  0.00000000000E+00 0.  1.
         -3    1    1    2    0  502 -0.18620142019E+02  0.27978558728E+02  0.11976313804E+03  0.12438938327E+03  0.00000000000E+00 0. -1.
<mgrwt>
<rscale>  1 0.66523835E+03</rscale>
<asrwt>0</asrwt>
<pdfrwt beam="1">  1       21 0.35841274E-01 0.66523835E+03</pdfrwt>
<pdfrwt beam="2">0</pdfrwt>
<totfact> 0.70726737E+02</totfact>
</mgrwt>
</event>
<event>
 6    1  0.1386179E-004  0.6592351E+03  0.7818608E-02  0.9789603E-01
         21   -1    0    0  501  502  0.00000000000E+00  0.00000000000E+00  0.17978249476E+03  0.17978249476E+03  0.00000000000E+00 0.  1.
         13   -1    0    0    0    0 -0.00000000000E+00 -0.00000000000E+00 -0.10000000000E+04  0.10000000000E+04  0.00000000000E+00 0.  1.
    9000005    2    1    2  501    0 -0.14448668629E+03 -0.46881452303E+02 -0.78266739934E+03  0.10233079488E+04  0.64149561727E+03 0.  0.
         13    1    3    3    0    0 -0.26246928036E+03 -0.28500190834E+03 -0.53083164935E+03  0.65718981340E+03  0.00000000000E+00 0.  1.
          1    1    3    3  501    0  0.11798259406E+03  0.23812045604E+03 -0.25183575000E+03  0.36611813539E+03  0.00000000000E+00 0.  1.
         -1    1    1    2    0  502  0.14448668629E+03  0.46881452303E+02 -0.37550105891E+02  0.15647454598E+03  0.00000000000E+00 0. -1.
<mgrwt>
<rscale>  1 0.65923509E+03</rscale>
<asrwt>0</asrwt>
<pdfrwt beam="1">  1       21 0.27658845E-01 0.65923509E+03</pdfrwt>
<pdfrwt beam="2">0</pdfrwt>
<totfact> 0.11925113E+03</totfact>
</mgrwt>
</event>
<event>
 6    1  0.1386179E-004  0.6500829E+03  0.7818608E-02  0.9806624E-01
         21   -1    0    0  501  502  0.00000000000E+00  0.00000000000E+00  0.15725285792E+03  0.15725285792E+03  0.00000000000E+00 0.  1.
         13   -1    0    0    0    0 -0.00000000000E+00 -0.00000000000E+00 -0.10000000000E+04  0.10000000000E+04  0.00000000000E+00 0.  1.
    9000005    2    1    2  501    0  0.14099298305E+02 -0.19101583941E+02 -0.89131074786E+03  0.11031965491E+04  0.64964922526E+03 0.  0.
         13    1    3    3    0    0 -0.26344123100E+03  0.13545447299E+03 -0.25040643487E+03  0.38788217163E+03  0.00000000000E+00 0.  1.
          1    1    3    3  501    0  0.27754052931E+03 -0.15455605693E+03 -0.64090431299E+03  0.71531437743E+03  0.00000000000E+00 0.  1.
         -3    1    1    2    0  502 -0.14099298305E+02  0.19101583941E+02  0.48563605774E+02  0.54056308860E+02  0.00000000000E+00 0. -1.
<mgrwt>
<rscale>  1 0.65008290E+03</rscale>
<asrwt>0</asrwt>
<pdfrwt beam="1">  1       21 0.24192747E-01 0.65008290E+03</pdfrwt>
<pdfrwt beam="2">0</pdfrwt>
<totfact> 0.15527676E+03</totfact>
</mgrwt>
</event>
<event>
 6    1  0.1386179E-004  0.6160202E+03  0.7818608E-02  0.9872716E-01
         21   -1    0    0  501  502  0.00000000000E+00  0.00000000000E+00  0.29207439797E+03  0.29207439797E+03  0.00000000000E+00 0. -1.
         13   -1    0    0    0    0 -0.00000000000E+00 -0.00000000000E+00 -0.10000000000E+04  0.10000000000E+04  0.00000000000E+00 0.  1.
    9000005    2    1    2  501    0  0.12043049439E+02  0.41540937796E+02 -0.90252977853E+03  0.10927217705E+04  0.61449994476E+03 0.  0.
         13    1    3    3    0    0 -0.24673657628E+03 -0.76648736827E+02 -0.17638203930E+03  0.31283316755E+03  0.00000000000E+00 0.  1.
          3    1    3    3  501    0  0.25877962572E+03  0.11818967462E+03 -0.72614773923E+03  0.77988860299E+03  0.00000000000E+00 0.  1.
         -1    1    1    2    0  502 -0.12043049439E+02 -0.41540937796E+02  0.19460417650E+03  0.19935262743E+03  0.00000000000E+00 0. -1.
<mgrwt>
<rscale>  1 0.61602018E+03</rscale>
<asrwt>0</asrwt>
<pdfrwt beam="1">  1       21 0.44934521E-01 0.61602018E+03</pdfrwt>
<pdfrwt beam="2">0</pdfrwt>
<totfact> 0.44405469E+02</totfact>
</mgrwt>
</event>
<event>
 6    1  0.1386179E-004  0.6352236E+03  0.7818608E-02  0.9834908E-01
         21   -1    0    0  501  502  0.00000000000E+00  0.00000000000E+00  0.14613716840E+03  0.14613716840E+03  0.00000000000E+00 0.  1.
         13   -1    0    0    0    0 -0.00000000000E+00 -0.00000000000E+00 -0.10000000000E+04  0.10000000000E+04  0.00000000000E+00 0.  1.
    9000005    2    1    2  501    0 -0.21166653514E+02 -0.44868984552E+02 -0.88364542121E+03  0.10882730548E+04  0.63328331608E+03 0.  0.
         13    1    3    3    0    0  0.26611838524E+03 -0.32710121832E+02 -0.16645740029E+03  0.31558994462E+03  0.00000000000E+00 0.  1.
          1    1    3    3  501    0 -0.28728503876E+03 -0.12158862720E+02 -0.71718802092E+03  0.77268311020E+03  0.00000000000E+00 0.  1.
         -3    1    1    2    0  502  0.21166653514E+02  0.44868984552E+02  0.29782589616E+02  0.57864113576E+02  0.00000000000E+00 0. -1.
<mgrwt>
<rscale>  1 0.63522359E+03</rscale>
<asrwt>0</asrwt>
<pdfrwt beam="1">  1       21 0.22482641E-01 0.63522359E+03</pdfrwt>
<pdfrwt beam="2">0</pdfrwt>
<totfact> 0.17921558E+03</totfact>
</mgrwt>
</event>
<event>
 6    1  0.1386179E-004  0.6502994E+03  0.7818608E-02  0.9806218E-01
         21   -1    0    0  501  502  0.00000000000E+00  0.00000000000E+00  0.33945673761E+03  0.33945673761E+03  0.00000000000E+00 0. -1.
         13   -1    0    0    0    0 -0.00000000000E+00 -0.00000000000E+00 -0.10000000000E+04  0.10000000000E+04  0.00000000000E+00 0.  1.
    9000005    2    1    2  501    0 -0.16393120479E+02  0.50500569301E+02 -0.89093813395E+03  0.11030231555E+04  0.64812829068E+03 0.  0.
         13    1    3    3    0    0  0.73032975351E+02 -0.98145113320E+02 -0.91916419773E+03  0.92726970248E+03  0.00000000000E+00 0.  1.
          3    1    3    3  501    0 -0.89426095830E+02  0.14864568262E+03  0.28226063775E+02  0.17575345303E+03  0.00000000000E+00 0.  1.
         -3    1    1    2    0  502  0.16393120479E+02 -0.50500569301E+02  0.23039487156E+03  0.23643358209E+03  0.00000000000E+00 0. -1.
<mgrwt>
<rscale>  1 0.65029941E+03</rscale>
<asrwt>0</asrwt>
<pdfrwt beam="1">  1       21 0.52224112E-01 0.65029941E+03</pdfrwt>
<pdfrwt beam="2">0</pdfrwt>
<totfact> 0.32118485E+02</totfact>
</mgrwt>
</event>
<event>
 6    1  0.1386179E-004  0.6476277E+03  0.7818608E-02  0.9811241E-01
         21   -1    0    0  501  502  0.00000000000E+00  0.00000000000E+00  0.20957242095E+03  0.20957242095E+03  0.00000000000E+00 0.  1.
         13   -1    0    0    0    0 -0.00000000000E+00 -0.00000000000E+00 -0.10000000000E+04  0.10000000000E+04  0.00000000000E+00 0.  1.
    9000005    2    1    2  501    0 -0.12683232364E+02  0.56716685516E+02 -0.88615457743E+03  0.10975844528E+04  0.64501476654E+03 0.  0.
         13    1    3    3    0    0  0.23965644609E+03  0.14374110288E+03 -0.15573852716E+03  0.31992374975E+03  0.00000000000E+00 0.  1.
          1    1    3    3  501    0 -0.25233967845E+03 -0.87024417366E+02 -0.73041605026E+03  0.77766070302E+03  0.00000000000E+00 0.  1.
         -3    1    1    2    0  502  0.12683232364E+02 -0.56716685516E+02  0.95726998380E+02  0.11198796818E+03  0.00000000000E+00 0. -1.
<mgrwt>
<rscale>  1 0.64762774E+03</rscale>
<asrwt>0</asrwt>
<pdfrwt beam="1">  1       21 0.32241910E-01 0.64762774E+03</pdfrwt>
<pdfrwt beam="2">0</pdfrwt>
<totfact> 0.87806196E+02</totfact>
</mgrwt>
</event>
<event>
 6    1  0.1386179E-004  0.6579627E+03  0.7818608E-02  0.9791951E-01
         21   -1    0    0  501  502  0.00000000000E+00  0.00000000000E+00  0.29121494989E+03  0.29121494989E+03  0.00000000000E+00 0. -1.
         13   -1    0    0    0    0 -0.00000000000E+00 -0.00000000000E+00 -0.10000000000E+04  0.10000000000E+04  0.00000000000E+00 0.  1.
    9000005    2    1    2  501    0  0.33923358877E+02  0.10102880279E+03 -0.87438447311E+03  0.10942865818E+04  0.64927444349E+03 0.  0.
         13    1    3    3    0    0 -0.14185540344E+03 -0.52253403970E+02 -0.84593133110E+03  0.85933299171E+03  0.00000000000E+00 0.  1.
          3    1    3    3  501    0  0.17577876232E+03  0.15328220676E+03 -0.28453142008E+02  0.23495359006E+03  0.00000000000E+00 0.  1.
         -3    1    1    2    0  502 -0.33923358877E+02 -0.10102880279E+03  0.16559942300E+03  0.19692836812E+03  0.00000000000E+00 0. -1.
<mgrwt>
<rscale>  1 0.65796270E+03</rscale>
<asrwt>0</asrwt>
<pdfrwt beam="1">  1       21 0.44802299E-01 0.65796270E+03</pdfrwt>
<pdfrwt beam="2">0</pdfrwt>
<totfact> 0.44513884E+02</totfact>
</mgrwt>
</event>
<event>
 6    1  0.1386179E-004  0.6631225E+03  0.7818608E-02  0.9782463E-01
         21   -1    0    0  501  502  0.00000000000E+00  0.00000000000E+00  0.23343253150E+03  0.23343253150E+03  0.00000000000E+00 0. -1.
         13   -1    0    0    0    0 -0.00000000000E+00 -0.00000000000E+00 -0.10000000000E+04  0.10000000000E+04  0.00000000000E+00 0.  1.
    9000005    2    1    2  501    0  0.13724115038E+03 -0.40189979345E+02 -0.84198431637E+03  0.10717598104E+04  0.64751921549E+03 0.  0.
         13    1    3    3    0    0  0.30410873945E+03  0.10261778532E+02 -0.11682049393E+03  0.32593627799E+03  0.00000000000E+00 0.  1.
          1    1    3    3  501    0 -0.16686758907E+03 -0.50451757878E+02 -0.72516382244E+03  0.74582353243E+03  0.00000000000E+00 0.  1.
         -3    1    1    2    0  502 -0.13724115038E+03  0.40189979345E+02  0.75416847876E+02  0.16167272108E+03  0.00000000000E+00 0. -1.
<mgrwt>
<rscale>  1 0.66312254E+03</rscale>
<asrwt>0</asrwt>
<pdfrwt beam="1">  1       21 0.35912696E-01 0.66312254E+03</pdfrwt>
<pdfrwt beam="2">0</pdfrwt>
<totfact> 0.70450015E+02</totfact>
</mgrwt>
</event>
<event>
 6    1  0.1386179E-004  0.6377336E+03  0.7818608E-02  0.9830072E-01
         21   -1    0    0  501  502  0.00000000000E+00  0.00000000000E+00  0.11432845525E+03  0.11432845525E+03  0.00000000000E+00 0.  1.
         13   -1    0    0    0    0 -0.00000000000E+00 -0.00000000000E+00 -0.10000000000E+04  0.10000000000E+04  0.00000000000E+00 0.  1.
    9000005    2    1    2  501    0 -0.29763587719E+01  0.25074759049E+02 -0.88259854771E+03  0.10888913649E+04  0.63723355684E+03 0.  0.
         13    1    3    3    0    0 -0.12117169355E+03 -0.17588510686E+03 -0.43451362684E+02  0.21795910408E+03  0.00000000000E+00 0.  1.
          1    1    3    3  501    0  0.11819533478E+03  0.20095986591E+03 -0.83914718503E+03  0.87093226086E+03  0.00000000000E+00 0.  1.
         -1    1    1    2    0  502  0.29763587719E+01 -0.25074759049E+02 -0.30729970386E+01  0.25437090315E+02  0.00000000000E+00 0. -1.
<mgrwt>
<rscale>  1 0.63773365E+03</rscale>
<asrwt>0</asrwt>
<pdfrwt beam="1">  1       21 0.17588993E-01 0.63773365E+03</pdfrwt>
<pdfrwt beam="2">0</pdfrwt>
<totfact> 0.28677993E+03</totfact>
</mgrwt>
</event>
<event>
 6    1  0.1386179E-004  0.6374610E+03  0.7818608E-02  0.9830596E-01
         21   -1    0    0  501  502  0.00000000000E+00  0.00000000000E+00  0.17971372765E+03  0.17971372765E+03  0.00000000000E+00 0.  1.
         13   -1    0    0    0    0 -0.00000000000E+00 -0.00000000000E+00 -0.10000000000E+04  0.10000000000E+04  0.00000000000E+00 0.  1.
    9000005    2    1    2  501    0  0.38495882644E+02 -0.29523008163E+01 -0.89312065656E+03  0.10972789256E+04  0.63629072318E+03 0.  0.
         13    1    3    3    0    0 -0.24562868051E+03  0.53740317599E+02 -0.71322032294E+03  0.75624380954E+03  0.00000000000E+00 0.  1.
          3    1    3    3  501    0  0.28412456315E+03 -0.56692618415E+02 -0.17990033362E+03  0.34103511609E+03  0.00000000000E+00 0.  1.
         -1    1    1    2    0  502 -0.38495882644E+02  0.29523008163E+01  0.72834384211E+02  0.82434802020E+02  0.00000000000E+00 0. -1.
<mgrwt>
<rscale>  1 0.63746101E+03</rscale>
<asrwt>0</asrwt>
<pdfrwt beam="1">  1       21 0.27648265E-01 0.63746101E+03</pdfrwt>
<pdfrwt beam="2">0</pdfrwt>
<totfact> 0.11949295E+03</totfact>
</mgrwt>
</event>
<event>
 6    1  0.1386179E-004  0.6547652E+03  0.7818608E-02  0.9797879E-01
         21   -1    0    0  501  502  0.00000000000E+00  0.00000000000E+00  0.14320555157E+03  0.14320555157E+03  0.00000000000E+00 0.  1.
         13   -1    0    0    0    0 -0.00000000000E+00 -0.00000000000E+00 -0.10000000000E+04  0.10000000000E+04  0.00000000000E+00 0.  1.
    9000005    2    1    2  501    0 -0.62396557389E+02  0.80310076605E+02 -0.72885417361E+03  0.97976824646E+03  0.64681865434E+03 0.  0.
         13    1    3    3    0    0  0.98331070381E+02  0.32810444606E+03 -0.50025347675E+03  0.60627969447E+03  0.00000000000E+00 0.  1.
          1    1    3    3  501    0 -0.16072762777E+03 -0.24779436946E+03 -0.22860069685E+03  0.37348855199E+03  0.00000000000E+00 0.  1.
         -3    1    1    2    0  502  0.62396557389E+02 -0.80310076605E+02 -0.12794027483E+03  0.16343730511E+03  0.00000000000E+00 0. -1.
<mgrwt>
<rscale>  1 0.65476516E+03</rscale>
<asrwt>0</asrwt>
<pdfrwt beam="1">  1       21 0.22031623E-01 0.65476516E+03</pdfrwt>
<pdfrwt beam="2">0</pdfrwt>
<totfact> 0.18622420E+03</totfact>
</mgrwt>
</event>
<event>
 6    1  0.1386179E-004  0.6544489E+03  0.7818608E-02  0.9798467E-01
         21   -1    0    0  501  502  0.00000000000E+00  0.00000000000E+00  0.16527089768E+03  0.16527089768E+03  0.00000000000E+00 0. -1.
         13   -1    0    0    0    0 -0.00000000000E+00 -0.00000000000E+00 -0.10000000000E+04  0.10000000000E+04  0.00000000000E+00 0.  1.
    9000005    2    1    2  501    0  0.19569638649E+01  0.33698808234E+02 -0.88745253603E+03  0.11026673846E+04  0.65357778270E+03 0.  0.
         13    1    3    3    0    0  0.32687115048E+03  0.28871987181E+02 -0.48134759730E+03  0.58255802293E+03  0.00000000000E+00 0.  1.
          3    1    3    3  501    0 -0.32491418661E+03  0.48268210532E+01 -0.40610493873E+03  0.52010936170E+03  0.00000000000E+00 0.  1.
         -3    1    1    2    0  502 -0.19569638649E+01 -0.33698808234E+02  0.52723433713E+02  0.62603513052E+02  0.00000000000E+00 0. -1.
<mgrwt>
<rscale>  1 0.65444890E+03</rscale>
<asrwt>0</asrwt>
<pdfrwt beam="1">  1       21 0.25426291E-01 0.65444890E+03</pdfrwt>
<pdfrwt beam="2">0</pdfrwt>
<totfact> 0.14083290E+03</totfact>
</mgrwt>
</event>
<event>
 6    1  0.1386179E-004  0.6909092E+03  0.7818608E-02  0.9732906E-01
         21   -1    0    0  501  502  0.00000000000E+00  0.00000000000E+00  0.22281169742E+03  0.22281169742E+03  0.00000000000E+00 0. -1.
         13   -1    0    0    0    0 -0.00000000000E+00 -0.00000000000E+00 -0.10000000000E+04  0.10000000000E+04  0.00000000000E+00 0.  1.
    9000005    2    1    2  501    0  0.29101527316E+02  0.22965917352E+03 -0.68710330928E+03  0.97440569732E+03  0.65097255738E+03 0.  0.
         13    1    3    3    0    0  0.14752736705E+03 -0.16705672414E+03 -0.43742687646E+03  0.49093232258E+03  0.00000000000E+00 0.  1.
          1    1    3    3  501    0 -0.11842583973E+03  0.39671589766E+03 -0.24967643283E+03  0.48347337474E+03  0.00000000000E+00 0.  1.
         -3    1    1    2    0  502 -0.29101527316E+02 -0.22965917352E+03 -0.90084993293E+02  0.24840600011E+03  0.00000000000E+00 0. -1.
<mgrwt>
<rscale>  1 0.69090919E+03</rscale>
<asrwt>0</asrwt>
<pdfrwt beam="1">  1       21 0.34278722E-01 0.69090919E+03</pdfrwt>
<pdfrwt beam="2">0</pdfrwt>
<totfact> 0.77325175E+02</totfact>
</mgrwt>
</event>
<event>
 6    1  0.1386179E-004  0.6668676E+03  0.7818608E-02  0.9775633E-01
         21   -1    0    0  501  502  0.00000000000E+00  0.00000000000E+00  0.28200694909E+03  0.28200694909E+03  0.00000000000E+00 0.  1.
         13   -1    0    0    0    0 -0.00000000000E+00 -0.00000000000E+00 -0.10000000000E+04  0.10000000000E+04  0.00000000000E+00 0.  1.
    9000005    2    1    2  501    0  0.13107595493E+03 -0.70717011569E+02 -0.85179933064E+03  0.10817922589E+04  0.65002353034E+03 0.  0.
         13    1    3    3    0    0 -0.22868879841E+03 -0.49907705893E+01 -0.58780745145E+03  0.63074644215E+03  0.00000000000E+00 0.  1.
          3    1    3    3  501    0  0.35976475334E+03 -0.65726240979E+02 -0.26399187919E+03  0.45104581672E+03  0.00000000000E+00 0.  1.
         -3    1    1    2    0  502 -0.13107595493E+03  0.70717011569E+02  0.13380627973E+03  0.20021469022E+03  0.00000000000E+00 0. -1.
<mgrwt>
<rscale>  1 0.66686760E+03</rscale>
<asrwt>0</asrwt>
<pdfrwt beam="1">  1       21 0.43385683E-01 0.66686760E+03</pdfrwt>
<pdfrwt beam="2">0</pdfrwt>
<totfact> 0.47593497E+02</totfact>
</mgrwt>
</event>
<event>
 6    1  0.1386179E-004  0.6504431E+03  0.7818608E-02  0.9805948E-01
         21   -1    0    0  501  502  0.00000000000E+00  0.00000000000E+00  0.17823401201E+03  0.17823401201E+03  0.00000000000E+00 0.  1.
         13   -1    0    0    0    0 -0.00000000000E+00 -0.00000000000E+00 -0.10000000000E+04  0.10000000000E+04  0.00000000000E+00 0.  1.
    9000005    2    1    2  501    0 -0.20451346493E+02  0.59196465432E+01 -0.89249745540E+03  0.11043676444E+04  0.65009452100E+03 0.  0.
         13    1    3    3    0    0  0.18142143531E+03  0.22858301872E+03 -0.21277049853E+03  0.36115816297E+03  0.00000000000E+00 0.  1.
          3    1    3    3  501    0 -0.20187278180E+03 -0.22266337217E+03 -0.67972695687E+03  0.74320948139E+03  0.00000000000E+00 0.  1.
         -1    1    1    2    0  502  0.20451346493E+02 -0.59196465432E+01  0.70731467402E+02  0.73866367647E+02  0.00000000000E+00 0. -1.
<mgrwt>
<rscale>  1 0.65044307E+03</rscale>
<asrwt>0</asrwt>
<pdfrwt beam="1">  1       21 0.27420616E-01 0.65044307E+03</pdfrwt>
<pdfrwt beam="2">0</pdfrwt>
<totfact> 0.12137545E+03</totfact>
</mgrwt>
</event>
<event>
 6    1  0.1386179E-004  0.6490257E+03  0.7818608E-02  0.9808609E-01
         21   -1    0    0  501  502  0.00000000000E+00  0.00000000000E+00  0.16261763268E+03  0.16261763268E+03  0.00000000000E+00 0.  1.
         13   -1    0    0    0    0 -0.00000000000E+00 -0.00000000000E+00 -0.10000000000E+04  0.10000000000E+04  0.00000000000E+00 0.  1.
    9000005    2    1    2  501    0  0.13322904470E+01  0.48252348696E+02 -0.88322467827E+03  0.10960475071E+04  0.64722812150E+03 0.  0.
         13    1    3    3    0    0  0.17369647965E+03 -0.24506371121E+03 -0.50277050417E+03  0.58566617579E+03  0.00000000000E+00 0.  1.
          3    1    3    3  501    0 -0.17236418920E+03  0.29331605991E+03 -0.38045417410E+03  0.51038133127E+03  0.00000000000E+00 0.  1.
         -3    1    1    2    0  502 -0.13322904470E+01 -0.48252348696E+02  0.45842310951E+02  0.66570125626E+02  0.00000000000E+00 0. -1.
<mgrwt>
<rscale>  1 0.64902566E+03</rscale>
<asrwt>0</asrwt>
<pdfrwt beam="1">  1       21 0.25018097E-01 0.64902566E+03</pdfrwt>
<pdfrwt beam="2">0</pdfrwt>
<totfact> 0.14541827E+03</totfact>
</mgrwt>
</event>
<event>
 6    1  0.1386179E-004  0.6523954E+03  0.7818608E-02  0.9802295E-01
         21   -1    0    0  501  502  0.00000000000E+00  0.00000000000E+00  0.73037848121E+03  0.73037848121E+03  0.00000000000E+00 0. -1.
         13   -1    0    0    0    0 -0.00000000000E+00 -0.00000000000E+00 -0.10000000000E+04  0.10000000000E+04  0.00000000000E+00 0.  1.
    9000005    2    1    2  501    0 -0.17807520666E+02  0.99300187142E+01 -0.89341077608E+03  0.11062560969E+04  0.65207670108E+03 0.  0.
         13    1    3    3    0    0  0.24665030810E+03  0.10773452712E+03 -0.73524322179E+03  0.78295957623E+03  0.00000000000E+00 0.  1.
          1    1    3    3  501    0 -0.26445782877E+03 -0.97804508405E+02 -0.15816755429E+03  0.32329652069E+03  0.00000000000E+00 0.  1.
         -1    1    1    2    0  502  0.17807520666E+02 -0.99300187142E+01  0.62378925729E+03  0.62412238429E+03  0.00000000000E+00 0. -1.
<mgrwt>
<rscale>  1 0.65239538E+03</rscale>
<asrwt>0</asrwt>
<pdfrwt beam="1">  1       21 0.11236592E+00 0.65239538E+03</pdfrwt>
<pdfrwt beam="2">0</pdfrwt>
<totfact> 0.54236624E+01</totfact>
</mgrwt>
</event>
<event>
 6    1  0.1386179E-004  0.6487875E+03  0.7818608E-02  0.9809057E-01
         21   -1    0    0  501  502  0.00000000000E+00  0.00000000000E+00  0.11750709537E+03  0.11750709537E+03  0.00000000000E+00 0.  1.
         13   -1    0    0    0    0 -0.00000000000E+00 -0.00000000000E+00 -0.10000000000E+04  0.10000000000E+04  0.00000000000E+00 0.  1.
    9000005    2    1    2  501    0 -0.12933773270E+02 -0.18136482611E+02 -0.88238636459E+03  0.10952309682E+04  0.64840493730E+03 0.  0.
         13    1    3    3    0    0 -0.12464455909E+03 -0.11821726074E+03 -0.92379710993E+03  0.93963433694E+03  0.00000000000E+00 0.  1.
          3    1    3    3  501    0  0.11171078582E+03  0.10008077813E+03  0.41410745339E+02  0.15559663122E+03  0.00000000000E+00 0.  1.
         -3    1    1    2    0  502  0.12933773270E+02  0.18136482611E+02 -0.10654003824E+00  0.22276127206E+02  0.00000000000E+00 0. -1.
<mgrwt>
<rscale>  1 0.64878747E+03</rscale>
<asrwt>0</asrwt>
<pdfrwt beam="1">  1       21 0.18078014E-01 0.64878747E+03</pdfrwt>
<pdfrwt beam="2">0</pdfrwt>
<totfact> 0.27215346E+03</totfact>
</mgrwt>
</event>
<event>
 6    1  0.1386179E-004  0.6183843E+03  0.7818608E-02  0.9867982E-01
         21   -1    0    0  501  502  0.00000000000E+00  0.00000000000E+00  0.19169875140E+03  0.19169875140E+03  0.00000000000E+00 0. -1.
         13   -1    0    0    0    0 -0.00000000000E+00 -0.00000000000E+00 -0.10000000000E+04  0.10000000000E+04  0.00000000000E+00 0.  1.
    9000005    2    1    2  501    0  0.27401277988E+02  0.68035278489E+02 -0.88882483360E+03  0.10827782442E+04  0.61401914633E+03 0.  0.
         13    1    3    3    0    0  0.16710750231E+03 -0.23827026622E+02  0.94622474916E+01  0.16906264713E+03  0.00000000000E+00 0.  1.
          1    1    3    3  501    0 -0.13970622432E+03  0.91862305110E+02 -0.89828708109E+03  0.91371559704E+03  0.00000000000E+00 0.  1.
         -3    1    1    2    0  502 -0.27401277988E+02 -0.68035278489E+02  0.80523584999E+02  0.10892050723E+03  0.00000000000E+00 0. -1.
<mgrwt>
<rscale>  1 0.61838430E+03</rscale>
<asrwt>0</asrwt>
<pdfrwt beam="1">  1       21 0.29492115E-01 0.61838430E+03</pdfrwt>
<pdfrwt beam="2">0</pdfrwt>
<totfact> 0.10521535E+03</totfact>
</mgrwt>
</event>
<event>
 6    1  0.1386179E-004  0.6618009E+03  0.7818608E-02  0.9784884E-01
         21   -1    0    0  501  502  0.00000000000E+00  0.00000000000E+00  0.52484581237E+03  0.52484581237E+03  0.00000000000E+00 0. -1.
         13   -1    0    0    0    0 -0.00000000000E+00 -0.00000000000E+00 -0.10000000000E+04  0.10000000000E+04  0.00000000000E+00 0.  1.
    9000005    2    1    2  501    0  0.11303528538E+03  0.91591201609E+02 -0.87630361738E+03  0.10981295261E+04  0.64561172726E+03 0.  0.
         13    1    3    3    0    0 -0.15637587424E+03 -0.19380461299E+03 -0.47785209683E+03  0.53884716619E+03  0.00000000000E+00 0.  1.
          3    1    3    3  501    0  0.26941115962E+03  0.28539581460E+03 -0.39845152055E+03  0.55928235994E+03  0.00000000000E+00 0.  1.
         -3    1    1    2    0  502 -0.11303528538E+03 -0.91591201609E+02  0.40114942975E+03  0.42671628624E+03  0.00000000000E+00 0. -1.
<mgrwt>
<rscale>  1 0.66180090E+03</rscale>
<asrwt>0</asrwt>
<pdfrwt beam="1">  1       21 0.80745507E-01 0.66180090E+03</pdfrwt>
<pdfrwt beam="2">0</pdfrwt>
<totfact> 0.12073035E+02</totfact>
</mgrwt>
</event>
<event>
 6    1  0.1386179E-004  0.6689940E+03  0.7818608E-02  0.9771777E-01
         21   -1    0    0  501  502  0.00000000000E+00  0.00000000000E+00  0.13662972204E+03  0.13662972204E+03  0.00000000000E+00 0.  1.
         13   -1    0    0    0    0 -0.00000000000E+00 -0.00000000000E+00 -0.10000000000E+04  0.10000000000E+04  0.00000000000E+00 0.  1.
    9000005    2    1    2  501    0 -0.44448226110E+01  0.21054364539E+02 -0.88279131060E+03  0.11076431868E+04  0.66864780608E+03 0.  0.
         13    1    3    3    0    0  0.21981647621E+02  0.34406780245E+03 -0.44403655366E+03  0.56216928634E+03  0.00000000000E+00 0.  1.
          3    1    3    3  501    0 -0.26426470232E+02 -0.32301343791E+03 -0.43875475693E+03  0.54547390050E+03  0.00000000000E+00 0.  1.
         -3    1    1    2    0  502  0.44448226110E+01 -0.21054364539E+02  0.19421032640E+02  0.28986535202E+02  0.00000000000E+00 0. -1.
<mgrwt>
<rscale>  1 0.66899397E+03</rscale>
<asrwt>0</asrwt>
<pdfrwt beam="1">  1       21 0.21019957E-01 0.66899397E+03</pdfrwt>
<pdfrwt beam="2">0</pdfrwt>
<totfact> 0.20380193E+03</totfact>
</mgrwt>
</event>
<event>
 6    1  0.1386179E-004  0.5666532E+03  0.7818608E-02  0.9977112E-01
         21   -1    0    0  501  502  0.00000000000E+00  0.00000000000E+00  0.92042331388E+02  0.92042331388E+02  0.00000000000E+00 0.  1.
         13   -1    0    0    0    0 -0.00000000000E+00 -0.00000000000E+00 -0.10000000000E+04  0.10000000000E+04  0.00000000000E+00 0.  1.
    9000005    2    1    2  501    0 -0.28480437943E+02 -0.25979011692E+02 -0.86739225172E+03  0.10360816538E+04  0.56534045539E+03 0.  0.
         13    1    3    3    0    0  0.17413658686E+03  0.18667993495E+03 -0.53312200357E+03  0.59109391782E+03  0.00000000000E+00 0.  1.
          1    1    3    3  501    0 -0.20261702481E+03 -0.21265894664E+03 -0.33427024815E+03  0.44498773593E+03  0.00000000000E+00 0.  1.
         -1    1    1    2    0  502  0.28480437943E+02  0.25979011692E+02 -0.40565416891E+02  0.55960677636E+02  0.00000000000E+00 0. -1.
<mgrwt>
<rscale>  1 0.56665322E+03</rscale>
<asrwt>0</asrwt>
<pdfrwt beam="1">  1       21 0.14160358E-01 0.56665322E+03</pdfrwt>
<pdfrwt beam="2">0</pdfrwt>
<totfact> 0.43135939E+03</totfact>
</mgrwt>
</event>
<event>
 6    1  0.1386179E-004  0.7446897E+03  0.7818608E-02  0.9643718E-01
         21   -1    0    0  501  502  0.00000000000E+00  0.00000000000E+00  0.69293679488E+03  0.69293679488E+03  0.00000000000E+00 0. -1.
         13   -1    0    0    0    0 -0.00000000000E+00 -0.00000000000E+00 -0.10000000000E+04  0.10000000000E+04  0.00000000000E+00 0.  1.
    9000005    2    1    2  501    0  0.36266685526E+03 -0.47280509027E+02 -0.79096822587E+03  0.10863671257E+04  0.64869106905E+03 0.  0.
         13    1    3    3    0    0 -0.68525409660E+02 -0.16754060931E+03 -0.54780871564E+03  0.57694018448E+03  0.00000000000E+00 0.  1.
          3    1    3    3  501    0  0.43119226492E+03  0.12026010028E+03 -0.24315951023E+03  0.50942694124E+03  0.00000000000E+00 0.  1.
         -3    1    1    2    0  502 -0.36266685526E+03  0.47280509027E+02  0.48390502075E+03  0.60656966916E+03  0.00000000000E+00 0. -1.
<mgrwt>
<rscale>  1 0.74468973E+03</rscale>
<asrwt>0</asrwt>
<pdfrwt beam="1">  1       21 0.10660566E+00 0.74468973E+03</pdfrwt>
<pdfrwt beam="2">0</pdfrwt>
<totfact> 0.61052533E+01</totfact>
</mgrwt>
</event>
<event>
 6    1  0.1386179E-004  0.7655451E+03  0.7818608E-02  0.9611273E-01
         21   -1    0    0  501  502  0.00000000000E+00  0.00000000000E+00  0.38602951115E+03  0.38602951115E+03  0.00000000000E+00 0. -1.
         13   -1    0    0    0    0 -0.00000000000E+00 -0.00000000000E+00 -0.10000000000E+04  0.10000000000E+04  0.00000000000E+00 0.  1.
    9000005    2    1    2  501    0 -0.17175301500E+03 -0.34495851135E+03 -0.64276657424E+03  0.99960398501E+03  0.66148604307E+03 0.  0.
         13    1    3    3    0    0  0.20745741598E+03  0.31724404383E+02 -0.29459448264E+03  0.36170557983E+03  0.00000000000E+00 0.  1.
          3    1    3    3  501    0 -0.37921043098E+03 -0.37668291573E+03 -0.34817209160E+03  0.63789840518E+03  0.00000000000E+00 0.  1.
         -3    1    1    2    0  502  0.17175301500E+03  0.34495851135E+03  0.28796085393E+02  0.38642552613E+03  0.00000000000E+00 0. -1.
<mgrwt>
<rscale>  1 0.76554507E+03</rscale>
<asrwt>0</asrwt>
<pdfrwt beam="1">  1       21 0.59389154E-01 0.76554507E+03</pdfrwt>
<pdfrwt beam="2">0</pdfrwt>
<totfact> 0.23990417E+02</totfact>
</mgrwt>
</event>
<event>
 6    1  0.1386179E-004  0.6745002E+03  0.7818608E-02  0.9761862E-01
         21   -1    0    0  501  502  0.00000000000E+00  0.00000000000E+00  0.16986615892E+03  0.16986615892E+03  0.00000000000E+00 0.  1.
         13   -1    0    0    0    0 -0.00000000000E+00 -0.00000000000E+00 -0.10000000000E+04  0.10000000000E+04  0.00000000000E+00 0.  1.
    9000005    2    1    2  501    0  0.16101959793E+02 -0.14887799573E+03 -0.68425570160E+03  0.96081027572E+03  0.65766753762E+03 0.  0.
         13    1    3    3    0    0  0.16361743089E+03 -0.23824551795E+03 -0.72766170813E+03  0.78295795034E+03  0.00000000000E+00 0.  1.
          1    1    3    3  501    0 -0.14751547110E+03  0.89367522215E+02  0.43406006538E+02  0.17785232538E+03  0.00000000000E+00 0.  1.
         -1    1    1    2    0  502 -0.16101959793E+02  0.14887799573E+03 -0.14587813948E+03  0.20905588320E+03  0.00000000000E+00 0. -1.
<mgrwt>
<rscale>  1 0.67450020E+03</rscale>
<asrwt>0</asrwt>
<pdfrwt beam="1">  1       21 0.26133254E-01 0.67450020E+03</pdfrwt>
<pdfrwt beam="2">0</pdfrwt>
<totfact> 0.13329457E+03</totfact>
</mgrwt>
</event>
<event>
 6    1  0.1386179E-004  0.6599535E+03  0.7818608E-02  0.9788279E-01
         21   -1    0    0  501  502  0.00000000000E+00  0.00000000000E+00  0.16728781482E+03  0.16728781482E+03  0.00000000000E+00 0.  1.
         13   -1    0    0    0    0 -0.00000000000E+00 -0.00000000000E+00 -0.10000000000E+04  0.10000000000E+04  0.00000000000E+00 0.  1.
    9000005    2    1    2  501    0  0.61513461526E+02  0.44909260365E+02 -0.86205426248E+03  0.10856685456E+04  0.65554396629E+03 0.  0.
         13    1    3    3    0    0 -0.39069531779E+02  0.30111001700E+03 -0.70774101285E+03  0.77012402373E+03  0.00000000000E+00 0.  1.
          1    1    3    3  501    0  0.10058299330E+03 -0.25620075664E+03 -0.15431324963E+03  0.31554452183E+03  0.00000000000E+00 0.  1.
         -3    1    1    2    0  502 -0.61513461526E+02 -0.44909260365E+02  0.29342077299E+02  0.81619269267E+02  0.00000000000E+00 0. -1.
<mgrwt>
<rscale>  1 0.65995351E+03</rscale>
<asrwt>0</asrwt>
<pdfrwt beam="1">  1       21 0.25736586E-01 0.65995351E+03</pdfrwt>
<pdfrwt beam="2">0</pdfrwt>
<totfact> 0.13747520E+03</totfact>
</mgrwt>
</event>
<event>
 6    1  0.1386179E-004  0.6786038E+03  0.7818608E-02  0.9754539E-01
         21   -1    0    0  501  502  0.00000000000E+00  0.00000000000E+00  0.19617460760E+03  0.19617460760E+03  0.00000000000E+00 0.  1.
         13   -1    0    0    0    0 -0.00000000000E+00 -0.00000000000E+00 -0.10000000000E+04  0.10000000000E+04  0.00000000000E+00 0.  1.
    9000005    2    1    2  501    0 -0.13850107212E+03  0.85914493576E+02 -0.77594690637E+03  0.10308232932E+04  0.65874062662E+03 0.  0.
         13    1    3    3    0    0 -0.16032376128E+03 -0.17180596975E+03 -0.24683930848E+02  0.23628435436E+03  0.00000000000E+00 0.  1.
          1    1    3    3  501    0  0.21822689164E+02  0.25772046333E+03 -0.75126297552E+03  0.79453893886E+03  0.00000000000E+00 0.  1.
         -1    1    1    2    0  502  0.13850107212E+03 -0.85914493576E+02 -0.27878486030E+02  0.16535131438E+03  0.00000000000E+00 0. -1.
<mgrwt>
<rscale>  1 0.67860376E+03</rscale>
<asrwt>0</asrwt>
<pdfrwt beam="1">  1       21 0.30180708E-01 0.67860376E+03</pdfrwt>
<pdfrwt beam="2">0</pdfrwt>
<totfact> 0.10008858E+03</totfact>
</mgrwt>
</event>
<event>
 6    1  0.1386179E-004  0.6455146E+03  0.7818608E-02  0.9815232E-01
         21   -1    0    0  501  502  0.00000000000E+00  0.00000000000E+00  0.22361442262E+03  0.22361442262E+03  0.00000000000E+00 0.  1.
         13   -1    0    0    0    0 -0.00000000000E+00 -0.00000000000E+00 -0.10000000000E+04  0.10000000000E+04  0.00000000000E+00 0.  1.
    9000005    2    1    2  501    0  0.40239916971E+02  0.20557064812E+02 -0.89108908472E+03  0.11003312590E+04  0.64393111343E+03 0.  0.
         13    1    3    3    0    0  0.14048704675E+03  0.19952613711E+03 -0.69796867310E+02  0.25380877129E+03  0.00000000000E+00 0.  1.
          1    1    3    3  501    0 -0.10024712978E+03 -0.17896907230E+03 -0.82129221741E+03  0.84652248774E+03  0.00000000000E+00 0.  1.
         -1    1    1    2    0  502 -0.40239916971E+02 -0.20557064812E+02  0.11470350733E+03  0.12328316359E+03  0.00000000000E+00 0. -1.
<mgrwt>
<rscale>  1 0.64551462E+03</rscale>
<asrwt>0</asrwt>
<pdfrwt beam="1">  1       21 0.34402218E-01 0.64551462E+03</pdfrwt>
<pdfrwt beam="2">0</pdfrwt>
<totfact> 0.77003516E+02</totfact>
</mgrwt>
</event>
