<event>
 6    1  0.2677832E-003  0.6423045E+03  0.7818608E-02  0.9821327E-01
          1   -1    0    0  502    0  0.00000000000E+00  0.00000000000E+00  0.13101565616E+03  0.13101565616E+03  0.00000000000E+00 0.  1.
         13   -1    0    0    0    0 -0.00000000000E+00 -0.00000000000E+00 -0.10000000000E+04  0.10000000000E+04  0.00000000000E+00 0.  1.
    9000005    2    1    2  501    0  0.11185820997E+01  0.19325230583E+00 -0.89684848897E+03  0.11031283982E+04  0.64230348137E+03 0.  0.
         13    1    3    3    0    0  0.20439992814E+03  0.16963888734E+03 -0.76023921244E+03  0.80530760760E+03  0.00000000000E+00 0.  1.
          1    1    3    3  501    0 -0.20328134604E+03 -0.16944563504E+03 -0.13660927653E+03  0.29782079060E+03  0.00000000000E+00 0.  1.
         21    1    1    2  502  501 -0.11185820997E+01 -0.19325230583E+00  0.27864145132E+02  0.27887257956E+02  0.00000000000E+00 0.  1.
<mgrwt>
<rscale>  1 0.64230448E+03</rscale>
<asrwt>0</asrwt>
<pdfrwt beam="1">  1        1 0.47642157E+00 0.64230448E+03</pdfrwt>
<pdfrwt beam="2">0</pdfrwt>
<totfact> 0.59959396E-01</totfact>
</mgrwt>
</event>
<event>
 6    1  0.2677832E-003  0.6638713E+03  0.7818608E-02  0.9781093E-01
          1   -1    0    0  502    0  0.00000000000E+00  0.00000000000E+00  0.11018130207E+03  0.11018130207E+03  0.00000000000E+00 0.  1.
         13   -1    0    0    0    0 -0.00000000000E+00 -0.00000000000E+00 -0.10000000000E+04  0.10000000000E+04  0.00000000000E+00 0.  1.
    9000005    2    1    2  501    0  0.10890132387E-04 -0.32711011215E-05 -0.88981872560E+03  0.11101812722E+04  0.66387129220E+03 0.  0.
         13    1    3    3    0    0 -0.23946231770E+03 -0.22684671645E+03 -0.38279494224E+03  0.50530545433E+03  0.00000000000E+00 0.  1.
          1    1    3    3  501    0  0.23946232859E+03  0.22684671318E+03 -0.50702378336E+03  0.60487581783E+03  0.00000000000E+00 0.  1.
         21    1    1    2  502  501 -0.10890132389E-04  0.32711011349E-05  0.27668778192E-04  0.29914150042E-04  0.00000000000E+00 0. -1.
<mgrwt>
<rscale>  1 0.66387129E+03</rscale>
<asrwt>0</asrwt>
<pdfrwt beam="1">  1        1 0.40066013E+00 0.66387129E+03</pdfrwt>
<pdfrwt beam="2">0</pdfrwt>
<totfact> 0.13253623E+00</totfact>
</mgrwt>
</event>
<event>
 6    1  0.2677832E-003  0.6564042E+03  0.7818608E-02  0.9794836E-01
          1   -1    0    0  502    0  0.00000000000E+00  0.00000000000E+00  0.10774655772E+03  0.10774655772E+03  0.00000000000E+00 0.  1.
         13   -1    0    0    0    0 -0.00000000000E+00 -0.00000000000E+00 -0.10000000000E+04  0.10000000000E+04  0.00000000000E+00 0.  1.
    9000005    2    1    2  501    0  0.53758254556E-02  0.35325769486E-01 -0.89227110254E+03  0.11077066993E+04  0.65640415138E+03 0.  0.
         13    1    3    3    0    0 -0.25165756837E+03  0.11422765157E+03 -0.14739548384E+03  0.31321704417E+03  0.00000000000E+00 0.  1.
          3    1    3    3  501    0  0.25166294420E+03 -0.11419232580E+03 -0.74487561870E+03  0.79448965512E+03  0.00000000000E+00 0.  1.
         21    1    1    2  502  501 -0.53758254556E-02 -0.35325769486E-01  0.17660265823E-01  0.39858430451E-01  0.00000000000E+00 0. -1.
<mgrwt>
<rscale>  1 0.65640415E+03</rscale>
<asrwt>0</asrwt>
<pdfrwt beam="1">  1        1 0.39180649E+00 0.65640415E+03</pdfrwt>
<pdfrwt beam="2">0</pdfrwt>
<totfact> 0.14532396E+00</totfact>
</mgrwt>
</event>
<event>
 6    1  0.2677832E-003  0.6499438E+03  0.7818608E-02  0.9806885E-01
          1   -1    0    0  502    0  0.00000000000E+00  0.00000000000E+00  0.10560779862E+03  0.10560779862E+03  0.00000000000E+00 0.  1.
         13   -1    0    0    0    0 -0.00000000000E+00 -0.00000000000E+00 -0.10000000000E+04  0.10000000000E+04  0.00000000000E+00 0.  1.
    9000005    2    1    2  501    0 -0.41901664686E-03  0.70219577703E-03 -0.89439307673E+03  0.11056066008E+04  0.64994382829E+03 0.  0.
         13    1    3    3    0    0  0.85879561911E+02  0.26910477115E+02  0.83985392718E+02  0.12309759999E+03  0.00000000000E+00 0.  1.
          1    1    3    3  501    0 -0.85879980928E+02 -0.26909774919E+02 -0.97837846945E+03  0.98250900077E+03  0.00000000000E+00 0.  1.
         21    1    1    2  502  501  0.41901664686E-03 -0.70219577703E-03  0.87535033210E-03  0.11978698024E-02  0.00000000000E+00 0. -1.
<mgrwt>
<rscale>  1 0.64994383E+03</rscale>
<asrwt>0</asrwt>
<pdfrwt beam="1">  1        1 0.38402917E+00 0.64994383E+03</pdfrwt>
<pdfrwt beam="2">0</pdfrwt>
<totfact> 0.15751064E+00</totfact>
</mgrwt>
</event>
<event>
 6    1  0.2677832E-003  0.6550230E+03  0.7818608E-02  0.9797399E-01
          1   -1    0    0  502    0  0.00000000000E+00  0.00000000000E+00  0.10726579784E+03  0.10726579784E+03  0.00000000000E+00 0.  1.
         13   -1    0    0    0    0 -0.00000000000E+00 -0.00000000000E+00 -0.10000000000E+04  0.10000000000E+04  0.00000000000E+00 0.  1.
    9000005    2    1    2  501    0 -0.44007538960E-02 -0.19225213254E-02 -0.89273231238E+03  0.11072606370E+04  0.65502300472E+03 0.  0.
         13    1    3    3    0    0  0.91952062964E+02 -0.23088740192E+03 -0.80694266574E+03  0.84434627970E+03  0.00000000000E+00 0.  1.
          1    1    3    3  501    0 -0.91956463717E+02  0.23088547940E+03 -0.85789646634E+02  0.26291435732E+03  0.00000000000E+00 0.  1.
         21    1    1    2  502  501  0.44007538960E-02  0.19225213254E-02 -0.18897835951E-02  0.51608143869E-02  0.00000000000E+00 0. -1.
<mgrwt>
<rscale>  1 0.65502300E+03</rscale>
<asrwt>0</asrwt>
<pdfrwt beam="1">  1        1 0.39005827E+00 0.65502300E+03</pdfrwt>
<pdfrwt beam="2">0</pdfrwt>
<totfact> 0.14798081E+00</totfact>
</mgrwt>
</event>
<event>
 6    1  0.2677832E-003  0.6536322E+03  0.7818608E-02  0.9799987E-01
          1   -1    0    0  502    0  0.00000000000E+00  0.00000000000E+00  0.10680913999E+03  0.10680913999E+03  0.00000000000E+00 0.  1.
         13   -1    0    0    0    0 -0.00000000000E+00 -0.00000000000E+00 -0.10000000000E+04  0.10000000000E+04  0.00000000000E+00 0.  1.
    9000005    2    1    2  501    0 -0.18182273365E-04 -0.37444248306E-03 -0.89319114465E+03  0.11068086693E+04  0.65363216686E+03 0.  0.
         13    1    3    3    0    0  0.10953668651E+03 -0.30012659922E+03 -0.56311053820E+03  0.64743164851E+03  0.00000000000E+00 0.  1.
          1    1    3    3  501    0 -0.10953670469E+03  0.30012622478E+03 -0.33008060644E+03  0.45937702079E+03  0.00000000000E+00 0.  1.
         21    1    1    2  502  501  0.18182273363E-04  0.37444248305E-03  0.28464022736E-03  0.47069929596E-03  0.00000000000E+00 0. -1.
<mgrwt>
<rscale>  1 0.65363217E+03</rscale>
<asrwt>0</asrwt>
<pdfrwt beam="1">  1        1 0.38839769E+00 0.65363217E+03</pdfrwt>
<pdfrwt beam="2">0</pdfrwt>
<totfact> 0.15054926E+00</totfact>
</mgrwt>
</event>
<event>
 6    1  0.2677832E-003  0.6431608E+03  0.7818608E-02  0.9819698E-01
          1   -1    0    0  502    0  0.00000000000E+00  0.00000000000E+00  0.10341568077E+03  0.10341568077E+03  0.00000000000E+00 0.  1.
         13   -1    0    0    0    0 -0.00000000000E+00 -0.00000000000E+00 -0.10000000000E+04  0.10000000000E+04  0.00000000000E+00 0.  1.
    9000005    2    1    2  501    0 -0.10990976651E-03  0.10206200955E-03 -0.89658604486E+03  0.11034139486E+04  0.64316079343E+03 0.  0.
         13    1    3    3    0    0 -0.17204294976E+03  0.26445196001E+03 -0.34142304217E+03  0.46486913152E+03  0.00000000000E+00 0.  1.
          1    1    3    3  501    0  0.17204283985E+03 -0.26445185794E+03 -0.55516300268E+03  0.63854481712E+03  0.00000000000E+00 0.  1.
         21    1    1    2  502  501  0.10990976651E-03 -0.10206200952E-03  0.17256279041E-02  0.17321340808E-02  0.00000000000E+00 0.  1.
<mgrwt>
<rscale>  1 0.64316079E+03</rscale>
<asrwt>0</asrwt>
<pdfrwt beam="1">  1        1 0.37605781E+00 0.64316079E+03</pdfrwt>
<pdfrwt beam="2">0</pdfrwt>
<totfact> 0.17101102E+00</totfact>
</mgrwt>
</event>
<event>
 6    1  0.2677832E-003  0.6587959E+03  0.7818608E-02  0.9790413E-01
          1   -1    0    0  502    0  0.00000000000E+00  0.00000000000E+00  0.10852837655E+03  0.10852837655E+03  0.00000000000E+00 0.  1.
         13   -1    0    0    0    0 -0.00000000000E+00 -0.00000000000E+00 -0.10000000000E+04  0.10000000000E+04  0.00000000000E+00 0.  1.
    9000005    2    1    2  501    0  0.58932123084E-02  0.21611807638E-02 -0.89149657612E+03  0.11085026465E+04  0.65879584999E+03 0.  0.
         13    1    3    3    0    0  0.74912013692E+01 -0.32929433268E+03 -0.44005333621E+03  0.54967064170E+03  0.00000000000E+00 0.  1.
          3    1    3    3  501    0 -0.74853081569E+01  0.32929649386E+03 -0.45144323991E+03  0.55883200478E+03  0.00000000000E+00 0.  1.
         21    1    1    2  502  501 -0.58932123084E-02 -0.21611807638E-02  0.24952674520E-01  0.25730072275E-01  0.00000000000E+00 0.  1.
<mgrwt>
<rscale>  1 0.65879585E+03</rscale>
<asrwt>0</asrwt>
<pdfrwt beam="1">  1        1 0.39464947E+00 0.65879585E+03</pdfrwt>
<pdfrwt beam="2">0</pdfrwt>
<totfact> 0.14109582E+00</totfact>
</mgrwt>
</event>
<event>
 6    1  0.2677832E-003  0.6506426E+03  0.7818608E-02  0.9805574E-01
          1   -1    0    0  502    0  0.00000000000E+00  0.00000000000E+00  0.10583424384E+03  0.10583424384E+03  0.00000000000E+00 0.  1.
         13   -1    0    0    0    0 -0.00000000000E+00 -0.00000000000E+00 -0.10000000000E+04  0.10000000000E+04  0.00000000000E+00 0.  1.
    9000005    2    1    2  501    0  0.11948708277E-04  0.49903778773E-04 -0.89416604827E+03  0.11058339473E+04  0.65064260314E+03 0.  0.
         13    1    3    3    0    0 -0.14052904770E+03 -0.18697566431E+03 -0.62786225597E+02  0.24217849289E+03  0.00000000000E+00 0.  1.
          1    1    3    3  501    0  0.14052905965E+03  0.18697571421E+03 -0.83137982267E+03  0.86365545437E+03  0.00000000000E+00 0.  1.
         21    1    1    2  502  501 -0.11948708285E-04 -0.49903778758E-04  0.29210828360E-03  0.29658119986E-03  0.00000000000E+00 0. -1.
<mgrwt>
<rscale>  1 0.65064260E+03</rscale>
<asrwt>0</asrwt>
<pdfrwt beam="1">  1        1 0.38485261E+00 0.65064260E+03</pdfrwt>
<pdfrwt beam="2">0</pdfrwt>
<totfact> 0.15617541E+00</totfact>
</mgrwt>
</event>
<event>
 6    1  0.2677832E-003  0.6524580E+03  0.7818608E-02  0.9802178E-01
          3   -1    0    0  502    0  0.00000000000E+00  0.00000000000E+00  0.10718411516E+03  0.10718411516E+03  0.00000000000E+00 0.  1.
         13   -1    0    0    0    0 -0.00000000000E+00 -0.00000000000E+00 -0.10000000000E+04  0.10000000000E+04  0.00000000000E+00 0.  1.
    9000005    2    1    2  501    0 -0.36630279697E+00  0.77513356631E+00 -0.89329691993E+03  0.11062010564E+04  0.65245739707E+03 0.  0.
         13    1    3    3    0    0  0.18077916205E+03 -0.26435054840E+03 -0.34446977824E+03  0.47034215842E+03  0.00000000000E+00 0.  1.
          3    1    3    3  501    0 -0.18114546485E+03  0.26512568196E+03 -0.54882714169E+03  0.63585889797E+03  0.00000000000E+00 0.  1.
         21    1    1    2  502  501  0.36630279697E+00 -0.77513356631E+00  0.48103508484E+00  0.98305876606E+00  0.00000000000E+00 0. -1.
<mgrwt>
<rscale>  1 0.65245796E+03</rscale>
<asrwt>0</asrwt>
<pdfrwt beam="1">  1        3 0.38976124E+00 0.65245796E+03</pdfrwt>
<pdfrwt beam="2">0</pdfrwt>
<totfact> 0.67016962E-02</totfact>
</mgrwt>
</event>
<event>
 6    1  0.2677832E-003  0.6549454E+03  0.7818608E-02  0.9797543E-01
          1   -1    0    0  502    0  0.00000000000E+00  0.00000000000E+00  0.10723915789E+03  0.10723915789E+03  0.00000000000E+00 0.  1.
         13   -1    0    0    0    0 -0.00000000000E+00 -0.00000000000E+00 -0.10000000000E+04  0.10000000000E+04  0.00000000000E+00 0.  1.
    9000005    2    1    2  501    0  0.38749838495E-04  0.71628619040E-04 -0.89276162757E+03  0.11072383682E+04  0.65494540261E+03 0.  0.
         13    1    3    3    0    0 -0.30025914414E+03  0.11469208090E+03 -0.55234316061E+03  0.63905617447E+03  0.00000000000E+00 0.  1.
          3    1    3    3  501    0  0.30025918289E+03 -0.11469200927E+03 -0.34041846696E+03  0.46818219375E+03  0.00000000000E+00 0.  1.
         21    1    1    2  502  501 -0.38749838490E-04 -0.71628619033E-04  0.78545749073E-03  0.78966808140E-03  0.00000000000E+00 0.  1.
<mgrwt>
<rscale>  1 0.65494540E+03</rscale>
<asrwt>0</asrwt>
<pdfrwt beam="1">  1        1 0.38996140E+00 0.65494540E+03</pdfrwt>
<pdfrwt beam="2">0</pdfrwt>
<totfact> 0.14812940E+00</totfact>
</mgrwt>
</event>
<event>
 6    1  0.2677832E-003  0.6453004E+03  0.7818608E-02  0.9815638E-01
          3   -1    0    0  502    0  0.00000000000E+00  0.00000000000E+00  0.10810475692E+03  0.10810475692E+03  0.00000000000E+00 0.  1.
         13   -1    0    0    0    0 -0.00000000000E+00 -0.00000000000E+00 -0.10000000000E+04  0.10000000000E+04  0.00000000000E+00 0.  1.
    9000005    2    1    2  501    0  0.40637222991E+01  0.76938394899E+00 -0.89468197130E+03  0.11031176090E+04  0.64528716369E+03 0.  0.
         13    1    3    3    0    0 -0.29021111000E+03 -0.59999479579E+02 -0.23497288997E+03  0.37819926618E+03  0.00000000000E+00 0.  1.
          3    1    3    3  501    0  0.29427483230E+03  0.60768863528E+02 -0.65970908133E+03  0.72491834278E+03  0.00000000000E+00 0.  1.
         21    1    1    2  502  501 -0.40637222991E+01 -0.76938394899E+00  0.27867282196E+01  0.49871479580E+01  0.00000000000E+00 0. -1.
<mgrwt>
<rscale>  1 0.64530042E+03</rscale>
<asrwt>0</asrwt>
<pdfrwt beam="1">  1        3 0.39310904E+00 0.64530042E+03</pdfrwt>
<pdfrwt beam="2">0</pdfrwt>
<totfact> 0.64433253E-02</totfact>
</mgrwt>
</event>
<event>
 6    1  0.2677832E-003  0.6619944E+03  0.7818608E-02  0.9784529E-01
          1   -1    0    0  502    0  0.00000000000E+00  0.00000000000E+00  0.10955992529E+03  0.10955992529E+03  0.00000000000E+00 0.  1.
         13   -1    0    0    0    0 -0.00000000000E+00 -0.00000000000E+00 -0.10000000000E+04  0.10000000000E+04  0.00000000000E+00 0.  1.
    9000005    2    1    2  501    0 -0.11911149989E-02  0.19100036862E-02 -0.89043807516E+03  0.11095569145E+04  0.66199439630E+03 0.  0.
         13    1    3    3    0    0 -0.21649407516E+03  0.20146890148E+03 -0.69439002133E+03  0.75474293939E+03  0.00000000000E+00 0.  1.
          1    1    3    3  501    0  0.21649288404E+03 -0.20146699148E+03 -0.19604805383E+03  0.35481397507E+03  0.00000000000E+00 0.  1.
         21    1    1    2  502  501  0.11911149989E-02 -0.19100036862E-02 -0.19995510737E-02  0.30108260525E-02  0.00000000000E+00 0. -1.
<mgrwt>
<rscale>  1 0.66199440E+03</rscale>
<asrwt>0</asrwt>
<pdfrwt beam="1">  1        1 0.39840057E+00 0.66199440E+03</pdfrwt>
<pdfrwt beam="2">0</pdfrwt>
<totfact> 0.13569395E+00</totfact>
</mgrwt>
</event>
<event>
 6    1  0.2677832E-003  0.6416313E+03  0.7818608E-02  0.9822610E-01
          1   -1    0    0  502    0  0.00000000000E+00  0.00000000000E+00  0.10313131005E+03  0.10313131005E+03  0.00000000000E+00 0.  1.
         13   -1    0    0    0    0 -0.00000000000E+00 -0.00000000000E+00 -0.10000000000E+04  0.10000000000E+04  0.00000000000E+00 0.  1.
    9000005    2    1    2  501    0  0.51121230056E+00 -0.19052415294E+00 -0.89656774644E+03  0.11025082495E+04  0.64163106111E+03 0.  0.
         13    1    3    3    0    0  0.27791914644E+03 -0.68769722946E+02 -0.19896971190E+03  0.34865064607E+03  0.00000000000E+00 0.  1.
          3    1    3    3  501    0 -0.27740793414E+03  0.68579198793E+02 -0.69759803453E+03  0.75385760341E+03  0.00000000000E+00 0.  1.
         21    1    1    2  502  501 -0.51121230056E+00  0.19052415294E+00 -0.30094351862E+00  0.62306056728E+00  0.00000000000E+00 0.  1.
<mgrwt>
<rscale>  1 0.64163129E+03</rscale>
<asrwt>0</asrwt>
<pdfrwt beam="1">  1        1 0.37502374E+00 0.64163129E+03</pdfrwt>
<pdfrwt beam="2">0</pdfrwt>
<totfact> 0.17286164E+00</totfact>
</mgrwt>
</event>
<event>
 6    1  0.2677832E-003  0.6447369E+03  0.7818608E-02  0.9816705E-01
          3   -1    0    0  502    0  0.00000000000E+00  0.00000000000E+00  0.10393033179E+03  0.10393033179E+03  0.00000000000E+00 0.  1.
         13   -1    0    0    0    0 -0.00000000000E+00 -0.00000000000E+00 -0.10000000000E+04  0.10000000000E+04  0.00000000000E+00 0.  1.
    9000005    2    1    2  501    0  0.89254620804E-03  0.23141743748E-02 -0.89607837704E+03  0.11039212766E+04  0.64473694420E+03 0.  0.
         13    1    3    3    0    0 -0.30783691511E+03  0.95693293266E+02 -0.44937175204E+03  0.55304226259E+03  0.00000000000E+00 0.  1.
          3    1    3    3  501    0  0.30783780766E+03 -0.95690979092E+02 -0.44670662500E+03  0.55087901405E+03  0.00000000000E+00 0.  1.
         21    1    1    2  502  501 -0.89254620805E-03 -0.23141743748E-02  0.87088284455E-02  0.90551496213E-02  0.00000000000E+00 0.  1.
<mgrwt>
<rscale>  1 0.64473694E+03</rscale>
<asrwt>0</asrwt>
<pdfrwt beam="1">  1        3 0.37792928E+00 0.64473694E+03</pdfrwt>
<pdfrwt beam="2">0</pdfrwt>
<totfact> 0.77472324E-02</totfact>
</mgrwt>
</event>
<event>
 6    1  0.2677832E-003  0.6391865E+03  0.7818608E-02  0.9827284E-01
          1   -1    0    0  502    0  0.00000000000E+00  0.00000000000E+00  0.10213997660E+03  0.10213997660E+03  0.00000000000E+00 0.  1.
         13   -1    0    0    0    0 -0.00000000000E+00 -0.00000000000E+00 -0.10000000000E+04  0.10000000000E+04  0.00000000000E+00 0.  1.
    9000005    2    1    2  501    0  0.11779598196E-04 -0.95367736321E-05 -0.89786014817E+03  0.11021398509E+04  0.63918651840E+03 0.  0.
         13    1    3    3    0    0 -0.24406022625E+03  0.20594625011E+03 -0.42707890562E+03  0.53326882864E+03  0.00000000000E+00 0.  1.
          1    1    3    3  501    0  0.24406023803E+03 -0.20594625964E+03 -0.47078124255E+03  0.56887102227E+03  0.00000000000E+00 0.  1.
         21    1    1    2  502  501 -0.11779598190E-04  0.95367736275E-05  0.12477080186E-03  0.12568795480E-03  0.00000000000E+00 0.  1.
<mgrwt>
<rscale>  1 0.63918652E+03</rscale>
<asrwt>0</asrwt>
<pdfrwt beam="1">  1        1 0.37141888E+00 0.63918652E+03</pdfrwt>
<pdfrwt beam="2">0</pdfrwt>
<totfact> 0.17936904E+00</totfact>
</mgrwt>
</event>
<event>
 6    1  0.2677832E-003  0.6554132E+03  0.7818608E-02  0.9796674E-01
          1   -1    0    0  502    0  0.00000000000E+00  0.00000000000E+00  0.10739176278E+03  0.10739176278E+03  0.00000000000E+00 0.  1.
         13   -1    0    0    0    0 -0.00000000000E+00 -0.00000000000E+00 -0.10000000000E+04  0.10000000000E+04  0.00000000000E+00 0.  1.
    9000005    2    1    2  501    0 -0.17785395070E-03 -0.44241347739E-03 -0.89260776980E+03  0.11073910951E+04  0.65541315727E+03 0.  0.
         13    1    3    3    0    0  0.60022032946E+02  0.36515816461E+02 -0.98712485061E+03  0.98962190759E+03  0.00000000000E+00 0.  1.
          1    1    3    3  501    0 -0.60022210800E+02 -0.36516258874E+02  0.94517080814E+02  0.11776918747E+03  0.00000000000E+00 0.  1.
         21    1    1    2  502  501  0.17785395070E-03  0.44241347740E-03 -0.46742225002E-03  0.66771646121E-03  0.00000000000E+00 0.  1.
<mgrwt>
<rscale>  1 0.65541316E+03</rscale>
<asrwt>0</asrwt>
<pdfrwt beam="1">  1        1 0.39051632E+00 0.65541316E+03</pdfrwt>
<pdfrwt beam="2">0</pdfrwt>
<totfact> 0.14727949E+00</totfact>
</mgrwt>
</event>
<event>
 6    1  0.2677832E-003  0.6476529E+03  0.7818608E-02  0.9811193E-01
          1   -1    0    0  502    0  0.00000000000E+00  0.00000000000E+00  0.10486568644E+03  0.10486568644E+03  0.00000000000E+00 0.  1.
         13   -1    0    0    0    0 -0.00000000000E+00 -0.00000000000E+00 -0.10000000000E+04  0.10000000000E+04  0.00000000000E+00 0.  1.
    9000005    2    1    2  501    0 -0.10242664808E-03 -0.10284812712E-03 -0.89513642907E+03  0.11048635660E+04  0.64765289525E+03 0.  0.
         13    1    3    3    0    0 -0.26045443806E+03 -0.62408659192E+01 -0.11947483422E+03  0.28661768739E+03  0.00000000000E+00 0.  1.
          3    1    3    3  501    0  0.26045433563E+03  0.62407630711E+01 -0.77566159485E+03  0.81824587857E+03  0.00000000000E+00 0.  1.
         21    1    1    2  502  501  0.10242664807E-03  0.10284812712E-03  0.21155107881E-02  0.21204845791E-02  0.00000000000E+00 0.  1.
<mgrwt>
<rscale>  1 0.64765290E+03</rscale>
<asrwt>0</asrwt>
<pdfrwt beam="1">  1        1 0.38133057E+00 0.64765290E+03</pdfrwt>
<pdfrwt beam="2">0</pdfrwt>
<totfact> 0.16196301E+00</totfact>
</mgrwt>
</event>
<event>
 6    1  0.2677832E-003  0.6504899E+03  0.7818608E-02  0.9805860E-01
          1   -1    0    0  502    0  0.00000000000E+00  0.00000000000E+00  0.10597559322E+03  0.10597559322E+03  0.00000000000E+00 0.  1.
         13   -1    0    0    0    0 -0.00000000000E+00 -0.00000000000E+00 -0.10000000000E+04  0.10000000000E+04  0.00000000000E+00 0.  1.
    9000005    2    1    2  501    0 -0.27546845937E-01 -0.80487105735E-01 -0.89420522136E+03  0.11057757660E+04  0.65048986120E+03 0.  0.
         13    1    3    3    0    0  0.27581072040E+03 -0.11906999556E+03 -0.65899684671E+03  0.72424171470E+03  0.00000000000E+00 0.  1.
          3    1    3    3  501    0 -0.27583826725E+03  0.11898950845E+03 -0.23520837465E+03  0.38153405131E+03  0.00000000000E+00 0.  1.
         21    1    1    2  502  501  0.27546845937E-01  0.80487105735E-01  0.18081458619E+00  0.19982721909E+00  0.00000000000E+00 0. -1.
<mgrwt>
<rscale>  1 0.65048987E+03</rscale>
<asrwt>0</asrwt>
<pdfrwt beam="1">  1        1 0.38536661E+00 0.65048987E+03</pdfrwt>
<pdfrwt beam="2">0</pdfrwt>
<totfact> 0.15536430E+00</totfact>
</mgrwt>
</event>
<event>
 6    1  0.2677832E-003  0.6359617E+03  0.7818608E-02  0.9833483E-01
          1   -1    0    0  502    0  0.00000000000E+00  0.00000000000E+00  0.10111324175E+03  0.10111324175E+03  0.00000000000E+00 0.  1.
         13   -1    0    0    0    0 -0.00000000000E+00 -0.00000000000E+00 -0.10000000000E+04  0.10000000000E+04  0.00000000000E+00 0.  1.
    9000005    2    1    2  501    0  0.11772085116E-03  0.24657264944E-04 -0.89888816425E+03  0.11011118306E+04  0.63596173761E+03 0.  0.
         13    1    3    3    0    0 -0.18239646892E+03 -0.84763293364E+02 -0.23015402662E+02  0.20244257590E+03  0.00000000000E+00 0.  1.
          3    1    3    3  501    0  0.18239658664E+03  0.84763318021E+02 -0.87587276158E+03  0.89866925472E+03  0.00000000000E+00 0.  1.
         21    1    1    2  502  501 -0.11772085117E-03 -0.24657264944E-04  0.14059913656E-02  0.14111264648E-02  0.00000000000E+00 0.  1.
<mgrwt>
<rscale>  1 0.63596174E+03</rscale>
<asrwt>0</asrwt>
<pdfrwt beam="1">  1        1 0.36768529E+00 0.63596174E+03</pdfrwt>
<pdfrwt beam="2">0</pdfrwt>
<totfact> 0.18637884E+00</totfact>
</mgrwt>
</event>
<event>
 6    1  0.2677832E-003  0.6419208E+03  0.7818608E-02  0.9822058E-01
          1   -1    0    0  502    0  0.00000000000E+00  0.00000000000E+00  0.10303107109E+03  0.10303107109E+03  0.00000000000E+00 0.  1.
         13   -1    0    0    0    0 -0.00000000000E+00 -0.00000000000E+00 -0.10000000000E+04  0.10000000000E+04  0.00000000000E+00 0.  1.
    9000005    2    1    2  501    0  0.20428121056E-01  0.31888802936E-01 -0.89684995128E+03  0.11029062117E+04  0.64192077016E+03 0.  0.
         13    1    3    3    0    0 -0.83951037886E+02  0.26894583295E+03 -0.71262392260E+03  0.76629791392E+03  0.00000000000E+00 0.  1.
          1    1    3    3  501    0  0.83971466007E+02 -0.26891394414E+03 -0.18422602868E+03  0.33660829773E+03  0.00000000000E+00 0.  1.
         21    1    1    2  502  501 -0.20428121056E-01 -0.31888802936E-01 -0.11897762935E+00  0.12485944165E+00  0.00000000000E+00 0. -1.
<mgrwt>
<rscale>  1 0.64192077E+03</rscale>
<asrwt>0</asrwt>
<pdfrwt beam="1">  1        1 0.37465923E+00 0.64192077E+03</pdfrwt>
<pdfrwt beam="2">0</pdfrwt>
<totfact> 0.17349221E+00</totfact>
</mgrwt>
</event>
<event>
 6    1  0.2677832E-003  0.6858979E+03  0.7818608E-02  0.9741657E-01
          3   -1    0    0  502    0  0.00000000000E+00  0.00000000000E+00  0.11761400942E+03  0.11761400942E+03  0.00000000000E+00 0.  1.
         13   -1    0    0    0    0 -0.00000000000E+00 -0.00000000000E+00 -0.10000000000E+04  0.10000000000E+04  0.00000000000E+00 0.  1.
    9000005    2    1    2  501    0  0.26171573040E-04 -0.14735865548E-04 -0.88238602599E+03  0.11176139630E+04  0.68589785785E+03 0.  0.
         13    1    3    3    0    0  0.30833550568E+03  0.12201459367E+03 -0.58376127246E+03  0.67136842967E+03  0.00000000000E+00 0.  1.
          1    1    3    3  501    0 -0.30833547951E+03 -0.12201460840E+03 -0.29862475353E+03  0.44624553332E+03  0.00000000000E+00 0.  1.
         21    1    1    2  502  501 -0.26171573055E-04  0.14735865554E-04  0.35414852021E-04  0.46436071254E-04  0.00000000000E+00 0. -1.
<mgrwt>
<rscale>  1 0.68589786E+03</rscale>
<asrwt>0</asrwt>
<pdfrwt beam="1">  1        3 0.42768821E+00 0.68589786E+03</pdfrwt>
<pdfrwt beam="2">0</pdfrwt>
<totfact> 0.42255876E-02</totfact>
</mgrwt>
</event>
<event>
 6    1  0.2677832E-003  0.6381594E+03  0.7818608E-02  0.9829254E-01
          1   -1    0    0  502    0  0.00000000000E+00  0.00000000000E+00  0.10188888290E+03  0.10188888290E+03  0.00000000000E+00 0.  1.
         13   -1    0    0    0    0 -0.00000000000E+00 -0.00000000000E+00 -0.10000000000E+04  0.10000000000E+04  0.00000000000E+00 0.  1.
    9000005    2    1    2  501    0  0.15828122092E-02  0.65251283274E-04 -0.89818813949E+03  0.11018118442E+04  0.63815938930E+03 0.  0.
         13    1    3    3    0    0  0.10089672070E+03 -0.29142010902E+03 -0.30770546588E+03  0.43564719892E+03  0.00000000000E+00 0.  1.
          3    1    3    3  501    0 -0.10089513789E+03  0.29142017427E+03 -0.59048267361E+03  0.66616464531E+03  0.00000000000E+00 0.  1.
         21    1    1    2  502  501 -0.15828122092E-02 -0.65251283232E-04  0.77022384167E-01  0.77038673503E-01  0.00000000000E+00 0.  1.
<mgrwt>
<rscale>  1 0.63815939E+03</rscale>
<asrwt>0</asrwt>
<pdfrwt beam="1">  1        1 0.37050581E+00 0.63815939E+03</pdfrwt>
<pdfrwt beam="2">0</pdfrwt>
<totfact> 0.18106753E+00</totfact>
</mgrwt>
</event>
<event>
 6    1  0.4621834E-003  0.6873562E+03  0.7818608E-02  0.9739102E-01
          1   -1    0    0  502    0  0.00000000000E+00  0.00000000000E+00  0.11811468916E+03  0.11811468916E+03  0.00000000000E+00 0.  1.
         13   -1    0    0    0    0 -0.00000000000E+00 -0.00000000000E+00 -0.10000000000E+04  0.10000000000E+04  0.00000000000E+00 0.  1.
    9000005    2    1    2  501    0  0.20571644811E-04  0.40226061870E-04 -0.88188533653E+03  0.11181146372E+04  0.68735623595E+03 0.  0.
         13    1    3    3    0    0  0.11404994082E+03  0.12860552086E+01 -0.96831507680E+03  0.97500929785E+03  0.00000000000E+00 0.  1.
          1    1    3    3  501    0 -0.11404992025E+03 -0.12860149825E+01  0.86429740267E+02  0.14310533933E+03  0.00000000000E+00 0.  1.
         21    1    1    2  502  501 -0.20571644811E-04 -0.40226061870E-04  0.25686320408E-04  0.51972258753E-04  0.00000000000E+00 0. -1.
<mgrwt>
<rscale>  1 0.68735624E+03</rscale>
<asrwt>0</asrwt>
<pdfrwt beam="1">  1        1 0.42950887E+00 0.68735624E+03</pdfrwt>
<pdfrwt beam="2">0</pdfrwt>
<totfact> 0.97848787E-01</totfact>
</mgrwt>
</event>
<event>
 6    1  0.2677832E-003  0.6682907E+03  0.7818608E-02  0.9773051E-01
          1   -1    0    0  502    0  0.00000000000E+00  0.00000000000E+00  0.11171818387E+03  0.11171818387E+03  0.00000000000E+00 0.  1.
         13   -1    0    0    0    0 -0.00000000000E+00 -0.00000000000E+00 -0.10000000000E+04  0.10000000000E+04  0.00000000000E+00 0.  1.
    9000005    2    1    2  501    0  0.26226219269E-01  0.22370836595E-01 -0.88834178051E+03  0.11116490174E+04  0.66829066864E+03 0.  0.
         13    1    3    3    0    0 -0.14180607291E+03 -0.25226933081E+03 -0.72197334649E+03  0.77781378917E+03  0.00000000000E+00 0.  1.
          3    1    3    3  501    0  0.14183229913E+03  0.25229170165E+03 -0.16636843401E+03  0.33383522827E+03  0.00000000000E+00 0.  1.
         21    1    1    2  502  501 -0.26226219269E-01 -0.22370836595E-01  0.59964380173E-01  0.69166435477E-01  0.00000000000E+00 0. -1.
<mgrwt>
<rscale>  1 0.66829067E+03</rscale>
<asrwt>0</asrwt>
<pdfrwt beam="1">  1        1 0.40624880E+00 0.66829067E+03</pdfrwt>
<pdfrwt beam="2">0</pdfrwt>
<totfact> 0.12502664E+00</totfact>
</mgrwt>
</event>
<event>
 6    1  0.2677832E-003  0.6494590E+03  0.7818608E-02  0.9807795E-01
          1   -1    0    0  502    0  0.00000000000E+00  0.00000000000E+00  0.10545938814E+03  0.10545938814E+03  0.00000000000E+00 0.  1.
         13   -1    0    0    0    0 -0.00000000000E+00 -0.00000000000E+00 -0.10000000000E+04  0.10000000000E+04  0.00000000000E+00 0.  1.
    9000005    2    1    2  501    0  0.12141580820E-02 -0.26682344730E-03 -0.89455070447E+03  0.11054492193E+04  0.64945901601E+03 0.  0.
         13    1    3    3    0    0 -0.14161089977E+03  0.26362138997E+03 -0.66189656535E+03  0.72639999133E+03  0.00000000000E+00 0.  1.
          3    1    3    3  501    0  0.14161211393E+03 -0.26362165679E+03 -0.23265413912E+03  0.37904922792E+03  0.00000000000E+00 0.  1.
         21    1    1    2  502  501 -0.12141580819E-02  0.26682344729E-03  0.10092614325E-01  0.10168885805E-01  0.00000000000E+00 0.  1.
<mgrwt>
<rscale>  1 0.64945902E+03</rscale>
<asrwt>0</asrwt>
<pdfrwt beam="1">  1        1 0.38348949E+00 0.64945902E+03</pdfrwt>
<pdfrwt beam="2">0</pdfrwt>
<totfact> 0.15839240E+00</totfact>
</mgrwt>
</event>
<event>
 6    1  0.2677832E-003  0.6473901E+03  0.7818608E-02  0.9811689E-01
          1   -1    0    0  502    0  0.00000000000E+00  0.00000000000E+00  0.10478750660E+03  0.10478750660E+03  0.00000000000E+00 0.  1.
         13   -1    0    0    0    0 -0.00000000000E+00 -0.00000000000E+00 -0.10000000000E+04  0.10000000000E+04  0.00000000000E+00 0.  1.
    9000005    2    1    2  501    0 -0.32020450590E-04  0.57885212124E-03 -0.89522149932E+03  0.11047784820E+04  0.64739011543E+03 0.  0.
         13    1    3    3    0    0 -0.95278570617E+02  0.78239236298E+02  0.63144141939E+02  0.13851558315E+03  0.00000000000E+00 0.  1.
          3    1    3    3  501    0  0.95278538597E+02 -0.78238657446E+02 -0.95836564125E+03  0.96626289889E+03  0.00000000000E+00 0.  1.
         21    1    1    2  502  501  0.32020450595E-04 -0.57885212124E-03  0.90059125988E-02  0.90245529986E-02  0.00000000000E+00 0.  1.
<mgrwt>
<rscale>  1 0.64739012E+03</rscale>
<asrwt>0</asrwt>
<pdfrwt beam="1">  1        1 0.38104628E+00 0.64739012E+03</pdfrwt>
<pdfrwt beam="2">0</pdfrwt>
<totfact> 0.16243961E+00</totfact>
</mgrwt>
</event>
<event>
 6    1  0.2677832E-003  0.6473062E+03  0.7818608E-02  0.9811847E-01
          1   -1    0    0  502    0  0.00000000000E+00  0.00000000000E+00  0.10481577799E+03  0.10481577799E+03  0.00000000000E+00 0.  1.
         13   -1    0    0    0    0 -0.00000000000E+00 -0.00000000000E+00 -0.10000000000E+04  0.10000000000E+04  0.00000000000E+00 0.  1.
    9000005    2    1    2  501    0  0.65496162580E-02  0.23724246777E-02 -0.89524845252E+03  0.11047511708E+04  0.64730623175E+03 0.  0.
         13    1    3    3    0    0  0.29974662068E+03  0.63283267729E+02 -0.26943979340E+03  0.40798359140E+03  0.00000000000E+00 0.  1.
          3    1    3    3  501    0 -0.29974007107E+03 -0.63280895304E+02 -0.62580865913E+03  0.69676757944E+03  0.00000000000E+00 0.  1.
         21    1    1    2  502  501 -0.65496162580E-02 -0.23724246777E-02  0.64230509926E-01  0.64607153453E-01  0.00000000000E+00 0.  1.
<mgrwt>
<rscale>  1 0.64730623E+03</rscale>
<asrwt>0</asrwt>
<pdfrwt beam="1">  1        1 0.38114909E+00 0.64730623E+03</pdfrwt>
<pdfrwt beam="2">0</pdfrwt>
<totfact> 0.16227245E+00</totfact>
</mgrwt>
</event>
<event>
 6    1  0.2677832E-003  0.6487716E+03  0.7818608E-02  0.9809087E-01
          1   -1    0    0  502    0  0.00000000000E+00  0.00000000000E+00  0.10522622586E+03  0.10522622586E+03  0.00000000000E+00 0.  1.
         13   -1    0    0    0    0 -0.00000000000E+00 -0.00000000000E+00 -0.10000000000E+04  0.10000000000E+04  0.00000000000E+00 0.  1.
    9000005    2    1    2  501    0  0.92960884615E-04 -0.77182998098E-04 -0.89477376434E+03  0.11052261046E+04  0.64877164937E+03 0.  0.
         13    1    3    3    0    0  0.31597784091E+03 -0.63151291143E+02 -0.38373378735E+03  0.50108053352E+03  0.00000000000E+00 0.  1.
          3    1    3    3  501    0 -0.31597774795E+03  0.63151213960E+02 -0.51103997698E+03  0.60414557112E+03  0.00000000000E+00 0.  1.
         21    1    1    2  502  501 -0.92960884594E-04  0.77182998100E-04 -0.98024640751E-05  0.12122305706E-03  0.00000000000E+00 0. -1.
<mgrwt>
<rscale>  1 0.64877165E+03</rscale>
<asrwt>0</asrwt>
<pdfrwt beam="1">  1        1 0.38264163E+00 0.64877165E+03</pdfrwt>
<pdfrwt beam="2">0</pdfrwt>
<totfact> 0.15978501E+00</totfact>
</mgrwt>
</event>
<event>
 6    1  0.2677832E-003  0.6495808E+03  0.7818608E-02  0.9807566E-01
          1   -1    0    0  502    0  0.00000000000E+00  0.00000000000E+00  0.10550362336E+03  0.10550362336E+03  0.00000000000E+00 0.  1.
         13   -1    0    0    0    0 -0.00000000000E+00 -0.00000000000E+00 -0.10000000000E+04  0.10000000000E+04  0.00000000000E+00 0.  1.
    9000005    2    1    2  501    0 -0.13475560067E-01 -0.18806061613E-01 -0.89450046276E+03  0.11054801296E+04  0.64958081762E+03 0.  0.
         13    1    3    3    0    0  0.27758618298E+03 -0.16862220239E+03 -0.44582120982E+03  0.55158325504E+03  0.00000000000E+00 0.  1.
          1    1    3    3  501    0 -0.27759965854E+03  0.16860339632E+03 -0.44867925294E+03  0.55389687460E+03  0.00000000000E+00 0.  1.
         21    1    1    2  502  501  0.13475560067E-01  0.18806061613E-01  0.40861223429E-02  0.23493724019E-01  0.00000000000E+00 0. -1.
<mgrwt>
<rscale>  1 0.64958082E+03</rscale>
<asrwt>0</asrwt>
<pdfrwt beam="1">  1        1 0.38365035E+00 0.64958082E+03</pdfrwt>
<pdfrwt beam="2">0</pdfrwt>
<totfact> 0.15812976E+00</totfact>
</mgrwt>
</event>
<event>
 6    1  0.2677832E-003  0.6298539E+03  0.7818608E-02  0.9845334E-01
          1   -1    0    0  502    0  0.00000000000E+00  0.00000000000E+00  0.99179447873E+02  0.99179447873E+02  0.00000000000E+00 0.  1.
         13   -1    0    0    0    0 -0.00000000000E+00 -0.00000000000E+00 -0.10000000000E+04  0.10000000000E+04  0.00000000000E+00 0.  1.
    9000005    2    1    2  501    0  0.48615663189E-04  0.92864832223E-03 -0.90082041441E+03  0.10991785078E+04  0.62985392990E+03 0.  0.
         13    1    3    3    0    0 -0.20608518523E+03  0.23769835744E+03 -0.47555460211E+03  0.57019627524E+03  0.00000000000E+00 0.  1.
          1    1    3    3  501    0  0.20608523385E+03 -0.23769742880E+03 -0.42526581230E+03  0.52898223257E+03  0.00000000000E+00 0.  1.
         21    1    1    2  502  501 -0.48615663191E-04 -0.92864832223E-03 -0.13771430402E-03  0.94006192276E-03  0.00000000000E+00 0. -1.
<mgrwt>
<rscale>  1 0.62985393E+03</rscale>
<asrwt>0</asrwt>
<pdfrwt beam="1">  1        1 0.36065330E+00 0.62985393E+03</pdfrwt>
<pdfrwt beam="2">0</pdfrwt>
<totfact> 0.20030122E+00</totfact>
</mgrwt>
</event>
<event>
 6    1  0.2677832E-003  0.6489565E+03  0.7818608E-02  0.9808739E-01
          1   -1    0    0  502    0  0.00000000000E+00  0.00000000000E+00  0.10590633312E+03  0.10590633312E+03  0.00000000000E+00 0.  1.
         13   -1    0    0    0    0 -0.00000000000E+00 -0.00000000000E+00 -0.10000000000E+04  0.10000000000E+04  0.00000000000E+00 0.  1.
    9000005    2    1    2  501    0  0.25829281376E+00 -0.40483063131E+00 -0.89460945457E+03  0.11052016063E+04  0.64895630335E+03 0.  0.
         13    1    3    3    0    0  0.99775177855E+02  0.22623291304E+03 -0.80473824126E+03  0.84186700494E+03  0.00000000000E+00 0.  1.
          1    1    3    3  501    0 -0.99516885041E+02 -0.22663774368E+03 -0.89871213313E+02  0.26333460131E+03  0.00000000000E+00 0.  1.
         21    1    1    2  502  501 -0.25829281376E+00  0.40483063131E+00  0.51578769126E+00  0.70472686918E+00  0.00000000000E+00 0.  1.
<mgrwt>
<rscale>  1 0.64895648E+03</rscale>
<asrwt>0</asrwt>
<pdfrwt beam="1">  1        1 0.38511475E+00 0.64895648E+03</pdfrwt>
<pdfrwt beam="2">0</pdfrwt>
<totfact> 0.15580754E+00</totfact>
</mgrwt>
</event>
<event>
 6    1  0.2677832E-003  0.6556447E+03  0.7818608E-02  0.9796245E-01
          1   -1    0    0  502    0  0.00000000000E+00  0.00000000000E+00  0.10824637840E+03  0.10824637840E+03  0.00000000000E+00 0.  1.
         13   -1    0    0    0    0 -0.00000000000E+00 -0.00000000000E+00 -0.10000000000E+04  0.10000000000E+04  0.00000000000E+00 0.  1.
    9000005    2    1    2  501    0  0.16838963675E-01  0.55576006665E-02 -0.89253240795E+03  0.11074673902E+04  0.65564466048E+03 0.  0.
         13    1    3    3    0    0  0.19732504931E+03 -0.25964663822E+03 -0.38984697808E+03  0.50826589315E+03  0.00000000000E+00 0.  1.
          3    1    3    3  501    0 -0.19730821035E+03  0.25965219582E+03 -0.50268542987E+03  0.59920149705E+03  0.00000000000E+00 0.  1.
         21    1    1    2  502  501 -0.16838963675E-01 -0.55576006665E-02  0.77878634856E+00  0.77898819909E+00  0.00000000000E+00 0.  1.
<mgrwt>
<rscale>  1 0.65564466E+03</rscale>
<asrwt>0</asrwt>
<pdfrwt beam="1">  1        1 0.39362402E+00 0.65564466E+03</pdfrwt>
<pdfrwt beam="2">0</pdfrwt>
<totfact> 0.14266807E+00</totfact>
</mgrwt>
</event>
<event>
 6    1  0.2677832E-003  0.7324407E+03  0.7818608E-02  0.9663308E-01
          1   -1    0    0  502    0  0.00000000000E+00  0.00000000000E+00  0.13413891046E+03  0.13413891046E+03  0.00000000000E+00 0.  1.
         13   -1    0    0    0    0 -0.00000000000E+00 -0.00000000000E+00 -0.10000000000E+04  0.10000000000E+04  0.00000000000E+00 0.  1.
    9000005    2    1    2  501    0  0.73772724852E-03  0.13331085761E-02 -0.86588262017E+03  0.11341173260E+04  0.73244071240E+03 0.  0.
         13    1    3    3    0    0  0.19599818783E+03  0.27261372768E+03 -0.65937176337E+03  0.73993557590E+03  0.00000000000E+00 0.  1.
          3    1    3    3  501    0 -0.19599745010E+03 -0.27261239458E+03 -0.20651085680E+03  0.39418175008E+03  0.00000000000E+00 0.  1.
         21    1    1    2  502  501 -0.73772724853E-03 -0.13331085761E-02  0.21530630072E-01  0.21584472458E-01  0.00000000000E+00 0. -1.
<mgrwt>
<rscale>  1 0.73244071E+03</rscale>
<asrwt>0</asrwt>
<pdfrwt beam="1">  1        1 0.48777888E+00 0.73244071E+03</pdfrwt>
<pdfrwt beam="2">0</pdfrwt>
<totfact> 0.51987931E-01</totfact>
</mgrwt>
</event>
<event>
 6    1  0.2677832E-003  0.6467099E+03  0.7818608E-02  0.9812973E-01
          1   -1    0    0  502    0  0.00000000000E+00  0.00000000000E+00  0.10455845470E+03  0.10455845470E+03  0.00000000000E+00 0.  1.
         13   -1    0    0    0    0 -0.00000000000E+00 -0.00000000000E+00 -0.10000000000E+04  0.10000000000E+04  0.00000000000E+00 0.  1.
    9000005    2    1    2  501    0  0.31772515001E-05 -0.11439912669E-04 -0.89544158580E+03  0.11045584125E+04  0.64670986774E+03 0.  0.
         13    1    3    3    0    0  0.13635197534E+03 -0.28823350364E+03 -0.35593446475E+03  0.47787002103E+03  0.00000000000E+00 0.  1.
          3    1    3    3  501    0 -0.13635197216E+03  0.28823349220E+03 -0.53950712105E+03  0.62668839147E+03  0.00000000000E+00 0.  1.
         21    1    1    2  502  501 -0.31772515000E-05  0.11439912653E-04  0.40495367895E-04  0.42200015990E-04  0.00000000000E+00 0.  1.
<mgrwt>
<rscale>  1 0.64670987E+03</rscale>
<asrwt>0</asrwt>
<pdfrwt beam="1">  1        1 0.38021336E+00 0.64670987E+03</pdfrwt>
<pdfrwt beam="2">0</pdfrwt>
<totfact> 0.16384094E+00</totfact>
</mgrwt>
</event>
<event>
 6    1  0.2677832E-003  0.6459686E+03  0.7818608E-02  0.9814373E-01
          1   -1    0    0  502    0  0.00000000000E+00  0.00000000000E+00  0.10507707311E+03  0.10507707311E+03  0.00000000000E+00 0.  1.
         13   -1    0    0    0    0 -0.00000000000E+00 -0.00000000000E+00 -0.10000000000E+04  0.10000000000E+04  0.00000000000E+00 0.  1.
    9000005    2    1    2  501    0 -0.59651633292E-02  0.11280818630E-01 -0.89568108715E+03  0.11043188055E+04  0.64596858597E+03 0.  0.
         13    1    3    3    0    0 -0.26722765488E+02  0.25412471361E+03 -0.11011406694E+03  0.27824195227E+03  0.00000000000E+00 0.  1.
          1    1    3    3  501    0  0.26716800324E+02 -0.25411343279E+03 -0.78556702021E+03  0.82607685320E+03  0.00000000000E+00 0.  1.
         21    1    1    2  502  501  0.59651633292E-02 -0.11280818630E-01  0.75816025731E+00  0.75826764128E+00  0.00000000000E+00 0.  1.
<mgrwt>
<rscale>  1 0.64596859E+03</rscale>
<asrwt>0</asrwt>
<pdfrwt beam="1">  1        1 0.38209925E+00 0.64596859E+03</pdfrwt>
<pdfrwt beam="2">0</pdfrwt>
<totfact> 0.16075198E+00</totfact>
</mgrwt>
</event>
<event>
 6    1  0.2677832E-003  0.6344228E+03  0.7818608E-02  0.9836456E-01
          1   -1    0    0  502    0  0.00000000000E+00  0.00000000000E+00  0.10062311833E+03  0.10062311833E+03  0.00000000000E+00 0.  1.
         13   -1    0    0    0    0 -0.00000000000E+00 -0.00000000000E+00 -0.10000000000E+04  0.10000000000E+04  0.00000000000E+00 0.  1.
    9000005    2    1    2  501    0  0.57691810440E-06 -0.10916658226E-04 -0.89937691205E+03  0.11006230860E+04  0.63442284606E+03 0.  0.
         13    1    3    3    0    0 -0.42822337757E+02 -0.13895865547E+03  0.39400954847E+02  0.15065090701E+03  0.00000000000E+00 0.  1.
          3    1    3    3  501    0  0.42822338334E+02  0.13895864455E+03 -0.93877786690E+03  0.94997217903E+03  0.00000000000E+00 0.  1.
         21    1    1    2  502  501 -0.57691810843E-06  0.10916658234E-04  0.30383166013E-04  0.32289983563E-04  0.00000000000E+00 0.  1.
<mgrwt>
<rscale>  1 0.63442285E+03</rscale>
<asrwt>0</asrwt>
<pdfrwt beam="1">  1        1 0.36590302E+00 0.63442285E+03</pdfrwt>
<pdfrwt beam="2">0</pdfrwt>
<totfact> 0.18981674E+00</totfact>
</mgrwt>
</event>
<event>
 6    1  0.2677832E-003  0.6573042E+03  0.7818608E-02  0.9793169E-01
          1   -1    0    0  502    0  0.00000000000E+00  0.00000000000E+00  0.10804064139E+03  0.10804064139E+03  0.00000000000E+00 0.  1.
         13   -1    0    0    0    0 -0.00000000000E+00 -0.00000000000E+00 -0.10000000000E+04  0.10000000000E+04  0.00000000000E+00 0.  1.
    9000005    2    1    2  501    0 -0.13451853921E-02  0.10746413871E-02 -0.89198775568E+03  0.11080121922E+04  0.65730423832E+03 0.  0.
         13    1    3    3    0    0 -0.10388206026E+03 -0.28761789658E+03 -0.24303382254E+03  0.39061614889E+03  0.00000000000E+00 0.  1.
          1    1    3    3  501    0  0.10388071508E+03  0.28761897122E+03 -0.64895393314E+03  0.71739604328E+03  0.00000000000E+00 0.  1.
         21    1    1    2  502  501  0.13451853921E-02 -0.10746413871E-02  0.28397071542E-01  0.28449218794E-01  0.00000000000E+00 0.  1.
<mgrwt>
<rscale>  1 0.65730424E+03</rscale>
<asrwt>0</asrwt>
<pdfrwt beam="1">  1        1 0.39287589E+00 0.65730424E+03</pdfrwt>
<pdfrwt beam="2">0</pdfrwt>
<totfact> 0.14371963E+00</totfact>
</mgrwt>
</event>
<event>
 6    1  0.2677832E-003  0.6210950E+03  0.7818608E-02  0.9862582E-01
          1   -1    0    0  502    0  0.00000000000E+00  0.00000000000E+00  0.96799613103E+02  0.96799613103E+02  0.00000000000E+00 0.  1.
         13   -1    0    0    0    0 -0.00000000000E+00 -0.00000000000E+00 -0.10000000000E+04  0.10000000000E+04  0.00000000000E+00 0.  1.
    9000005    2    1    2  501    0 -0.35389423263E+00  0.13482550842E+00 -0.90344793365E+03  0.10963471770E+04  0.62109485609E+03 0.  0.
         13    1    3    3    0    0 -0.99624745806E+01 -0.24016040699E+03 -0.10469735460E+03  0.26217896187E+03  0.00000000000E+00 0.  1.
          1    1    3    3  501    0  0.96085803479E+01  0.24029523250E+03 -0.79875057905E+03  0.83416821512E+03  0.00000000000E+00 0.  1.
         21    1    1    2  502  501  0.35389423263E+00 -0.13482550842E+00  0.24754675058E+00  0.45243611630E+00  0.00000000000E+00 0.  1.
<mgrwt>
<rscale>  1 0.62109497E+03</rscale>
<asrwt>0</asrwt>
<pdfrwt beam="1">  1        1 0.35199934E+00 0.62109497E+03</pdfrwt>
<pdfrwt beam="2">0</pdfrwt>
<totfact> 0.21885811E+00</totfact>
</mgrwt>
</event>
<event>
 6    1  0.2677832E-003  0.6445811E+03  0.7818608E-02  0.9817001E-01
          1   -1    0    0  502    0  0.00000000000E+00  0.00000000000E+00  0.10566884178E+03  0.10566884178E+03  0.00000000000E+00 0.  1.
         13   -1    0    0    0    0 -0.00000000000E+00 -0.00000000000E+00 -0.10000000000E+04  0.10000000000E+04  0.00000000000E+00 0.  1.
    9000005    2    1    2  501    0 -0.65327145034E+00  0.14025676254E+00 -0.89606000620E+03  0.11038153718E+04  0.64458078929E+03 0.  0.
         13    1    3    3    0    0  0.24270718995E+03 -0.39608441450E+01 -0.85270838042E+02  0.25728113837E+03  0.00000000000E+00 0.  1.
          1    1    3    3  501    0 -0.24336046140E+03  0.41011009075E+01 -0.81078916816E+03  0.84653423345E+03  0.00000000000E+00 0.  1.
         21    1    1    2  502  501  0.65327145034E+00 -0.14025676254E+00  0.17288479818E+01  0.18534699597E+01  0.00000000000E+00 0.  1.
<mgrwt>
<rscale>  1 0.64458114E+03</rscale>
<asrwt>0</asrwt>
<pdfrwt beam="1">  1        1 0.38425114E+00 0.64458114E+03</pdfrwt>
<pdfrwt beam="2">0</pdfrwt>
<totfact> 0.15731122E+00</totfact>
</mgrwt>
</event>
<event>
 6    1  0.2677832E-003  0.6485537E+03  0.7818608E-02  0.9809497E-01
          1   -1    0    0  502    0  0.00000000000E+00  0.00000000000E+00  0.11041862797E+03  0.11041862797E+03  0.00000000000E+00 0.  1.
         13   -1    0    0    0    0 -0.00000000000E+00 -0.00000000000E+00 -0.10000000000E+04  0.10000000000E+04  0.00000000000E+00 0.  1.
    9000005    2    1    2  501    0 -0.41231997889E+01  0.11379709640E+02 -0.88558657455E+03  0.10976727669E+04  0.64844076334E+03 0.  0.
         13    1    3    3    0    0 -0.17381628391E+03  0.13636635968E+03 -0.37865780600E+02  0.22414660815E+03  0.00000000000E+00 0.  1.
          3    1    3    3  501    0  0.16969308413E+03 -0.12498665004E+03 -0.84772079395E+03  0.87352615873E+03  0.00000000000E+00 0.  1.
         21    1    1    2  502  501  0.41231997889E+01 -0.11379709640E+02 -0.39947974769E+01  0.12745861088E+02  0.00000000000E+00 0. -1.
<mgrwt>
<rscale>  1 0.64855372E+03</rscale>
<asrwt>0</asrwt>
<pdfrwt beam="1">  1        1 0.40152313E+00 0.64855372E+03</pdfrwt>
<pdfrwt beam="2">0</pdfrwt>
<totfact> 0.13174771E+00</totfact>
</mgrwt>
</event>
<event>
 6    1  0.2677832E-003  0.6458697E+03  0.7818608E-02  0.9814560E-01
          1   -1    0    0  502    0  0.00000000000E+00  0.00000000000E+00  0.10436920704E+03  0.10436920704E+03  0.00000000000E+00 0.  1.
         13   -1    0    0    0    0 -0.00000000000E+00 -0.00000000000E+00 -0.10000000000E+04  0.10000000000E+04  0.00000000000E+00 0.  1.
    9000005    2    1    2  501    0  0.43537719637E-03  0.23908702157E-02 -0.89571307695E+03  0.11042868872E+04  0.64586965631E+03 0.  0.
         13    1    3    3    0    0 -0.14408564518E+03  0.50737750043E+02  0.38607376760E+02  0.15756116897E+03  0.00000000000E+00 0.  1.
          3    1    3    3  501    0  0.14408608055E+03 -0.50735359172E+02 -0.93432045371E+03  0.94672571820E+03  0.00000000000E+00 0.  1.
         21    1    1    2  502  501 -0.43537719637E-03 -0.23908702157E-02  0.82283995131E-01  0.82319874080E-01  0.00000000000E+00 0. -1.
<mgrwt>
<rscale>  1 0.64586966E+03</rscale>
<asrwt>0</asrwt>
<pdfrwt beam="1">  1        1 0.37952519E+00 0.64586966E+03</pdfrwt>
<pdfrwt beam="2">0</pdfrwt>
<totfact> 0.16501586E+00</totfact>
</mgrwt>
</event>
<event>
 6    1  0.2677832E-003  0.6554994E+03  0.7818608E-02  0.9796514E-01
          1   -1    0    0  502    0  0.00000000000E+00  0.00000000000E+00  0.10855227484E+03  0.10855227484E+03  0.00000000000E+00 0.  1.
         13   -1    0    0    0    0 -0.00000000000E+00 -0.00000000000E+00 -0.10000000000E+04  0.10000000000E+04  0.00000000000E+00 0.  1.
    9000005    2    1    2  501    0 -0.91236161961E+00 -0.11355702874E+01 -0.89203595936E+03  0.11069813060E+04  0.65549777814E+03 0.  0.
         13    1    3    3    0    0 -0.19950055083E+03  0.25209545138E+03 -0.55209720602E+03  0.63887707055E+03  0.00000000000E+00 0.  1.
          1    1    3    3  501    0  0.19858818921E+03 -0.25323102167E+03 -0.33993875334E+03  0.46810423546E+03  0.00000000000E+00 0.  1.
         21    1    1    2  502  501  0.91236161961E+00  0.11355702874E+01  0.58823419872E+00  0.15709688333E+01  0.00000000000E+00 0.  1.
<mgrwt>
<rscale>  1 0.65549940E+03</rscale>
<asrwt>0</asrwt>
<pdfrwt beam="1">  1        1 0.39473638E+00 0.65549940E+03</pdfrwt>
<pdfrwt beam="2">0</pdfrwt>
<totfact> 0.14105707E+00</totfact>
</mgrwt>
</event>
<event>
 6    1  0.2677832E-003  0.6493019E+03  0.7818608E-02  0.9808090E-01
          1   -1    0    0  502    0  0.00000000000E+00  0.00000000000E+00  0.10540145035E+03  0.10540145035E+03  0.00000000000E+00 0.  1.
         13   -1    0    0    0    0 -0.00000000000E+00 -0.00000000000E+00 -0.10000000000E+04  0.10000000000E+04  0.00000000000E+00 0.  1.
    9000005    2    1    2  501    0 -0.27799973509E-03 -0.97178641016E-03 -0.89460167682E+03  0.11053981639E+04  0.64930188706E+03 0.  0.
         13    1    3    3    0    0  0.28466903046E+03 -0.15036112353E+03 -0.37601406586E+03  0.49500656773E+03  0.00000000000E+00 0.  1.
          1    1    3    3  501    0 -0.28466930846E+03  0.15036015174E+03 -0.51858761096E+03  0.61039159615E+03  0.00000000000E+00 0.  1.
         21    1    1    2  502  501  0.27799973511E-03  0.97178641016E-03  0.31271745043E-02  0.32864681742E-02  0.00000000000E+00 0.  1.
<mgrwt>
<rscale>  1 0.64930189E+03</rscale>
<asrwt>0</asrwt>
<pdfrwt beam="1">  1        1 0.38327881E+00 0.64930189E+03</pdfrwt>
<pdfrwt beam="2">0</pdfrwt>
<totfact> 0.15873696E+00</totfact>
</mgrwt>
</event>
<event>
 6    1  0.2677832E-003  0.6498534E+03  0.7818608E-02  0.9807054E-01
          1   -1    0    0  502    0  0.00000000000E+00  0.00000000000E+00  0.11182971934E+03  0.11182971934E+03  0.00000000000E+00 0.  1.
         13   -1    0    0    0    0 -0.00000000000E+00 -0.00000000000E+00 -0.10000000000E+04  0.10000000000E+04  0.00000000000E+00 0.  1.
    9000005    2    1    2  501    0 -0.37860224260E+00 -0.93222294245E+00 -0.89437785712E+03  0.11055411277E+04  0.64985261511E+03 0.  0.
         13    1    3    3    0    0  0.26982224729E+03  0.16687437079E+03 -0.56287620912E+03  0.64612748553E+03  0.00000000000E+00 0.  1.
          3    1    3    3  501    0 -0.27020084953E+03 -0.16780659374E+03 -0.33150164800E+03  0.45941364217E+03  0.00000000000E+00 0.  1.
         21    1    1    2  502  501  0.37860224260E+00  0.93222294245E+00  0.62075764633E+01  0.62885916405E+01  0.00000000000E+00 0. -1.
<mgrwt>
<rscale>  1 0.64985339E+03</rscale>
<asrwt>0</asrwt>
<pdfrwt beam="1">  1        1 0.40665438E+00 0.64985339E+03</pdfrwt>
<pdfrwt beam="2">0</pdfrwt>
<totfact> 0.12494305E+00</totfact>
</mgrwt>
</event>
<event>
 6    1  0.2677832E-003  0.6557395E+03  0.7818608E-02  0.9796069E-01
          1   -1    0    0  502    0  0.00000000000E+00  0.00000000000E+00  0.11977127318E+03  0.11977127318E+03  0.00000000000E+00 0.  1.
         13   -1    0    0    0    0 -0.00000000000E+00 -0.00000000000E+00 -0.10000000000E+04  0.10000000000E+04  0.00000000000E+00 0.  1.
    9000005    2    1    2  501    0  0.37476155757E-01  0.32723267713E+00 -0.89249896873E+03  0.11074966114E+04  0.65573945019E+03 0.  0.
         13    1    3    3    0    0  0.16756303930E+03  0.13600464098E+03 -0.86340257137E+03  0.88996552448E+03  0.00000000000E+00 0.  1.
          1    1    3    3  501    0 -0.16752556314E+03 -0.13567740830E+03 -0.29096397362E+02  0.21753108690E+03  0.00000000000E+00 0.  1.
         21    1    1    2  502  501 -0.37476155757E-01 -0.32723267713E+00  0.12270241911E+02  0.12274661797E+02  0.00000000000E+00 0.  1.
<mgrwt>
<rscale>  1 0.65573953E+03</rscale>
<asrwt>0</asrwt>
<pdfrwt beam="1">  1        1 0.43553282E+00 0.65573953E+03</pdfrwt>
<pdfrwt beam="2">0</pdfrwt>
<totfact> 0.92436255E-01</totfact>
</mgrwt>
</event>
<event>
 6    1  0.2677832E-003  0.6640705E+03  0.7818608E-02  0.9780729E-01
          1   -1    0    0  502    0  0.00000000000E+00  0.00000000000E+00  0.11030523390E+03  0.11030523390E+03  0.00000000000E+00 0.  1.
         13   -1    0    0    0    0 -0.00000000000E+00 -0.00000000000E+00 -0.10000000000E+04  0.10000000000E+04  0.00000000000E+00 0.  1.
    9000005    2    1    2  501    0  0.26785798569E-02  0.40130247409E-02 -0.88975248810E+03  0.11102473106E+04  0.66407047863E+03 0.  0.
         13    1    3    3    0    0  0.29712281426E+03  0.14659902642E+03 -0.48133767645E+03  0.58434510357E+03  0.00000000000E+00 0.  1.
          3    1    3    3  501    0 -0.29712013568E+03 -0.14659501340E+03 -0.40841481165E+03  0.52590220703E+03  0.00000000000E+00 0.  1.
         21    1    1    2  502  501 -0.26785798569E-02 -0.40130247409E-02  0.57722005303E-01  0.57923303201E-01  0.00000000000E+00 0. -1.
<mgrwt>
<rscale>  1 0.66407048E+03</rscale>
<asrwt>0</asrwt>
<pdfrwt beam="1">  1        1 0.40111079E+00 0.66407048E+03</pdfrwt>
<pdfrwt beam="2">0</pdfrwt>
<totfact> 0.13191912E+00</totfact>
</mgrwt>
</event>
<event>
 6    1  0.2677832E-003  0.6640763E+03  0.7818608E-02  0.9780719E-01
          1   -1    0    0  502    0  0.00000000000E+00  0.00000000000E+00  0.11026830849E+03  0.11026830849E+03  0.00000000000E+00 0.  1.
         13   -1    0    0    0    0 -0.00000000000E+00 -0.00000000000E+00 -0.10000000000E+04  0.10000000000E+04  0.00000000000E+00 0.  1.
    9000005    2    1    2  501    0  0.89718472168E-04 -0.44397160278E-03 -0.88975064903E+03  0.11102493456E+04  0.66407634491E+03 0.  0.
         13    1    3    3    0    0  0.94069488063E+02 -0.21462013285E+03 -0.83816881514E+03  0.87030904435E+03  0.00000000000E+00 0.  1.
          1    1    3    3  501    0 -0.94069398345E+02  0.21461968888E+03 -0.51581833894E+02  0.23994030121E+03  0.00000000000E+00 0.  1.
         21    1    1    2  502  501 -0.89718472171E-04  0.44397160278E-03  0.18957516594E-01  0.18962926874E-01  0.00000000000E+00 0. -1.
<mgrwt>
<rscale>  1 0.66407634E+03</rscale>
<asrwt>0</asrwt>
<pdfrwt beam="1">  1        1 0.40097651E+00 0.66407634E+03</pdfrwt>
<pdfrwt beam="2">0</pdfrwt>
<totfact> 0.13210109E+00</totfact>
</mgrwt>
</event>
<event>
 6    1  0.2677832E-003  0.6505296E+03  0.7818608E-02  0.9805786E-01
          1   -1    0    0  502    0  0.00000000000E+00  0.00000000000E+00  0.10809448449E+03  0.10809448449E+03  0.00000000000E+00 0.  1.
         13   -1    0    0    0    0 -0.00000000000E+00 -0.00000000000E+00 -0.10000000000E+04  0.10000000000E+04  0.00000000000E+00 0.  1.
    9000005    2    1    2  501    0  0.79789709876E+00 -0.29736471678E+01 -0.89300185790E+03  0.11048262764E+04  0.65052233141E+03 0.  0.
         13    1    3    3    0    0  0.23416891893E+03 -0.12203825965E+03 -0.77262852445E+03  0.81650673984E+03  0.00000000000E+00 0.  1.
          1    1    3    3  501    0 -0.23337102183E+03  0.11906461249E+03 -0.12037333345E+03  0.28831953659E+03  0.00000000000E+00 0.  1.
         21    1    1    2  502  501 -0.79789709876E+00  0.29736471678E+01  0.10963423873E+01  0.32682080547E+01  0.00000000000E+00 0. -1.
<mgrwt>
<rscale>  1 0.65052962E+03</rscale>
<asrwt>0</asrwt>
<pdfrwt beam="1">  1        1 0.39307168E+00 0.65052962E+03</pdfrwt>
<pdfrwt beam="2">0</pdfrwt>
<totfact> 0.14361371E+00</totfact>
</mgrwt>
</event>
<event>
 6    1  0.2677832E-003  0.6473691E+03  0.7818608E-02  0.9811728E-01
          1   -1    0    0  502    0  0.00000000000E+00  0.00000000000E+00  0.10484003401E+03  0.10484003401E+03  0.00000000000E+00 0.  1.
         13   -1    0    0    0    0 -0.00000000000E+00 -0.00000000000E+00 -0.10000000000E+04  0.10000000000E+04  0.00000000000E+00 0.  1.
    9000005    2    1    2  501    0  0.56179654339E-02 -0.39724211147E-02 -0.89522812219E+03  0.11047715314E+04  0.64736909546E+03 0.  0.
         13    1    3    3    0    0 -0.32340833676E+03  0.13020204967E+02 -0.45223347994E+03  0.55612732211E+03  0.00000000000E+00 0.  1.
          3    1    3    3  501    0  0.32341395472E+03 -0.13024177388E+02 -0.44299464225E+03  0.54864420928E+03  0.00000000000E+00 0.  1.
         21    1    1    2  502  501 -0.56179654339E-02  0.39724211147E-02  0.68156195600E-01  0.68502617934E-01  0.00000000000E+00 0.  1.
<mgrwt>
<rscale>  1 0.64736910E+03</rscale>
<asrwt>0</asrwt>
<pdfrwt beam="1">  1        1 0.38123729E+00 0.64736910E+03</pdfrwt>
<pdfrwt beam="2">0</pdfrwt>
<totfact> 0.16212514E+00</totfact>
</mgrwt>
</event>
<event>
 6    1  0.2677832E-003  0.6624501E+03  0.7818608E-02  0.9783694E-01
          1   -1    0    0  502    0  0.00000000000E+00  0.00000000000E+00  0.10971515848E+03  0.10971515848E+03  0.00000000000E+00 0.  1.
         13   -1    0    0    0    0 -0.00000000000E+00 -0.00000000000E+00 -0.10000000000E+04  0.10000000000E+04  0.00000000000E+00 0.  1.
    9000005    2    1    2  501    0 -0.89593726415E-03  0.48670544629E-02 -0.89028860252E+03  0.11097089427E+04  0.66245010505E+03 0.  0.
         13    1    3    3    0    0 -0.23146747815E+03 -0.19045685113E+03 -0.68120537188E+03  0.74423905048E+03  0.00000000000E+00 0.  1.
          3    1    3    3  501    0  0.23146658221E+03  0.19046171819E+03 -0.20908323064E+03  0.36546989221E+03  0.00000000000E+00 0.  1.
         21    1    1    2  502  501  0.89593726414E-03 -0.48670544629E-02  0.37610071053E-02  0.62157941707E-02  0.00000000000E+00 0. -1.
<mgrwt>
<rscale>  1 0.66245011E+03</rscale>
<asrwt>0</asrwt>
<pdfrwt beam="1">  1        1 0.39896505E+00 0.66245011E+03</pdfrwt>
<pdfrwt beam="2">0</pdfrwt>
<totfact> 0.13489882E+00</totfact>
</mgrwt>
</event>
<event>
 6    1  0.2677832E-003  0.6883141E+03  0.7818608E-02  0.9737428E-01
          1   -1    0    0  502    0  0.00000000000E+00  0.00000000000E+00  0.11844498026E+03  0.11844498026E+03  0.00000000000E+00 0.  1.
         13   -1    0    0    0    0 -0.00000000000E+00 -0.00000000000E+00 -0.10000000000E+04  0.10000000000E+04  0.00000000000E+00 0.  1.
    9000005    2    1    2  501    0 -0.52597755825E-04 -0.71001829247E-03 -0.88155577096E+03  0.11184439453E+04  0.68831408628E+03 0.  0.
         13    1    3    3    0    0  0.46614734075E+02  0.12478088811E+03 -0.95641459804E+03  0.96564594279E+03  0.00000000000E+00 0.  1.
          1    1    3    3  501    0 -0.46614786673E+02 -0.12478159813E+03  0.74858827084E+02  0.15279800247E+03  0.00000000000E+00 0.  1.
         21    1    1    2  502  501  0.52597755825E-04  0.71001829247E-03  0.75122491762E-03  0.10350030804E-02  0.00000000000E+00 0. -1.
<mgrwt>
<rscale>  1 0.68831409E+03</rscale>
<asrwt>0</asrwt>
<pdfrwt beam="1">  1        1 0.43070993E+00 0.68831409E+03</pdfrwt>
<pdfrwt beam="2">0</pdfrwt>
<totfact> 0.96608674E-01</totfact>
</mgrwt>
</event>
<event>
 6    1  0.2677832E-003  0.6541792E+03  0.7818608E-02  0.9798969E-01
          1   -1    0    0  502    0  0.00000000000E+00  0.00000000000E+00  0.10850431605E+03  0.10850431605E+03  0.00000000000E+00 0.  1.
         13   -1    0    0    0    0 -0.00000000000E+00 -0.00000000000E+00 -0.10000000000E+04  0.10000000000E+04  0.00000000000E+00 0.  1.
    9000005    2    1    2  501    0 -0.48129345457E-01  0.14992893770E+00 -0.89300788417E+03  0.11069839396E+04  0.65417913180E+03 0.  0.
         13    1    3    3    0    0 -0.15936357206E+03 -0.10265573248E+03 -0.89752369798E+03  0.91732422618E+03  0.00000000000E+00 0.  1.
          1    1    3    3  501    0  0.15931544272E+03  0.10280566142E+03  0.45158138048E+01  0.18965971339E+03  0.00000000000E+00 0.  1.
         21    1    1    2  502  501  0.48129345457E-01 -0.14992893770E+00  0.15122002223E+01  0.15203764772E+01  0.00000000000E+00 0. -1.
<mgrwt>
<rscale>  1 0.65417915E+03</rscale>
<asrwt>0</asrwt>
<pdfrwt beam="1">  1        1 0.39456198E+00 0.65417915E+03</pdfrwt>
<pdfrwt beam="2">0</pdfrwt>
<totfact> 0.14134400E+00</totfact>
</mgrwt>
</event>
<event>
 6    1  0.2677832E-003  0.6846722E+03  0.7818608E-02  0.9743810E-01
          1   -1    0    0  502    0  0.00000000000E+00  0.00000000000E+00  0.11775843949E+03  0.11775843949E+03  0.00000000000E+00 0.  1.
         13   -1    0    0    0    0 -0.00000000000E+00 -0.00000000000E+00 -0.10000000000E+04  0.10000000000E+04  0.00000000000E+00 0.  1.
    9000005    2    1    2  501    0  0.15043695781E-01  0.15349971331E-01 -0.88280577609E+03  0.11171938147E+04  0.68467217033E+03 0.  0.
         13    1    3    3    0    0  0.46250211959E+02  0.85095053575E+02 -0.97718720881E+03  0.98197509709E+03  0.00000000000E+00 0.  1.
          3    1    3    3  501    0 -0.46235168263E+02 -0.85079703604E+02  0.94381432714E+02  0.13521871761E+03  0.00000000000E+00 0.  1.
         21    1    1    2  502  501 -0.15043695781E-01 -0.15349971331E-01  0.56421558478E+00  0.56462479622E+00  0.00000000000E+00 0. -1.
<mgrwt>
<rscale>  1 0.68467217E+03</rscale>
<asrwt>0</asrwt>
<pdfrwt beam="1">  1        1 0.42821341E+00 0.68467217E+03</pdfrwt>
<pdfrwt beam="2">0</pdfrwt>
<totfact> 0.99234413E-01</totfact>
</mgrwt>
</event>
<event>
 6    1  0.2677832E-003  0.6245604E+03  0.7818608E-02  0.9855722E-01
          1   -1    0    0  502    0  0.00000000000E+00  0.00000000000E+00  0.97580157218E+02  0.97580157218E+02  0.00000000000E+00 0.  1.
         13   -1    0    0    0    0 -0.00000000000E+00 -0.00000000000E+00 -0.10000000000E+04  0.10000000000E+04  0.00000000000E+00 0.  1.
    9000005    2    1    2  501    0  0.41684439066E-03 -0.35594909769E-02 -0.90248100766E+03  0.10975188874E+04  0.62456043670E+03 0.  0.
         13    1    3    3    0    0 -0.17122228269E+03  0.37420500654E+02 -0.90542233050E+03  0.92222934270E+03  0.00000000000E+00 0.  1.
          1    1    3    3  501    0  0.17122269954E+03 -0.37424060145E+02  0.29413228468E+01  0.17528954474E+03  0.00000000000E+00 0.  1.
         21    1    1    2  502  501 -0.41684439067E-03  0.35594909769E-02  0.61164875770E-01  0.61269778547E-01  0.00000000000E+00 0. -1.
<mgrwt>
<rscale>  1 0.62456044E+03</rscale>
<asrwt>0</asrwt>
<pdfrwt beam="1">  1        1 0.35483768E+00 0.62456044E+03</pdfrwt>
<pdfrwt beam="2">0</pdfrwt>
<totfact> 0.21257392E+00</totfact>
</mgrwt>
</event>
<event>
 6    1  0.2677832E-003  0.6473103E+03  0.7818608E-02  0.9811839E-01
          1   -1    0    0  502    0  0.00000000000E+00  0.00000000000E+00  0.10801532408E+03  0.10801532408E+03  0.00000000000E+00 0.  1.
         13   -1    0    0    0    0 -0.00000000000E+00 -0.00000000000E+00 -0.10000000000E+04  0.10000000000E+04  0.00000000000E+00 0.  1.
    9000005    2    1    2  501    0 -0.59868592073E-01  0.13718634063E+00 -0.89524545001E+03  0.11047511164E+04  0.64731027409E+03 0.  0.
         13    1    3    3    0    0  0.75314292611E+02  0.28860529948E+03 -0.23301891874E+03  0.37850109386E+03  0.00000000000E+00 0.  1.
          3    1    3    3  501    0 -0.75374161203E+02 -0.28846811314E+03 -0.66222653127E+03  0.72625002251E+03  0.00000000000E+00 0.  1.
         21    1    1    2  502  501  0.59868592073E-01 -0.13718634063E+00  0.32607740878E+01  0.32642077128E+01  0.00000000000E+00 0. -1.
<mgrwt>
<rscale>  1 0.64731029E+03</rscale>
<asrwt>0</asrwt>
<pdfrwt beam="1">  1        1 0.39278382E+00 0.64731029E+03</pdfrwt>
<pdfrwt beam="2">0</pdfrwt>
<totfact> 0.14412420E+00</totfact>
</mgrwt>
</event>
<event>
 6    1  0.2677832E-003  0.6678245E+03  0.7818608E-02  0.9773896E-01
          1   -1    0    0  502    0  0.00000000000E+00  0.00000000000E+00  0.11149872367E+03  0.11149872367E+03  0.00000000000E+00 0.  1.
         13   -1    0    0    0    0 -0.00000000000E+00 -0.00000000000E+00 -0.10000000000E+04  0.10000000000E+04  0.00000000000E+00 0.  1.
    9000005    2    1    2  501    0  0.46562781908E-04  0.15993776455E-03 -0.88850258689E+03  0.11114974026E+04  0.66782454957E+03 0.  0.
         13    1    3    3    0    0 -0.31637656209E+02  0.13383944208E+02 -0.99705119556E+03  0.99764280072E+03  0.00000000000E+00 0.  1.
          3    1    3    3  501    0  0.31637702772E+02 -0.13383784270E+02  0.10854860867E+03  0.11385460185E+03  0.00000000000E+00 0.  1.
         21    1    1    2  502  501 -0.46562781906E-04 -0.15993776455E-03  0.13105610388E-02  0.13211049987E-02  0.00000000000E+00 0.  1.
<mgrwt>
<rscale>  1 0.66782455E+03</rscale>
<asrwt>0</asrwt>
<pdfrwt beam="1">  1        1 0.40545076E+00 0.66782455E+03</pdfrwt>
<pdfrwt beam="2">0</pdfrwt>
<totfact> 0.12606995E+00</totfact>
</mgrwt>
</event>
<event>
 6    1  0.2677832E-003  0.6522345E+03  0.7818608E-02  0.9802595E-01
          1   -1    0    0  502    0  0.00000000000E+00  0.00000000000E+00  0.10635731627E+03  0.10635731627E+03  0.00000000000E+00 0.  1.
         13   -1    0    0    0    0 -0.00000000000E+00 -0.00000000000E+00 -0.10000000000E+04  0.10000000000E+04  0.00000000000E+00 0.  1.
    9000005    2    1    2  501    0 -0.30685862012E-02  0.84638347633E-02 -0.89364236475E+03  0.11063483077E+04  0.65223454507E+03 0.  0.
         13    1    3    3    0    0  0.19296408128E+03  0.23380230073E+03 -0.65076309116E+03  0.71790755206E+03  0.00000000000E+00 0.  1.
          1    1    3    3  501    0 -0.19296714986E+03 -0.23379383690E+03 -0.24287927359E+03  0.38844075563E+03  0.00000000000E+00 0.  1.
         21    1    1    2  502  501  0.30685862012E-02 -0.84638347633E-02 -0.31897879376E-03  0.90085774485E-02  0.00000000000E+00 0. -1.
<mgrwt>
<rscale>  1 0.65223455E+03</rscale>
<asrwt>0</asrwt>
<pdfrwt beam="1">  1        1 0.38675469E+00 0.65223455E+03</pdfrwt>
<pdfrwt beam="2">0</pdfrwt>
<totfact> 0.15313273E+00</totfact>
</mgrwt>
</event>
<event>
 6    1  0.2677832E-003  0.6599484E+03  0.7818608E-02  0.9788289E-01
          1   -1    0    0  502    0  0.00000000000E+00  0.00000000000E+00  0.12072837019E+03  0.12072837019E+03  0.00000000000E+00 0.  1.
         13   -1    0    0    0    0 -0.00000000000E+00 -0.00000000000E+00 -0.10000000000E+04  0.10000000000E+04  0.00000000000E+00 0.  1.
    9000005    2    1    2  501    0 -0.39786660580E+00  0.61554668545E+00 -0.89110445682E+03  0.11088728655E+04  0.65994798413E+03 0.  0.
         13    1    3    3    0    0 -0.19904800154E+03  0.19281495983E+03 -0.14405980120E+03  0.31233146171E+03  0.00000000000E+00 0.  1.
          3    1    3    3  501    0  0.19865013493E+03 -0.19219941315E+03 -0.74704465562E+03  0.79654140383E+03  0.00000000000E+00 0.  1.
         21    1    1    2  502  501  0.39786660580E+00 -0.61554668545E+00  0.11832827011E+02  0.11855504655E+02  0.00000000000E+00 0.  1.
<mgrwt>
<rscale>  1 0.65994839E+03</rscale>
<asrwt>0</asrwt>
<pdfrwt beam="1">  1        1 0.43901318E+00 0.65994839E+03</pdfrwt>
<pdfrwt beam="2">0</pdfrwt>
<totfact> 0.89041102E-01</totfact>
</mgrwt>
</event>
<event>
 6    1  0.2677832E-003  0.6449527E+03  0.7818608E-02  0.9816296E-01
          1   -1    0    0  502    0  0.00000000000E+00  0.00000000000E+00  0.10449746747E+03  0.10449746747E+03  0.00000000000E+00 0.  1.
         13   -1    0    0    0    0 -0.00000000000E+00 -0.00000000000E+00 -0.10000000000E+04  0.10000000000E+04  0.00000000000E+00 0.  1.
    9000005    2    1    2  501    0 -0.76223657973E-01 -0.45801682984E-01 -0.89600469407E+03  0.11039874929E+04  0.64495268415E+03 0.  0.
         13    1    3    3    0    0 -0.10469282510E+03 -0.27679802174E+03 -0.22861137032E+03  0.37395306003E+03  0.00000000000E+00 0.  1.
          1    1    3    3  501    0  0.10461660144E+03  0.27675222006E+03 -0.66739332375E+03  0.73003443288E+03  0.00000000000E+00 0.  1.
         21    1    1    2  502  501  0.76223657973E-01  0.45801682984E-01  0.50216153538E+00  0.50997455605E+00  0.00000000000E+00 0. -1.
<mgrwt>
<rscale>  1 0.64495269E+03</rscale>
<asrwt>0</asrwt>
<pdfrwt beam="1">  1        1 0.37999159E+00 0.64495269E+03</pdfrwt>
<pdfrwt beam="2">0</pdfrwt>
<totfact> 0.16426361E+00</totfact>
</mgrwt>
</event>
<event>
 6    1  0.2677832E-003  0.6652091E+03  0.7818608E-02  0.9778652E-01
          1   -1    0    0  502    0  0.00000000000E+00  0.00000000000E+00  0.11071588086E+03  0.11071588086E+03  0.00000000000E+00 0.  1.
         13   -1    0    0    0    0 -0.00000000000E+00 -0.00000000000E+00 -0.10000000000E+04  0.10000000000E+04  0.00000000000E+00 0.  1.
    9000005    2    1    2  501    0 -0.17879111521E-01 -0.59114743209E-03 -0.88937323204E+03  0.11106249902E+04  0.66520908185E+03 0.  0.
         13    1    3    3    0    0  0.36231478783E+01  0.32733691007E+03 -0.54293594846E+03  0.63398897784E+03  0.00000000000E+00 0.  1.
          1    1    3    3  501    0 -0.36410269898E+01 -0.32733750122E+03 -0.34643728358E+03  0.47663601232E+03  0.00000000000E+00 0.  1.
         21    1    1    2  502  501  0.17879111521E-01  0.59114743209E-03  0.89112895579E-01  0.90890704929E-01  0.00000000000E+00 0. -1.
<mgrwt>
<rscale>  1 0.66520908E+03</rscale>
<asrwt>0</asrwt>
<pdfrwt beam="1">  1        1 0.40260405E+00 0.66520908E+03</pdfrwt>
<pdfrwt beam="2">0</pdfrwt>
<totfact> 0.12988201E+00</totfact>
</mgrwt>
</event>
<event>
 6    1  0.2677832E-003  0.6616947E+03  0.7818608E-02  0.9785079E-01
          1   -1    0    0  502    0  0.00000000000E+00  0.00000000000E+00  0.10946017178E+03  0.10946017178E+03  0.00000000000E+00 0.  1.
         13   -1    0    0    0    0 -0.00000000000E+00 -0.00000000000E+00 -0.10000000000E+04  0.10000000000E+04  0.00000000000E+00 0.  1.
    9000005    2    1    2  501    0  0.19422120193E-04  0.28822375498E-04 -0.89054001916E+03  0.11094599777E+04  0.66169473053E+03 0.  0.
         13    1    3    3    0    0 -0.87392004686E+01 -0.31000856859E+03 -0.25206206574E+03  0.39964605742E+03  0.00000000000E+00 0.  1.
          3    1    3    3  501    0  0.87392198907E+01  0.31000859742E+03 -0.63847795342E+03  0.70981392029E+03  0.00000000000E+00 0.  1.
         21    1    1    2  502  501 -0.19422120194E-04 -0.28822375546E-04  0.19093577980E-03  0.19407323384E-03  0.00000000000E+00 0.  1.
<mgrwt>
<rscale>  1 0.66169473E+03</rscale>
<asrwt>0</asrwt>
<pdfrwt beam="1">  1        1 0.39803783E+00 0.66169473E+03</pdfrwt>
<pdfrwt beam="2">0</pdfrwt>
<totfact> 0.13620741E+00</totfact>
</mgrwt>
</event>
<event>
 6    1  0.2677832E-003  0.6490712E+03  0.7818608E-02  0.9808524E-01
          1   -1    0    0  502    0  0.00000000000E+00  0.00000000000E+00  0.10532348508E+03  0.10532348508E+03  0.00000000000E+00 0.  1.
         13   -1    0    0    0    0 -0.00000000000E+00 -0.00000000000E+00 -0.10000000000E+04  0.10000000000E+04  0.00000000000E+00 0.  1.
    9000005    2    1    2  501    0 -0.77383630384E-04  0.26277863554E-03 -0.89467646512E+03  0.11053232067E+04  0.64907119327E+03 0.  0.
         13    1    3    3    0    0 -0.18683224022E+03  0.61644188155E+02 -0.78070160233E+01  0.19689398523E+03  0.00000000000E+00 0.  1.
          1    1    3    3  501    0  0.18683216284E+03 -0.61643925377E+02 -0.88686944910E+03  0.90842922143E+03  0.00000000000E+00 0.  1.
         21    1    1    2  502  501  0.77383630396E-04 -0.26277863555E-03 -0.49793873692E-04  0.27842461711E-03  0.00000000000E+00 0.  1.
<mgrwt>
<rscale>  1 0.64907119E+03</rscale>
<asrwt>0</asrwt>
<pdfrwt beam="1">  1        1 0.38299530E+00 0.64907119E+03</pdfrwt>
<pdfrwt beam="2">0</pdfrwt>
<totfact> 0.15920232E+00</totfact>
</mgrwt>
</event>
<event>
 6    1  0.2677832E-003  0.6718258E+03  0.7818608E-02  0.9766665E-01
          1   -1    0    0  502    0  0.00000000000E+00  0.00000000000E+00  0.11283970148E+03  0.11283970148E+03  0.00000000000E+00 0.  1.
         13   -1    0    0    0    0 -0.00000000000E+00 -0.00000000000E+00 -0.10000000000E+04  0.10000000000E+04  0.00000000000E+00 0.  1.
    9000005    2    1    2  501    0 -0.60386757782E-02  0.56007680623E-04 -0.88715598399E+03  0.11128322796E+04  0.67182582758E+03 0.  0.
         13    1    3    3    0    0  0.22659060235E+03 -0.22408569502E+02 -0.85265198184E+03  0.88253093272E+03  0.00000000000E+00 0.  1.
          1    1    3    3  501    0 -0.22659664102E+03  0.22408625510E+02 -0.34504002142E+02  0.23030134690E+03  0.00000000000E+00 0.  1.
         21    1    1    2  502  501  0.60386757782E-02 -0.56007680623E-04 -0.43145383073E-02  0.74218584478E-02  0.00000000000E+00 0.  1.
<mgrwt>
<rscale>  1 0.67182583E+03</rscale>
<asrwt>0</asrwt>
<pdfrwt beam="1">  1        1 0.41032705E+00 0.67182583E+03</pdfrwt>
<pdfrwt beam="2">0</pdfrwt>
<totfact> 0.11979474E+00</totfact>
</mgrwt>
</event>
<event>
 6    1  0.2677832E-003  0.6445819E+03  0.7818608E-02  0.9816999E-01
          1   -1    0    0  502    0  0.00000000000E+00  0.00000000000E+00  0.10387652700E+03  0.10387652700E+03  0.00000000000E+00 0.  1.
         13   -1    0    0    0    0 -0.00000000000E+00 -0.00000000000E+00 -0.10000000000E+04  0.10000000000E+04  0.00000000000E+00 0.  1.
    9000005    2    1    2  501    0 -0.82677279042E-04  0.53830787675E-03 -0.89612853967E+03  0.11038714311E+04  0.64458186206E+03 0.  0.
         13    1    3    3    0    0 -0.40811603121E+01  0.26859540273E+03 -0.75302846963E+03  0.79950736226E+03  0.00000000000E+00 0.  1.
          1    1    3    3  501    0  0.40810776349E+01 -0.26859486442E+03 -0.14310007004E+03  0.30436406889E+03  0.00000000000E+00 0.  1.
         21    1    1    2  502  501  0.82677279042E-04 -0.53830787677E-03  0.50666626308E-02  0.50958494009E-02  0.00000000000E+00 0.  1.
<mgrwt>
<rscale>  1 0.64458186E+03</rscale>
<asrwt>0</asrwt>
<pdfrwt beam="1">  1        1 0.37773362E+00 0.64458186E+03</pdfrwt>
<pdfrwt beam="2">0</pdfrwt>
<totfact> 0.16808460E+00</totfact>
</mgrwt>
</event>
<event>
 6    1  0.2677832E-003  0.6052590E+03  0.7818608E-02  0.9894555E-01
          1   -1    0    0  502    0  0.00000000000E+00  0.00000000000E+00  0.91661950049E+02  0.91661950049E+02  0.00000000000E+00 0.  1.
         13   -1    0    0    0    0 -0.00000000000E+00 -0.00000000000E+00 -0.10000000000E+04  0.10000000000E+04  0.00000000000E+00 0.  1.
    9000005    2    1    2  501    0  0.51814271696E-01 -0.13459349310E-02 -0.90840579424E+03  0.10915766516E+04  0.60525903275E+03 0.  0.
         13    1    3    3    0    0 -0.15431114712E+02 -0.76939110224E+02 -0.98131990472E+03  0.98445238655E+03  0.00000000000E+00 0.  1.
          3    1    3    3  501    0  0.15482928984E+02  0.76937764289E+02  0.72914110485E+02  0.10712426509E+03  0.00000000000E+00 0.  1.
         21    1    1    2  502  501 -0.51814271696E-01  0.13459349310E-02  0.67744283649E-01  0.85298407133E-01  0.00000000000E+00 0.  1.
<mgrwt>
<rscale>  1 0.60525903E+03</rscale>
<asrwt>0</asrwt>
<pdfrwt beam="1">  1        1 0.33331688E+00 0.60525903E+03</pdfrwt>
<pdfrwt beam="2">0</pdfrwt>
<totfact> 0.26460646E+00</totfact>
</mgrwt>
</event>
<event>
 6    1  0.2677832E-003  0.6537478E+03  0.7818608E-02  0.9799772E-01
          1   -1    0    0  502    0  0.00000000000E+00  0.00000000000E+00  0.10684656043E+03  0.10684656043E+03  0.00000000000E+00 0.  1.
         13   -1    0    0    0    0 -0.00000000000E+00 -0.00000000000E+00 -0.10000000000E+04  0.10000000000E+04  0.00000000000E+00 0.  1.
    9000005    2    1    2  501    0 -0.25475843586E-05  0.59499572842E-05 -0.89315343827E+03  0.11068465538E+04  0.65374783321E+03 0.  0.
         13    1    3    3    0    0 -0.28231166253E+03  0.37083319761E+01 -0.16769149050E+03  0.32838097160E+03  0.00000000000E+00 0.  1.
          1    1    3    3  501    0  0.28231165998E+03 -0.37083260262E+01 -0.72546194777E+03  0.77846558223E+03  0.00000000000E+00 0.  1.
         21    1    1    2  502  501  0.25475843743E-05 -0.59499572841E-05 -0.12998172917E-05  0.66016439482E-05  0.00000000000E+00 0.  1.
<mgrwt>
<rscale>  1 0.65374783E+03</rscale>
<asrwt>0</asrwt>
<pdfrwt beam="1">  1        1 0.38853377E+00 0.65374783E+03</pdfrwt>
<pdfrwt beam="2">0</pdfrwt>
<totfact> 0.15033717E+00</totfact>
</mgrwt>
</event>
<event>
 6    1  0.2677832E-003  0.6492631E+03  0.7818608E-02  0.9808163E-01
          1   -1    0    0  502    0  0.00000000000E+00  0.00000000000E+00  0.11230673641E+03  0.11230673641E+03  0.00000000000E+00 0.  1.
         13   -1    0    0    0    0 -0.00000000000E+00 -0.00000000000E+00 -0.10000000000E+04  0.10000000000E+04  0.00000000000E+00 0.  1.
    9000005    2    1    2  501    0  0.94575976472E-01 -0.18259238519E+00 -0.89461267989E+03  0.11053842653E+04  0.64926303193E+03 0.  0.
         13    1    3    3    0    0 -0.16031648588E+03 -0.34416612734E+02 -0.92426958369E+03  0.93870130617E+03  0.00000000000E+00 0.  1.
          3    1    3    3  501    0  0.16041106186E+03  0.34234020349E+02  0.29656903800E+02  0.16668295911E+03  0.00000000000E+00 0.  1.
         21    1    1    2  502  501 -0.94575976472E-01  0.18259238519E+00  0.69194163008E+01  0.69224711294E+01  0.00000000000E+00 0.  1.
<mgrwt>
<rscale>  1 0.64926306E+03</rscale>
<asrwt>0</asrwt>
<pdfrwt beam="1">  1        1 0.40838899E+00 0.64926306E+03</pdfrwt>
<pdfrwt beam="2">0</pdfrwt>
<totfact> 0.12274321E+00</totfact>
</mgrwt>
</event>
<event>
 6    1  0.2677832E-003  0.6432107E+03  0.7818608E-02  0.9819603E-01
          1   -1    0    0  502    0  0.00000000000E+00  0.00000000000E+00  0.10353131592E+03  0.10353131592E+03  0.00000000000E+00 0.  1.
         13   -1    0    0    0    0 -0.00000000000E+00 -0.00000000000E+00 -0.10000000000E+04  0.10000000000E+04  0.00000000000E+00 0.  1.
    9000005    2    1    2  501    0  0.49190634131E-02 -0.10335753488E-01 -0.89656965444E+03  0.11034296988E+04  0.64321066128E+03 0.  0.
         13    1    3    3    0    0 -0.29368167510E+03  0.69134427987E+02 -0.25725496909E+03  0.39649541554E+03  0.00000000000E+00 0.  1.
          3    1    3    3  501    0  0.29368659416E+03 -0.69144763741E+02 -0.63931468535E+03  0.70693428326E+03  0.00000000000E+00 0.  1.
         21    1    1    2  502  501 -0.49190634131E-02  0.10335753488E-01  0.10097036605E+00  0.10161712358E+00  0.00000000000E+00 0.  1.
<mgrwt>
<rscale>  1 0.64321066E+03</rscale>
<asrwt>0</asrwt>
<pdfrwt beam="1">  1        1 0.37647831E+00 0.64321066E+03</pdfrwt>
<pdfrwt beam="2">0</pdfrwt>
<totfact> 0.17028177E+00</totfact>
</mgrwt>
</event>
<event>
 6    1  0.2677832E-003  0.6513223E+03  0.7818608E-02  0.9804301E-01
          1   -1    0    0  502    0  0.00000000000E+00  0.00000000000E+00  0.10605525235E+03  0.10605525235E+03  0.00000000000E+00 0.  1.
         13   -1    0    0    0    0 -0.00000000000E+00 -0.00000000000E+00 -0.10000000000E+04  0.10000000000E+04  0.00000000000E+00 0.  1.
    9000005    2    1    2  501    0 -0.21627412195E-04  0.18974407247E-04 -0.89394479842E+03  0.11060551940E+04  0.65132233919E+03 0.  0.
         13    1    3    3    0    0 -0.93213319031E+02  0.55041332504E+02  0.74608511227E+02  0.13147129373E+03  0.00000000000E+00 0.  1.
          3    1    3    3  501    0  0.93213297404E+02 -0.55041313529E+02 -0.96855330965E+03  0.97458390026E+03  0.00000000000E+00 0.  1.
         21    1    1    2  502  501  0.21627412195E-04 -0.18974407247E-04  0.50769132769E-04  0.58354759281E-04  0.00000000000E+00 0. -1.
<mgrwt>
<rscale>  1 0.65132234E+03</rscale>
<asrwt>0</asrwt>
<pdfrwt beam="1">  1        1 0.38565628E+00 0.65132234E+03</pdfrwt>
<pdfrwt beam="2">0</pdfrwt>
<totfact> 0.15488267E+00</totfact>
</mgrwt>
</event>
<event>
 6    1  0.2677832E-003  0.6491243E+03  0.7818608E-02  0.9808424E-01
          1   -1    0    0  502    0  0.00000000000E+00  0.00000000000E+00  0.10534070005E+03  0.10534070005E+03  0.00000000000E+00 0.  1.
         13   -1    0    0    0    0 -0.00000000000E+00 -0.00000000000E+00 -0.10000000000E+04  0.10000000000E+04  0.00000000000E+00 0.  1.
    9000005    2    1    2  501    0  0.19271552225E-03 -0.28583658400E-03 -0.89465905678E+03  0.11053402782E+04  0.64912425829E+03 0.  0.
         13    1    3    3    0    0  0.17357979926E+03 -0.25875505786E+03 -0.29260221223E+03  0.42743441752E+03  0.00000000000E+00 0.  1.
          1    1    3    3  501    0 -0.17357960655E+03  0.25875477203E+03 -0.60205684455E+03  0.67790586066E+03  0.00000000000E+00 0.  1.
         21    1    1    2  502  501 -0.19271552224E-03  0.28583658402E-03 -0.24316402911E-03  0.42186558325E-03  0.00000000000E+00 0.  1.
<mgrwt>
<rscale>  1 0.64912426E+03</rscale>
<asrwt>0</asrwt>
<pdfrwt beam="1">  1        1 0.38305790E+00 0.64912426E+03</pdfrwt>
<pdfrwt beam="2">0</pdfrwt>
<totfact> 0.15909940E+00</totfact>
</mgrwt>
</event>
<event>
 6    1  0.2677832E-003  0.6488786E+03  0.7818608E-02  0.9808886E-01
          1   -1    0    0  502    0  0.00000000000E+00  0.00000000000E+00  0.10533231582E+03  0.10533231582E+03  0.00000000000E+00 0.  1.
         13   -1    0    0    0    0 -0.00000000000E+00 -0.00000000000E+00 -0.10000000000E+04  0.10000000000E+04  0.00000000000E+00 0.  1.
    9000005    2    1    2  501    0  0.79804522964E-01 -0.10620493044E+00 -0.89466320563E+03  0.11051993936E+04  0.64887859461E+03 0.  0.
         13    1    3    3    0    0 -0.80136201366E+02 -0.28210901772E+03 -0.68386370104E+03  0.74409466485E+03  0.00000000000E+00 0.  1.
          1    1    3    3  501    0  0.80216005889E+02  0.28200281279E+03 -0.21079950458E+03  0.36110472879E+03  0.00000000000E+00 0.  1.
         21    1    1    2  502  501 -0.79804522964E-01  0.10620493044E+00 -0.44785500241E-02  0.13292218230E+00  0.00000000000E+00 0. -1.
<mgrwt>
<rscale>  1 0.64887861E+03</rscale>
<asrwt>0</asrwt>
<pdfrwt beam="1">  1        1 0.38302741E+00 0.64887861E+03</pdfrwt>
<pdfrwt beam="2">0</pdfrwt>
<totfact> 0.15915596E+00</totfact>
</mgrwt>
</event>
<event>
 6    1  0.2677832E-003  0.6596369E+03  0.7818608E-02  0.9788862E-01
          1   -1    0    0  502    0  0.00000000000E+00  0.00000000000E+00  0.11173731083E+03  0.11173731083E+03  0.00000000000E+00 0.  1.
         13   -1    0    0    0    0 -0.00000000000E+00 -0.00000000000E+00 -0.10000000000E+04  0.10000000000E+04  0.00000000000E+00 0.  1.
    9000005    2    1    2  501    0  0.22930620888E+00 -0.16535115599E+00 -0.89121229150E+03  0.11087741915E+04  0.65963685408E+03 0.  0.
         13    1    3    3    0    0  0.14589106943E+02  0.17278526084E+03  0.25955324313E+02  0.17533187749E+03  0.00000000000E+00 0.  1.
          1    1    3    3  501    0 -0.14359800735E+02 -0.17295061199E+03 -0.91716761581E+03  0.93344231400E+03  0.00000000000E+00 0.  1.
         21    1    1    2  502  501 -0.22930620888E+00  0.16535115599E+00  0.29496023340E+01  0.29631193481E+01  0.00000000000E+00 0. -1.
<mgrwt>
<rscale>  1 0.65963691E+03</rscale>
<asrwt>0</asrwt>
<pdfrwt beam="1">  1        1 0.40631835E+00 0.65963691E+03</pdfrwt>
<pdfrwt beam="2">0</pdfrwt>
<totfact> 0.12514167E+00</totfact>
</mgrwt>
</event>
<event>
 6    1  0.2677832E-003  0.6331495E+03  0.7818608E-02  0.9838922E-01
          1   -1    0    0  502    0  0.00000000000E+00  0.00000000000E+00  0.10021960786E+03  0.10021960786E+03  0.00000000000E+00 0.  1.
         13   -1    0    0    0    0 -0.00000000000E+00 -0.00000000000E+00 -0.10000000000E+04  0.10000000000E+04  0.00000000000E+00 0.  1.
    9000005    2    1    2  501    0 -0.15728100777E-04  0.43084415040E-05 -0.89978041510E+03  0.11002195797E+04  0.63314953064E+03 0.  0.
         13    1    3    3    0    0 -0.14332695514E+03  0.25325800221E+03 -0.66649178762E+03  0.72725066842E+03  0.00000000000E+00 0.  1.
          3    1    3    3  501    0  0.14332693941E+03 -0.25325799791E+03 -0.23328862748E+03  0.37296891127E+03  0.00000000000E+00 0.  1.
         21    1    1    2  502  501  0.15728100766E-04 -0.43084415241E-05  0.22961745789E-04  0.28163408738E-04  0.00000000000E+00 0.  1.
<mgrwt>
<rscale>  1 0.63314953E+03</rscale>
<asrwt>0</asrwt>
<pdfrwt beam="1">  1        1 0.36443571E+00 0.63314953E+03</pdfrwt>
<pdfrwt beam="2">0</pdfrwt>
<totfact> 0.19269284E+00</totfact>
</mgrwt>
</event>
<event>
 6    1  0.2677832E-003  0.6507167E+03  0.7818608E-02  0.9805435E-01
          1   -1    0    0  502    0  0.00000000000E+00  0.00000000000E+00  0.10585830227E+03  0.10585830227E+03  0.00000000000E+00 0.  1.
         13   -1    0    0    0    0 -0.00000000000E+00 -0.00000000000E+00 -0.10000000000E+04  0.10000000000E+04  0.00000000000E+00 0.  1.
    9000005    2    1    2  501    0 -0.25422438512E-04  0.87888969347E-05 -0.89414195785E+03  0.11058580408E+04  0.65071665533E+03 0.  0.
         13    1    3    3    0    0 -0.25327870994E+03 -0.80744199186E+02 -0.76586246816E+03  0.81068801074E+03  0.00000000000E+00 0.  1.
          3    1    3    3  501    0  0.25327868451E+03  0.80744207975E+02 -0.12827948969E+03  0.29517003002E+03  0.00000000000E+00 0.  1.
         21    1    1    2  502  501  0.25422438495E-04 -0.87888969348E-05  0.26012269018E-03  0.26150976853E-03  0.00000000000E+00 0.  1.
<mgrwt>
<rscale>  1 0.65071666E+03</rscale>
<asrwt>0</asrwt>
<pdfrwt beam="1">  1        1 0.38494009E+00 0.65071666E+03</pdfrwt>
<pdfrwt beam="2">0</pdfrwt>
<totfact> 0.15603418E+00</totfact>
</mgrwt>
</event>
<event>
 6    1  0.2677832E-003  0.4827638E+03  0.7818608E-02  0.1018378E+00
          1   -1    0    0  502    0  0.00000000000E+00  0.00000000000E+00  0.58267505743E+02  0.58267505743E+02  0.00000000000E+00 0.  1.
         13   -1    0    0    0    0 -0.00000000000E+00 -0.00000000000E+00 -0.10000000000E+04  0.10000000000E+04  0.00000000000E+00 0.  1.
    9000005    2    1    2  501    0 -0.34694689791E-03  0.25542902657E-03 -0.94173476552E+03  0.10582651940E+04  0.48276376437E+03 0.  0.
         13    1    3    3    0    0  0.20048434536E+03 -0.72677975607E+02 -0.22296548438E+03  0.30852822901E+03  0.00000000000E+00 0.  1.
          3    1    3    3  501    0 -0.20048469231E+03  0.72678231036E+02 -0.71876928114E+03  0.74973696496E+03  0.00000000000E+00 0.  1.
         21    1    1    2  502  501  0.34694689790E-03 -0.25542902656E-03  0.22712666031E-02  0.23117673153E-02  0.00000000000E+00 0. -1.
<mgrwt>
<rscale>  1 0.48276376E+03</rscale>
<asrwt>0</asrwt>
<pdfrwt beam="1">  1        1 0.21188229E+00 0.48276376E+03</pdfrwt>
<pdfrwt beam="2">0</pdfrwt>
<totfact> 0.91139226E+00</totfact>
</mgrwt>
</event>
<event>
 6    1  0.2677832E-003  0.6558195E+03  0.7818608E-02  0.9795920E-01
          1   -1    0    0  502    0  0.00000000000E+00  0.00000000000E+00  0.10997117217E+03  0.10997117217E+03  0.00000000000E+00 0.  1.
         13   -1    0    0    0    0 -0.00000000000E+00 -0.00000000000E+00 -0.10000000000E+04  0.10000000000E+04  0.00000000000E+00 0.  1.
    9000005    2    1    2  501    0 -0.24694236721E+01  0.56983907500E+01 -0.88684295296E+03  0.11029912360E+04  0.65579011409E+03 0.  0.
         13    1    3    3    0    0  0.25097963701E+03  0.18686956585E+02 -0.90929328731E+02  0.26759694199E+03  0.00000000000E+00 0.  1.
          3    1    3    3  501    0 -0.25344906068E+03 -0.12988565835E+02 -0.79591362422E+03  0.83539429399E+03  0.00000000000E+00 0.  1.
         21    1    1    2  502  501  0.24694236721E+01 -0.56983907500E+01 -0.31858748787E+01  0.69799361856E+01  0.00000000000E+00 0.  1.
<mgrwt>
<rscale>  1 0.65581952E+03</rscale>
<asrwt>0</asrwt>
<pdfrwt beam="1">  1        1 0.39989601E+00 0.65581952E+03</pdfrwt>
<pdfrwt beam="2">0</pdfrwt>
<totfact> 0.13378250E+00</totfact>
</mgrwt>
</event>
<event>
 6    1  0.2677832E-003  0.6322513E+03  0.7818608E-02  0.9840665E-01
          1   -1    0    0  502    0  0.00000000000E+00  0.00000000000E+00  0.99940869193E+02  0.99940869193E+02  0.00000000000E+00 0.  1.
         13   -1    0    0    0    0 -0.00000000000E+00 -0.00000000000E+00 -0.10000000000E+04  0.10000000000E+04  0.00000000000E+00 0.  1.
    9000005    2    1    2  501    0 -0.84302941963E-03  0.13335497456E-02 -0.90006444410E+03  0.10999353266E+04  0.63225131017E+03 0.  0.
         13    1    3    3    0    0  0.92324359409E+02  0.30030406702E+03 -0.38903296105E+03  0.50005296199E+03  0.00000000000E+00 0.  1.
          1    1    3    3  501    0 -0.92325202439E+02 -0.30030273347E+03 -0.51103148304E+03  0.59988236463E+03  0.00000000000E+00 0.  1.
         21    1    1    2  502  501  0.84302941963E-03 -0.13335497456E-02  0.53132910372E-02  0.55425729740E-02  0.00000000000E+00 0.  1.
<mgrwt>
<rscale>  1 0.63225131E+03</rscale>
<asrwt>0</asrwt>
<pdfrwt beam="1">  1        1 0.36342211E+00 0.63225131E+03</pdfrwt>
<pdfrwt beam="2">0</pdfrwt>
<totfact> 0.19470460E+00</totfact>
</mgrwt>
</event>
<event>
 6    1  0.2677832E-003  0.6550345E+03  0.7818608E-02  0.9797378E-01
          1   -1    0    0  502    0  0.00000000000E+00  0.00000000000E+00  0.10731604244E+03  0.10731604244E+03  0.00000000000E+00 0.  1.
         13   -1    0    0    0    0 -0.00000000000E+00 -0.00000000000E+00 -0.10000000000E+04  0.10000000000E+04  0.00000000000E+00 0.  1.
    9000005    2    1    2  501    0 -0.56335051708E-03 -0.69334421798E-03 -0.89273243427E+03  0.11072675575E+04  0.65503453702E+03 0.  0.
         13    1    3    3    0    0  0.87627717656E+01  0.19789040506E+03 -0.88726447814E+03  0.90910706342E+03  0.00000000000E+00 0.  1.
          1    1    3    3  501    0 -0.87633351161E+01 -0.19789109840E+03 -0.54679561286E+01  0.19816049408E+03  0.00000000000E+00 0.  1.
         21    1    1    2  502  501  0.56335051708E-03  0.69334421800E-03  0.48476706904E-01  0.48484937890E-01  0.00000000000E+00 0.  1.
<mgrwt>
<rscale>  1 0.65503454E+03</rscale>
<asrwt>0</asrwt>
<pdfrwt beam="1">  1        1 0.39024098E+00 0.65503454E+03</pdfrwt>
<pdfrwt beam="2">0</pdfrwt>
<totfact> 0.14770464E+00</totfact>
</mgrwt>
</event>
<event>
 6    1  0.2677832E-003  0.6535726E+03  0.7818608E-02  0.9800098E-01
          1   -1    0    0  502    0  0.00000000000E+00  0.00000000000E+00  0.10678945907E+03  0.10678945907E+03  0.00000000000E+00 0.  1.
         13   -1    0    0    0    0 -0.00000000000E+00 -0.00000000000E+00 -0.10000000000E+04  0.10000000000E+04  0.00000000000E+00 0.  1.
    9000005    2    1    2  501    0  0.35627916532E-04  0.57108570672E-05 -0.89321071838E+03  0.11067892780E+04  0.65357258085E+03 0.  0.
         13    1    3    3    0    0  0.22773862417E+03  0.18400531554E+03 -0.69239685294E+03  0.75175543832E+03  0.00000000000E+00 0.  1.
          3    1    3    3  501    0 -0.22773858854E+03 -0.18400530983E+03 -0.20081386544E+03  0.35503383967E+03  0.00000000000E+00 0.  1.
         21    1    1    2  502  501 -0.35627916546E-04 -0.57108570876E-05  0.17745422395E-03  0.18108551550E-03  0.00000000000E+00 0. -1.
<mgrwt>
<rscale>  1 0.65357258E+03</rscale>
<asrwt>0</asrwt>
<pdfrwt beam="1">  1        1 0.38832612E+00 0.65357258E+03</pdfrwt>
<pdfrwt beam="2">0</pdfrwt>
<totfact> 0.15066089E+00</totfact>
</mgrwt>
</event>
<event>
 6    1  0.2677832E-003  0.6524514E+03  0.7818608E-02  0.9802190E-01
          1   -1    0    0  502    0  0.00000000000E+00  0.00000000000E+00  0.10645311986E+03  0.10645311986E+03  0.00000000000E+00 0.  1.
         13   -1    0    0    0    0 -0.00000000000E+00 -0.00000000000E+00 -0.10000000000E+04  0.10000000000E+04  0.00000000000E+00 0.  1.
    9000005    2    1    2  501    0  0.26500290537E-02 -0.31859667732E-01 -0.89356702997E+03  0.11064153300E+04  0.65245141145E+03 0.  0.
         13    1    3    3    0    0  0.32578111618E+03  0.11515548562E+02 -0.42548484945E+03  0.53600681025E+03  0.00000000000E+00 0.  1.
          3    1    3    3  501    0 -0.32577846615E+03 -0.11547408230E+02 -0.46808218051E+03  0.57040851971E+03  0.00000000000E+00 0.  1.
         21    1    1    2  502  501 -0.26500290537E-02  0.31859667732E-01  0.20149828473E-01  0.37789901686E-01  0.00000000000E+00 0. -1.
<mgrwt>
<rscale>  1 0.65245141E+03</rscale>
<asrwt>0</asrwt>
<pdfrwt beam="1">  1        1 0.38710307E+00 0.65245141E+03</pdfrwt>
<pdfrwt beam="2">0</pdfrwt>
<totfact> 0.15258369E+00</totfact>
</mgrwt>
</event>
<event>
 6    1  0.2677832E-003  0.6717543E+03  0.7818608E-02  0.9766794E-01
          1   -1    0    0  502    0  0.00000000000E+00  0.00000000000E+00  0.11295243755E+03  0.11295243755E+03  0.00000000000E+00 0.  1.
         13   -1    0    0    0    0 -0.00000000000E+00 -0.00000000000E+00 -0.10000000000E+04  0.10000000000E+04  0.00000000000E+00 0.  1.
    9000005    2    1    2  501    0  0.25312278706E-02  0.21060642300E-02 -0.88718652327E+03  0.11128134377E+04  0.67175428551E+03 0.  0.
         13    1    3    3    0    0  0.52283928713E+02 -0.31437273329E+03 -0.26789260234E+03  0.41632952216E+03  0.00000000000E+00 0.  1.
          3    1    3    3  501    0 -0.52281397486E+02  0.31437483935E+03 -0.61929392093E+03  0.69648391556E+03  0.00000000000E+00 0.  1.
         21    1    1    2  502  501 -0.25312278706E-02 -0.21060642301E-02  0.13896081738E+00  0.13899982514E+00  0.00000000000E+00 0.  1.
<mgrwt>
<rscale>  1 0.67175429E+03</rscale>
<asrwt>0</asrwt>
<pdfrwt beam="1">  1        1 0.41073700E+00 0.67175429E+03</pdfrwt>
<pdfrwt beam="2">0</pdfrwt>
<totfact> 0.11929000E+00</totfact>
</mgrwt>
</event>
<event>
 6    1  0.2677832E-003  0.6522335E+03  0.7818608E-02  0.9802597E-01
          1   -1    0    0  502    0  0.00000000000E+00  0.00000000000E+00  0.10934293576E+03  0.10934293576E+03  0.00000000000E+00 0.  1.
         13   -1    0    0    0    0 -0.00000000000E+00 -0.00000000000E+00 -0.10000000000E+04  0.10000000000E+04  0.00000000000E+00 0.  1.
    9000005    2    1    2  501    0  0.30007054684E+00 -0.28562851259E+00 -0.89363198879E+03  0.11063393043E+04  0.65223335793E+03 0.  0.
         13    1    3    3    0    0  0.94106826531E+02 -0.21888340823E+03 -0.68945382522E+02  0.24803126208E+03  0.00000000000E+00 0.  1.
          1    1    3    3  501    0 -0.93806755984E+02  0.21859777971E+03 -0.82468660627E+03  0.85830804221E+03  0.00000000000E+00 0.  1.
         21    1    1    2  502  501 -0.30007054684E+00  0.28562851259E+00  0.29749245425E+01  0.30036314710E+01  0.00000000000E+00 0. -1.
<mgrwt>
<rscale>  1 0.65223349E+03</rscale>
<asrwt>0</asrwt>
<pdfrwt beam="1">  1        1 0.39761151E+00 0.65223349E+03</pdfrwt>
<pdfrwt beam="2">0</pdfrwt>
<totfact> 0.13704734E+00</totfact>
</mgrwt>
</event>
<event>
 6    1  0.3160015E-003  0.6610121E+03  0.7818608E-02  0.9786332E-01
          3   -1    0    0  502    0  0.00000000000E+00  0.00000000000E+00  0.10923437773E+03  0.10923437773E+03  0.00000000000E+00 0.  1.
         13   -1    0    0    0    0 -0.00000000000E+00 -0.00000000000E+00 -0.10000000000E+04  0.10000000000E+04  0.00000000000E+00 0.  1.
    9000005    2    1    2  501    0  0.33831201974E-03  0.23952675710E-03 -0.89076520657E+03  0.11092337907E+04  0.66101206428E+03 0.  0.
         13    1    3    3    0    0  0.83930459255E+02  0.11204501473E+03 -0.94778853496E+03  0.95807176887E+03  0.00000000000E+00 0.  1.
          1    1    3    3  501    0 -0.83930120943E+02 -0.11204477520E+03  0.57023328389E+02  0.15116202179E+03  0.00000000000E+00 0.  1.
         21    1    1    2  502  501 -0.33831201973E-03 -0.23952675709E-03 -0.41570837538E-03  0.58706178842E-03  0.00000000000E+00 0. -1.
<mgrwt>
<rscale>  1 0.66101206E+03</rscale>
<asrwt>0</asrwt>
<pdfrwt beam="1">  1        3 0.39721676E+00 0.66101206E+03</pdfrwt>
<pdfrwt beam="2">0</pdfrwt>
<totfact> 0.61148374E-02</totfact>
</mgrwt>
</event>
<event>
 6    1  0.2677832E-003  0.6533452E+03  0.7818608E-02  0.9800522E-01
          1   -1    0    0  502    0  0.00000000000E+00  0.00000000000E+00  0.10712196585E+03  0.10712196585E+03  0.00000000000E+00 0.  1.
         13   -1    0    0    0    0 -0.00000000000E+00 -0.00000000000E+00 -0.10000000000E+04  0.10000000000E+04  0.00000000000E+00 0.  1.
    9000005    2    1    2  501    0  0.84633486177E+00  0.70177595747E+00 -0.89216645210E+03  0.11058123395E+04  0.65334427611E+03 0.  0.
         13    1    3    3    0    0  0.87237476465E+02  0.30876713258E+03 -0.55450242748E+03  0.64064066492E+03  0.00000000000E+00 0.  1.
          3    1    3    3  501    0 -0.86391141603E+02 -0.30806535662E+03 -0.33766402462E+03  0.46517167457E+03  0.00000000000E+00 0.  1.
         21    1    1    2  502  501 -0.84633486177E+00 -0.70177595746E+00 -0.71158204946E+00  0.13096263612E+01  0.00000000000E+00 0. -1.
<mgrwt>
<rscale>  1 0.65334520E+03</rscale>
<asrwt>0</asrwt>
<pdfrwt beam="1">  1        1 0.38953524E+00 0.65334520E+03</pdfrwt>
<pdfrwt beam="2">0</pdfrwt>
<totfact> 0.14881948E+00</totfact>
</mgrwt>
</event>
<event>
 6    1  0.2778249E-003  0.6399892E+03  0.7818608E-02  0.9825747E-01
          1   -1    0    0  502    0  0.00000000000E+00  0.00000000000E+00  0.10239655911E+03  0.10239655911E+03  0.00000000000E+00 0.  1.
         13   -1    0    0    0    0 -0.00000000000E+00 -0.00000000000E+00 -0.10000000000E+04  0.10000000000E+04  0.00000000000E+00 0.  1.
    9000005    2    1    2  501    0  0.39270945535E-05  0.40170565626E-04 -0.89760342631E+03  0.11023965162E+04  0.63998919365E+03 0.  0.
         13    1    3    3    0    0 -0.13473824524E+03  0.28937594150E+03 -0.41014181172E+03  0.51972024779E+03  0.00000000000E+00 0.  1.
          3    1    3    3  501    0  0.13473824917E+03 -0.28937590133E+03 -0.48746161459E+03  0.58267626840E+03  0.00000000000E+00 0.  1.
         21    1    1    2  502  501 -0.39270945393E-05 -0.40170565598E-04 -0.14586144528E-04  0.42916803518E-04  0.00000000000E+00 0.  1.
<mgrwt>
<rscale>  1 0.63998919E+03</rscale>
<asrwt>0</asrwt>
<pdfrwt beam="1">  1        1 0.37235191E+00 0.63998919E+03</pdfrwt>
<pdfrwt beam="2">0</pdfrwt>
<totfact> 0.17765716E+00</totfact>
</mgrwt>
</event>
<event>
 6    1  0.2677832E-003  0.6482062E+03  0.7818608E-02  0.9810151E-01
          1   -1    0    0  502    0  0.00000000000E+00  0.00000000000E+00  0.10505875859E+03  0.10505875859E+03  0.00000000000E+00 0.  1.
         13   -1    0    0    0    0 -0.00000000000E+00 -0.00000000000E+00 -0.10000000000E+04  0.10000000000E+04  0.00000000000E+00 0.  1.
    9000005    2    1    2  501    0 -0.52100613555E-03  0.74696345047E-03 -0.89495717751E+03  0.11050427965E+04  0.64820616510E+03 0.  0.
         13    1    3    3    0    0 -0.62697252459E+02  0.38109225965E+02 -0.98565621496E+03  0.98838324179E+03  0.00000000000E+00 0.  1.
          3    1    3    3  501    0  0.62696731453E+02 -0.38108479002E+02  0.90699037447E+02  0.11665955469E+03  0.00000000000E+00 0.  1.
         21    1    1    2  502  501  0.52100613555E-03 -0.74696345047E-03  0.15936108577E-01  0.15962110085E-01  0.00000000000E+00 0.  1.
<mgrwt>
<rscale>  1 0.64820617E+03</rscale>
<asrwt>0</asrwt>
<pdfrwt beam="1">  1        1 0.38203266E+00 0.64820617E+03</pdfrwt>
<pdfrwt beam="2">0</pdfrwt>
<totfact> 0.16079454E+00</totfact>
</mgrwt>
</event>
<event>
 6    1  0.2677832E-003  0.6534752E+03  0.7818608E-02  0.9800280E-01
          1   -1    0    0  502    0  0.00000000000E+00  0.00000000000E+00  0.10675758602E+03  0.10675758602E+03  0.00000000000E+00 0.  1.
         13   -1    0    0    0    0 -0.00000000000E+00 -0.00000000000E+00 -0.10000000000E+04  0.10000000000E+04  0.00000000000E+00 0.  1.
    9000005    2    1    2  501    0  0.38353385349E-04  0.22882224641E-04 -0.89324254136E+03  0.11067574510E+04  0.65347518523E+03 0.  0.
         13    1    3    3    0    0  0.10230066508E+03 -0.30303303662E+03 -0.55976668857E+03  0.64469620209E+03  0.00000000000E+00 0.  1.
          1    1    3    3  501    0 -0.10230062672E+03  0.30303305950E+03 -0.33347585279E+03  0.46206124894E+03  0.00000000000E+00 0.  1.
         21    1    1    2  502  501 -0.38353385355E-04 -0.22882224655E-04  0.12738740662E-03  0.13498936898E-03  0.00000000000E+00 0. -1.
<mgrwt>
<rscale>  1 0.65347519E+03</rscale>
<asrwt>0</asrwt>
<pdfrwt beam="1">  1        1 0.38821022E+00 0.65347519E+03</pdfrwt>
<pdfrwt beam="2">0</pdfrwt>
<totfact> 0.15084187E+00</totfact>
</mgrwt>
</event>
<event>
 6    1  0.2677832E-003  0.6644216E+03  0.7818608E-02  0.9780088E-01
          1   -1    0    0  502    0  0.00000000000E+00  0.00000000000E+00  0.11403268550E+03  0.11403268550E+03  0.00000000000E+00 0.  1.
         13   -1    0    0    0    0 -0.00000000000E+00 -0.00000000000E+00 -0.10000000000E+04  0.10000000000E+04  0.00000000000E+00 0.  1.
    9000005    2    1    2  501    0 -0.15693363959E+00 -0.13128599449E+00 -0.88963283069E+03  0.11103614632E+04  0.66442152560E+03 0.  0.
         13    1    3    3    0    0  0.15642255969E+03  0.28557771852E+03 -0.55401319237E+03  0.64261440057E+03  0.00000000000E+00 0.  1.
          1    1    3    3  501    0 -0.15657949333E+03 -0.28570900451E+03 -0.33561963831E+03  0.46774706264E+03  0.00000000000E+00 0.  1.
         21    1    1    2  502  501  0.15693363959E+00  0.13128599449E+00  0.36655161903E+01  0.36712222925E+01  0.00000000000E+00 0. -1.
<mgrwt>
<rscale>  1 0.66442156E+03</rscale>
<asrwt>0</asrwt>
<pdfrwt beam="1">  1        1 0.41466519E+00 0.66442156E+03</pdfrwt>
<pdfrwt beam="2">0</pdfrwt>
<totfact> 0.11469970E+00</totfact>
</mgrwt>
</event>
<event>
 6    1  0.2677832E-003  0.6487458E+03  0.7818608E-02  0.9809135E-01
          1   -1    0    0  502    0  0.00000000000E+00  0.00000000000E+00  0.10556063808E+03  0.10556063808E+03  0.00000000000E+00 0.  1.
         13   -1    0    0    0    0 -0.00000000000E+00 -0.00000000000E+00 -0.10000000000E+04  0.10000000000E+04  0.00000000000E+00 0.  1.
    9000005    2    1    2  501    0  0.28533732167E+00 -0.35518314278E+00 -0.89460633788E+03  0.11050754026E+04  0.64874566526E+03 0.  0.
         13    1    3    3    0    0 -0.66337979930E+02 -0.28480270722E+03 -0.68708672720E+03  0.74672717931E+03  0.00000000000E+00 0.  1.
          1    1    3    3  501    0  0.66623317252E+02  0.28444752408E+03 -0.20751961068E+03  0.35834822334E+03  0.00000000000E+00 0.  1.
         21    1    1    2  502  501 -0.28533732167E+00  0.35518314278E+00  0.16697595897E+00  0.48523543041E+00  0.00000000000E+00 0. -1.
<mgrwt>
<rscale>  1 0.64874583E+03</rscale>
<asrwt>0</asrwt>
<pdfrwt beam="1">  1        1 0.38385768E+00 0.64874583E+03</pdfrwt>
<pdfrwt beam="2">0</pdfrwt>
<totfact> 0.15782073E+00</totfact>
</mgrwt>
</event>
<event>
 6    1  0.2677832E-003  0.6522319E+03  0.7818608E-02  0.9802600E-01
          1   -1    0    0  502    0  0.00000000000E+00  0.00000000000E+00  0.10635183163E+03  0.10635183163E+03  0.00000000000E+00 0.  1.
         13   -1    0    0    0    0 -0.00000000000E+00 -0.00000000000E+00 -0.10000000000E+04  0.10000000000E+04  0.00000000000E+00 0.  1.
    9000005    2    1    2  501    0 -0.10228901903E-03  0.78835759751E-04 -0.89364836549E+03  0.11063515960E+04  0.65223190107E+03 0.  0.
         13    1    3    3    0    0 -0.15421118532E+03 -0.18178169815E+03 -0.69332413694E+02  0.24825925773E+03  0.00000000000E+00 0.  1.
          3    1    3    3  501    0  0.15421108303E+03  0.18178177698E+03 -0.82431595180E+03  0.85809233825E+03  0.00000000000E+00 0.  1.
         21    1    1    2  502  501  0.10228901903E-03 -0.78835759757E-04  0.19711893097E-03  0.23565651567E-03  0.00000000000E+00 0.  1.
<mgrwt>
<rscale>  1 0.65223190E+03</rscale>
<asrwt>0</asrwt>
<pdfrwt beam="1">  1        1 0.38673475E+00 0.65223190E+03</pdfrwt>
<pdfrwt beam="2">0</pdfrwt>
<totfact> 0.15316394E+00</totfact>
</mgrwt>
</event>
<event>
 6    1  0.2677832E-003  0.6482163E+03  0.7818608E-02  0.9810132E-01
          1   -1    0    0  502    0  0.00000000000E+00  0.00000000000E+00  0.10534342653E+03  0.10534342653E+03  0.00000000000E+00 0.  1.
         13   -1    0    0    0    0 -0.00000000000E+00 -0.00000000000E+00 -0.10000000000E+04  0.10000000000E+04  0.00000000000E+00 0.  1.
    9000005    2    1    2  501    0  0.47068924694E-02  0.44376678590E-02 -0.89495386776E+03  0.11050460619E+04  0.64821630139E+03 0.  0.
         13    1    3    3    0    0 -0.37888164600E+02 -0.27896839286E+03 -0.17372605525E+03  0.33081659496E+03  0.00000000000E+00 0.  1.
          1    1    3    3  501    0  0.37892871493E+02  0.27897283053E+03 -0.72122781251E+03  0.77422946690E+03  0.00000000000E+00 0.  1.
         21    1    1    2  502  501 -0.47068924694E-02 -0.44376678590E-02  0.29729428647E+00  0.29736465913E+00  0.00000000000E+00 0.  1.
<mgrwt>
<rscale>  1 0.64821630E+03</rscale>
<asrwt>0</asrwt>
<pdfrwt beam="1">  1        1 0.38306781E+00 0.64821630E+03</pdfrwt>
<pdfrwt beam="2">0</pdfrwt>
<totfact> 0.15910998E+00</totfact>
</mgrwt>
</event>
<event>
 6    1  0.2677832E-003  0.6510639E+03  0.7818608E-02  0.9804785E-01
          1   -1    0    0  502    0  0.00000000000E+00  0.00000000000E+00  0.10874685600E+03  0.10874685600E+03  0.00000000000E+00 0.  1.
         13   -1    0    0    0    0 -0.00000000000E+00 -0.00000000000E+00 -0.10000000000E+04  0.10000000000E+04  0.00000000000E+00 0.  1.
    9000005    2    1    2  501    0 -0.11541466969E+00  0.39174758707E-01 -0.89402748260E+03  0.11059698414E+04  0.65106384916E+03 0.  0.
         13    1    3    3    0    0  0.38419362186E+02  0.31754780743E+03 -0.54988867664E+03  0.63615266571E+03  0.00000000000E+00 0.  1.
          3    1    3    3  501    0 -0.38534776856E+02 -0.31750863267E+03 -0.34413880595E+03  0.46981717573E+03  0.00000000000E+00 0.  1.
         21    1    1    2  502  501  0.11541466969E+00 -0.39174758707E-01  0.27743385981E+01  0.27770145596E+01  0.00000000000E+00 0.  1.
<mgrwt>
<rscale>  1 0.65106386E+03</rscale>
<asrwt>0</asrwt>
<pdfrwt beam="1">  1        1 0.39544395E+00 0.65106386E+03</pdfrwt>
<pdfrwt beam="2">0</pdfrwt>
<totfact> 0.14015559E+00</totfact>
</mgrwt>
</event>
<event>
 6    1  0.2677832E-003  0.6489677E+03  0.7818608E-02  0.9808718E-01
          1   -1    0    0  502    0  0.00000000000E+00  0.00000000000E+00  0.11021458277E+03  0.11021458277E+03  0.00000000000E+00 0.  1.
         13   -1    0    0    0    0 -0.00000000000E+00 -0.00000000000E+00 -0.10000000000E+04  0.10000000000E+04  0.00000000000E+00 0.  1.
    9000005    2    1    2  501    0  0.10734484015E+01 -0.23113875258E+00 -0.89464250320E+03  0.11052349241E+04  0.64896673500E+03 0.  0.
         13    1    3    3    0    0 -0.28038852504E+03 -0.99345503135E+02 -0.22780709854E+03  0.37467763225E+03  0.00000000000E+00 0.  1.
          3    1    3    3  501    0  0.28146197344E+03  0.99114364383E+02 -0.66683540467E+03  0.73055729182E+03  0.00000000000E+00 0.  1.
         21    1    1    2  502  501 -0.10734484015E+01  0.23113875258E+00  0.48570859712E+01  0.49796586956E+01  0.00000000000E+00 0.  1.
<mgrwt>
<rscale>  1 0.64896766E+03</rscale>
<asrwt>0</asrwt>
<pdfrwt beam="1">  1        1 0.40078115E+00 0.64896766E+03</pdfrwt>
<pdfrwt beam="2">0</pdfrwt>
<totfact> 0.13274491E+00</totfact>
</mgrwt>
</event>
<event>
 6    1  0.3283451E-003  0.6613354E+03  0.7818608E-02  0.9785739E-01
          1   -1    0    0  502    0  0.00000000000E+00  0.00000000000E+00  0.10934115607E+03  0.10934115607E+03  0.00000000000E+00 0.  1.
         13   -1    0    0    0    0 -0.00000000000E+00 -0.00000000000E+00 -0.10000000000E+04  0.10000000000E+04  0.00000000000E+00 0.  1.
    9000005    2    1    2  501    0 -0.32759539238E-04  0.20230364157E-04 -0.89065885192E+03  0.11093411167E+04  0.66133540870E+03 0.  0.
         13    1    3    3    0    0  0.14115023655E+03  0.28643449244E+03 -0.58936380645E+03  0.67031172158E+03  0.00000000000E+00 0.  1.
          1    1    3    3  501    0 -0.14115026931E+03 -0.28643447221E+03 -0.30129504547E+03  0.43902939517E+03  0.00000000000E+00 0.  1.
         21    1    1    2  502  501  0.32759539248E-04 -0.20230364156E-04  0.79815428113E-05  0.39321241985E-04  0.00000000000E+00 0. -1.
<mgrwt>
<rscale>  1 0.66133541E+03</rscale>
<asrwt>0</asrwt>
<pdfrwt beam="1">  1        1 0.39760504E+00 0.66133541E+03</pdfrwt>
<pdfrwt beam="2">0</pdfrwt>
<totfact> 0.13682247E+00</totfact>
</mgrwt>
</event>
<event>
 6    1  0.2677832E-003  0.6603461E+03  0.7818608E-02  0.9787557E-01
          1   -1    0    0  502    0  0.00000000000E+00  0.00000000000E+00  0.10901450197E+03  0.10901450197E+03  0.00000000000E+00 0.  1.
         13   -1    0    0    0    0 -0.00000000000E+00 -0.00000000000E+00 -0.10000000000E+04  0.10000000000E+04  0.00000000000E+00 0.  1.
    9000005    2    1    2  501    0 -0.25288055808E-03 -0.35388042375E-03 -0.89098552082E+03  0.11090140664E+04  0.66034612228E+03 0.  0.
         13    1    3    3    0    0  0.35179918882E+02 -0.32582166665E+03 -0.51302606660E+03  0.60876360778E+03  0.00000000000E+00 0.  1.
          1    1    3    3  501    0 -0.35180171763E+02  0.32582131276E+03 -0.37795945423E+03  0.50025045865E+03  0.00000000000E+00 0.  1.
         21    1    1    2  502  501  0.25288055808E-03  0.35388042375E-03  0.22794956849E-04  0.43554510791E-03  0.00000000000E+00 0. -1.
<mgrwt>
<rscale>  1 0.66034612E+03</rscale>
<asrwt>0</asrwt>
<pdfrwt beam="1">  1        1 0.39641721E+00 0.66034612E+03</pdfrwt>
<pdfrwt beam="2">0</pdfrwt>
<totfact> 0.13852418E+00</totfact>
</mgrwt>
</event>
<event>
 6    1  0.2677832E-003  0.6509990E+03  0.7818608E-02  0.9804906E-01
          1   -1    0    0  502    0  0.00000000000E+00  0.00000000000E+00  0.10598904525E+03  0.10598904525E+03  0.00000000000E+00 0.  1.
         13   -1    0    0    0    0 -0.00000000000E+00 -0.00000000000E+00 -0.10000000000E+04  0.10000000000E+04  0.00000000000E+00 0.  1.
    9000005    2    1    2  501    0 -0.28501781935E-01  0.10500916384E+00 -0.89393248643E+03  0.11058548940E+04  0.65099903570E+03 0.  0.
         13    1    3    3    0    0  0.59221675635E+02 -0.65460480453E+01  0.96617529161E+02  0.11351213394E+03  0.00000000000E+00 0.  1.
          3    1    3    3  501    0 -0.59250177417E+02  0.66510572091E+01 -0.99055001559E+03  0.99234276008E+03  0.00000000000E+00 0.  1.
         21    1    1    2  502  501  0.28501781935E-01 -0.10500916384E+00 -0.78468319372E-01  0.13415123260E+00  0.00000000000E+00 0. -1.
<mgrwt>
<rscale>  1 0.65099904E+03</rscale>
<asrwt>0</asrwt>
<pdfrwt beam="1">  1        1 0.38541552E+00 0.65099904E+03</pdfrwt>
<pdfrwt beam="2">0</pdfrwt>
<totfact> 0.15527229E+00</totfact>
</mgrwt>
</event>
<event>
 6    1  0.2677832E-003  0.6534688E+03  0.7818608E-02  0.9800292E-01
          1   -1    0    0  502    0  0.00000000000E+00  0.00000000000E+00  0.10688667461E+03  0.10688667461E+03  0.00000000000E+00 0.  1.
         13   -1    0    0    0    0 -0.00000000000E+00 -0.00000000000E+00 -0.10000000000E+04  0.10000000000E+04  0.00000000000E+00 0.  1.
    9000005    2    1    2  501    0  0.31052244410E-04 -0.18193846601E-02 -0.89324463834E+03  0.11067553491E+04  0.65346875879E+03 0.  0.
         13    1    3    3    0    0  0.83835529406E+02  0.55999542035E+02 -0.97299671887E+03  0.97820599039E+03  0.00000000000E+00 0.  1.
          3    1    3    3  501    0 -0.83835498354E+02 -0.56001361420E+02  0.79752080525E+02  0.12854935867E+03  0.00000000000E+00 0.  1.
         21    1    1    2  502  501 -0.31052244406E-04  0.18193846601E-02  0.13131295155E+00  0.13132555871E+00  0.00000000000E+00 0. -1.
<mgrwt>
<rscale>  1 0.65346876E+03</rscale>
<asrwt>0</asrwt>
<pdfrwt beam="1">  1        1 0.38867964E+00 0.65346876E+03</pdfrwt>
<pdfrwt beam="2">0</pdfrwt>
<totfact> 0.15012132E+00</totfact>
</mgrwt>
</event>
<event>
 6    1  0.2677832E-003  0.6548591E+03  0.7818608E-02  0.9797704E-01
          1   -1    0    0  502    0  0.00000000000E+00  0.00000000000E+00  0.10721189744E+03  0.10721189744E+03  0.00000000000E+00 0.  1.
         13   -1    0    0    0    0 -0.00000000000E+00 -0.00000000000E+00 -0.10000000000E+04  0.10000000000E+04  0.00000000000E+00 0.  1.
    9000005    2    1    2  501    0 -0.25766067557E-03 -0.85489818247E-04 -0.89278989483E+03  0.11072100847E+04  0.65485905004E+03 0.  0.
         13    1    3    3    0    0  0.20676386359E+03 -0.13029174806E+03 -0.81482099998E+03  0.85068237134E+03  0.00000000000E+00 0.  1.
          1    1    3    3  501    0 -0.20676412125E+03  0.13029166257E+03 -0.77968894845E+02  0.25652771339E+03  0.00000000000E+00 0.  1.
         21    1    1    2  502  501  0.25766067556E-03  0.85489818241E-04  0.17922702519E-02  0.18127134877E-02  0.00000000000E+00 0. -1.
<mgrwt>
<rscale>  1 0.65485905E+03</rscale>
<asrwt>0</asrwt>
<pdfrwt beam="1">  1        1 0.38986227E+00 0.65485905E+03</pdfrwt>
<pdfrwt beam="2">0</pdfrwt>
<totfact> 0.14828179E+00</totfact>
</mgrwt>
</event>
<event>
 6    1  0.2677832E-003  0.6610723E+03  0.7818608E-02  0.9786222E-01
          1   -1    0    0  502    0  0.00000000000E+00  0.00000000000E+00  0.10999458944E+03  0.10999458944E+03  0.00000000000E+00 0.  1.
         13   -1    0    0    0    0 -0.00000000000E+00 -0.00000000000E+00 -0.10000000000E+04  0.10000000000E+04  0.00000000000E+00 0.  1.
    9000005    2    1    2  501    0  0.42014500792E-01  0.12234747794E+01 -0.89013487139E+03  0.11087635672E+04  0.66107114590E+03 0.  0.
         13    1    3    3    0    0  0.20974099997E+03 -0.13609204509E+03 -0.82747106520E+02  0.26336175774E+03  0.00000000000E+00 0.  1.
          3    1    3    3  501    0 -0.20969898547E+03  0.13731551987E+03 -0.80738776487E+03  0.84540180941E+03  0.00000000000E+00 0.  1.
         21    1    1    2  502  501 -0.42014500792E-01 -0.12234747794E+01  0.12946082535E+00  0.12310222822E+01  0.00000000000E+00 0. -1.
<mgrwt>
<rscale>  1 0.66107228E+03</rscale>
<asrwt>0</asrwt>
<pdfrwt beam="1">  1        1 0.39998117E+00 0.66107228E+03</pdfrwt>
<pdfrwt beam="2">0</pdfrwt>
<totfact> 0.13353357E+00</totfact>
</mgrwt>
</event>
<event>
 6    1  0.2677832E-003  0.6479626E+03  0.7818608E-02  0.9810610E-01
          1   -1    0    0  502    0  0.00000000000E+00  0.00000000000E+00  0.10503179081E+03  0.10503179081E+03  0.00000000000E+00 0.  1.
         13   -1    0    0    0    0 -0.00000000000E+00 -0.00000000000E+00 -0.10000000000E+04  0.10000000000E+04  0.00000000000E+00 0.  1.
    9000005    2    1    2  501    0 -0.76580610426E-01 -0.99509637804E-01 -0.89496485336E+03  0.11049061802E+04  0.64796262437E+03 0.  0.
         13    1    3    3    0    0 -0.29980742003E+03  0.98867616080E+02 -0.32316263428E+03  0.45176695631E+03  0.00000000000E+00 0.  1.
          3    1    3    3  501    0  0.29973083942E+03 -0.98967125718E+02 -0.57180221908E+03  0.65313922392E+03  0.00000000000E+00 0.  1.
         21    1    1    2  502  501  0.76580610426E-01  0.99509637804E-01 -0.33558301915E-02  0.12561058676E+00  0.00000000000E+00 0. -1.
<mgrwt>
<rscale>  1 0.64796264E+03</rscale>
<asrwt>0</asrwt>
<pdfrwt beam="1">  1        1 0.38193459E+00 0.64796264E+03</pdfrwt>
<pdfrwt beam="2">0</pdfrwt>
<totfact> 0.16096219E+00</totfact>
</mgrwt>
</event>
<event>
 6    1  0.2677832E-003  0.6518017E+03  0.7818608E-02  0.9803404E-01
          3   -1    0    0  502    0  0.00000000000E+00  0.00000000000E+00  0.10621626102E+03  0.10621626102E+03  0.00000000000E+00 0.  1.
         13   -1    0    0    0    0 -0.00000000000E+00 -0.00000000000E+00 -0.10000000000E+04  0.10000000000E+04  0.00000000000E+00 0.  1.
    9000005    2    1    2  501    0  0.94083732705E-02  0.17996038917E-02 -0.89378279829E+03  0.11062066360E+04  0.65180168068E+03 0.  0.
         13    1    3    3    0    0 -0.24588766047E+03 -0.94875880118E+02 -0.77222054660E+03  0.81595756433E+03  0.00000000000E+00 0.  1.
          3    1    3    3  501    0  0.24589706884E+03  0.94877679722E+02 -0.12156225169E+03  0.29024907168E+03  0.00000000000E+00 0.  1.
         21    1    1    2  502  501 -0.94083732705E-02 -0.17996038917E-02 -0.94068860735E-03  0.96250172374E-02  0.00000000000E+00 0. -1.
<mgrwt>
<rscale>  1 0.65180168E+03</rscale>
<asrwt>0</asrwt>
<pdfrwt beam="1">  1        3 0.38624176E+00 0.65180168E+03</pdfrwt>
<pdfrwt beam="2">0</pdfrwt>
<totfact> 0.69946357E-02</totfact>
</mgrwt>
</event>
<event>
 6    1  0.2677832E-003  0.6413033E+03  0.7818608E-02  0.9823236E-01
          1   -1    0    0  502    0  0.00000000000E+00  0.00000000000E+00  0.10292536524E+03  0.10292536524E+03  0.00000000000E+00 0.  1.
         13   -1    0    0    0    0 -0.00000000000E+00 -0.00000000000E+00 -0.10000000000E+04  0.10000000000E+04  0.00000000000E+00 0.  1.
    9000005    2    1    2  501    0  0.14896599820E-01  0.24253676410E-01 -0.89718044647E+03  0.11028157921E+04  0.64130329565E+03 0.  0.
         13    1    3    3    0    0 -0.16525259820E+03  0.23781460869E+03 -0.68536349724E+03  0.74403449696E+03  0.00000000000E+00 0.  1.
          1    1    3    3  501    0  0.16526749480E+03 -0.23779035502E+03 -0.21181694923E+03  0.35878129516E+03  0.00000000000E+00 0.  1.
         21    1    1    2  502  501 -0.14896599820E-01 -0.24253676410E-01  0.10581171063E+00  0.10957311537E+00  0.00000000000E+00 0. -1.
<mgrwt>
<rscale>  1 0.64130330E+03</rscale>
<asrwt>0</asrwt>
<pdfrwt beam="1">  1        1 0.37427484E+00 0.64130330E+03</pdfrwt>
<pdfrwt beam="2">0</pdfrwt>
<totfact> 0.17418895E+00</totfact>
</mgrwt>
</event>
<event>
 6    1  0.2677832E-003  0.6700998E+03  0.7818608E-02  0.9769778E-01
          1   -1    0    0  502    0  0.00000000000E+00  0.00000000000E+00  0.15324367190E+03  0.15324367190E+03  0.00000000000E+00 0.  1.
         13   -1    0    0    0    0 -0.00000000000E+00 -0.00000000000E+00 -0.10000000000E+04  0.10000000000E+04  0.00000000000E+00 0.  1.
    9000005    2    1    2  501    0 -0.40763372165E+01  0.83382517667E+01 -0.88715625032E+03  0.11117913296E+04  0.67003552525E+03 0.  0.
         13    1    3    3    0    0 -0.16076676113E+03  0.28390705030E+03 -0.60518226665E+03  0.68752799257E+03  0.00000000000E+00 0.  1.
          3    1    3    3  501    0  0.15669042391E+03 -0.27556879854E+03 -0.28197398367E+03  0.42426333702E+03  0.00000000000E+00 0.  1.
         21    1    1    2  502  501  0.40763372165E+01 -0.83382517667E+01  0.40399922226E+02  0.41452342316E+02  0.00000000000E+00 0.  1.
<mgrwt>
<rscale>  1 0.67009980E+03</rscale>
<asrwt>0</asrwt>
<pdfrwt beam="1">  1        1 0.55725089E+00 0.67009980E+03</pdfrwt>
<pdfrwt beam="2">0</pdfrwt>
<totfact> 0.23924404E-01</totfact>
</mgrwt>
</event>
<event>
 6    1  0.2677832E-003  0.6502701E+03  0.7818608E-02  0.9806272E-01
          1   -1    0    0  502    0  0.00000000000E+00  0.00000000000E+00  0.10617420468E+03  0.10617420468E+03  0.00000000000E+00 0.  1.
         13   -1    0    0    0    0 -0.00000000000E+00 -0.00000000000E+00 -0.10000000000E+04  0.10000000000E+04  0.00000000000E+00 0.  1.
    9000005    2    1    2  501    0  0.70709939206E+00  0.89212861704E+00 -0.89331457719E+03  0.11049263157E+04  0.65026912378E+03 0.  0.
         13    1    3    3    0    0 -0.12833527499E+03 -0.13721462503E+03 -0.89641248768E+03  0.91588926416E+03  0.00000000000E+00 0.  1.
          1    1    3    3  501    0  0.12904237439E+03  0.13810675365E+03  0.30979104976E+01  0.18903705150E+03  0.00000000000E+00 0.  1.
         21    1    1    2  502  501 -0.70709939206E+00 -0.89212861704E+00 -0.51121813258E+00  0.12478890170E+01  0.00000000000E+00 0.  1.
<mgrwt>
<rscale>  1 0.65027012E+03</rscale>
<asrwt>0</asrwt>
<pdfrwt beam="1">  1        1 0.38608883E+00 0.65027012E+03</pdfrwt>
<pdfrwt beam="2">0</pdfrwt>
<totfact> 0.15423154E+00</totfact>
</mgrwt>
</event>
<event>
 6    1  0.2677832E-003  0.6355737E+03  0.7818608E-02  0.9834232E-01
          1   -1    0    0  502    0  0.00000000000E+00  0.00000000000E+00  0.12957188127E+03  0.12957188127E+03  0.00000000000E+00 0.  1.
         13   -1    0    0    0    0 -0.00000000000E+00 -0.00000000000E+00 -0.10000000000E+04  0.10000000000E+04  0.00000000000E+00 0.  1.
    9000005    2    1    2  501    0  0.15433604004E+02  0.13333107261E+02 -0.89495146187E+03  0.10976757649E+04  0.63524640716E+03 0.  0.
         13    1    3    3    0    0 -0.13382240447E+03 -0.27764874080E+03 -0.41659524767E+03  0.51821700049E+03  0.00000000000E+00 0.  1.
          1    1    3    3  501    0  0.14925600848E+03  0.29098184806E+03 -0.47835621420E+03  0.57945876439E+03  0.00000000000E+00 0.  1.
         21    1    1    2  502  501 -0.15433604004E+02 -0.13333107261E+02  0.24523343146E+02  0.31896116391E+02  0.00000000000E+00 0. -1.
<mgrwt>
<rscale>  1 0.63557373E+03</rscale>
<asrwt>0</asrwt>
<pdfrwt beam="1">  1        1 0.47117147E+00 0.63557373E+03</pdfrwt>
<pdfrwt beam="2">0</pdfrwt>
<totfact> 0.63553509E-01</totfact>
</mgrwt>
</event>
<event>
 6    1  0.2677832E-003  0.6408439E+03  0.7818608E-02  0.9824113E-01
          1   -1    0    0  502    0  0.00000000000E+00  0.00000000000E+00  0.12217201913E+03  0.12217201913E+03  0.00000000000E+00 0.  1.
         13   -1    0    0    0    0 -0.00000000000E+00 -0.00000000000E+00 -0.10000000000E+04  0.10000000000E+04  0.00000000000E+00 0.  1.
    9000005    2    1    2  501    0 -0.33339262762E+00  0.59703825615E+00 -0.89732317241E+03  0.11026648384E+04  0.64084350864E+03 0.  0.
         13    1    3    3    0    0  0.26069209964E+02  0.18741047637E+03 -0.36053024223E+01  0.18924927626E+03  0.00000000000E+00 0.  1.
          1    1    3    3  501    0 -0.26402602592E+02 -0.18681343811E+03 -0.89371786999E+03  0.91341556218E+03  0.00000000000E+00 0.  1.
         21    1    1    2  502  501  0.33339262762E+00 -0.59703825615E+00  0.19495191547E+02  0.19507180698E+02  0.00000000000E+00 0.  1.
<mgrwt>
<rscale>  1 0.64084387E+03</rscale>
<asrwt>0</asrwt>
<pdfrwt beam="1">  1        1 0.44426282E+00 0.64084387E+03</pdfrwt>
<pdfrwt beam="2">0</pdfrwt>
<totfact> 0.84580509E-01</totfact>
</mgrwt>
</event>
<event>
 6    1  0.2677832E-003  0.6468263E+03  0.7818608E-02  0.9812753E-01
          1   -1    0    0  502    0  0.00000000000E+00  0.00000000000E+00  0.10459627205E+03  0.10459627205E+03  0.00000000000E+00 0.  1.
         13   -1    0    0    0    0 -0.00000000000E+00 -0.00000000000E+00 -0.10000000000E+04  0.10000000000E+04  0.00000000000E+00 0.  1.
    9000005    2    1    2  501    0  0.56133434043E-05  0.20763426718E-04 -0.89540392573E+03  0.11045960731E+04  0.64682632483E+03 0.  0.
         13    1    3    3    0    0 -0.39526106944E+02  0.99477672801E+02  0.73467731484E+02  0.12982922662E+03  0.00000000000E+00 0.  1.
          1    1    3    3  501    0  0.39526112558E+02 -0.99477652037E+02 -0.96887165722E+03  0.97476684648E+03  0.00000000000E+00 0.  1.
         21    1    1    2  502  501 -0.56133434068E-05 -0.20763426717E-04  0.19778179449E-03  0.19894790209E-03  0.00000000000E+00 0. -1.
<mgrwt>
<rscale>  1 0.64682632E+03</rscale>
<asrwt>0</asrwt>
<pdfrwt beam="1">  1        1 0.38035088E+00 0.64682632E+03</pdfrwt>
<pdfrwt beam="2">0</pdfrwt>
<totfact> 0.16360866E+00</totfact>
</mgrwt>
</event>
<event>
 6    1  0.2677832E-003  0.6557536E+03  0.7818608E-02  0.9796042E-01
          1   -1    0    0  502    0  0.00000000000E+00  0.00000000000E+00  0.10750321715E+03  0.10750321715E+03  0.00000000000E+00 0.  1.
         13   -1    0    0    0    0 -0.00000000000E+00 -0.00000000000E+00 -0.10000000000E+04  0.10000000000E+04  0.00000000000E+00 0.  1.
    9000005    2    1    2  501    0 -0.17977741038E-05  0.19428994477E-04 -0.89249678366E+03  0.11075031976E+04  0.65575363050E+03 0.  0.
         13    1    3    3    0    0 -0.24857540841E+03 -0.77526969091E+02 -0.10972429270E+03  0.28255899387E+03  0.00000000000E+00 0.  1.
          3    1    3    3  501    0  0.24857540662E+03  0.77526988520E+02 -0.78277249095E+03  0.82494420376E+03  0.00000000000E+00 0.  1.
         21    1    1    2  502  501  0.17977740857E-05 -0.19428994476E-04  0.80679545936E-06  0.19528664494E-04  0.00000000000E+00 0.  1.
<mgrwt>
<rscale>  1 0.65575363E+03</rscale>
<asrwt>0</asrwt>
<pdfrwt beam="1">  1        1 0.39092161E+00 0.65575363E+03</pdfrwt>
<pdfrwt beam="2">0</pdfrwt>
<totfact> 0.14666172E+00</totfact>
</mgrwt>
</event>
<event>
 6    1  0.2677832E-003  0.6547528E+03  0.7818608E-02  0.9797902E-01
          1   -1    0    0  502    0  0.00000000000E+00  0.00000000000E+00  0.10745092748E+03  0.10745092748E+03  0.00000000000E+00 0.  1.
         13   -1    0    0    0    0 -0.00000000000E+00 -0.00000000000E+00 -0.10000000000E+04  0.10000000000E+04  0.00000000000E+00 0.  1.
    9000005    2    1    2  501    0  0.42966313636E-02 -0.43603107143E-02 -0.89282466604E+03  0.11071752660E+04  0.65475276654E+03 0.  0.
         13    1    3    3    0    0 -0.18122461917E+03 -0.27264141584E+03 -0.44633320804E+03  0.55352419714E+03  0.00000000000E+00 0.  1.
          1    1    3    3  501    0  0.18122891580E+03  0.27263705553E+03 -0.44649145799E+03  0.55365106884E+03  0.00000000000E+00 0.  1.
         21    1    1    2  502  501 -0.42966313636E-02  0.43603107143E-02  0.27559351409E+00  0.27566149234E+00  0.00000000000E+00 0. -1.
<mgrwt>
<rscale>  1 0.65475277E+03</rscale>
<asrwt>0</asrwt>
<pdfrwt beam="1">  1        1 0.39073147E+00 0.65475277E+03</pdfrwt>
<pdfrwt beam="2">0</pdfrwt>
<totfact> 0.14697419E+00</totfact>
</mgrwt>
</event>
<event>
 6    1  0.2677832E-003  0.6506871E+03  0.7818608E-02  0.9805491E-01
          1   -1    0    0  502    0  0.00000000000E+00  0.00000000000E+00  0.10584845232E+03  0.10584845232E+03  0.00000000000E+00 0.  1.
         13   -1    0    0    0    0 -0.00000000000E+00 -0.00000000000E+00 -0.10000000000E+04  0.10000000000E+04  0.00000000000E+00 0.  1.
    9000005    2    1    2  501    0  0.24945226954E-04 -0.30059850076E-05 -0.89415156688E+03  0.11058484207E+04  0.65068710224E+03 0.  0.
         13    1    3    3    0    0  0.21615223904E+03 -0.19327236588E+03 -0.19630503453E+03  0.35015948429E+03  0.00000000000E+00 0.  1.
          3    1    3    3  501    0 -0.21615221410E+03  0.19327236287E+03 -0.69784653235E+03  0.75568893641E+03  0.00000000000E+00 0.  1.
         21    1    1    2  502  501 -0.24945226951E-04  0.30059850069E-05  0.19198724980E-04  0.31621058401E-04  0.00000000000E+00 0.  1.
<mgrwt>
<rscale>  1 0.65068710E+03</rscale>
<asrwt>0</asrwt>
<pdfrwt beam="1">  1        1 0.38490427E+00 0.65068710E+03</pdfrwt>
<pdfrwt beam="2">0</pdfrwt>
<totfact> 0.15609197E+00</totfact>
</mgrwt>
</event>
<event>
 6    1  0.2677832E-003  0.6460352E+03  0.7818608E-02  0.9814248E-01
          1   -1    0    0  502    0  0.00000000000E+00  0.00000000000E+00  0.10434647301E+03  0.10434647301E+03  0.00000000000E+00 0.  1.
         13   -1    0    0    0    0 -0.00000000000E+00 -0.00000000000E+00 -0.10000000000E+04  0.10000000000E+04  0.00000000000E+00 0.  1.
    9000005    2    1    2  501    0 -0.38608294908E-02 -0.86336962791E-02 -0.89565531898E+03  0.11043368471E+04  0.64603515491E+03 0.  0.
         13    1    3    3    0    0 -0.27850051366E+03 -0.10107849177E+03 -0.66782727786E+03  0.73059747513E+03  0.00000000000E+00 0.  1.
          1    1    3    3  501    0  0.27849665283E+03  0.10106985808E+03 -0.22782804113E+03  0.37373937199E+03  0.00000000000E+00 0.  1.
         21    1    1    2  502  501  0.38608294908E-02  0.86336962791E-02  0.17919976654E-02  0.96259010711E-02  0.00000000000E+00 0. -1.
<mgrwt>
<rscale>  1 0.64603515E+03</rscale>
<asrwt>0</asrwt>
<pdfrwt beam="1">  1        1 0.37944252E+00 0.64603515E+03</pdfrwt>
<pdfrwt beam="2">0</pdfrwt>
<totfact> 0.16514946E+00</totfact>
</mgrwt>
</event>
<event>
 6    1  0.2677832E-003  0.6504620E+03  0.7818608E-02  0.9805913E-01
          1   -1    0    0  502    0  0.00000000000E+00  0.00000000000E+00  0.10959575133E+03  0.10959575133E+03  0.00000000000E+00 0.  1.
         13   -1    0    0    0    0 -0.00000000000E+00 -0.00000000000E+00 -0.10000000000E+04  0.10000000000E+04  0.00000000000E+00 0.  1.
    9000005    2    1    2  501    0 -0.78580447890E+01  0.47276647055E+01 -0.88671479367E+03  0.10997108254E+04  0.65039732057E+03 0.  0.
         13    1    3    3    0    0  0.23724319740E+03  0.71732852542E+02 -0.90372145986E+02  0.26381255015E+03  0.00000000000E+00 0.  1.
          1    1    3    3  501    0 -0.24510124219E+03 -0.67005187836E+02 -0.79634264769E+03  0.83589827530E+03  0.00000000000E+00 0.  1.
         21    1    1    2  502  501  0.78580447890E+01 -0.47276647055E+01 -0.36894549993E+01  0.98849258806E+01  0.00000000000E+00 0. -1.
<mgrwt>
<rscale>  1 0.65046197E+03</rscale>
<asrwt>0</asrwt>
<pdfrwt beam="1">  1        1 0.39853085E+00 0.65046197E+03</pdfrwt>
<pdfrwt beam="2">0</pdfrwt>
<totfact> 0.13580714E+00</totfact>
</mgrwt>
</event>
<event>
 6    1  0.2677832E-003  0.6086262E+03  0.7818608E-02  0.9887669E-01
          1   -1    0    0  502    0  0.00000000000E+00  0.00000000000E+00  0.95351749648E+02  0.95351749648E+02  0.00000000000E+00 0.  1.
         13   -1    0    0    0    0 -0.00000000000E+00 -0.00000000000E+00 -0.10000000000E+04  0.10000000000E+04  0.00000000000E+00 0.  1.
    9000005    2    1    2  501    0 -0.38380812508E+01  0.29888759710E+01 -0.90483618599E+03  0.10904835295E+04  0.60860672068E+03 0.  0.
         13    1    3    3    0    0 -0.24826616389E+02 -0.22948701890E+03 -0.98364254718E+02  0.25091069992E+03  0.00000000000E+00 0.  1.
          1    1    3    3  501    0  0.20988535139E+02  0.23247589487E+03 -0.80647193127E+03  0.83957282962E+03  0.00000000000E+00 0.  1.
         21    1    1    2  502  501  0.38380812508E+01 -0.29888759710E+01  0.18793563993E+00  0.48682201124E+01  0.00000000000E+00 0. -1.
<mgrwt>
<rscale>  1 0.60862616E+03</rscale>
<asrwt>0</asrwt>
<pdfrwt beam="1">  1        1 0.34673437E+00 0.60862616E+03</pdfrwt>
<pdfrwt beam="2">0</pdfrwt>
<totfact> 0.23124329E+00</totfact>
</mgrwt>
</event>
<event>
 6    1  0.2677832E-003  0.6586922E+03  0.7818608E-02  0.9790604E-01
          1   -1    0    0  502    0  0.00000000000E+00  0.00000000000E+00  0.11042347847E+03  0.11042347847E+03  0.00000000000E+00 0.  1.
         13   -1    0    0    0    0 -0.00000000000E+00 -0.00000000000E+00 -0.10000000000E+04  0.10000000000E+04  0.00000000000E+00 0.  1.
    9000005    2    1    2  501    0  0.13032713833E+01  0.82094686627E+00 -0.89118890585E+03  0.11081936235E+04  0.65869041952E+03 0.  0.
         13    1    3    3    0    0 -0.30958660855E+03 -0.85476876020E+02 -0.56171789555E+03  0.64705267073E+03  0.00000000000E+00 0.  1.
          3    1    3    3  501    0  0.31088987993E+03  0.86297822886E+02 -0.32947101030E+03  0.46114095275E+03  0.00000000000E+00 0.  1.
         21    1    1    2  502  501 -0.13032713833E+01 -0.82094686627E+00  0.16123843189E+01  0.22298549835E+01  0.00000000000E+00 0.  1.
<mgrwt>
<rscale>  1 0.65869222E+03</rscale>
<asrwt>0</asrwt>
<pdfrwt beam="1">  1        1 0.40154077E+00 0.65869222E+03</pdfrwt>
<pdfrwt beam="2">0</pdfrwt>
<totfact> 0.13147040E+00</totfact>
</mgrwt>
</event>
<event>
 6    1  0.2677832E-003  0.6511711E+03  0.7818608E-02  0.9804584E-01
          1   -1    0    0  502    0  0.00000000000E+00  0.00000000000E+00  0.10601145192E+03  0.10601145192E+03  0.00000000000E+00 0.  1.
         13   -1    0    0    0    0 -0.00000000000E+00 -0.00000000000E+00 -0.10000000000E+04  0.10000000000E+04  0.00000000000E+00 0.  1.
    9000005    2    1    2  501    0  0.78658722228E-02 -0.14465645447E-01 -0.89397194735E+03  0.11059880701E+04  0.65117107445E+03 0.  0.
         13    1    3    3    0    0  0.23373027233E+02 -0.91579013301E+01  0.10436210083E+03  0.10733877980E+03  0.00000000000E+00 0.  1.
          1    1    3    3  501    0 -0.23365161361E+02  0.91434356847E+01 -0.99833404818E+03  0.99864929026E+03  0.00000000000E+00 0.  1.
         21    1    1    2  502  501 -0.78658722228E-02  0.14465645447E-01 -0.16600738282E-01  0.23381859539E-01  0.00000000000E+00 0. -1.
<mgrwt>
<rscale>  1 0.65117107E+03</rscale>
<asrwt>0</asrwt>
<pdfrwt beam="1">  1        1 0.38549700E+00 0.65117107E+03</pdfrwt>
<pdfrwt beam="2">0</pdfrwt>
<totfact> 0.15513853E+00</totfact>
</mgrwt>
</event>
<event>
 6    1  0.2677832E-003  0.6346726E+03  0.7818608E-02  0.9835973E-01
          1   -1    0    0  502    0  0.00000000000E+00  0.00000000000E+00  0.10070290218E+03  0.10070290218E+03  0.00000000000E+00 0.  1.
         13   -1    0    0    0    0 -0.00000000000E+00 -0.00000000000E+00 -0.10000000000E+04  0.10000000000E+04  0.00000000000E+00 0.  1.
    9000005    2    1    2  501    0  0.18559771746E-05 -0.41354508951E-04 -0.89929767287E+03  0.11007023256E+04  0.63467259690E+03 0.  0.
         13    1    3    3    0    0 -0.69950807284E+02 -0.75976026455E+02 -0.97004047063E+03  0.97552241732E+03  0.00000000000E+00 0.  1.
          1    1    3    3  501    0  0.69950809140E+02  0.75975985101E+02  0.70742797766E+02  0.12517990832E+03  0.00000000000E+00 0.  1.
         21    1    1    2  502  501 -0.18559771802E-05  0.41354508955E-04  0.57505054611E-03  0.57653861158E-03  0.00000000000E+00 0. -1.
<mgrwt>
<rscale>  1 0.63467260E+03</rscale>
<asrwt>0</asrwt>
<pdfrwt beam="1">  1        1 0.36619314E+00 0.63467260E+03</pdfrwt>
<pdfrwt beam="2">0</pdfrwt>
<totfact> 0.18925303E+00</totfact>
</mgrwt>
</event>
<event>
 6    1  0.2677832E-003  0.4949646E+03  0.7818608E-02  0.1015102E+00
          1   -1    0    0  502    0  0.00000000000E+00  0.00000000000E+00  0.61270459705E+02  0.61270459705E+02  0.00000000000E+00 0.  1.
         13   -1    0    0    0    0 -0.00000000000E+00 -0.00000000000E+00 -0.10000000000E+04  0.10000000000E+04  0.00000000000E+00 0.  1.
    9000005    2    1    2  501    0  0.11573651408E-02 -0.75428456820E-03 -0.93875249482E+03  0.10612474637E+04  0.49496457709E+03 0.  0.
         13    1    3    3    0    0 -0.17028921916E+03  0.10627194630E+03 -0.15899998489E+03  0.25607252864E+03  0.00000000000E+00 0.  1.
          1    1    3    3  501    0  0.17029037652E+03 -0.10627270058E+03 -0.77975250993E+03  0.80517493501E+03  0.00000000000E+00 0.  1.
         21    1    1    2  502  501 -0.11573651408E-02  0.75428456821E-03  0.22954522421E-01  0.22996054854E-01  0.00000000000E+00 0.  1.
<mgrwt>
<rscale>  1 0.49496458E+03</rscale>
<asrwt>0</asrwt>
<pdfrwt beam="1">  1        1 0.22280214E+00 0.49496458E+03</pdfrwt>
<pdfrwt beam="2">0</pdfrwt>
<totfact> 0.81334582E+00</totfact>
</mgrwt>
</event>
<event>
 6    1  0.2677832E-003  0.6462676E+03  0.7818608E-02  0.9813808E-01
          1   -1    0    0  502    0  0.00000000000E+00  0.00000000000E+00  0.10441582302E+03  0.10441582302E+03  0.00000000000E+00 0.  1.
         13   -1    0    0    0    0 -0.00000000000E+00 -0.00000000000E+00 -0.10000000000E+04  0.10000000000E+04  0.00000000000E+00 0.  1.
    9000005    2    1    2  501    0  0.49732863076E-04  0.31338474116E-04 -0.89558453555E+03  0.11044154597E+04  0.64626762818E+03 0.  0.
         13    1    3    3    0    0 -0.10639190993E+03  0.16146683440E+03 -0.89021503049E+03  0.91097397198E+03  0.00000000000E+00 0.  1.
          3    1    3    3  501    0  0.10639195967E+03 -0.16146680306E+03 -0.53695050543E+01  0.19344148768E+03  0.00000000000E+00 0.  1.
         21    1    1    2  502  501 -0.49732863078E-04 -0.31338474111E-04  0.35857216447E-03  0.36335857601E-03  0.00000000000E+00 0. -1.
<mgrwt>
<rscale>  1 0.64626763E+03</rscale>
<asrwt>0</asrwt>
<pdfrwt beam="1">  1        1 0.37969470E+00 0.64626763E+03</pdfrwt>
<pdfrwt beam="2">0</pdfrwt>
<totfact> 0.16471993E+00</totfact>
</mgrwt>
</event>
<event>
 6    1  0.2677832E-003  0.6331227E+03  0.7818608E-02  0.9838974E-01
          1   -1    0    0  502    0  0.00000000000E+00  0.00000000000E+00  0.10021380151E+03  0.10021380151E+03  0.00000000000E+00 0.  1.
         13   -1    0    0    0    0 -0.00000000000E+00 -0.00000000000E+00 -0.10000000000E+04  0.10000000000E+04  0.00000000000E+00 0.  1.
    9000005    2    1    2  501    0  0.19302503517E-04 -0.38080574581E-03 -0.89978889652E+03  0.11002110767E+04  0.63312270132E+03 0.  0.
         13    1    3    3    0    0  0.19969844009E+03  0.17225705363E+03 -0.14561838014E+03  0.30125848061E+03  0.00000000000E+00 0.  1.
          3    1    3    3  501    0 -0.19969842079E+03 -0.17225743444E+03 -0.75417051638E+03  0.79895259607E+03  0.00000000000E+00 0.  1.
         21    1    1    2  502  501 -0.19302503503E-04  0.38080574581E-03  0.26980319178E-02  0.27248416159E-02  0.00000000000E+00 0.  1.
<mgrwt>
<rscale>  1 0.63312270E+03</rscale>
<asrwt>0</asrwt>
<pdfrwt beam="1">  1        1 0.36441459E+00 0.63312270E+03</pdfrwt>
<pdfrwt beam="2">0</pdfrwt>
<totfact> 0.19273482E+00</totfact>
</mgrwt>
</event>
<event>
 6    1  0.2677832E-003  0.6445005E+03  0.7818608E-02  0.9817154E-01
          1   -1    0    0  502    0  0.00000000000E+00  0.00000000000E+00  0.10715397584E+03  0.10715397584E+03  0.00000000000E+00 0.  1.
         13   -1    0    0    0    0 -0.00000000000E+00 -0.00000000000E+00 -0.10000000000E+04  0.10000000000E+04  0.00000000000E+00 0.  1.
    9000005    2    1    2  501    0  0.56707794215E-02 -0.15003856478E+00 -0.89615289959E+03  0.11038436936E+04  0.64450047154E+03 0.  0.
         13    1    3    3    0    0 -0.20522990906E+03  0.12717569467E+03 -0.81349510816E+03  0.84856777212E+03  0.00000000000E+00 0.  1.
          3    1    3    3  501    0  0.20523557984E+03 -0.12732573324E+03 -0.82657791427E+02  0.25527592143E+03  0.00000000000E+00 0.  1.
         21    1    1    2  502  501 -0.56707794215E-02  0.15003856478E+00  0.33068754262E+01  0.33102822860E+01  0.00000000000E+00 0. -1.
<mgrwt>
<rscale>  1 0.64450049E+03</rscale>
<asrwt>0</asrwt>
<pdfrwt beam="1">  1        1 0.38965164E+00 0.64450049E+03</pdfrwt>
<pdfrwt beam="2">0</pdfrwt>
<totfact> 0.14888847E+00</totfact>
</mgrwt>
</event>
<event>
 6    1  0.2677832E-003  0.6498954E+03  0.7818608E-02  0.9806975E-01
          1   -1    0    0  502    0  0.00000000000E+00  0.00000000000E+00  0.10559101806E+03  0.10559101806E+03  0.00000000000E+00 0.  1.
         13   -1    0    0    0    0 -0.00000000000E+00 -0.00000000000E+00 -0.10000000000E+04  0.10000000000E+04  0.00000000000E+00 0.  1.
    9000005    2    1    2  501    0 -0.70345492986E-06  0.40399348507E-05 -0.89440898672E+03  0.11055910118E+04  0.64989541447E+03 0.  0.
         13    1    3    3    0    0 -0.12261037023E+03 -0.16250652888E+02  0.63982238679E+02  0.13925197835E+03  0.00000000000E+00 0.  1.
          1    1    3    3  501    0  0.12261036953E+03  0.16250656928E+02 -0.95839122540E+03  0.96633903341E+03  0.00000000000E+00 0.  1.
         21    1    1    2  502  501  0.70345492806E-06 -0.40399348498E-05  0.47813226610E-05  0.62989656941E-05  0.00000000000E+00 0.  1.
<mgrwt>
<rscale>  1 0.64989541E+03</rscale>
<asrwt>0</asrwt>
<pdfrwt beam="1">  1        1 0.38396815E+00 0.64989541E+03</pdfrwt>
<pdfrwt beam="2">0</pdfrwt>
<totfact> 0.15760992E+00</totfact>
</mgrwt>
</event>
<event>
 6    1  0.2677832E-003  0.5741090E+03  0.7818608E-02  0.9960627E-01
          1   -1    0    0  502    0  0.00000000000E+00  0.00000000000E+00  0.82401576105E+02  0.82401576105E+02  0.00000000000E+00 0.  1.
         13   -1    0    0    0    0 -0.00000000000E+00 -0.00000000000E+00 -0.10000000000E+04  0.10000000000E+04  0.00000000000E+00 0.  1.
    9000005    2    1    2  501    0  0.59126935554E-04  0.80722414936E-04 -0.91759970864E+03  0.10824002875E+04  0.57410901146E+03 0.  0.
         13    1    3    3    0    0  0.18134017795E+03  0.21973528684E+03 -0.39261179314E+03  0.48508955517E+03  0.00000000000E+00 0.  1.
          1    1    3    3  501    0 -0.18134011883E+03 -0.21973520612E+03 -0.52498791550E+03  0.59731073230E+03  0.00000000000E+00 0.  1.
         21    1    1    2  502  501 -0.59126935544E-04 -0.80722414929E-04  0.12847405772E-02  0.12886312325E-02  0.00000000000E+00 0. -1.
<mgrwt>
<rscale>  1 0.57410901E+03</rscale>
<asrwt>0</asrwt>
<pdfrwt beam="1">  1        1 0.29964273E+00 0.57410901E+03</pdfrwt>
<pdfrwt beam="2">0</pdfrwt>
<totfact> 0.37199734E+00</totfact>
</mgrwt>
</event>
<event>
 6    1  0.2677832E-003  0.6254903E+03  0.7818608E-02  0.9853889E-01
          3   -1    0    0  502    0  0.00000000000E+00  0.00000000000E+00  0.97873858506E+02  0.97873858506E+02  0.00000000000E+00 0.  1.
         13   -1    0    0    0    0 -0.00000000000E+00 -0.00000000000E+00 -0.10000000000E+04  0.10000000000E+04  0.00000000000E+00 0.  1.
    9000005    2    1    2  501    0 -0.14335958751E-01 -0.20506712548E+00 -0.90181792968E+03  0.10975033824E+04  0.62549025073E+03 0.  0.
         13    1    3    3    0    0 -0.25444746227E+02 -0.15528768585E+03  0.23351228073E+02  0.15908167820E+03  0.00000000000E+00 0.  1.
          1    1    3    3  501    0  0.25430410269E+02  0.15508261872E+03 -0.92516915775E+03  0.93842170416E+03  0.00000000000E+00 0.  1.
         21    1    1    2  502  501  0.14335958751E-01  0.20506712548E+00 -0.30821181808E+00  0.37047614022E+00  0.00000000000E+00 0. -1.
<mgrwt>
<rscale>  1 0.62549028E+03</rscale>
<asrwt>0</asrwt>
<pdfrwt beam="1">  1        3 0.35590569E+00 0.62549028E+03</pdfrwt>
<pdfrwt beam="2">0</pdfrwt>
<totfact> 0.10169100E-01</totfact>
</mgrwt>
</event>
<event>
 6    1  0.2677832E-003  0.6590805E+03  0.7818608E-02  0.9789888E-01
          1   -1    0    0  502    0  0.00000000000E+00  0.00000000000E+00  0.10861889960E+03  0.10861889960E+03  0.00000000000E+00 0.  1.
         13   -1    0    0    0    0 -0.00000000000E+00 -0.00000000000E+00 -0.10000000000E+04  0.10000000000E+04  0.00000000000E+00 0.  1.
    9000005    2    1    2  501    0 -0.73964492535E-03  0.20945128911E-01 -0.89139756881E+03  0.11085922453E+04  0.65908052629E+03 0.  0.
         13    1    3    3    0    0 -0.12190108167E+03  0.28642941105E+03 -0.62765976019E+03  0.70061291437E+03  0.00000000000E+00 0.  1.
          1    1    3    3  501    0  0.12190034202E+03 -0.28640846592E+03 -0.26373780862E+03  0.40797933089E+03  0.00000000000E+00 0.  1.
         21    1    1    2  502  501  0.73964492535E-03 -0.20945128911E-01  0.16468405995E-01  0.26654341030E-01  0.00000000000E+00 0.  1.
<mgrwt>
<rscale>  1 0.65908053E+03</rscale>
<asrwt>0</asrwt>
<pdfrwt beam="1">  1        1 0.39497865E+00 0.65908053E+03</pdfrwt>
<pdfrwt beam="2">0</pdfrwt>
<totfact> 0.14061365E+00</totfact>
</mgrwt>
</event>
<event>
 6    1  0.2677832E-003  0.6497685E+03  0.7818608E-02  0.9807214E-01
          1   -1    0    0  502    0  0.00000000000E+00  0.00000000000E+00  0.10573924833E+03  0.10573924833E+03  0.00000000000E+00 0.  1.
         13   -1    0    0    0    0 -0.00000000000E+00 -0.00000000000E+00 -0.10000000000E+04  0.10000000000E+04  0.00000000000E+00 0.  1.
    9000005    2    1    2  501    0  0.55633466710E-01 -0.11108900480E+00 -0.89442745136E+03  0.11055313430E+04  0.64976847348E+03 0.  0.
         13    1    3    3    0    0  0.32517350410E+02  0.30561129351E+03 -0.62609447646E+03  0.69745962911E+03  0.00000000000E+00 0.  1.
          3    1    3    3  501    0 -0.32461716944E+02 -0.30572238251E+03 -0.26833297490E+03  0.40807171386E+03  0.00000000000E+00 0.  1.
         21    1    1    2  502  501 -0.55633466710E-01  0.11108900480E+00  0.16669968690E+00  0.20790535159E+00  0.00000000000E+00 0.  1.
<mgrwt>
<rscale>  1 0.64976849E+03</rscale>
<asrwt>0</asrwt>
<pdfrwt beam="1">  1        1 0.38450717E+00 0.64976849E+03</pdfrwt>
<pdfrwt beam="2">0</pdfrwt>
<totfact> 0.15675104E+00</totfact>
</mgrwt>
</event>
<event>
 6    1  0.2677832E-003  0.6563067E+03  0.7818608E-02  0.9795017E-01
          3   -1    0    0  502    0  0.00000000000E+00  0.00000000000E+00  0.10768483158E+03  0.10768483158E+03  0.00000000000E+00 0.  1.
         13   -1    0    0    0    0 -0.00000000000E+00 -0.00000000000E+00 -0.10000000000E+04  0.10000000000E+04  0.00000000000E+00 0.  1.
    9000005    2    1    2  501    0  0.64682406247E-04 -0.32817865086E-04 -0.89231537916E+03  0.11076846087E+04  0.65630667869E+03 0.  0.
         13    1    3    3    0    0 -0.17810072052E+03 -0.28318042301E+01 -0.91130698547E+03  0.92855172583E+03  0.00000000000E+00 0.  1.
          3    1    3    3  501    0  0.17810078520E+03  0.28317714123E+01  0.18991606314E+02  0.17913288288E+03  0.00000000000E+00 0.  1.
         21    1    1    2  502  501 -0.64682406262E-04  0.32817865086E-04  0.21074066744E-03  0.22287318112E-03  0.00000000000E+00 0. -1.
<mgrwt>
<rscale>  1 0.65630668E+03</rscale>
<asrwt>0</asrwt>
<pdfrwt beam="1">  1        3 0.39158203E+00 0.65630668E+03</pdfrwt>
<pdfrwt beam="2">0</pdfrwt>
<totfact> 0.65512975E-02</totfact>
</mgrwt>
</event>
<event>
 6    1  0.2677832E-003  0.6520267E+03  0.7818608E-02  0.9802984E-01
          1   -1    0    0  502    0  0.00000000000E+00  0.00000000000E+00  0.10628469943E+03  0.10628469943E+03  0.00000000000E+00 0.  1.
         13   -1    0    0    0    0 -0.00000000000E+00 -0.00000000000E+00 -0.10000000000E+04  0.10000000000E+04  0.00000000000E+00 0.  1.
    9000005    2    1    2  501    0 -0.11969934747E-04  0.11328595122E-04 -0.89371530271E+03  0.11062846828E+04  0.65202665369E+03 0.  0.
         13    1    3    3    0    0 -0.28430976644E+03 -0.14930312531E+02 -0.71635711513E+03  0.77085827097E+03  0.00000000000E+00 0.  1.
          1    1    3    3  501    0  0.28430975447E+03  0.14930323860E+02 -0.17735818758E+03  0.33542641184E+03  0.00000000000E+00 0.  1.
         21    1    1    2  502  501  0.11969934746E-04 -0.11328595122E-04  0.21455878694E-05  0.16619866201E-04  0.00000000000E+00 0. -1.
<mgrwt>
<rscale>  1 0.65202665E+03</rscale>
<asrwt>0</asrwt>
<pdfrwt beam="1">  1        1 0.38649063E+00 0.65202665E+03</pdfrwt>
<pdfrwt beam="2">0</pdfrwt>
<totfact> 0.15355137E+00</totfact>
</mgrwt>
</event>
<event>
 6    1  0.2677832E-003  0.6479895E+03  0.7818608E-02  0.9810559E-01
          1   -1    0    0  502    0  0.00000000000E+00  0.00000000000E+00  0.10516271693E+03  0.10516271693E+03  0.00000000000E+00 0.  1.
         13   -1    0    0    0    0 -0.00000000000E+00 -0.00000000000E+00 -0.10000000000E+04  0.10000000000E+04  0.00000000000E+00 0.  1.
    9000005    2    1    2  501    0  0.27187751899E-02 -0.99911784626E-03 -0.89502738167E+03  0.11049725963E+04  0.64798952503E+03 0.  0.
         13    1    3    3    0    0  0.16430691566E+03  0.39230108427E+02  0.23935883601E+02  0.17061269139E+03  0.00000000000E+00 0.  1.
          3    1    3    3  501    0 -0.16430419688E+03 -0.39231107544E+02 -0.91896326527E+03  0.93435990487E+03  0.00000000000E+00 0.  1.
         21    1    1    2  502  501 -0.27187751899E-02  0.99911784627E-03  0.19009859893E+00  0.19012066508E+00  0.00000000000E+00 0.  1.
<mgrwt>
<rscale>  1 0.64798953E+03</rscale>
<asrwt>0</asrwt>
<pdfrwt beam="1">  1        1 0.38241069E+00 0.64798953E+03</pdfrwt>
<pdfrwt beam="2">0</pdfrwt>
<totfact> 0.16018389E+00</totfact>
</mgrwt>
</event>
<event>
 6    1  0.3678254E-003  0.6573781E+03  0.7818608E-02  0.9793032E-01
          1   -1    0    0  502    0  0.00000000000E+00  0.00000000000E+00  0.10803649825E+03  0.10803649825E+03  0.00000000000E+00 0.  1.
         13   -1    0    0    0    0 -0.00000000000E+00 -0.00000000000E+00 -0.10000000000E+04  0.10000000000E+04  0.00000000000E+00 0.  1.
    9000005    2    1    2  501    0  0.10929858766E-04  0.66472449021E-05 -0.89196350540E+03  0.11080364849E+04  0.65737809288E+03 0.  0.
         13    1    3    3    0    0  0.92478321275E+01 -0.25811508949E+03 -0.78863806971E+03  0.82985476248E+03  0.00000000000E+00 0.  1.
          1    1    3    3  501    0 -0.92478211976E+01  0.25811509614E+03 -0.10332543570E+03  0.27818172246E+03  0.00000000000E+00 0.  1.
         21    1    1    2  502  501 -0.10929858766E-04 -0.66472449431E-05  0.36504357983E-05  0.13303133447E-04  0.00000000000E+00 0. -1.
<mgrwt>
<rscale>  1 0.65737809E+03</rscale>
<asrwt>0</asrwt>
<pdfrwt beam="1">  1        1 0.39286082E+00 0.65737809E+03</pdfrwt>
<pdfrwt beam="2">0</pdfrwt>
<totfact> 0.14373981E+00</totfact>
</mgrwt>
</event>
<event>
 6    1  0.2677832E-003  0.6513131E+03  0.7818608E-02  0.9804318E-01
          1   -1    0    0  502    0  0.00000000000E+00  0.00000000000E+00  0.10605235166E+03  0.10605235166E+03  0.00000000000E+00 0.  1.
         13   -1    0    0    0    0 -0.00000000000E+00 -0.00000000000E+00 -0.10000000000E+04  0.10000000000E+04  0.00000000000E+00 0.  1.
    9000005    2    1    2  501    0  0.23356963874E-03 -0.32293305154E-03 -0.89394746014E+03  0.11060519109E+04  0.65131311067E+03 0.  0.
         13    1    3    3    0    0 -0.29687413370E+03  0.12931877259E+03 -0.50566510159E+03  0.60046214799E+03  0.00000000000E+00 0.  1.
          1    1    3    3  501    0  0.29687436726E+03 -0.12931909552E+03 -0.38828235856E+03  0.50558976292E+03  0.00000000000E+00 0.  1.
         21    1    1    2  502  501 -0.23356963878E-03  0.32293305154E-03 -0.18820178222E-03  0.44074986417E-03  0.00000000000E+00 0.  1.
<mgrwt>
<rscale>  1 0.65131311E+03</rscale>
<asrwt>0</asrwt>
<pdfrwt beam="1">  1        1 0.38564573E+00 0.65131311E+03</pdfrwt>
<pdfrwt beam="2">0</pdfrwt>
<totfact> 0.15489958E+00</totfact>
</mgrwt>
</event>
<event>
 6    1  0.2677832E-003  0.6411389E+03  0.7818608E-02  0.9823550E-01
          1   -1    0    0  502    0  0.00000000000E+00  0.00000000000E+00  0.10478886045E+03  0.10478886045E+03  0.00000000000E+00 0.  1.
         13   -1    0    0    0    0 -0.00000000000E+00 -0.00000000000E+00 -0.10000000000E+04  0.10000000000E+04  0.00000000000E+00 0.  1.
    9000005    2    1    2  501    0  0.74843245276E-01 -0.78148855092E-01 -0.89723362694E+03  0.11027634805E+04  0.64113890920E+03 0.  0.
         13    1    3    3    0    0  0.11701273222E+03  0.21576499617E+03 -0.80323001658E+03  0.83989581057E+03  0.00000000000E+00 0.  1.
          1    1    3    3  501    0 -0.11693788898E+03 -0.21584314502E+03 -0.94003610355E+02  0.26286766992E+03  0.00000000000E+00 0.  1.
         21    1    1    2  502  501 -0.74843245276E-01  0.78148855092E-01  0.20224873889E+01  0.20253799627E+01  0.00000000000E+00 0. -1.
<mgrwt>
<rscale>  1 0.64113892E+03</rscale>
<asrwt>0</asrwt>
<pdfrwt beam="1">  1        1 0.38105121E+00 0.64113892E+03</pdfrwt>
<pdfrwt beam="2">0</pdfrwt>
<totfact> 0.16261914E+00</totfact>
</mgrwt>
</event>
<event>
 6    1  0.2677832E-003  0.6431314E+03  0.7818608E-02  0.9819754E-01
          1   -1    0    0  502    0  0.00000000000E+00  0.00000000000E+00  0.10340456635E+03  0.10340456635E+03  0.00000000000E+00 0.  1.
         13   -1    0    0    0    0 -0.00000000000E+00 -0.00000000000E+00 -0.10000000000E+04  0.10000000000E+04  0.00000000000E+00 0.  1.
    9000005    2    1    2  501    0 -0.12618899433E-04  0.11097857850E-05 -0.89659548686E+03  0.11034045116E+04  0.64313144011E+03 0.  0.
         13    1    3    3    0    0 -0.16934438841E+03 -0.27211429251E+03 -0.40353197436E+03  0.51532685201E+03  0.00000000000E+00 0.  1.
          3    1    3    3  501    0  0.16934437579E+03  0.27211429362E+03 -0.49306351251E+03  0.58807765964E+03  0.00000000000E+00 0.  1.
         21    1    1    2  502  501  0.12618899439E-04 -0.11097857972E-05  0.53215510408E-04  0.54702456942E-04  0.00000000000E+00 0. -1.
<mgrwt>
<rscale>  1 0.64313144E+03</rscale>
<asrwt>0</asrwt>
<pdfrwt beam="1">  1        1 0.37601740E+00 0.64313144E+03</pdfrwt>
<pdfrwt beam="2">0</pdfrwt>
<totfact> 0.17108205E+00</totfact>
</mgrwt>
</event>
<event>
 6    1  0.2677832E-003  0.6374101E+03  0.7818608E-02  0.9830694E-01
          3   -1    0    0  502    0  0.00000000000E+00  0.00000000000E+00  0.10205531622E+03  0.10205531622E+03  0.00000000000E+00 0.  1.
         13   -1    0    0    0    0 -0.00000000000E+00 -0.00000000000E+00 -0.10000000000E+04  0.10000000000E+04  0.00000000000E+00 0.  1.
    9000005    2    1    2  501    0  0.49169775256E+00  0.21409274724E+00 -0.89825742076E+03  0.11014345048E+04  0.63740982643E+03 0.  0.
         13    1    3    3    0    0 -0.26852295364E+02 -0.30810173469E+03 -0.58107214130E+03  0.65824961685E+03  0.00000000000E+00 0.  1.
          3    1    3    3  501    0  0.27343993116E+02  0.30831582744E+03 -0.31718527946E+03  0.44318488796E+03  0.00000000000E+00 0.  1.
         21    1    1    2  502  501 -0.49169775256E+00 -0.21409274724E+00  0.31273698339E+00  0.62081140862E+00  0.00000000000E+00 0. -1.
<mgrwt>
<rscale>  1 0.63741005E+03</rscale>
<asrwt>0</asrwt>
<pdfrwt beam="1">  1        3 0.37111102E+00 0.63741005E+03</pdfrwt>
<pdfrwt beam="2">0</pdfrwt>
<totfact> 0.84283193E-02</totfact>
</mgrwt>
</event>
<event>
 6    1  0.2677832E-003  0.6571396E+03  0.7818608E-02  0.9793474E-01
          1   -1    0    0  502    0  0.00000000000E+00  0.00000000000E+00  0.10798544183E+03  0.10798544183E+03  0.00000000000E+00 0.  1.
         13   -1    0    0    0    0 -0.00000000000E+00 -0.00000000000E+00 -0.10000000000E+04  0.10000000000E+04  0.00000000000E+00 0.  1.
    9000005    2    1    2  501    0  0.53089037723E-03  0.63196550008E-03 -0.89204186547E+03  0.11079581221E+04  0.65713964307E+03 0.  0.
         13    1    3    3    0    0 -0.22813554084E+03 -0.65385634253E+02 -0.62891102786E+02  0.24551251897E+03  0.00000000000E+00 0.  1.
          1    1    3    3  501    0  0.22813607173E+03  0.65386266218E+02 -0.82915076268E+03  0.86244560309E+03  0.00000000000E+00 0.  1.
         21    1    1    2  502  501 -0.53089037724E-03 -0.63196550008E-03  0.27307298334E-01  0.27319768800E-01  0.00000000000E+00 0.  1.
<mgrwt>
<rscale>  1 0.65713964E+03</rscale>
<asrwt>0</asrwt>
<pdfrwt beam="1">  1        1 0.39267516E+00 0.65713964E+03</pdfrwt>
<pdfrwt beam="2">0</pdfrwt>
<totfact> 0.14401936E+00</totfact>
</mgrwt>
</event>
<event>
 6    1  0.2677832E-003  0.6483853E+03  0.7818608E-02  0.9809814E-01
          1   -1    0    0  502    0  0.00000000000E+00  0.00000000000E+00  0.10510104719E+03  0.10510104719E+03  0.00000000000E+00 0.  1.
         13   -1    0    0    0    0 -0.00000000000E+00 -0.00000000000E+00 -0.10000000000E+04  0.10000000000E+04  0.00000000000E+00 0.  1.
    9000005    2    1    2  501    0 -0.22866080155E-03 -0.32281995362E-03 -0.89489886736E+03  0.11051006425E+04  0.64838526139E+03 0.  0.
         13    1    3    3    0    0 -0.19547082090E+03 -0.25859586562E+03 -0.43976549589E+03  0.54632806529E+03  0.00000000000E+00 0.  1.
          1    1    3    3  501    0  0.19547059224E+03  0.25859554280E+03 -0.45513337147E+03  0.55877257718E+03  0.00000000000E+00 0.  1.
         21    1    1    2  502  501  0.22866080155E-03  0.32281995357E-03 -0.85449385963E-04  0.40472222839E-03  0.00000000000E+00 0.  1.
<mgrwt>
<rscale>  1 0.64838526E+03</rscale>
<asrwt>0</asrwt>
<pdfrwt beam="1">  1        1 0.38218643E+00 0.64838526E+03</pdfrwt>
<pdfrwt beam="2">0</pdfrwt>
<totfact> 0.16053797E+00</totfact>
</mgrwt>
</event>
<event>
 6    1  0.2677832E-003  0.6507283E+03  0.7818608E-02  0.9805413E-01
          1   -1    0    0  502    0  0.00000000000E+00  0.00000000000E+00  0.10780892465E+03  0.10780892465E+03  0.00000000000E+00 0.  1.
         13   -1    0    0    0    0 -0.00000000000E+00 -0.00000000000E+00 -0.10000000000E+04  0.10000000000E+04  0.00000000000E+00 0.  1.
    9000005    2    1    2  501    0 -0.64937296907E+00 -0.35292044464E+01 -0.89210608268E+03  0.11042194688E+04  0.65071844574E+03 0.  0.
         13    1    3    3    0    0  0.43255285874E+02 -0.22870777471E+03 -0.59029645730E+02  0.24013072491E+03  0.00000000000E+00 0.  1.
          3    1    3    3  501    0 -0.43904658843E+02  0.22517857026E+03 -0.83307643695E+03  0.86408874393E+03  0.00000000000E+00 0.  1.
         21    1    1    2  502  501  0.64937296907E+00  0.35292044464E+01 -0.84992667550E-01  0.35894558127E+01  0.00000000000E+00 0.  1.
<mgrwt>
<rscale>  1 0.65072834E+03</rscale>
<asrwt>0</asrwt>
<pdfrwt beam="1">  1        1 0.39203328E+00 0.65072834E+03</pdfrwt>
<pdfrwt beam="2">0</pdfrwt>
<totfact> 0.14514099E+00</totfact>
</mgrwt>
</event>
<event>
 6    1  0.2677832E-003  0.6286822E+03  0.7818608E-02  0.9847624E-01
          1   -1    0    0  502    0  0.00000000000E+00  0.00000000000E+00  0.99002818516E+02  0.99002818516E+02  0.00000000000E+00 0.  1.
         13   -1    0    0    0    0 -0.00000000000E+00 -0.00000000000E+00 -0.10000000000E+04  0.10000000000E+04  0.00000000000E+00 0.  1.
    9000005    2    1    2  501    0  0.51110246145E-01  0.45001547308E-01 -0.90118302256E+03  0.10988048935E+04  0.62868223234E+03 0.  0.
         13    1    3    3    0    0 -0.21798697046E+03 -0.14188068571E+03 -0.14210556208E+03  0.29638225156E+03  0.00000000000E+00 0.  1.
          3    1    3    3  501    0  0.21803808071E+03  0.14192568725E+03 -0.75907746047E+03  0.80242264197E+03  0.00000000000E+00 0.  1.
         21    1    1    2  502  501 -0.51110246145E-01 -0.45001547308E-01  0.18584107188E+00  0.19792498710E+00  0.00000000000E+00 0. -1.
<mgrwt>
<rscale>  1 0.62868224E+03</rscale>
<asrwt>0</asrwt>
<pdfrwt beam="1">  1        1 0.36001101E+00 0.62868224E+03</pdfrwt>
<pdfrwt beam="2">0</pdfrwt>
<totfact> 0.20164379E+00</totfact>
</mgrwt>
</event>
<event>
 6    1  0.2677832E-003  0.6590185E+03  0.7818608E-02  0.9790002E-01
          1   -1    0    0  502    0  0.00000000000E+00  0.00000000000E+00  0.10857886571E+03  0.10857886571E+03  0.00000000000E+00 0.  1.
         13   -1    0    0    0    0 -0.00000000000E+00 -0.00000000000E+00 -0.10000000000E+04  0.10000000000E+04  0.00000000000E+00 0.  1.
    9000005    2    1    2  501    0 -0.86015882658E-04 -0.52238704153E-04 -0.89142364057E+03  0.11085763574E+04  0.65901853786E+03 0.  0.
         13    1    3    3    0    0 -0.23466861537E+03  0.69830280931E+01 -0.83464538241E+03  0.86703577556E+03  0.00000000000E+00 0.  1.
          1    1    3    3  501    0  0.23466852936E+03 -0.69830803318E+01 -0.56778258159E+02  0.24154058185E+03  0.00000000000E+00 0.  1.
         21    1    1    2  502  501  0.86015882666E-04  0.52238704154E-04  0.25062841485E-02  0.25083037789E-02  0.00000000000E+00 0. -1.
<mgrwt>
<rscale>  1 0.65901854E+03</rscale>
<asrwt>0</asrwt>
<pdfrwt beam="1">  1        1 0.39483307E+00 0.65901854E+03</pdfrwt>
<pdfrwt beam="2">0</pdfrwt>
<totfact> 0.14082502E+00</totfact>
</mgrwt>
</event>
<event>
 6    1  0.2677832E-003  0.6277045E+03  0.7818608E-02  0.9849539E-01
          1   -1    0    0  502    0  0.00000000000E+00  0.00000000000E+00  0.98601000855E+02  0.98601000855E+02  0.00000000000E+00 0.  1.
         13   -1    0    0    0    0 -0.00000000000E+00 -0.00000000000E+00 -0.10000000000E+04  0.10000000000E+04  0.00000000000E+00 0.  1.
    9000005    2    1    2  501    0  0.11495716680E-01 -0.90489127322E-02 -0.90149617500E+03  0.10985027299E+04  0.62770446377E+03 0.  0.
         13    1    3    3    0    0 -0.26412534756E+02  0.28027068818E+03 -0.20792758492E+03  0.34997594376E+03  0.00000000000E+00 0.  1.
          1    1    3    3  501    0  0.26424030473E+02 -0.28027973709E+03 -0.69356859008E+03  0.74852678613E+03  0.00000000000E+00 0.  1.
         21    1    1    2  502  501 -0.11495716680E-01  0.90489127322E-02  0.97175855680E-01  0.98270958328E-01  0.00000000000E+00 0.  1.
<mgrwt>
<rscale>  1 0.62770446E+03</rscale>
<asrwt>0</asrwt>
<pdfrwt beam="1">  1        1 0.35854985E+00 0.62770446E+03</pdfrwt>
<pdfrwt beam="2">0</pdfrwt>
<totfact> 0.20466796E+00</totfact>
</mgrwt>
</event>
<event>
 6    1  0.2677832E-003  0.6464530E+03  0.7818608E-02  0.9813458E-01
          3   -1    0    0  502    0  0.00000000000E+00  0.00000000000E+00  0.10451494800E+03  0.10451494800E+03  0.00000000000E+00 0.  1.
         13   -1    0    0    0    0 -0.00000000000E+00 -0.00000000000E+00 -0.10000000000E+04  0.10000000000E+04  0.00000000000E+00 0.  1.
    9000005    2    1    2  501    0  0.12751839343E-01 -0.39722132106E-02 -0.89552337815E+03  0.11044743613E+04  0.64645300968E+03 0.  0.
         13    1    3    3    0    0 -0.24738415979E+03 -0.59968246873E+01 -0.92493392193E+02  0.26417780380E+03  0.00000000000E+00 0.  1.
          1    1    3    3  501    0  0.24739691163E+03  0.59928524741E+01 -0.80302998596E+03  0.84029655748E+03  0.00000000000E+00 0.  1.
         21    1    1    2  502  501 -0.12751839343E-01  0.39722132106E-02  0.38326158589E-01  0.40586725867E-01  0.00000000000E+00 0. -1.
<mgrwt>
<rscale>  1 0.64645301E+03</rscale>
<asrwt>0</asrwt>
<pdfrwt beam="1">  1        3 0.38005516E+00 0.64645301E+03</pdfrwt>
<pdfrwt beam="2">0</pdfrwt>
<totfact> 0.75472812E-02</totfact>
</mgrwt>
</event>
<event>
 6    1  0.2677832E-003  0.6440178E+03  0.7818608E-02  0.9818070E-01
          1   -1    0    0  502    0  0.00000000000E+00  0.00000000000E+00  0.11462324048E+03  0.11462324048E+03  0.00000000000E+00 0.  1.
         13   -1    0    0    0    0 -0.00000000000E+00 -0.00000000000E+00 -0.10000000000E+04  0.10000000000E+04  0.00000000000E+00 0.  1.
    9000005    2    1    2  501    0  0.55658180794E+01 -0.29772566796E+02 -0.86371076577E+03  0.10773834855E+04  0.64330514057E+03 0.  0.
         13    1    3    3    0    0 -0.88355371699E+02 -0.32233622198E+03 -0.40227922160E+03  0.52300658107E+03  0.00000000000E+00 0.  1.
          1    1    3    3  501    0  0.93921189779E+02  0.29256365519E+03 -0.46143154418E+03  0.55437690445E+03  0.00000000000E+00 0.  1.
         21    1    1    2  502  501 -0.55658180794E+01  0.29772566796E+02 -0.21665993749E+02  0.37239754962E+02  0.00000000000E+00 0.  1.
<mgrwt>
<rscale>  1 0.64401777E+03</rscale>
<asrwt>0</asrwt>
<pdfrwt beam="1">  1        1 0.41681266E+00 0.64401777E+03</pdfrwt>
<pdfrwt beam="2">0</pdfrwt>
<totfact> 0.11262361E+00</totfact>
</mgrwt>
</event>
<event>
 6    1  0.2677832E-003  0.6535920E+03  0.7818608E-02  0.9800062E-01
          1   -1    0    0  502    0  0.00000000000E+00  0.00000000000E+00  0.10755702760E+03  0.10755702760E+03  0.00000000000E+00 0.  1.
         13   -1    0    0    0    0 -0.00000000000E+00 -0.00000000000E+00 -0.10000000000E+04  0.10000000000E+04  0.00000000000E+00 0.  1.
    9000005    2    1    2  501    0  0.56672764111E+00 -0.51350116230E+00 -0.89298574863E+03  0.11066192271E+04  0.65359160165E+03 0.  0.
         13    1    3    3    0    0 -0.31819338675E+03  0.69654822448E+02 -0.40892509590E+03  0.52279877555E+03  0.00000000000E+00 0.  1.
          1    1    3    3  501    0  0.31876011439E+03 -0.70168323610E+02 -0.48406065273E+03  0.58382045158E+03  0.00000000000E+00 0.  1.
         21    1    1    2  502  501 -0.56672764111E+00  0.51350116230E+00  0.54277622914E+00  0.93780045735E+00  0.00000000000E+00 0.  1.
<mgrwt>
<rscale>  1 0.65359205E+03</rscale>
<asrwt>0</asrwt>
<pdfrwt beam="1">  1        1 0.39111729E+00 0.65359205E+03</pdfrwt>
<pdfrwt beam="2">0</pdfrwt>
<totfact> 0.14642762E+00</totfact>
</mgrwt>
</event>
<event>
 6    1  0.2677832E-003  0.6453529E+03  0.7818608E-02  0.9815538E-01
          1   -1    0    0  502    0  0.00000000000E+00  0.00000000000E+00  0.10412098274E+03  0.10412098274E+03  0.00000000000E+00 0.  1.
         13   -1    0    0    0    0 -0.00000000000E+00 -0.00000000000E+00 -0.10000000000E+04  0.10000000000E+04  0.00000000000E+00 0.  1.
    9000005    2    1    2  501    0 -0.55481697444E-04  0.11451076148E-04 -0.89587990772E+03  0.11041200905E+04  0.64535289971E+03 0.  0.
         13    1    3    3    0    0  0.24282933883E+03 -0.13117178161E+03 -0.73395836762E+03  0.78413456083E+03  0.00000000000E+00 0.  1.
          1    1    3    3  501    0 -0.24282939432E+03  0.13117179306E+03 -0.16192154009E+03  0.31998552965E+03  0.00000000000E+00 0.  1.
         21    1    1    2  502  501  0.55481697442E-04 -0.11451076167E-04  0.89045728235E-03  0.89225753995E-03  0.00000000000E+00 0. -1.
<mgrwt>
<rscale>  1 0.64535290E+03</rscale>
<asrwt>0</asrwt>
<pdfrwt beam="1">  1        1 0.37862255E+00 0.64535290E+03</pdfrwt>
<pdfrwt beam="2">0</pdfrwt>
<totfact> 0.16655120E+00</totfact>
</mgrwt>
</event>
<event>
 6    1  0.2677832E-003  0.6518172E+03  0.7818608E-02  0.9803375E-01
          1   -1    0    0  502    0  0.00000000000E+00  0.00000000000E+00  0.10623207457E+03  0.10623207457E+03  0.00000000000E+00 0.  1.
         13   -1    0    0    0    0 -0.00000000000E+00 -0.00000000000E+00 -0.10000000000E+04  0.10000000000E+04  0.00000000000E+00 0.  1.
    9000005    2    1    2  501    0  0.17105447309E-03  0.18409302720E-03 -0.89378357489E+03  0.11062164231E+04  0.65181722589E+03 0.  0.
         13    1    3    3    0    0 -0.11576818113E+03  0.93317552681E+02  0.45292472788E+02  0.15544081025E+03  0.00000000000E+00 0.  1.
          3    1    3    3  501    0  0.11576835218E+03 -0.93317368588E+02 -0.93907604768E+03  0.95077561284E+03  0.00000000000E+00 0.  1.
         21    1    1    2  502  501 -0.17105447309E-03 -0.18409302721E-03  0.15649459988E-01  0.15651477495E-01  0.00000000000E+00 0.  1.
<mgrwt>
<rscale>  1 0.65181723E+03</rscale>
<asrwt>0</asrwt>
<pdfrwt beam="1">  1        1 0.38629927E+00 0.65181723E+03</pdfrwt>
<pdfrwt beam="2">0</pdfrwt>
<totfact> 0.15385711E+00</totfact>
</mgrwt>
</event>
<event>
 6    1  0.2677832E-003  0.6611386E+03  0.7818608E-02  0.9786100E-01
          1   -1    0    0  502    0  0.00000000000E+00  0.00000000000E+00  0.10928164922E+03  0.10928164922E+03  0.00000000000E+00 0.  1.
         13   -1    0    0    0    0 -0.00000000000E+00 -0.00000000000E+00 -0.10000000000E+04  0.10000000000E+04  0.00000000000E+00 0.  1.
    9000005    2    1    2  501    0  0.10489530462E-02 -0.44206474490E-03 -0.89072388390E+03  0.11092760002E+04  0.66113856894E+03 0.  0.
         13    1    3    3    0    0 -0.11198011786E+03  0.29072788618E+03 -0.25993648915E+03  0.40574527599E+03  0.00000000000E+00 0.  1.
          3    1    3    3  501    0  0.11198116682E+03 -0.29072832825E+03 -0.63078739475E+03  0.70353072423E+03  0.00000000000E+00 0.  1.
         21    1    1    2  502  501 -0.10489530462E-02  0.44206474490E-03  0.55331177221E-02  0.56489924286E-02  0.00000000000E+00 0. -1.
<mgrwt>
<rscale>  1 0.66113857E+03</rscale>
<asrwt>0</asrwt>
<pdfrwt beam="1">  1        1 0.39738865E+00 0.66113857E+03</pdfrwt>
<pdfrwt beam="2">0</pdfrwt>
<totfact> 0.13713141E+00</totfact>
</mgrwt>
</event>
<event>
 6    1  0.2677832E-003  0.6506439E+03  0.7818608E-02  0.9805572E-01
          1   -1    0    0  502    0  0.00000000000E+00  0.00000000000E+00  0.10584197442E+03  0.10584197442E+03  0.00000000000E+00 0.  1.
         13   -1    0    0    0    0 -0.00000000000E+00 -0.00000000000E+00 -0.10000000000E+04  0.10000000000E+04  0.00000000000E+00 0.  1.
    9000005    2    1    2  501    0  0.30131533367E-03 -0.23028974174E-02 -0.89416541800E+03  0.11058342257E+04  0.65064394262E+03 0.  0.
         13    1    3    3    0    0 -0.26454370705E+03  0.15008822620E+02 -0.12628721586E+03  0.29352529463E+03  0.00000000000E+00 0.  1.
          3    1    3    3  501    0  0.26454400836E+03 -0.15011125518E+02 -0.76787820214E+03  0.81230893112E+03  0.00000000000E+00 0.  1.
         21    1    1    2  502  501 -0.30131533367E-03  0.23028974174E-02  0.73924184100E-02  0.77486758478E-02  0.00000000000E+00 0. -1.
<mgrwt>
<rscale>  1 0.65064394E+03</rscale>
<asrwt>0</asrwt>
<pdfrwt beam="1">  1        1 0.38488072E+00 0.65064394E+03</pdfrwt>
<pdfrwt beam="2">0</pdfrwt>
<totfact> 0.15613066E+00</totfact>
</mgrwt>
</event>
<event>
 6    1  0.2677832E-003  0.6574979E+03  0.7818608E-02  0.9792811E-01
          1   -1    0    0  502    0  0.00000000000E+00  0.00000000000E+00  0.10950378521E+03  0.10950378521E+03  0.00000000000E+00 0.  1.
         13   -1    0    0    0    0 -0.00000000000E+00 -0.00000000000E+00 -0.10000000000E+04  0.10000000000E+04  0.00000000000E+00 0.  1.
    9000005    2    1    2  501    0 -0.16586593871E+01 -0.25680755332E+01 -0.88980267711E+03  0.11063689555E+04  0.65749077203E+03 0.  0.
         13    1    3    3    0    0  0.24085541239E+03  0.13235137685E+03 -0.14327922066E+03  0.30993088214E+03  0.00000000000E+00 0.  1.
          3    1    3    3  501    0 -0.24251407177E+03 -0.13491945239E+03 -0.74652345645E+03  0.79643807335E+03  0.00000000000E+00 0.  1.
         21    1    1    2  502  501  0.16586593871E+01  0.25680755332E+01 -0.69353767905E+00  0.31348297273E+01  0.00000000000E+00 0.  1.
<mgrwt>
<rscale>  1 0.65749788E+03</rscale>
<asrwt>0</asrwt>
<pdfrwt beam="1">  1        1 0.39819642E+00 0.65749788E+03</pdfrwt>
<pdfrwt beam="2">0</pdfrwt>
<totfact> 0.13609291E+00</totfact>
</mgrwt>
</event>
<event>
 6    1  0.2677832E-003  0.6524476E+03  0.7818608E-02  0.9802197E-01
          1   -1    0    0  502    0  0.00000000000E+00  0.00000000000E+00  0.10651167573E+03  0.10651167573E+03  0.00000000000E+00 0.  1.
         13   -1    0    0    0    0 -0.00000000000E+00 -0.00000000000E+00 -0.10000000000E+04  0.10000000000E+04  0.00000000000E+00 0.  1.
    9000005    2    1    2  501    0 -0.45216106199E-02  0.47240713500E-02 -0.89357788801E+03  0.11064218736E+04  0.65244763802E+03 0.  0.
         13    1    3    3    0    0  0.31122085481E+03 -0.91141149689E+02 -0.50686082851E+03  0.60172504445E+03  0.00000000000E+00 0.  1.
          3    1    3    3  501    0 -0.31122537642E+03  0.91145873761E+02 -0.38671705950E+03  0.50469682914E+03  0.00000000000E+00 0.  1.
         21    1    1    2  502  501  0.45216106199E-02 -0.47240713500E-02  0.89563738819E-01  0.89802144317E-01  0.00000000000E+00 0.  1.
<mgrwt>
<rscale>  1 0.65244764E+03</rscale>
<asrwt>0</asrwt>
<pdfrwt beam="1">  1        1 0.38731600E+00 0.65244764E+03</pdfrwt>
<pdfrwt beam="2">0</pdfrwt>
<totfact> 0.15225287E+00</totfact>
</mgrwt>
</event>
<event>
 6    1  0.2677832E-003  0.6419792E+03  0.7818608E-02  0.9821947E-01
          1   -1    0    0  502    0  0.00000000000E+00  0.00000000000E+00  0.10401071718E+03  0.10401071718E+03  0.00000000000E+00 0.  1.
         13   -1    0    0    0    0 -0.00000000000E+00 -0.00000000000E+00 -0.10000000000E+04  0.10000000000E+04  0.00000000000E+00 0.  1.
    9000005    2    1    2  501    0 -0.39914977344E-01 -0.23244098805E+00 -0.89694993247E+03  0.11030215409E+04  0.64197919175E+03 0.  0.
         13    1    3    3    0    0 -0.31607170502E+03 -0.54404738652E+02 -0.42433056905E+03  0.53190001892E+03  0.00000000000E+00 0.  1.
          3    1    3    3  501    0  0.31603179004E+03  0.54172297664E+02 -0.47261936342E+03  0.57112152195E+03  0.00000000000E+00 0.  1.
         21    1    1    2  502  501  0.39914977344E-01  0.23244098805E+00  0.96064964575E+00  0.98917630392E+00  0.00000000000E+00 0. -1.
<mgrwt>
<rscale>  1 0.64197924E+03</rscale>
<asrwt>0</asrwt>
<pdfrwt beam="1">  1        1 0.37822159E+00 0.64197924E+03</pdfrwt>
<pdfrwt beam="2">0</pdfrwt>
<totfact> 0.16733426E+00</totfact>
</mgrwt>
</event>
<event>
 6    1  0.2677832E-003  0.5445022E+03  0.7818608E-02  0.1002775E+00
          1   -1    0    0  502    0  0.00000000000E+00  0.00000000000E+00  0.86926592222E+02  0.86926592222E+02  0.00000000000E+00 0.  1.
         13   -1    0    0    0    0 -0.00000000000E+00 -0.00000000000E+00 -0.10000000000E+04  0.10000000000E+04  0.00000000000E+00 0.  1.
    9000005    2    1    2  501    0 -0.38626220343E+00 -0.13415115449E+00 -0.92587583623E+03  0.10741176356E+04  0.54450203290E+03 0.  0.
         13    1    3    3    0    0  0.16706894062E+03 -0.86910849389E+01 -0.39331146530E+02  0.17185605885E+03  0.00000000000E+00 0.  1.
          3    1    3    3  501    0 -0.16745520282E+03  0.85569337845E+01 -0.88654468970E+03  0.90226157676E+03  0.00000000000E+00 0.  1.
         21    1    1    2  502  501  0.38626220343E+00  0.13415115449E+00  0.12802428453E+02  0.12808956606E+02  0.00000000000E+00 0. -1.
<mgrwt>
<rscale>  1 0.54450219E+03</rscale>
<asrwt>0</asrwt>
<pdfrwt beam="1">  1        1 0.31609737E+00 0.54450219E+03</pdfrwt>
<pdfrwt beam="2">0</pdfrwt>
<totfact> 0.31765765E+00</totfact>
</mgrwt>
</event>
<event>
 6    1  0.2677832E-003  0.5722155E+03  0.7818608E-02  0.9964788E-01
          1   -1    0    0  502    0  0.00000000000E+00  0.00000000000E+00  0.83101827665E+02  0.83101827665E+02  0.00000000000E+00 0.  1.
         13   -1    0    0    0    0 -0.00000000000E+00 -0.00000000000E+00 -0.10000000000E+04  0.10000000000E+04  0.00000000000E+00 0.  1.
    9000005    2    1    2  501    0  0.42359923367E-02  0.61990430991E-01 -0.91814152356E+03  0.10818569248E+04  0.57221547050E+03 0.  0.
         13    1    3    3    0    0 -0.43774129593E+01  0.26106652181E+03 -0.68040173176E+03  0.72878076754E+03  0.00000000000E+00 0.  1.
          3    1    3    3  501    0  0.43816489516E+01 -0.26100453138E+03 -0.23773979181E+03  0.35307615731E+03  0.00000000000E+00 0.  1.
         21    1    1    2  502  501 -0.42359923367E-02 -0.61990430991E-01  0.12433512289E+01  0.12449028217E+01  0.00000000000E+00 0.  1.
<mgrwt>
<rscale>  1 0.57221547E+03</rscale>
<asrwt>0</asrwt>
<pdfrwt beam="1">  1        1 0.30218910E+00 0.57221547E+03</pdfrwt>
<pdfrwt beam="2">0</pdfrwt>
<totfact> 0.36282824E+00</totfact>
</mgrwt>
</event>
<event>
 6    1  0.2677832E-003  0.6732635E+03  0.7818608E-02  0.9764080E-01
          1   -1    0    0  502    0  0.00000000000E+00  0.00000000000E+00  0.11344013899E+03  0.11344013899E+03  0.00000000000E+00 0.  1.
         13   -1    0    0    0    0 -0.00000000000E+00 -0.00000000000E+00 -0.10000000000E+04  0.10000000000E+04  0.00000000000E+00 0.  1.
    9000005    2    1    2  501    0  0.76197417302E-01  0.58908147842E-01 -0.88665700928E+03  0.11133033399E+04  0.67326344410E+03 0.  0.
         13    1    3    3    0    0 -0.17233245895E+03  0.15880805665E+03 -0.43717020044E+02  0.23838970847E+03  0.00000000000E+00 0.  1.
          3    1    3    3  501    0  0.17240865636E+03 -0.15874914850E+03 -0.84293998923E+03  0.87491363139E+03  0.00000000000E+00 0.  1.
         21    1    1    2  502  501 -0.76197417302E-01 -0.58908147842E-01  0.97148269338E-01  0.13679913202E+00  0.00000000000E+00 0.  1.
<mgrwt>
<rscale>  1 0.67326345E+03</rscale>
<asrwt>0</asrwt>
<pdfrwt beam="1">  1        1 0.41251047E+00 0.67326345E+03</pdfrwt>
<pdfrwt beam="2">0</pdfrwt>
<totfact> 0.11708914E+00</totfact>
</mgrwt>
</event>
<event>
 6    1  0.2677832E-003  0.6560950E+03  0.7818608E-02  0.9795409E-01
          3   -1    0    0  502    0  0.00000000000E+00  0.00000000000E+00  0.10828166449E+03  0.10828166449E+03  0.00000000000E+00 0.  1.
         13   -1    0    0    0    0 -0.00000000000E+00 -0.00000000000E+00 -0.10000000000E+04  0.10000000000E+04  0.00000000000E+00 0.  1.
    9000005    2    1    2  501    0  0.42763675707E+00 -0.10037621325E+01 -0.89184823952E+03  0.11071828985E+04  0.65609412284E+03 0.  0.
         13    1    3    3    0    0 -0.10954138543E+03 -0.26682132880E+03 -0.18147150886E+03  0.34077095703E+03  0.00000000000E+00 0.  1.
          1    1    3    3  501    0  0.10996902219E+03  0.26581756667E+03 -0.71037673066E+03  0.76641194149E+03  0.00000000000E+00 0.  1.
         21    1    1    2  502  501 -0.42763675707E+00  0.10037621325E+01  0.12990401493E+00  0.10987659750E+01  0.00000000000E+00 0. -1.
<mgrwt>
<rscale>  1 0.65609503E+03</rscale>
<asrwt>0</asrwt>
<pdfrwt beam="1">  1        3 0.39375234E+00 0.65609503E+03</pdfrwt>
<pdfrwt beam="2">0</pdfrwt>
<totfact> 0.63817020E-02</totfact>
</mgrwt>
</event>
<event>
 6    1  0.2677832E-003  0.6485953E+03  0.7818608E-02  0.9809419E-01
          1   -1    0    0  502    0  0.00000000000E+00  0.00000000000E+00  0.10517198837E+03  0.10517198837E+03  0.00000000000E+00 0.  1.
         13   -1    0    0    0    0 -0.00000000000E+00 -0.00000000000E+00 -0.10000000000E+04  0.10000000000E+04  0.00000000000E+00 0.  1.
    9000005    2    1    2  501    0  0.11018980803E-03  0.10149744230E-03 -0.89483103981E+03  0.11051689565E+04  0.64859527639E+03 0.  0.
         13    1    3    3    0    0 -0.83251720837E+02 -0.26384799312E+03 -0.15914027530E+03  0.31917430930E+03  0.00000000000E+00 0.  1.
          3    1    3    3  501    0  0.83251831027E+02  0.26384809462E+03 -0.73569076452E+03  0.78599464718E+03  0.00000000000E+00 0.  1.
         21    1    1    2  502  501 -0.11018980803E-03 -0.10149744232E-03  0.30281882447E-02  0.30318917477E-02  0.00000000000E+00 0.  1.
<mgrwt>
<rscale>  1 0.64859528E+03</rscale>
<asrwt>0</asrwt>
<pdfrwt beam="1">  1        1 0.38244440E+00 0.64859528E+03</pdfrwt>
<pdfrwt beam="2">0</pdfrwt>
<totfact> 0.16011110E+00</totfact>
</mgrwt>
</event>
<event>
 6    1  0.2677832E-003  0.6597035E+03  0.7818608E-02  0.9788740E-01
          1   -1    0    0  502    0  0.00000000000E+00  0.00000000000E+00  0.10907505429E+03  0.10907505429E+03  0.00000000000E+00 0.  1.
         13   -1    0    0    0    0 -0.00000000000E+00 -0.00000000000E+00 -0.10000000000E+04  0.10000000000E+04  0.00000000000E+00 0.  1.
    9000005    2    1    2  501    0  0.97291413757E-01  0.19787409365E+00 -0.89114750358E+03  0.11087617624E+04  0.65970351226E+03 0.  0.
         13    1    3    3    0    0  0.19922179447E+03  0.26140468892E+03 -0.49476437757E+03  0.59398108058E+03  0.00000000000E+00 0.  1.
          1    1    3    3  501    0 -0.19912450305E+03 -0.26120681483E+03 -0.39638312601E+03  0.51478068186E+03  0.00000000000E+00 0.  1.
         21    1    1    2  502  501 -0.97291413757E-01 -0.19787409365E+00  0.22255787067E+00  0.31329184784E+00  0.00000000000E+00 0. -1.
<mgrwt>
<rscale>  1 0.65970355E+03</rscale>
<asrwt>0</asrwt>
<pdfrwt beam="1">  1        1 0.39663740E+00 0.65970355E+03</pdfrwt>
<pdfrwt beam="2">0</pdfrwt>
<totfact> 0.13822852E+00</totfact>
</mgrwt>
</event>
<event>
 6    1  0.2677832E-003  0.5291753E+03  0.7818608E-02  0.1006432E+00
          1   -1    0    0  502    0  0.00000000000E+00  0.00000000000E+00  0.70047344533E+02  0.70047344533E+02  0.00000000000E+00 0.  1.
         13   -1    0    0    0    0 -0.00000000000E+00 -0.00000000000E+00 -0.10000000000E+04  0.10000000000E+04  0.00000000000E+00 0.  1.
    9000005    2    1    2  501    0  0.37238448079E-02  0.14551377913E-02 -0.92999328011E+03  0.10700065236E+04  0.52917526356E+03 0.  0.
         13    1    3    3    0    0 -0.72697162907E+02  0.32982532372E+02 -0.97506658851E+03  0.97832897175E+03  0.00000000000E+00 0.  1.
          3    1    3    3  501    0  0.72700886752E+02 -0.32981077234E+02  0.45073308402E+02  0.91677551889E+02  0.00000000000E+00 0.  1.
         21    1    1    2  502  501 -0.37238448079E-02 -0.14551377913E-02  0.40624638102E-01  0.40820897431E-01  0.00000000000E+00 0. -1.
<mgrwt>
<rscale>  1 0.52917526E+03</rscale>
<asrwt>0</asrwt>
<pdfrwt beam="1">  1        1 0.25471815E+00 0.52917526E+03</pdfrwt>
<pdfrwt beam="2">0</pdfrwt>
<totfact> 0.58621835E+00</totfact>
</mgrwt>
</event>
<event>
 6    1  0.2677832E-003  0.6519423E+03  0.7818608E-02  0.9803141E-01
          1   -1    0    0  502    0  0.00000000000E+00  0.00000000000E+00  0.10625924263E+03  0.10625924263E+03  0.00000000000E+00 0.  1.
         13   -1    0    0    0    0 -0.00000000000E+00 -0.00000000000E+00 -0.10000000000E+04  0.10000000000E+04  0.00000000000E+00 0.  1.
    9000005    2    1    2  501    0 -0.11412050364E-03 -0.11439153121E-03 -0.89374282182E+03  0.11062571719E+04  0.65194225108E+03 0.  0.
         13    1    3    3    0    0  0.68160672673E+02  0.30324663877E+03 -0.61358532218E+03  0.68781636271E+03  0.00000000000E+00 0.  1.
          1    1    3    3  501    0 -0.68160786793E+02 -0.30324675316E+03 -0.28015749964E+03  0.41844080915E+03  0.00000000000E+00 0.  1.
         21    1    1    2  502  501  0.11412050363E-03  0.11439153119E-03  0.20644509818E-02  0.20707647786E-02  0.00000000000E+00 0. -1.
<mgrwt>
<rscale>  1 0.65194225E+03</rscale>
<asrwt>0</asrwt>
<pdfrwt beam="1">  1        1 0.38639806E+00 0.65194225E+03</pdfrwt>
<pdfrwt beam="2">0</pdfrwt>
<totfact> 0.15369872E+00</totfact>
</mgrwt>
</event>
<event>
 6    1  0.2677832E-003  0.6529668E+03  0.7818608E-02  0.9801228E-01
          1   -1    0    0  502    0  0.00000000000E+00  0.00000000000E+00  0.10659411511E+03  0.10659411511E+03  0.00000000000E+00 0.  1.
         13   -1    0    0    0    0 -0.00000000000E+00 -0.00000000000E+00 -0.10000000000E+04  0.10000000000E+04  0.00000000000E+00 0.  1.
    9000005    2    1    2  501    0  0.10317854100E-03  0.10563678917E-03 -0.89340857682E+03  0.11065914191E+04  0.65296683206E+03 0.  0.
         13    1    3    3    0    0  0.29775665545E+03 -0.78407683086E+02 -0.63067753936E+03  0.70182686560E+03  0.00000000000E+00 0.  1.
          1    1    3    3  501    0 -0.29775655227E+03  0.78407788722E+02 -0.26273103746E+03  0.40476455353E+03  0.00000000000E+00 0.  1.
         21    1    1    2  502  501 -0.10317854102E-03 -0.10563678918E-03  0.26919256750E-02  0.26959726969E-02  0.00000000000E+00 0. -1.
<mgrwt>
<rscale>  1 0.65296683E+03</rscale>
<asrwt>0</asrwt>
<pdfrwt beam="1">  1        1 0.38761578E+00 0.65296683E+03</pdfrwt>
<pdfrwt beam="2">0</pdfrwt>
<totfact> 0.15177355E+00</totfact>
</mgrwt>
</event>
<event>
 6    1  0.2677832E-003  0.6441467E+03  0.7818608E-02  0.9817825E-01
          1   -1    0    0  502    0  0.00000000000E+00  0.00000000000E+00  0.10373141944E+03  0.10373141944E+03  0.00000000000E+00 0.  1.
         13   -1    0    0    0    0 -0.00000000000E+00 -0.00000000000E+00 -0.10000000000E+04  0.10000000000E+04  0.00000000000E+00 0.  1.
    9000005    2    1    2  501    0  0.25454559224E-03 -0.24140088868E-03 -0.89626853891E+03  0.11037310662E+04  0.64414670113E+03 0.  0.
         13    1    3    3    0    0  0.19771608171E+03  0.55179573537E+02 -0.87339056099E+03  0.89718866819E+03  0.00000000000E+00 0.  1.
          3    1    3    3  501    0 -0.19771582716E+03 -0.55179814937E+02 -0.22877977919E+02  0.20654239797E+03  0.00000000000E+00 0.  1.
         21    1    1    2  502  501 -0.25454559225E-03  0.24140088867E-03 -0.41650339808E-04  0.35327411226E-03  0.00000000000E+00 0.  1.
<mgrwt>
<rscale>  1 0.64414670E+03</rscale>
<asrwt>0</asrwt>
<pdfrwt beam="1">  1        1 0.37720596E+00 0.64414670E+03</pdfrwt>
<pdfrwt beam="2">0</pdfrwt>
<totfact> 0.16900048E+00</totfact>
</mgrwt>
</event>
<event>
 6    1  0.2677832E-003  0.6518846E+03  0.7818608E-02  0.9803249E-01
          1   -1    0    0  502    0  0.00000000000E+00  0.00000000000E+00  0.10784452267E+03  0.10784452267E+03  0.00000000000E+00 0.  1.
         13   -1    0    0    0    0 -0.00000000000E+00 -0.00000000000E+00 -0.10000000000E+04  0.10000000000E+04  0.00000000000E+00 0.  1.
    9000005    2    1    2  501    0  0.30830054632E+01  0.18926545823E+01 -0.89107512067E+03  0.11040690446E+04  0.65187460261E+03 0.  0.
         13    1    3    3    0    0 -0.87938002363E+02  0.31324481149E+03 -0.49095828648E+03  0.58897830456E+03  0.00000000000E+00 0.  1.
          3    1    3    3  501    0  0.91021007826E+02 -0.31135215691E+03 -0.40011683420E+03  0.51509074005E+03  0.00000000000E+00 0.  1.
         21    1    1    2  502  501 -0.30830054632E+01 -0.18926545823E+01 -0.10803566574E+01  0.37754780573E+01  0.00000000000E+00 0.  1.
<mgrwt>
<rscale>  1 0.65188464E+03</rscale>
<asrwt>0</asrwt>
<pdfrwt beam="1">  1        1 0.39216273E+00 0.65188464E+03</pdfrwt>
<pdfrwt beam="2">0</pdfrwt>
<totfact> 0.14491773E+00</totfact>
</mgrwt>
</event>
<event>
 6    1  0.2677832E-003  0.6339860E+03  0.7818608E-02  0.9837301E-01
          1   -1    0    0  502    0  0.00000000000E+00  0.00000000000E+00  0.10048457145E+03  0.10048457145E+03  0.00000000000E+00 0.  1.
         13   -1    0    0    0    0 -0.00000000000E+00 -0.00000000000E+00 -0.10000000000E+04  0.10000000000E+04  0.00000000000E+00 0.  1.
    9000005    2    1    2  501    0 -0.54145206718E-06 -0.59320252035E-05 -0.89951544690E+03  0.11004845522E+04  0.63398597012E+03 0.  0.
         13    1    3    3    0    0  0.79342840054E+02  0.30175606371E+03 -0.35260548600E+03  0.47083185642E+03  0.00000000000E+00 0.  1.
          3    1    3    3  501    0 -0.79342840596E+02 -0.30175606964E+03 -0.54690996090E+03  0.62965269574E+03  0.00000000000E+00 0.  1.
         21    1    1    2  502  501  0.54145206823E-06  0.59320252195E-05  0.18355402731E-04  0.19297743468E-04  0.00000000000E+00 0. -1.
<mgrwt>
<rscale>  1 0.63398597E+03</rscale>
<asrwt>0</asrwt>
<pdfrwt beam="1">  1        1 0.36539921E+00 0.63398597E+03</pdfrwt>
<pdfrwt beam="2">0</pdfrwt>
<totfact> 0.19079958E+00</totfact>
</mgrwt>
</event>
<event>
 6    1  0.2677832E-003  0.6546274E+03  0.7818608E-02  0.9798135E-01
          1   -1    0    0  502    0  0.00000000000E+00  0.00000000000E+00  0.10713581606E+03  0.10713581606E+03  0.00000000000E+00 0.  1.
         13   -1    0    0    0    0 -0.00000000000E+00 -0.00000000000E+00 -0.10000000000E+04  0.10000000000E+04  0.00000000000E+00 0.  1.
    9000005    2    1    2  501    0 -0.67326679911E-03 -0.74204739747E-04 -0.89286567590E+03  0.11071341775E+04  0.65462735346E+03 0.  0.
         13    1    3    3    0    0 -0.12900686758E+03 -0.29964357242E+03 -0.49134854419E+03  0.58979016120E+03  0.00000000000E+00 0.  1.
          1    1    3    3  501    0  0.12900619431E+03  0.29964349821E+03 -0.40151713171E+03  0.51734401634E+03  0.00000000000E+00 0.  1.
         21    1    1    2  502  501  0.67326679912E-03  0.74204739717E-04  0.14919601538E-02  0.16385175089E-02  0.00000000000E+00 0. -1.
<mgrwt>
<rscale>  1 0.65462735E+03</rscale>
<asrwt>0</asrwt>
<pdfrwt beam="1">  1        1 0.38958561E+00 0.65462735E+03</pdfrwt>
<pdfrwt beam="2">0</pdfrwt>
<totfact> 0.14870762E+00</totfact>
</mgrwt>
</event>
<event>
 6    1  0.2677832E-003  0.5058071E+03  0.7818608E-02  0.1012274E+00
          1   -1    0    0  502    0  0.00000000000E+00  0.00000000000E+00  0.63960285436E+02  0.63960285436E+02  0.00000000000E+00 0.  1.
         13   -1    0    0    0    0 -0.00000000000E+00 -0.00000000000E+00 -0.10000000000E+04  0.10000000000E+04  0.00000000000E+00 0.  1.
    9000005    2    1    2  501    0 -0.65203099879E-04  0.34846750367E-04 -0.93603976044E+03  0.10639601984E+04  0.50580714776E+03 0.  0.
         13    1    3    3    0    0  0.64282960519E+02 -0.18463556180E+03 -0.80548161870E+03  0.82886864325E+03  0.00000000000E+00 0.  1.
          1    1    3    3  501    0 -0.64283025723E+02  0.18463559665E+03 -0.13055814174E+03  0.23509155518E+03  0.00000000000E+00 0.  1.
         21    1    1    2  502  501  0.65203099876E-04 -0.34846750367E-04  0.45872362829E-04  0.87005826909E-04  0.00000000000E+00 0.  1.
<mgrwt>
<rscale>  1 0.50580715E+03</rscale>
<asrwt>0</asrwt>
<pdfrwt beam="1">  1        1 0.23258335E+00 0.50580715E+03</pdfrwt>
<pdfrwt beam="2">0</pdfrwt>
<totfact> 0.73516740E+00</totfact>
</mgrwt>
</event>
<event>
 6    1  0.2677832E-003  0.6336373E+03  0.7818608E-02  0.9837977E-01
          1   -1    0    0  502    0  0.00000000000E+00  0.00000000000E+00  0.10037812770E+03  0.10037812770E+03  0.00000000000E+00 0.  1.
         13   -1    0    0    0    0 -0.00000000000E+00 -0.00000000000E+00 -0.10000000000E+04  0.10000000000E+04  0.00000000000E+00 0.  1.
    9000005    2    1    2  501    0  0.24888035628E-02  0.87220414172E-02 -0.89961948350E+03  0.11003687482E+04  0.63363725183E+03 0.  0.
         13    1    3    3    0    0 -0.22339650289E+02  0.64247982134E+02  0.87544608256E+02  0.11086442900E+03  0.00000000000E+00 0.  1.
          3    1    3    3  501    0  0.22342139093E+02 -0.64239260092E+02 -0.98716409175E+03  0.98950431922E+03  0.00000000000E+00 0.  1.
         21    1    1    2  502  501 -0.24888035628E-02 -0.87220414172E-02 -0.23888062532E-02  0.93794746640E-02  0.00000000000E+00 0. -1.
<mgrwt>
<rscale>  1 0.63363725E+03</rscale>
<asrwt>0</asrwt>
<pdfrwt beam="1">  1        1 0.36501214E+00 0.63363725E+03</pdfrwt>
<pdfrwt beam="2">0</pdfrwt>
<totfact> 0.19155845E+00</totfact>
</mgrwt>
</event>
<event>
 6    1  0.3854078E-003  0.6689347E+03  0.7818608E-02  0.9771884E-01
          1   -1    0    0  502    0  0.00000000000E+00  0.00000000000E+00  0.11186843569E+03  0.11186843569E+03  0.00000000000E+00 0.  1.
         13   -1    0    0    0    0 -0.00000000000E+00 -0.00000000000E+00 -0.10000000000E+04  0.10000000000E+04  0.00000000000E+00 0.  1.
    9000005    2    1    2  501    0  0.88949193806E-05 -0.15999535037E-04 -0.88813157430E+03  0.11118684148E+04  0.66893473421E+03 0.  0.
         13    1    3    3    0    0  0.86722124857E+01 -0.33417471467E+03 -0.46230993465E+03  0.57050716285E+03  0.00000000000E+00 0.  1.
          1    1    3    3  501    0 -0.86722035908E+01  0.33417469867E+03 -0.42582163966E+03  0.54136125198E+03  0.00000000000E+00 0.  1.
         21    1    1    2  502  501 -0.88949193803E-05  0.15999535054E-04  0.99948841657E-05  0.20856711683E-04  0.00000000000E+00 0. -1.
<mgrwt>
<rscale>  1 0.66893473E+03</rscale>
<asrwt>0</asrwt>
<pdfrwt beam="1">  1        1 0.40679517E+00 0.66893473E+03</pdfrwt>
<pdfrwt beam="2">0</pdfrwt>
<totfact> 0.12430946E+00</totfact>
</mgrwt>
</event>
<event>
 6    1  0.2677832E-003  0.6336500E+03  0.7818608E-02  0.9837952E-01
          1   -1    0    0  502    0  0.00000000000E+00  0.00000000000E+00  0.10038498507E+03  0.10038498507E+03  0.00000000000E+00 0.  1.
         13   -1    0    0    0    0 -0.00000000000E+00 -0.00000000000E+00 -0.10000000000E+04  0.10000000000E+04  0.00000000000E+00 0.  1.
    9000005    2    1    2  501    0 -0.98748961733E-03  0.19612927465E-02 -0.89962173176E+03  0.11003779184E+04  0.63364998466E+03 0.  0.
         13    1    3    3    0    0  0.29850501212E+03 -0.17379634456E+02 -0.26792184839E+03  0.40148401063E+03  0.00000000000E+00 0.  1.
          3    1    3    3  501    0 -0.29850599961E+03  0.17381595749E+02 -0.63169988338E+03  0.69889390778E+03  0.00000000000E+00 0.  1.
         21    1    1    2  502  501  0.98748961734E-03 -0.19612927465E-02  0.67168319666E-02  0.70666566812E-02  0.00000000000E+00 0.  1.
<mgrwt>
<rscale>  1 0.63364998E+03</rscale>
<asrwt>0</asrwt>
<pdfrwt beam="1">  1        1 0.36503708E+00 0.63364998E+03</pdfrwt>
<pdfrwt beam="2">0</pdfrwt>
<totfact> 0.19150981E+00</totfact>
</mgrwt>
</event>
<event>
 6    1  0.2677832E-003  0.6472615E+03  0.7818608E-02  0.9811931E-01
          1   -1    0    0  502    0  0.00000000000E+00  0.00000000000E+00  0.10756054934E+03  0.10756054934E+03  0.00000000000E+00 0.  1.
         13   -1    0    0    0    0 -0.00000000000E+00 -0.00000000000E+00 -0.10000000000E+04  0.10000000000E+04  0.00000000000E+00 0.  1.
    9000005    2    1    2  501    0  0.29441584624E+00 -0.24188518694E+00 -0.89524891806E+03  0.11047253604E+04  0.64726142436E+03 0.  0.
         13    1    3    3    0    0 -0.50150587714E+02  0.31302300121E+03 -0.55735344379E+03  0.64120304275E+03  0.00000000000E+00 0.  1.
          3    1    3    3  501    0  0.50445003560E+02 -0.31326488640E+03 -0.33789547428E+03  0.46352231766E+03  0.00000000000E+00 0.  1.
         21    1    1    2  502  501 -0.29441584624E+00  0.24188518694E+00  0.28094674041E+01  0.28351889230E+01  0.00000000000E+00 0. -1.
<mgrwt>
<rscale>  1 0.64726154E+03</rscale>
<asrwt>0</asrwt>
<pdfrwt beam="1">  1        1 0.39113010E+00 0.64726154E+03</pdfrwt>
<pdfrwt beam="2">0</pdfrwt>
<totfact> 0.14658181E+00</totfact>
</mgrwt>
</event>
<event>
 6    1  0.2677832E-003  0.6386074E+03  0.7818608E-02  0.9828395E-01
          1   -1    0    0  502    0  0.00000000000E+00  0.00000000000E+00  0.10562355176E+03  0.10562355176E+03  0.00000000000E+00 0.  1.
         13   -1    0    0    0    0 -0.00000000000E+00 -0.00000000000E+00 -0.10000000000E+04  0.10000000000E+04  0.00000000000E+00 0.  1.
    9000005    2    1    2  501    0  0.31266544707E-01  0.72420241603E-01 -0.89804467989E+03  0.11019544721E+04  0.63860739521E+03 0.  0.
         13    1    3    3    0    0 -0.14850576705E+03  0.27943340643E+03 -0.37517027086E+03  0.49080517888E+03  0.00000000000E+00 0.  1.
          3    1    3    3  501    0  0.14853703359E+03 -0.27936098619E+03 -0.52287440903E+03  0.61114929319E+03  0.00000000000E+00 0.  1.
         21    1    1    2  502  501 -0.31266544707E-01 -0.72420241603E-01  0.36682316525E+01  0.36690796863E+01  0.00000000000E+00 0. -1.
<mgrwt>
<rscale>  1 0.63860740E+03</rscale>
<asrwt>0</asrwt>
<pdfrwt beam="1">  1        1 0.38408645E+00 0.63860740E+03</pdfrwt>
<pdfrwt beam="2">0</pdfrwt>
<totfact> 0.15775082E+00</totfact>
</mgrwt>
</event>
<event>
 6    1  0.2677832E-003  0.6621035E+03  0.7818608E-02  0.9784329E-01
          1   -1    0    0  502    0  0.00000000000E+00  0.00000000000E+00  0.10965486739E+03  0.10965486739E+03  0.00000000000E+00 0.  1.
         13   -1    0    0    0    0 -0.00000000000E+00 -0.00000000000E+00 -0.10000000000E+04  0.10000000000E+04  0.00000000000E+00 0.  1.
    9000005    2    1    2  501    0 -0.11394350699E-02 -0.17391885137E-04 -0.89040473311E+03  0.11095952560E+04  0.66210349900E+03 0.  0.
         13    1    3    3    0    0  0.12252972897E+03  0.30365384059E+03 -0.52688949893E+03  0.62034807444E+03  0.00000000000E+00 0.  1.
          3    1    3    3  501    0 -0.12253086840E+03 -0.30365385798E+03 -0.36351523418E+03  0.48924718155E+03  0.00000000000E+00 0.  1.
         21    1    1    2  502  501  0.11394350699E-02  0.17391885157E-04  0.59600500626E-01  0.59611393958E-01  0.00000000000E+00 0.  1.
<mgrwt>
<rscale>  1 0.66210350E+03</rscale>
<asrwt>0</asrwt>
<pdfrwt beam="1">  1        1 0.39874581E+00 0.66210350E+03</pdfrwt>
<pdfrwt beam="2">0</pdfrwt>
<totfact> 0.13521140E+00</totfact>
</mgrwt>
</event>
<event>
 6    1  0.2677832E-003  0.6172102E+03  0.7818608E-02  0.9870330E-01
          1   -1    0    0  502    0  0.00000000000E+00  0.00000000000E+00  0.95727058839E+02  0.95727058839E+02  0.00000000000E+00 0.  1.
         13   -1    0    0    0    0 -0.00000000000E+00 -0.00000000000E+00 -0.10000000000E+04  0.10000000000E+04  0.00000000000E+00 0.  1.
    9000005    2    1    2  501    0  0.17371726401E+00 -0.35319970128E+00 -0.90467495440E+03  0.10951644379E+04  0.61721002740E+03 0.  0.
         13    1    3    3    0    0  0.20257712006E+03 -0.21952169960E+03 -0.31376615093E+03  0.43321641662E+03  0.00000000000E+00 0.  1.
          1    1    3    3  501    0 -0.20240340279E+03  0.21916849990E+03 -0.59090880347E+03  0.66194802124E+03  0.00000000000E+00 0.  1.
         21    1    1    2  502  501 -0.17371726401E+00  0.35319970128E+00  0.40201323594E+00  0.56262097247E+00  0.00000000000E+00 0. -1.
<mgrwt>
<rscale>  1 0.61721015E+03</rscale>
<asrwt>0</asrwt>
<pdfrwt beam="1">  1        1 0.34809913E+00 0.61721015E+03</pdfrwt>
<pdfrwt beam="2">0</pdfrwt>
<totfact> 0.22775028E+00</totfact>
</mgrwt>
</event>
<event>
 6    1  0.2677832E-003  0.6339938E+03  0.7818608E-02  0.9837286E-01
          3   -1    0    0  502    0  0.00000000000E+00  0.00000000000E+00  0.10053935126E+03  0.10053935126E+03  0.00000000000E+00 0.  1.
         13   -1    0    0    0    0 -0.00000000000E+00 -0.00000000000E+00 -0.10000000000E+04  0.10000000000E+04  0.00000000000E+00 0.  1.
    9000005    2    1    2  501    0 -0.11506187334E-01  0.28322364225E-01 -0.89950799566E+03  0.11004829928E+04  0.63399383449E+03 0.  0.
         13    1    3    3    0    0  0.54064576581E+02  0.31192919630E+03 -0.42112093151E+03  0.52684498754E+03  0.00000000000E+00 0.  1.
          3    1    3    3  501    0 -0.54076082769E+02 -0.31190087393E+03 -0.47838706416E+03  0.57363800523E+03  0.00000000000E+00 0.  1.
         21    1    1    2  502  501  0.11506187334E-01 -0.28322364225E-01  0.47346918342E-01  0.56358489500E-01  0.00000000000E+00 0.  1.
<mgrwt>
<rscale>  1 0.63399384E+03</rscale>
<asrwt>0</asrwt>
<pdfrwt beam="1">  1        3 0.36559841E+00 0.63399384E+03</pdfrwt>
<pdfrwt beam="2">0</pdfrwt>
<totfact> 0.90198813E-02</totfact>
</mgrwt>
</event>
<event>
 6    1  0.2677832E-003  0.6444501E+03  0.7818608E-02  0.9817249E-01
          1   -1    0    0  502    0  0.00000000000E+00  0.00000000000E+00  0.10382899889E+03  0.10382899889E+03  0.00000000000E+00 0.  1.
         13   -1    0    0    0    0 -0.00000000000E+00 -0.00000000000E+00 -0.10000000000E+04  0.10000000000E+04  0.00000000000E+00 0.  1.
    9000005    2    1    2  501    0  0.15501700005E-04 -0.17505044298E-04 -0.89617100356E+03  0.11038289754E+04  0.64445010610E+03 0.  0.
         13    1    3    3    0    0 -0.13272509652E+03  0.29107633132E+03 -0.51414797910E+03  0.60554894625E+03  0.00000000000E+00 0.  1.
          3    1    3    3  501    0  0.13272511202E+03 -0.29107634882E+03 -0.38202302446E+03  0.49828002912E+03  0.00000000000E+00 0.  1.
         21    1    1    2  502  501 -0.15501699992E-04  0.17505044278E-04  0.24460205555E-05  0.23509833993E-04  0.00000000000E+00 0. -1.
<mgrwt>
<rscale>  1 0.64445011E+03</rscale>
<asrwt>0</asrwt>
<pdfrwt beam="1">  1        1 0.37756079E+00 0.64445011E+03</pdfrwt>
<pdfrwt beam="2">0</pdfrwt>
<totfact> 0.16838373E+00</totfact>
</mgrwt>
</event>
<event>
 6    1  0.2677832E-003  0.5169671E+03  0.7818608E-02  0.1009443E+00
          1   -1    0    0  502    0  0.00000000000E+00  0.00000000000E+00  0.67339043935E+02  0.67339043935E+02  0.00000000000E+00 0.  1.
         13   -1    0    0    0    0 -0.00000000000E+00 -0.00000000000E+00 -0.10000000000E+04  0.10000000000E+04  0.00000000000E+00 0.  1.
    9000005    2    1    2  501    0 -0.24691156712E+00  0.18757703208E+00 -0.93313713969E+03  0.10667707999E+04  0.51696704134E+03 0.  0.
         13    1    3    3    0    0  0.80896030608E+02 -0.21635193768E+03 -0.70523383942E+03  0.74209642026E+03  0.00000000000E+00 0.  1.
          3    1    3    3  501    0 -0.81142942175E+02  0.21653951472E+03 -0.22790330028E+03  0.32467437961E+03  0.00000000000E+00 0.  1.
         21    1    1    2  502  501  0.24691156712E+00 -0.18757703208E+00  0.47618362867E+00  0.56824406126E+00  0.00000000000E+00 0. -1.
<mgrwt>
<rscale>  1 0.51696713E+03</rscale>
<asrwt>0</asrwt>
<pdfrwt beam="1">  1        1 0.24486977E+00 0.51696713E+03</pdfrwt>
<pdfrwt beam="2">0</pdfrwt>
<totfact> 0.64834666E+00</totfact>
</mgrwt>
</event>
<event>
 6    1  0.2677832E-003  0.5703388E+03  0.7818608E-02  0.9968929E-01
          1   -1    0    0  502    0  0.00000000000E+00  0.00000000000E+00  0.81722139279E+02  0.81722139279E+02  0.00000000000E+00 0.  1.
         13   -1    0    0    0    0 -0.00000000000E+00 -0.00000000000E+00 -0.10000000000E+04  0.10000000000E+04  0.00000000000E+00 0.  1.
    9000005    2    1    2  501    0  0.37994404308E+00  0.20423771499E+00 -0.91854972254E+03  0.10812122576E+04  0.57033864242E+03 0.  0.
         13    1    3    3    0    0 -0.43402977169E+02  0.18570432813E+03 -0.57309213078E+02  0.19913377869E+03  0.00000000000E+00 0.  1.
          3    1    3    3  501    0  0.43782921212E+02 -0.18550009041E+03 -0.86124050946E+03  0.88207847886E+03  0.00000000000E+00 0.  1.
         21    1    1    2  502  501 -0.37994404308E+00 -0.20423771499E+00  0.27186182019E+00  0.50988172096E+00  0.00000000000E+00 0.  1.
<mgrwt>
<rscale>  1 0.57033881E+03</rscale>
<asrwt>0</asrwt>
<pdfrwt beam="1">  1        1 0.29717204E+00 0.57033881E+03</pdfrwt>
<pdfrwt beam="2">0</pdfrwt>
<totfact> 0.38149183E+00</totfact>
</mgrwt>
</event>
<event>
 6    1  0.2677832E-003  0.6513416E+03  0.7818608E-02  0.9804265E-01
          1   -1    0    0  502    0  0.00000000000E+00  0.00000000000E+00  0.10606296490E+03  0.10606296490E+03  0.00000000000E+00 0.  1.
         13   -1    0    0    0    0 -0.00000000000E+00 -0.00000000000E+00 -0.10000000000E+04  0.10000000000E+04  0.00000000000E+00 0.  1.
    9000005    2    1    2  501    0 -0.13425817737E-03  0.14837655685E-03 -0.89393853130E+03  0.11060614554E+04  0.65134157348E+03 0.  0.
         13    1    3    3    0    0 -0.12993685713E+02  0.85477602454E+02 -0.98015508463E+03  0.98396099837E+03  0.00000000000E+00 0.  1.
          1    1    3    3  501    0  0.12993551454E+02 -0.85477454077E+02  0.86216553329E+02  0.12210045701E+03  0.00000000000E+00 0.  1.
         21    1    1    2  502  501  0.13425817737E-03 -0.14837655685E-03  0.14961956039E-02  0.15095171896E-02  0.00000000000E+00 0. -1.
<mgrwt>
<rscale>  1 0.65134157E+03</rscale>
<asrwt>0</asrwt>
<pdfrwt beam="1">  1        1 0.38568432E+00 0.65134157E+03</pdfrwt>
<pdfrwt beam="2">0</pdfrwt>
<totfact> 0.15483787E+00</totfact>
</mgrwt>
</event>
<event>
 6    1  0.2677832E-003  0.6411280E+03  0.7818608E-02  0.9823571E-01
          1   -1    0    0  502    0  0.00000000000E+00  0.00000000000E+00  0.12287014219E+03  0.12287014219E+03  0.00000000000E+00 0.  1.
         13   -1    0    0    0    0 -0.00000000000E+00 -0.00000000000E+00 -0.10000000000E+04  0.10000000000E+04  0.00000000000E+00 0.  1.
    9000005    2    1    2  501    0  0.11919018016E+02 -0.47452416604E+02 -0.85624377030E+03  0.10696721772E+04  0.63925845912E+03 0.  0.
         13    1    3    3    0    0  0.73532078242E+02 -0.26590992785E+03 -0.78454014086E+03  0.83163591125E+03  0.00000000000E+00 0.  1.
          3    1    3    3  501    0 -0.61613060226E+02  0.21845751125E+03 -0.71703629446E+02  0.23803626591E+03  0.00000000000E+00 0.  1.
         21    1    1    2  502  501 -0.11919018016E+02  0.47452416604E+02 -0.20886087511E+02  0.53197965032E+02  0.00000000000E+00 0. -1.
<mgrwt>
<rscale>  1 0.64112805E+03</rscale>
<asrwt>0</asrwt>
<pdfrwt beam="1">  1        1 0.44680146E+00 0.64112805E+03</pdfrwt>
<pdfrwt beam="2">0</pdfrwt>
<totfact> 0.82337403E-01</totfact>
</mgrwt>
</event>
<event>
 6    1  0.2677832E-003  0.6468137E+03  0.7818608E-02  0.9812777E-01
          1   -1    0    0  502    0  0.00000000000E+00  0.00000000000E+00  0.10462104155E+03  0.10462104155E+03  0.00000000000E+00 0.  1.
         13   -1    0    0    0    0 -0.00000000000E+00 -0.00000000000E+00 -0.10000000000E+04  0.10000000000E+04  0.00000000000E+00 0.  1.
    9000005    2    1    2  501    0 -0.20480453543E-04 -0.45122525704E-03 -0.89540801227E+03  0.11045919842E+04  0.64681368505E+03 0.  0.
         13    1    3    3    0    0 -0.35179079116E+02  0.68242027661E+02 -0.98421116535E+03  0.98720117501E+03  0.00000000000E+00 0.  1.
          1    1    3    3  501    0  0.35179058635E+02 -0.68242478886E+02  0.88803153075E+02  0.11739080921E+03  0.00000000000E+00 0.  1.
         21    1    1    2  502  501  0.20480453542E-04  0.45122525704E-03  0.29053822793E-01  0.29057333714E-01  0.00000000000E+00 0. -1.
<mgrwt>
<rscale>  1 0.64681369E+03</rscale>
<asrwt>0</asrwt>
<pdfrwt beam="1">  1        1 0.38044095E+00 0.64681369E+03</pdfrwt>
<pdfrwt beam="2">0</pdfrwt>
<totfact> 0.16345936E+00</totfact>
</mgrwt>
</event>
<event>
 6    1  0.2677832E-003  0.6494801E+03  0.7818608E-02  0.9807755E-01
          1   -1    0    0  502    0  0.00000000000E+00  0.00000000000E+00  0.10545612902E+03  0.10545612902E+03  0.00000000000E+00 0.  1.
         13   -1    0    0    0    0 -0.00000000000E+00 -0.00000000000E+00 -0.10000000000E+04  0.10000000000E+04  0.00000000000E+00 0.  1.
    9000005    2    1    2  501    0 -0.20449578315E-05  0.10562693120E-04 -0.89454389385E+03  0.11054561037E+04  0.64948011462E+03 0.  0.
         13    1    3    3    0    0  0.34265546952E+02  0.24236876853E+03 -0.84052496706E+02  0.25880797876E+03  0.00000000000E+00 0.  1.
          1    1    3    3  501    0 -0.34265548997E+02 -0.24236875797E+03 -0.81049139715E+03  0.84664812498E+03  0.00000000000E+00 0.  1.
         21    1    1    2  502  501  0.20449578331E-05 -0.10562693132E-04  0.22874946416E-04  0.25278756146E-04  0.00000000000E+00 0. -1.
<mgrwt>
<rscale>  1 0.64948011E+03</rscale>
<asrwt>0</asrwt>
<pdfrwt beam="1">  1        1 0.38347764E+00 0.64948011E+03</pdfrwt>
<pdfrwt beam="2">0</pdfrwt>
<totfact> 0.15841089E+00</totfact>
</mgrwt>
</event>
<event>
 6    1  0.2677832E-003  0.6497252E+03  0.7818608E-02  0.9807295E-01
          1   -1    0    0  502    0  0.00000000000E+00  0.00000000000E+00  0.10553628898E+03  0.10553628898E+03  0.00000000000E+00 0.  1.
         13   -1    0    0    0    0 -0.00000000000E+00 -0.00000000000E+00 -0.10000000000E+04  0.10000000000E+04  0.00000000000E+00 0.  1.
    9000005    2    1    2  501    0 -0.42481237017E-04 -0.11905780127E-04 -0.89446430061E+03  0.11055356977E+04  0.64972516800E+03 0.  0.
         13    1    3    3    0    0 -0.17196649061E+03 -0.26590244032E+03 -0.57062784286E+03  0.65260456382E+03  0.00000000000E+00 0.  1.
          3    1    3    3  501    0  0.17196644813E+03  0.26590242842E+03 -0.32383645774E+03  0.45293113393E+03  0.00000000000E+00 0.  1.
         21    1    1    2  502  501  0.42481237013E-04  0.11905780154E-04  0.58958201233E-03  0.59123037165E-03  0.00000000000E+00 0. -1.
<mgrwt>
<rscale>  1 0.64972517E+03</rscale>
<asrwt>0</asrwt>
<pdfrwt beam="1">  1        1 0.38376913E+00 0.64972517E+03</pdfrwt>
<pdfrwt beam="2">0</pdfrwt>
<totfact> 0.15793449E+00</totfact>
</mgrwt>
</event>
<event>
 6    1  0.2677832E-003  0.6649790E+03  0.7818608E-02  0.9779071E-01
          1   -1    0    0  502    0  0.00000000000E+00  0.00000000000E+00  0.11054949583E+03  0.11054949583E+03  0.00000000000E+00 0.  1.
         13   -1    0    0    0    0 -0.00000000000E+00 -0.00000000000E+00 -0.10000000000E+04  0.10000000000E+04  0.00000000000E+00 0.  1.
    9000005    2    1    2  501    0  0.37818889015E-03 -0.44704357852E-03 -0.88945018640E+03  0.11105488296E+04  0.66497899881E+03 0.  0.
         13    1    3    3    0    0  0.25043269719E+03 -0.85806821479E+02 -0.78069235991E+03  0.82435423651E+03  0.00000000000E+00 0.  1.
          3    1    3    3  501    0 -0.25043231900E+03  0.85806374435E+02 -0.10875782649E+03  0.28619459309E+03  0.00000000000E+00 0.  1.
         21    1    1    2  502  501 -0.37818889015E-03  0.44704357852E-03 -0.31777399961E-03  0.66622452113E-03  0.00000000000E+00 0. -1.
<mgrwt>
<rscale>  1 0.66497900E+03</rscale>
<asrwt>0</asrwt>
<pdfrwt beam="1">  1        1 0.40199901E+00 0.66497900E+03</pdfrwt>
<pdfrwt beam="2">0</pdfrwt>
<totfact> 0.13069813E+00</totfact>
</mgrwt>
</event>
<event>
 6    1  0.2677832E-003  0.6487736E+03  0.7818608E-02  0.9809083E-01
          1   -1    0    0  502    0  0.00000000000E+00  0.00000000000E+00  0.10524203568E+03  0.10524203568E+03  0.00000000000E+00 0.  1.
         13   -1    0    0    0    0 -0.00000000000E+00 -0.00000000000E+00 -0.10000000000E+04  0.10000000000E+04  0.00000000000E+00 0.  1.
    9000005    2    1    2  501    0 -0.34109681621E-04 -0.27224680392E-01 -0.89475837318E+03  0.11052148079E+04  0.64877363117E+03 0.  0.
         13    1    3    3    0    0  0.29243054811E+03 -0.98029964126E+02 -0.61862255595E+03  0.69124479460E+03  0.00000000000E+00 0.  1.
          3    1    3    3  501    0 -0.29243058222E+03  0.98002739446E+02 -0.27613581723E+03  0.41397001330E+03  0.00000000000E+00 0.  1.
         21    1    1    2  502  501  0.34109681632E-04  0.27224680392E-01  0.40886072456E-03  0.27227771723E-01  0.00000000000E+00 0. -1.
<mgrwt>
<rscale>  1 0.64877363E+03</rscale>
<asrwt>0</asrwt>
<pdfrwt beam="1">  1        1 0.38269912E+00 0.64877363E+03</pdfrwt>
<pdfrwt beam="2">0</pdfrwt>
<totfact> 0.15969153E+00</totfact>
</mgrwt>
</event>
<event>
 6    1  0.2677832E-003  0.6524505E+03  0.7818608E-02  0.9802192E-01
          1   -1    0    0  502    0  0.00000000000E+00  0.00000000000E+00  0.10644193926E+03  0.10644193926E+03  0.00000000000E+00 0.  1.
         13   -1    0    0    0    0 -0.00000000000E+00 -0.00000000000E+00 -0.10000000000E+04  0.10000000000E+04  0.00000000000E+00 0.  1.
    9000005    2    1    2  501    0  0.32574178969E-03  0.23548622070E-03 -0.89357708514E+03  0.11064229106E+04  0.65245049624E+03 0.  0.
         13    1    3    3    0    0  0.10681017857E+03  0.14764055099E+03  0.12070118327E+02  0.18262484579E+03  0.00000000000E+00 0.  1.
          3    1    3    3  501    0 -0.10680985283E+03 -0.14764031551E+03 -0.90564720347E+03  0.92379806482E+03  0.00000000000E+00 0.  1.
         21    1    1    2  502  501 -0.32574178969E-03 -0.23548622069E-03  0.19024402293E-01  0.19028647983E-01  0.00000000000E+00 0. -1.
<mgrwt>
<rscale>  1 0.65245050E+03</rscale>
<asrwt>0</asrwt>
<pdfrwt beam="1">  1        1 0.38706241E+00 0.65245050E+03</pdfrwt>
<pdfrwt beam="2">0</pdfrwt>
<totfact> 0.15264698E+00</totfact>
</mgrwt>
</event>
<event>
 6    1  0.2677832E-003  0.6532139E+03  0.7818608E-02  0.9800767E-01
          1   -1    0    0  502    0  0.00000000000E+00  0.00000000000E+00  0.10667213328E+03  0.10667213328E+03  0.00000000000E+00 0.  1.
         13   -1    0    0    0    0 -0.00000000000E+00 -0.00000000000E+00 -0.10000000000E+04  0.10000000000E+04  0.00000000000E+00 0.  1.
    9000005    2    1    2  501    0  0.48851787824E-05  0.10266009951E-04 -0.89332790707E+03  0.11066720914E+04  0.65321387634E+03 0.  0.
         13    1    3    3    0    0 -0.19295704024E+02  0.32082650239E+03 -0.54501674314E+03  0.63272839286E+03  0.00000000000E+00 0.  1.
          3    1    3    3  501    0  0.19295708910E+02 -0.32082649212E+03 -0.34831116393E+03  0.47394369850E+03  0.00000000000E+00 0.  1.
         21    1    1    2  502  501 -0.48851787805E-05 -0.10266009974E-04  0.40351411140E-04  0.41922455958E-04  0.00000000000E+00 0.  1.
<mgrwt>
<rscale>  1 0.65321388E+03</rscale>
<asrwt>0</asrwt>
<pdfrwt beam="1">  1        1 0.38789948E+00 0.65321388E+03</pdfrwt>
<pdfrwt beam="2">0</pdfrwt>
<totfact> 0.15132809E+00</totfact>
</mgrwt>
</event>
<event>
 6    1  0.2677832E-003  0.6187854E+03  0.7818608E-02  0.9867181E-01
          1   -1    0    0  502    0  0.00000000000E+00  0.00000000000E+00  0.95723852222E+02  0.95723852222E+02  0.00000000000E+00 0.  1.
         13   -1    0    0    0    0 -0.00000000000E+00 -0.00000000000E+00 -0.10000000000E+04  0.10000000000E+04  0.00000000000E+00 0.  1.
    9000005    2    1    2  501    0 -0.73718985902E-05  0.84629182595E-05 -0.90427616216E+03  0.10957238340E+04  0.61878537709E+03 0.  0.
         13    1    3    3    0    0 -0.25289670854E+03  0.88560603533E+02 -0.17824631529E+03  0.32182522369E+03  0.00000000000E+00 0.  1.
          3    1    3    3  501    0  0.25289670117E+03 -0.88560595071E+02 -0.72602984687E+03  0.77389861029E+03  0.00000000000E+00 0.  1.
         21    1    1    2  502  501  0.73718985968E-05 -0.84629182565E-05  0.14382181934E-04  0.18243163967E-04  0.00000000000E+00 0.  1.
<mgrwt>
<rscale>  1 0.61878538E+03</rscale>
<asrwt>0</asrwt>
<pdfrwt beam="1">  1        1 0.34808747E+00 0.61878538E+03</pdfrwt>
<pdfrwt beam="2">0</pdfrwt>
<totfact> 0.22771282E+00</totfact>
</mgrwt>
</event>
<event>
 6    1  0.2677832E-003  0.6503983E+03  0.7818608E-02  0.9806032E-01
          1   -1    0    0  502    0  0.00000000000E+00  0.00000000000E+00  0.10577527330E+03  0.10577527330E+03  0.00000000000E+00 0.  1.
         13   -1    0    0    0    0 -0.00000000000E+00 -0.00000000000E+00 -0.10000000000E+04  0.10000000000E+04  0.00000000000E+00 0.  1.
    9000005    2    1    2  501    0 -0.13092268546E-04  0.39244401829E-03 -0.89424552227E+03  0.11057544740E+04  0.65039826471E+03 0.  0.
         13    1    3    3    0    0 -0.31729462082E+03 -0.67595694417E+02 -0.48549417859E+03  0.58390894132E+03  0.00000000000E+00 0.  1.
          3    1    3    3  501    0  0.31729460773E+03  0.67596086861E+02 -0.40875134367E+03  0.52184553271E+03  0.00000000000E+00 0.  1.
         21    1    1    2  502  501  0.13092268538E-04 -0.39244401829E-03  0.20795567076E-01  0.20799273875E-01  0.00000000000E+00 0.  1.
<mgrwt>
<rscale>  1 0.65039826E+03</rscale>
<asrwt>0</asrwt>
<pdfrwt beam="1">  1        1 0.38463817E+00 0.65039826E+03</pdfrwt>
<pdfrwt beam="2">0</pdfrwt>
<totfact> 0.15652389E+00</totfact>
</mgrwt>
</event>
<event>
 6    1  0.2677832E-003  0.6503562E+03  0.7818608E-02  0.9806111E-01
          1   -1    0    0  502    0  0.00000000000E+00  0.00000000000E+00  0.10574182897E+03  0.10574182897E+03  0.00000000000E+00 0.  1.
         13   -1    0    0    0    0 -0.00000000000E+00 -0.00000000000E+00 -0.10000000000E+04  0.10000000000E+04  0.00000000000E+00 0.  1.
    9000005    2    1    2  501    0  0.12180805634E-02  0.21984247529E-02 -0.89425711340E+03  0.11057391022E+04  0.65035619257E+03 0.  0.
         13    1    3    3    0    0  0.31147324719E+03 -0.82244214428E+02 -0.52242520483E+03  0.61376525575E+03  0.00000000000E+00 0.  1.
          1    1    3    3  501    0 -0.31147202911E+03  0.82246412853E+02 -0.37183190857E+03  0.49197384643E+03  0.00000000000E+00 0.  1.
         21    1    1    2  502  501 -0.12180805634E-02 -0.21984247529E-02 -0.10576325040E-02  0.27267889846E-02  0.00000000000E+00 0.  1.
<mgrwt>
<rscale>  1 0.65035619E+03</rscale>
<asrwt>0</asrwt>
<pdfrwt beam="1">  1        1 0.38451655E+00 0.65035619E+03</pdfrwt>
<pdfrwt beam="2">0</pdfrwt>
<totfact> 0.15671906E+00</totfact>
</mgrwt>
</event>
<event>
 6    1  0.2677832E-003  0.6538850E+03  0.7818608E-02  0.9799516E-01
          1   -1    0    0  502    0  0.00000000000E+00  0.00000000000E+00  0.10695935209E+03  0.10695935209E+03  0.00000000000E+00 0.  1.
         13   -1    0    0    0    0 -0.00000000000E+00 -0.00000000000E+00 -0.10000000000E+04  0.10000000000E+04  0.00000000000E+00 0.  1.
    9000005    2    1    2  501    0 -0.75248683758E-01 -0.11009896903E+00 -0.89302662305E+03  0.11068252594E+04  0.65388499572E+03 0.  0.
         13    1    3    3    0    0 -0.24040779909E+03 -0.21688670058E+03 -0.52412574020E+03  0.61607105296E+03  0.00000000000E+00 0.  1.
          1    1    3    3  501    0  0.24033255040E+03  0.21677660161E+03 -0.36890088285E+03  0.49075420646E+03  0.00000000000E+00 0.  1.
         21    1    1    2  502  501  0.75248683758E-01  0.11009896903E+00 -0.14024857923E-01  0.13409266956E+00  0.00000000000E+00 0. -1.
<mgrwt>
<rscale>  1 0.65388501E+03</rscale>
<asrwt>0</asrwt>
<pdfrwt beam="1">  1        1 0.38894392E+00 0.65388501E+03</pdfrwt>
<pdfrwt beam="2">0</pdfrwt>
<totfact> 0.14970545E+00</totfact>
</mgrwt>
</event>
<event>
 6    1  0.2677832E-003  0.5690754E+03  0.7818608E-02  0.9971727E-01
          1   -1    0    0  502    0  0.00000000000E+00  0.00000000000E+00  0.82119831141E+02  0.82119831141E+02  0.00000000000E+00 0.  1.
         13   -1    0    0    0    0 -0.00000000000E+00 -0.00000000000E+00 -0.10000000000E+04  0.10000000000E+04  0.00000000000E+00 0.  1.
    9000005    2    1    2  501    0 -0.60191398724E-04  0.23036315859E-01 -0.91903818476E+03  0.10809615861E+04  0.56907535977E+03 0.  0.
         13    1    3    3    0    0 -0.23733886403E+02 -0.26397711946E+03 -0.65606524182E+03  0.70757954923E+03  0.00000000000E+00 0.  1.
          3    1    3    3  501    0  0.23733826212E+02  0.26400015578E+03 -0.26297294294E+03  0.37338203690E+03  0.00000000000E+00 0.  1.
         21    1    1    2  502  501  0.60191398725E-04 -0.23036315859E-01  0.11580159045E+01  0.11582450131E+01  0.00000000000E+00 0.  1.
<mgrwt>
<rscale>  1 0.56907536E+03</rscale>
<asrwt>0</asrwt>
<pdfrwt beam="1">  1        1 0.29861820E+00 0.56907536E+03</pdfrwt>
<pdfrwt beam="2">0</pdfrwt>
<totfact> 0.37613578E+00</totfact>
</mgrwt>
</event>
<event>
 6    1  0.2677832E-003  0.6341684E+03  0.7818608E-02  0.9836948E-01
          1   -1    0    0  502    0  0.00000000000E+00  0.00000000000E+00  0.10071316742E+03  0.10071316742E+03  0.00000000000E+00 0.  1.
         13   -1    0    0    0    0 -0.00000000000E+00 -0.00000000000E+00 -0.10000000000E+04  0.10000000000E+04  0.00000000000E+00 0.  1.
    9000005    2    1    2  501    0  0.31023758690E+00  0.43977711630E+00 -0.89849900212E+03  0.10997590562E+04  0.63416814438E+03 0.  0.
         13    1    3    3    0    0 -0.27833457630E+03 -0.18740202713E+02 -0.18818229757E+03  0.33650246460E+03  0.00000000000E+00 0.  1.
          1    1    3    3  501    0  0.27864481389E+03  0.19179979829E+02 -0.71031670455E+03  0.76325659165E+03  0.00000000000E+00 0.  1.
         21    1    1    2  502  501 -0.31023758690E+00 -0.43977711630E+00 -0.78783046955E+00  0.95411116810E+00  0.00000000000E+00 0. -1.
<mgrwt>
<rscale>  1 0.63416837E+03</rscale>
<asrwt>0</asrwt>
<pdfrwt beam="1">  1        1 0.36623047E+00 0.63416837E+03</pdfrwt>
<pdfrwt beam="2">0</pdfrwt>
<totfact> 0.18919904E+00</totfact>
</mgrwt>
</event>
<event>
 6    1  0.2677832E-003  0.6477978E+03  0.7818608E-02  0.9810920E-01
          1   -1    0    0  502    0  0.00000000000E+00  0.00000000000E+00  0.10491416228E+03  0.10491416228E+03  0.00000000000E+00 0.  1.
         13   -1    0    0    0    0 -0.00000000000E+00 -0.00000000000E+00 -0.10000000000E+04  0.10000000000E+04  0.00000000000E+00 0.  1.
    9000005    2    1    2  501    0 -0.19303814197E-03  0.89380846171E-03 -0.89508942696E+03  0.11049104584E+04  0.64779783790E+03 0.  0.
         13    1    3    3    0    0 -0.51391859835E+01  0.19838364122E+03 -0.10926994414E+02  0.19875079759E+03  0.00000000000E+00 0.  1.
          1    1    3    3  501    0  0.51389929453E+01 -0.19838274741E+03 -0.88416243255E+03  0.90615966079E+03  0.00000000000E+00 0.  1.
         21    1    1    2  502  501  0.19303814197E-03 -0.89380846172E-03  0.35892411638E-02  0.37038911192E-02  0.00000000000E+00 0.  1.
<mgrwt>
<rscale>  1 0.64779784E+03</rscale>
<asrwt>0</asrwt>
<pdfrwt beam="1">  1        1 0.38150685E+00 0.64779784E+03</pdfrwt>
<pdfrwt beam="2">0</pdfrwt>
<totfact> 0.16166870E+00</totfact>
</mgrwt>
</event>
<event>
 6    1  0.2677832E-003  0.6099533E+03  0.7818608E-02  0.9884969E-01
          1   -1    0    0  502    0  0.00000000000E+00  0.00000000000E+00  0.93024239713E+02  0.93024239713E+02  0.00000000000E+00 0.  1.
         13   -1    0    0    0    0 -0.00000000000E+00 -0.00000000000E+00 -0.10000000000E+04  0.10000000000E+04  0.00000000000E+00 0.  1.
    9000005    2    1    2  501    0  0.11894599151E-01  0.51775196030E-02 -0.90698574360E+03  0.10930078704E+04  0.60995333056E+03 0.  0.
         13    1    3    3    0    0 -0.23050916285E+03  0.17293630828E+03 -0.27458466013E+03  0.39804293294E+03  0.00000000000E+00 0.  1.
          3    1    3    3  501    0  0.23052105745E+03 -0.17293113076E+03 -0.63240108347E+03  0.69496493745E+03  0.00000000000E+00 0.  1.
         21    1    1    2  502  501 -0.11894599151E-01 -0.51775196030E-02  0.99833141333E-02  0.16369323727E-01  0.00000000000E+00 0. -1.
<mgrwt>
<rscale>  1 0.60995333E+03</rscale>
<asrwt>0</asrwt>
<pdfrwt beam="1">  1        1 0.33827068E+00 0.60995333E+03</pdfrwt>
<pdfrwt beam="2">0</pdfrwt>
<totfact> 0.25162230E+00</totfact>
</mgrwt>
</event>
<event>
 6    1  0.2677832E-003  0.6623794E+03  0.7818608E-02  0.9783824E-01
          1   -1    0    0  502    0  0.00000000000E+00  0.00000000000E+00  0.11041834023E+03  0.11041834023E+03  0.00000000000E+00 0.  1.
         13   -1    0    0    0    0 -0.00000000000E+00 -0.00000000000E+00 -0.10000000000E+04  0.10000000000E+04  0.00000000000E+00 0.  1.
    9000005    2    1    2  501    0  0.67863612376E+00 -0.20787773206E+01 -0.88614726413E+03  0.11063468619E+04  0.66237574178E+03 0.  0.
         13    1    3    3    0    0 -0.25725145711E+03 -0.97234148984E+02 -0.75146293122E+03  0.80020580410E+03  0.00000000000E+00 0.  1.
          1    1    3    3  501    0  0.25793009324E+03  0.95155371664E+02 -0.13468433291E+03  0.30614105782E+03  0.00000000000E+00 0.  1.
         21    1    1    2  502  501 -0.67863612376E+00  0.20787773206E+01 -0.34343956461E+01  0.40714783054E+01  0.00000000000E+00 0.  1.
<mgrwt>
<rscale>  1 0.66237935E+03</rscale>
<asrwt>0</asrwt>
<pdfrwt beam="1">  1        1 0.40152208E+00 0.66237935E+03</pdfrwt>
<pdfrwt beam="2">0</pdfrwt>
<totfact> 0.13140442E+00</totfact>
</mgrwt>
</event>
<event>
 6    1  0.2677832E-003  0.6054889E+03  0.7818608E-02  0.9894083E-01
          1   -1    0    0  502    0  0.00000000000E+00  0.00000000000E+00  0.91907707830E+02  0.91907707830E+02  0.00000000000E+00 0.  1.
         13   -1    0    0    0    0 -0.00000000000E+00 -0.00000000000E+00 -0.10000000000E+04  0.10000000000E+04  0.00000000000E+00 0.  1.
    9000005    2    1    2  501    0  0.53132117918E-01  0.27937823322E-01 -0.90834190946E+03  0.10916509739E+04  0.60548891041E+03 0.  0.
         13    1    3    3    0    0 -0.18902220055E+03  0.21916403775E+03 -0.29403536370E+03  0.41257612976E+03  0.00000000000E+00 0.  1.
          3    1    3    3  501    0  0.18907533267E+03 -0.21913609992E+03 -0.61430654576E+03  0.67907484409E+03  0.00000000000E+00 0.  1.
         21    1    1    2  502  501 -0.53132117918E-01 -0.27937823322E-01  0.24961728865E+00  0.25673397656E+00  0.00000000000E+00 0.  1.
<mgrwt>
<rscale>  1 0.60548891E+03</rscale>
<asrwt>0</asrwt>
<pdfrwt beam="1">  1        1 0.33421055E+00 0.60548891E+03</pdfrwt>
<pdfrwt beam="2">0</pdfrwt>
<totfact> 0.26224541E+00</totfact>
</mgrwt>
</event>
<event>
 6    1  0.2677832E-003  0.6510713E+03  0.7818608E-02  0.9804771E-01
          1   -1    0    0  502    0  0.00000000000E+00  0.00000000000E+00  0.10597371266E+03  0.10597371266E+03  0.00000000000E+00 0.  1.
         13   -1    0    0    0    0 -0.00000000000E+00 -0.00000000000E+00 -0.10000000000E+04  0.10000000000E+04  0.00000000000E+00 0.  1.
    9000005    2    1    2  501    0 -0.16918662084E-03  0.10206692034E-03 -0.89402648510E+03  0.11059734331E+04  0.65107133149E+03 0.  0.
         13    1    3    3    0    0  0.48933794296E+02  0.50340547682E+02  0.92961029884E+02  0.11649223168E+03  0.00000000000E+00 0.  1.
          1    1    3    3  501    0 -0.48933963483E+02 -0.50340445615E+02 -0.98698751498E+03  0.98948120143E+03  0.00000000000E+00 0.  1.
         21    1    1    2  502  501  0.16918662085E-03 -0.10206692035E-03  0.19775647595E-03  0.27955212874E-03  0.00000000000E+00 0.  1.
<mgrwt>
<rscale>  1 0.65107133E+03</rscale>
<asrwt>0</asrwt>
<pdfrwt beam="1">  1        1 0.38535977E+00 0.65107133E+03</pdfrwt>
<pdfrwt beam="2">0</pdfrwt>
<totfact> 0.15535844E+00</totfact>
</mgrwt>
</event>
<event>
 6    1  0.2677832E-003  0.6715489E+03  0.7818608E-02  0.9767164E-01
          1   -1    0    0  502    0  0.00000000000E+00  0.00000000000E+00  0.11299082356E+03  0.11299082356E+03  0.00000000000E+00 0.  1.
         13   -1    0    0    0    0 -0.00000000000E+00 -0.00000000000E+00 -0.10000000000E+04  0.10000000000E+04  0.00000000000E+00 0.  1.
    9000005    2    1    2  501    0  0.10178339222E-01 -0.12279282018E-01 -0.88725521624E+03  0.11127442674E+04  0.67154894501E+03 0.  0.
         13    1    3    3    0    0 -0.18421239627E+03 -0.28069014686E+03 -0.45189944331E+03  0.56296915755E+03  0.00000000000E+00 0.  1.
          3    1    3    3  501    0  0.18422257461E+03  0.28067786758E+03 -0.43535577293E+03  0.54977510981E+03  0.00000000000E+00 0.  1.
         21    1    1    2  502  501 -0.10178339222E-01  0.12279282018E-01  0.24603979877E+00  0.24655620442E+00  0.00000000000E+00 0.  1.
<mgrwt>
<rscale>  1 0.67154895E+03</rscale>
<asrwt>0</asrwt>
<pdfrwt beam="1">  1        1 0.41087659E+00 0.67154895E+03</pdfrwt>
<pdfrwt beam="2">0</pdfrwt>
<totfact> 0.11912266E+00</totfact>
</mgrwt>
</event>
<event>
 6    1  0.2677832E-003  0.6465202E+03  0.7818608E-02  0.9813331E-01
          1   -1    0    0  502    0  0.00000000000E+00  0.00000000000E+00  0.10455595191E+03  0.10455595191E+03  0.00000000000E+00 0.  1.
         13   -1    0    0    0    0 -0.00000000000E+00 -0.00000000000E+00 -0.10000000000E+04  0.10000000000E+04  0.00000000000E+00 0.  1.
    9000005    2    1    2  501    0 -0.29507368005E-01  0.45706553951E-01 -0.89548868901E+03  0.11044855773E+04  0.64652022039E+03 0.  0.
         13    1    3    3    0    0 -0.94700996011E+02 -0.30733929081E+03 -0.50334355102E+03  0.59731101503E+03  0.00000000000E+00 0.  1.
          1    1    3    3  501    0  0.94671488643E+02  0.30738499737E+03 -0.39214513799E+03  0.50717456227E+03  0.00000000000E+00 0.  1.
         21    1    1    2  502  501  0.29507368005E-01 -0.45706553951E-01  0.44640911605E-01  0.70374603584E-01  0.00000000000E+00 0.  1.
<mgrwt>
<rscale>  1 0.64652022E+03</rscale>
<asrwt>0</asrwt>
<pdfrwt beam="1">  1        1 0.38020426E+00 0.64652022E+03</pdfrwt>
<pdfrwt beam="2">0</pdfrwt>
<totfact> 0.16386180E+00</totfact>
</mgrwt>
</event>
