<event>
 6    1  0.7575152E-003  0.6722000E+03  0.7818608E-02  0.9765992E-01
          1   -1    0    0  502    0  0.00000000000E+00  0.00000000000E+00  0.11296342003E+03  0.11296342003E+03  0.00000000000E+00 0.  1.
         13   -1    0    0    0    0 -0.00000000000E+00 -0.00000000000E+00 -0.10000000000E+04  0.10000000000E+04  0.00000000000E+00 0.  1.
    9000005    2    1    2  501    0  0.18016866449E-04  0.79569537576E-04 -0.88703678166E+03  0.11129632025E+04  0.67219999853E+03 0.  0.
         13    1    3    3    0    0  0.21091449334E+03  0.48171214237E+02 -0.17652456392E+02  0.21706450332E+03  0.00000000000E+00 0.  1.
          3    1    3    3  501    0 -0.21091447533E+03 -0.48171134668E+02 -0.86938432527E+03  0.89589869915E+03  0.00000000000E+00 0.  1.
         21    1    1    2  502  501 -0.18016866439E-04 -0.79569537578E-04  0.20168551312E-03  0.21756140510E-03  0.00000000000E+00 0. -1.
<mgrwt>
<rscale>  1 0.67220000E+03</rscale>
<asrwt>0</asrwt>
<pdfrwt beam="1">  1        1 0.41077694E+00 0.67220000E+03</pdfrwt>
<pdfrwt beam="2">0</pdfrwt>
<totfact> 0.11923074E+00</totfact>
</mgrwt>
</event>
<event>
 6    1  0.7575152E-003  0.6593885E+03  0.7818608E-02  0.9789320E-01
          1   -1    0    0  502    0  0.00000000000E+00  0.00000000000E+00  0.10986892980E+03  0.10986892980E+03  0.00000000000E+00 0.  1.
         13   -1    0    0    0    0 -0.00000000000E+00 -0.00000000000E+00 -0.10000000000E+04  0.10000000000E+04  0.00000000000E+00 0.  1.
    9000005    2    1    2  501    0 -0.17525859835E+00 -0.17059166913E+00 -0.89128753778E+03  0.11086868831E+04  0.65938840601E+03 0.  0.
         13    1    3    3    0    0  0.21274634935E+03 -0.25126921149E+03 -0.47509648730E+03  0.57802586278E+03  0.00000000000E+00 0.  1.
          3    1    3    3  501    0 -0.21292160795E+03  0.25109861982E+03 -0.41619105048E+03  0.53066102034E+03  0.00000000000E+00 0.  1.
         21    1    1    2  502  501  0.17525859835E+00  0.17059166913E+00  0.11564675807E+01  0.11820466823E+01  0.00000000000E+00 0. -1.
<mgrwt>
<rscale>  1 0.65938845E+03</rscale>
<asrwt>0</asrwt>
<pdfrwt beam="1">  1        1 0.39952422E+00 0.65938845E+03</pdfrwt>
<pdfrwt beam="2">0</pdfrwt>
<totfact> 0.13420381E+00</totfact>
</mgrwt>
</event>
<event>
 6    1  0.7575152E-003  0.6381100E+03  0.7818608E-02  0.9829349E-01
          1   -1    0    0  502    0  0.00000000000E+00  0.00000000000E+00  0.10182102767E+03  0.10182102767E+03  0.00000000000E+00 0.  1.
         13   -1    0    0    0    0 -0.00000000000E+00 -0.00000000000E+00 -0.10000000000E+04  0.10000000000E+04  0.00000000000E+00 0.  1.
    9000005    2    1    2  501    0  0.36007484813E-03  0.39706461732E-02 -0.89820371745E+03  0.11017959634E+04  0.63811004296E+03 0.  0.
         13    1    3    3    0    0  0.88476291868E+02 -0.28134177962E+03 -0.65925382265E+03  0.72221662530E+03  0.00000000000E+00 0.  1.
          3    1    3    3  501    0 -0.88475931793E+02  0.28134575026E+03 -0.23894989480E+03  0.37957933811E+03  0.00000000000E+00 0.  1.
         21    1    1    2  502  501 -0.36007484814E-03 -0.39706461732E-02  0.24745127588E-01  0.25064257904E-01  0.00000000000E+00 0.  1.
<mgrwt>
<rscale>  1 0.63811004E+03</rscale>
<asrwt>0</asrwt>
<pdfrwt beam="1">  1        1 0.37025906E+00 0.63811004E+03</pdfrwt>
<pdfrwt beam="2">0</pdfrwt>
<totfact> 0.18152161E+00</totfact>
</mgrwt>
</event>
<event>
 6    1  0.7575152E-003  0.6702071E+03  0.7818608E-02  0.9769584E-01
          1   -1    0    0  502    0  0.00000000000E+00  0.00000000000E+00  0.12465657283E+03  0.12465657283E+03  0.00000000000E+00 0.  1.
         13   -1    0    0    0    0 -0.00000000000E+00 -0.00000000000E+00 -0.10000000000E+04  0.10000000000E+04  0.00000000000E+00 0.  1.
    9000005    2    1    2  501    0  0.91290322338E+00 -0.27615516164E+00 -0.88768515470E+03  0.11122780474E+04  0.67020639443E+03 0.  0.
         13    1    3    3    0    0  0.14850369702E+03 -0.67679777569E+02  0.42019133335E+02  0.16852153538E+03  0.00000000000E+00 0.  1.
          3    1    3    3  501    0 -0.14759079380E+03  0.67403622407E+02 -0.92970428804E+03  0.94375651199E+03  0.00000000000E+00 0.  1.
         21    1    1    2  502  501 -0.91290322338E+00  0.27615516164E+00  0.12341727532E+02  0.12378525455E+02  0.00000000000E+00 0.  1.
<mgrwt>
<rscale>  1 0.67020707E+03</rscale>
<asrwt>0</asrwt>
<pdfrwt beam="1">  1        1 0.45329758E+00 0.67020707E+03</pdfrwt>
<pdfrwt beam="2">0</pdfrwt>
<totfact> 0.76394143E-01</totfact>
</mgrwt>
</event>
<event>
 6    1  0.7575152E-003  0.6571989E+03  0.7818608E-02  0.9793364E-01
          1   -1    0    0  502    0  0.00000000000E+00  0.00000000000E+00  0.10797761985E+03  0.10797761985E+03  0.00000000000E+00 0.  1.
         13   -1    0    0    0    0 -0.00000000000E+00 -0.00000000000E+00 -0.10000000000E+04  0.10000000000E+04  0.00000000000E+00 0.  1.
    9000005    2    1    2  501    0 -0.20513621422E-04 -0.14505269974E-04 -0.89202238577E+03  0.11079775941E+04  0.65719891381E+03 0.  0.
         13    1    3    3    0    0 -0.21159060809E+03  0.14090800146E+03 -0.94985844445E+02  0.27138157814E+03  0.00000000000E+00 0.  1.
          3    1    3    3  501    0  0.21159058758E+03 -0.14090801597E+03 -0.79703654133E+03  0.83659601597E+03  0.00000000000E+00 0.  1.
         21    1    1    2  502  501  0.20513621413E-04  0.14505269988E-04  0.56248842007E-05  0.25745889830E-04  0.00000000000E+00 0. -1.
<mgrwt>
<rscale>  1 0.65719891E+03</rscale>
<asrwt>0</asrwt>
<pdfrwt beam="1">  1        1 0.39264672E+00 0.65719891E+03</pdfrwt>
<pdfrwt beam="2">0</pdfrwt>
<totfact> 0.14405967E+00</totfact>
</mgrwt>
</event>
<event>
 6    1  0.7575152E-003  0.6668822E+03  0.7818608E-02  0.9775607E-01
          1   -1    0    0  502    0  0.00000000000E+00  0.00000000000E+00  0.11118820125E+03  0.11118820125E+03  0.00000000000E+00 0.  1.
         13   -1    0    0    0    0 -0.00000000000E+00 -0.00000000000E+00 -0.10000000000E+04  0.10000000000E+04  0.00000000000E+00 0.  1.
    9000005    2    1    2  501    0 -0.65764642272E-04 -0.89226472554E-04 -0.88881701981E+03  0.11111829790E+04  0.66688223710E+03 0.  0.
         13    1    3    3    0    0  0.31676794691E+03 -0.10221818687E+03 -0.41139859912E+03  0.52918739334E+03  0.00000000000E+00 0.  1.
          3    1    3    3  501    0 -0.31676801267E+03  0.10221809764E+03 -0.47741842069E+03  0.58199558568E+03  0.00000000000E+00 0.  1.
         21    1    1    2  502  501  0.65764642267E-04  0.89226472560E-04  0.52210553905E-02  0.52222318737E-02  0.00000000000E+00 0. -1.
<mgrwt>
<rscale>  1 0.66688224E+03</rscale>
<asrwt>0</asrwt>
<pdfrwt beam="1">  1        1 0.40432158E+00 0.66688224E+03</pdfrwt>
<pdfrwt beam="2">0</pdfrwt>
<totfact> 0.12756696E+00</totfact>
</mgrwt>
</event>
<event>
 6    1  0.7575152E-003  0.6435633E+03  0.7818608E-02  0.9818933E-01
          1   -1    0    0  502    0  0.00000000000E+00  0.00000000000E+00  0.10354343482E+03  0.10354343482E+03  0.00000000000E+00 0.  1.
         13   -1    0    0    0    0 -0.00000000000E+00 -0.00000000000E+00 -0.10000000000E+04  0.10000000000E+04  0.00000000000E+00 0.  1.
    9000005    2    1    2  501    0  0.77708284607E-06 -0.97262602594E-06 -0.89645656566E+03  0.11035434335E+04  0.64356331116E+03 0.  0.
         13    1    3    3    0    0 -0.18567438269E+03 -0.25500366815E+03 -0.55724023331E+03  0.64032688900E+03  0.00000000000E+00 0.  1.
          1    1    3    3  501    0  0.18567438347E+03  0.25500366717E+03 -0.33921633235E+03  0.46321654448E+03  0.00000000000E+00 0.  1.
         21    1    1    2  502  501 -0.77708286551E-06  0.97262602117E-06  0.47702008370E-06  0.13331944034E-05  0.00000000000E+00 0.  1.
<mgrwt>
<rscale>  1 0.64356331E+03</rscale>
<asrwt>0</asrwt>
<pdfrwt beam="1">  1        1 0.37652238E+00 0.64356331E+03</pdfrwt>
<pdfrwt beam="2">0</pdfrwt>
<totfact> 0.17019468E+00</totfact>
</mgrwt>
</event>
<event>
 6    1  0.7575152E-003  0.6762077E+03  0.7818608E-02  0.9758808E-01
          1   -1    0    0  502    0  0.00000000000E+00  0.00000000000E+00  0.11570861979E+03  0.11570861979E+03  0.00000000000E+00 0.  1.
         13   -1    0    0    0    0 -0.00000000000E+00 -0.00000000000E+00 -0.10000000000E+04  0.10000000000E+04  0.00000000000E+00 0.  1.
    9000005    2    1    2  501    0  0.25050485760E+01  0.30921188388E+01 -0.87725719470E+03  0.11076267739E+04  0.67619601309E+03 0.  0.
         13    1    3    3    0    0 -0.14186060312E+03 -0.22345932429E+03 -0.77707282953E+03  0.82091454046E+03  0.00000000000E+00 0.  1.
          3    1    3    3  501    0  0.14436565170E+03  0.22655144313E+03 -0.10018436516E+03  0.28671223343E+03  0.00000000000E+00 0.  1.
         21    1    1    2  502  501 -0.25050485760E+01 -0.30921188388E+01 -0.70341855144E+01  0.80818458988E+01  0.00000000000E+00 0. -1.
<mgrwt>
<rscale>  1 0.67620772E+03</rscale>
<asrwt>0</asrwt>
<pdfrwt beam="1">  1        1 0.42075950E+00 0.67620772E+03</pdfrwt>
<pdfrwt beam="2">0</pdfrwt>
<totfact> 0.10742754E+00</totfact>
</mgrwt>
</event>
<event>
 6    1  0.7575152E-003  0.6351836E+03  0.7818608E-02  0.9834985E-01
          1   -1    0    0  502    0  0.00000000000E+00  0.00000000000E+00  0.10087954852E+03  0.10087954852E+03  0.00000000000E+00 0.  1.
         13   -1    0    0    0    0 -0.00000000000E+00 -0.00000000000E+00 -0.10000000000E+04  0.10000000000E+04  0.00000000000E+00 0.  1.
    9000005    2    1    2  501    0 -0.13110561008E-03 -0.22339976357E-03 -0.89913546272E+03  0.11008645350E+04  0.63518355158E+03 0.  0.
         13    1    3    3    0    0  0.11143122089E+03 -0.17856481213E+03 -0.37377281509E+02  0.21377411043E+03  0.00000000000E+00 0.  1.
          3    1    3    3  501    0 -0.11143135199E+03  0.17856458873E+03 -0.86175818121E+03  0.88709042461E+03  0.00000000000E+00 0.  1.
         21    1    1    2  502  501  0.13110561009E-03  0.22339976358E-03  0.15011240371E-01  0.15013475068E-01  0.00000000000E+00 0.  1.
<mgrwt>
<rscale>  1 0.63518355E+03</rscale>
<asrwt>0</asrwt>
<pdfrwt beam="1">  1        1 0.36683550E+00 0.63518355E+03</pdfrwt>
<pdfrwt beam="2">0</pdfrwt>
<totfact> 0.18801206E+00</totfact>
</mgrwt>
</event>
<event>
 6    1  0.7575152E-003  0.6540344E+03  0.7818608E-02  0.9799238E-01
          1   -1    0    0  502    0  0.00000000000E+00  0.00000000000E+00  0.10700463423E+03  0.10700463423E+03  0.00000000000E+00 0.  1.
         13   -1    0    0    0    0 -0.00000000000E+00 -0.00000000000E+00 -0.10000000000E+04  0.10000000000E+04  0.00000000000E+00 0.  1.
    9000005    2    1    2  501    0  0.21051537518E-02 -0.10652690124E-02 -0.89305973432E+03  0.11069402225E+04  0.65403437755E+03 0.  0.
         13    1    3    3    0    0 -0.26688271669E+03  0.17923548414E+03 -0.34515246598E+03  0.47167994235E+03  0.00000000000E+00 0.  1.
          1    1    3    3  501    0  0.26688482185E+03 -0.17923654940E+03 -0.54790726834E+03  0.63526028010E+03  0.00000000000E+00 0.  1.
         21    1    1    2  502  501 -0.21051537518E-02  0.10652690124E-02  0.64368552173E-01  0.64411776712E-01  0.00000000000E+00 0. -1.
<mgrwt>
<rscale>  1 0.65403438E+03</rscale>
<asrwt>0</asrwt>
<pdfrwt beam="1">  1        1 0.38910858E+00 0.65403438E+03</pdfrwt>
<pdfrwt beam="2">0</pdfrwt>
<totfact> 0.14944993E+00</totfact>
</mgrwt>
</event>
<event>
 6    1  0.7575152E-003  0.5427567E+03  0.7818608E-02  0.1003184E+00
          1   -1    0    0  502    0  0.00000000000E+00  0.00000000000E+00  0.73857704682E+02  0.73857704682E+02  0.00000000000E+00 0.  1.
         13   -1    0    0    0    0 -0.00000000000E+00 -0.00000000000E+00 -0.10000000000E+04  0.10000000000E+04  0.00000000000E+00 0.  1.
    9000005    2    1    2  501    0  0.37781519233E-02  0.44311081239E-02 -0.92635373777E+03  0.10736461821E+04  0.54275673809E+03 0.  0.
         13    1    3    3    0    0  0.24317880666E+03  0.12020863145E+03 -0.47870992293E+03  0.55022653280E+03  0.00000000000E+00 0.  1.
          3    1    3    3  501    0 -0.24317502851E+03 -0.12020420034E+03 -0.44764381484E+03  0.52341964926E+03  0.00000000000E+00 0.  1.
         21    1    1    2  502  501 -0.37781519233E-02 -0.44311081239E-02  0.21144245214E+00  0.21152262224E+00  0.00000000000E+00 0. -1.
<mgrwt>
<rscale>  1 0.54275674E+03</rscale>
<asrwt>0</asrwt>
<pdfrwt beam="1">  1        1 0.26857404E+00 0.54275674E+03</pdfrwt>
<pdfrwt beam="2">0</pdfrwt>
<totfact> 0.50934399E+00</totfact>
</mgrwt>
</event>
<event>
 6    1  0.7575152E-003  0.6501154E+03  0.7818608E-02  0.9806563E-01
          1   -1    0    0  502    0  0.00000000000E+00  0.00000000000E+00  0.10888293930E+03  0.10888293930E+03  0.00000000000E+00 0.  1.
         13   -1    0    0    0    0 -0.00000000000E+00 -0.00000000000E+00 -0.10000000000E+04  0.10000000000E+04  0.00000000000E+00 0.  1.
    9000005    2    1    2  501    0 -0.89976376520E+00 -0.10866226626E+01 -0.89416577330E+03  0.11055236280E+04  0.65011389133E+03 0.  0.
         13    1    3    3    0    0 -0.13292501243E+03 -0.11374190100E+03  0.19032867236E+02  0.17597877431E+03  0.00000000000E+00 0.  1.
          1    1    3    3  501    0  0.13202524866E+03  0.11265527834E+03 -0.91319864053E+03  0.92954485373E+03  0.00000000000E+00 0.  1.
         21    1    1    2  502  501  0.89976376520E+00  0.10866226626E+01  0.30487125944E+01  0.33593112579E+01  0.00000000000E+00 0. -1.
<mgrwt>
<rscale>  1 0.65011542E+03</rscale>
<asrwt>0</asrwt>
<pdfrwt beam="1">  1        1 0.39593880E+00 0.65011542E+03</pdfrwt>
<pdfrwt beam="2">0</pdfrwt>
<totfact> 0.13947214E+00</totfact>
</mgrwt>
</event>
<event>
 6    1  0.7575152E-003  0.6512414E+03  0.7818608E-02  0.9804453E-01
          1   -1    0    0  502    0  0.00000000000E+00  0.00000000000E+00  0.10606900321E+03  0.10606900321E+03  0.00000000000E+00 0.  1.
         13   -1    0    0    0    0 -0.00000000000E+00 -0.00000000000E+00 -0.10000000000E+04  0.10000000000E+04  0.00000000000E+00 0.  1.
    9000005    2    1    2  501    0  0.35623727391E-01  0.11461339556E+00 -0.89380978019E+03  0.11058984197E+04  0.65124141226E+03 0.  0.
         13    1    3    3    0    0 -0.22934667095E+02  0.31964264209E+03 -0.34844081876E+03  0.47340091020E+03  0.00000000000E+00 0.  1.
          1    1    3    3  501    0  0.22970290822E+02 -0.31952802870E+03 -0.54536896143E+03  0.63249750946E+03  0.00000000000E+00 0.  1.
         21    1    1    2  502  501 -0.35623727391E-01 -0.11461339556E+00 -0.12121660580E+00  0.17058354527E+00  0.00000000000E+00 0.  1.
<mgrwt>
<rscale>  1 0.65124142E+03</rscale>
<asrwt>0</asrwt>
<pdfrwt beam="1">  1        1 0.38570628E+00 0.65124142E+03</pdfrwt>
<pdfrwt beam="2">0</pdfrwt>
<totfact> 0.15480610E+00</totfact>
</mgrwt>
</event>
<event>
 6    1  0.7575152E-003  0.6140167E+03  0.7818608E-02  0.9876745E-01
          1   -1    0    0  502    0  0.00000000000E+00  0.00000000000E+00  0.94255593046E+02  0.94255593046E+02  0.00000000000E+00 0.  1.
         13   -1    0    0    0    0 -0.00000000000E+00 -0.00000000000E+00 -0.10000000000E+04  0.10000000000E+04  0.00000000000E+00 0.  1.
    9000005    2    1    2  501    0  0.73130189804E-04  0.45391832145E-04 -0.90574587682E+03  0.10942541207E+04  0.61401668318E+03 0.  0.
         13    1    3    3    0    0  0.96464187610E+02 -0.25823841050E+03 -0.69370184444E+03  0.74646812734E+03  0.00000000000E+00 0.  1.
          1    1    3    3  501    0 -0.96464114480E+02  0.25823845590E+03 -0.21204403237E+03  0.34778599332E+03  0.00000000000E+00 0.  1.
         21    1    1    2  502  501 -0.73130189795E-04 -0.45391832121E-04  0.14698644201E-02  0.14723823744E-02  0.00000000000E+00 0. -1.
<mgrwt>
<rscale>  1 0.61401668E+03</rscale>
<asrwt>0</asrwt>
<pdfrwt beam="1">  1        1 0.34274833E+00 0.61401668E+03</pdfrwt>
<pdfrwt beam="2">0</pdfrwt>
<totfact> 0.24042803E+00</totfact>
</mgrwt>
</event>
<event>
 6    1  0.7575152E-003  0.6267994E+03  0.7818608E-02  0.9851314E-01
          1   -1    0    0  502    0  0.00000000000E+00  0.00000000000E+00  0.99039460818E+02  0.99039460818E+02  0.00000000000E+00 0.  1.
         13   -1    0    0    0    0 -0.00000000000E+00 -0.00000000000E+00 -0.10000000000E+04  0.10000000000E+04  0.00000000000E+00 0.  1.
    9000005    2    1    2  501    0  0.47030176153E+00 -0.62685084577E-01 -0.90170461575E+03  0.10981569853E+04  0.62679927018E+03 0.  0.
         13    1    3    3    0    0  0.16786227242E+02 -0.30883552728E+03 -0.53999808972E+03  0.62230145206E+03  0.00000000000E+00 0.  1.
          1    1    3    3  501    0 -0.16315925480E+02  0.30877284220E+03 -0.36170652603E+03  0.47585553320E+03  0.00000000000E+00 0.  1.
         21    1    1    2  502  501 -0.47030176153E+00  0.62685084577E-01  0.74407657012E+00  0.88247555713E+00  0.00000000000E+00 0.  1.
<mgrwt>
<rscale>  1 0.62679945E+03</rscale>
<asrwt>0</asrwt>
<pdfrwt beam="1">  1        1 0.36014425E+00 0.62679945E+03</pdfrwt>
<pdfrwt beam="2">0</pdfrwt>
<totfact> 0.20144201E+00</totfact>
</mgrwt>
</event>
<event>
 6    1  0.7575152E-003  0.6458561E+03  0.7818608E-02  0.9814586E-01
          1   -1    0    0  502    0  0.00000000000E+00  0.00000000000E+00  0.10429451479E+03  0.10429451479E+03  0.00000000000E+00 0.  1.
         13   -1    0    0    0    0 -0.00000000000E+00 -0.00000000000E+00 -0.10000000000E+04  0.10000000000E+04  0.00000000000E+00 0.  1.
    9000005    2    1    2  501    0  0.56889680340E-02 -0.34070146968E-01 -0.89567718936E+03  0.11042498629E+04  0.64585612244E+03 0.  0.
         13    1    3    3    0    0 -0.15042001984E+02 -0.11797251534E+03 -0.96117725709E+03  0.96850683825E+03  0.00000000000E+00 0.  1.
          1    1    3    3  501    0  0.15047690953E+02  0.11793844519E+03  0.65500067724E+02  0.13574302461E+03  0.00000000000E+00 0.  1.
         21    1    1    2  502  501 -0.56889680340E-02  0.34070146968E-01 -0.28295851329E-01  0.44651925761E-01  0.00000000000E+00 0. -1.
<mgrwt>
<rscale>  1 0.64585612E+03</rscale>
<asrwt>0</asrwt>
<pdfrwt beam="1">  1        1 0.37925358E+00 0.64585612E+03</pdfrwt>
<pdfrwt beam="2">0</pdfrwt>
<totfact> 0.16547211E+00</totfact>
</mgrwt>
</event>
<event>
 6    1  0.7575152E-003  0.6244541E+03  0.7818608E-02  0.9855931E-01
          1   -1    0    0  502    0  0.00000000000E+00  0.00000000000E+00  0.97487576234E+02  0.97487576234E+02  0.00000000000E+00 0.  1.
         13   -1    0    0    0    0 -0.00000000000E+00 -0.00000000000E+00 -0.10000000000E+04  0.10000000000E+04  0.00000000000E+00 0.  1.
    9000005    2    1    2  501    0  0.25246396035E-04  0.49697000463E-04 -0.90251425640E+03  0.10974857428E+04  0.62445413966E+03 0.  0.
         13    1    3    3    0    0 -0.20115556992E+03  0.19174225706E+03 -0.70139928893E+03  0.75444656468E+03  0.00000000000E+00 0.  1.
          1    1    3    3  501    0  0.20115559517E+03 -0.19174220736E+03 -0.20111496747E+03  0.34303917807E+03  0.00000000000E+00 0.  1.
         21    1    1    2  502  501 -0.25246396039E-04 -0.49697000460E-04  0.18326335385E-02  0.18334810767E-02  0.00000000000E+00 0.  1.
<mgrwt>
<rscale>  1 0.62445414E+03</rscale>
<asrwt>0</asrwt>
<pdfrwt beam="1">  1        1 0.35450102E+00 0.62445414E+03</pdfrwt>
<pdfrwt beam="2">0</pdfrwt>
<totfact> 0.21329844E+00</totfact>
</mgrwt>
</event>
<event>
 6    1  0.7575152E-003  0.6503685E+03  0.7818608E-02  0.9806088E-01
          1   -1    0    0  502    0  0.00000000000E+00  0.00000000000E+00  0.11163237122E+03  0.11163237122E+03  0.00000000000E+00 0.  1.
         13   -1    0    0    0    0 -0.00000000000E+00 -0.00000000000E+00 -0.10000000000E+04  0.10000000000E+04  0.00000000000E+00 0.  1.
    9000005    2    1    2  501    0  0.15530677652E+00 -0.50158016570E-01 -0.89425395341E+03  0.11057437845E+04  0.65036847796E+03 0.  0.
         13    1    3    3    0    0  0.13925637765E+03 -0.17304792751E+03 -0.43287523818E+02  0.22630009644E+03  0.00000000000E+00 0.  1.
          1    1    3    3  501    0 -0.13910107087E+03  0.17299776949E+03 -0.85096642959E+03  0.87944368805E+03  0.00000000000E+00 0.  1.
         21    1    1    2  502  501 -0.15530677652E+00  0.50158016570E-01  0.58863246257E+01  0.58885867252E+01  0.00000000000E+00 0. -1.
<mgrwt>
<rscale>  1 0.65036850E+03</rscale>
<asrwt>0</asrwt>
<pdfrwt beam="1">  1        1 0.40593675E+00 0.65036850E+03</pdfrwt>
<pdfrwt beam="2">0</pdfrwt>
<totfact> 0.12585746E+00</totfact>
</mgrwt>
</event>
<event>
 6    1  0.7575152E-003  0.6207095E+03  0.7818608E-02  0.9863348E-01
          1   -1    0    0  502    0  0.00000000000E+00  0.00000000000E+00  0.96466612472E+02  0.96466612472E+02  0.00000000000E+00 0.  1.
         13   -1    0    0    0    0 -0.00000000000E+00 -0.00000000000E+00 -0.10000000000E+04  0.10000000000E+04  0.00000000000E+00 0.  1.
    9000005    2    1    2  501    0 -0.13633681437E-01  0.24663496428E-01 -0.90367844197E+03  0.10963188459E+04  0.62070950099E+03 0.  0.
         13    1    3    3    0    0 -0.13582921931E+02 -0.19098816965E+03 -0.20438338783E+02  0.19255830911E+03  0.00000000000E+00 0.  1.
          1    1    3    3  501    0  0.13569288249E+02  0.19101283314E+03 -0.88324010319E+03  0.90376053681E+03  0.00000000000E+00 0.  1.
         21    1    1    2  502  501  0.13633681437E-01 -0.24663496428E-01  0.14505444245E+00  0.14776656117E+00  0.00000000000E+00 0.  1.
<mgrwt>
<rscale>  1 0.62070950E+03</rscale>
<asrwt>0</asrwt>
<pdfrwt beam="1">  1        1 0.35078842E+00 0.62070950E+03</pdfrwt>
<pdfrwt beam="2">0</pdfrwt>
<totfact> 0.22154985E+00</totfact>
</mgrwt>
</event>
<event>
 6    1  0.7575152E-003  0.6469869E+03  0.7818608E-02  0.9812449E-01
          1   -1    0    0  502    0  0.00000000000E+00  0.00000000000E+00  0.10464839087E+03  0.10464839087E+03  0.00000000000E+00 0.  1.
         13   -1    0    0    0    0 -0.00000000000E+00 -0.00000000000E+00 -0.10000000000E+04  0.10000000000E+04  0.00000000000E+00 0.  1.
    9000005    2    1    2  501    0 -0.10438679988E-03 -0.61848222117E-04 -0.89535196069E+03  0.11046480190E+04  0.64698694907E+03 0.  0.
         13    1    3    3    0    0  0.99764526429E+01  0.31897639793E+03 -0.35728935890E+03  0.47906279132E+03  0.00000000000E+00 0.  1.
          1    1    3    3  501    0 -0.99765570297E+01 -0.31897645978E+03 -0.53806260180E+03  0.62558522764E+03  0.00000000000E+00 0.  1.
         21    1    1    2  502  501  0.10438679988E-03  0.61848222098E-04  0.35156584242E-03  0.37191443656E-03  0.00000000000E+00 0. -1.
<mgrwt>
<rscale>  1 0.64698695E+03</rscale>
<asrwt>0</asrwt>
<pdfrwt beam="1">  1        1 0.38054041E+00 0.64698695E+03</pdfrwt>
<pdfrwt beam="2">0</pdfrwt>
<totfact> 0.16328905E+00</totfact>
</mgrwt>
</event>
<event>
 6    1  0.7575152E-003  0.6542528E+03  0.7818608E-02  0.9798832E-01
          1   -1    0    0  502    0  0.00000000000E+00  0.00000000000E+00  0.10707296433E+03  0.10707296433E+03  0.00000000000E+00 0.  1.
         13   -1    0    0    0    0 -0.00000000000E+00 -0.00000000000E+00 -0.10000000000E+04  0.10000000000E+04  0.00000000000E+00 0.  1.
    9000005    2    1    2  501    0 -0.28907537880E-01 -0.24957084755E-01 -0.89298166533E+03  0.11070063092E+04  0.65425278952E+03 0.  0.
         13    1    3    3    0    0 -0.42620328175E+02 -0.18426200150E+03 -0.89814306865E+03  0.91783982771E+03  0.00000000000E+00 0.  1.
          3    1    3    3  501    0  0.42591420637E+02  0.18423704442E+03  0.51614033107E+01  0.18916648152E+03  0.00000000000E+00 0.  1.
         21    1    1    2  502  501  0.28907537880E-01  0.24957084755E-01  0.54629664554E-01  0.66655097892E-01  0.00000000000E+00 0. -1.
<mgrwt>
<rscale>  1 0.65425279E+03</rscale>
<asrwt>0</asrwt>
<pdfrwt beam="1">  1        1 0.38935705E+00 0.65425279E+03</pdfrwt>
<pdfrwt beam="2">0</pdfrwt>
<totfact> 0.14906533E+00</totfact>
</mgrwt>
</event>
<event>
 6    1  0.7575152E-003  0.6557379E+03  0.7818608E-02  0.9796072E-01
          1   -1    0    0  502    0  0.00000000000E+00  0.00000000000E+00  0.10767174561E+03  0.10767174561E+03  0.00000000000E+00 0.  1.
         13   -1    0    0    0    0 -0.00000000000E+00 -0.00000000000E+00 -0.10000000000E+04  0.10000000000E+04  0.00000000000E+00 0.  1.
    9000005    2    1    2  501    0 -0.98926110872E-01 -0.64958373486E-01 -0.89247934742E+03  0.11074798210E+04  0.65573787009E+03 0.  0.
         13    1    3    3    0    0 -0.24135059504E+03 -0.17737623341E+03 -0.22085206206E+03  0.37213985438E+03  0.00000000000E+00 0.  1.
          3    1    3    3  501    0  0.24125166893E+03  0.17731127503E+03 -0.67162728536E+03  0.73533996658E+03  0.00000000000E+00 0.  1.
         21    1    1    2  502  501  0.98926110872E-01  0.64958373486E-01  0.15109303070E+00  0.19192464570E+00  0.00000000000E+00 0. -1.
<mgrwt>
<rscale>  1 0.65573788E+03</rscale>
<asrwt>0</asrwt>
<pdfrwt beam="1">  1        1 0.39153445E+00 0.65573788E+03</pdfrwt>
<pdfrwt beam="2">0</pdfrwt>
<totfact> 0.14574662E+00</totfact>
</mgrwt>
</event>
<event>
 6    1  0.7575152E-003  0.6725349E+03  0.7818608E-02  0.9765389E-01
          1   -1    0    0  502    0  0.00000000000E+00  0.00000000000E+00  0.11307592663E+03  0.11307592663E+03  0.00000000000E+00 0.  1.
         13   -1    0    0    0    0 -0.00000000000E+00 -0.00000000000E+00 -0.10000000000E+04  0.10000000000E+04  0.00000000000E+00 0.  1.
    9000005    2    1    2  501    0 -0.15290195790E-04 -0.68680923064E-05 -0.88692421676E+03  0.11130757823E+04  0.67253485469E+03 0.  0.
         13    1    3    3    0    0  0.31251737229E+03 -0.37460743499E+02 -0.63932722710E+03  0.71260768912E+03  0.00000000000E+00 0.  1.
          1    1    3    3  501    0 -0.31251738758E+03  0.37460736631E+02 -0.24759698967E+03  0.40046809314E+03  0.00000000000E+00 0.  1.
         21    1    1    2  502  501  0.15290195779E-04  0.68680923060E-05  0.14339954185E-03  0.14437586149E-03  0.00000000000E+00 0. -1.
<mgrwt>
<rscale>  1 0.67253485E+03</rscale>
<asrwt>0</asrwt>
<pdfrwt beam="1">  1        1 0.41118605E+00 0.67253485E+03</pdfrwt>
<pdfrwt beam="2">0</pdfrwt>
<totfact> 0.11872015E+00</totfact>
</mgrwt>
</event>
<event>
 6    1  0.7575152E-003  0.6569526E+03  0.7818608E-02  0.9793820E-01
          1   -1    0    0  502    0  0.00000000000E+00  0.00000000000E+00  0.10790481603E+03  0.10790481603E+03  0.00000000000E+00 0.  1.
         13   -1    0    0    0    0 -0.00000000000E+00 -0.00000000000E+00 -0.10000000000E+04  0.10000000000E+04  0.00000000000E+00 0.  1.
    9000005    2    1    2  501    0  0.35878984462E-02 -0.22605743189E-01 -0.89207737887E+03  0.11078758175E+04  0.65695264412E+03 0.  0.
         13    1    3    3    0    0 -0.90682343281E+02 -0.66405473697E+02  0.74462154399E+02  0.13482428104E+03  0.00000000000E+00 0.  1.
          1    1    3    3  501    0  0.90685931179E+02  0.66382867953E+02 -0.96653953327E+03  0.97305153648E+03  0.00000000000E+00 0.  1.
         21    1    1    2  502  501 -0.35878984462E-02  0.22605743189E-01 -0.17805098621E-01  0.28998520260E-01  0.00000000000E+00 0.  1.
<mgrwt>
<rscale>  1 0.65695264E+03</rscale>
<asrwt>0</asrwt>
<pdfrwt beam="1">  1        1 0.39238198E+00 0.65695264E+03</pdfrwt>
<pdfrwt beam="2">0</pdfrwt>
<totfact> 0.14445679E+00</totfact>
</mgrwt>
</event>
<event>
 6    1  0.7575152E-003  0.6437570E+03  0.7818608E-02  0.9818565E-01
          1   -1    0    0  502    0  0.00000000000E+00  0.00000000000E+00  0.10361528823E+03  0.10361528823E+03  0.00000000000E+00 0.  1.
         13   -1    0    0    0    0 -0.00000000000E+00 -0.00000000000E+00 -0.10000000000E+04  0.10000000000E+04  0.00000000000E+00 0.  1.
    9000005    2    1    2  501    0  0.37287429320E-02 -0.11319788453E-01 -0.89638995478E+03  0.11036022679E+04  0.64375695293E+03 0.  0.
         13    1    3    3    0    0 -0.24446295514E+03  0.20818114852E+03 -0.40981793419E+03  0.52062680129E+03  0.00000000000E+00 0.  1.
          1    1    3    3  501    0  0.24446668389E+03 -0.20819246831E+03 -0.48657202058E+03  0.58297546656E+03  0.00000000000E+00 0.  1.
         21    1    1    2  502  501 -0.37287429320E-02  0.11319788453E-01  0.52430122369E-02  0.13020380632E-01  0.00000000000E+00 0. -1.
<mgrwt>
<rscale>  1 0.64375695E+03</rscale>
<asrwt>0</asrwt>
<pdfrwt beam="1">  1        1 0.37678366E+00 0.64375695E+03</pdfrwt>
<pdfrwt beam="2">0</pdfrwt>
<totfact> 0.16973818E+00</totfact>
</mgrwt>
</event>
<event>
 6    1  0.7575152E-003  0.7073941E+03  0.7818608E-02  0.9704670E-01
          1   -1    0    0  502    0  0.00000000000E+00  0.00000000000E+00  0.12512784813E+03  0.12512784813E+03  0.00000000000E+00 0.  1.
         13   -1    0    0    0    0 -0.00000000000E+00 -0.00000000000E+00 -0.10000000000E+04  0.10000000000E+04  0.00000000000E+00 0.  1.
    9000005    2    1    2  501    0 -0.24145667629E-03 -0.12646998547E-01 -0.87489666305E+03  0.11251002655E+04  0.70739411659E+03 0.  0.
         13    1    3    3    0    0 -0.29869973104E+03  0.21621208695E+02 -0.73674850164E+03  0.79529073970E+03  0.00000000000E+00 0.  1.
          3    1    3    3  501    0  0.29869948958E+03 -0.21633855693E+02 -0.13814816141E+03  0.32980952577E+03  0.00000000000E+00 0.  1.
         21    1    1    2  502  501  0.24145667629E-03  0.12646998547E-01  0.24511178895E-01  0.27582653324E-01  0.00000000000E+00 0. -1.
<mgrwt>
<rscale>  1 0.70739412E+03</rscale>
<asrwt>0</asrwt>
<pdfrwt beam="1">  1        1 0.45501132E+00 0.70739412E+03</pdfrwt>
<pdfrwt beam="2">0</pdfrwt>
<totfact> 0.74456716E-01</totfact>
</mgrwt>
</event>
<event>
 6    1  0.7575152E-003  0.6380698E+03  0.7818608E-02  0.9829426E-01
          1   -1    0    0  502    0  0.00000000000E+00  0.00000000000E+00  0.10179234250E+03  0.10179234250E+03  0.00000000000E+00 0.  1.
         13   -1    0    0    0    0 -0.00000000000E+00 -0.00000000000E+00 -0.10000000000E+04  0.10000000000E+04  0.00000000000E+00 0.  1.
    9000005    2    1    2  501    0 -0.10560384914E-03 -0.76322536120E-03 -0.89821671218E+03  0.11017832551E+04  0.63806980745E+03 0.  0.
         13    1    3    3    0    0  0.14618317336E+03  0.55774847254E+02 -0.92920164202E+03  0.94228235964E+03  0.00000000000E+00 0.  1.
          3    1    3    3  501    0 -0.14618327896E+03 -0.55775610479E+02  0.30984929843E+02  0.15950089545E+03  0.00000000000E+00 0.  1.
         21    1    1    2  502  501  0.10560384913E-03  0.76322536120E-03  0.90546760892E-02  0.90873991992E-02  0.00000000000E+00 0.  1.
<mgrwt>
<rscale>  1 0.63806981E+03</rscale>
<asrwt>0</asrwt>
<pdfrwt beam="1">  1        1 0.37015475E+00 0.63806981E+03</pdfrwt>
<pdfrwt beam="2">0</pdfrwt>
<totfact> 0.18171454E+00</totfact>
</mgrwt>
</event>
<event>
 6    1  0.7575152E-003  0.6372038E+03  0.7818608E-02  0.9831091E-01
          1   -1    0    0  502    0  0.00000000000E+00  0.00000000000E+00  0.10155565097E+03  0.10155565097E+03  0.00000000000E+00 0.  1.
         13   -1    0    0    0    0 -0.00000000000E+00 -0.00000000000E+00 -0.10000000000E+04  0.10000000000E+04  0.00000000000E+00 0.  1.
    9000005    2    1    2  501    0 -0.28764775982E-02  0.31547614284E-02 -0.89849273782E+03  0.11015070742E+04  0.63720376223E+03 0.  0.
         13    1    3    3    0    0  0.23829698372E+02 -0.29666677532E+03 -0.64578820392E+03  0.71107062549E+03  0.00000000000E+00 0.  1.
          3    1    3    3  501    0 -0.23832574849E+02  0.29666993008E+03 -0.25270453390E+03  0.39043644872E+03  0.00000000000E+00 0.  1.
         21    1    1    2  502  501  0.28764775982E-02 -0.31547614285E-02  0.48388792749E-01  0.48576763033E-01  0.00000000000E+00 0. -1.
<mgrwt>
<rscale>  1 0.63720376E+03</rscale>
<asrwt>0</asrwt>
<pdfrwt beam="1">  1        1 0.36929406E+00 0.63720376E+03</pdfrwt>
<pdfrwt beam="2">0</pdfrwt>
<totfact> 0.18333178E+00</totfact>
</mgrwt>
</event>
<event>
 6    1  0.7575152E-003  0.6463776E+03  0.7818608E-02  0.9813600E-01
          1   -1    0    0  502    0  0.00000000000E+00  0.00000000000E+00  0.10536854906E+03  0.10536854906E+03  0.00000000000E+00 0.  1.
         13   -1    0    0    0    0 -0.00000000000E+00 -0.00000000000E+00 -0.10000000000E+04  0.10000000000E+04  0.00000000000E+00 0.  1.
    9000005    2    1    2  501    0 -0.98544661588E-01 -0.12776224783E+00 -0.89554116429E+03  0.11044446375E+04  0.64637756323E+03 0.  0.
         13    1    3    3    0    0 -0.10586259660E+02  0.32178898158E+03 -0.49450026910E+03  0.59007688795E+03  0.00000000000E+00 0.  1.
          1    1    3    3  501    0  0.10487714999E+02 -0.32191674383E+03 -0.40104089520E+03  0.51436774952E+03  0.00000000000E+00 0.  1.
         21    1    1    2  502  501  0.98544661588E-01  0.12776224783E+00  0.90971335126E+00  0.92391158871E+00  0.00000000000E+00 0. -1.
<mgrwt>
<rscale>  1 0.64637758E+03</rscale>
<asrwt>0</asrwt>
<pdfrwt beam="1">  1        1 0.38315917E+00 0.64637758E+03</pdfrwt>
<pdfrwt beam="2">0</pdfrwt>
<totfact> 0.15901615E+00</totfact>
</mgrwt>
</event>
<event>
 6    1  0.7575152E-003  0.6516831E+03  0.7818608E-02  0.9803626E-01
          1   -1    0    0  502    0  0.00000000000E+00  0.00000000000E+00  0.10918303590E+03  0.10918303590E+03  0.00000000000E+00 0.  1.
         13   -1    0    0    0    0 -0.00000000000E+00 -0.00000000000E+00 -0.10000000000E+04  0.10000000000E+04  0.00000000000E+00 0.  1.
    9000005    2    1    2  501    0  0.55816722982E-01  0.83481134164E+00 -0.89376282781E+03  0.11061206613E+04  0.65168261052E+03 0.  0.
         13    1    3    3    0    0  0.19003750800E+03  0.67683710892E+02 -0.88156517805E+03  0.90435197922E+03  0.00000000000E+00 0.  1.
          3    1    3    3  501    0 -0.18998169128E+03 -0.66848899550E+02 -0.12197649762E+02  0.20176868204E+03  0.00000000000E+00 0.  1.
         21    1    1    2  502  501 -0.55816722982E-01 -0.83481134164E+00  0.29458637129E+01  0.30623746501E+01  0.00000000000E+00 0.  1.
<mgrwt>
<rscale>  1 0.65168315E+03</rscale>
<asrwt>0</asrwt>
<pdfrwt beam="1">  1        1 0.39703006E+00 0.65168315E+03</pdfrwt>
<pdfrwt beam="2">0</pdfrwt>
<totfact> 0.13788083E+00</totfact>
</mgrwt>
</event>
<event>
 6    1  0.7575152E-003  0.6454980E+03  0.7818608E-02  0.9815264E-01
          1   -1    0    0  502    0  0.00000000000E+00  0.00000000000E+00  0.10506837603E+03  0.10506837603E+03  0.00000000000E+00 0.  1.
         13   -1    0    0    0    0 -0.00000000000E+00 -0.00000000000E+00 -0.10000000000E+04  0.10000000000E+04  0.00000000000E+00 0.  1.
    9000005    2    1    2  501    0 -0.63432959809E-01 -0.73612925328E-02 -0.89583182010E+03  0.11041659177E+04  0.64549804018E+03 0.  0.
         13    1    3    3    0    0  0.31936946457E+03  0.46265081356E+02 -0.44273474075E+03  0.54786071525E+03  0.00000000000E+00 0.  1.
          1    1    3    3  501    0 -0.31943289753E+03 -0.46272442649E+02 -0.45309707935E+03  0.55630520247E+03  0.00000000000E+00 0.  1.
         21    1    1    2  502  501  0.63432959809E-01  0.73612925328E-02  0.90019612710E+00  0.90245830721E+00  0.00000000000E+00 0.  1.
<mgrwt>
<rscale>  1 0.64549804E+03</rscale>
<asrwt>0</asrwt>
<pdfrwt beam="1">  1        1 0.38206763E+00 0.64549804E+03</pdfrwt>
<pdfrwt beam="2">0</pdfrwt>
<totfact> 0.16081767E+00</totfact>
</mgrwt>
</event>
<event>
 6    1  0.7575152E-003  0.6543388E+03  0.7818608E-02  0.9798672E-01
          1   -1    0    0  502    0  0.00000000000E+00  0.00000000000E+00  0.10703981569E+03  0.10703981569E+03  0.00000000000E+00 0.  1.
         13   -1    0    0    0    0 -0.00000000000E+00 -0.00000000000E+00 -0.10000000000E+04  0.10000000000E+04  0.00000000000E+00 0.  1.
    9000005    2    1    2  501    0 -0.35867259385E-07  0.98410344549E-05 -0.89296019194E+03  0.11070398032E+04  0.65433876667E+03 0.  0.
         13    1    3    3    0    0  0.75703758172E+02 -0.19768304932E+03 -0.24432884085E+02  0.21308827470E+03  0.00000000000E+00 0.  1.
          3    1    3    3  501    0 -0.75703758208E+02  0.19768305916E+03 -0.86852730785E+03  0.89395152854E+03  0.00000000000E+00 0.  1.
         21    1    1    2  502  501  0.35867264751E-07 -0.98410344281E-05  0.76345401583E-05  0.12455257866E-04  0.00000000000E+00 0. -1.
<mgrwt>
<rscale>  1 0.65433877E+03</rscale>
<asrwt>0</asrwt>
<pdfrwt beam="1">  1        1 0.38923651E+00 0.65433877E+03</pdfrwt>
<pdfrwt beam="2">0</pdfrwt>
<totfact> 0.14924649E+00</totfact>
</mgrwt>
</event>
<event>
 6    1  0.1029483E-002  0.6324459E+03  0.7818608E-02  0.9840287E-01
          1   -1    0    0  502    0  0.00000000000E+00  0.00000000000E+00  0.99996939839E+02  0.99996939839E+02  0.00000000000E+00 0.  1.
         13   -1    0    0    0    0 -0.00000000000E+00 -0.00000000000E+00 -0.10000000000E+04  0.10000000000E+04  0.00000000000E+00 0.  1.
    9000005    2    1    2  501    0  0.26647296636E-06 -0.10236395838E-05 -0.90000305929E+03  0.10999969385E+04  0.63244585374E+03 0.  0.
         13    1    3    3    0    0 -0.28386045559E+03 -0.13846514298E+03 -0.42263430836E+03  0.52760696799E+03  0.00000000000E+00 0.  1.
          3    1    3    3  501    0  0.28386045586E+03  0.13846514196E+03 -0.47736875093E+03  0.57238997048E+03  0.00000000000E+00 0.  1.
         21    1    1    2  502  501 -0.26647293812E-06  0.10236395874E-05 -0.87253449085E-06  0.13711900923E-05  0.00000000000E+00 0. -1.
<mgrwt>
<rscale>  1 0.63244585E+03</rscale>
<asrwt>0</asrwt>
<pdfrwt beam="1">  1        1 0.36362600E+00 0.63244585E+03</pdfrwt>
<pdfrwt beam="2">0</pdfrwt>
<totfact> 0.19429781E+00</totfact>
</mgrwt>
</event>
<event>
 6    1  0.7575152E-003  0.6572736E+03  0.7818608E-02  0.9793226E-01
          1   -1    0    0  502    0  0.00000000000E+00  0.00000000000E+00  0.10800307572E+03  0.10800307572E+03  0.00000000000E+00 0.  1.
         13   -1    0    0    0    0 -0.00000000000E+00 -0.00000000000E+00 -0.10000000000E+04  0.10000000000E+04  0.00000000000E+00 0.  1.
    9000005    2    1    2  501    0 -0.24679737925E-04 -0.28105302042E-03 -0.89199781876E+03  0.11080021378E+04  0.65727363306E+03 0.  0.
         13    1    3    3    0    0 -0.64530327042E+01  0.19072027923E+03 -0.89703266816E+03  0.91710603220E+03  0.00000000000E+00 0.  1.
          3    1    3    3  501    0  0.64530080245E+01 -0.19072056028E+03  0.50348494074E+01  0.19089610561E+03  0.00000000000E+00 0.  1.
         21    1    1    2  502  501  0.24679737926E-04  0.28105302042E-03  0.89448041389E-03  0.93792062595E-03  0.00000000000E+00 0. -1.
<mgrwt>
<rscale>  1 0.65727363E+03</rscale>
<asrwt>0</asrwt>
<pdfrwt beam="1">  1        1 0.39273929E+00 0.65727363E+03</pdfrwt>
<pdfrwt beam="2">0</pdfrwt>
<totfact> 0.14392137E+00</totfact>
</mgrwt>
</event>
<event>
 6    1  0.7575152E-003  0.6525123E+03  0.7818608E-02  0.9802076E-01
          1   -1    0    0  502    0  0.00000000000E+00  0.00000000000E+00  0.10644311312E+03  0.10644311312E+03  0.00000000000E+00 0.  1.
         13   -1    0    0    0    0 -0.00000000000E+00 -0.00000000000E+00 -0.10000000000E+04  0.10000000000E+04  0.00000000000E+00 0.  1.
    9000005    2    1    2  501    0  0.97867604154E-05  0.41294691897E-05 -0.89355691848E+03  0.11064430798E+04  0.65251231576E+03 0.  0.
         13    1    3    3    0    0  0.29147830092E+03  0.44969895478E+02 -0.21022730432E+03  0.36218422231E+03  0.00000000000E+00 0.  1.
          3    1    3    3  501    0 -0.29147829113E+03 -0.44969891349E+02 -0.68332961417E+03  0.74425885747E+03  0.00000000000E+00 0.  1.
         21    1    1    2  502  501 -0.97867603843E-05 -0.41294691916E-05  0.31606026684E-04  0.33343276945E-04  0.00000000000E+00 0. -1.
<mgrwt>
<rscale>  1 0.65251232E+03</rscale>
<asrwt>0</asrwt>
<pdfrwt beam="1">  1        1 0.38706668E+00 0.65251232E+03</pdfrwt>
<pdfrwt beam="2">0</pdfrwt>
<totfact> 0.15263859E+00</totfact>
</mgrwt>
</event>
<event>
 6    1  0.7575152E-003  0.6456032E+03  0.7818608E-02  0.9815065E-01
          1   -1    0    0  502    0  0.00000000000E+00  0.00000000000E+00  0.10601894238E+03  0.10601894238E+03  0.00000000000E+00 0.  1.
         13   -1    0    0    0    0 -0.00000000000E+00 -0.00000000000E+00 -0.10000000000E+04  0.10000000000E+04  0.00000000000E+00 0.  1.
    9000005    2    1    2  501    0 -0.23237108517E+01 -0.11292248731E+01 -0.89472570688E+03  0.11033302097E+04  0.64559800672E+03 0.  0.
         13    1    3    3    0    0  0.21060480118E+03  0.22968265362E+03 -0.30965394972E+03  0.43931090612E+03  0.00000000000E+00 0.  1.
          1    1    3    3  501    0 -0.21292851204E+03 -0.23081187849E+03 -0.58507175716E+03  0.66401930357E+03  0.00000000000E+00 0.  1.
         21    1    1    2  502  501  0.23237108517E+01  0.11292248731E+01  0.74464925927E+00  0.26887326858E+01  0.00000000000E+00 0.  1.
<mgrwt>
<rscale>  1 0.64560318E+03</rscale>
<asrwt>0</asrwt>
<pdfrwt beam="1">  1        1 0.38552424E+00 0.64560318E+03</pdfrwt>
<pdfrwt beam="2">0</pdfrwt>
<totfact> 0.15525563E+00</totfact>
</mgrwt>
</event>
<event>
 6    1  0.7575152E-003  0.5781429E+03  0.7818608E-02  0.9951820E-01
          1   -1    0    0  502    0  0.00000000000E+00  0.00000000000E+00  0.83562463857E+02  0.83562463857E+02  0.00000000000E+00 0.  1.
         13   -1    0    0    0    0 -0.00000000000E+00 -0.00000000000E+00 -0.10000000000E+04  0.10000000000E+04  0.00000000000E+00 0.  1.
    9000005    2    1    2  501    0  0.41788797503E-03 -0.80053643302E-04 -0.91643736256E+03  0.10835620043E+04  0.57814286965E+03 0.  0.
         13    1    3    3    0    0  0.22053216768E+03 -0.16941131952E+03 -0.31031330680E+03  0.41668810943E+03  0.00000000000E+00 0.  1.
          1    1    3    3  501    0 -0.22053174979E+03  0.16941123947E+03 -0.60612405576E+03  0.66687389489E+03  0.00000000000E+00 0.  1.
         21    1    1    2  502  501 -0.41788797502E-03  0.80053643306E-04 -0.17358501095E-03  0.45953313428E-03  0.00000000000E+00 0.  1.
<mgrwt>
<rscale>  1 0.57814287E+03</rscale>
<asrwt>0</asrwt>
<pdfrwt beam="1">  1        1 0.30386415E+00 0.57814287E+03</pdfrwt>
<pdfrwt beam="2">0</pdfrwt>
<totfact> 0.35646660E+00</totfact>
</mgrwt>
</event>
<event>
 6    1  0.7575152E-003  0.6498436E+03  0.7818608E-02  0.9807073E-01
          1   -1    0    0  502    0  0.00000000000E+00  0.00000000000E+00  0.12693754512E+03  0.12693754512E+03  0.00000000000E+00 0.  1.
         13   -1    0    0    0    0 -0.00000000000E+00 -0.00000000000E+00 -0.10000000000E+04  0.10000000000E+04  0.00000000000E+00 0.  1.
    9000005    2    1    2  501    0 -0.26483410451E+02  0.27822021570E+02 -0.87326476081E+03  0.10885256089E+04  0.64870734768E+03 0.  0.
         13    1    3    3    0    0 -0.16057047889E+03  0.28968063482E+03 -0.60819884830E+03  0.69253417819E+03  0.00000000000E+00 0.  1.
          1    1    3    3  501    0  0.13408706844E+03 -0.26185861325E+03 -0.26506591251E+03  0.39599143075E+03  0.00000000000E+00 0.  1.
         21    1    1    2  502  501  0.26483410451E+02 -0.27822021570E+02  0.20230593690E+00  0.38411936180E+02  0.00000000000E+00 0. -1.
<mgrwt>
<rscale>  1 0.64984356E+03</rscale>
<asrwt>0</asrwt>
<pdfrwt beam="1">  1        1 0.46159205E+00 0.64984356E+03</pdfrwt>
<pdfrwt beam="2">0</pdfrwt>
<totfact> 0.70222332E-01</totfact>
</mgrwt>
</event>
<event>
 6    1  0.7575152E-003  0.6461231E+03  0.7818608E-02  0.9814081E-01
          1   -1    0    0  502    0  0.00000000000E+00  0.00000000000E+00  0.10480781267E+03  0.10480781267E+03  0.00000000000E+00 0.  1.
         13   -1    0    0    0    0 -0.00000000000E+00 -0.00000000000E+00 -0.10000000000E+04  0.10000000000E+04  0.00000000000E+00 0.  1.
    9000005    2    1    2  501    0  0.99152043153E-01  0.38990781674E+00 -0.89552713619E+03  0.11042843148E+04  0.64612292523E+03 0.  0.
         13    1    3    3    0    0  0.31386682327E+03  0.34709272955E+02 -0.56498144245E+03  0.64724118124E+03  0.00000000000E+00 0.  1.
          1    1    3    3  501    0 -0.31376767122E+03 -0.34319365138E+02 -0.33054569374E+03  0.45704313361E+03  0.00000000000E+00 0.  1.
         21    1    1    2  502  501 -0.99152043153E-01 -0.38990781674E+00  0.33494885951E+00  0.52349782397E+00  0.00000000000E+00 0. -1.
<mgrwt>
<rscale>  1 0.64612305E+03</rscale>
<asrwt>0</asrwt>
<pdfrwt beam="1">  1        1 0.38112012E+00 0.64612305E+03</pdfrwt>
<pdfrwt beam="2">0</pdfrwt>
<totfact> 0.16235560E+00</totfact>
</mgrwt>
</event>
<event>
 6    1  0.7575152E-003  0.6665546E+03  0.7818608E-02  0.9776202E-01
          1   -1    0    0  502    0  0.00000000000E+00  0.00000000000E+00  0.11107634773E+03  0.11107634773E+03  0.00000000000E+00 0.  1.
         13   -1    0    0    0    0 -0.00000000000E+00 -0.00000000000E+00 -0.10000000000E+04  0.10000000000E+04  0.00000000000E+00 0.  1.
    9000005    2    1    2  501    0 -0.17067359138E-02 -0.24562803775E-02 -0.88892525838E+03  0.11110729528E+04  0.66655456742E+03 0.  0.
         13    1    3    3    0    0 -0.89196262635E+02  0.29429587401E+03 -0.65862368606E+03  0.72687770262E+03  0.00000000000E+00 0.  1.
          3    1    3    3  501    0  0.89194555899E+02 -0.29429833029E+03 -0.23030157232E+03  0.38419525014E+03  0.00000000000E+00 0.  1.
         21    1    1    2  502  501  0.17067359138E-02  0.24562803775E-02  0.16061124008E-02  0.33949753779E-02  0.00000000000E+00 0. -1.
<mgrwt>
<rscale>  1 0.66655457E+03</rscale>
<asrwt>0</asrwt>
<pdfrwt beam="1">  1        1 0.40391484E+00 0.66655457E+03</pdfrwt>
<pdfrwt beam="2">0</pdfrwt>
<totfact> 0.12811001E+00</totfact>
</mgrwt>
</event>
<event>
 6    1  0.7575152E-003  0.6025037E+03  0.7818608E-02  0.9900225E-01
          1   -1    0    0  502    0  0.00000000000E+00  0.00000000000E+00  0.10440551425E+03  0.10440551425E+03  0.00000000000E+00 0.  1.
         13   -1    0    0    0    0 -0.00000000000E+00 -0.00000000000E+00 -0.10000000000E+04  0.10000000000E+04  0.00000000000E+00 0.  1.
    9000005    2    1    2  501    0 -0.64227765011E+00  0.59400042101E-01 -0.90923902284E+03  0.10907457397E+04  0.60250332108E+03 0.  0.
         13    1    3    3    0    0  0.63739314118E+02 -0.15526634053E+03 -0.90719792252E+03  0.92259330546E+03  0.00000000000E+00 0.  1.
          1    1    3    3  501    0 -0.64381591768E+02  0.15532574057E+03 -0.20411003279E+01  0.16815243421E+03  0.00000000000E+00 0.  1.
         21    1    1    2  502  501  0.64227765011E+00 -0.59400042101E-01  0.13644537095E+02  0.13659774576E+02  0.00000000000E+00 0.  1.
<mgrwt>
<rscale>  1 0.60250367E+03</rscale>
<asrwt>0</asrwt>
<pdfrwt beam="1">  1        1 0.37965722E+00 0.60250367E+03</pdfrwt>
<pdfrwt beam="2">0</pdfrwt>
<totfact> 0.16615427E+00</totfact>
</mgrwt>
</event>
<event>
 6    1  0.7575152E-003  0.6457681E+03  0.7818608E-02  0.9814753E-01
          1   -1    0    0  502    0  0.00000000000E+00  0.00000000000E+00  0.10425489843E+03  0.10425489843E+03  0.00000000000E+00 0.  1.
         13   -1    0    0    0    0 -0.00000000000E+00 -0.00000000000E+00 -0.10000000000E+04  0.10000000000E+04  0.00000000000E+00 0.  1.
    9000005    2    1    2  501    0  0.40653477527E-05 -0.36650960567E-04 -0.89574590278E+03  0.11042540964E+04  0.64576805977E+03 0.  0.
         13    1    3    3    0    0  0.28670557597E+03 -0.14442121050E+03 -0.38872303562E+03  0.50414598259E+03  0.00000000000E+00 0.  1.
          3    1    3    3  501    0 -0.28670557191E+03  0.14442117385E+03 -0.50702286716E+03  0.60010811379E+03  0.00000000000E+00 0.  1.
         21    1    1    2  502  501 -0.40653477862E-05  0.36650960557E-04  0.80120188431E-03  0.80205004793E-03  0.00000000000E+00 0.  1.
<mgrwt>
<rscale>  1 0.64576806E+03</rscale>
<asrwt>0</asrwt>
<pdfrwt beam="1">  1        1 0.37910952E+00 0.64576806E+03</pdfrwt>
<pdfrwt beam="2">0</pdfrwt>
<totfact> 0.16571706E+00</totfact>
</mgrwt>
</event>
<event>
 6    1  0.7575152E-003  0.6643262E+03  0.7818608E-02  0.9780262E-01
          1   -1    0    0  502    0  0.00000000000E+00  0.00000000000E+00  0.11213999353E+03  0.11213999353E+03  0.00000000000E+00 0.  1.
         13   -1    0    0    0    0 -0.00000000000E+00 -0.00000000000E+00 -0.10000000000E+04  0.10000000000E+04  0.00000000000E+00 0.  1.
    9000005    2    1    2  501    0  0.44778186702E-01  0.97441213910E-01 -0.88966592357E+03  0.11103308953E+04  0.66432614728E+03 0.  0.
         13    1    3    3    0    0  0.12929807469E+03 -0.20638121322E+02  0.65383287147E+02  0.14635196756E+03  0.00000000000E+00 0.  1.
          3    1    3    3  501    0 -0.12925329650E+03  0.20735562536E+02 -0.95504921072E+03  0.96397892773E+03  0.00000000000E+00 0.  1.
         21    1    1    2  502  501 -0.44778186702E-01 -0.97441213910E-01  0.18059171051E+01  0.18090982468E+01  0.00000000000E+00 0. -1.
<mgrwt>
<rscale>  1 0.66432616E+03</rscale>
<asrwt>0</asrwt>
<pdfrwt beam="1">  1        1 0.40778265E+00 0.66432616E+03</pdfrwt>
<pdfrwt beam="2">0</pdfrwt>
<totfact> 0.12315724E+00</totfact>
</mgrwt>
</event>
<event>
 6    1  0.7575152E-003  0.6509412E+03  0.7818608E-02  0.9805015E-01
          1   -1    0    0  502    0  0.00000000000E+00  0.00000000000E+00  0.10593137413E+03  0.10593137413E+03  0.00000000000E+00 0.  1.
         13   -1    0    0    0    0 -0.00000000000E+00 -0.00000000000E+00 -0.10000000000E+04  0.10000000000E+04  0.00000000000E+00 0.  1.
    9000005    2    1    2  501    0 -0.80972908023E-05 -0.97210274077E-04 -0.89406888344E+03  0.11059310987E+04  0.65094118533E+03 0.  0.
         13    1    3    3    0    0 -0.94676404098E+02 -0.29634718223E+03 -0.60951403283E+03  0.68431909964E+03  0.00000000000E+00 0.  1.
          1    1    3    3  501    0  0.94676396000E+02  0.29634708502E+03 -0.28455485061E+03  0.42161199907E+03  0.00000000000E+00 0.  1.
         21    1    1    2  502  501  0.80972908116E-05  0.97210274072E-04  0.25757013375E-03  0.27542290628E-03  0.00000000000E+00 0. -1.
<mgrwt>
<rscale>  1 0.65094119E+03</rscale>
<asrwt>0</asrwt>
<pdfrwt beam="1">  1        1 0.38520581E+00 0.65094119E+03</pdfrwt>
<pdfrwt beam="2">0</pdfrwt>
<totfact> 0.15560601E+00</totfact>
</mgrwt>
</event>
<event>
 6    1  0.7575152E-003  0.6397982E+03  0.7818608E-02  0.9826113E-01
          1   -1    0    0  502    0  0.00000000000E+00  0.00000000000E+00  0.10239648454E+03  0.10239648454E+03  0.00000000000E+00 0.  1.
         13   -1    0    0    0    0 -0.00000000000E+00 -0.00000000000E+00 -0.10000000000E+04  0.10000000000E+04  0.00000000000E+00 0.  1.
    9000005    2    1    2  501    0  0.58361491198E-01 -0.75917159036E-01 -0.89762016802E+03  0.11022992900E+04  0.63979820994E+03 0.  0.
         13    1    3    3    0    0  0.21758983001E+03  0.22191252281E+03 -0.31826141705E+03  0.44483798341E+03  0.00000000000E+00 0.  1.
          3    1    3    3  501    0 -0.21753146852E+03 -0.22198843997E+03 -0.57935875098E+03  0.65746130655E+03  0.00000000000E+00 0.  1.
         21    1    1    2  502  501 -0.58361491198E-01  0.75917159036E-01  0.16652565888E-01  0.97194581339E-01  0.00000000000E+00 0. -1.
<mgrwt>
<rscale>  1 0.63979822E+03</rscale>
<asrwt>0</asrwt>
<pdfrwt beam="1">  1        1 0.37235164E+00 0.63979822E+03</pdfrwt>
<pdfrwt beam="2">0</pdfrwt>
<totfact> 0.17766384E+00</totfact>
</mgrwt>
</event>
<event>
 6    1  0.7575152E-003  0.6446025E+03  0.7818608E-02  0.9816960E-01
          1   -1    0    0  502    0  0.00000000000E+00  0.00000000000E+00  0.10387842722E+03  0.10387842722E+03  0.00000000000E+00 0.  1.
         13   -1    0    0    0    0 -0.00000000000E+00 -0.00000000000E+00 -0.10000000000E+04  0.10000000000E+04  0.00000000000E+00 0.  1.
    9000005    2    1    2  501    0  0.21333666439E-04  0.63188938697E-03 -0.89612156870E+03  0.11038777950E+04  0.64460245136E+03 0.  0.
         13    1    3    3    0    0 -0.30298606968E+03 -0.66804196577E+02 -0.59749647960E+03  0.67324988098E+03  0.00000000000E+00 0.  1.
          3    1    3    3  501    0  0.30298609102E+03  0.66804828466E+02 -0.29862508910E+03  0.43062791398E+03  0.00000000000E+00 0.  1.
         21    1    1    2  502  501 -0.21333666480E-04 -0.63188938697E-03 -0.40784658050E-05  0.63226256932E-03  0.00000000000E+00 0.  1.
<mgrwt>
<rscale>  1 0.64460245E+03</rscale>
<asrwt>0</asrwt>
<pdfrwt beam="1">  1        1 0.37774053E+00 0.64460245E+03</pdfrwt>
<pdfrwt beam="2">0</pdfrwt>
<totfact> 0.16807218E+00</totfact>
</mgrwt>
</event>
<event>
 6    1  0.7575152E-003  0.6467201E+03  0.7818608E-02  0.9812953E-01
          1   -1    0    0  502    0  0.00000000000E+00  0.00000000000E+00  0.10497354335E+03  0.10497354335E+03  0.00000000000E+00 0.  1.
         13   -1    0    0    0    0 -0.00000000000E+00 -0.00000000000E+00 -0.10000000000E+04  0.10000000000E+04  0.00000000000E+00 0.  1.
    9000005    2    1    2  501    0 -0.22802517727E-01  0.45088674757E-01 -0.89543658044E+03  0.11045603189E+04  0.64672005218E+03 0.  0.
         13    1    3    3    0    0 -0.18910722416E+03 -0.21919233387E+03 -0.69372894411E+03  0.75170916540E+03  0.00000000000E+00 0.  1.
          3    1    3    3  501    0  0.18908442164E+03  0.21923742254E+03 -0.20170763633E+03  0.35285115347E+03  0.00000000000E+00 0.  1.
         21    1    1    2  502  501  0.22802517727E-01 -0.45088674757E-01  0.41012379510E+00  0.41322447981E+00  0.00000000000E+00 0. -1.
<mgrwt>
<rscale>  1 0.64672005E+03</rscale>
<asrwt>0</asrwt>
<pdfrwt beam="1">  1        1 0.38172278E+00 0.64672005E+03</pdfrwt>
<pdfrwt beam="2">0</pdfrwt>
<totfact> 0.16134617E+00</totfact>
</mgrwt>
</event>
<event>
 6    1  0.7575152E-003  0.6550025E+03  0.7818608E-02  0.9797437E-01
          1   -1    0    0  502    0  0.00000000000E+00  0.00000000000E+00  0.10784712152E+03  0.10784712152E+03  0.00000000000E+00 0.  1.
         13   -1    0    0    0    0 -0.00000000000E+00 -0.00000000000E+00 -0.10000000000E+04  0.10000000000E+04  0.00000000000E+00 0.  1.
    9000005    2    1    2  501    0 -0.93910832657E-01 -0.15398234436E-01 -0.89273867895E+03  0.11072536415E+04  0.65500249516E+03 0.  0.
         13    1    3    3    0    0  0.41815487262E+02  0.28397702097E+03 -0.71287277970E+03  0.76849143356E+03  0.00000000000E+00 0.  1.
          1    1    3    3  501    0 -0.41909398095E+02 -0.28399241921E+03 -0.17986589925E+03  0.33876220794E+03  0.00000000000E+00 0.  1.
         21    1    1    2  502  501  0.93910832657E-01  0.15398234436E-01  0.58580046681E+00  0.59348002244E+00  0.00000000000E+00 0.  1.
<mgrwt>
<rscale>  1 0.65500250E+03</rscale>
<asrwt>0</asrwt>
<pdfrwt beam="1">  1        1 0.39217218E+00 0.65500250E+03</pdfrwt>
<pdfrwt beam="2">0</pdfrwt>
<totfact> 0.14481948E+00</totfact>
</mgrwt>
</event>
<event>
 6    1  0.7575152E-003  0.6579221E+03  0.7818608E-02  0.9792026E-01
          1   -1    0    0  502    0  0.00000000000E+00  0.00000000000E+00  0.10834346658E+03  0.10834346658E+03  0.00000000000E+00 0.  1.
         13   -1    0    0    0    0 -0.00000000000E+00 -0.00000000000E+00 -0.10000000000E+04  0.10000000000E+04  0.00000000000E+00 0.  1.
    9000005    2    1    2  501    0  0.16770361912E+00  0.30637064828E-01 -0.89171843570E+03  0.11081620967E+04  0.65792205843E+03 0.  0.
         13    1    3    3    0    0 -0.21714319762E+03  0.17027825533E+03 -0.14431139649E+03  0.31140268411E+03  0.00000000000E+00 0.  1.
          1    1    3    3  501    0  0.21731090124E+03 -0.17024761826E+03 -0.74740703921E+03  0.79675941261E+03  0.00000000000E+00 0.  1.
         21    1    1    2  502  501 -0.16770361912E+00 -0.30637064828E-01  0.61902284575E-01  0.18136986090E+00  0.00000000000E+00 0. -1.
<mgrwt>
<rscale>  1 0.65792208E+03</rscale>
<asrwt>0</asrwt>
<pdfrwt beam="1">  1        1 0.39397707E+00 0.65792208E+03</pdfrwt>
<pdfrwt beam="2">0</pdfrwt>
<totfact> 0.14209332E+00</totfact>
</mgrwt>
</event>
<event>
 6    1  0.7575152E-003  0.6661001E+03  0.7818608E-02  0.9777029E-01
          1   -1    0    0  502    0  0.00000000000E+00  0.00000000000E+00  0.11385122744E+03  0.11385122744E+03  0.00000000000E+00 0.  1.
         13   -1    0    0    0    0 -0.00000000000E+00 -0.00000000000E+00 -0.10000000000E+04  0.10000000000E+04  0.00000000000E+00 0.  1.
    9000005    2    1    2  501    0  0.79692758818E-02  0.61123153324E-01 -0.88907730593E+03  0.11109220454E+04  0.66610009107E+03 0.  0.
         13    1    3    3    0    0 -0.32676383895E+03  0.44435088157E+02 -0.52229058474E+03  0.61768644021E+03  0.00000000000E+00 0.  1.
          3    1    3    3  501    0  0.32677180823E+03 -0.44373965004E+02 -0.36678672119E+03  0.49323560523E+03  0.00000000000E+00 0.  1.
         21    1    1    2  502  501 -0.79692758818E-02 -0.61123153324E-01  0.29285333704E+01  0.29291820105E+01  0.00000000000E+00 0.  1.
<mgrwt>
<rscale>  1 0.66610009E+03</rscale>
<asrwt>0</asrwt>
<pdfrwt beam="1">  1        1 0.41400534E+00 0.66610009E+03</pdfrwt>
<pdfrwt beam="2">0</pdfrwt>
<totfact> 0.11544887E+00</totfact>
</mgrwt>
</event>
<event>
 6    1  0.7575152E-003  0.6365120E+03  0.7818608E-02  0.9832423E-01
          1   -1    0    0  502    0  0.00000000000E+00  0.00000000000E+00  0.10330212040E+03  0.10330212040E+03  0.00000000000E+00 0.  1.
         13   -1    0    0    0    0 -0.00000000000E+00 -0.00000000000E+00 -0.10000000000E+04  0.10000000000E+04  0.00000000000E+00 0.  1.
    9000005    2    1    2  501    0  0.13758342836E+01  0.12169030807E+01 -0.89824205470E+03  0.11009024850E+04  0.63650932357E+03 0.  0.
         13    1    3    3    0    0 -0.31871102355E+02  0.20931831163E+03 -0.37862417035E+02  0.21508948224E+03  0.00000000000E+00 0.  1.
          1    1    3    3  501    0  0.33246936639E+02 -0.20810140855E+03 -0.86037963766E+03  0.88581300281E+03  0.00000000000E+00 0.  1.
         21    1    1    2  502  501 -0.13758342836E+01 -0.12169030807E+01  0.15441750946E+01  0.23996353486E+01  0.00000000000E+00 0.  1.
<mgrwt>
<rscale>  1 0.63651197E+03</rscale>
<asrwt>0</asrwt>
<pdfrwt beam="1">  1        1 0.37564487E+00 0.63651197E+03</pdfrwt>
<pdfrwt beam="2">0</pdfrwt>
<totfact> 0.17193854E+00</totfact>
</mgrwt>
</event>
<event>
 6    1  0.7575152E-003  0.6647503E+03  0.7818608E-02  0.9779488E-01
          1   -1    0    0  502    0  0.00000000000E+00  0.00000000000E+00  0.11135022387E+03  0.11135022387E+03  0.00000000000E+00 0.  1.
         13   -1    0    0    0    0 -0.00000000000E+00 -0.00000000000E+00 -0.10000000000E+04  0.10000000000E+04  0.00000000000E+00 0.  1.
    9000005    2    1    2  501    0  0.19403989020E+00  0.87007284308E-01 -0.88951240707E+03  0.11104617680E+04  0.66475030694E+03 0.  0.
         13    1    3    3    0    0 -0.24364090921E+03  0.21965336393E+03 -0.35572974395E+03  0.48389269850E+03  0.00000000000E+00 0.  1.
          3    1    3    3  501    0  0.24383494910E+03 -0.21956635665E+03 -0.53378266312E+03  0.62656906947E+03  0.00000000000E+00 0.  1.
         21    1    1    2  502  501 -0.19403989020E+00 -0.87007284308E-01  0.86263094085E+00  0.88845590022E+00  0.00000000000E+00 0. -1.
<mgrwt>
<rscale>  1 0.66475034E+03</rscale>
<asrwt>0</asrwt>
<pdfrwt beam="1">  1        1 0.40491076E+00 0.66475034E+03</pdfrwt>
<pdfrwt beam="2">0</pdfrwt>
<totfact> 0.12684635E+00</totfact>
</mgrwt>
</event>
<event>
 6    1  0.7575152E-003  0.6466642E+03  0.7818608E-02  0.9813059E-01
          1   -1    0    0  502    0  0.00000000000E+00  0.00000000000E+00  0.10454370154E+03  0.10454370154E+03  0.00000000000E+00 0.  1.
         13   -1    0    0    0    0 -0.00000000000E+00 -0.00000000000E+00 -0.10000000000E+04  0.10000000000E+04  0.00000000000E+00 0.  1.
    9000005    2    1    2  501    0 -0.10101136695E-04  0.84271694220E-04 -0.89545630014E+03  0.11045436166E+04  0.64666422170E+03 0.  0.
         13    1    3    3    0    0 -0.89225462157E+02 -0.30458835127E+03 -0.55313627511E+03  0.63772641914E+03  0.00000000000E+00 0.  1.
          3    1    3    3  501    0  0.89225452056E+02  0.30458843554E+03 -0.34232002503E+03  0.46681719751E+03  0.00000000000E+00 0.  1.
         21    1    1    2  502  501  0.10101136696E-04 -0.84271694209E-04  0.16757331425E-05  0.84891457102E-04  0.00000000000E+00 0.  1.
<mgrwt>
<rscale>  1 0.64666422E+03</rscale>
<asrwt>0</asrwt>
<pdfrwt beam="1">  1        1 0.38015972E+00 0.64666422E+03</pdfrwt>
<pdfrwt beam="2">0</pdfrwt>
<totfact> 0.16393165E+00</totfact>
</mgrwt>
</event>
<event>
 6    1  0.7575152E-003  0.6531234E+03  0.7818608E-02  0.9800936E-01
          1   -1    0    0  502    0  0.00000000000E+00  0.00000000000E+00  0.10664348533E+03  0.10664348533E+03  0.00000000000E+00 0.  1.
         13   -1    0    0    0    0 -0.00000000000E+00 -0.00000000000E+00 -0.10000000000E+04  0.10000000000E+04  0.00000000000E+00 0.  1.
    9000005    2    1    2  501    0  0.10033472506E-04  0.24202973691E-04 -0.89335745326E+03  0.11066425464E+04  0.65312340806E+03 0.  0.
         13    1    3    3    0    0 -0.23192004174E+03  0.17304323343E+03 -0.70315110964E+03  0.76036330092E+03  0.00000000000E+00 0.  1.
          3    1    3    3  501    0  0.23192005178E+03 -0.17304320923E+03 -0.19020634362E+03  0.34627924545E+03  0.00000000000E+00 0.  1.
         21    1    1    2  502  501 -0.10033472519E-04 -0.24202973678E-04  0.93858880778E-03  0.93895442094E-03  0.00000000000E+00 0. -1.
<mgrwt>
<rscale>  1 0.65312341E+03</rscale>
<asrwt>0</asrwt>
<pdfrwt beam="1">  1        1 0.38779531E+00 0.65312341E+03</pdfrwt>
<pdfrwt beam="2">0</pdfrwt>
<totfact> 0.15149151E+00</totfact>
</mgrwt>
</event>
<event>
 6    1  0.7575152E-003  0.6677703E+03  0.7818608E-02  0.9773994E-01
          1   -1    0    0  502    0  0.00000000000E+00  0.00000000000E+00  0.11247490183E+03  0.11247490183E+03  0.00000000000E+00 0.  1.
         13   -1    0    0    0    0 -0.00000000000E+00 -0.00000000000E+00 -0.10000000000E+04  0.10000000000E+04  0.00000000000E+00 0.  1.
    9000005    2    1    2  501    0 -0.17885646741E-01  0.82333452296E-01 -0.88851873151E+03  0.11114777028E+04  0.66777027523E+03 0.  0.
         13    1    3    3    0    0  0.20096559259E+03  0.20018358051E+03 -0.73749269177E+03  0.79016207560E+03  0.00000000000E+00 0.  1.
          3    1    3    3  501    0 -0.20098347824E+03 -0.20010124706E+03 -0.15102603974E+03  0.32131562720E+03  0.00000000000E+00 0.  1.
         21    1    1    2  502  501  0.17885646741E-01 -0.82333452296E-01  0.99363333343E+00  0.99719902478E+00  0.00000000000E+00 0. -1.
<mgrwt>
<rscale>  1 0.66777028E+03</rscale>
<asrwt>0</asrwt>
<pdfrwt beam="1">  1        1 0.40900051E+00 0.66777028E+03</pdfrwt>
<pdfrwt beam="2">0</pdfrwt>
<totfact> 0.12154013E+00</totfact>
</mgrwt>
</event>
<event>
 6    1  0.7575152E-003  0.6490239E+03  0.7818608E-02  0.9808613E-01
          1   -1    0    0  502    0  0.00000000000E+00  0.00000000000E+00  0.10613125654E+03  0.10613125654E+03  0.00000000000E+00 0.  1.
         13   -1    0    0    0    0 -0.00000000000E+00 -0.00000000000E+00 -0.10000000000E+04  0.10000000000E+04  0.00000000000E+00 0.  1.
    9000005    2    1    2  501    0  0.23185834171E-01  0.44160510632E-01 -0.89469116998E+03  0.11053073190E+04  0.64902386493E+03 0.  0.
         13    1    3    3    0    0 -0.13358033855E+03 -0.97021757285E+02  0.28433747822E+02  0.16752732985E+03  0.00000000000E+00 0.  1.
          3    1    3    3  501    0  0.13360352438E+03  0.97065917796E+02 -0.92312491780E+03  0.93777998912E+03  0.00000000000E+00 0.  1.
         21    1    1    2  502  501 -0.23185834171E-01 -0.44160510632E-01  0.82242651819E+00  0.82393756525E+00  0.00000000000E+00 0. -1.
<mgrwt>
<rscale>  1 0.64902387E+03</rscale>
<asrwt>0</asrwt>
<pdfrwt beam="1">  1        1 0.38593266E+00 0.64902387E+03</pdfrwt>
<pdfrwt beam="2">0</pdfrwt>
<totfact> 0.15451283E+00</totfact>
</mgrwt>
</event>
<event>
 6    1  0.7575152E-003  0.6522006E+03  0.7818608E-02  0.9802659E-01
          1   -1    0    0  502    0  0.00000000000E+00  0.00000000000E+00  0.10640030748E+03  0.10640030748E+03  0.00000000000E+00 0.  1.
         13   -1    0    0    0    0 -0.00000000000E+00 -0.00000000000E+00 -0.10000000000E+04  0.10000000000E+04  0.00000000000E+00 0.  1.
    9000005    2    1    2  501    0 -0.29543524909E-02 -0.77848359845E-02 -0.89365828361E+03  0.11063411277E+04  0.65220055420E+03 0.  0.
         13    1    3    3    0    0 -0.28611567501E+03  0.11465465150E+03 -0.26624081460E+03  0.40729846544E+03  0.00000000000E+00 0.  1.
          3    1    3    3  501    0  0.28611272066E+03 -0.11466243633E+03 -0.62741746901E+03  0.69904266225E+03  0.00000000000E+00 0.  1.
         21    1    1    2  502  501  0.29543524909E-02  0.77848359845E-02  0.58591082975E-01  0.59179784337E-01  0.00000000000E+00 0.  1.
<mgrwt>
<rscale>  1 0.65220055E+03</rscale>
<asrwt>0</asrwt>
<pdfrwt beam="1">  1        1 0.38691102E+00 0.65220055E+03</pdfrwt>
<pdfrwt beam="2">0</pdfrwt>
<totfact> 0.15288983E+00</totfact>
</mgrwt>
</event>
<event>
 6    1  0.7575152E-003  0.6513136E+03  0.7818608E-02  0.9804317E-01
          1   -1    0    0  502    0  0.00000000000E+00  0.00000000000E+00  0.12620145661E+03  0.12620145661E+03  0.00000000000E+00 0.  1.
         13   -1    0    0    0    0 -0.00000000000E+00 -0.00000000000E+00 -0.10000000000E+04  0.10000000000E+04  0.00000000000E+00 0.  1.
    9000005    2    1    2  501    0  0.36468417409E+01 -0.46688282026E+00 -0.89376198461E+03  0.11059022837E+04  0.65130320020E+03 0.  0.
         13    1    3    3    0    0  0.28573327412E+02  0.12128351032E+03  0.64022199050E+02  0.14008913908E+03  0.00000000000E+00 0.  1.
          1    1    3    3  501    0 -0.24926485671E+02 -0.12175039314E+03 -0.95778418366E+03  0.96581314465E+03  0.00000000000E+00 0.  1.
         21    1    1    2  502  501 -0.36468417409E+01  0.46688282026E+00  0.19963441225E+02  0.20299172884E+02  0.00000000000E+00 0.  1.
<mgrwt>
<rscale>  1 0.65131358E+03</rscale>
<asrwt>0</asrwt>
<pdfrwt beam="1">  1        1 0.45891536E+00 0.65131358E+03</pdfrwt>
<pdfrwt beam="2">0</pdfrwt>
<totfact> 0.72237843E-01</totfact>
</mgrwt>
</event>
<event>
 6    1  0.7575152E-003  0.6711653E+03  0.7818608E-02  0.9767855E-01
          1   -1    0    0  502    0  0.00000000000E+00  0.00000000000E+00  0.11261572805E+03  0.11261572805E+03  0.00000000000E+00 0.  1.
         13   -1    0    0    0    0 -0.00000000000E+00 -0.00000000000E+00 -0.10000000000E+04  0.10000000000E+04  0.00000000000E+00 0.  1.
    9000005    2    1    2  501    0  0.79808868350E-05 -0.15752557744E-04 -0.88738428635E+03  0.11126157053E+04  0.67116528212E+03 0.  0.
         13    1    3    3    0    0 -0.29621324896E+03 -0.15743421281E+03 -0.45923327557E+03  0.56870292914E+03  0.00000000000E+00 0.  1.
          1    1    3    3  501    0  0.29621325694E+03  0.15743419706E+03 -0.42815101079E+03  0.54391277612E+03  0.00000000000E+00 0.  1.
         21    1    1    2  502  501 -0.79808868523E-05  0.15752557738E-04  0.14397802580E-04  0.22784519951E-04  0.00000000000E+00 0. -1.
<mgrwt>
<rscale>  1 0.67116528E+03</rscale>
<asrwt>0</asrwt>
<pdfrwt beam="1">  1        1 0.40951260E+00 0.67116528E+03</pdfrwt>
<pdfrwt beam="2">0</pdfrwt>
<totfact> 0.12082179E+00</totfact>
</mgrwt>
</event>
<event>
 6    1  0.7575152E-003  0.6413258E+03  0.7818608E-02  0.9823193E-01
          1   -1    0    0  502    0  0.00000000000E+00  0.00000000000E+00  0.10282469661E+03  0.10282469661E+03  0.00000000000E+00 0.  1.
         13   -1    0    0    0    0 -0.00000000000E+00 -0.00000000000E+00 -0.10000000000E+04  0.10000000000E+04  0.00000000000E+00 0.  1.
    9000005    2    1    2  501    0  0.12873552748E-05  0.47745858183E-05 -0.89717531527E+03  0.11028246837E+04  0.64132576490E+03 0.  0.
         13    1    3    3    0    0 -0.15542540478E+03 -0.26910889232E+03 -0.58451265838E+03  0.66199071004E+03  0.00000000000E+00 0.  1.
          3    1    3    3  501    0  0.15542540606E+03  0.26910889710E+03 -0.31266265690E+03  0.44083397370E+03  0.00000000000E+00 0.  1.
         21    1    1    2  502  501 -0.12873552778E-05 -0.47745858307E-05  0.11883517018E-04  0.12871360852E-04  0.00000000000E+00 0. -1.
<mgrwt>
<rscale>  1 0.64132576E+03</rscale>
<asrwt>0</asrwt>
<pdfrwt beam="1">  1        1 0.37390878E+00 0.64132576E+03</pdfrwt>
<pdfrwt beam="2">0</pdfrwt>
<totfact> 0.17483546E+00</totfact>
</mgrwt>
</event>
<event>
 6    1  0.7575152E-003  0.6184255E+03  0.7818608E-02  0.9867899E-01
          1   -1    0    0  502    0  0.00000000000E+00  0.00000000000E+00  0.95612662038E+02  0.95612662038E+02  0.00000000000E+00 0.  1.
         13   -1    0    0    0    0 -0.00000000000E+00 -0.00000000000E+00 -0.10000000000E+04  0.10000000000E+04  0.00000000000E+00 0.  1.
    9000005    2    1    2  501    0  0.57912262150E-04  0.39828194758E-04 -0.90438745556E+03  0.10956125250E+04  0.61842552925E+03 0.  0.
         13    1    3    3    0    0  0.26242078290E+03  0.13074666559E+03 -0.62625624886E+03  0.69148842875E+03  0.00000000000E+00 0.  1.
          1    1    3    3  501    0 -0.26242072499E+03 -0.13074662576E+03 -0.27813120670E+03  0.40412409628E+03  0.00000000000E+00 0.  1.
         21    1    1    2  502  501 -0.57912262132E-04 -0.39828194764E-04  0.11760080336E-03  0.13700388372E-03  0.00000000000E+00 0. -1.
<mgrwt>
<rscale>  1 0.61842553E+03</rscale>
<asrwt>0</asrwt>
<pdfrwt beam="1">  1        1 0.34768314E+00 0.61842553E+03</pdfrwt>
<pdfrwt beam="2">0</pdfrwt>
<totfact> 0.22865247E+00</totfact>
</mgrwt>
</event>
<event>
 6    1  0.7575152E-003  0.6817229E+03  0.7818608E-02  0.9749009E-01
          1   -1    0    0  502    0  0.00000000000E+00  0.00000000000E+00  0.11618732673E+03  0.11618732673E+03  0.00000000000E+00 0.  1.
         13   -1    0    0    0    0 -0.00000000000E+00 -0.00000000000E+00 -0.10000000000E+04  0.10000000000E+04  0.00000000000E+00 0.  1.
    9000005    2    1    2  501    0 -0.45490869326E-04 -0.33945899645E-04 -0.88381347038E+03  0.11161865276E+04  0.68172290116E+03 0.  0.
         13    1    3    3    0    0  0.19420987775E+03 -0.90907960158E+02 -0.80840355478E+01  0.21458584638E+03  0.00000000000E+00 0.  1.
          3    1    3    3  501    0 -0.19420992325E+03  0.90907926212E+02 -0.87572943483E+03  0.90160068122E+03  0.00000000000E+00 0.  1.
         21    1    1    2  502  501  0.45490869324E-04  0.33945899652E-04  0.79711417979E-03  0.79913250398E-03  0.00000000000E+00 0.  1.
<mgrwt>
<rscale>  1 0.68172290E+03</rscale>
<asrwt>0</asrwt>
<pdfrwt beam="1">  1        1 0.42250026E+00 0.68172290E+03</pdfrwt>
<pdfrwt beam="2">0</pdfrwt>
<totfact> 0.10538812E+00</totfact>
</mgrwt>
</event>
<event>
 6    1  0.7575152E-003  0.6200281E+03  0.7818608E-02  0.9864704E-01
          1   -1    0    0  502    0  0.00000000000E+00  0.00000000000E+00  0.96108871034E+02  0.96108871034E+02  0.00000000000E+00 0.  1.
         13   -1    0    0    0    0 -0.00000000000E+00 -0.00000000000E+00 -0.10000000000E+04  0.10000000000E+04  0.00000000000E+00 0.  1.
    9000005    2    1    2  501    0 -0.22328674930E-04  0.61981580757E-06 -0.90389129570E+03  0.10961087028E+04  0.62002807513E+03 0.  0.
         13    1    3    3    0    0  0.24177318983E+03 -0.19323842876E+03 -0.42065280382E+03  0.52224912354E+03  0.00000000000E+00 0.  1.
          3    1    3    3  501    0 -0.24177321215E+03  0.19323842938E+03 -0.48323849187E+03  0.57385957928E+03  0.00000000000E+00 0.  1.
         21    1    1    2  502  501  0.22328674929E-04 -0.61981580579E-06  0.16672906229E-03  0.16821870915E-03  0.00000000000E+00 0. -1.
<mgrwt>
<rscale>  1 0.62002808E+03</rscale>
<asrwt>0</asrwt>
<pdfrwt beam="1">  1        1 0.34948754E+00 0.62002808E+03</pdfrwt>
<pdfrwt beam="2">0</pdfrwt>
<totfact> 0.22448794E+00</totfact>
</mgrwt>
</event>
<event>
 6    1  0.7575152E-003  0.6413963E+03  0.7818608E-02  0.9823059E-01
          1   -1    0    0  502    0  0.00000000000E+00  0.00000000000E+00  0.10367229294E+03  0.10367229294E+03  0.00000000000E+00 0.  1.
         13   -1    0    0    0    0 -0.00000000000E+00 -0.00000000000E+00 -0.10000000000E+04  0.10000000000E+04  0.00000000000E+00 0.  1.
    9000005    2    1    2  501    0  0.20907234661E+00  0.77759436206E+00 -0.89693042754E+03  0.11026664917E+04  0.64139578390E+03 0.  0.
         13    1    3    3    0    0  0.27691687660E+03 -0.16146602622E+03 -0.45692887395E+03  0.55815609825E+03  0.00000000000E+00 0.  1.
          1    1    3    3  501    0 -0.27670780425E+03  0.16224362058E+03 -0.44000155360E+03  0.54451039340E+03  0.00000000000E+00 0.  1.
         21    1    1    2  502  501 -0.20907234661E+00 -0.77759436206E+00  0.60272048074E+00  0.10058012805E+01  0.00000000000E+00 0.  1.
<mgrwt>
<rscale>  1 0.64139629E+03</rscale>
<asrwt>0</asrwt>
<pdfrwt beam="1">  1        1 0.37699095E+00 0.64139629E+03</pdfrwt>
<pdfrwt beam="2">0</pdfrwt>
<totfact> 0.16945506E+00</totfact>
</mgrwt>
</event>
<event>
 6    1  0.7634834E-003  0.6724000E+03  0.7818608E-02  0.9765632E-01
          1   -1    0    0  502    0  0.00000000000E+00  0.00000000000E+00  0.11303045882E+03  0.11303045882E+03  0.00000000000E+00 0.  1.
         13   -1    0    0    0    0 -0.00000000000E+00 -0.00000000000E+00 -0.10000000000E+04  0.10000000000E+04  0.00000000000E+00 0.  1.
    9000005    2    1    2  501    0 -0.61972254954E-04  0.32070455774E-04 -0.88696952418E+03  0.11130303870E+04  0.67239995952E+03 0.  0.
         13    1    3    3    0    0  0.12596015393E+03 -0.23143132877E+03 -0.78913942902E+03  0.83196602019E+03  0.00000000000E+00 0.  1.
          3    1    3    3  501    0 -0.12596021591E+03  0.23143136084E+03 -0.97830095165E+02  0.28106436681E+03  0.00000000000E+00 0.  1.
         21    1    1    2  502  501  0.61972254952E-04 -0.32070455785E-04 -0.16998291990E-04  0.71819331998E-04  0.00000000000E+00 0.  1.
<mgrwt>
<rscale>  1 0.67239996E+03</rscale>
<asrwt>0</asrwt>
<pdfrwt beam="1">  1        1 0.41102072E+00 0.67239996E+03</pdfrwt>
<pdfrwt beam="2">0</pdfrwt>
<totfact> 0.11892624E+00</totfact>
</mgrwt>
</event>
<event>
 6    1  0.7575152E-003  0.6510999E+03  0.7818608E-02  0.9804718E-01
          1   -1    0    0  502    0  0.00000000000E+00  0.00000000000E+00  0.10598300148E+03  0.10598300148E+03  0.00000000000E+00 0.  1.
         13   -1    0    0    0    0 -0.00000000000E+00 -0.00000000000E+00 -0.10000000000E+04  0.10000000000E+04  0.00000000000E+00 0.  1.
    9000005    2    1    2  501    0  0.49079132225E-06 -0.12249396846E-04 -0.89401724056E+03  0.11059827591E+04  0.65109986719E+03 0.  0.
         13    1    3    3    0    0 -0.11244540244E+03 -0.11913227693E+03 -0.92488552425E+03  0.93928148119E+03  0.00000000000E+00 0.  1.
          3    1    3    3  501    0  0.11244540293E+03  0.11913226468E+03  0.30868283684E+02  0.16670127794E+03  0.00000000000E+00 0.  1.
         21    1    1    2  502  501 -0.49079131393E-06  0.12249396847E-04  0.24204804701E-03  0.24235830017E-03  0.00000000000E+00 0. -1.
<mgrwt>
<rscale>  1 0.65109987E+03</rscale>
<asrwt>0</asrwt>
<pdfrwt beam="1">  1        1 0.38539355E+00 0.65109987E+03</pdfrwt>
<pdfrwt beam="2">0</pdfrwt>
<totfact> 0.15530417E+00</totfact>
</mgrwt>
</event>
<event>
 6    1  0.7575152E-003  0.6980346E+03  0.7818608E-02  0.9720599E-01
          1   -1    0    0  502    0  0.00000000000E+00  0.00000000000E+00  0.14646955961E+03  0.14646955961E+03  0.00000000000E+00 0.  1.
         13   -1    0    0    0    0 -0.00000000000E+00 -0.00000000000E+00 -0.10000000000E+04  0.10000000000E+04  0.00000000000E+00 0.  1.
    9000005    2    1    2  501    0  0.25452961632E+01  0.74468552279E+01 -0.87748021764E+03  0.11212599183E+04  0.69799021328E+03 0.  0.
         13    1    3    3    0    0  0.42006468881E+01 -0.33896203927E+03 -0.32798365693E+03  0.47168441644E+03  0.00000000000E+00 0.  1.
          3    1    3    3  501    0 -0.16553507249E+01  0.34640889450E+03 -0.54949656071E+03  0.64957550185E+03  0.00000000000E+00 0.  1.
         21    1    1    2  502  501 -0.25452961632E+01 -0.74468552279E+01  0.23949777243E+02  0.25209641317E+02  0.00000000000E+00 0. -1.
<mgrwt>
<rscale>  1 0.69803458E+03</rscale>
<asrwt>0</asrwt>
<pdfrwt beam="1">  1        1 0.53261770E+00 0.69803458E+03</pdfrwt>
<pdfrwt beam="2">0</pdfrwt>
<totfact> 0.31666869E-01</totfact>
</mgrwt>
</event>
<event>
 6    1  0.7575152E-003  0.6563526E+03  0.7818608E-02  0.9794931E-01
          1   -1    0    0  502    0  0.00000000000E+00  0.00000000000E+00  0.10770098220E+03  0.10770098220E+03  0.00000000000E+00 0.  1.
         13   -1    0    0    0    0 -0.00000000000E+00 -0.00000000000E+00 -0.10000000000E+04  0.10000000000E+04  0.00000000000E+00 0.  1.
    9000005    2    1    2  501    0 -0.12785818173E-02  0.13268582467E-03 -0.89229993429E+03  0.11076994035E+04  0.65635264588E+03 0.  0.
         13    1    3    3    0    0  0.16587695154E+02  0.32702704422E+03 -0.40925693057E+03  0.52413077996E+03  0.00000000000E+00 0.  1.
          3    1    3    3  501    0 -0.16588973735E+02 -0.32702691154E+03 -0.48304300372E+03  0.58356862353E+03  0.00000000000E+00 0.  1.
         21    1    1    2  502  501  0.12785818173E-02 -0.13268582465E-03  0.91648911104E-03  0.15787112726E-02  0.00000000000E+00 0. -1.
<mgrwt>
<rscale>  1 0.65635265E+03</rscale>
<asrwt>0</asrwt>
<pdfrwt beam="1">  1        1 0.39164076E+00 0.65635265E+03</pdfrwt>
<pdfrwt beam="2">0</pdfrwt>
<totfact> 0.14557173E+00</totfact>
</mgrwt>
</event>
<event>
 6    1  0.7575152E-003  0.6497805E+03  0.7818608E-02  0.9807191E-01
          1   -1    0    0  502    0  0.00000000000E+00  0.00000000000E+00  0.10555371394E+03  0.10555371394E+03  0.00000000000E+00 0.  1.
         13   -1    0    0    0    0 -0.00000000000E+00 -0.00000000000E+00 -0.10000000000E+04  0.10000000000E+04  0.00000000000E+00 0.  1.
    9000005    2    1    2  501    0  0.12007964386E-04 -0.28485382217E-04 -0.89444630780E+03  0.11055536761E+04  0.64978052702E+03 0.  0.
         13    1    3    3    0    0 -0.20853114033E+03 -0.23944537332E+03 -0.56429272132E+03  0.64749177495E+03  0.00000000000E+00 0.  1.
          3    1    3    3  501    0  0.20853115234E+03  0.23944534484E+03 -0.33015358648E+03  0.45806190120E+03  0.00000000000E+00 0.  1.
         21    1    1    2  502  501 -0.12007964385E-04  0.28485382220E-04  0.21739059897E-04  0.37791466419E-04  0.00000000000E+00 0.  1.
<mgrwt>
<rscale>  1 0.64978053E+03</rscale>
<asrwt>0</asrwt>
<pdfrwt beam="1">  1        1 0.38383250E+00 0.64978053E+03</pdfrwt>
<pdfrwt beam="2">0</pdfrwt>
<totfact> 0.15783105E+00</totfact>
</mgrwt>
</event>
<event>
 6    1  0.7575152E-003  0.6509732E+03  0.7818608E-02  0.9804955E-01
          1   -1    0    0  502    0  0.00000000000E+00  0.00000000000E+00  0.10946846436E+03  0.10946846436E+03  0.00000000000E+00 0.  1.
         13   -1    0    0    0    0 -0.00000000000E+00 -0.00000000000E+00 -0.10000000000E+04  0.10000000000E+04  0.00000000000E+00 0.  1.
    9000005    2    1    2  501    0  0.26778883015E+01  0.10576022175E+01 -0.89339668798E+03  0.11054066044E+04  0.65096684201E+03 0.  0.
         13    1    3    3    0    0  0.92430690972E+02  0.25611772314E+03 -0.75304417433E+03  0.80075917056E+03  0.00000000000E+00 0.  1.
          1    1    3    3  501    0 -0.89752802670E+02 -0.25506012092E+03 -0.14035251365E+03  0.30464743387E+03  0.00000000000E+00 0.  1.
         21    1    1    2  502  501 -0.26778883015E+01 -0.10576022175E+01  0.28651523432E+01  0.40618599379E+01  0.00000000000E+00 0. -1.
<mgrwt>
<rscale>  1 0.65097321E+03</rscale>
<asrwt>0</asrwt>
<pdfrwt beam="1">  1        1 0.39806798E+00 0.65097321E+03</pdfrwt>
<pdfrwt beam="2">0</pdfrwt>
<totfact> 0.13644002E+00</totfact>
</mgrwt>
</event>
<event>
 6    1  0.7575152E-003  0.6666023E+03  0.7818608E-02  0.9776115E-01
          1   -1    0    0  502    0  0.00000000000E+00  0.00000000000E+00  0.11833842500E+03  0.11833842500E+03  0.00000000000E+00 0.  1.
         13   -1    0    0    0    0 -0.00000000000E+00 -0.00000000000E+00 -0.10000000000E+04  0.10000000000E+04  0.00000000000E+00 0.  1.
    9000005    2    1    2  501    0  0.30138946744E+00  0.35706592661E+00 -0.88890197857E+03  0.11110829598E+04  0.66660212847E+03 0.  0.
         13    1    3    3    0    0  0.32359420271E+03  0.50134434379E+02 -0.54981256394E+03  0.63993790715E+03  0.00000000000E+00 0.  1.
          3    1    3    3  501    0 -0.32329281325E+03 -0.49777368452E+02 -0.33908941463E+03  0.47114505263E+03  0.00000000000E+00 0.  1.
         21    1    1    2  502  501 -0.30138946744E+00 -0.35706592661E+00  0.72404035709E+01  0.72554652198E+01  0.00000000000E+00 0. -1.
<mgrwt>
<rscale>  1 0.66660229E+03</rscale>
<asrwt>0</asrwt>
<pdfrwt beam="1">  1        1 0.43032245E+00 0.66660229E+03</pdfrwt>
<pdfrwt beam="2">0</pdfrwt>
<totfact> 0.97411579E-01</totfact>
</mgrwt>
</event>
<event>
 6    1  0.7575152E-003  0.6372471E+03  0.7818608E-02  0.9831008E-01
          1   -1    0    0  502    0  0.00000000000E+00  0.00000000000E+00  0.10152096568E+03  0.10152096568E+03  0.00000000000E+00 0.  1.
         13   -1    0    0    0    0 -0.00000000000E+00 -0.00000000000E+00 -0.10000000000E+04  0.10000000000E+04  0.00000000000E+00 0.  1.
    9000005    2    1    2  501    0  0.54174237363E-05 -0.24035302317E-05 -0.89847903554E+03  0.11015209596E+04  0.63724708490E+03 0.  0.
         13    1    3    3    0    0  0.66528294429E+02 -0.13574534880E+03  0.35584774069E+02  0.15530321898E+03  0.00000000000E+00 0.  1.
          1    1    3    3  501    0 -0.66528289012E+02  0.13574534640E+03 -0.93406380960E+03  0.94621774065E+03  0.00000000000E+00 0.  1.
         21    1    1    2  502  501 -0.54174237350E-05  0.24035302420E-05  0.12180625858E-05  0.60505465878E-05  0.00000000000E+00 0.  1.
<mgrwt>
<rscale>  1 0.63724708E+03</rscale>
<asrwt>0</asrwt>
<pdfrwt beam="1">  1        1 0.36916793E+00 0.63724708E+03</pdfrwt>
<pdfrwt beam="2">0</pdfrwt>
<totfact> 0.18356424E+00</totfact>
</mgrwt>
</event>
<event>
 6    1  0.7575152E-003  0.6446058E+03  0.7818608E-02  0.9816954E-01
          1   -1    0    0  502    0  0.00000000000E+00  0.00000000000E+00  0.10393576759E+03  0.10393576759E+03  0.00000000000E+00 0.  1.
         13   -1    0    0    0    0 -0.00000000000E+00 -0.00000000000E+00 -0.10000000000E+04  0.10000000000E+04  0.00000000000E+00 0.  1.
    9000005    2    1    2  501    0 -0.59352652471E-04 -0.18820808117E-02 -0.89612081761E+03  0.11038791511E+04  0.64460581784E+03 0.  0.
         13    1    3    3    0    0 -0.86455034236E+02  0.28331618278E+03 -0.23052551278E+03  0.37534589969E+03  0.00000000000E+00 0.  1.
          3    1    3    3  501    0  0.86454974883E+02 -0.28331806486E+03 -0.66559530483E+03  0.72853325138E+03  0.00000000000E+00 0.  1.
         21    1    1    2  502  501  0.59352652470E-04  0.18820808117E-02  0.56585203048E-01  0.56616525457E-01  0.00000000000E+00 0. -1.
<mgrwt>
<rscale>  1 0.64460582E+03</rscale>
<asrwt>0</asrwt>
<pdfrwt beam="1">  1        1 0.37794904E+00 0.64460582E+03</pdfrwt>
<pdfrwt beam="2">0</pdfrwt>
<totfact> 0.16771678E+00</totfact>
</mgrwt>
</event>
<event>
 6    1  0.7575152E-003  0.7178791E+03  0.7818608E-02  0.9687136E-01
          1   -1    0    0  502    0  0.00000000000E+00  0.00000000000E+00  0.13270825986E+03  0.13270825986E+03  0.00000000000E+00 0.  1.
         13   -1    0    0    0    0 -0.00000000000E+00 -0.00000000000E+00 -0.10000000000E+04  0.10000000000E+04  0.00000000000E+00 0.  1.
    9000005    2    1    2  501    0  0.63181740086E+00 -0.22325170658E+01 -0.87076522020E+03  0.11285311329E+04  0.71787538330E+03 0.  0.
         13    1    3    3    0    0  0.32654973387E+03 -0.53397188120E+02 -0.21542439545E+03  0.39483370999E+03  0.00000000000E+00 0.  1.
          1    1    3    3  501    0 -0.32591791647E+03  0.51164671054E+02 -0.65534082475E+03  0.73369742294E+03  0.00000000000E+00 0.  1.
         21    1    1    2  502  501 -0.63181740086E+00  0.22325170658E+01  0.34734800603E+01  0.41771269320E+01  0.00000000000E+00 0. -1.
<mgrwt>
<rscale>  1 0.71787913E+03</rscale>
<asrwt>0</asrwt>
<pdfrwt beam="1">  1        1 0.48257651E+00 0.71787913E+03</pdfrwt>
<pdfrwt beam="2">0</pdfrwt>
<totfact> 0.55189680E-01</totfact>
</mgrwt>
</event>
<event>
 6    1  0.7575152E-003  0.6566748E+03  0.7818608E-02  0.9794334E-01
          1   -1    0    0  502    0  0.00000000000E+00  0.00000000000E+00  0.10780639687E+03  0.10780639687E+03  0.00000000000E+00 0.  1.
         13   -1    0    0    0    0 -0.00000000000E+00 -0.00000000000E+00 -0.10000000000E+04  0.10000000000E+04  0.00000000000E+00 0.  1.
    9000005    2    1    2  501    0 -0.34439257163E-04 -0.15442140864E-04 -0.89219456737E+03  0.11078054319E+04  0.65667475122E+03 0.  0.
         13    1    3    3    0    0  0.75440692664E+02 -0.11114727276E+03  0.59326418231E+02  0.14684903218E+03  0.00000000000E+00 0.  1.
          3    1    3    3  501    0 -0.75440727104E+02  0.11114725732E+03 -0.95152098560E+03  0.96095639971E+03  0.00000000000E+00 0.  1.
         21    1    1    2  502  501  0.34439257162E-04  0.15442140875E-04  0.96423919202E-03  0.96497758604E-03  0.00000000000E+00 0.  1.
<mgrwt>
<rscale>  1 0.65667475E+03</rscale>
<asrwt>0</asrwt>
<pdfrwt beam="1">  1        1 0.39202409E+00 0.65667475E+03</pdfrwt>
<pdfrwt beam="2">0</pdfrwt>
<totfact> 0.14499380E+00</totfact>
</mgrwt>
</event>
<event>
 6    1  0.7575152E-003  0.5967181E+03  0.7818608E-02  0.9912238E-01
          1   -1    0    0  502    0  0.00000000000E+00  0.00000000000E+00  0.89018354453E+02  0.89018354453E+02  0.00000000000E+00 0.  1.
         13   -1    0    0    0    0 -0.00000000000E+00 -0.00000000000E+00 -0.10000000000E+04  0.10000000000E+04  0.00000000000E+00 0.  1.
    9000005    2    1    2  501    0 -0.63692577470E-05  0.98456834507E-05 -0.91098186268E+03  0.10890181370E+04  0.59671814836E+03 0.  0.
         13    1    3    3    0    0 -0.75000199107E+02 -0.28348984719E+03 -0.35508849969E+03  0.46052075517E+03  0.00000000000E+00 0.  1.
          3    1    3    3  501    0  0.75000192737E+02  0.28348985704E+03 -0.55589336299E+03  0.62849738183E+03  0.00000000000E+00 0.  1.
         21    1    1    2  502  501  0.63692577388E-05 -0.98456834527E-05  0.21713623252E-03  0.21745263484E-03  0.00000000000E+00 0. -1.
<mgrwt>
<rscale>  1 0.59671815E+03</rscale>
<asrwt>0</asrwt>
<pdfrwt beam="1">  1        1 0.32370379E+00 0.59671815E+03</pdfrwt>
<pdfrwt beam="2">0</pdfrwt>
<totfact> 0.29166246E+00</totfact>
</mgrwt>
</event>
