<event>
 6    1  0.1033679E-011  0.3000000E+03  0.7818608E-02  0.1093470E+00
          1   -1    0    0  502    0  0.00000000000E+00  0.00000000000E+00  0.24808842873E+03  0.24808842873E+03  0.00000000000E+00 0.  1.
         13   -1    0    0    0    0 -0.00000000000E+00 -0.00000000000E+00 -0.27500000000E+03  0.27500000000E+03  0.00000000000E+00 0.  1.
    9000005    2    1    2  501    0 -0.27577400886E+02 -0.39164941862E+02 -0.20525324527E+02  0.47476462654E+03  0.47189591644E+03 0.  0.
         13    1    3    3    0    0  0.17563084993E+03 -0.15953739818E+03 -0.24602917732E+02  0.23854492329E+03  0.00000000000E+00 0.  1.
          1    1    3    3  501    0 -0.20320825081E+03  0.12037245632E+03  0.40775932054E+01  0.23621970325E+03  0.00000000000E+00 0.  1.
         21    1    1    2  502  501  0.27577400886E+02  0.39164941862E+02 -0.63862467433E+01  0.48323802191E+02  0.00000000000E+00 0.  1.
<scales pt_clust_4="550.00000" pt_clust_5="550.00000" pt_clust_6="47.89998"></scales>
<mgrwt>
<rscale>  0 0.30000000E+03</rscale>
<asrwt>  1 0.47899979E+02</asrwt>
<pdfrwt beam="1">  1        1 0.90213974E+00 0.30000000E+03</pdfrwt>
<pdfrwt beam="2">0</pdfrwt>
<totfact> 0.97581030E-05</totfact>
</mgrwt>
<clustering>
<clus scale="   47.900">  1  6  2 -1</clus>
<clus scale="  471.896">  4  5 -1 -1</clus>
<clus scale="  300.000">  1  4  2 -1</clus>
</clustering>
</event>
<event>
 6    1  0.1033679E-011  0.3000000E+03  0.7818608E-02  0.1093470E+00
          1   -1    0    0  502    0  0.00000000000E+00  0.00000000000E+00  0.24118951841E+03  0.24118951841E+03  0.00000000000E+00 0.  1.
         13   -1    0    0    0    0 -0.00000000000E+00 -0.00000000000E+00 -0.27500000000E+03  0.27500000000E+03  0.00000000000E+00 0.  1.
    9000005    2    1    2  501    0 -0.16662503917E+01 -0.41952298940E+02 -0.25133255065E+02  0.47331684603E+03  0.47078061180E+03 0.  0.
         13    1    3    3    0    0  0.18572196389E+03  0.30379576424E+01 -0.15417004498E+03  0.24139237731E+03  0.00000000000E+00 0.  1.
          3    1    3    3  501    0 -0.18738821428E+03 -0.44990256582E+02  0.12903678991E+03  0.23192446871E+03  0.00000000000E+00 0.  1.
         21    1    1    2  502  501  0.16662503917E+01  0.41952298940E+02 -0.86772265292E+01  0.42872672379E+02  0.00000000000E+00 0.  1.
<scales pt_clust_4="550.00000" pt_clust_5="550.00000" pt_clust_6="41.98540"></scales>
<mgrwt>
<rscale>  0 0.30000000E+03</rscale>
<asrwt>  1 0.41985397E+02</asrwt>
<pdfrwt beam="1">  1        1 0.87705279E+00 0.30000000E+03</pdfrwt>
<pdfrwt beam="2">0</pdfrwt>
<totfact> 0.20666808E-04</totfact>
</mgrwt>
<clustering>
<clus scale="   41.985">  1  6  2 -1</clus>
<clus scale="  470.781">  4  5 -1 -1</clus>
<clus scale="  300.000">  1  4  2 -1</clus>
</clustering>
</event>
<event>
 6    1  0.1033679E-011  0.3000000E+03  0.7818608E-02  0.1093470E+00
          1   -1    0    0  502    0  0.00000000000E+00  0.00000000000E+00  0.22453320348E+03  0.22453320348E+03  0.00000000000E+00 0.  1.
         13   -1    0    0    0    0 -0.00000000000E+00 -0.00000000000E+00 -0.27500000000E+03  0.27500000000E+03  0.00000000000E+00 0.  1.
    9000005    2    1    2  501    0 -0.10403333904E+02  0.28389558893E+02 -0.66906879474E+02  0.46511703376E+03  0.45928545390E+03 0.  0.
         13    1    3    3    0    0 -0.91586736473E+02 -0.87967268663E+02  0.15583637513E+03  0.20102573583E+03  0.00000000000E+00 0.  1.
          1    1    3    3  501    0  0.81183402569E+02  0.11635682756E+03 -0.22274325460E+03  0.26409129793E+03  0.00000000000E+00 0.  1.
         21    1    1    2  502  501  0.10403333904E+02 -0.28389558893E+02  0.16440082954E+02  0.34416169717E+02  0.00000000000E+00 0.  1.
<scales pt_clust_4="550.00000" pt_clust_5="550.00000" pt_clust_6="30.23568"></scales>
<mgrwt>
<rscale>  0 0.30000000E+03</rscale>
<asrwt>  1 0.30235681E+02</asrwt>
<pdfrwt beam="1">  1        1 0.81648438E+00 0.30000000E+03</pdfrwt>
<pdfrwt beam="2">0</pdfrwt>
<totfact> 0.79599487E-04</totfact>
</mgrwt>
<clustering>
<clus scale="   30.236">  1  6  2 -1</clus>
<clus scale="  459.285">  4  5 -1 -1</clus>
<clus scale="  300.000">  1  4  2 -1</clus>
</clustering>
</event>
<event>
 6    1  0.1033679E-011  0.3000000E+03  0.7818608E-02  0.1093470E+00
          1   -1    0    0  502    0  0.00000000000E+00  0.00000000000E+00  0.22599616633E+03  0.22599616633E+03  0.00000000000E+00 0.  1.
         13   -1    0    0    0    0 -0.00000000000E+00 -0.00000000000E+00 -0.27500000000E+03  0.27500000000E+03  0.00000000000E+00 0.  1.
    9000005    2    1    2  501    0  0.30747686063E+02 -0.60507752329E+01 -0.44803230487E+02  0.46937849491E+03  0.46618323644E+03 0.  0.
         13    1    3    3    0    0  0.85235916525E+02  0.12456543489E+03  0.16030597017E+03  0.22018109163E+03  0.00000000000E+00 0.  1.
          3    1    3    3  501    0 -0.54488230462E+02 -0.13061621013E+03 -0.20510920066E+03  0.24919740328E+03  0.00000000000E+00 0.  1.
         21    1    1    2  502  501 -0.30747686063E+02  0.60507752329E+01 -0.42006031817E+01  0.31617671423E+02  0.00000000000E+00 0. -1.
<scales pt_clust_4="550.00000" pt_clust_5="550.00000" pt_clust_6="31.33741"></scales>
<mgrwt>
<rscale>  0 0.30000000E+03</rscale>
<asrwt>  1 0.31337407E+02</asrwt>
<pdfrwt beam="1">  1        1 0.82180424E+00 0.30000000E+03</pdfrwt>
<pdfrwt beam="2">0</pdfrwt>
<totfact> 0.71216721E-04</totfact>
</mgrwt>
<clustering>
<clus scale="   31.337">  1  6  2 -1</clus>
<clus scale="  466.183">  4  5 -1 -1</clus>
<clus scale="  300.000">  1  4  2 -1</clus>
</clustering>
</event>
<event>
 6    1  0.1033679E-011  0.3000000E+03  0.7818608E-02  0.1093470E+00
          1   -1    0    0  502    0  0.00000000000E+00  0.00000000000E+00  0.22966087413E+03  0.22966087413E+03  0.00000000000E+00 0.  1.
         13   -1    0    0    0    0 -0.00000000000E+00 -0.00000000000E+00 -0.27500000000E+03  0.27500000000E+03  0.00000000000E+00 0.  1.
    9000005    2    1    2  501    0  0.80684464512E+01  0.41133276772E+02 -0.53430180430E+02  0.46196999161E+03  0.45695124760E+03 0.  0.
         13    1    3    3    0    0  0.15525811108E+03  0.18336524189E+03  0.27570797446E+02  0.24184301078E+03  0.00000000000E+00 0.  1.
          3    1    3    3  501    0 -0.14718966463E+03 -0.14223196512E+03 -0.81000977877E+02  0.22012698084E+03  0.00000000000E+00 0.  1.
         21    1    1    2  502  501 -0.80684464512E+01 -0.41133276772E+02  0.80910545613E+01  0.42690882517E+02  0.00000000000E+00 0. -1.
<scales pt_clust_4="550.00000" pt_clust_5="550.00000" pt_clust_6="41.91714"></scales>
<mgrwt>
<rscale>  0 0.30000000E+03</rscale>
<asrwt>  1 0.41917136E+02</asrwt>
<pdfrwt beam="1">  1        1 0.83513045E+00 0.30000000E+03</pdfrwt>
<pdfrwt beam="2">0</pdfrwt>
<totfact> 0.52219167E-04</totfact>
</mgrwt>
<clustering>
<clus scale="   41.917">  1  6  2 -1</clus>
<clus scale="  456.951">  4  5 -1 -1</clus>
<clus scale="  300.000">  1  4  2 -1</clus>
</clustering>
</event>
<event>
 6    1  0.1033679E-011  0.3000000E+03  0.7818608E-02  0.1093470E+00
          1   -1    0    0  502    0  0.00000000000E+00  0.00000000000E+00  0.22815253802E+03  0.22815253802E+03  0.00000000000E+00 0.  1.
         13   -1    0    0    0    0 -0.00000000000E+00 -0.00000000000E+00 -0.27500000000E+03  0.27500000000E+03  0.00000000000E+00 0.  1.
    9000005    2    1    2  501    0 -0.36752801586E+02  0.10809274562E+01 -0.50848128271E+02  0.46616683593E+03  0.46192429027E+03 0.  0.
         13    1    3    3    0    0  0.18994248096E+02 -0.14702141194E+03  0.14971545197E+03  0.21069122808E+03  0.00000000000E+00 0.  1.
          3    1    3    3  501    0 -0.55747049682E+02  0.14810233940E+03 -0.20056358025E+03  0.25547560785E+03  0.00000000000E+00 0.  1.
         21    1    1    2  502  501  0.36752801586E+02 -0.10809274562E+01  0.40006662958E+01  0.36985702094E+02  0.00000000000E+00 0.  1.
<scales pt_clust_4="550.00000" pt_clust_5="550.00000" pt_clust_6="36.76869"></scales>
<mgrwt>
<rscale>  0 0.30000000E+03</rscale>
<asrwt>  1 0.36768694E+02</asrwt>
<pdfrwt beam="1">  1        1 0.82964559E+00 0.30000000E+03</pdfrwt>
<pdfrwt beam="2">0</pdfrwt>
<totfact> 0.58959128E-04</totfact>
</mgrwt>
<clustering>
<clus scale="   36.769">  1  6  2 -1</clus>
<clus scale="  461.924">  4  5 -1 -1</clus>
<clus scale="  300.000">  1  4  2 -1</clus>
</clustering>
</event>
<event>
 6    1  0.1033679E-011  0.3000000E+03  0.7818608E-02  0.1093470E+00
          1   -1    0    0  502    0  0.00000000000E+00  0.00000000000E+00  0.25651708408E+03  0.25651708408E+03  0.00000000000E+00 0.  1.
         13   -1    0    0    0    0 -0.00000000000E+00 -0.00000000000E+00 -0.27500000000E+03  0.27500000000E+03  0.00000000000E+00 0.  1.
    9000005    2    1    2  501    0 -0.54562256682E+02  0.28406051596E+01  0.14730647786E+01  0.47335051243E+03  0.47018446253E+03 0.  0.
         13    1    3    3    0    0  0.44214940465E+02  0.12949016369E+03  0.18459081466E+03  0.22977474254E+03  0.00000000000E+00 0.  1.
          3    1    3    3  501    0 -0.98777197148E+02 -0.12664955853E+03 -0.18311774988E+03  0.24357576988E+03  0.00000000000E+00 0.  1.
         21    1    1    2  502  501  0.54562256682E+02 -0.28406051596E+01 -0.19955980701E+02  0.58166571651E+02  0.00000000000E+00 0.  1.
<scales pt_clust_4="550.00000" pt_clust_5="550.00000" pt_clust_6="54.63618"></scales>
<mgrwt>
<rscale>  0 0.30000000E+03</rscale>
<asrwt>  1 0.54636177E+02</asrwt>
<pdfrwt beam="1">  1        1 0.93278940E+00 0.30000000E+03</pdfrwt>
<pdfrwt beam="2">0</pdfrwt>
<totfact> 0.22146777E-05</totfact>
</mgrwt>
<clustering>
<clus scale="   54.636">  1  6  2 -1</clus>
<clus scale="  470.184">  4  5 -1 -1</clus>
<clus scale="  300.000">  1  4  2 -1</clus>
</clustering>
</event>
<event>
 6    1  0.1033679E-011  0.3000000E+03  0.7818608E-02  0.1093470E+00
          1   -1    0    0  502    0  0.00000000000E+00  0.00000000000E+00  0.24101927516E+03  0.24101927516E+03  0.00000000000E+00 0.  1.
         13   -1    0    0    0    0 -0.00000000000E+00 -0.00000000000E+00 -0.27500000000E+03  0.27500000000E+03  0.00000000000E+00 0.  1.
    9000005    2    1    2  501    0  0.18802668894E+02 -0.24130751763E+02 -0.40923382059E+02  0.48464995850E+03  0.48194919394E+03 0.  0.
         13    1    3    3    0    0  0.23878615143E+03 -0.78475181573E+02  0.13137034690E+02  0.25169378602E+03  0.00000000000E+00 0.  1.
          3    1    3    3  501    0 -0.21998348254E+03  0.54344429809E+02 -0.54060416749E+02  0.23295617249E+03  0.00000000000E+00 0.  1.
         21    1    1    2  502  501 -0.18802668894E+02  0.24130751763E+02  0.69426572190E+01  0.31369316656E+02  0.00000000000E+00 0.  1.
<scales pt_clust_4="550.00000" pt_clust_5="550.00000" pt_clust_6="30.59140"></scales>
<mgrwt>
<rscale>  0 0.30000000E+03</rscale>
<asrwt>  1 0.30591396E+02</asrwt>
<pdfrwt beam="1">  1        1 0.87643373E+00 0.30000000E+03</pdfrwt>
<pdfrwt beam="2">0</pdfrwt>
<totfact> 0.22269512E-04</totfact>
</mgrwt>
<clustering>
<clus scale="   30.591">  1  6  2 -1</clus>
<clus scale="  481.949">  4  5 -1 -1</clus>
<clus scale="  300.000">  1  4  2 -1</clus>
</clustering>
</event>
<event>
 6    1  0.1033679E-011  0.3000000E+03  0.7818608E-02  0.1093470E+00
          1   -1    0    0  502    0  0.00000000000E+00  0.00000000000E+00  0.23157545113E+03  0.23157545113E+03  0.00000000000E+00 0.  1.
         13   -1    0    0    0    0 -0.00000000000E+00 -0.00000000000E+00 -0.27500000000E+03  0.27500000000E+03  0.00000000000E+00 0.  1.
    9000005    2    1    2  501    0 -0.41181961903E+01 -0.32341706815E+02 -0.42038995046E+02  0.47394317724E+03  0.47094788736E+03 0.  0.
         13    1    3    3    0    0 -0.54059731086E+02  0.11904391881E+03  0.16634581742E+03  0.21157703114E+03  0.00000000000E+00 0.  1.
          1    1    3    3  501    0  0.49941534896E+02 -0.15138562563E+03 -0.20838481247E+03  0.26236614610E+03  0.00000000000E+00 0.  1.
         21    1    1    2  502  501  0.41181961903E+01  0.32341706815E+02 -0.13855538255E+01  0.32632273886E+02  0.00000000000E+00 0.  1.
<scales pt_clust_4="550.00000" pt_clust_5="550.00000" pt_clust_6="32.60285"></scales>
<mgrwt>
<rscale>  0 0.30000000E+03</rscale>
<asrwt>  1 0.32602846E+02</asrwt>
<pdfrwt beam="1">  1        1 0.84209255E+00 0.30000000E+03</pdfrwt>
<pdfrwt beam="2">0</pdfrwt>
<totfact> 0.48475326E-04</totfact>
</mgrwt>
<clustering>
<clus scale="   32.603">  1  6  2 -1</clus>
<clus scale="  470.948">  4  5 -1 -1</clus>
<clus scale="  300.000">  1  4  2 -1</clus>
</clustering>
</event>
<event>
 6    1  0.1033679E-011  0.3000000E+03  0.7818608E-02  0.1093470E+00
          1   -1    0    0  502    0  0.00000000000E+00  0.00000000000E+00  0.23312600296E+03  0.23312600296E+03  0.00000000000E+00 0.  1.
         13   -1    0    0    0    0 -0.00000000000E+00 -0.00000000000E+00 -0.27500000000E+03  0.27500000000E+03  0.00000000000E+00 0.  1.
    9000005    2    1    2  501    0  0.14091433214E+02  0.27457069260E+02 -0.69951306950E+02  0.46640317379E+03  0.46009376874E+03 0.  0.
         13    1    3    3    0    0  0.17099711949E+03 -0.12486511891E+03 -0.11815762983E+03  0.24247172677E+03  0.00000000000E+00 0.  1.
          1    1    3    3  501    0 -0.15690568628E+03  0.15232218817E+03  0.48206322883E+02  0.22393144702E+03  0.00000000000E+00 0.  1.
         21    1    1    2  502  501 -0.14091433214E+02 -0.27457069260E+02  0.28077309910E+02  0.41722829172E+02  0.00000000000E+00 0. -1.
<scales pt_clust_4="550.00000" pt_clust_5="550.00000" pt_clust_6="30.86194"></scales>
<mgrwt>
<rscale>  0 0.30000000E+03</rscale>
<asrwt>  1 0.30861937E+02</asrwt>
<pdfrwt beam="1">  1        1 0.84773092E+00 0.30000000E+03</pdfrwt>
<pdfrwt beam="2">0</pdfrwt>
<totfact> 0.43744056E-04</totfact>
</mgrwt>
<clustering>
<clus scale="   30.862">  1  6  2 -1</clus>
<clus scale="  460.094">  4  5 -1 -1</clus>
<clus scale="  300.000">  1  4  2 -1</clus>
</clustering>
</event>
<event>
 6    1  0.1033679E-011  0.3000000E+03  0.7818608E-02  0.1093470E+00
          1   -1    0    0  502    0  0.00000000000E+00  0.00000000000E+00  0.23378097524E+03  0.23378097524E+03  0.00000000000E+00 0.  1.
         13   -1    0    0    0    0 -0.00000000000E+00 -0.00000000000E+00 -0.27500000000E+03  0.27500000000E+03  0.00000000000E+00 0.  1.
    9000005    2    1    2  501    0  0.28117382945E+02  0.22234977984E+02 -0.56089873817E+02  0.46997216669E+03  0.46523411531E+03 0.  0.
         13    1    3    3    0    0  0.27344091631E+02  0.24285332028E+03 -0.48919751085E+02  0.24923598570E+03  0.00000000000E+00 0.  1.
          1    1    3    3  501    0  0.77329131379E+00 -0.22061834230E+03 -0.71701227326E+01  0.22073618099E+03  0.00000000000E+00 0.  1.
         21    1    1    2  502  501 -0.28117382945E+02 -0.22234977984E+02  0.14870849058E+02  0.38808808553E+02  0.00000000000E+00 0. -1.
<scales pt_clust_4="550.00000" pt_clust_5="550.00000" pt_clust_6="35.84664"></scales>
<mgrwt>
<rscale>  0 0.30000000E+03</rscale>
<asrwt>  1 0.35846638E+02</asrwt>
<pdfrwt beam="1">  1        1 0.85011264E+00 0.30000000E+03</pdfrwt>
<pdfrwt beam="2">0</pdfrwt>
<totfact> 0.40419013E-04</totfact>
</mgrwt>
<clustering>
<clus scale="   35.847">  1  6  2 -1</clus>
<clus scale="  465.234">  4  5 -1 -1</clus>
<clus scale="  300.000">  1  4  2 -1</clus>
</clustering>
</event>
<event>
 6    1  0.1033679E-011  0.3000000E+03  0.7818608E-02  0.1093470E+00
          1   -1    0    0  502    0  0.00000000000E+00  0.00000000000E+00  0.24852596882E+03  0.24852596882E+03  0.00000000000E+00 0.  1.
         13   -1    0    0    0    0 -0.00000000000E+00 -0.00000000000E+00 -0.27500000000E+03  0.27500000000E+03  0.00000000000E+00 0.  1.
    9000005    2    1    2  501    0 -0.36113491823E+01  0.39380764007E+02 -0.53557176620E+02  0.47559494355E+03  0.47091219218E+03 0.  0.
         13    1    3    3    0    0 -0.19545969202E+03  0.15279039970E+03 -0.85817709746E+01  0.24823989252E+03  0.00000000000E+00 0.  1.
          3    1    3    3  501    0  0.19184834284E+03 -0.11340963569E+03 -0.44975405646E+02  0.22735505103E+03  0.00000000000E+00 0.  1.
         21    1    1    2  502  501  0.36113491823E+01 -0.39380764007E+02  0.27083145444E+02  0.47931025274E+02  0.00000000000E+00 0. -1.
<scales pt_clust_4="550.00000" pt_clust_5="550.00000" pt_clust_6="39.54600"></scales>
<mgrwt>
<rscale>  0 0.30000000E+03</rscale>
<asrwt>  1 0.39546004E+02</asrwt>
<pdfrwt beam="1">  1        1 0.90373080E+00 0.30000000E+03</pdfrwt>
<pdfrwt beam="2">0</pdfrwt>
<totfact> 0.95284687E-05</totfact>
</mgrwt>
<clustering>
<clus scale="   39.546">  1  6  2 -1</clus>
<clus scale="  470.912">  4  5 -1 -1</clus>
<clus scale="  300.000">  1  4  2 -1</clus>
</clustering>
</event>
<event>
 6    1  0.1033679E-011  0.3000000E+03  0.7818608E-02  0.1093470E+00
          1   -1    0    0  502    0  0.00000000000E+00  0.00000000000E+00  0.23177613891E+03  0.23177613891E+03  0.00000000000E+00 0.  1.
         13   -1    0    0    0    0 -0.00000000000E+00 -0.00000000000E+00 -0.27500000000E+03  0.27500000000E+03  0.00000000000E+00 0.  1.
    9000005    2    1    2  501    0  0.14741992810E+01  0.39835002045E+02 -0.38447696805E+02  0.46662875548E+03  0.46333051853E+03 0.  0.
         13    1    3    3    0    0 -0.14589499158E+03 -0.15982605669E+03 -0.73094249203E+01  0.21652515941E+03  0.00000000000E+00 0.  1.
          1    1    3    3  501    0  0.14736919086E+03  0.19966105874E+03 -0.31138271885E+02  0.25010359607E+03  0.00000000000E+00 0.  1.
         21    1    1    2  502  501 -0.14741992810E+01 -0.39835002045E+02 -0.47761642810E+01  0.40147383435E+02  0.00000000000E+00 0.  1.
<scales pt_clust_4="550.00000" pt_clust_5="550.00000" pt_clust_6="39.86229"></scales>
<mgrwt>
<rscale>  0 0.30000000E+03</rscale>
<asrwt>  1 0.39862291E+02</asrwt>
<pdfrwt beam="1">  1        1 0.84282232E+00 0.30000000E+03</pdfrwt>
<pdfrwt beam="2">0</pdfrwt>
<totfact> 0.46046140E-04</totfact>
</mgrwt>
<clustering>
<clus scale="   39.862">  1  6  2 -1</clus>
<clus scale="  463.331">  4  5 -1 -1</clus>
<clus scale="  300.000">  1  4  2 -1</clus>
</clustering>
</event>
<event>
 6    1  0.1033679E-011  0.3000000E+03  0.7818608E-02  0.1093470E+00
          1   -1    0    0  502    0  0.00000000000E+00  0.00000000000E+00  0.24279430134E+03  0.24279430134E+03  0.00000000000E+00 0.  1.
         13   -1    0    0    0    0 -0.00000000000E+00 -0.00000000000E+00 -0.27500000000E+03  0.27500000000E+03  0.00000000000E+00 0.  1.
    9000005    2    1    2  501    0  0.79083455887E+01 -0.37677304261E+02 -0.68520760640E+02  0.46487072519E+03  0.45817854086E+03 0.  0.
         13    1    3    3    0    0 -0.12623716964E+03 -0.10932717516E+03  0.13223631359E+03  0.21301337249E+03  0.00000000000E+00 0.  1.
          3    1    3    3  501    0  0.13414551523E+03  0.71649870895E+02 -0.20075707423E+03  0.25185735270E+03  0.00000000000E+00 0.  1.
         21    1    1    2  502  501 -0.79083455887E+01  0.37677304261E+02  0.36315061976E+02  0.52923576152E+02  0.00000000000E+00 0. -1.
<scales pt_clust_4="550.00000" pt_clust_5="550.00000" pt_clust_6="38.49833"></scales>
<mgrwt>
<rscale>  0 0.30000000E+03</rscale>
<asrwt>  1 0.38498327E+02</asrwt>
<pdfrwt beam="1">  1        1 0.88288837E+00 0.30000000E+03</pdfrwt>
<pdfrwt beam="2">0</pdfrwt>
<totfact> 0.17805801E-04</totfact>
</mgrwt>
<clustering>
<clus scale="   38.498">  1  6  2 -1</clus>
<clus scale="  458.179">  4  5 -1 -1</clus>
<clus scale="  300.000">  1  4  2 -1</clus>
</clustering>
</event>
<event>
 6    1  0.1033679E-011  0.3000000E+03  0.7818608E-02  0.1093470E+00
          1   -1    0    0  502    0  0.00000000000E+00  0.00000000000E+00  0.23816849813E+03  0.23816849813E+03  0.00000000000E+00 0.  1.
         13   -1    0    0    0    0 -0.00000000000E+00 -0.00000000000E+00 -0.27500000000E+03  0.27500000000E+03  0.00000000000E+00 0.  1.
    9000005    2    1    2  501    0 -0.12191068531E+02 -0.47150133247E+02 -0.32216162265E+02  0.46424960018E+03  0.46056275679E+03 0.  0.
         13    1    3    3    0    0  0.55209704641E+02 -0.21798780536E+03 -0.12628758267E+03  0.25790569654E+03  0.00000000000E+00 0.  1.
          3    1    3    3  501    0 -0.67400773172E+02  0.17083767211E+03  0.94071420402E+02  0.20634390365E+03  0.00000000000E+00 0.  1.
         21    1    1    2  502  501  0.12191068531E+02  0.47150133247E+02 -0.46153396010E+01  0.48918897952E+02  0.00000000000E+00 0.  1.
<scales pt_clust_4="550.00000" pt_clust_5="550.00000" pt_clust_6="48.70071"></scales>
<mgrwt>
<rscale>  0 0.30000000E+03</rscale>
<asrwt>  1 0.48700714E+02</asrwt>
<pdfrwt beam="1">  1        1 0.86606727E+00 0.30000000E+03</pdfrwt>
<pdfrwt beam="2">0</pdfrwt>
<totfact> 0.26208245E-04</totfact>
</mgrwt>
<clustering>
<clus scale="   48.701">  1  6  2 -1</clus>
<clus scale="  460.563">  4  5 -1 -1</clus>
<clus scale="  300.000">  1  4  2 -1</clus>
</clustering>
</event>
<event>
 6    1  0.1033679E-011  0.3000000E+03  0.7818608E-02  0.1093470E+00
          1   -1    0    0  502    0  0.00000000000E+00  0.00000000000E+00  0.22736759003E+03  0.22736759003E+03  0.00000000000E+00 0.  1.
         13   -1    0    0    0    0 -0.00000000000E+00 -0.00000000000E+00 -0.27500000000E+03  0.27500000000E+03  0.00000000000E+00 0.  1.
    9000005    2    1    2  501    0  0.30032841803E+02  0.13158956420E+02 -0.63816218495E+02  0.46580195891E+03  0.46024322424E+03 0.  0.
         13    1    3    3    0    0 -0.56044658478E+02  0.20571662018E+03  0.59650198340E+02  0.22140116920E+03  0.00000000000E+00 0.  1.
          3    1    3    3  501    0  0.86077500280E+02 -0.19255766376E+03 -0.12346641683E+03  0.24440078971E+03  0.00000000000E+00 0.  1.
         21    1    1    2  502  501 -0.30032841803E+02 -0.13158956420E+02  0.16183808527E+02  0.36565631121E+02  0.00000000000E+00 0.  1.
<scales pt_clust_4="550.00000" pt_clust_5="550.00000" pt_clust_6="32.78917"></scales>
<mgrwt>
<rscale>  0 0.30000000E+03</rscale>
<asrwt>  1 0.32789171E+02</asrwt>
<pdfrwt beam="1">  1        1 0.82679124E+00 0.30000000E+03</pdfrwt>
<pdfrwt beam="2">0</pdfrwt>
<totfact> 0.63746101E-04</totfact>
</mgrwt>
<clustering>
<clus scale="   32.789">  1  6  2 -1</clus>
<clus scale="  460.243">  4  5 -1 -1</clus>
<clus scale="  300.000">  1  4  2 -1</clus>
</clustering>
</event>
<event>
 6    1  0.1033679E-011  0.3000000E+03  0.7818608E-02  0.1093470E+00
          1   -1    0    0  502    0  0.00000000000E+00  0.00000000000E+00  0.25440711895E+03  0.25440711895E+03  0.00000000000E+00 0.  1.
         13   -1    0    0    0    0 -0.00000000000E+00 -0.00000000000E+00 -0.27500000000E+03  0.27500000000E+03  0.00000000000E+00 0.  1.
    9000005    2    1    2  501    0  0.30967050803E+02  0.27629156458E+01 -0.23607494694E+02  0.49817124481E+03  0.49663938971E+03 0.  0.
         13    1    3    3    0    0  0.12344283256E+03  0.27830131241E+02 -0.23453930168E+03  0.26649827982E+03  0.00000000000E+00 0.  1.
          1    1    3    3  501    0 -0.92475781754E+02 -0.25067215595E+02  0.21093180698E+03  0.23167296499E+03  0.00000000000E+00 0.  1.
         21    1    1    2  502  501 -0.30967050803E+02 -0.27629156458E+01  0.30146136491E+01  0.31235874148E+02  0.00000000000E+00 0.  1.
<scales pt_clust_4="550.00000" pt_clust_5="550.00000" pt_clust_6="31.09006"></scales>
<mgrwt>
<rscale>  0 0.30000000E+03</rscale>
<asrwt>  1 0.31090062E+02</asrwt>
<pdfrwt beam="1">  1        1 0.92511680E+00 0.30000000E+03</pdfrwt>
<pdfrwt beam="2">0</pdfrwt>
<totfact> 0.33351678E-05</totfact>
</mgrwt>
<clustering>
<clus scale="   31.090">  1  6  2 -1</clus>
<clus scale="  496.639">  4  5 -1 -1</clus>
<clus scale="  300.000">  1  4  2 -1</clus>
</clustering>
</event>
<event>
 6    1  0.1033679E-011  0.3000000E+03  0.7818608E-02  0.1093470E+00
          1   -1    0    0  502    0  0.00000000000E+00  0.00000000000E+00  0.23236255421E+03  0.23236255421E+03  0.00000000000E+00 0.  1.
         13   -1    0    0    0    0 -0.00000000000E+00 -0.00000000000E+00 -0.27500000000E+03  0.27500000000E+03  0.00000000000E+00 0.  1.
    9000005    2    1    2  501    0 -0.17801126068E+02  0.26759662142E+02 -0.42209542495E+02  0.47522001684E+03  0.47224936138E+03 0.  0.
         13    1    3    3    0    0 -0.19638850637E+03  0.10715934871E+03  0.87594608506E+02  0.24025899960E+03  0.00000000000E+00 0.  1.
          1    1    3    3  501    0  0.17858738031E+03 -0.80399686566E+02 -0.12980415100E+03  0.23496101724E+03  0.00000000000E+00 0.  1.
         21    1    1    2  502  501  0.17801126068E+02 -0.26759662142E+02 -0.42790329531E+00  0.32142537368E+02  0.00000000000E+00 0. -1.
<scales pt_clust_4="550.00000" pt_clust_5="550.00000" pt_clust_6="32.13969"></scales>
<mgrwt>
<rscale>  0 0.30000000E+03</rscale>
<asrwt>  1 0.32139689E+02</asrwt>
<pdfrwt beam="1">  1        1 0.84495474E+00 0.30000000E+03</pdfrwt>
<pdfrwt beam="2">0</pdfrwt>
<totfact> 0.45956270E-04</totfact>
</mgrwt>
<clustering>
<clus scale="   32.140">  1  6  2 -1</clus>
<clus scale="  472.249">  4  5 -1 -1</clus>
<clus scale="  300.000">  1  4  2 -1</clus>
</clustering>
</event>
<event>
 6    1  0.1033679E-011  0.3000000E+03  0.7818608E-02  0.1093470E+00
          1   -1    0    0  502    0  0.00000000000E+00  0.00000000000E+00  0.22339244556E+03  0.22339244556E+03  0.00000000000E+00 0.  1.
         13   -1    0    0    0    0 -0.00000000000E+00 -0.00000000000E+00 -0.27500000000E+03  0.27500000000E+03  0.00000000000E+00 0.  1.
    9000005    2    1    2  501    0 -0.33501568415E+02  0.80706386123E+01 -0.50953187538E+02  0.46392625212E+03  0.45983024019E+03 0.  0.
         13    1    3    3    0    0 -0.20811862120E+03 -0.11871218129E+03  0.96462801954E+01  0.23978947683E+03  0.00000000000E+00 0.  1.
          1    1    3    3  501    0  0.17461705279E+03  0.12678281990E+03 -0.60599467733E+02  0.22413677529E+03  0.00000000000E+00 0.  1.
         21    1    1    2  502  501  0.33501568415E+02 -0.80706386123E+01 -0.65436690549E+00  0.34466193435E+02  0.00000000000E+00 0.  1.
<scales pt_clust_4="550.00000" pt_clust_5="550.00000" pt_clust_6="34.45998"></scales>
<mgrwt>
<rscale>  0 0.30000000E+03</rscale>
<asrwt>  1 0.34459981E+02</asrwt>
<pdfrwt beam="1">  1        1 0.81233617E+00 0.30000000E+03</pdfrwt>
<pdfrwt beam="2">0</pdfrwt>
<totfact> 0.83850080E-04</totfact>
</mgrwt>
<clustering>
<clus scale="   34.460">  1  6  2 -1</clus>
<clus scale="  459.830">  4  5 -1 -1</clus>
<clus scale="  300.000">  1  4  2 -1</clus>
</clustering>
</event>
<event>
 6    1  0.1033679E-011  0.3000000E+03  0.7818608E-02  0.1093470E+00
          1   -1    0    0  502    0  0.00000000000E+00  0.00000000000E+00  0.23097359729E+03  0.23097359729E+03  0.00000000000E+00 0.  1.
         13   -1    0    0    0    0 -0.00000000000E+00 -0.00000000000E+00 -0.27500000000E+03  0.27500000000E+03  0.00000000000E+00 0.  1.
    9000005    2    1    2  501    0  0.58986967537E+01  0.32563871791E+02 -0.62390340454E+02  0.46812607982E+03  0.46276805384E+03 0.  0.
         13    1    3    3    0    0 -0.35525426306E+02 -0.19651328183E+03 -0.11362668362E+03  0.22976194001E+03  0.00000000000E+00 0.  1.
          1    1    3    3  501    0  0.41424123060E+02  0.22907715362E+03  0.51236343163E+02  0.23836413980E+03  0.00000000000E+00 0.  1.
         21    1    1    2  502  501 -0.58986967537E+01 -0.32563871791E+02  0.18363937742E+02  0.37847517473E+02  0.00000000000E+00 0. -1.
<scales pt_clust_4="550.00000" pt_clust_5="550.00000" pt_clust_6="33.09381"></scales>
<mgrwt>
<rscale>  0 0.30000000E+03</rscale>
<asrwt>  1 0.33093812E+02</asrwt>
<pdfrwt beam="1">  1        1 0.83990399E+00 0.30000000E+03</pdfrwt>
<pdfrwt beam="2">0</pdfrwt>
<totfact> 0.50315454E-04</totfact>
</mgrwt>
<clustering>
<clus scale="   33.094">  1  6  2 -1</clus>
<clus scale="  462.768">  4  5 -1 -1</clus>
<clus scale="  300.000">  1  4  2 -1</clus>
</clustering>
</event>
<event>
 6    1  0.1033679E-011  0.3000000E+03  0.7818608E-02  0.1093470E+00
          1   -1    0    0  502    0  0.00000000000E+00  0.00000000000E+00  0.23512828599E+03  0.23512828599E+03  0.00000000000E+00 0.  1.
         13   -1    0    0    0    0 -0.00000000000E+00 -0.00000000000E+00 -0.27500000000E+03  0.27500000000E+03  0.00000000000E+00 0.  1.
    9000005    2    1    2  501    0 -0.93478506472E+01 -0.30105961136E+02 -0.37880397946E+02  0.47854163458E+03  0.47599729020E+03 0.  0.
         13    1    3    3    0    0 -0.11132654429E+03  0.19632014484E+03  0.88055396217E+01  0.22585999261E+03  0.00000000000E+00 0.  1.
          1    1    3    3  501    0  0.10197869364E+03 -0.22642610598E+03 -0.46685937567E+02  0.25268164197E+03  0.00000000000E+00 0.  1.
         21    1    1    2  502  501  0.93478506472E+01  0.30105961136E+02 -0.19913160604E+01  0.31586651410E+02  0.00000000000E+00 0.  1.
<scales pt_clust_4="550.00000" pt_clust_5="550.00000" pt_clust_6="31.52382"></scales>
<mgrwt>
<rscale>  0 0.30000000E+03</rscale>
<asrwt>  1 0.31523820E+02</asrwt>
<pdfrwt beam="1">  1        1 0.85501195E+00 0.30000000E+03</pdfrwt>
<pdfrwt beam="2">0</pdfrwt>
<totfact> 0.37150452E-04</totfact>
</mgrwt>
<clustering>
<clus scale="   31.524">  1  6  2 -1</clus>
<clus scale="  475.997">  4  5 -1 -1</clus>
<clus scale="  300.000">  1  4  2 -1</clus>
</clustering>
</event>
<event>
 6    1  0.1033679E-011  0.3000000E+03  0.7818608E-02  0.1093470E+00
          1   -1    0    0  502    0  0.00000000000E+00  0.00000000000E+00  0.22926007812E+03  0.22926007812E+03  0.00000000000E+00 0.  1.
         13   -1    0    0    0    0 -0.00000000000E+00 -0.00000000000E+00 -0.27500000000E+03  0.27500000000E+03  0.00000000000E+00 0.  1.
    9000005    2    1    2  501    0 -0.36462656502E+02  0.17104041264E+01 -0.34292214952E+02  0.46600434920E+03  0.46330513343E+03 0.  0.
         13    1    3    3    0    0  0.30006006723E+02  0.18065816404E+03  0.12136034187E+03  0.21969539196E+03  0.00000000000E+00 0.  1.
          3    1    3    3  501    0 -0.66468663225E+02 -0.17894775991E+03 -0.15565255682E+03  0.24630895723E+03  0.00000000000E+00 0.  1.
         21    1    1    2  502  501  0.36462656502E+02 -0.17104041264E+01 -0.11447706930E+02  0.38255728922E+02  0.00000000000E+00 0. -1.
<scales pt_clust_4="550.00000" pt_clust_5="550.00000" pt_clust_6="36.50277"></scales>
<mgrwt>
<rscale>  0 0.30000000E+03</rscale>
<asrwt>  1 0.36502769E+02</asrwt>
<pdfrwt beam="1">  1        1 0.83367301E+00 0.30000000E+03</pdfrwt>
<pdfrwt beam="2">0</pdfrwt>
<totfact> 0.54898002E-04</totfact>
</mgrwt>
<clustering>
<clus scale="   36.503">  1  6  2 -1</clus>
<clus scale="  463.305">  4  5 -1 -1</clus>
<clus scale="  300.000">  1  4  2 -1</clus>
</clustering>
</event>
<event>
 6    1  0.1033679E-011  0.3000000E+03  0.7818608E-02  0.1093470E+00
          1   -1    0    0  502    0  0.00000000000E+00  0.00000000000E+00  0.22279304926E+03  0.22279304926E+03  0.00000000000E+00 0.  1.
         13   -1    0    0    0    0 -0.00000000000E+00 -0.00000000000E+00 -0.27500000000E+03  0.27500000000E+03  0.00000000000E+00 0.  1.
    9000005    2    1    2  501    0  0.47800393906E+01  0.32450502240E+02 -0.49368260355E+02  0.46486977428E+03  0.46107569665E+03 0.  0.
         13    1    3    3    0    0  0.19131949232E+03  0.12942346396E+03 -0.94962754962E+02  0.24974287977E+03  0.00000000000E+00 0.  1.
          3    1    3    3  501    0 -0.18653945293E+03 -0.96972961722E+02  0.45594494606E+02  0.21512689451E+03  0.00000000000E+00 0.  1.
         21    1    1    2  502  501 -0.47800393906E+01 -0.32450502240E+02 -0.28386903823E+01  0.32923274978E+02  0.00000000000E+00 0. -1.
<scales pt_clust_4="550.00000" pt_clust_5="550.00000" pt_clust_6="32.80067"></scales>
<mgrwt>
<rscale>  0 0.30000000E+03</rscale>
<asrwt>  1 0.32800669E+02</asrwt>
<pdfrwt beam="1">  1        1 0.81015654E+00 0.30000000E+03</pdfrwt>
<pdfrwt beam="2">0</pdfrwt>
<totfact> 0.88038199E-04</totfact>
</mgrwt>
<clustering>
<clus scale="   32.801">  1  6  2 -1</clus>
<clus scale="  461.076">  4  5 -1 -1</clus>
<clus scale="  300.000">  1  4  2 -1</clus>
</clustering>
</event>
<event>
 6    1  0.1033679E-011  0.3000000E+03  0.7818608E-02  0.1093470E+00
          1   -1    0    0  502    0  0.00000000000E+00  0.00000000000E+00  0.23476864105E+03  0.23476864105E+03  0.00000000000E+00 0.  1.
         13   -1    0    0    0    0 -0.00000000000E+00 -0.00000000000E+00 -0.27500000000E+03  0.27500000000E+03  0.00000000000E+00 0.  1.
    9000005    2    1    2  501    0 -0.32041743337E+02 -0.21177106248E+02 -0.52374142640E+02  0.46948725154E+03  0.46497320933E+03 0.  0.
         13    1    3    3    0    0  0.15063857408E+02 -0.23118964301E+03 -0.94432103870E+02  0.25018591702E+03  0.00000000000E+00 0.  1.
          3    1    3    3  501    0 -0.47105600744E+02  0.21001253676E+03  0.42057961230E+02  0.21930133452E+03  0.00000000000E+00 0.  1.
         21    1    1    2  502  501  0.32041743337E+02  0.21177106248E+02  0.12142783692E+02  0.40281389510E+02  0.00000000000E+00 0.  1.
<scales pt_clust_4="550.00000" pt_clust_5="550.00000" pt_clust_6="38.40759"></scales>
<mgrwt>
<rscale>  0 0.30000000E+03</rscale>
<asrwt>  1 0.38407592E+02</asrwt>
<pdfrwt beam="1">  1        1 0.85370415E+00 0.30000000E+03</pdfrwt>
<pdfrwt beam="2">0</pdfrwt>
<totfact> 0.36872682E-04</totfact>
</mgrwt>
<clustering>
<clus scale="   38.408">  1  6  2 -1</clus>
<clus scale="  464.973">  4  5 -1 -1</clus>
<clus scale="  300.000">  1  4  2 -1</clus>
</clustering>
</event>
<event>
 6    1  0.1033679E-011  0.3000000E+03  0.7818608E-02  0.1093470E+00
          1   -1    0    0  502    0  0.00000000000E+00  0.00000000000E+00  0.26085835391E+03  0.26085835391E+03  0.00000000000E+00 0.  1.
         13   -1    0    0    0    0 -0.00000000000E+00 -0.00000000000E+00 -0.27500000000E+03  0.27500000000E+03  0.00000000000E+00 0.  1.
    9000005    2    1    2  501    0 -0.10223173600E+02  0.33876087801E+02 -0.37398031717E+02  0.49351497101E+03  0.49082207696E+03 0.  0.
         13    1    3    3    0    0 -0.11613777490E+03  0.23609732578E+03 -0.68869964678E+01  0.26320592835E+03  0.00000000000E+00 0.  1.
          1    1    3    3  501    0  0.10591460130E+03 -0.20222123798E+03 -0.30511035250E+02  0.23030904266E+03  0.00000000000E+00 0.  1.
         21    1    1    2  502  501  0.10223173600E+02 -0.33876087801E+02  0.23256385629E+02  0.42343382903E+02  0.00000000000E+00 0.  1.
<scales pt_clust_4="550.00000" pt_clust_5="550.00000" pt_clust_6="35.38506"></scales>
<mgrwt>
<rscale>  0 0.30000000E+03</rscale>
<asrwt>  1 0.35385062E+02</asrwt>
<pdfrwt beam="1">  1        1 0.94857583E+00 0.30000000E+03</pdfrwt>
<pdfrwt beam="2">0</pdfrwt>
<totfact> 0.13168334E-05</totfact>
</mgrwt>
<clustering>
<clus scale="   35.385">  1  6  2 -1</clus>
<clus scale="  490.822">  4  5 -1 -1</clus>
<clus scale="  300.000">  1  4  2 -1</clus>
</clustering>
</event>
<event>
 6    1  0.1033679E-011  0.3000000E+03  0.7818608E-02  0.1093470E+00
          1   -1    0    0  502    0  0.00000000000E+00  0.00000000000E+00  0.23825405019E+03  0.23825405019E+03  0.00000000000E+00 0.  1.
         13   -1    0    0    0    0 -0.00000000000E+00 -0.00000000000E+00 -0.27500000000E+03  0.27500000000E+03  0.00000000000E+00 0.  1.
    9000005    2    1    2  501    0 -0.46218058407E+02  0.28585380502E+00 -0.52781595151E+02  0.46433235197E+03  0.45900157480E+03 0.  0.
         13    1    3    3    0    0  0.58595941519E+02 -0.18190596032E+03  0.88975146632E+02  0.21080758877E+03  0.00000000000E+00 0.  1.
          3    1    3    3  501    0 -0.10481399993E+03  0.18219181413E+03 -0.14175674178E+03  0.25352476320E+03  0.00000000000E+00 0.  1.
         21    1    1    2  502  501  0.46218058407E+02 -0.28585380502E+00  0.16035645343E+02  0.48921698222E+02  0.00000000000E+00 0. -1.
<scales pt_clust_4="550.00000" pt_clust_5="550.00000" pt_clust_6="46.21894"></scales>
<mgrwt>
<rscale>  0 0.30000000E+03</rscale>
<asrwt>  1 0.46218942E+02</asrwt>
<pdfrwt beam="1">  1        1 0.86637836E+00 0.30000000E+03</pdfrwt>
<pdfrwt beam="2">0</pdfrwt>
<totfact> 0.26251057E-04</totfact>
</mgrwt>
<clustering>
<clus scale="   46.219">  1  6  2 -1</clus>
<clus scale="  459.002">  4  5 -1 -1</clus>
<clus scale="  300.000">  1  4  2 -1</clus>
</clustering>
</event>
<event>
 6    1  0.1033679E-011  0.3000000E+03  0.7818608E-02  0.1093470E+00
          1   -1    0    0  502    0  0.00000000000E+00  0.00000000000E+00  0.22163685049E+03  0.22163685049E+03  0.00000000000E+00 0.  1.
         13   -1    0    0    0    0 -0.00000000000E+00 -0.00000000000E+00 -0.27500000000E+03  0.27500000000E+03  0.00000000000E+00 0.  1.
    9000005    2    1    2  501    0 -0.91730076413E+01  0.28849203209E+02 -0.60709259374E+02  0.46548583245E+03  0.46051604255E+03 0.  0.
         13    1    3    3    0    0  0.83480962699E+02 -0.19836127940E+03 -0.13702759957E+02  0.21564793978E+03  0.00000000000E+00 0.  1.
          1    1    3    3  501    0 -0.92653970340E+02  0.22721048261E+03 -0.47006499417E+02  0.24983789267E+03  0.00000000000E+00 0.  1.
         21    1    1    2  502  501  0.91730076413E+01 -0.28849203209E+02  0.73461098658E+01  0.31151018043E+02  0.00000000000E+00 0. -1.
<scales pt_clust_4="550.00000" pt_clust_5="550.00000" pt_clust_6="30.27244"></scales>
<mgrwt>
<rscale>  0 0.30000000E+03</rscale>
<asrwt>  1 0.30272440E+02</asrwt>
<pdfrwt beam="1">  1        1 0.80595218E+00 0.30000000E+03</pdfrwt>
<pdfrwt beam="2">0</pdfrwt>
<totfact> 0.96330919E-04</totfact>
</mgrwt>
<clustering>
<clus scale="   30.272">  1  6  2 -1</clus>
<clus scale="  460.516">  4  5 -1 -1</clus>
<clus scale="  300.000">  1  4  2 -1</clus>
</clustering>
</event>
<event>
 6    1  0.1033679E-011  0.3000000E+03  0.7818608E-02  0.1093470E+00
          1   -1    0    0  502    0  0.00000000000E+00  0.00000000000E+00  0.22933661317E+03  0.22933661317E+03  0.00000000000E+00 0.  1.
         13   -1    0    0    0    0 -0.00000000000E+00 -0.00000000000E+00 -0.27500000000E+03  0.27500000000E+03  0.00000000000E+00 0.  1.
    9000005    2    1    2  501    0  0.29737943115E+02  0.16025803986E+02 -0.48497102804E+02  0.47043673706E+03  0.46670931310E+03 0.  0.
         13    1    3    3    0    0  0.75018100052E+02  0.59938807095E+02  0.19582677015E+03  0.21810203997E+03  0.00000000000E+00 0.  1.
          3    1    3    3  501    0 -0.45280156937E+02 -0.43913003109E+02 -0.24432387296E+03  0.25233469708E+03  0.00000000000E+00 0.  1.
         21    1    1    2  502  501 -0.29737943115E+02 -0.16025803986E+02  0.28337159708E+01  0.33899876110E+02  0.00000000000E+00 0.  1.
<scales pt_clust_4="550.00000" pt_clust_5="550.00000" pt_clust_6="33.78123"></scales>
<mgrwt>
<rscale>  0 0.30000000E+03</rscale>
<asrwt>  1 0.33781232E+02</asrwt>
<pdfrwt beam="1">  1        1 0.83395132E+00 0.30000000E+03</pdfrwt>
<pdfrwt beam="2">0</pdfrwt>
<totfact> 0.55434696E-04</totfact>
</mgrwt>
<clustering>
<clus scale="   33.781">  1  6  2 -1</clus>
<clus scale="  466.709">  4  5 -1 -1</clus>
<clus scale="  300.000">  1  4  2 -1</clus>
</clustering>
</event>
<event>
 6    1  0.1033679E-011  0.3000000E+03  0.7818608E-02  0.1093470E+00
          1   -1    0    0  502    0  0.00000000000E+00  0.00000000000E+00  0.24390771804E+03  0.24390771804E+03  0.00000000000E+00 0.  1.
         13   -1    0    0    0    0 -0.00000000000E+00 -0.00000000000E+00 -0.27500000000E+03  0.27500000000E+03  0.00000000000E+00 0.  1.
    9000005    2    1    2  501    0 -0.29230868386E+02 -0.23695949781E+02 -0.34079947553E+02  0.48116029630E+03  0.47847449902E+03 0.  0.
         13    1    3    3    0    0 -0.48679153829E+02  0.37772596974E+02  0.21511244677E+03  0.22376280713E+03  0.00000000000E+00 0.  1.
          3    1    3    3  501    0  0.19448285443E+02 -0.61468546755E+02 -0.24919239432E+03  0.25739748917E+03  0.00000000000E+00 0.  1.
         21    1    1    2  502  501  0.29230868386E+02  0.23695949781E+02  0.29876655977E+01  0.37747421744E+02  0.00000000000E+00 0.  1.
<scales pt_clust_4="550.00000" pt_clust_5="550.00000" pt_clust_6="37.62900"></scales>
<mgrwt>
<rscale>  0 0.30000000E+03</rscale>
<asrwt>  1 0.37629001E+02</asrwt>
<pdfrwt beam="1">  1        1 0.88693716E+00 0.30000000E+03</pdfrwt>
<pdfrwt beam="2">0</pdfrwt>
<totfact> 0.15745679E-04</totfact>
</mgrwt>
<clustering>
<clus scale="   37.629">  1  6  2 -1</clus>
<clus scale="  478.474">  4  5 -1 -1</clus>
<clus scale="  300.000">  1  4  2 -1</clus>
</clustering>
</event>
<event>
 6    1  0.1033679E-011  0.3000000E+03  0.7818608E-02  0.1093470E+00
          1   -1    0    0  502    0  0.00000000000E+00  0.00000000000E+00  0.24824714088E+03  0.24824714088E+03  0.00000000000E+00 0.  1.
         13   -1    0    0    0    0 -0.00000000000E+00 -0.00000000000E+00 -0.27500000000E+03  0.27500000000E+03  0.00000000000E+00 0.  1.
    9000005    2    1    2  501    0  0.26397514058E+02 -0.14575580465E+02 -0.35208386153E+02  0.49192985761E+03  0.48974082743E+03 0.  0.
         13    1    3    3    0    0  0.40089857132E+02  0.21817758641E+03  0.74830916617E+02  0.23411177232E+03  0.00000000000E+00 0.  1.
          1    1    3    3  501    0 -0.13692343073E+02 -0.23275316687E+03 -0.11003930277E+03  0.25781808529E+03  0.00000000000E+00 0.  1.
         21    1    1    2  502  501 -0.26397514058E+02  0.14575580465E+02  0.84555270337E+01  0.31317283275E+02  0.00000000000E+00 0.  1.
<scales pt_clust_4="550.00000" pt_clust_5="550.00000" pt_clust_6="30.15421"></scales>
<mgrwt>
<rscale>  0 0.30000000E+03</rscale>
<asrwt>  1 0.30154209E+02</asrwt>
<pdfrwt beam="1">  1        1 0.90271688E+00 0.30000000E+03</pdfrwt>
<pdfrwt beam="2">0</pdfrwt>
<totfact> 0.10415230E-04</totfact>
</mgrwt>
<clustering>
<clus scale="   30.154">  1  6  2 -1</clus>
<clus scale="  489.741">  4  5 -1 -1</clus>
<clus scale="  300.000">  1  4  2 -1</clus>
</clustering>
</event>
<event>
 6    1  0.1033679E-011  0.3000000E+03  0.7818608E-02  0.1093470E+00
          1   -1    0    0  502    0  0.00000000000E+00  0.00000000000E+00  0.24563360573E+03  0.24563360573E+03  0.00000000000E+00 0.  1.
         13   -1    0    0    0    0 -0.00000000000E+00 -0.00000000000E+00 -0.27500000000E+03  0.27500000000E+03  0.00000000000E+00 0.  1.
    9000005    2    1    2  501    0  0.34216713322E+02 -0.47310390985E+02 -0.30810102236E+02  0.46222863284E+03  0.45748987972E+03 0.  0.
         13    1    3    3    0    0 -0.19258746590E+03 -0.98070304963E+02 -0.68633759656E+02  0.22675605770E+03  0.00000000000E+00 0.  1.
          1    1    3    3  501    0  0.22680417923E+03  0.50759913978E+02  0.37823657420E+02  0.23547257514E+03  0.00000000000E+00 0.  1.
         21    1    1    2  502  501 -0.34216713322E+02  0.47310390985E+02  0.14437079653E+01  0.58404972891E+02  0.00000000000E+00 0.  1.
<scales pt_clust_4="550.00000" pt_clust_5="550.00000" pt_clust_6="58.38713"></scales>
<mgrwt>
<rscale>  0 0.30000000E+03</rscale>
<asrwt>  1 0.58387127E+02</asrwt>
<pdfrwt beam="1">  1        1 0.89321311E+00 0.30000000E+03</pdfrwt>
<pdfrwt beam="2">0</pdfrwt>
<totfact> 0.12061630E-04</totfact>
</mgrwt>
<clustering>
<clus scale="   58.387">  1  6  2 -1</clus>
<clus scale="  457.490">  4  5 -1 -1</clus>
<clus scale="  300.000">  1  4  2 -1</clus>
</clustering>
</event>
<event>
 6    1  0.1033679E-011  0.3000000E+03  0.7818608E-02  0.1093470E+00
          1   -1    0    0  502    0  0.00000000000E+00  0.00000000000E+00  0.26103417728E+03  0.26103417728E+03  0.00000000000E+00 0.  1.
         13   -1    0    0    0    0 -0.00000000000E+00 -0.00000000000E+00 -0.27500000000E+03  0.27500000000E+03  0.00000000000E+00 0.  1.
    9000005    2    1    2  501    0 -0.24841334666E+02 -0.18829344678E+02 -0.20286961444E+02  0.50422862865E+03  0.50285516107E+03 0.  0.
         13    1    3    3    0    0 -0.18451560909E+03 -0.47894543227E+01  0.17310126633E+03  0.25304742100E+03  0.00000000000E+00 0.  1.
          1    1    3    3  501    0  0.15967427442E+03 -0.14039890355E+02 -0.19338822777E+03  0.25118120765E+03  0.00000000000E+00 0.  1.
         21    1    1    2  502  501  0.24841334666E+02  0.18829344678E+02  0.63211387251E+01  0.31805548631E+02  0.00000000000E+00 0.  1.
<scales pt_clust_4="550.00000" pt_clust_5="550.00000" pt_clust_6="31.17108"></scales>
<mgrwt>
<rscale>  0 0.30000000E+03</rscale>
<asrwt>  1 0.31171078E+02</asrwt>
<pdfrwt beam="1">  1        1 0.94921519E+00 0.30000000E+03</pdfrwt>
<pdfrwt beam="2">0</pdfrwt>
<totfact> 0.13086954E-05</totfact>
</mgrwt>
<clustering>
<clus scale="   31.171">  1  6  2 -1</clus>
<clus scale="  502.855">  4  5 -1 -1</clus>
<clus scale="  300.000">  1  4  2 -1</clus>
</clustering>
</event>
<event>
 6    1  0.1033679E-011  0.3000000E+03  0.7818608E-02  0.1093470E+00
          1   -1    0    0  502    0  0.00000000000E+00  0.00000000000E+00  0.22803484943E+03  0.22803484943E+03  0.00000000000E+00 0.  1.
         13   -1    0    0    0    0 -0.00000000000E+00 -0.00000000000E+00 -0.27500000000E+03  0.27500000000E+03  0.00000000000E+00 0.  1.
    9000005    2    1    2  501    0 -0.31852945243E+02  0.77969458939E+01 -0.20284759077E+02  0.46075901974E+03  0.45914267972E+03 0.  0.
         13    1    3    3    0    0 -0.19072107322E+03 -0.10888912808E+03  0.87138276092E+02  0.23627198130E+03  0.00000000000E+00 0.  1.
          1    1    3    3  501    0  0.15886812798E+03  0.11668607397E+03 -0.10742303517E+03  0.22448703845E+03  0.00000000000E+00 0.  1.
         21    1    1    2  502  501  0.31852945243E+02 -0.77969458939E+01 -0.26680391489E+02  0.42275829689E+02  0.00000000000E+00 0. -1.
<scales pt_clust_4="550.00000" pt_clust_5="550.00000" pt_clust_6="32.79335"></scales>
<mgrwt>
<rscale>  0 0.30000000E+03</rscale>
<asrwt>  1 0.32793346E+02</asrwt>
<pdfrwt beam="1">  1        1 0.82921763E+00 0.30000000E+03</pdfrwt>
<pdfrwt beam="2">0</pdfrwt>
<totfact> 0.60737049E-04</totfact>
</mgrwt>
<clustering>
<clus scale="   32.793">  1  6  2 -1</clus>
<clus scale="  459.143">  4  5 -1 -1</clus>
<clus scale="  300.000">  1  4  2 -1</clus>
</clustering>
</event>
<event>
 6    1  0.1033679E-011  0.3000000E+03  0.7818608E-02  0.1093470E+00
          1   -1    0    0  502    0  0.00000000000E+00  0.00000000000E+00  0.23328982462E+03  0.23328982462E+03  0.00000000000E+00 0.  1.
         13   -1    0    0    0    0 -0.00000000000E+00 -0.00000000000E+00 -0.27500000000E+03  0.27500000000E+03  0.00000000000E+00 0.  1.
    9000005    2    1    2  501    0 -0.50577588464E+01  0.41367422955E+02 -0.36986068197E+02  0.46634746184E+03  0.46300663205E+03 0.  0.
         13    1    3    3    0    0  0.16687486664E+02  0.25099355120E+03  0.43294712343E+01  0.25158493452E+03  0.00000000000E+00 0.  1.
          3    1    3    3  501    0 -0.21745245511E+02 -0.20962612824E+03 -0.41315539431E+02  0.21476252733E+03  0.00000000000E+00 0.  1.
         21    1    1    2  502  501  0.50577588464E+01 -0.41367422955E+02 -0.47241071860E+01  0.41942362776E+02  0.00000000000E+00 0.  1.
<scales pt_clust_4="550.00000" pt_clust_5="550.00000" pt_clust_6="41.67549"></scales>
<mgrwt>
<rscale>  0 0.30000000E+03</rscale>
<asrwt>  1 0.41675489E+02</asrwt>
<pdfrwt beam="1">  1        1 0.84832663E+00 0.30000000E+03</pdfrwt>
<pdfrwt beam="2">0</pdfrwt>
<totfact> 0.40848029E-04</totfact>
</mgrwt>
<clustering>
<clus scale="   41.675">  1  6  2 -1</clus>
<clus scale="  463.007">  4  5 -1 -1</clus>
<clus scale="  300.000">  1  4  2 -1</clus>
</clustering>
</event>
<event>
 6    1  0.1033679E-011  0.3000000E+03  0.7818608E-02  0.1093470E+00
          1   -1    0    0  502    0  0.00000000000E+00  0.00000000000E+00  0.23531783622E+03  0.23531783622E+03  0.00000000000E+00 0.  1.
         13   -1    0    0    0    0 -0.00000000000E+00 -0.00000000000E+00 -0.27500000000E+03  0.27500000000E+03  0.00000000000E+00 0.  1.
    9000005    2    1    2  501    0  0.24033578069E+02 -0.26455698691E+02 -0.13230940150E+02  0.46585229789E+03  0.46429062967E+03 0.  0.
         13    1    3    3    0    0 -0.26721315027E+02 -0.59487779161E+02  0.21762497088E+03  0.22718594256E+03  0.00000000000E+00 0.  1.
          3    1    3    3  501    0  0.50754893096E+02  0.33032080470E+02 -0.23085591103E+03  0.23866635533E+03  0.00000000000E+00 0.  1.
         21    1    1    2  502  501 -0.24033578069E+02  0.26455698691E+02 -0.26451223626E+02  0.44465538334E+02  0.00000000000E+00 0.  1.
<scales pt_clust_4="550.00000" pt_clust_5="550.00000" pt_clust_6="35.74239"></scales>
<mgrwt>
<rscale>  0 0.30000000E+03</rscale>
<asrwt>  1 0.35742386E+02</asrwt>
<pdfrwt beam="1">  1        1 0.85570122E+00 0.30000000E+03</pdfrwt>
<pdfrwt beam="2">0</pdfrwt>
<totfact> 0.35710891E-04</totfact>
</mgrwt>
<clustering>
<clus scale="   35.742">  1  6  2 -1</clus>
<clus scale="  464.291">  4  5 -1 -1</clus>
<clus scale="  300.000">  1  4  2 -1</clus>
</clustering>
</event>
<event>
 6    1  0.1033679E-011  0.3000000E+03  0.7818608E-02  0.1093470E+00
          1   -1    0    0  502    0  0.00000000000E+00  0.00000000000E+00  0.24466757041E+03  0.24466757041E+03  0.00000000000E+00 0.  1.
         13   -1    0    0    0    0 -0.00000000000E+00 -0.00000000000E+00 -0.27500000000E+03  0.27500000000E+03  0.00000000000E+00 0.  1.
    9000005    2    1    2  501    0  0.12901426268E+02 -0.36528285019E+02 -0.55707761797E+02  0.47335698965E+03  0.46846848615E+03 0.  0.
         13    1    3    3    0    0  0.59761852373E+02 -0.12827935729E+03  0.17241073459E+03  0.22305276037E+03  0.00000000000E+00 0.  1.
          1    1    3    3  501    0 -0.46860426105E+02  0.91751072275E+02 -0.22811849639E+03  0.25030422928E+03  0.00000000000E+00 0.  1.
         21    1    1    2  502  501 -0.12901426268E+02  0.36528285019E+02  0.25375332212E+02  0.46310580768E+02  0.00000000000E+00 0. -1.
<scales pt_clust_4="550.00000" pt_clust_5="550.00000" pt_clust_6="38.73967"></scales>
<mgrwt>
<rscale>  0 0.30000000E+03</rscale>
<asrwt>  1 0.38739675E+02</asrwt>
<pdfrwt beam="1">  1        1 0.88970026E+00 0.30000000E+03</pdfrwt>
<pdfrwt beam="2">0</pdfrwt>
<totfact> 0.14357125E-04</totfact>
</mgrwt>
<clustering>
<clus scale="   38.740">  1  6  2 -1</clus>
<clus scale="  468.468">  4  5 -1 -1</clus>
<clus scale="  300.000">  1  4  2 -1</clus>
</clustering>
</event>
<event>
 6    1  0.1033679E-011  0.3000000E+03  0.7818608E-02  0.1093470E+00
          1   -1    0    0  502    0  0.00000000000E+00  0.00000000000E+00  0.26468265450E+03  0.26468265450E+03  0.00000000000E+00 0.  1.
         13   -1    0    0    0    0 -0.00000000000E+00 -0.00000000000E+00 -0.27500000000E+03  0.27500000000E+03  0.00000000000E+00 0.  1.
    9000005    2    1    2  501    0 -0.50380715697E+02  0.32339295470E+02 -0.38940475884E+02  0.47332506157E+03  0.46790619434E+03 0.  0.
         13    1    3    3    0    0 -0.15830663114E+03  0.48904653178E+02 -0.21177486218E+03  0.26888891167E+03  0.00000000000E+00 0.  1.
          3    1    3    3  501    0  0.10792591545E+03 -0.16565357708E+02  0.17283438630E+03  0.20443614990E+03  0.00000000000E+00 0.  1.
         21    1    1    2  502  501  0.50380715697E+02 -0.32339295470E+02  0.28623130379E+02  0.66357592922E+02  0.00000000000E+00 0. -1.
<scales pt_clust_4="550.00000" pt_clust_5="550.00000" pt_clust_6="59.86691"></scales>
<mgrwt>
<rscale>  0 0.30000000E+03</rscale>
<asrwt>  1 0.59866907E+02</asrwt>
<pdfrwt beam="1">  1        1 0.96248238E+00 0.30000000E+03</pdfrwt>
<pdfrwt beam="2">0</pdfrwt>
<totfact> 0.60954908E-06</totfact>
</mgrwt>
<clustering>
<clus scale="   59.867">  1  6  2 -1</clus>
<clus scale="  467.906">  4  5 -1 -1</clus>
<clus scale="  300.000">  1  4  2 -1</clus>
</clustering>
</event>
<event>
 6    1  0.1033679E-011  0.3000000E+03  0.7818608E-02  0.1093470E+00
          1   -1    0    0  502    0  0.00000000000E+00  0.00000000000E+00  0.22701810302E+03  0.22701810302E+03  0.00000000000E+00 0.  1.
         13   -1    0    0    0    0 -0.00000000000E+00 -0.00000000000E+00 -0.27500000000E+03  0.27500000000E+03  0.00000000000E+00 0.  1.
    9000005    2    1    2  501    0  0.24632064590E+02 -0.20122742448E+02 -0.69708672365E+02  0.46349906697E+03  0.45712189043E+03 0.  0.
         13    1    3    3    0    0  0.42427590121E+02  0.16795644677E+03 -0.17581608641E+03  0.24682132132E+03  0.00000000000E+00 0.  1.
          1    1    3    3  501    0 -0.17795525532E+02 -0.18807918922E+03  0.10610741405E+03  0.21667774565E+03  0.00000000000E+00 0.  1.
         21    1    1    2  502  501 -0.24632064590E+02  0.20122742448E+02  0.21726775386E+02  0.38519036051E+02  0.00000000000E+00 0.  1.
<scales pt_clust_4="550.00000" pt_clust_5="550.00000" pt_clust_6="31.80666"></scales>
<mgrwt>
<rscale>  0 0.30000000E+03</rscale>
<asrwt>  1 0.31806656E+02</asrwt>
<pdfrwt beam="1">  1        1 0.82552037E+00 0.30000000E+03</pdfrwt>
<pdfrwt beam="2">0</pdfrwt>
<totfact> 0.65800303E-04</totfact>
</mgrwt>
<clustering>
<clus scale="   31.807">  1  6  2 -1</clus>
<clus scale="  457.122">  4  5 -1 -1</clus>
<clus scale="  300.000">  1  4  2 -1</clus>
</clustering>
</event>
<event>
 6    1  0.1033679E-011  0.3000000E+03  0.7818608E-02  0.1093470E+00
          1   -1    0    0  502    0  0.00000000000E+00  0.00000000000E+00  0.22215426565E+03  0.22215426565E+03  0.00000000000E+00 0.  1.
         13   -1    0    0    0    0 -0.00000000000E+00 -0.00000000000E+00 -0.27500000000E+03  0.27500000000E+03  0.00000000000E+00 0.  1.
    9000005    2    1    2  501    0  0.22436371743E+02 -0.28783645178E+02 -0.52034063282E+02  0.46065018620E+03  0.45624462879E+03 0.  0.
         13    1    3    3    0    0 -0.20172071579E+03 -0.92917400288E+02 -0.15580715075E+01  0.22209754173E+03  0.00000000000E+00 0.  1.
          3    1    3    3  501    0  0.22415708754E+03  0.64133755109E+02 -0.50475991775E+02  0.23855264447E+03  0.00000000000E+00 0.  1.
         21    1    1    2  502  501 -0.22436371743E+02  0.28783645178E+02 -0.81167106531E+00  0.36504079452E+02  0.00000000000E+00 0. -1.
<scales pt_clust_4="550.00000" pt_clust_5="550.00000" pt_clust_6="36.49505"></scales>
<mgrwt>
<rscale>  0 0.30000000E+03</rscale>
<asrwt>  1 0.36495055E+02</asrwt>
<pdfrwt beam="1">  1        1 0.80783369E+00 0.30000000E+03</pdfrwt>
<pdfrwt beam="2">0</pdfrwt>
<totfact> 0.89948629E-04</totfact>
</mgrwt>
<clustering>
<clus scale="   36.495">  1  6  2 -1</clus>
<clus scale="  456.245">  4  5 -1 -1</clus>
<clus scale="  300.000">  1  4  2 -1</clus>
</clustering>
</event>
<event>
 6    1  0.1033679E-011  0.3000000E+03  0.7818608E-02  0.1093470E+00
          1   -1    0    0  502    0  0.00000000000E+00  0.00000000000E+00  0.24041207888E+03  0.24041207888E+03  0.00000000000E+00 0.  1.
         13   -1    0    0    0    0 -0.00000000000E+00 -0.00000000000E+00 -0.27500000000E+03  0.27500000000E+03  0.00000000000E+00 0.  1.
    9000005    2    1    2  501    0 -0.33613987034E+02  0.10999192960E+02 -0.69699821379E+02  0.46557506543E+03  0.45896753053E+03 0.  0.
         13    1    3    3    0    0  0.12458260819E+03 -0.11988045626E+03 -0.16520279200E+03  0.23913199815E+03  0.00000000000E+00 0.  1.
          1    1    3    3  501    0 -0.15819659522E+03  0.13087964922E+03  0.95502970626E+02  0.22644306727E+03  0.00000000000E+00 0.  1.
         21    1    1    2  502  501  0.33613987034E+02 -0.10999192960E+02  0.35111900262E+02  0.49837013455E+02  0.00000000000E+00 0. -1.
<scales pt_clust_4="550.00000" pt_clust_5="550.00000" pt_clust_6="35.36782"></scales>
<mgrwt>
<rscale>  0 0.30000000E+03</rscale>
<asrwt>  1 0.35367815E+02</asrwt>
<pdfrwt beam="1">  1        1 0.87422574E+00 0.30000000E+03</pdfrwt>
<pdfrwt beam="2">0</pdfrwt>
<totfact> 0.22873356E-04</totfact>
</mgrwt>
<clustering>
<clus scale="   35.368">  1  6  2 -1</clus>
<clus scale="  458.968">  4  5 -1 -1</clus>
<clus scale="  300.000">  1  4  2 -1</clus>
</clustering>
</event>
<event>
 6    1  0.1033679E-011  0.3000000E+03  0.7818608E-02  0.1093470E+00
          1   -1    0    0  502    0  0.00000000000E+00  0.00000000000E+00  0.23161477981E+03  0.23161477981E+03  0.00000000000E+00 0.  1.
         13   -1    0    0    0    0 -0.00000000000E+00 -0.00000000000E+00 -0.27500000000E+03  0.27500000000E+03  0.00000000000E+00 0.  1.
    9000005    2    1    2  501    0 -0.42878037563E+01 -0.34540483287E+02 -0.33422565854E+02  0.47041139975E+03  0.46792989524E+03 0.  0.
         13    1    3    3    0    0 -0.10743674528E+01  0.21580714329E+03  0.11188994959E+02  0.21609967831E+03  0.00000000000E+00 0.  1.
          1    1    3    3  501    0 -0.32134363035E+01 -0.25034762657E+03 -0.44611560813E+02  0.25431172144E+03  0.00000000000E+00 0.  1.
         21    1    1    2  502  501  0.42878037563E+01  0.34540483287E+02 -0.99626543313E+01  0.36203380064E+02  0.00000000000E+00 0. -1.
<scales pt_clust_4="550.00000" pt_clust_5="550.00000" pt_clust_6="34.80562"></scales>
<mgrwt>
<rscale>  0 0.30000000E+03</rscale>
<asrwt>  1 0.34805624E+02</asrwt>
<pdfrwt beam="1">  1        1 0.84223556E+00 0.30000000E+03</pdfrwt>
<pdfrwt beam="2">0</pdfrwt>
<totfact> 0.47751532E-04</totfact>
</mgrwt>
<clustering>
<clus scale="   34.806">  1  6  2 -1</clus>
<clus scale="  467.930">  4  5 -1 -1</clus>
<clus scale="  300.000">  1  4  2 -1</clus>
</clustering>
</event>
<event>
 6    1  0.1033679E-011  0.3000000E+03  0.7818608E-02  0.1093470E+00
          1   -1    0    0  502    0  0.00000000000E+00  0.00000000000E+00  0.23559530381E+03  0.23559530381E+03  0.00000000000E+00 0.  1.
         13   -1    0    0    0    0 -0.00000000000E+00 -0.00000000000E+00 -0.27500000000E+03  0.27500000000E+03  0.00000000000E+00 0.  1.
    9000005    2    1    2  501    0  0.40204789660E+02 -0.17074141168E+02 -0.33978945769E+02  0.46657950919E+03  0.46328600047E+03 0.  0.
         13    1    3    3    0    0  0.12088371938E+03 -0.44341071331E+02 -0.22398740447E+03  0.25835897812E+03  0.00000000000E+00 0.  1.
          3    1    3    3  501    0 -0.80678929715E+02  0.27266930163E+02  0.19000845870E+03  0.20822053107E+03  0.00000000000E+00 0.  1.
         21    1    1    2  502  501 -0.40204789660E+02  0.17074141168E+02 -0.54257504235E+01  0.44015794619E+02  0.00000000000E+00 0.  1.
<scales pt_clust_4="550.00000" pt_clust_5="550.00000" pt_clust_6="43.68012"></scales>
<mgrwt>
<rscale>  0 0.30000000E+03</rscale>
<asrwt>  1 0.43680125E+02</asrwt>
<pdfrwt beam="1">  1        1 0.85671020E+00 0.30000000E+03</pdfrwt>
<pdfrwt beam="2">0</pdfrwt>
<totfact> 0.33622965E-04</totfact>
</mgrwt>
<clustering>
<clus scale="   43.680">  1  6  2 -1</clus>
<clus scale="  463.286">  4  5 -1 -1</clus>
<clus scale="  300.000">  1  4  2 -1</clus>
</clustering>
</event>
<event>
 6    1  0.1033679E-011  0.3000000E+03  0.7818608E-02  0.1093470E+00
          1   -1    0    0  502    0  0.00000000000E+00  0.00000000000E+00  0.24771561469E+03  0.24771561469E+03  0.00000000000E+00 0.  1.
         13   -1    0    0    0    0 -0.00000000000E+00 -0.00000000000E+00 -0.27500000000E+03  0.27500000000E+03  0.00000000000E+00 0.  1.
    9000005    2    1    2  501    0  0.28538177907E+02 -0.93320488309E+01 -0.47597171740E+02  0.48646476606E+03  0.48319867873E+03 0.  0.
         13    1    3    3    0    0  0.14283374167E+03  0.19426125748E+03 -0.72181211756E+02  0.25169235437E+03  0.00000000000E+00 0.  1.
          3    1    3    3  501    0 -0.11429556376E+03 -0.20359330631E+03  0.24584040016E+02  0.23477241170E+03  0.00000000000E+00 0.  1.
         21    1    1    2  502  501 -0.28538177907E+02  0.93320488309E+01  0.20312786433E+02  0.36250848629E+02  0.00000000000E+00 0. -1.
<scales pt_clust_4="550.00000" pt_clust_5="550.00000" pt_clust_6="30.02523"></scales>
<mgrwt>
<rscale>  0 0.30000000E+03</rscale>
<asrwt>  1 0.30025235E+02</asrwt>
<pdfrwt beam="1">  1        1 0.90078405E+00 0.30000000E+03</pdfrwt>
<pdfrwt beam="2">0</pdfrwt>
<totfact> 0.11108966E-04</totfact>
</mgrwt>
<clustering>
<clus scale="   30.025">  1  6  2 -1</clus>
<clus scale="  483.199">  4  5 -1 -1</clus>
<clus scale="  300.000">  1  4  2 -1</clus>
</clustering>
</event>
<event>
 6    1  0.1033679E-011  0.3000000E+03  0.7818608E-02  0.1093470E+00
          1   -1    0    0  502    0  0.00000000000E+00  0.00000000000E+00  0.23489578513E+03  0.23489578513E+03  0.00000000000E+00 0.  1.
         13   -1    0    0    0    0 -0.00000000000E+00 -0.00000000000E+00 -0.27500000000E+03  0.27500000000E+03  0.00000000000E+00 0.  1.
    9000005    2    1    2  501    0  0.25647058265E+02 -0.20245040110E+02 -0.38245341346E+02  0.47716829428E+03  0.47450947481E+03 0.  0.
         13    1    3    3    0    0 -0.12732873315E+03 -0.47043293495E+02  0.16990095949E+03  0.21746727061E+03  0.00000000000E+00 0.  1.
          1    1    3    3  501    0  0.15297579142E+03  0.26798253384E+02 -0.20814630084E+03  0.25970102367E+03  0.00000000000E+00 0.  1.
         21    1    1    2  502  501 -0.25647058265E+02  0.20245040110E+02 -0.18588735232E+01  0.32727490853E+02  0.00000000000E+00 0.  1.
<scales pt_clust_4="550.00000" pt_clust_5="550.00000" pt_clust_6="32.67466"></scales>
<mgrwt>
<rscale>  0 0.30000000E+03</rscale>
<asrwt>  1 0.32674658E+02</asrwt>
<pdfrwt beam="1">  1        1 0.85416649E+00 0.30000000E+03</pdfrwt>
<pdfrwt beam="2">0</pdfrwt>
<totfact> 0.37611117E-04</totfact>
</mgrwt>
<clustering>
<clus scale="   32.675">  1  6  2 -1</clus>
<clus scale="  474.509">  4  5 -1 -1</clus>
<clus scale="  300.000">  1  4  2 -1</clus>
</clustering>
</event>
<event>
 6    1  0.1033679E-011  0.3000000E+03  0.7818608E-02  0.1093470E+00
          1   -1    0    0  502    0  0.00000000000E+00  0.00000000000E+00  0.23672125771E+03  0.23672125771E+03  0.00000000000E+00 0.  1.
         13   -1    0    0    0    0 -0.00000000000E+00 -0.00000000000E+00 -0.27500000000E+03  0.27500000000E+03  0.00000000000E+00 0.  1.
    9000005    2    1    2  501    0  0.20379244797E+02 -0.24084802496E+02 -0.53143862300E+02  0.47684485992E+03  0.47282275644E+03 0.  0.
         13    1    3    3    0    0  0.20580595879E+03  0.12070126409E+03 -0.24196599765E+02  0.23981318409E+03  0.00000000000E+00 0.  1.
          1    1    3    3  501    0 -0.18542671399E+03 -0.14478606658E+03 -0.28947262535E+02  0.23703167583E+03  0.00000000000E+00 0.  1.
         21    1    1    2  502  501 -0.20379244797E+02  0.24084802496E+02  0.14865120008E+02  0.34876397788E+02  0.00000000000E+00 0. -1.
<scales pt_clust_4="550.00000" pt_clust_5="550.00000" pt_clust_6="31.54982"></scales>
<mgrwt>
<rscale>  0 0.30000000E+03</rscale>
<asrwt>  1 0.31549823E+02</asrwt>
<pdfrwt beam="1">  1        1 0.86080457E+00 0.30000000E+03</pdfrwt>
<pdfrwt beam="2">0</pdfrwt>
<totfact> 0.32338869E-04</totfact>
</mgrwt>
<clustering>
<clus scale="   31.550">  1  6  2 -1</clus>
<clus scale="  472.823">  4  5 -1 -1</clus>
<clus scale="  300.000">  1  4  2 -1</clus>
</clustering>
</event>
<event>
 6    1  0.1033679E-011  0.3000000E+03  0.7818608E-02  0.1093470E+00
          1   -1    0    0  502    0  0.00000000000E+00  0.00000000000E+00  0.24868901391E+03  0.24868901391E+03  0.00000000000E+00 0.  1.
         13   -1    0    0    0    0 -0.00000000000E+00 -0.00000000000E+00 -0.27500000000E+03  0.27500000000E+03  0.00000000000E+00 0.  1.
    9000005    2    1    2  501    0  0.25148623422E+02  0.34224572829E+02 -0.47769527001E+02  0.47610494490E+03  0.47179467590E+03 0.  0.
         13    1    3    3    0    0 -0.60071790524E+02 -0.20060093889E+03 -0.80122921694E+02  0.22420758078E+03  0.00000000000E+00 0.  1.
          1    1    3    3  501    0  0.85220413945E+02  0.23482551171E+03  0.32353394693E+02  0.25189736412E+03  0.00000000000E+00 0.  1.
         21    1    1    2  502  501 -0.25148623422E+02 -0.34224572829E+02  0.21458540916E+02  0.47584069010E+02  0.00000000000E+00 0.  1.
<scales pt_clust_4="550.00000" pt_clust_5="550.00000" pt_clust_6="42.47087"></scales>
<mgrwt>
<rscale>  0 0.30000000E+03</rscale>
<asrwt>  1 0.42470868E+02</asrwt>
<pdfrwt beam="1">  1        1 0.90432369E+00 0.30000000E+03</pdfrwt>
<pdfrwt beam="2">0</pdfrwt>
<totfact> 0.91834195E-05</totfact>
</mgrwt>
<clustering>
<clus scale="   42.471">  1  6  2 -1</clus>
<clus scale="  471.795">  4  5 -1 -1</clus>
<clus scale="  300.000">  1  4  2 -1</clus>
</clustering>
</event>
<event>
 6    1  0.1033679E-011  0.3000000E+03  0.7818608E-02  0.1093470E+00
          1   -1    0    0  502    0  0.00000000000E+00  0.00000000000E+00  0.22611741784E+03  0.22611741784E+03  0.00000000000E+00 0.  1.
         13   -1    0    0    0    0 -0.00000000000E+00 -0.00000000000E+00 -0.27500000000E+03  0.27500000000E+03  0.00000000000E+00 0.  1.
    9000005    2    1    2  501    0  0.14196593117E+02 -0.32690722448E+02 -0.50893171274E+02  0.46542051239E+03  0.46125471475E+03 0.  0.
         13    1    3    3    0    0  0.23499945537E+02 -0.12668574641E+03 -0.22960284532E+03  0.26328500216E+03  0.00000000000E+00 0.  1.
          1    1    3    3  501    0 -0.93033524195E+01  0.93995023960E+02  0.17870967405E+03  0.20213551023E+03  0.00000000000E+00 0.  1.
         21    1    1    2  502  501 -0.14196593117E+02  0.32690722448E+02  0.20105891157E+01  0.35696905453E+02  0.00000000000E+00 0.  1.
<scales pt_clust_4="550.00000" pt_clust_5="550.00000" pt_clust_6="35.64024"></scales>
<mgrwt>
<rscale>  0 0.30000000E+03</rscale>
<asrwt>  1 0.35640238E+02</asrwt>
<pdfrwt beam="1">  1        1 0.82224516E+00 0.30000000E+03</pdfrwt>
<pdfrwt beam="2">0</pdfrwt>
<totfact> 0.68886598E-04</totfact>
</mgrwt>
<clustering>
<clus scale="   35.640">  1  6  2 -1</clus>
<clus scale="  461.255">  4  5 -1 -1</clus>
<clus scale="  300.000">  1  4  2 -1</clus>
</clustering>
</event>
<event>
 6    1  0.1033679E-011  0.3000000E+03  0.7818608E-02  0.1093470E+00
          1   -1    0    0  502    0  0.00000000000E+00  0.00000000000E+00  0.24194113889E+03  0.24194113889E+03  0.00000000000E+00 0.  1.
         13   -1    0    0    0    0 -0.00000000000E+00 -0.00000000000E+00 -0.27500000000E+03  0.27500000000E+03  0.00000000000E+00 0.  1.
    9000005    2    1    2  501    0 -0.15549600630E+02 -0.26450468961E+02 -0.26043685255E+02  0.48546686240E+03  0.48379580772E+03 0.  0.
         13    1    3    3    0    0 -0.77638793147E+02 -0.23194301043E+03 -0.91335878110E+02  0.26108922788E+03  0.00000000000E+00 0.  1.
          1    1    3    3  501    0  0.62089192517E+02  0.20549254147E+03  0.65292192855E+02  0.22437763452E+03  0.00000000000E+00 0.  1.
         21    1    1    2  502  501  0.15549600630E+02  0.26450468961E+02 -0.70151758556E+01  0.31474276485E+02  0.00000000000E+00 0. -1.
<scales pt_clust_4="550.00000" pt_clust_5="550.00000" pt_clust_6="30.68254"></scales>
<mgrwt>
<rscale>  0 0.30000000E+03</rscale>
<asrwt>  1 0.30682541E+02</asrwt>
<pdfrwt beam="1">  1        1 0.87978596E+00 0.30000000E+03</pdfrwt>
<pdfrwt beam="2">0</pdfrwt>
<totfact> 0.20358799E-04</totfact>
</mgrwt>
<clustering>
<clus scale="   30.683">  1  6  2 -1</clus>
<clus scale="  483.796">  4  5 -1 -1</clus>
<clus scale="  300.000">  1  4  2 -1</clus>
</clustering>
</event>
<event>
 6    1  0.1033679E-011  0.3000000E+03  0.7818608E-02  0.1093470E+00
          1   -1    0    0  502    0  0.00000000000E+00  0.00000000000E+00  0.25190252494E+03  0.25190252494E+03  0.00000000000E+00 0.  1.
         13   -1    0    0    0    0 -0.00000000000E+00 -0.00000000000E+00 -0.27500000000E+03  0.27500000000E+03  0.00000000000E+00 0.  1.
    9000005    2    1    2  501    0  0.33654640557E+02  0.43610950904E+02 -0.30859269784E+02  0.47127164029E+03  0.46702260603E+03 0.  0.
         13    1    3    3    0    0 -0.40052167511E+01 -0.43336528024E+02  0.20894337812E+03  0.21342781375E+03  0.00000000000E+00 0.  1.
          1    1    3    3  501    0  0.37659857308E+02  0.86947478928E+02 -0.23980264790E+03  0.25784382654E+03  0.00000000000E+00 0.  1.
         21    1    1    2  502  501 -0.33654640557E+02 -0.43610950904E+02  0.77617947263E+01  0.55630884652E+02  0.00000000000E+00 0.  1.
<scales pt_clust_4="550.00000" pt_clust_5="550.00000" pt_clust_6="55.08675"></scales>
<mgrwt>
<rscale>  0 0.30000000E+03</rscale>
<asrwt>  1 0.55086749E+02</asrwt>
<pdfrwt beam="1">  1        1 0.91600918E+00 0.30000000E+03</pdfrwt>
<pdfrwt beam="2">0</pdfrwt>
<totfact> 0.47304983E-05</totfact>
</mgrwt>
<clustering>
<clus scale="   55.087">  1  6  2 -1</clus>
<clus scale="  467.023">  4  5 -1 -1</clus>
<clus scale="  300.000">  1  4  2 -1</clus>
</clustering>
</event>
<event>
 6    1  0.1033679E-011  0.3000000E+03  0.7818608E-02  0.1093470E+00
          1   -1    0    0  502    0  0.00000000000E+00  0.00000000000E+00  0.23308892087E+03  0.23308892087E+03  0.00000000000E+00 0.  1.
         13   -1    0    0    0    0 -0.00000000000E+00 -0.00000000000E+00 -0.27500000000E+03  0.27500000000E+03  0.00000000000E+00 0.  1.
    9000005    2    1    2  501    0  0.25222908314E+02  0.19198614982E+02 -0.73542034693E+02  0.46330835286E+03  0.45633476423E+03 0.  0.
         13    1    3    3    0    0  0.18329561460E+03  0.12815076267E+03 -0.13559571586E+03  0.26154559538E+03  0.00000000000E+00 0.  1.
          1    1    3    3  501    0 -0.15807270629E+03 -0.10895214769E+03  0.62053681166E+02  0.20176275748E+03  0.00000000000E+00 0.  1.
         21    1    1    2  502  501 -0.25222908314E+02 -0.19198614982E+02  0.31630955564E+02  0.44780568005E+02  0.00000000000E+00 0.  1.
<scales pt_clust_4="550.00000" pt_clust_5="550.00000" pt_clust_6="31.69830"></scales>
<mgrwt>
<rscale>  0 0.30000000E+03</rscale>
<asrwt>  1 0.31698295E+02</asrwt>
<pdfrwt beam="1">  1        1 0.84759608E+00 0.30000000E+03</pdfrwt>
<pdfrwt beam="2">0</pdfrwt>
<totfact> 0.43644377E-04</totfact>
</mgrwt>
<clustering>
<clus scale="   31.698">  1  6  2 -1</clus>
<clus scale="  456.335">  4  5 -1 -1</clus>
<clus scale="  300.000">  1  4  2 -1</clus>
</clustering>
</event>
<event>
 6    1  0.1033679E-011  0.3000000E+03  0.7818608E-02  0.1093470E+00
          1   -1    0    0  502    0  0.00000000000E+00  0.00000000000E+00  0.23030938999E+03  0.23030938999E+03  0.00000000000E+00 0.  1.
         13   -1    0    0    0    0 -0.00000000000E+00 -0.00000000000E+00 -0.27500000000E+03  0.27500000000E+03  0.00000000000E+00 0.  1.
    9000005    2    1    2  501    0 -0.21372268309E+02  0.25917933840E+02 -0.59802224147E+02  0.46847361894E+03  0.46342498043E+03 0.  0.
         13    1    3    3    0    0  0.35813108477E+01  0.20875774445E+03  0.93308961788E+02  0.22869014846E+03  0.00000000000E+00 0.  1.
          3    1    3    3  501    0 -0.24953579156E+02 -0.18283981061E+03 -0.15311118594E+03  0.23978347048E+03  0.00000000000E+00 0.  1.
         21    1    1    2  502  501  0.21372268309E+02 -0.25917933840E+02  0.15111614140E+02  0.36835771054E+02  0.00000000000E+00 0.  1.
<scales pt_clust_4="550.00000" pt_clust_5="550.00000" pt_clust_6="33.59335"></scales>
<mgrwt>
<rscale>  0 0.30000000E+03</rscale>
<asrwt>  1 0.33593350E+02</asrwt>
<pdfrwt beam="1">  1        1 0.83748869E+00 0.30000000E+03</pdfrwt>
<pdfrwt beam="2">0</pdfrwt>
<totfact> 0.52293288E-04</totfact>
</mgrwt>
<clustering>
<clus scale="   33.593">  1  6  2 -1</clus>
<clus scale="  463.425">  4  5 -1 -1</clus>
<clus scale="  300.000">  1  4  2 -1</clus>
</clustering>
</event>
<event>
 6    1  0.1033679E-011  0.3000000E+03  0.7818608E-02  0.1093470E+00
          1   -1    0    0  502    0  0.00000000000E+00  0.00000000000E+00  0.25404827888E+03  0.25404827888E+03  0.00000000000E+00 0.  1.
         13   -1    0    0    0    0 -0.00000000000E+00 -0.00000000000E+00 -0.27500000000E+03  0.27500000000E+03  0.00000000000E+00 0.  1.
    9000005    2    1    2  501    0  0.23427102224E+02 -0.24253256478E+02 -0.18689453475E+02  0.49525231132E+03  0.49374943709E+03 0.  0.
         13    1    3    3    0    0 -0.14667287610E+03  0.89919635914E+02  0.15125269406E+03  0.22907608118E+03  0.00000000000E+00 0.  1.
          1    1    3    3  501    0  0.17009997832E+03 -0.11417289239E+03 -0.16994214754E+03  0.26617623014E+03  0.00000000000E+00 0.  1.
         21    1    1    2  502  501 -0.23427102224E+02  0.24253256478E+02 -0.22622676473E+01  0.33795967560E+02  0.00000000000E+00 0. -1.
<scales pt_clust_4="550.00000" pt_clust_5="550.00000" pt_clust_6="33.72018"></scales>
<mgrwt>
<rscale>  0 0.30000000E+03</rscale>
<asrwt>  1 0.33720182E+02</asrwt>
<pdfrwt beam="1">  1        1 0.92381192E+00 0.30000000E+03</pdfrwt>
<pdfrwt beam="2">0</pdfrwt>
<totfact> 0.34947805E-05</totfact>
</mgrwt>
<clustering>
<clus scale="   33.720">  1  6  2 -1</clus>
<clus scale="  493.749">  4  5 -1 -1</clus>
<clus scale="  300.000">  1  4  2 -1</clus>
</clustering>
</event>
<event>
 6    1  0.1033679E-011  0.3000000E+03  0.7818608E-02  0.1093470E+00
          1   -1    0    0  502    0  0.00000000000E+00  0.00000000000E+00  0.21916422836E+03  0.21916422836E+03  0.00000000000E+00 0.  1.
         13   -1    0    0    0    0 -0.00000000000E+00 -0.00000000000E+00 -0.27500000000E+03  0.27500000000E+03  0.00000000000E+00 0.  1.
    9000005    2    1    2  501    0  0.28125425393E+02 -0.11058715567E+02 -0.63496895982E+02  0.46298687167E+03  0.45761517982E+03 0.  0.
         13    1    3    3    0    0 -0.19463315669E+03  0.12069971652E+02  0.64051226552E+02  0.20525669178E+03  0.00000000000E+00 0.  1.
          1    1    3    3  501    0  0.22275858208E+03 -0.23128687220E+02 -0.12754812253E+03  0.25773017989E+03  0.00000000000E+00 0.  1.
         21    1    1    2  502  501 -0.28125425393E+02  0.11058715567E+02  0.76611243382E+01  0.31177356682E+02  0.00000000000E+00 0. -1.
<scales pt_clust_4="550.00000" pt_clust_5="550.00000" pt_clust_6="30.22143"></scales>
<mgrwt>
<rscale>  0 0.30000000E+03</rscale>
<asrwt>  1 0.30221429E+02</asrwt>
<pdfrwt beam="1">  1        1 0.79696083E+00 0.30000000E+03</pdfrwt>
<pdfrwt beam="2">0</pdfrwt>
<totfact> 0.11218719E-03</totfact>
</mgrwt>
<clustering>
<clus scale="   30.221">  1  6  2 -1</clus>
<clus scale="  457.615">  4  5 -1 -1</clus>
<clus scale="  300.000">  1  4  2 -1</clus>
</clustering>
</event>
<event>
 6    1  0.1033679E-011  0.3000000E+03  0.7818608E-02  0.1093470E+00
          1   -1    0    0  502    0  0.00000000000E+00  0.00000000000E+00  0.24264505095E+03  0.24264505095E+03  0.00000000000E+00 0.  1.
         13   -1    0    0    0    0 -0.00000000000E+00 -0.00000000000E+00 -0.27500000000E+03  0.27500000000E+03  0.00000000000E+00 0.  1.
    9000005    2    1    2  501    0 -0.77496097762E+01  0.30474775344E+02 -0.29549592711E+02  0.48607547053E+03  0.48415639647E+03 0.  0.
         13    1    3    3    0    0  0.61277232055E+02  0.70256160389E+02 -0.24191585398E+03  0.25925683722E+03  0.00000000000E+00 0.  1.
          1    1    3    3  501    0 -0.69026841831E+02 -0.39781385045E+02  0.21236626127E+03  0.22681863331E+03  0.00000000000E+00 0.  1.
         21    1    1    2  502  501  0.77496097762E+01 -0.30474775344E+02 -0.28053563350E+01  0.31569580423E+02  0.00000000000E+00 0.  1.
<scales pt_clust_4="550.00000" pt_clust_5="550.00000" pt_clust_6="31.44470"></scales>
<mgrwt>
<rscale>  0 0.30000000E+03</rscale>
<asrwt>  1 0.31444703E+02</asrwt>
<pdfrwt beam="1">  1        1 0.88234564E+00 0.30000000E+03</pdfrwt>
<pdfrwt beam="2">0</pdfrwt>
<totfact> 0.18801303E-04</totfact>
</mgrwt>
<clustering>
<clus scale="   31.445">  1  6  2 -1</clus>
<clus scale="  484.156">  4  5 -1 -1</clus>
<clus scale="  300.000">  1  4  2 -1</clus>
</clustering>
</event>
<event>
 6    1  0.1033679E-011  0.3000000E+03  0.7818608E-02  0.1093470E+00
          1   -1    0    0  502    0  0.00000000000E+00  0.00000000000E+00  0.22594699209E+03  0.22594699209E+03  0.00000000000E+00 0.  1.
         13   -1    0    0    0    0 -0.00000000000E+00 -0.00000000000E+00 -0.27500000000E+03  0.27500000000E+03  0.00000000000E+00 0.  1.
    9000005    2    1    2  501    0 -0.28912148050E+02  0.24311978213E+02 -0.58366450619E+02  0.46204037563E+03  0.45677968602E+03 0.  0.
         13    1    3    3    0    0  0.84477652006E+02  0.19952024522E+03  0.56371704195E+02  0.22388070702E+03  0.00000000000E+00 0.  1.
          1    1    3    3  501    0 -0.11338980006E+03 -0.17520826700E+03 -0.11473815481E+03  0.23815966861E+03  0.00000000000E+00 0.  1.
         21    1    1    2  502  501  0.28912148050E+02 -0.24311978213E+02  0.93134427088E+01  0.38906616463E+02  0.00000000000E+00 0.  1.
<scales pt_clust_4="550.00000" pt_clust_5="550.00000" pt_clust_6="37.77545"></scales>
<mgrwt>
<rscale>  0 0.30000000E+03</rscale>
<asrwt>  1 0.37775450E+02</asrwt>
<pdfrwt beam="1">  1        1 0.82162543E+00 0.30000000E+03</pdfrwt>
<pdfrwt beam="2">0</pdfrwt>
<totfact> 0.69013529E-04</totfact>
</mgrwt>
<clustering>
<clus scale="   37.775">  1  6  2 -1</clus>
<clus scale="  456.780">  4  5 -1 -1</clus>
<clus scale="  300.000">  1  4  2 -1</clus>
</clustering>
</event>
<event>
 6    1  0.1033679E-011  0.3000000E+03  0.7818608E-02  0.1093470E+00
          1   -1    0    0  502    0  0.00000000000E+00  0.00000000000E+00  0.23664317638E+03  0.23664317638E+03  0.00000000000E+00 0.  1.
         13   -1    0    0    0    0 -0.00000000000E+00 -0.00000000000E+00 -0.27500000000E+03  0.27500000000E+03  0.00000000000E+00 0.  1.
    9000005    2    1    2  501    0 -0.12523979306E+02 -0.29492481063E+02 -0.68049867408E+02  0.46795870149E+03  0.46187433935E+03 0.  0.
         13    1    3    3    0    0  0.81585431151E+02 -0.18987980488E+03  0.88557972483E+02  0.22484002617E+03  0.00000000000E+00 0.  1.
          3    1    3    3  501    0 -0.94109410457E+02  0.16038732381E+03 -0.15660783989E+03  0.24311867533E+03  0.00000000000E+00 0.  1.
         21    1    1    2  502  501  0.12523979306E+02  0.29492481063E+02  0.29693043787E+02  0.43684474888E+02  0.00000000000E+00 0. -1.
<scales pt_clust_4="550.00000" pt_clust_5="550.00000" pt_clust_6="32.04148"></scales>
<mgrwt>
<rscale>  0 0.30000000E+03</rscale>
<asrwt>  1 0.32041481E+02</asrwt>
<pdfrwt beam="1">  1        1 0.86052064E+00 0.30000000E+03</pdfrwt>
<pdfrwt beam="2">0</pdfrwt>
<totfact> 0.32470662E-04</totfact>
</mgrwt>
<clustering>
<clus scale="   32.041">  1  6  2 -1</clus>
<clus scale="  461.874">  4  5 -1 -1</clus>
<clus scale="  300.000">  1  4  2 -1</clus>
</clustering>
</event>
<event>
 6    1  0.1033679E-011  0.3000000E+03  0.7818608E-02  0.1093470E+00
          1   -1    0    0  502    0  0.00000000000E+00  0.00000000000E+00  0.22742517594E+03  0.22742517594E+03  0.00000000000E+00 0.  1.
         13   -1    0    0    0    0 -0.00000000000E+00 -0.00000000000E+00 -0.27500000000E+03  0.27500000000E+03  0.00000000000E+00 0.  1.
    9000005    2    1    2  501    0 -0.43628753034E+01  0.36630707514E+02 -0.50174246310E+02  0.46544409416E+03  0.46125904477E+03 0.  0.
         13    1    3    3    0    0  0.12744783739E+03 -0.15863997585E+03  0.49826669449E+02  0.20950486911E+03  0.00000000000E+00 0.  1.
          1    1    3    3  501    0 -0.13181071269E+03  0.19527068336E+03 -0.10000091576E+03  0.25593922504E+03  0.00000000000E+00 0.  1.
         21    1    1    2  502  501  0.43628753034E+01 -0.36630707514E+02  0.25994222490E+01  0.36981081784E+02  0.00000000000E+00 0. -1.
<scales pt_clust_4="550.00000" pt_clust_5="550.00000" pt_clust_6="36.88961"></scales>
<mgrwt>
<rscale>  0 0.30000000E+03</rscale>
<asrwt>  1 0.36889611E+02</asrwt>
<pdfrwt beam="1">  1        1 0.82700064E+00 0.30000000E+03</pdfrwt>
<pdfrwt beam="2">0</pdfrwt>
<totfact> 0.62090813E-04</totfact>
</mgrwt>
<clustering>
<clus scale="   36.890">  1  6  2 -1</clus>
<clus scale="  461.259">  4  5 -1 -1</clus>
<clus scale="  300.000">  1  4  2 -1</clus>
</clustering>
</event>
<event>
 6    1  0.1033679E-011  0.3000000E+03  0.7818608E-02  0.1093470E+00
          1   -1    0    0  502    0  0.00000000000E+00  0.00000000000E+00  0.22593362665E+03  0.22593362665E+03  0.00000000000E+00 0.  1.
         13   -1    0    0    0    0 -0.00000000000E+00 -0.00000000000E+00 -0.27500000000E+03  0.27500000000E+03  0.00000000000E+00 0.  1.
    9000005    2    1    2  501    0  0.11191948173E+02 -0.29777880633E+02 -0.49641967281E+02  0.46911675711E+03  0.46539684679E+03 0.  0.
         13    1    3    3    0    0  0.95581587246E+01 -0.22367451580E+03 -0.13037929884E+03  0.25907606795E+03  0.00000000000E+00 0.  1.
          1    1    3    3  501    0  0.16337894483E+01  0.19389663516E+03  0.80737331561E+02  0.21004068916E+03  0.00000000000E+00 0.  1.
         21    1    1    2  502  501 -0.11191948173E+02  0.29777880633E+02  0.57559392694E+00  0.31816869539E+02  0.00000000000E+00 0. -1.
<scales pt_clust_4="550.00000" pt_clust_5="550.00000" pt_clust_6="31.81166"></scales>
<mgrwt>
<rscale>  0 0.30000000E+03</rscale>
<asrwt>  1 0.31811663E+02</asrwt>
<pdfrwt beam="1">  1        1 0.82157682E+00 0.30000000E+03</pdfrwt>
<pdfrwt beam="2">0</pdfrwt>
<totfact> 0.71342279E-04</totfact>
</mgrwt>
<clustering>
<clus scale="   31.812">  1  6  2 -1</clus>
<clus scale="  465.397">  4  5 -1 -1</clus>
<clus scale="  300.000">  1  4  2 -1</clus>
</clustering>
</event>
<event>
 6    1  0.1033679E-011  0.3000000E+03  0.7818608E-02  0.1093470E+00
          1   -1    0    0  502    0  0.00000000000E+00  0.00000000000E+00  0.23413316352E+03  0.23413316352E+03  0.00000000000E+00 0.  1.
         13   -1    0    0    0    0 -0.00000000000E+00 -0.00000000000E+00 -0.27500000000E+03  0.27500000000E+03  0.00000000000E+00 0.  1.
    9000005    2    1    2  501    0 -0.23133793529E+02  0.25423413103E+02 -0.67249076172E+02  0.46580251723E+03  0.45963901540E+03 0.  0.
         13    1    3    3    0    0  0.28433762548E+02 -0.18893613686E+03  0.72961381434E+02  0.20452067339E+03  0.00000000000E+00 0.  1.
          3    1    3    3  501    0 -0.51567556077E+02  0.21435954996E+03 -0.14021045761E+03  0.26128184384E+03  0.00000000000E+00 0.  1.
         21    1    1    2  502  501  0.23133793529E+02 -0.25423413103E+02  0.26382239691E+02  0.43330646291E+02  0.00000000000E+00 0. -1.
<scales pt_clust_4="550.00000" pt_clust_5="550.00000" pt_clust_6="34.37328"></scales>
<mgrwt>
<rscale>  0 0.30000000E+03</rscale>
<asrwt>  1 0.34373279E+02</asrwt>
<pdfrwt beam="1">  1        1 0.85139332E+00 0.30000000E+03</pdfrwt>
<pdfrwt beam="2">0</pdfrwt>
<totfact> 0.39616727E-04</totfact>
</mgrwt>
<clustering>
<clus scale="   34.373">  1  6  2 -1</clus>
<clus scale="  459.639">  4  5 -1 -1</clus>
<clus scale="  300.000">  1  4  2 -1</clus>
</clustering>
</event>
<event>
 6    1  0.1033679E-011  0.3000000E+03  0.7818608E-02  0.1093470E+00
          1   -1    0    0  502    0  0.00000000000E+00  0.00000000000E+00  0.22581281514E+03  0.22581281514E+03  0.00000000000E+00 0.  1.
         13   -1    0    0    0    0 -0.00000000000E+00 -0.00000000000E+00 -0.27500000000E+03  0.27500000000E+03  0.00000000000E+00 0.  1.
    9000005    2    1    2  501    0  0.38829174773E+02 -0.50170721161E+01 -0.53515943506E+02  0.46142228357E+03  0.45663299458E+03 0.  0.
         13    1    3    3    0    0 -0.72207605480E+02  0.14665021199E+03 -0.17353885681E+03  0.23840293159E+03  0.00000000000E+00 0.  1.
          3    1    3    3  501    0  0.11103678025E+03 -0.15166728411E+03  0.12002291331E+03  0.22301935198E+03  0.00000000000E+00 0.  1.
         21    1    1    2  502  501 -0.38829174773E+02  0.50170721161E+01  0.43287586492E+01  0.39390531573E+02  0.00000000000E+00 0. -1.
<scales pt_clust_4="550.00000" pt_clust_5="550.00000" pt_clust_6="39.15196"></scales>
<mgrwt>
<rscale>  0 0.30000000E+03</rscale>
<asrwt>  1 0.39151958E+02</asrwt>
<pdfrwt beam="1">  1        1 0.82113751E+00 0.30000000E+03</pdfrwt>
<pdfrwt beam="2">0</pdfrwt>
<totfact> 0.69242841E-04</totfact>
</mgrwt>
<clustering>
<clus scale="   39.152">  1  6  2 -1</clus>
<clus scale="  456.633">  4  5 -1 -1</clus>
<clus scale="  300.000">  1  4  2 -1</clus>
</clustering>
</event>
<event>
 6    1  0.1033679E-011  0.3000000E+03  0.7818608E-02  0.1093470E+00
          1   -1    0    0  502    0  0.00000000000E+00  0.00000000000E+00  0.22622699720E+03  0.22622699720E+03  0.00000000000E+00 0.  1.
         13   -1    0    0    0    0 -0.00000000000E+00 -0.00000000000E+00 -0.27500000000E+03  0.27500000000E+03  0.00000000000E+00 0.  1.
    9000005    2    1    2  501    0 -0.35061980186E+02  0.83444812240E+01 -0.54674652474E+02  0.46470573914E+03  0.46006861830E+03 0.  0.
         13    1    3    3    0    0  0.20352738973E+03 -0.45344368207E+01  0.40400774232E+02  0.20754802347E+03  0.00000000000E+00 0.  1.
          1    1    3    3  501    0 -0.23858936991E+03  0.12878918045E+02 -0.95075426706E+02  0.25715771567E+03  0.00000000000E+00 0.  1.
         21    1    1    2  502  501  0.35061980186E+02 -0.83444812240E+01  0.59016496743E+01  0.36521258061E+02  0.00000000000E+00 0.  1.
<scales pt_clust_4="550.00000" pt_clust_5="550.00000" pt_clust_6="36.04127"></scales>
<mgrwt>
<rscale>  0 0.30000000E+03</rscale>
<asrwt>  1 0.36041266E+02</asrwt>
<pdfrwt beam="1">  1        1 0.82264363E+00 0.30000000E+03</pdfrwt>
<pdfrwt beam="2">0</pdfrwt>
<totfact> 0.68184995E-04</totfact>
</mgrwt>
<clustering>
<clus scale="   36.041">  1  6  2 -1</clus>
<clus scale="  460.069">  4  5 -1 -1</clus>
<clus scale="  300.000">  1  4  2 -1</clus>
</clustering>
</event>
<event>
 6    1  0.1033679E-011  0.3000000E+03  0.7818608E-02  0.1093470E+00
          1   -1    0    0  502    0  0.00000000000E+00  0.00000000000E+00  0.24319981433E+03  0.24319981433E+03  0.00000000000E+00 0.  1.
         13   -1    0    0    0    0 -0.00000000000E+00 -0.00000000000E+00 -0.27500000000E+03  0.27500000000E+03  0.00000000000E+00 0.  1.
    9000005    2    1    2  501    0  0.22879832492E+02  0.23430531806E+02 -0.68507333420E+02  0.46900742415E+03  0.46281987060E+03 0.  0.
         13    1    3    3    0    0 -0.13902983699E+03  0.59864669126E+02  0.13747937458E+03  0.20448386885E+03  0.00000000000E+00 0.  1.
          1    1    3    3  501    0  0.16190966949E+03 -0.36434137320E+02 -0.20598670800E+03  0.26452355530E+03  0.00000000000E+00 0.  1.
         21    1    1    2  502  501 -0.22879832492E+02 -0.23430531806E+02  0.36707147746E+02  0.49192390176E+02  0.00000000000E+00 0.  1.
<scales pt_clust_4="550.00000" pt_clust_5="550.00000" pt_clust_6="32.74869"></scales>
<mgrwt>
<rscale>  0 0.30000000E+03</rscale>
<asrwt>  1 0.32748688E+02</asrwt>
<pdfrwt beam="1">  1        1 0.88436296E+00 0.30000000E+03</pdfrwt>
<pdfrwt beam="2">0</pdfrwt>
<totfact> 0.17532058E-04</totfact>
</mgrwt>
<clustering>
<clus scale="   32.749">  1  6  2 -1</clus>
<clus scale="  462.820">  4  5 -1 -1</clus>
<clus scale="  300.000">  1  4  2 -1</clus>
</clustering>
</event>
<event>
 6    1  0.1033679E-011  0.3000000E+03  0.7818608E-02  0.1093470E+00
          1   -1    0    0  502    0  0.00000000000E+00  0.00000000000E+00  0.23423855770E+03  0.23423855770E+03  0.00000000000E+00 0.  1.
         13   -1    0    0    0    0 -0.00000000000E+00 -0.00000000000E+00 -0.27500000000E+03  0.27500000000E+03  0.00000000000E+00 0.  1.
    9000005    2    1    2  501    0  0.54633640962E+01  0.35715729312E+02 -0.49654515481E+02  0.47202903717E+03  0.46801749898E+03 0.  0.
         13    1    3    3    0    0  0.10752014592E+01  0.20758371112E+03 -0.16484966166E+03  0.26508029751E+03  0.00000000000E+00 0.  1.
          1    1    3    3  501    0  0.43881626370E+01 -0.17186798181E+03  0.11519514618E+03  0.20694873965E+03  0.00000000000E+00 0.  1.
         21    1    1    2  502  501 -0.54633640962E+01 -0.35715729312E+02  0.88930731786E+01  0.37209520530E+02  0.00000000000E+00 0. -1.
<scales pt_clust_4="550.00000" pt_clust_5="550.00000" pt_clust_6="36.13117"></scales>
<mgrwt>
<rscale>  0 0.30000000E+03</rscale>
<asrwt>  1 0.36131173E+02</asrwt>
<pdfrwt beam="1">  1        1 0.85177657E+00 0.30000000E+03</pdfrwt>
<pdfrwt beam="2">0</pdfrwt>
<totfact> 0.38920342E-04</totfact>
</mgrwt>
<clustering>
<clus scale="   36.131">  1  6  2 -1</clus>
<clus scale="  468.017">  4  5 -1 -1</clus>
<clus scale="  300.000">  1  4  2 -1</clus>
</clustering>
</event>
<event>
 6    1  0.1033679E-011  0.3000000E+03  0.7818608E-02  0.1093470E+00
          1   -1    0    0  502    0  0.00000000000E+00  0.00000000000E+00  0.24488590061E+03  0.24488590061E+03  0.00000000000E+00 0.  1.
         13   -1    0    0    0    0 -0.00000000000E+00 -0.00000000000E+00 -0.27500000000E+03  0.27500000000E+03  0.00000000000E+00 0.  1.
    9000005    2    1    2  501    0  0.45734068323E+02 -0.57638220383E+01 -0.35858868910E+02  0.47343346228E+03  0.46981757958E+03 0.  0.
         13    1    3    3    0    0 -0.67031767970E+02 -0.19515251165E+03  0.83704834647E+02  0.22267523451E+03  0.00000000000E+00 0.  1.
          3    1    3    3  501    0  0.11276583629E+03  0.18938868961E+03 -0.11956370356E+03  0.25075822777E+03  0.00000000000E+00 0.  1.
         21    1    1    2  502  501 -0.45734068323E+02  0.57638220383E+01  0.57447695240E+01  0.46452438329E+02  0.00000000000E+00 0. -1.
<scales pt_clust_4="550.00000" pt_clust_5="550.00000" pt_clust_6="46.09584"></scales>
<mgrwt>
<rscale>  0 0.30000000E+03</rscale>
<asrwt>  1 0.46095842E+02</asrwt>
<pdfrwt beam="1">  1        1 0.89049418E+00 0.30000000E+03</pdfrwt>
<pdfrwt beam="2">0</pdfrwt>
<totfact> 0.13579784E-04</totfact>
</mgrwt>
<clustering>
<clus scale="   46.096">  1  6  2 -1</clus>
<clus scale="  469.818">  4  5 -1 -1</clus>
<clus scale="  300.000">  1  4  2 -1</clus>
</clustering>
</event>
<event>
 6    1  0.1033679E-011  0.3000000E+03  0.7818608E-02  0.1093470E+00
          1   -1    0    0  502    0  0.00000000000E+00  0.00000000000E+00  0.24556366822E+03  0.24556366822E+03  0.00000000000E+00 0.  1.
         13   -1    0    0    0    0 -0.00000000000E+00 -0.00000000000E+00 -0.27500000000E+03  0.27500000000E+03  0.00000000000E+00 0.  1.
    9000005    2    1    2  501    0  0.14179233812E+02 -0.34662696990E+02 -0.50326796250E+02  0.47768051605E+03  0.47354338319E+03 0.  0.
         13    1    3    3    0    0  0.87661495246E+02  0.20541577135E+03 -0.35785125679E+02  0.22618742690E+03  0.00000000000E+00 0.  1.
          1    1    3    3  501    0 -0.73482261434E+02 -0.24007846834E+03 -0.14541670570E+02  0.25149308915E+03  0.00000000000E+00 0.  1.
         21    1    1    2  502  501 -0.14179233812E+02  0.34662696990E+02  0.20890464466E+02  0.42883152167E+02  0.00000000000E+00 0. -1.
<scales pt_clust_4="550.00000" pt_clust_5="550.00000" pt_clust_6="37.45068"></scales>
<mgrwt>
<rscale>  0 0.30000000E+03</rscale>
<asrwt>  1 0.37450677E+02</asrwt>
<pdfrwt beam="1">  1        1 0.89295879E+00 0.30000000E+03</pdfrwt>
<pdfrwt beam="2">0</pdfrwt>
<totfact> 0.13141063E-04</totfact>
</mgrwt>
<clustering>
<clus scale="   37.451">  1  6  2 -1</clus>
<clus scale="  473.543">  4  5 -1 -1</clus>
<clus scale="  300.000">  1  4  2 -1</clus>
</clustering>
</event>
<event>
 6    1  0.1033679E-011  0.3000000E+03  0.7818608E-02  0.1093470E+00
          1   -1    0    0  502    0  0.00000000000E+00  0.00000000000E+00  0.24700713404E+03  0.24700713404E+03  0.00000000000E+00 0.  1.
         13   -1    0    0    0    0 -0.00000000000E+00 -0.00000000000E+00 -0.27500000000E+03  0.27500000000E+03  0.00000000000E+00 0.  1.
    9000005    2    1    2  501    0 -0.30845223110E+02  0.94312456280E+01 -0.53946483164E+02  0.48060705640E+03  0.47647932109E+03 0.  0.
         13    1    3    3    0    0  0.30388660816E+01  0.14025502599E+03 -0.22344191501E+03  0.26383137874E+03  0.00000000000E+00 0.  1.
          1    1    3    3  501    0 -0.33884089191E+02 -0.13082378036E+03  0.16949543185E+03  0.21677567766E+03  0.00000000000E+00 0.  1.
         21    1    1    2  502  501  0.30845223110E+02 -0.94312456280E+01  0.25953617202E+02  0.41400077640E+02  0.00000000000E+00 0.  1.
<scales pt_clust_4="550.00000" pt_clust_5="550.00000" pt_clust_6="32.25486"></scales>
<mgrwt>
<rscale>  0 0.30000000E+03</rscale>
<asrwt>  1 0.32254863E+02</asrwt>
<pdfrwt beam="1">  1        1 0.89820776E+00 0.30000000E+03</pdfrwt>
<pdfrwt beam="2">0</pdfrwt>
<totfact> 0.11784689E-04</totfact>
</mgrwt>
<clustering>
<clus scale="   32.255">  1  6  2 -1</clus>
<clus scale="  476.479">  4  5 -1 -1</clus>
<clus scale="  300.000">  1  4  2 -1</clus>
</clustering>
</event>
<event>
 6    1  0.1033679E-011  0.3000000E+03  0.7818608E-02  0.1093470E+00
          1   -1    0    0  502    0  0.00000000000E+00  0.00000000000E+00  0.23499242895E+03  0.23499242895E+03  0.00000000000E+00 0.  1.
         13   -1    0    0    0    0 -0.00000000000E+00 -0.00000000000E+00 -0.27500000000E+03  0.27500000000E+03  0.00000000000E+00 0.  1.
    9000005    2    1    2  501    0 -0.12847743503E+02 -0.30801879086E+02 -0.56003122621E+02  0.47298326875E+03  0.46846878499E+03 0.  0.
         13    1    3    3    0    0  0.40710008794E+02  0.14528136381E+03 -0.19196548626E+03  0.24416127334E+03  0.00000000000E+00 0.  1.
          3    1    3    3  501    0 -0.53557752296E+02 -0.17608324289E+03  0.13596236364E+03  0.22882199541E+03  0.00000000000E+00 0.  1.
         21    1    1    2  502  501  0.12847743503E+02  0.30801879086E+02  0.15995551567E+02  0.37009160195E+02  0.00000000000E+00 0.  1.
<scales pt_clust_4="550.00000" pt_clust_5="550.00000" pt_clust_6="33.37395"></scales>
<mgrwt>
<rscale>  0 0.30000000E+03</rscale>
<asrwt>  1 0.33373946E+02</asrwt>
<pdfrwt beam="1">  1        1 0.85451792E+00 0.30000000E+03</pdfrwt>
<pdfrwt beam="2">0</pdfrwt>
<totfact> 0.37165541E-04</totfact>
</mgrwt>
<clustering>
<clus scale="   33.374">  1  6  2 -1</clus>
<clus scale="  468.469">  4  5 -1 -1</clus>
<clus scale="  300.000">  1  4  2 -1</clus>
</clustering>
</event>
<event>
 6    1  0.1033679E-011  0.3000000E+03  0.7818608E-02  0.1093470E+00
          1   -1    0    0  502    0  0.00000000000E+00  0.00000000000E+00  0.22929759430E+03  0.22929759430E+03  0.00000000000E+00 0.  1.
         13   -1    0    0    0    0 -0.00000000000E+00 -0.00000000000E+00 -0.27500000000E+03  0.27500000000E+03  0.00000000000E+00 0.  1.
    9000005    2    1    2  501    0 -0.29947505408E+02  0.30733920455E+01 -0.63535532576E+02  0.46930732089E+03  0.46401109763E+03 0.  0.
         13    1    3    3    0    0 -0.34002600464E+02  0.22172245586E+03 -0.10342965906E+03  0.24701157593E+03  0.00000000000E+00 0.  1.
          1    1    3    3  501    0  0.40550950566E+01 -0.21864906381E+03  0.39894126485E+02  0.22229574496E+03  0.00000000000E+00 0.  1.
         21    1    1    2  502  501  0.29947505408E+02 -0.30733920455E+01  0.17833126871E+02  0.34990273403E+02  0.00000000000E+00 0. -1.
<scales pt_clust_4="550.00000" pt_clust_5="550.00000" pt_clust_6="30.10480"></scales>
<mgrwt>
<rscale>  0 0.30000000E+03</rscale>
<asrwt>  1 0.30104797E+02</asrwt>
<pdfrwt beam="1">  1        1 0.83380943E+00 0.30000000E+03</pdfrwt>
<pdfrwt beam="2">0</pdfrwt>
<totfact> 0.56801340E-04</totfact>
</mgrwt>
<clustering>
<clus scale="   30.105">  1  6  2 -1</clus>
<clus scale="  464.011">  4  5 -1 -1</clus>
<clus scale="  300.000">  1  4  2 -1</clus>
</clustering>
</event>
<event>
 6    1  0.1033679E-011  0.3000000E+03  0.7818608E-02  0.1093470E+00
          1   -1    0    0  502    0  0.00000000000E+00  0.00000000000E+00  0.23223504722E+03  0.23223504722E+03  0.00000000000E+00 0.  1.
         13   -1    0    0    0    0 -0.00000000000E+00 -0.00000000000E+00 -0.27500000000E+03  0.27500000000E+03  0.00000000000E+00 0.  1.
    9000005    2    1    2  501    0 -0.45172278091E+02  0.15981360991E+01 -0.51565960629E+02  0.46118565541E+03  0.45605928530E+03 0.  0.
         13    1    3    3    0    0  0.17771963159E+03 -0.69931158553E+02  0.62280089784E+02  0.20088166660E+03  0.00000000000E+00 0.  1.
          1    1    3    3  501    0 -0.22289190969E+03  0.71529294652E+02 -0.11384605041E+03  0.26030398881E+03  0.00000000000E+00 0.  1.
         21    1    1    2  502  501  0.45172278091E+02 -0.15981360991E+01  0.88010078455E+01  0.46049391809E+02  0.00000000000E+00 0.  1.
<scales pt_clust_4="550.00000" pt_clust_5="550.00000" pt_clust_6="45.20054"></scales>
<mgrwt>
<rscale>  0 0.30000000E+03</rscale>
<asrwt>  1 0.45200539E+02</asrwt>
<pdfrwt beam="1">  1        1 0.84449108E+00 0.30000000E+03</pdfrwt>
<pdfrwt beam="2">0</pdfrwt>
<totfact> 0.43561459E-04</totfact>
</mgrwt>
<clustering>
<clus scale="   45.201">  1  6  2 -1</clus>
<clus scale="  456.059">  4  5 -1 -1</clus>
<clus scale="  300.000">  1  4  2 -1</clus>
</clustering>
</event>
<event>
 6    1  0.1033679E-011  0.3000000E+03  0.7818608E-02  0.1093470E+00
          1   -1    0    0  502    0  0.00000000000E+00  0.00000000000E+00  0.23288001668E+03  0.23288001668E+03  0.00000000000E+00 0.  1.
         13   -1    0    0    0    0 -0.00000000000E+00 -0.00000000000E+00 -0.27500000000E+03  0.27500000000E+03  0.00000000000E+00 0.  1.
    9000005    2    1    2  501    0  0.34901493969E+02  0.12776645370E+02 -0.64088768654E+02  0.46470613016E+03  0.45876253137E+03 0.  0.
         13    1    3    3    0    0  0.10755307701E+03  0.15050815443E+03  0.12235251266E+03  0.22178932859E+03  0.00000000000E+00 0.  1.
          3    1    3    3  501    0 -0.72651583040E+02 -0.13773150906E+03 -0.18644128131E+03  0.24291680157E+03  0.00000000000E+00 0.  1.
         21    1    1    2  502  501 -0.34901493969E+02 -0.12776645370E+02  0.21968785330E+02  0.43173886518E+02  0.00000000000E+00 0. -1.
<scales pt_clust_4="550.00000" pt_clust_5="550.00000" pt_clust_6="37.16661"></scales>
<mgrwt>
<rscale>  0 0.30000000E+03</rscale>
<asrwt>  1 0.37166611E+02</asrwt>
<pdfrwt beam="1">  1        1 0.84683642E+00 0.30000000E+03</pdfrwt>
<pdfrwt beam="2">0</pdfrwt>
<totfact> 0.43035522E-04</totfact>
</mgrwt>
<clustering>
<clus scale="   37.167">  1  6  2 -1</clus>
<clus scale="  458.763">  4  5 -1 -1</clus>
<clus scale="  300.000">  1  4  2 -1</clus>
</clustering>
</event>
<event>
 6    1  0.1033679E-011  0.3000000E+03  0.7818608E-02  0.1093470E+00
          1   -1    0    0  502    0  0.00000000000E+00  0.00000000000E+00  0.24705164125E+03  0.24705164125E+03  0.00000000000E+00 0.  1.
         13   -1    0    0    0    0 -0.00000000000E+00 -0.00000000000E+00 -0.27500000000E+03  0.27500000000E+03  0.00000000000E+00 0.  1.
    9000005    2    1    2  501    0  0.16226467420E+02 -0.25623333421E+02 -0.43695779635E+02  0.48787804435E+03  0.48496990787E+03 0.  0.
         13    1    3    3    0    0  0.98352700532E+02 -0.23833693918E+03 -0.27245039275E+02  0.25926828275E+03  0.00000000000E+00 0.  1.
          1    1    3    3  501    0 -0.82126233112E+02  0.21271360575E+03 -0.16450740360E+02  0.22860976160E+03  0.00000000000E+00 0.  1.
         21    1    1    2  502  501 -0.16226467420E+02  0.25623333421E+02  0.15747420883E+02  0.34173596899E+02  0.00000000000E+00 0.  1.
<scales pt_clust_4="550.00000" pt_clust_5="550.00000" pt_clust_6="30.32909"></scales>
<mgrwt>
<rscale>  0 0.30000000E+03</rscale>
<asrwt>  1 0.30329086E+02</asrwt>
<pdfrwt beam="1">  1        1 0.89836960E+00 0.30000000E+03</pdfrwt>
<pdfrwt beam="2">0</pdfrwt>
<totfact> 0.11872795E-04</totfact>
</mgrwt>
<clustering>
<clus scale="   30.329">  1  6  2 -1</clus>
<clus scale="  484.970">  4  5 -1 -1</clus>
<clus scale="  300.000">  1  4  2 -1</clus>
</clustering>
</event>
<event>
 6    1  0.1033679E-011  0.3000000E+03  0.7818608E-02  0.1093470E+00
          1   -1    0    0  502    0  0.00000000000E+00  0.00000000000E+00  0.24960905103E+03  0.24960905103E+03  0.00000000000E+00 0.  1.
         13   -1    0    0    0    0 -0.00000000000E+00 -0.00000000000E+00 -0.27500000000E+03  0.27500000000E+03  0.00000000000E+00 0.  1.
    9000005    2    1    2  501    0  0.36394015447E+02 -0.19066364443E+02 -0.70063767019E+02  0.46391546582E+03  0.45675001627E+03 0.  0.
         13    1    3    3    0    0 -0.20260536463E+03  0.38357471499E+02 -0.71082408651E+02  0.21811221473E+03  0.00000000000E+00 0.  1.
          3    1    3    3  501    0  0.23899938008E+03 -0.57423835942E+02  0.10186416319E+01  0.24580325108E+03  0.00000000000E+00 0.  1.
         21    1    1    2  502  501 -0.36394015447E+02  0.19066364443E+02  0.44672818046E+02  0.60693585210E+02  0.00000000000E+00 0.  1.
<scales pt_clust_4="550.00000" pt_clust_5="550.00000" pt_clust_6="41.08589"></scales>
<mgrwt>
<rscale>  0 0.30000000E+03</rscale>
<asrwt>  1 0.41085893E+02</asrwt>
<pdfrwt beam="1">  1        1 0.90766928E+00 0.30000000E+03</pdfrwt>
<pdfrwt beam="2">0</pdfrwt>
<totfact> 0.79082055E-05</totfact>
</mgrwt>
<clustering>
<clus scale="   41.086">  1  6  2 -1</clus>
<clus scale="  456.750">  4  5 -1 -1</clus>
<clus scale="  300.000">  1  4  2 -1</clus>
</clustering>
</event>
<event>
 6    1  0.1033679E-011  0.3000000E+03  0.7818608E-02  0.1093470E+00
          1   -1    0    0  502    0  0.00000000000E+00  0.00000000000E+00  0.24341758789E+03  0.24341758789E+03  0.00000000000E+00 0.  1.
         13   -1    0    0    0    0 -0.00000000000E+00 -0.00000000000E+00 -0.27500000000E+03  0.27500000000E+03  0.00000000000E+00 0.  1.
    9000005    2    1    2  501    0 -0.27940522390E+02 -0.26631405743E+02 -0.34154000850E+02  0.47973273773E+03  0.47695607692E+03 0.  0.
         13    1    3    3    0    0 -0.79874838792E+02  0.13350530809E+03  0.15972098651E+03  0.22296737585E+03  0.00000000000E+00 0.  1.
          3    1    3    3  501    0  0.51934316402E+02 -0.16013671384E+03 -0.19387498736E+03  0.25676536188E+03  0.00000000000E+00 0.  1.
         21    1    1    2  502  501  0.27940522390E+02  0.26631405743E+02  0.25715887386E+01  0.38684850161E+02  0.00000000000E+00 0. -1.
<scales pt_clust_4="550.00000" pt_clust_5="550.00000" pt_clust_6="38.59928"></scales>
<mgrwt>
<rscale>  0 0.30000000E+03</rscale>
<asrwt>  1 0.38599282E+02</asrwt>
<pdfrwt beam="1">  1        1 0.88515487E+00 0.30000000E+03</pdfrwt>
<pdfrwt beam="2">0</pdfrwt>
<totfact> 0.16584348E-04</totfact>
</mgrwt>
<clustering>
<clus scale="   38.599">  1  6  2 -1</clus>
<clus scale="  476.956">  4  5 -1 -1</clus>
<clus scale="  300.000">  1  4  2 -1</clus>
</clustering>
</event>
<event>
 6    1  0.1033679E-011  0.3000000E+03  0.7818608E-02  0.1093470E+00
          1   -1    0    0  502    0  0.00000000000E+00  0.00000000000E+00  0.25176572279E+03  0.25176572279E+03  0.00000000000E+00 0.  1.
         13   -1    0    0    0    0 -0.00000000000E+00 -0.00000000000E+00 -0.27500000000E+03  0.27500000000E+03  0.00000000000E+00 0.  1.
    9000005    2    1    2  501    0  0.43845283186E+02 -0.11950735288E+02 -0.25626385889E+02  0.48125801888E+03  0.47842171789E+03 0.  0.
         13    1    3    3    0    0  0.22989008021E+03 -0.70179780175E+02 -0.11540654831E+03  0.26663330984E+03  0.00000000000E+00 0.  1.
          3    1    3    3  501    0 -0.18604479702E+03  0.58229044888E+02  0.89780162418E+02  0.21462470904E+03  0.00000000000E+00 0.  1.
         21    1    1    2  502  501 -0.43845283186E+02  0.11950735288E+02  0.23921086793E+01  0.45507703914E+02  0.00000000000E+00 0.  1.
<scales pt_clust_4="550.00000" pt_clust_5="550.00000" pt_clust_6="45.44479"></scales>
<mgrwt>
<rscale>  0 0.30000000E+03</rscale>
<asrwt>  1 0.45444790E+02</asrwt>
<pdfrwt beam="1">  1        1 0.91551172E+00 0.30000000E+03</pdfrwt>
<pdfrwt beam="2">0</pdfrwt>
<totfact> 0.50234934E-05</totfact>
</mgrwt>
<clustering>
<clus scale="   45.445">  1  6  2 -1</clus>
<clus scale="  478.422">  4  5 -1 -1</clus>
<clus scale="  300.000">  1  4  2 -1</clus>
</clustering>
</event>
<event>
 6    1  0.1033679E-011  0.3000000E+03  0.7818608E-02  0.1093470E+00
          1   -1    0    0  502    0  0.00000000000E+00  0.00000000000E+00  0.23071090567E+03  0.23071090567E+03  0.00000000000E+00 0.  1.
         13   -1    0    0    0    0 -0.00000000000E+00 -0.00000000000E+00 -0.27500000000E+03  0.27500000000E+03  0.00000000000E+00 0.  1.
    9000005    2    1    2  501    0  0.35674188278E+02 -0.24872631665E+01 -0.49988189404E+02  0.46949883763E+03  0.46545838188E+03 0.  0.
         13    1    3    3    0    0 -0.23746007035E+02 -0.43321852428E+02 -0.25106882075E+03  0.25588319308E+03  0.00000000000E+00 0.  1.
          3    1    3    3  501    0  0.59420195314E+02  0.40834589262E+02  0.20108063135E+03  0.21361564455E+03  0.00000000000E+00 0.  1.
         21    1    1    2  502  501 -0.35674188278E+02  0.24872631665E+01  0.56990950747E+01  0.36212068044E+02  0.00000000000E+00 0. -1.
<scales pt_clust_4="550.00000" pt_clust_5="550.00000" pt_clust_6="35.76079"></scales>
<mgrwt>
<rscale>  0 0.30000000E+03</rscale>
<asrwt>  1 0.35760791E+02</asrwt>
<pdfrwt beam="1">  1        1 0.83894875E+00 0.30000000E+03</pdfrwt>
<pdfrwt beam="2">0</pdfrwt>
<totfact> 0.50419687E-04</totfact>
</mgrwt>
<clustering>
<clus scale="   35.761">  1  6  2 -1</clus>
<clus scale="  465.458">  4  5 -1 -1</clus>
<clus scale="  300.000">  1  4  2 -1</clus>
</clustering>
</event>
<event>
 6    1  0.1033679E-011  0.3000000E+03  0.7818608E-02  0.1093470E+00
          1   -1    0    0  502    0  0.00000000000E+00  0.00000000000E+00  0.24733179399E+03  0.24733179399E+03  0.00000000000E+00 0.  1.
         13   -1    0    0    0    0 -0.00000000000E+00 -0.00000000000E+00 -0.27500000000E+03  0.27500000000E+03  0.00000000000E+00 0.  1.
    9000005    2    1    2  501    0 -0.55048867027E+01  0.35514073649E+02 -0.32287192582E+02  0.48609799428E+03  0.48369126934E+03 0.  0.
         13    1    3    3    0    0 -0.44815778606E+02  0.18400893572E+03  0.15439077378E+03  0.24434453844E+03  0.00000000000E+00 0.  1.
          3    1    3    3  501    0  0.39310891903E+02 -0.14849486208E+03 -0.18667796636E+03  0.24175345584E+03  0.00000000000E+00 0.  1.
         21    1    1    2  502  501  0.55048867027E+01 -0.35514073649E+02  0.46189865768E+01  0.36233799714E+02  0.00000000000E+00 0.  1.
<scales pt_clust_4="550.00000" pt_clust_5="550.00000" pt_clust_6="35.93819"></scales>
<mgrwt>
<rscale>  0 0.30000000E+03</rscale>
<asrwt>  1 0.35938186E+02</asrwt>
<pdfrwt beam="1">  1        1 0.89938834E+00 0.30000000E+03</pdfrwt>
<pdfrwt beam="2">0</pdfrwt>
<totfact> 0.11182507E-04</totfact>
</mgrwt>
<clustering>
<clus scale="   35.938">  1  6  2 -1</clus>
<clus scale="  483.691">  4  5 -1 -1</clus>
<clus scale="  300.000">  1  4  2 -1</clus>
</clustering>
</event>
<event>
 6    1  0.1033679E-011  0.3000000E+03  0.7818608E-02  0.1093470E+00
          1   -1    0    0  502    0  0.00000000000E+00  0.00000000000E+00  0.22152535947E+03  0.22152535947E+03  0.00000000000E+00 0.  1.
         13   -1    0    0    0    0 -0.00000000000E+00 -0.00000000000E+00 -0.27500000000E+03  0.27500000000E+03  0.00000000000E+00 0.  1.
    9000005    2    1    2  501    0  0.14996136305E+01 -0.33098253668E+02 -0.56942767866E+02  0.46321213170E+03  0.45850327906E+03 0.  0.
         13    1    3    3    0    0 -0.17981617960E+02 -0.20462912286E+03 -0.16157232705E+03  0.26134657713E+03  0.00000000000E+00 0.  1.
          1    1    3    3  501    0  0.19481231590E+02  0.17153086919E+03  0.10462955918E+03  0.20186555458E+03  0.00000000000E+00 0.  1.
         21    1    1    2  502  501 -0.14996136305E+01  0.33098253668E+02  0.34681273360E+01  0.33313227765E+02  0.00000000000E+00 0. -1.
<scales pt_clust_4="550.00000" pt_clust_5="550.00000" pt_clust_6="33.13221"></scales>
<mgrwt>
<rscale>  0 0.30000000E+03</rscale>
<asrwt>  1 0.33132208E+02</asrwt>
<pdfrwt beam="1">  1        1 0.80554676E+00 0.30000000E+03</pdfrwt>
<pdfrwt beam="2">0</pdfrwt>
<totfact> 0.95364937E-04</totfact>
</mgrwt>
<clustering>
<clus scale="   33.132">  1  6  2 -1</clus>
<clus scale="  458.503">  4  5 -1 -1</clus>
<clus scale="  300.000">  1  4  2 -1</clus>
</clustering>
</event>
<event>
 6    1  0.1033679E-011  0.3000000E+03  0.7818608E-02  0.1093470E+00
          1   -1    0    0  502    0  0.00000000000E+00  0.00000000000E+00  0.23822152362E+03  0.23822152362E+03  0.00000000000E+00 0.  1.
         13   -1    0    0    0    0 -0.00000000000E+00 -0.00000000000E+00 -0.27500000000E+03  0.27500000000E+03  0.00000000000E+00 0.  1.
    9000005    2    1    2  501    0 -0.25137374397E+02  0.36060541916E+02 -0.39874508288E+02  0.46915525888E+03  0.46538632366E+03 0.  0.
         13    1    3    3    0    0 -0.86297172267E+00  0.38793932511E+02 -0.25233194518E+03  0.25529810904E+03  0.00000000000E+00 0.  1.
          1    1    3    3  501    0 -0.24274402674E+02 -0.27333905945E+01  0.21245743689E+03  0.21385714984E+03  0.00000000000E+00 0.  1.
         21    1    1    2  502  501  0.25137374397E+02 -0.36060541916E+02  0.30960319127E+01  0.44066264744E+02  0.00000000000E+00 0.  1.
<scales pt_clust_4="550.00000" pt_clust_5="550.00000" pt_clust_6="43.95737"></scales>
<mgrwt>
<rscale>  0 0.30000000E+03</rscale>
<asrwt>  1 0.43957369E+02</asrwt>
<pdfrwt beam="1">  1        1 0.86626009E+00 0.30000000E+03</pdfrwt>
<pdfrwt beam="2">0</pdfrwt>
<totfact> 0.26564190E-04</totfact>
</mgrwt>
<clustering>
<clus scale="   43.957">  1  6  2 -1</clus>
<clus scale="  465.386">  4  5 -1 -1</clus>
<clus scale="  300.000">  1  4  2 -1</clus>
</clustering>
</event>
<event>
 6    1  0.1033679E-011  0.3000000E+03  0.7818608E-02  0.1093470E+00
          1   -1    0    0  502    0  0.00000000000E+00  0.00000000000E+00  0.23524174837E+03  0.23524174837E+03  0.00000000000E+00 0.  1.
         13   -1    0    0    0    0 -0.00000000000E+00 -0.00000000000E+00 -0.27500000000E+03  0.27500000000E+03  0.00000000000E+00 0.  1.
    9000005    2    1    2  501    0 -0.27576413891E+02 -0.22353499444E+02 -0.13781143209E+02  0.46625370792E+03  0.46469609714E+03 0.  0.
         13    1    3    3    0    0 -0.12469038611E+03 -0.28528759584E+02  0.19654769737E+03  0.23450496765E+03  0.00000000000E+00 0.  1.
          1    1    3    3  501    0  0.97113972219E+02  0.61752601400E+01 -0.21032884058E+03  0.23174874027E+03  0.00000000000E+00 0.  1.
         21    1    1    2  502  501  0.27576413891E+02  0.22353499444E+02 -0.25977108422E+02  0.43988040448E+02  0.00000000000E+00 0.  1.
<scales pt_clust_4="550.00000" pt_clust_5="550.00000" pt_clust_6="35.49843"></scales>
<mgrwt>
<rscale>  0 0.30000000E+03</rscale>
<asrwt>  1 0.35498434E+02</asrwt>
<pdfrwt beam="1">  1        1 0.85542454E+00 0.30000000E+03</pdfrwt>
<pdfrwt beam="2">0</pdfrwt>
<totfact> 0.35985614E-04</totfact>
</mgrwt>
<clustering>
<clus scale="   35.498">  1  6  2 -1</clus>
<clus scale="  464.696">  4  5 -1 -1</clus>
<clus scale="  300.000">  1  4  2 -1</clus>
</clustering>
</event>
<event>
 6    1  0.1033679E-011  0.3000000E+03  0.7818608E-02  0.1093470E+00
          1   -1    0    0  502    0  0.00000000000E+00  0.00000000000E+00  0.24351695012E+03  0.24351695012E+03  0.00000000000E+00 0.  1.
         13   -1    0    0    0    0 -0.00000000000E+00 -0.00000000000E+00 -0.27500000000E+03  0.27500000000E+03  0.00000000000E+00 0.  1.
    9000005    2    1    2  501    0 -0.48209557060E+02 -0.13625440745E+02 -0.35672929724E+02  0.46824400391E+03  0.46418754320E+03 0.  0.
         13    1    3    3    0    0  0.18736770915E+03  0.15841988785E+01  0.81931361581E+02  0.20450407363E+03  0.00000000000E+00 0.  1.
          1    1    3    3  501    0 -0.23557726621E+03 -0.15209639623E+02 -0.11760429130E+03  0.26373993029E+03  0.00000000000E+00 0.  1.
         21    1    1    2  502  501  0.48209557060E+02  0.13625440745E+02  0.41898798451E+01  0.50272946209E+02  0.00000000000E+00 0. -1.
<scales pt_clust_4="550.00000" pt_clust_5="550.00000" pt_clust_6="50.09804"></scales>
<mgrwt>
<rscale>  0 0.30000000E+03</rscale>
<asrwt>  1 0.50098044E+02</asrwt>
<pdfrwt beam="1">  1        1 0.88551618E+00 0.30000000E+03</pdfrwt>
<pdfrwt beam="2">0</pdfrwt>
<totfact> 0.15646541E-04</totfact>
</mgrwt>
<clustering>
<clus scale="   50.098">  1  6  2 -1</clus>
<clus scale="  464.188">  4  5 -1 -1</clus>
<clus scale="  300.000">  1  4  2 -1</clus>
</clustering>
</event>
<event>
 6    1  0.1033679E-011  0.3000000E+03  0.7818608E-02  0.1093470E+00
          1   -1    0    0  502    0  0.00000000000E+00  0.00000000000E+00  0.24266480510E+03  0.24266480510E+03  0.00000000000E+00 0.  1.
         13   -1    0    0    0    0 -0.00000000000E+00 -0.00000000000E+00 -0.27500000000E+03  0.27500000000E+03  0.00000000000E+00 0.  1.
    9000005    2    1    2  501    0  0.25968065753E+02 -0.15604538295E+02 -0.67796533922E+02  0.47102417239E+03  0.46513391503E+03 0.  0.
         13    1    3    3    0    0  0.54354256440E+00  0.17796908689E+02  0.19957997084E+03  0.20037262826E+03  0.00000000000E+00 0.  1.
          1    1    3    3  501    0  0.25424523188E+02 -0.33401446983E+02 -0.26737650476E+03  0.27065154413E+03  0.00000000000E+00 0.  1.
         21    1    1    2  502  501 -0.25968065753E+02  0.15604538295E+02  0.35461339017E+02  0.46640632706E+02  0.00000000000E+00 0.  1.
<scales pt_clust_4="550.00000" pt_clust_5="550.00000" pt_clust_6="30.29591"></scales>
<mgrwt>
<rscale>  0 0.30000000E+03</rscale>
<asrwt>  1 0.30295908E+02</asrwt>
<pdfrwt beam="1">  1        1 0.88241747E+00 0.30000000E+03</pdfrwt>
<pdfrwt beam="2">0</pdfrwt>
<totfact> 0.18894740E-04</totfact>
</mgrwt>
<clustering>
<clus scale="   30.296">  1  6  2 -1</clus>
<clus scale="  465.134">  4  5 -1 -1</clus>
<clus scale="  300.000">  1  4  2 -1</clus>
</clustering>
</event>
<event>
 6    1  0.1033679E-011  0.3000000E+03  0.7818608E-02  0.1093470E+00
          1   -1    0    0  502    0  0.00000000000E+00  0.00000000000E+00  0.25454227907E+03  0.25454227907E+03  0.00000000000E+00 0.  1.
         13   -1    0    0    0    0 -0.00000000000E+00 -0.00000000000E+00 -0.27500000000E+03  0.27500000000E+03  0.00000000000E+00 0.  1.
    9000005    2    1    2  501    0  0.14236163073E+02 -0.29053760856E+02 -0.43710047913E+02  0.48969933655E+03  0.48667040445E+03 0.  0.
         13    1    3    3    0    0 -0.19290407910E+03 -0.14056152937E+03 -0.79865523022E+02  0.25169034355E+03  0.00000000000E+00 0.  1.
          3    1    3    3  501    0  0.20714024217E+03  0.11150776851E+03  0.36155475109E+02  0.23800899299E+03  0.00000000000E+00 0.  1.
         21    1    1    2  502  501 -0.14236163073E+02  0.29053760856E+02  0.23252326983E+02  0.39842942525E+02  0.00000000000E+00 0.  1.
<scales pt_clust_4="550.00000" pt_clust_5="550.00000" pt_clust_6="32.35412"></scales>
<mgrwt>
<rscale>  0 0.30000000E+03</rscale>
<asrwt>  1 0.32354124E+02</asrwt>
<pdfrwt beam="1">  1        1 0.92560829E+00 0.30000000E+03</pdfrwt>
<pdfrwt beam="2">0</pdfrwt>
<totfact> 0.32336242E-05</totfact>
</mgrwt>
<clustering>
<clus scale="   32.354">  1  6  2 -1</clus>
<clus scale="  486.670">  4  5 -1 -1</clus>
<clus scale="  300.000">  1  4  2 -1</clus>
</clustering>
</event>
<event>
 6    1  0.1033679E-011  0.3000000E+03  0.7818608E-02  0.1093470E+00
          1   -1    0    0  502    0  0.00000000000E+00  0.00000000000E+00  0.22632297185E+03  0.22632297185E+03  0.00000000000E+00 0.  1.
         13   -1    0    0    0    0 -0.00000000000E+00 -0.00000000000E+00 -0.27500000000E+03  0.27500000000E+03  0.00000000000E+00 0.  1.
    9000005    2    1    2  501    0 -0.29542569884E+02 -0.27463498748E+02 -0.45741157103E+02  0.46088009191E+03  0.45682731799E+03 0.  0.
         13    1    3    3    0    0 -0.17862963274E+03  0.83304609986E+02 -0.15018292511E+03  0.24779651880E+03  0.00000000000E+00 0.  1.
          1    1    3    3  501    0  0.14908706285E+03 -0.11076810873E+03  0.10444176800E+03  0.21308357310E+03  0.00000000000E+00 0.  1.
         21    1    1    2  502  501  0.29542569884E+02  0.27463498748E+02 -0.29358710496E+01  0.40442879938E+02  0.00000000000E+00 0. -1.
<scales pt_clust_4="550.00000" pt_clust_5="550.00000" pt_clust_6="40.33618"></scales>
<mgrwt>
<rscale>  0 0.30000000E+03</rscale>
<asrwt>  1 0.40336177E+02</asrwt>
<pdfrwt beam="1">  1        1 0.82299262E+00 0.30000000E+03</pdfrwt>
<pdfrwt beam="2">0</pdfrwt>
<totfact> 0.66309947E-04</totfact>
</mgrwt>
<clustering>
<clus scale="   40.336">  1  6  2 -1</clus>
<clus scale="  456.827">  4  5 -1 -1</clus>
<clus scale="  300.000">  1  4  2 -1</clus>
</clustering>
</event>
<event>
 6    1  0.1033679E-011  0.3000000E+03  0.7818608E-02  0.1093470E+00
          1   -1    0    0  502    0  0.00000000000E+00  0.00000000000E+00  0.22355954718E+03  0.22355954718E+03  0.00000000000E+00 0.  1.
         13   -1    0    0    0    0 -0.00000000000E+00 -0.00000000000E+00 -0.27500000000E+03  0.27500000000E+03  0.00000000000E+00 0.  1.
    9000005    2    1    2  501    0 -0.27571434182E+02  0.13968097394E+02 -0.66777987445E+02  0.46405546487E+03  0.45818433315E+03 0.  0.
         13    1    3    3    0    0  0.61088505302E+00  0.23362311657E+03 -0.65363461882E+02  0.24259537490E+03  0.00000000000E+00 0.  1.
          1    1    3    3  501    0 -0.28182319235E+02 -0.21965501917E+03 -0.14145255626E+01  0.22146008997E+03  0.00000000000E+00 0.  1.
         21    1    1    2  502  501  0.27571434182E+02 -0.13968097394E+02  0.15337534623E+02  0.34504082309E+02  0.00000000000E+00 0.  1.
<scales pt_clust_4="550.00000" pt_clust_5="550.00000" pt_clust_6="30.90779"></scales>
<mgrwt>
<rscale>  0 0.30000000E+03</rscale>
<asrwt>  1 0.30907794E+02</asrwt>
<pdfrwt beam="1">  1        1 0.81294381E+00 0.30000000E+03</pdfrwt>
<pdfrwt beam="2">0</pdfrwt>
<totfact> 0.84651648E-04</totfact>
</mgrwt>
<clustering>
<clus scale="   30.908">  1  6  2 -1</clus>
<clus scale="  458.184">  4  5 -1 -1</clus>
<clus scale="  300.000">  1  4  2 -1</clus>
</clustering>
</event>
<event>
 6    1  0.1033679E-011  0.3000000E+03  0.7818608E-02  0.1093470E+00
          1   -1    0    0  502    0  0.00000000000E+00  0.00000000000E+00  0.24653923578E+03  0.24653923578E+03  0.00000000000E+00 0.  1.
         13   -1    0    0    0    0 -0.00000000000E+00 -0.00000000000E+00 -0.27500000000E+03  0.27500000000E+03  0.00000000000E+00 0.  1.
    9000005    2    1    2  501    0 -0.30543848087E+02  0.14992518053E+01 -0.74886256358E+02  0.46594696355E+03  0.45887192879E+03 0.  0.
         13    1    3    3    0    0  0.18676608634E+03  0.50142937783E+02 -0.13433477310E+03  0.23546064741E+03  0.00000000000E+00 0.  1.
          1    1    3    3  501    0 -0.21730993442E+03 -0.48643685978E+02  0.59448516738E+02  0.23048631614E+03  0.00000000000E+00 0.  1.
         21    1    1    2  502  501  0.30543848087E+02 -0.14992518053E+01  0.46425492137E+02  0.55592272233E+02  0.00000000000E+00 0. -1.
<scales pt_clust_4="550.00000" pt_clust_5="550.00000" pt_clust_6="30.58062"></scales>
<mgrwt>
<rscale>  0 0.30000000E+03</rscale>
<asrwt>  1 0.30580622E+02</asrwt>
<pdfrwt beam="1">  1        1 0.89650631E+00 0.30000000E+03</pdfrwt>
<pdfrwt beam="2">0</pdfrwt>
<totfact> 0.12444622E-04</totfact>
</mgrwt>
<clustering>
<clus scale="   30.581">  1  6  2 -1</clus>
<clus scale="  458.872">  4  5 -1 -1</clus>
<clus scale="  300.000">  1  4  2 -1</clus>
</clustering>
</event>
<event>
 6    1  0.1033679E-011  0.3000000E+03  0.7818608E-02  0.1093470E+00
          1   -1    0    0  502    0  0.00000000000E+00  0.00000000000E+00  0.22468137274E+03  0.22468137274E+03  0.00000000000E+00 0.  1.
         13   -1    0    0    0    0 -0.00000000000E+00 -0.00000000000E+00 -0.27500000000E+03  0.27500000000E+03  0.00000000000E+00 0.  1.
    9000005    2    1    2  501    0  0.33993579116E+02  0.51883869617E+01 -0.50965806157E+02  0.46528803587E+03  0.46120815273E+03 0.  0.
         13    1    3    3    0    0 -0.60410418283E+01  0.22380932862E+03  0.35725093805E+02  0.22672316179E+03  0.00000000000E+00 0.  1.
          3    1    3    3  501    0  0.40034620944E+02 -0.21862094166E+03 -0.86690899962E+02  0.23856487408E+03  0.00000000000E+00 0.  1.
         21    1    1    2  502  501 -0.33993579116E+02 -0.51883869617E+01  0.64717889369E+00  0.34393336867E+02  0.00000000000E+00 0. -1.
<scales pt_clust_4="550.00000" pt_clust_5="550.00000" pt_clust_6="34.38725"></scales>
<mgrwt>
<rscale>  0 0.30000000E+03</rscale>
<asrwt>  1 0.34387247E+02</asrwt>
<pdfrwt beam="1">  1        1 0.81702317E+00 0.30000000E+03</pdfrwt>
<pdfrwt beam="2">0</pdfrwt>
<totfact> 0.76890341E-04</totfact>
</mgrwt>
<clustering>
<clus scale="   34.387">  1  6  2 -1</clus>
<clus scale="  461.208">  4  5 -1 -1</clus>
<clus scale="  300.000">  1  4  2 -1</clus>
</clustering>
</event>
<event>
 6    1  0.1033679E-011  0.3000000E+03  0.7818608E-02  0.1093470E+00
          1   -1    0    0  502    0  0.00000000000E+00  0.00000000000E+00  0.22649767738E+03  0.22649767738E+03  0.00000000000E+00 0.  1.
         13   -1    0    0    0    0 -0.00000000000E+00 -0.00000000000E+00 -0.27500000000E+03  0.27500000000E+03  0.00000000000E+00 0.  1.
    9000005    2    1    2  501    0  0.28379174491E+02 -0.19245177203E+02 -0.55070848295E+02  0.46658493014E+03  0.46205296700E+03 0.  0.
         13    1    3    3    0    0  0.84466150363E+02  0.16348262024E+03 -0.16408069355E+03  0.24654324504E+03  0.00000000000E+00 0.  1.
          1    1    3    3  501    0 -0.56086975872E+02 -0.18272779745E+03  0.10900984525E+03  0.22004168511E+03  0.00000000000E+00 0.  1.
         21    1    1    2  502  501 -0.28379174491E+02  0.19245177203E+02  0.65685256793E+01  0.34912747242E+02  0.00000000000E+00 0. -1.
<scales pt_clust_4="550.00000" pt_clust_5="550.00000" pt_clust_6="34.28928"></scales>
<mgrwt>
<rscale>  0 0.30000000E+03</rscale>
<asrwt>  1 0.34289275E+02</asrwt>
<pdfrwt beam="1">  1        1 0.82362792E+00 0.30000000E+03</pdfrwt>
<pdfrwt beam="2">0</pdfrwt>
<totfact> 0.67446017E-04</totfact>
</mgrwt>
<clustering>
<clus scale="   34.289">  1  6  2 -1</clus>
<clus scale="  462.053">  4  5 -1 -1</clus>
<clus scale="  300.000">  1  4  2 -1</clus>
</clustering>
</event>
<event>
 6    1  0.1033679E-011  0.3000000E+03  0.7818608E-02  0.1093470E+00
          1   -1    0    0  502    0  0.00000000000E+00  0.00000000000E+00  0.25148373720E+03  0.25148373720E+03  0.00000000000E+00 0.  1.
         13   -1    0    0    0    0 -0.00000000000E+00 -0.00000000000E+00 -0.27500000000E+03  0.27500000000E+03  0.00000000000E+00 0.  1.
    9000005    2    1    2  501    0  0.24215483434E+02 -0.21709153317E+02 -0.30552244250E+02  0.49320939257E+03  0.49118671431E+03 0.  0.
         13    1    3    3    0    0 -0.48299416603E+02 -0.22991031998E+03 -0.10928620076E+03  0.25910434684E+03  0.00000000000E+00 0.  1.
          3    1    3    3  501    0  0.72514900036E+02  0.20820116666E+03  0.78733956507E+02  0.23410504573E+03  0.00000000000E+00 0.  1.
         21    1    1    2  502  501 -0.24215483434E+02  0.21709153317E+02  0.70359814523E+01  0.33274344631E+02  0.00000000000E+00 0.  1.
<scales pt_clust_4="550.00000" pt_clust_5="550.00000" pt_clust_6="32.52195"></scales>
<mgrwt>
<rscale>  0 0.30000000E+03</rscale>
<asrwt>  1 0.32521946E+02</asrwt>
<pdfrwt beam="1">  1        1 0.91448632E+00 0.30000000E+03</pdfrwt>
<pdfrwt beam="2">0</pdfrwt>
<totfact> 0.56444323E-05</totfact>
</mgrwt>
<clustering>
<clus scale="   32.522">  1  6  2 -1</clus>
<clus scale="  491.187">  4  5 -1 -1</clus>
<clus scale="  300.000">  1  4  2 -1</clus>
</clustering>
</event>
<event>
 6    1  0.1033679E-011  0.3000000E+03  0.7818608E-02  0.1093470E+00
          1   -1    0    0  502    0  0.00000000000E+00  0.00000000000E+00  0.23496708466E+03  0.23496708466E+03  0.00000000000E+00 0.  1.
         13   -1    0    0    0    0 -0.00000000000E+00 -0.00000000000E+00 -0.27500000000E+03  0.27500000000E+03  0.00000000000E+00 0.  1.
    9000005    2    1    2  501    0  0.18282367357E+00 -0.39970546271E+02 -0.60831882982E+02  0.46490851113E+03  0.45917505130E+03 0.  0.
         13    1    3    3    0    0  0.12109248443E+03  0.16893395943E+03 -0.80140797568E+02  0.22276584089E+03  0.00000000000E+00 0.  1.
          1    1    3    3  501    0 -0.12090966075E+03 -0.20890450570E+03  0.19308914586E+02  0.24214267024E+03  0.00000000000E+00 0.  1.
         21    1    1    2  502  501 -0.18282367357E+00  0.39970546271E+02  0.20798967641E+02  0.45058573531E+02  0.00000000000E+00 0.  1.
<scales pt_clust_4="550.00000" pt_clust_5="550.00000" pt_clust_6="39.97096"></scales>
<mgrwt>
<rscale>  0 0.30000000E+03</rscale>
<asrwt>  1 0.39970964E+02</asrwt>
<pdfrwt beam="1">  1        1 0.85442576E+00 0.30000000E+03</pdfrwt>
<pdfrwt beam="2">0</pdfrwt>
<totfact> 0.36016906E-04</totfact>
</mgrwt>
<clustering>
<clus scale="   39.971">  1  6  2 -1</clus>
<clus scale="  459.175">  4  5 -1 -1</clus>
<clus scale="  300.000">  1  4  2 -1</clus>
</clustering>
</event>
<event>
 6    1  0.1033679E-011  0.3000000E+03  0.7818608E-02  0.1093470E+00
          1   -1    0    0  502    0  0.00000000000E+00  0.00000000000E+00  0.23239114193E+03  0.23239114193E+03  0.00000000000E+00 0.  1.
         13   -1    0    0    0    0 -0.00000000000E+00 -0.00000000000E+00 -0.27500000000E+03  0.27500000000E+03  0.00000000000E+00 0.  1.
    9000005    2    1    2  501    0 -0.32858924783E+02 -0.13374776846E+00 -0.69991270234E+02  0.46461821448E+03  0.45813925884E+03 0.  0.
         13    1    3    3    0    0 -0.92271670735E+02  0.20364694974E+03  0.37482223828E+02  0.22669596040E+03  0.00000000000E+00 0.  1.
          3    1    3    3  501    0  0.59412745953E+02 -0.20378069751E+03 -0.10747349406E+03  0.23792225408E+03  0.00000000000E+00 0.  1.
         21    1    1    2  502  501  0.32858924783E+02  0.13374776846E+00  0.27382412161E+02  0.42772927443E+02  0.00000000000E+00 0. -1.
<scales pt_clust_4="550.00000" pt_clust_5="550.00000" pt_clust_6="32.85920"></scales>
<mgrwt>
<rscale>  0 0.30000000E+03</rscale>
<asrwt>  1 0.32859197E+02</asrwt>
<pdfrwt beam="1">  1        1 0.84505870E+00 0.30000000E+03</pdfrwt>
<pdfrwt beam="2">0</pdfrwt>
<totfact> 0.45668108E-04</totfact>
</mgrwt>
<clustering>
<clus scale="   32.859">  1  6  2 -1</clus>
<clus scale="  458.139">  4  5 -1 -1</clus>
<clus scale="  300.000">  1  4  2 -1</clus>
</clustering>
</event>
<event>
 6    1  0.1033679E-011  0.3000000E+03  0.7818608E-02  0.1093470E+00
          1   -1    0    0  502    0  0.00000000000E+00  0.00000000000E+00  0.22862739359E+03  0.22862739359E+03  0.00000000000E+00 0.  1.
         13   -1    0    0    0    0 -0.00000000000E+00 -0.00000000000E+00 -0.27500000000E+03  0.27500000000E+03  0.00000000000E+00 0.  1.
    9000005    2    1    2  501    0  0.28374391732E+02  0.11918136304E+02 -0.54780152913E+02  0.47172386843E+03  0.46752047529E+03 0.  0.
         13    1    3    3    0    0  0.22093939636E+03 -0.16383185248E+02 -0.13694869554E+03  0.26045646629E+03  0.00000000000E+00 0.  1.
          3    1    3    3  501    0 -0.19256500463E+03  0.28301321552E+02  0.82168542628E+02  0.21126740214E+03  0.00000000000E+00 0.  1.
         21    1    1    2  502  501 -0.28374391732E+02 -0.11918136304E+02  0.84075464983E+01  0.31903525154E+02  0.00000000000E+00 0.  1.
<scales pt_clust_4="550.00000" pt_clust_5="550.00000" pt_clust_6="30.77577"></scales>
<mgrwt>
<rscale>  0 0.30000000E+03</rscale>
<asrwt>  1 0.30775771E+02</asrwt>
<pdfrwt beam="1">  1        1 0.83137234E+00 0.30000000E+03</pdfrwt>
<pdfrwt beam="2">0</pdfrwt>
<totfact> 0.59034962E-04</totfact>
</mgrwt>
<clustering>
<clus scale="   30.776">  1  6  2 -1</clus>
<clus scale="  467.520">  4  5 -1 -1</clus>
<clus scale="  300.000">  1  4  2 -1</clus>
</clustering>
</event>
<event>
 6    1  0.1033679E-011  0.3000000E+03  0.7818608E-02  0.1093470E+00
          1   -1    0    0  502    0  0.00000000000E+00  0.00000000000E+00  0.23969893837E+03  0.23969893837E+03  0.00000000000E+00 0.  1.
         13   -1    0    0    0    0 -0.00000000000E+00 -0.00000000000E+00 -0.27500000000E+03  0.27500000000E+03  0.00000000000E+00 0.  1.
    9000005    2    1    2  501    0 -0.38689994266E+01 -0.46176085745E+02 -0.40687589376E+02  0.46804902162E+03  0.46396897165E+03 0.  0.
         13    1    3    3    0    0  0.14893667217E+03  0.15376431770E+02 -0.19260474580E+03  0.24395728125E+03  0.00000000000E+00 0.  1.
          1    1    3    3  501    0 -0.15280567160E+03 -0.61552517515E+02  0.15191715642E+03  0.22409174037E+03  0.00000000000E+00 0.  1.
         21    1    1    2  502  501  0.38689994266E+01  0.46176085745E+02  0.53865277406E+01  0.46649916746E+02  0.00000000000E+00 0. -1.
<scales pt_clust_4="550.00000" pt_clust_5="550.00000" pt_clust_6="46.33789"></scales>
<mgrwt>
<rscale>  0 0.30000000E+03</rscale>
<asrwt>  1 0.46337890E+02</asrwt>
<pdfrwt beam="1">  1        1 0.87163250E+00 0.30000000E+03</pdfrwt>
<pdfrwt beam="2">0</pdfrwt>
<totfact> 0.23156131E-04</totfact>
</mgrwt>
<clustering>
<clus scale="   46.338">  1  6  2 -1</clus>
<clus scale="  463.969">  4  5 -1 -1</clus>
<clus scale="  300.000">  1  4  2 -1</clus>
</clustering>
</event>
<event>
 6    1  0.1033679E-011  0.3000000E+03  0.7818608E-02  0.1093470E+00
          1   -1    0    0  502    0  0.00000000000E+00  0.00000000000E+00  0.22779341406E+03  0.22779341406E+03  0.00000000000E+00 0.  1.
         13   -1    0    0    0    0 -0.00000000000E+00 -0.00000000000E+00 -0.27500000000E+03  0.27500000000E+03  0.00000000000E+00 0.  1.
    9000005    2    1    2  501    0 -0.26436823278E+02 -0.14282268725E+02 -0.71260473741E+02  0.46430343688E+03  0.45781736266E+03 0.  0.
         13    1    3    3    0    0  0.16688741036E+03 -0.22155386088E+02 -0.17661230182E+03  0.24399625822E+03  0.00000000000E+00 0.  1.
          3    1    3    3  501    0 -0.19332423364E+03  0.78731173633E+01  0.10535182808E+03  0.22030717866E+03  0.00000000000E+00 0.  1.
         21    1    1    2  502  501  0.26436823278E+02  0.14282268725E+02  0.24053887800E+02  0.38489977179E+02  0.00000000000E+00 0.  1.
<scales pt_clust_4="550.00000" pt_clust_5="550.00000" pt_clust_6="30.04811"></scales>
<mgrwt>
<rscale>  0 0.30000000E+03</rscale>
<asrwt>  1 0.30048109E+02</asrwt>
<pdfrwt beam="1">  1        1 0.82833969E+00 0.30000000E+03</pdfrwt>
<pdfrwt beam="2">0</pdfrwt>
<totfact> 0.62833598E-04</totfact>
</mgrwt>
<clustering>
<clus scale="   30.048">  1  6  2 -1</clus>
<clus scale="  457.817">  4  5 -1 -1</clus>
<clus scale="  300.000">  1  4  2 -1</clus>
</clustering>
</event>
<event>
 6    1  0.1033679E-011  0.3000000E+03  0.7818608E-02  0.1093470E+00
          1   -1    0    0  502    0  0.00000000000E+00  0.00000000000E+00  0.22316719590E+03  0.22316719590E+03  0.00000000000E+00 0.  1.
         13   -1    0    0    0    0 -0.00000000000E+00 -0.00000000000E+00 -0.27500000000E+03  0.27500000000E+03  0.00000000000E+00 0.  1.
    9000005    2    1    2  501    0  0.10473599051E+01 -0.32544718343E+02 -0.60739216341E+02  0.46440953257E+03  0.45926757547E+03 0.  0.
         13    1    3    3    0    0  0.70476103307E+02 -0.14041754452E+03 -0.21340488032E+03  0.26500115262E+03  0.00000000000E+00 0.  1.
          3    1    3    3  501    0 -0.69428743401E+02  0.10787282617E+03  0.15266566398E+03  0.19940837995E+03  0.00000000000E+00 0.  1.
         21    1    1    2  502  501 -0.10473599051E+01  0.32544718343E+02  0.89064122427E+01  0.33757663335E+02  0.00000000000E+00 0.  1.
<scales pt_clust_4="550.00000" pt_clust_5="550.00000" pt_clust_6="32.56157"></scales>
<mgrwt>
<rscale>  0 0.30000000E+03</rscale>
<asrwt>  1 0.32561567E+02</asrwt>
<pdfrwt beam="1">  1        1 0.81151708E+00 0.30000000E+03</pdfrwt>
<pdfrwt beam="2">0</pdfrwt>
<totfact> 0.86021961E-04</totfact>
</mgrwt>
<clustering>
<clus scale="   32.562">  1  6  2 -1</clus>
<clus scale="  459.268">  4  5 -1 -1</clus>
<clus scale="  300.000">  1  4  2 -1</clus>
</clustering>
</event>
<event>
 6    1  0.1033679E-011  0.3000000E+03  0.7818608E-02  0.1093470E+00
          1   -1    0    0  502    0  0.00000000000E+00  0.00000000000E+00  0.24669961015E+03  0.24669961015E+03  0.00000000000E+00 0.  1.
         13   -1    0    0    0    0 -0.00000000000E+00 -0.00000000000E+00 -0.27500000000E+03  0.27500000000E+03  0.00000000000E+00 0.  1.
    9000005    2    1    2  501    0 -0.29180253637E+01 -0.50448572877E+02 -0.58641935137E+02  0.46275741179E+03  0.45623675020E+03 0.  0.
         13    1    3    3    0    0 -0.19860086803E+03  0.48202620519E+02 -0.11764540022E+03  0.23580974874E+03  0.00000000000E+00 0.  1.
          3    1    3    3  501    0  0.19568284266E+03 -0.98651193397E+02  0.59003465083E+02  0.22694766305E+03  0.00000000000E+00 0.  1.
         21    1    1    2  502  501  0.29180253637E+01  0.50448572877E+02  0.30341545284E+02  0.58942198361E+02  0.00000000000E+00 0.  1.
<scales pt_clust_4="550.00000" pt_clust_5="550.00000" pt_clust_6="50.53289"></scales>
<mgrwt>
<rscale>  0 0.30000000E+03</rscale>
<asrwt>  1 0.50532894E+02</asrwt>
<pdfrwt beam="1">  1        1 0.89708949E+00 0.30000000E+03</pdfrwt>
<pdfrwt beam="2">0</pdfrwt>
<totfact> 0.11181395E-04</totfact>
</mgrwt>
<clustering>
<clus scale="   50.533">  1  6  2 -1</clus>
<clus scale="  456.237">  4  5 -1 -1</clus>
<clus scale="  300.000">  1  4  2 -1</clus>
</clustering>
</event>
<event>
 6    1  0.1033679E-011  0.3000000E+03  0.7818608E-02  0.1093470E+00
          1   -1    0    0  502    0  0.00000000000E+00  0.00000000000E+00  0.24280324701E+03  0.24280324701E+03  0.00000000000E+00 0.  1.
         13   -1    0    0    0    0 -0.00000000000E+00 -0.00000000000E+00 -0.27500000000E+03  0.27500000000E+03  0.00000000000E+00 0.  1.
    9000005    2    1    2  501    0 -0.33408196128E+02 -0.32496628219E+01 -0.25880863189E+02  0.48364833022E+03  0.48178752617E+03 0.  0.
         13    1    3    3    0    0 -0.86610427991E+02 -0.13974134373E+03  0.17167737180E+03  0.23770176561E+03  0.00000000000E+00 0.  1.
          1    1    3    3  501    0  0.53202231863E+02  0.13649168091E+03 -0.19755823499E+03  0.24594656461E+03  0.00000000000E+00 0.  1.
         21    1    1    2  502  501  0.33408196128E+02  0.32496628219E+01 -0.63158897993E+01  0.34154916790E+02  0.00000000000E+00 0.  1.
<scales pt_clust_4="550.00000" pt_clust_5="550.00000" pt_clust_6="33.56589"></scales>
<mgrwt>
<rscale>  0 0.30000000E+03</rscale>
<asrwt>  1 0.33565890E+02</asrwt>
<pdfrwt beam="1">  1        1 0.88292090E+00 0.30000000E+03</pdfrwt>
<pdfrwt beam="2">0</pdfrwt>
<totfact> 0.18247896E-04</totfact>
</mgrwt>
<clustering>
<clus scale="   33.566">  1  6  2 -1</clus>
<clus scale="  481.788">  4  5 -1 -1</clus>
<clus scale="  300.000">  1  4  2 -1</clus>
</clustering>
</event>
<event>
 6    1  0.1033679E-011  0.3000000E+03  0.7818608E-02  0.1093470E+00
          1   -1    0    0  502    0  0.00000000000E+00  0.00000000000E+00  0.22788432497E+03  0.22788432497E+03  0.00000000000E+00 0.  1.
         13   -1    0    0    0    0 -0.00000000000E+00 -0.00000000000E+00 -0.27500000000E+03  0.27500000000E+03  0.00000000000E+00 0.  1.
    9000005    2    1    2  501    0  0.27964077603E+02 -0.16239487603E+02 -0.45374103018E+02  0.47050001292E+03  0.46718919331E+03 0.  0.
         13    1    3    3    0    0  0.24363902864E+03 -0.25389746495E+02 -0.65870208431E+02  0.25366020551E+03  0.00000000000E+00 0.  1.
          3    1    3    3  501    0 -0.21567495103E+03  0.91502588917E+01  0.20496105413E+02  0.21683980741E+03  0.00000000000E+00 0.  1.
         21    1    1    2  502  501 -0.27964077603E+02  0.16239487603E+02 -0.17415720091E+01  0.32384312049E+02  0.00000000000E+00 0. -1.
<scales pt_clust_4="550.00000" pt_clust_5="550.00000" pt_clust_6="32.33745"></scales>
<mgrwt>
<rscale>  0 0.30000000E+03</rscale>
<asrwt>  1 0.32337449E+02</asrwt>
<pdfrwt beam="1">  1        1 0.82867027E+00 0.30000000E+03</pdfrwt>
<pdfrwt beam="2">0</pdfrwt>
<totfact> 0.61554252E-04</totfact>
</mgrwt>
<clustering>
<clus scale="   32.337">  1  6  2 -1</clus>
<clus scale="  467.189">  4  5 -1 -1</clus>
<clus scale="  300.000">  1  4  2 -1</clus>
</clustering>
</event>
<event>
 6    1  0.1033679E-011  0.3000000E+03  0.7818608E-02  0.1093470E+00
          1   -1    0    0  502    0  0.00000000000E+00  0.00000000000E+00  0.23953523738E+03  0.23953523738E+03  0.00000000000E+00 0.  1.
         13   -1    0    0    0    0 -0.00000000000E+00 -0.00000000000E+00 -0.27500000000E+03  0.27500000000E+03  0.00000000000E+00 0.  1.
    9000005    2    1    2  501    0 -0.15863295376E+02 -0.32046400014E+02 -0.15758481567E+02  0.47370689664E+03  0.47209244676E+03 0.  0.
         13    1    3    3    0    0 -0.88317759687E+02 -0.18533819402E+03  0.13591222653E+03  0.24621617770E+03  0.00000000000E+00 0.  1.
          1    1    3    3  501    0  0.72454464311E+02  0.15329179401E+03 -0.15167070810E+03  0.22749071894E+03  0.00000000000E+00 0.  1.
         21    1    1    2  502  501  0.15863295376E+02  0.32046400014E+02 -0.19706281057E+02  0.40828340735E+02  0.00000000000E+00 0.  1.
<scales pt_clust_4="550.00000" pt_clust_5="550.00000" pt_clust_6="35.75776"></scales>
<mgrwt>
<rscale>  0 0.30000000E+03</rscale>
<asrwt>  1 0.35757757E+02</asrwt>
<pdfrwt beam="1">  1        1 0.87103723E+00 0.30000000E+03</pdfrwt>
<pdfrwt beam="2">0</pdfrwt>
<totfact> 0.24616309E-04</totfact>
</mgrwt>
<clustering>
<clus scale="   35.758">  1  6  2 -1</clus>
<clus scale="  472.092">  4  5 -1 -1</clus>
<clus scale="  300.000">  1  4  2 -1</clus>
</clustering>
</event>
<event>
 6    1  0.1033679E-011  0.3000000E+03  0.7818608E-02  0.1093470E+00
          1   -1    0    0  502    0  0.00000000000E+00  0.00000000000E+00  0.21867667123E+03  0.21867667123E+03  0.00000000000E+00 0.  1.
         13   -1    0    0    0    0 -0.00000000000E+00 -0.00000000000E+00 -0.27500000000E+03  0.27500000000E+03  0.00000000000E+00 0.  1.
    9000005    2    1    2  501    0 -0.21215505800E+02  0.21689972916E+02 -0.59634785878E+02  0.46315588554E+03  0.45829740781E+03 0.  0.
         13    1    3    3    0    0  0.12304408657E+03  0.12108092982E+03 -0.18093496804E+03  0.25007579144E+03  0.00000000000E+00 0.  1.
          3    1    3    3  501    0 -0.14425959237E+03 -0.99390956907E+02  0.12130018216E+03  0.21308009409E+03  0.00000000000E+00 0.  1.
         21    1    1    2  502  501  0.21215505800E+02 -0.21689972916E+02  0.33114571116E+01  0.30520785698E+02  0.00000000000E+00 0.  1.
<scales pt_clust_4="550.00000" pt_clust_5="550.00000" pt_clust_6="30.34061"></scales>
<mgrwt>
<rscale>  0 0.30000000E+03</rscale>
<asrwt>  1 0.30340610E+02</asrwt>
<pdfrwt beam="1">  1        1 0.79518790E+00 0.30000000E+03</pdfrwt>
<pdfrwt beam="2">0</pdfrwt>
<totfact> 0.11553295E-03</totfact>
</mgrwt>
<clustering>
<clus scale="   30.341">  1  6  2 -1</clus>
<clus scale="  458.297">  4  5 -1 -1</clus>
<clus scale="  300.000">  1  4  2 -1</clus>
</clustering>
</event>
<event>
 6    1  0.1033679E-011  0.3000000E+03  0.7818608E-02  0.1093470E+00
          1   -1    0    0  502    0  0.00000000000E+00  0.00000000000E+00  0.25810174672E+03  0.25810174672E+03  0.00000000000E+00 0.  1.
         13   -1    0    0    0    0 -0.00000000000E+00 -0.00000000000E+00 -0.27500000000E+03  0.27500000000E+03  0.00000000000E+00 0.  1.
    9000005    2    1    2  501    0  0.20726241148E+01  0.49229528570E+02  0.25793938282E+01  0.48011853249E+03  0.47757649619E+03 0.  0.
         13    1    3    3    0    0 -0.63968968598E+02  0.21474776025E+03  0.13182796605E+03  0.25997546444E+03  0.00000000000E+00 0.  1.
          1    1    3    3  501    0  0.66041592713E+02 -0.16551823168E+03 -0.12924857223E+03  0.22014306805E+03  0.00000000000E+00 0.  1.
         21    1    1    2  502  501 -0.20726241148E+01 -0.49229528570E+02 -0.19477647104E+02  0.52983214235E+02  0.00000000000E+00 0.  1.
<scales pt_clust_4="550.00000" pt_clust_5="550.00000" pt_clust_6="49.27316"></scales>
<mgrwt>
<rscale>  0 0.30000000E+03</rscale>
<asrwt>  1 0.49273164E+02</asrwt>
<pdfrwt beam="1">  1        1 0.93855181E+00 0.30000000E+03</pdfrwt>
<pdfrwt beam="2">0</pdfrwt>
<totfact> 0.19009268E-05</totfact>
</mgrwt>
<clustering>
<clus scale="   49.273">  1  6  2 -1</clus>
<clus scale="  477.576">  4  5 -1 -1</clus>
<clus scale="  300.000">  1  4  2 -1</clus>
</clustering>
</event>
<event>
 6    1  0.1033679E-011  0.3000000E+03  0.7818608E-02  0.1093470E+00
          1   -1    0    0  502    0  0.00000000000E+00  0.00000000000E+00  0.24191324676E+03  0.24191324676E+03  0.00000000000E+00 0.  1.
         13   -1    0    0    0    0 -0.00000000000E+00 -0.00000000000E+00 -0.27500000000E+03  0.27500000000E+03  0.00000000000E+00 0.  1.
    9000005    2    1    2  501    0  0.28906930891E+02 -0.25664646421E+02 -0.61406801001E+02  0.46899341960E+03  0.46334625033E+03 0.  0.
         13    1    3    3    0    0 -0.31383874611E+02 -0.23338121755E+03  0.23464754101E+02  0.23664812481E+03  0.00000000000E+00 0.  1.
          3    1    3    3  501    0  0.60290805502E+02  0.20771657113E+03 -0.84871555102E+02  0.23234529480E+03  0.00000000000E+00 0.  1.
         21    1    1    2  502  501 -0.28906930891E+02  0.25664646421E+02  0.28320047760E+02  0.47919827155E+02  0.00000000000E+00 0.  1.
<scales pt_clust_4="550.00000" pt_clust_5="550.00000" pt_clust_6="38.65598"></scales>
<mgrwt>
<rscale>  0 0.30000000E+03</rscale>
<asrwt>  1 0.38655979E+02</asrwt>
<pdfrwt beam="1">  1        1 0.87968453E+00 0.30000000E+03</pdfrwt>
<pdfrwt beam="2">0</pdfrwt>
<totfact> 0.19550887E-04</totfact>
</mgrwt>
<clustering>
<clus scale="   38.656">  1  6  2 -1</clus>
<clus scale="  463.346">  4  5 -1 -1</clus>
<clus scale="  300.000">  1  4  2 -1</clus>
</clustering>
</event>
<event>
 6    1  0.1033679E-011  0.3000000E+03  0.7818608E-02  0.1093470E+00
          1   -1    0    0  502    0  0.00000000000E+00  0.00000000000E+00  0.24403896625E+03  0.24403896625E+03  0.00000000000E+00 0.  1.
         13   -1    0    0    0    0 -0.00000000000E+00 -0.00000000000E+00 -0.27500000000E+03  0.27500000000E+03  0.00000000000E+00 0.  1.
    9000005    2    1    2  501    0 -0.27009254606E+02  0.20850040058E+02 -0.16401942586E+02  0.48194191596E+03  0.48045266430E+03 0.  0.
         13    1    3    3    0    0 -0.13094499257E+03 -0.28167068434E+02  0.19778811851E+03  0.23887259082E+03  0.00000000000E+00 0.  1.
          1    1    3    3  501    0  0.10393573797E+03  0.49017108492E+02 -0.21419006109E+03  0.24306932514E+03  0.00000000000E+00 0.  1.
         21    1    1    2  502  501  0.27009254606E+02 -0.20850040058E+02 -0.14559091161E+02  0.37097050290E+02  0.00000000000E+00 0.  1.
<scales pt_clust_4="550.00000" pt_clust_5="550.00000" pt_clust_6="34.12074"></scales>
<mgrwt>
<rscale>  0 0.30000000E+03</rscale>
<asrwt>  1 0.34120744E+02</asrwt>
<pdfrwt beam="1">  1        1 0.88741442E+00 0.30000000E+03</pdfrwt>
<pdfrwt beam="2">0</pdfrwt>
<totfact> 0.15793883E-04</totfact>
</mgrwt>
<clustering>
<clus scale="   34.121">  1  6  2 -1</clus>
<clus scale="  480.453">  4  5 -1 -1</clus>
<clus scale="  300.000">  1  4  2 -1</clus>
</clustering>
</event>
<event>
 6    1  0.1033679E-011  0.3000000E+03  0.7818608E-02  0.1093470E+00
          1   -1    0    0  502    0  0.00000000000E+00  0.00000000000E+00  0.23884425819E+03  0.23884425819E+03  0.00000000000E+00 0.  1.
         13   -1    0    0    0    0 -0.00000000000E+00 -0.00000000000E+00 -0.27500000000E+03  0.27500000000E+03  0.00000000000E+00 0.  1.
    9000005    2    1    2  501    0 -0.32906011472E+02  0.20275920160E+02 -0.35958302428E+02  0.47519251164E+03  0.47225099796E+03 0.  0.
         13    1    3    3    0    0 -0.20443533241E+02 -0.16994329886E+03 -0.17071188818E+03  0.24174617193E+03  0.00000000000E+00 0.  1.
          1    1    3    3  501    0 -0.12462478231E+02  0.19021921902E+03  0.13475358575E+03  0.23344633970E+03  0.00000000000E+00 0.  1.
         21    1    1    2  502  501  0.32906011472E+02 -0.20275920160E+02 -0.19743938020E+00  0.38651746554E+02  0.00000000000E+00 0.  1.
<scales pt_clust_4="550.00000" pt_clust_5="550.00000" pt_clust_6="38.65124"></scales>
<mgrwt>
<rscale>  0 0.30000000E+03</rscale>
<asrwt>  1 0.38651242E+02</asrwt>
<pdfrwt beam="1">  1        1 0.86852458E+00 0.30000000E+03</pdfrwt>
<pdfrwt beam="2">0</pdfrwt>
<totfact> 0.25746660E-04</totfact>
</mgrwt>
<clustering>
<clus scale="   38.651">  1  6  2 -1</clus>
<clus scale="  472.251">  4  5 -1 -1</clus>
<clus scale="  300.000">  1  4  2 -1</clus>
</clustering>
</event>
<event>
 6    1  0.1033679E-011  0.3000000E+03  0.7818608E-02  0.1093470E+00
          1   -1    0    0  502    0  0.00000000000E+00  0.00000000000E+00  0.23452951860E+03  0.23452951860E+03  0.00000000000E+00 0.  1.
         13   -1    0    0    0    0 -0.00000000000E+00 -0.00000000000E+00 -0.27500000000E+03  0.27500000000E+03  0.00000000000E+00 0.  1.
    9000005    2    1    2  501    0  0.36419998963E+02 -0.51824305981E+01 -0.49365662104E+02  0.47168248237E+03  0.46764743309E+03 0.  0.
         13    1    3    3    0    0  0.14692786793E+01  0.74743702736E+02  0.19679809896E+03  0.21051905289E+03  0.00000000000E+00 0.  1.
          1    1    3    3  501    0  0.34950720284E+02 -0.79926133334E+02 -0.24616376106E+03  0.26116342948E+03  0.00000000000E+00 0.  1.
         21    1    1    2  502  501 -0.36419998963E+02  0.51824305981E+01  0.88951807043E+01  0.37847036227E+02  0.00000000000E+00 0.  1.
<scales pt_clust_4="550.00000" pt_clust_5="550.00000" pt_clust_6="36.78687"></scales>
<mgrwt>
<rscale>  0 0.30000000E+03</rscale>
<asrwt>  1 0.36786871E+02</asrwt>
<pdfrwt beam="1">  1        1 0.85283461E+00 0.30000000E+03</pdfrwt>
<pdfrwt beam="2">0</pdfrwt>
<totfact> 0.37893983E-04</totfact>
</mgrwt>
<clustering>
<clus scale="   36.787">  1  6  2 -1</clus>
<clus scale="  467.647">  4  5 -1 -1</clus>
<clus scale="  300.000">  1  4  2 -1</clus>
</clustering>
</event>
<event>
 6    1  0.1033679E-011  0.3000000E+03  0.7818608E-02  0.1093470E+00
          1   -1    0    0  502    0  0.00000000000E+00  0.00000000000E+00  0.22578565986E+03  0.22578565986E+03  0.00000000000E+00 0.  1.
         13   -1    0    0    0    0 -0.00000000000E+00 -0.00000000000E+00 -0.27500000000E+03  0.27500000000E+03  0.00000000000E+00 0.  1.
    9000005    2    1    2  501    0  0.47218005085E+01  0.34168051155E+02 -0.37078121472E+02  0.46422011701E+03  0.46144964929E+03 0.  0.
         13    1    3    3    0    0 -0.12836721451E+03 -0.17275107014E+03 -0.35872374867E+02  0.21819234926E+03  0.00000000000E+00 0.  1.
          1    1    3    3  501    0  0.13308901502E+03  0.20691912130E+03 -0.12057466049E+01  0.24602776775E+03  0.00000000000E+00 0.  1.
         21    1    1    2  502  501 -0.47218005085E+01 -0.34168051155E+02 -0.12136218673E+02  0.36565542844E+02  0.00000000000E+00 0.  1.
<scales pt_clust_4="550.00000" pt_clust_5="550.00000" pt_clust_6="34.49279"></scales>
<mgrwt>
<rscale>  0 0.30000000E+03</rscale>
<asrwt>  1 0.34492786E+02</asrwt>
<pdfrwt beam="1">  1        1 0.82103876E+00 0.30000000E+03</pdfrwt>
<pdfrwt beam="2">0</pdfrwt>
<totfact> 0.71030161E-04</totfact>
</mgrwt>
<clustering>
<clus scale="   34.493">  1  6  2 -1</clus>
<clus scale="  461.450">  4  5 -1 -1</clus>
<clus scale="  300.000">  1  4  2 -1</clus>
</clustering>
</event>
<event>
 6    1  0.1033679E-011  0.3000000E+03  0.7818608E-02  0.1093470E+00
          1   -1    0    0  502    0  0.00000000000E+00  0.00000000000E+00  0.24270283672E+03  0.24270283672E+03  0.00000000000E+00 0.  1.
         13   -1    0    0    0    0 -0.00000000000E+00 -0.00000000000E+00 -0.27500000000E+03  0.27500000000E+03  0.00000000000E+00 0.  1.
    9000005    2    1    2  501    0 -0.34590361376E+02  0.54050127230E+01 -0.39762050174E+02  0.48190574467E+03  0.47898477935E+03 0.  0.
         13    1    3    3    0    0  0.16802004499E+03  0.14720814524E+03 -0.66722052787E+02  0.23313688227E+03  0.00000000000E+00 0.  1.
          1    1    3    3  501    0 -0.20261040637E+03 -0.14180313252E+03  0.26960002613E+02  0.24876886240E+03  0.00000000000E+00 0.  1.
         21    1    1    2  502  501  0.34590361376E+02 -0.54050127230E+01  0.74648868898E+01  0.35797092046E+02  0.00000000000E+00 0.  1.
<scales pt_clust_4="550.00000" pt_clust_5="550.00000" pt_clust_6="35.01010"></scales>
<mgrwt>
<rscale>  0 0.30000000E+03</rscale>
<asrwt>  1 0.35010102E+02</asrwt>
<pdfrwt beam="1">  1        1 0.88255577E+00 0.30000000E+03</pdfrwt>
<pdfrwt beam="2">0</pdfrwt>
<totfact> 0.18306775E-04</totfact>
</mgrwt>
<clustering>
<clus scale="   35.010">  1  6  2 -1</clus>
<clus scale="  478.985">  4  5 -1 -1</clus>
<clus scale="  300.000">  1  4  2 -1</clus>
</clustering>
</event>
<event>
 6    1  0.1033679E-011  0.3000000E+03  0.7818608E-02  0.1093470E+00
          1   -1    0    0  502    0  0.00000000000E+00  0.00000000000E+00  0.23295238400E+03  0.23295238400E+03  0.00000000000E+00 0.  1.
         13   -1    0    0    0    0 -0.00000000000E+00 -0.00000000000E+00 -0.27500000000E+03  0.27500000000E+03  0.00000000000E+00 0.  1.
    9000005    2    1    2  501    0  0.11162360839E+02 -0.28372975719E+02 -0.47698567446E+02  0.47694339655E+03  0.47357177505E+03 0.  0.
         13    1    3    3    0    0  0.20221007892E+03  0.11189946002E+03  0.15568551044E+02  0.23163070814E+03  0.00000000000E+00 0.  1.
          1    1    3    3  501    0 -0.19104771808E+03 -0.14027243574E+03 -0.63267118490E+02  0.24531268841E+03  0.00000000000E+00 0.  1.
         21    1    1    2  502  501 -0.11162360839E+02  0.28372975719E+02  0.56509514476E+01  0.31008987454E+02  0.00000000000E+00 0.  1.
<scales pt_clust_4="550.00000" pt_clust_5="550.00000" pt_clust_6="30.48974"></scales>
<mgrwt>
<rscale>  0 0.30000000E+03</rscale>
<asrwt>  1 0.30489737E+02</asrwt>
<pdfrwt beam="1">  1        1 0.84709958E+00 0.30000000E+03</pdfrwt>
<pdfrwt beam="2">0</pdfrwt>
<totfact> 0.44428291E-04</totfact>
</mgrwt>
<clustering>
<clus scale="   30.490">  1  6  2 -1</clus>
<clus scale="  473.572">  4  5 -1 -1</clus>
<clus scale="  300.000">  1  4  2 -1</clus>
</clustering>
</event>
<event>
 6    1  0.1033679E-011  0.3000000E+03  0.7818608E-02  0.1093470E+00
          1   -1    0    0  502    0  0.00000000000E+00  0.00000000000E+00  0.23110692209E+03  0.23110692209E+03  0.00000000000E+00 0.  1.
         13   -1    0    0    0    0 -0.00000000000E+00 -0.00000000000E+00 -0.27500000000E+03  0.27500000000E+03  0.00000000000E+00 0.  1.
    9000005    2    1    2  501    0 -0.84091301769E+01  0.36375641340E+02 -0.56654900914E+02  0.46665106220E+03  0.46169203513E+03 0.  0.
         13    1    3    3    0    0  0.10409924626E+03  0.21272191092E+03 -0.92821151407E+02  0.25436790404E+03  0.00000000000E+00 0.  1.
          3    1    3    3  501    0 -0.11250837644E+03 -0.17634626958E+03  0.36166250493E+02  0.21228315816E+03  0.00000000000E+00 0.  1.
         21    1    1    2  502  501  0.84091301769E+01 -0.36375641340E+02  0.12761823004E+02  0.39455859890E+02  0.00000000000E+00 0.  1.
<scales pt_clust_4="550.00000" pt_clust_5="550.00000" pt_clust_6="37.33498"></scales>
<mgrwt>
<rscale>  0 0.30000000E+03</rscale>
<asrwt>  1 0.37334980E+02</asrwt>
<pdfrwt beam="1">  1        1 0.84038881E+00 0.30000000E+03</pdfrwt>
<pdfrwt beam="2">0</pdfrwt>
<totfact> 0.48772639E-04</totfact>
</mgrwt>
<clustering>
<clus scale="   37.335">  1  6  2 -1</clus>
<clus scale="  461.692">  4  5 -1 -1</clus>
<clus scale="  300.000">  1  4  2 -1</clus>
</clustering>
</event>
<event>
 6    1  0.1033679E-011  0.3000000E+03  0.7818608E-02  0.1093470E+00
          1   -1    0    0  502    0  0.00000000000E+00  0.00000000000E+00  0.26374916066E+03  0.26374916066E+03  0.00000000000E+00 0.  1.
         13   -1    0    0    0    0 -0.00000000000E+00 -0.00000000000E+00 -0.27500000000E+03  0.27500000000E+03  0.00000000000E+00 0.  1.
    9000005    2    1    2  501    0 -0.21970627988E+01 -0.39145629732E+02 -0.74124669998E+02  0.46465242663E+03  0.45702319795E+03 0.  0.
         13    1    3    3    0    0  0.78042712596E+02  0.19557707470E+03 -0.29991561897E+02  0.21269826262E+03  0.00000000000E+00 0.  1.
          1    1    3    3  501    0 -0.80239775395E+02 -0.23472270443E+03 -0.44133108101E+02  0.25195416401E+03  0.00000000000E+00 0.  1.
         21    1    1    2  502  501  0.21970627988E+01  0.39145629732E+02  0.62873830655E+02  0.74096734026E+02  0.00000000000E+00 0. -1.
<scales pt_clust_4="550.00000" pt_clust_5="550.00000" pt_clust_6="39.20724"></scales>
<mgrwt>
<rscale>  0 0.30000000E+03</rscale>
<asrwt>  1 0.39207237E+02</asrwt>
<pdfrwt beam="1">  1        1 0.95908786E+00 0.30000000E+03</pdfrwt>
<pdfrwt beam="2">0</pdfrwt>
<totfact> 0.77709390E-06</totfact>
</mgrwt>
<clustering>
<clus scale="   39.207">  1  6  2 -1</clus>
<clus scale="  457.023">  4  5 -1 -1</clus>
<clus scale="  300.000">  1  4  2 -1</clus>
</clustering>
</event>
<event>
 6    1  0.1033679E-011  0.3000000E+03  0.7818608E-02  0.1093470E+00
          1   -1    0    0  502    0  0.00000000000E+00  0.00000000000E+00  0.23270721418E+03  0.23270721418E+03  0.00000000000E+00 0.  1.
         13   -1    0    0    0    0 -0.00000000000E+00 -0.00000000000E+00 -0.27500000000E+03  0.27500000000E+03  0.00000000000E+00 0.  1.
    9000005    2    1    2  501    0  0.32465252862E+02  0.23221594628E+00 -0.30800594641E+02  0.47326716444E+03  0.47114656503E+03 0.  0.
         13    1    3    3    0    0  0.87360288677E+02  0.17503651382E+01 -0.24082253554E+03  0.25618426462E+03  0.00000000000E+00 0.  1.
          1    1    3    3  501    0 -0.54895035815E+02 -0.15181491919E+01  0.21002194090E+03  0.21708289982E+03  0.00000000000E+00 0.  1.
         21    1    1    2  502  501 -0.32465252862E+02 -0.23221594628E+00 -0.11492191182E+02  0.34440049736E+02  0.00000000000E+00 0. -1.
<scales pt_clust_4="550.00000" pt_clust_5="550.00000" pt_clust_6="32.46610"></scales>
<mgrwt>
<rscale>  0 0.30000000E+03</rscale>
<asrwt>  1 0.32466100E+02</asrwt>
<pdfrwt beam="1">  1        1 0.84620805E+00 0.30000000E+03</pdfrwt>
<pdfrwt beam="2">0</pdfrwt>
<totfact> 0.44715092E-04</totfact>
</mgrwt>
<clustering>
<clus scale="   32.466">  1  6  2 -1</clus>
<clus scale="  471.147">  4  5 -1 -1</clus>
<clus scale="  300.000">  1  4  2 -1</clus>
</clustering>
</event>
<event>
 6    1  0.1033679E-011  0.3000000E+03  0.7818608E-02  0.1093470E+00
          1   -1    0    0  502    0  0.00000000000E+00  0.00000000000E+00  0.24573666229E+03  0.24573666229E+03  0.00000000000E+00 0.  1.
         13   -1    0    0    0    0 -0.00000000000E+00 -0.00000000000E+00 -0.27500000000E+03  0.27500000000E+03  0.00000000000E+00 0.  1.
    9000005    2    1    2  501    0  0.11157245563E+02  0.36602160420E+02 -0.24934817774E+02  0.48222772358E+03  0.48006002747E+03 0.  0.
         13    1    3    3    0    0 -0.33801212257E+02 -0.10904398314E+03 -0.21208438224E+03  0.24085866686E+03  0.00000000000E+00 0.  1.
          3    1    3    3  501    0  0.44958457819E+02  0.14564614356E+03  0.18714956447E+03  0.24136905672E+03  0.00000000000E+00 0.  1.
         21    1    1    2  502  501 -0.11157245563E+02 -0.36602160420E+02 -0.43285199349E+01  0.38508938713E+02  0.00000000000E+00 0.  1.
<scales pt_clust_4="550.00000" pt_clust_5="550.00000" pt_clust_6="38.26492"></scales>
<mgrwt>
<rscale>  0 0.30000000E+03</rscale>
<asrwt>  1 0.38264915E+02</asrwt>
<pdfrwt beam="1">  1        1 0.89358786E+00 0.30000000E+03</pdfrwt>
<pdfrwt beam="2">0</pdfrwt>
<totfact> 0.12869440E-04</totfact>
</mgrwt>
<clustering>
<clus scale="   38.265">  1  6  2 -1</clus>
<clus scale="  480.060">  4  5 -1 -1</clus>
<clus scale="  300.000">  1  4  2 -1</clus>
</clustering>
</event>
<event>
 6    1  0.1033679E-011  0.3000000E+03  0.7818608E-02  0.1093470E+00
          1   -1    0    0  502    0  0.00000000000E+00  0.00000000000E+00  0.23791497972E+03  0.23791497972E+03  0.00000000000E+00 0.  1.
         13   -1    0    0    0    0 -0.00000000000E+00 -0.00000000000E+00 -0.27500000000E+03  0.27500000000E+03  0.00000000000E+00 0.  1.
    9000005    2    1    2  501    0  0.20514296970E+02  0.31324237022E+02 -0.96938942241E+01  0.46652189842E+03  0.46491576217E+03 0.  0.
         13    1    3    3    0    0 -0.17061238547E+03 -0.64344208377E+02  0.11833664543E+03  0.21737599886E+03  0.00000000000E+00 0.  1.
          1    1    3    3  501    0  0.19112668244E+03  0.95668445399E+02 -0.12803053966E+03  0.24914589957E+03  0.00000000000E+00 0.  1.
         21    1    1    2  502  501 -0.20514296970E+02 -0.31324237022E+02 -0.27391126059E+02  0.46393081294E+02  0.00000000000E+00 0. -1.
<scales pt_clust_4="550.00000" pt_clust_5="550.00000" pt_clust_6="37.44390"></scales>
<mgrwt>
<rscale>  0 0.30000000E+03</rscale>
<asrwt>  1 0.37443899E+02</asrwt>
<pdfrwt beam="1">  1        1 0.86514538E+00 0.30000000E+03</pdfrwt>
<pdfrwt beam="2">0</pdfrwt>
<totfact> 0.28112494E-04</totfact>
</mgrwt>
<clustering>
<clus scale="   37.444">  1  6  2 -1</clus>
<clus scale="  464.916">  4  5 -1 -1</clus>
<clus scale="  300.000">  1  4  2 -1</clus>
</clustering>
</event>
<event>
 6    1  0.1033679E-011  0.3000000E+03  0.7818608E-02  0.1093470E+00
          1   -1    0    0  502    0  0.00000000000E+00  0.00000000000E+00  0.25183558270E+03  0.25183558270E+03  0.00000000000E+00 0.  1.
         13   -1    0    0    0    0 -0.00000000000E+00 -0.00000000000E+00 -0.27500000000E+03  0.27500000000E+03  0.00000000000E+00 0.  1.
    9000005    2    1    2  501    0 -0.30826864618E+02  0.64112800280E+00 -0.48204396168E+02  0.48711522055E+03  0.48374256341E+03 0.  0.
         13    1    3    3    0    0  0.47586099570E+02  0.21912263175E+03  0.58354215351E+02  0.23169889742E+03  0.00000000000E+00 0.  1.
          1    1    3    3  501    0 -0.78412964188E+02 -0.21848150375E+03 -0.10655861152E+03  0.25541632313E+03  0.00000000000E+00 0.  1.
         21    1    1    2  502  501  0.30826864618E+02 -0.64112800280E+00  0.25039978868E+02  0.39720362146E+02  0.00000000000E+00 0.  1.
<scales pt_clust_4="550.00000" pt_clust_5="550.00000" pt_clust_6="30.83353"></scales>
<mgrwt>
<rscale>  0 0.30000000E+03</rscale>
<asrwt>  1 0.30833531E+02</asrwt>
<pdfrwt beam="1">  1        1 0.91576576E+00 0.30000000E+03</pdfrwt>
<pdfrwt beam="2">0</pdfrwt>
<totfact> 0.53245308E-05</totfact>
</mgrwt>
<clustering>
<clus scale="   30.834">  1  6  2 -1</clus>
<clus scale="  483.743">  4  5 -1 -1</clus>
<clus scale="  300.000">  1  4  2 -1</clus>
</clustering>
</event>
<event>
 6    1  0.1033679E-011  0.3000000E+03  0.7818608E-02  0.1093470E+00
          1   -1    0    0  502    0  0.00000000000E+00  0.00000000000E+00  0.24339741508E+03  0.24339741508E+03  0.00000000000E+00 0.  1.
         13   -1    0    0    0    0 -0.00000000000E+00 -0.00000000000E+00 -0.27500000000E+03  0.27500000000E+03  0.00000000000E+00 0.  1.
    9000005    2    1    2  501    0 -0.32034121898E+02  0.58396833638E+01 -0.68467551924E+02  0.46921090616E+03  0.46304511867E+03 0.  0.
         13    1    3    3    0    0 -0.59051088565E+02  0.23042585452E+03 -0.40227673269E+02  0.24124960350E+03  0.00000000000E+00 0.  1.
          3    1    3    3  501    0  0.27016966667E+02 -0.22458617116E+03 -0.28239878655E+02  0.22796130266E+03  0.00000000000E+00 0.  1.
         21    1    1    2  502  501  0.32034121898E+02 -0.58396833638E+01  0.36864967004E+02  0.49186508920E+02  0.00000000000E+00 0.  1.
<scales pt_clust_4="550.00000" pt_clust_5="550.00000" pt_clust_6="32.56205"></scales>
<mgrwt>
<rscale>  0 0.30000000E+03</rscale>
<asrwt>  1 0.32562046E+02</asrwt>
<pdfrwt beam="1">  1        1 0.88508151E+00 0.30000000E+03</pdfrwt>
<pdfrwt beam="2">0</pdfrwt>
<totfact> 0.17158880E-04</totfact>
</mgrwt>
<clustering>
<clus scale="   32.562">  1  6  2 -1</clus>
<clus scale="  463.045">  4  5 -1 -1</clus>
<clus scale="  300.000">  1  4  2 -1</clus>
</clustering>
</event>
<event>
 6    1  0.1033679E-011  0.3000000E+03  0.7818608E-02  0.1093470E+00
          1   -1    0    0  502    0  0.00000000000E+00  0.00000000000E+00  0.24458211631E+03  0.24458211631E+03  0.00000000000E+00 0.  1.
         13   -1    0    0    0    0 -0.00000000000E+00 -0.00000000000E+00 -0.27500000000E+03  0.27500000000E+03  0.00000000000E+00 0.  1.
    9000005    2    1    2  501    0 -0.33839581561E+02  0.36627339921E+02 -0.46794218639E+02  0.46709532125E+03  0.46206239938E+03 0.  0.
         13    1    3    3    0    0 -0.14634825939E+03  0.21001736209E+03 -0.47777196776E+02  0.26039924335E+03  0.00000000000E+00 0.  1.
          3    1    3    3  501    0  0.11250867783E+03 -0.17339002217E+03  0.98297813624E+00  0.20669607790E+03  0.00000000000E+00 0.  1.
         21    1    1    2  502  501  0.33839581561E+02 -0.36627339921E+02  0.16376334952E+02  0.52486795067E+02  0.00000000000E+00 0.  1.
<scales pt_clust_4="550.00000" pt_clust_5="550.00000" pt_clust_6="49.86662"></scales>
<mgrwt>
<rscale>  0 0.30000000E+03</rscale>
<asrwt>  1 0.49866615E+02</asrwt>
<pdfrwt beam="1">  1        1 0.88938951E+00 0.30000000E+03</pdfrwt>
<pdfrwt beam="2">0</pdfrwt>
<totfact> 0.13853833E-04</totfact>
</mgrwt>
<clustering>
<clus scale="   49.867">  1  6  2 -1</clus>
<clus scale="  462.062">  4  5 -1 -1</clus>
<clus scale="  300.000">  1  4  2 -1</clus>
</clustering>
</event>
<event>
 6    1  0.1033679E-011  0.3000000E+03  0.7818608E-02  0.1093470E+00
          1   -1    0    0  502    0  0.00000000000E+00  0.00000000000E+00  0.23955065761E+03  0.23955065761E+03  0.00000000000E+00 0.  1.
         13   -1    0    0    0    0 -0.00000000000E+00 -0.00000000000E+00 -0.27500000000E+03  0.27500000000E+03  0.00000000000E+00 0.  1.
    9000005    2    1    2  501    0 -0.43802809888E+02 -0.24116250903E+02 -0.49159847854E+02  0.46270224711E+03  0.45735806446E+03 0.  0.
         13    1    3    3    0    0  0.93159426590E+02  0.13517190627E+03  0.11131606098E+03  0.19834663708E+03  0.00000000000E+00 0.  1.
          1    1    3    3  501    0 -0.13696223648E+03 -0.15928815717E+03 -0.16047590884E+03  0.26435561003E+03  0.00000000000E+00 0.  1.
         21    1    1    2  502  501  0.43802809888E+02  0.24116250903E+02  0.13710505465E+02  0.51848410504E+02  0.00000000000E+00 0. -1.
<scales pt_clust_4="550.00000" pt_clust_5="550.00000" pt_clust_6="50.00280"></scales>
<mgrwt>
<rscale>  0 0.30000000E+03</rscale>
<asrwt>  1 0.50002797E+02</asrwt>
<pdfrwt beam="1">  1        1 0.87109330E+00 0.30000000E+03</pdfrwt>
<pdfrwt beam="2">0</pdfrwt>
<totfact> 0.23138491E-04</totfact>
</mgrwt>
<clustering>
<clus scale="   50.003">  1  6  2 -1</clus>
<clus scale="  457.358">  4  5 -1 -1</clus>
<clus scale="  300.000">  1  4  2 -1</clus>
</clustering>
</event>
<event>
 6    1  0.1033679E-011  0.3000000E+03  0.7818608E-02  0.1093470E+00
          1   -1    0    0  502    0  0.00000000000E+00  0.00000000000E+00  0.25719476439E+03  0.25719476439E+03  0.00000000000E+00 0.  1.
         13   -1    0    0    0    0 -0.00000000000E+00 -0.00000000000E+00 -0.27500000000E+03  0.27500000000E+03  0.00000000000E+00 0.  1.
    9000005    2    1    2  501    0 -0.31670354666E+02 -0.13484535217E+02 -0.33839239611E+02  0.49422196703E+03  0.49185914092E+03 0.  0.
         13    1    3    3    0    0 -0.11069661920E+03 -0.20663346049E+03 -0.12594755204E+03  0.26610883931E+03  0.00000000000E+00 0.  1.
          3    1    3    3  501    0  0.79026264535E+02  0.19314892527E+03  0.92108312426E+02  0.22811312772E+03  0.00000000000E+00 0.  1.
         21    1    1    2  502  501  0.31670354666E+02  0.13484535217E+02  0.16034003997E+02  0.37972797354E+02  0.00000000000E+00 0. -1.
<scales pt_clust_4="550.00000" pt_clust_5="550.00000" pt_clust_6="34.42156"></scales>
<mgrwt>
<rscale>  0 0.30000000E+03</rscale>
<asrwt>  1 0.34421564E+02</asrwt>
<pdfrwt beam="1">  1        1 0.93525369E+00 0.30000000E+03</pdfrwt>
<pdfrwt beam="2">0</pdfrwt>
<totfact> 0.22435700E-05</totfact>
</mgrwt>
<clustering>
<clus scale="   34.422">  1  6  2 -1</clus>
<clus scale="  491.859">  4  5 -1 -1</clus>
<clus scale="  300.000">  1  4  2 -1</clus>
</clustering>
</event>
<event>
 6    1  0.1033679E-011  0.3000000E+03  0.7818608E-02  0.1093470E+00
          1   -1    0    0  502    0  0.00000000000E+00  0.00000000000E+00  0.22068095205E+03  0.22068095205E+03  0.00000000000E+00 0.  1.
         13   -1    0    0    0    0 -0.00000000000E+00 -0.00000000000E+00 -0.27500000000E+03  0.27500000000E+03  0.00000000000E+00 0.  1.
    9000005    2    1    2  501    0  0.32059811188E+02 -0.12601045001E+02 -0.49237946696E+02  0.46086090871E+03  0.45692645355E+03 0.  0.
         13    1    3    3    0    0  0.15690943938E+03  0.14774650921E+03  0.68315179899E+02  0.22608973209E+03  0.00000000000E+00 0.  1.
          3    1    3    3  501    0 -0.12484962819E+03 -0.16034755421E+03 -0.11755312659E+03  0.23477117662E+03  0.00000000000E+00 0.  1.
         21    1    1    2  502  501 -0.32059811188E+02  0.12601045001E+02 -0.50811012513E+01  0.34820043344E+02  0.00000000000E+00 0.  1.
<scales pt_clust_4="550.00000" pt_clust_5="550.00000" pt_clust_6="34.44734"></scales>
<mgrwt>
<rscale>  0 0.30000000E+03</rscale>
<asrwt>  1 0.34447337E+02</asrwt>
<pdfrwt beam="1">  1        1 0.80247619E+00 0.30000000E+03</pdfrwt>
<pdfrwt beam="2">0</pdfrwt>
<totfact> 0.99794251E-04</totfact>
</mgrwt>
<clustering>
<clus scale="   34.447">  1  6  2 -1</clus>
<clus scale="  456.926">  4  5 -1 -1</clus>
<clus scale="  300.000">  1  4  2 -1</clus>
</clustering>
</event>
<event>
 6    1  0.1033679E-011  0.3000000E+03  0.7818608E-02  0.1093470E+00
          1   -1    0    0  502    0  0.00000000000E+00  0.00000000000E+00  0.23850577126E+03  0.23850577126E+03  0.00000000000E+00 0.  1.
         13   -1    0    0    0    0 -0.00000000000E+00 -0.00000000000E+00 -0.27500000000E+03  0.27500000000E+03  0.00000000000E+00 0.  1.
    9000005    2    1    2  501    0 -0.29900651051E+02 -0.24325700031E+02 -0.46094387004E+02  0.47378233166E+03  0.46995661147E+03 0.  0.
         13    1    3    3    0    0 -0.79403008883E+01  0.14823236003E+03  0.15042350124E+03  0.21133648682E+03  0.00000000000E+00 0.  1.
          3    1    3    3  501    0 -0.21960350163E+02 -0.17255806006E+03 -0.19651788824E+03  0.26244584483E+03  0.00000000000E+00 0.  1.
         21    1    1    2  502  501  0.29900651051E+02  0.24325700031E+02  0.96001582644E+01  0.39723439604E+02  0.00000000000E+00 0. -1.
<scales pt_clust_4="550.00000" pt_clust_5="550.00000" pt_clust_6="38.54593"></scales>
<mgrwt>
<rscale>  0 0.30000000E+03</rscale>
<asrwt>  1 0.38545929E+02</asrwt>
<pdfrwt beam="1">  1        1 0.86729371E+00 0.30000000E+03</pdfrwt>
<pdfrwt beam="2">0</pdfrwt>
<totfact> 0.26530275E-04</totfact>
</mgrwt>
<clustering>
<clus scale="   38.546">  1  6  2 -1</clus>
<clus scale="  469.957">  4  5 -1 -1</clus>
<clus scale="  300.000">  1  4  2 -1</clus>
</clustering>
</event>
<event>
 6    1  0.1033679E-011  0.3000000E+03  0.7818608E-02  0.1093470E+00
          1   -1    0    0  502    0  0.00000000000E+00  0.00000000000E+00  0.23250393407E+03  0.23250393407E+03  0.00000000000E+00 0.  1.
         13   -1    0    0    0    0 -0.00000000000E+00 -0.00000000000E+00 -0.27500000000E+03  0.27500000000E+03  0.00000000000E+00 0.  1.
    9000005    2    1    2  501    0 -0.35084430681E+02  0.92756402092E+01 -0.67917419831E+02  0.46319592112E+03  0.45675018407E+03 0.  0.
         13    1    3    3    0    0 -0.17868552079E+03 -0.11838755094E+03 -0.14216476140E+03  0.25720603986E+03  0.00000000000E+00 0.  1.
          3    1    3    3  501    0  0.14360109010E+03  0.12766319115E+03  0.74247341569E+02  0.20598988126E+03  0.00000000000E+00 0.  1.
         21    1    1    2  502  501  0.35084430681E+02 -0.92756402092E+01  0.25421353905E+02  0.44308012954E+02  0.00000000000E+00 0. -1.
<scales pt_clust_4="550.00000" pt_clust_5="550.00000" pt_clust_6="36.28987"></scales>
<mgrwt>
<rscale>  0 0.30000000E+03</rscale>
<asrwt>  1 0.36289872E+02</asrwt>
<pdfrwt beam="1">  1        1 0.84546885E+00 0.30000000E+03</pdfrwt>
<pdfrwt beam="2">0</pdfrwt>
<totfact> 0.44455617E-04</totfact>
</mgrwt>
<clustering>
<clus scale="   36.290">  1  6  2 -1</clus>
<clus scale="  456.750">  4  5 -1 -1</clus>
<clus scale="  300.000">  1  4  2 -1</clus>
</clustering>
</event>
<event>
 6    1  0.1033679E-011  0.3000000E+03  0.7818608E-02  0.1093470E+00
          1   -1    0    0  502    0  0.00000000000E+00  0.00000000000E+00  0.23883154657E+03  0.23883154657E+03  0.00000000000E+00 0.  1.
         13   -1    0    0    0    0 -0.00000000000E+00 -0.00000000000E+00 -0.27500000000E+03  0.27500000000E+03  0.00000000000E+00 0.  1.
    9000005    2    1    2  501    0 -0.19100017185E+02 -0.24542482855E+02 -0.65742292859E+02  0.47091586063E+03  0.46526611160E+03 0.  0.
         13    1    3    3    0    0  0.18089218126E+03 -0.14114924840E+03  0.28543382625E+01  0.22946293559E+03  0.00000000000E+00 0.  1.
          1    1    3    3  501    0 -0.19999219844E+03  0.11660676554E+03 -0.68596631122E+02  0.24145292504E+03  0.00000000000E+00 0.  1.
         21    1    1    2  502  501  0.19100017185E+02  0.24542482855E+02  0.29573839426E+02  0.42915685938E+02  0.00000000000E+00 0.  1.
<scales pt_clust_4="550.00000" pt_clust_5="550.00000" pt_clust_6="31.09894"></scales>
<mgrwt>
<rscale>  0 0.30000000E+03</rscale>
<asrwt>  1 0.31098941E+02</asrwt>
<pdfrwt beam="1">  1        1 0.86847835E+00 0.30000000E+03</pdfrwt>
<pdfrwt beam="2">0</pdfrwt>
<totfact> 0.26846783E-04</totfact>
</mgrwt>
<clustering>
<clus scale="   31.099">  1  6  2 -1</clus>
<clus scale="  465.266">  4  5 -1 -1</clus>
<clus scale="  300.000">  1  4  2 -1</clus>
</clustering>
</event>
<event>
 6    1  0.1033679E-011  0.3000000E+03  0.7818608E-02  0.1093470E+00
          1   -1    0    0  502    0  0.00000000000E+00  0.00000000000E+00  0.23434726608E+03  0.23434726608E+03  0.00000000000E+00 0.  1.
         13   -1    0    0    0    0 -0.00000000000E+00 -0.00000000000E+00 -0.27500000000E+03  0.27500000000E+03  0.00000000000E+00 0.  1.
    9000005    2    1    2  501    0  0.18443526757E+02 -0.37721795225E+02 -0.53272274855E+02  0.46550265036E+03  0.46053412980E+03 0.  0.
         13    1    3    3    0    0 -0.96573030581E+02 -0.21906296172E+03  0.15802014158E+02  0.23992631178E+03  0.00000000000E+00 0.  1.
          3    1    3    3  501    0  0.11501655734E+03  0.18134116649E+03 -0.69074289012E+02  0.22557633858E+03  0.00000000000E+00 0.  1.
         21    1    1    2  502  501 -0.18443526757E+02  0.37721795225E+02  0.12619540934E+02  0.43844615720E+02  0.00000000000E+00 0.  1.
<scales pt_clust_4="550.00000" pt_clust_5="550.00000" pt_clust_6="41.98925"></scales>
<mgrwt>
<rscale>  0 0.30000000E+03</rscale>
<asrwt>  1 0.41989255E+02</asrwt>
<pdfrwt beam="1">  1        1 0.85217188E+00 0.30000000E+03</pdfrwt>
<pdfrwt beam="2">0</pdfrwt>
<totfact> 0.37534118E-04</totfact>
</mgrwt>
<clustering>
<clus scale="   41.989">  1  6  2 -1</clus>
<clus scale="  460.534">  4  5 -1 -1</clus>
<clus scale="  300.000">  1  4  2 -1</clus>
</clustering>
</event>
<event>
 6    1  0.1033679E-011  0.3000000E+03  0.7818608E-02  0.1093470E+00
          1   -1    0    0  502    0  0.00000000000E+00  0.00000000000E+00  0.23792384515E+03  0.23792384515E+03  0.00000000000E+00 0.  1.
         13   -1    0    0    0    0 -0.00000000000E+00 -0.00000000000E+00 -0.27500000000E+03  0.27500000000E+03  0.00000000000E+00 0.  1.
    9000005    2    1    2  501    0 -0.24704402951E+02 -0.17614956075E+02 -0.63436888888E+02  0.47273077981E+03  0.46747145057E+03 0.  0.
         13    1    3    3    0    0  0.60580502118E+02 -0.23086936948E+03 -0.27593927545E+02  0.24027502542E+03  0.00000000000E+00 0.  1.
          3    1    3    3  501    0 -0.85284905069E+02  0.21325441341E+03 -0.35842961343E+02  0.23245575439E+03  0.00000000000E+00 0.  1.
         21    1    1    2  502  501  0.24704402951E+02  0.17614956075E+02  0.26360734042E+02  0.40193065346E+02  0.00000000000E+00 0. -1.
<scales pt_clust_4="550.00000" pt_clust_5="550.00000" pt_clust_6="30.34130"></scales>
<mgrwt>
<rscale>  0 0.30000000E+03</rscale>
<asrwt>  1 0.30341295E+02</asrwt>
<pdfrwt beam="1">  1        1 0.86517762E+00 0.30000000E+03</pdfrwt>
<pdfrwt beam="2">0</pdfrwt>
<totfact> 0.29225522E-04</totfact>
</mgrwt>
<clustering>
<clus scale="   30.341">  1  6  2 -1</clus>
<clus scale="  467.471">  4  5 -1 -1</clus>
<clus scale="  300.000">  1  4  2 -1</clus>
</clustering>
</event>
<event>
 6    1  0.1033679E-011  0.3000000E+03  0.7818608E-02  0.1093470E+00
          1   -1    0    0  502    0  0.00000000000E+00  0.00000000000E+00  0.26293220882E+03  0.26293220882E+03  0.00000000000E+00 0.  1.
         13   -1    0    0    0    0 -0.00000000000E+00 -0.00000000000E+00 -0.27500000000E+03  0.27500000000E+03  0.00000000000E+00 0.  1.
    9000005    2    1    2  501    0  0.69144421963E+01  0.32841312397E+02 -0.54087088481E+02  0.48415505143E+03  0.47995243450E+03 0.  0.
         13    1    3    3    0    0 -0.18416340571E+03  0.35147477076E+02 -0.17627261167E+03  0.25733934556E+03  0.00000000000E+00 0.  1.
          3    1    3    3  501    0  0.19107784791E+03 -0.23061646783E+01  0.12218552318E+03  0.22681570588E+03  0.00000000000E+00 0.  1.
         21    1    1    2  502  501 -0.69144421963E+01 -0.32841312397E+02  0.42019297303E+02  0.53777157388E+02  0.00000000000E+00 0. -1.
<scales pt_clust_4="550.00000" pt_clust_5="550.00000" pt_clust_6="33.56131"></scales>
<mgrwt>
<rscale>  0 0.30000000E+03</rscale>
<asrwt>  1 0.33561307E+02</asrwt>
<pdfrwt beam="1">  1        1 0.95611712E+00 0.30000000E+03</pdfrwt>
<pdfrwt beam="2">0</pdfrwt>
<totfact> 0.92635876E-06</totfact>
</mgrwt>
<clustering>
<clus scale="   33.561">  1  6  2 -1</clus>
<clus scale="  479.952">  4  5 -1 -1</clus>
<clus scale="  300.000">  1  4  2 -1</clus>
</clustering>
</event>
<event>
 6    1  0.1033679E-011  0.3000000E+03  0.7818608E-02  0.1093470E+00
          1   -1    0    0  502    0  0.00000000000E+00  0.00000000000E+00  0.23483203067E+03  0.23483203067E+03  0.00000000000E+00 0.  1.
         13   -1    0    0    0    0 -0.00000000000E+00 -0.00000000000E+00 -0.27500000000E+03  0.27500000000E+03  0.00000000000E+00 0.  1.
    9000005    2    1    2  501    0  0.15151272120E+01  0.38480850229E+02 -0.48514210699E+02  0.47042732042E+03  0.46633160274E+03 0.  0.
         13    1    3    3    0    0  0.12079569880E+03  0.15561177984E+03 -0.17285656855E+03  0.26208017889E+03  0.00000000000E+00 0.  1.
          1    1    3    3  501    0 -0.11928057158E+03 -0.11713092961E+03  0.12434235786E+03  0.20834714154E+03  0.00000000000E+00 0.  1.
         21    1    1    2  502  501 -0.15151272120E+01 -0.38480850229E+02  0.83462413683E+01  0.39404710248E+02  0.00000000000E+00 0. -1.
<scales pt_clust_4="550.00000" pt_clust_5="550.00000" pt_clust_6="38.51067"></scales>
<mgrwt>
<rscale>  0 0.30000000E+03</rscale>
<asrwt>  1 0.38510667E+02</asrwt>
<pdfrwt beam="1">  1        1 0.85393466E+00 0.30000000E+03</pdfrwt>
<pdfrwt beam="2">0</pdfrwt>
<totfact> 0.36665153E-04</totfact>
</mgrwt>
<clustering>
<clus scale="   38.511">  1  6  2 -1</clus>
<clus scale="  466.332">  4  5 -1 -1</clus>
<clus scale="  300.000">  1  4  2 -1</clus>
</clustering>
</event>
<event>
 6    1  0.1033679E-011  0.3000000E+03  0.7818608E-02  0.1093470E+00
          1   -1    0    0  502    0  0.00000000000E+00  0.00000000000E+00  0.22963521120E+03  0.22963521120E+03  0.00000000000E+00 0.  1.
         13   -1    0    0    0    0 -0.00000000000E+00 -0.00000000000E+00 -0.27500000000E+03  0.27500000000E+03  0.00000000000E+00 0.  1.
    9000005    2    1    2  501    0 -0.36145647597E+02  0.54678631620E+01 -0.61791793370E+02  0.46455713931E+03  0.45897571241E+03 0.  0.
         13    1    3    3    0    0  0.86632679886E+02 -0.13755591837E+03  0.12048510672E+03  0.20234503415E+03  0.00000000000E+00 0.  1.
          1    1    3    3  501    0 -0.12277832748E+03  0.14302378153E+03 -0.18227690009E+03  0.26221210516E+03  0.00000000000E+00 0.  1.
         21    1    1    2  502  501  0.36145647597E+02 -0.54678631620E+01  0.16427004572E+02  0.40078071897E+02  0.00000000000E+00 0.  1.
<scales pt_clust_4="550.00000" pt_clust_5="550.00000" pt_clust_6="36.55688"></scales>
<mgrwt>
<rscale>  0 0.30000000E+03</rscale>
<asrwt>  1 0.36556879E+02</asrwt>
<pdfrwt beam="1">  1        1 0.83503713E+00 0.30000000E+03</pdfrwt>
<pdfrwt beam="2">0</pdfrwt>
<totfact> 0.53628659E-04</totfact>
</mgrwt>
<clustering>
<clus scale="   36.557">  1  6  2 -1</clus>
<clus scale="  458.976">  4  5 -1 -1</clus>
<clus scale="  300.000">  1  4  2 -1</clus>
</clustering>
</event>
<event>
 6    1  0.1033679E-011  0.3000000E+03  0.7818608E-02  0.1093470E+00
          1   -1    0    0  502    0  0.00000000000E+00  0.00000000000E+00  0.24803786554E+03  0.24803786554E+03  0.00000000000E+00 0.  1.
         13   -1    0    0    0    0 -0.00000000000E+00 -0.00000000000E+00 -0.27500000000E+03  0.27500000000E+03  0.00000000000E+00 0.  1.
    9000005    2    1    2  501    0  0.41631854245E+02  0.86079417360E+01 -0.45766166772E+02  0.47655238845E+03  0.47244082060E+03 0.  0.
         13    1    3    3    0    0 -0.89819883900E+02  0.16149724513E+03 -0.16032651893E+03  0.24464988126E+03  0.00000000000E+00 0.  1.
          1    1    3    3  501    0  0.13145173815E+03 -0.15288930339E+03  0.11456035216E+03  0.23190250719E+03  0.00000000000E+00 0.  1.
         21    1    1    2  502  501 -0.41631854245E+02 -0.86079417360E+01  0.18804032312E+02  0.46485477087E+02  0.00000000000E+00 0.  1.
<scales pt_clust_4="550.00000" pt_clust_5="550.00000" pt_clust_6="42.51244"></scales>
<mgrwt>
<rscale>  0 0.30000000E+03</rscale>
<asrwt>  1 0.42512445E+02</asrwt>
<pdfrwt beam="1">  1        1 0.90195587E+00 0.30000000E+03</pdfrwt>
<pdfrwt beam="2">0</pdfrwt>
<totfact> 0.10030208E-04</totfact>
</mgrwt>
<clustering>
<clus scale="   42.512">  1  6  2 -1</clus>
<clus scale="  472.441">  4  5 -1 -1</clus>
<clus scale="  300.000">  1  4  2 -1</clus>
</clustering>
</event>
<event>
 6    1  0.1033679E-011  0.3000000E+03  0.7818608E-02  0.1093470E+00
          1   -1    0    0  502    0  0.00000000000E+00  0.00000000000E+00  0.25032126239E+03  0.25032126239E+03  0.00000000000E+00 0.  1.
         13   -1    0    0    0    0 -0.00000000000E+00 -0.00000000000E+00 -0.27500000000E+03  0.27500000000E+03  0.00000000000E+00 0.  1.
    9000005    2    1    2  501    0  0.27244780812E+02 -0.47413160018E+02 -0.21222766749E+02  0.47052865742E+03  0.46685814313E+03 0.  0.
         13    1    3    3    0    0  0.22208814656E+03  0.42761291886E+02  0.70727945933E+02  0.23696859552E+03  0.00000000000E+00 0.  1.
          3    1    3    3  501    0 -0.19484336575E+03 -0.90174451904E+02 -0.91950712682E+02  0.23356006190E+03  0.00000000000E+00 0.  1.
         21    1    1    2  502  501 -0.27244780812E+02  0.47413160018E+02 -0.34559708610E+01  0.54792604966E+02  0.00000000000E+00 0.  1.
<scales pt_clust_4="550.00000" pt_clust_5="550.00000" pt_clust_6="54.68353"></scales>
<mgrwt>
<rscale>  0 0.30000000E+03</rscale>
<asrwt>  1 0.54683533E+02</asrwt>
<pdfrwt beam="1">  1        1 0.91025914E+00 0.30000000E+03</pdfrwt>
<pdfrwt beam="2">0</pdfrwt>
<totfact> 0.65364806E-05</totfact>
</mgrwt>
<clustering>
<clus scale="   54.684">  1  6  2 -1</clus>
<clus scale="  466.858">  4  5 -1 -1</clus>
<clus scale="  300.000">  1  4  2 -1</clus>
</clustering>
</event>
<event>
 6    1  0.1033679E-011  0.3000000E+03  0.7818608E-02  0.1093470E+00
          1   -1    0    0  502    0  0.00000000000E+00  0.00000000000E+00  0.22105189789E+03  0.22105189789E+03  0.00000000000E+00 0.  1.
         13   -1    0    0    0    0 -0.00000000000E+00 -0.00000000000E+00 -0.27500000000E+03  0.27500000000E+03  0.00000000000E+00 0.  1.
    9000005    2    1    2  501    0 -0.96367180178E+01 -0.31733535357E+02 -0.54373134133E+02  0.46288468136E+03  0.45848217732E+03 0.  0.
         13    1    3    3    0    0  0.10786970545E+03  0.97285746451E+02  0.13994692122E+03  0.20170654570E+03  0.00000000000E+00 0.  1.
          1    1    3    3  501    0 -0.11750642347E+03 -0.12901928181E+03 -0.19432005535E+03  0.26117813566E+03  0.00000000000E+00 0.  1.
         21    1    1    2  502  501  0.96367180178E+01  0.31733535357E+02  0.42503202687E+00  0.33167216534E+02  0.00000000000E+00 0. -1.
<scales pt_clust_4="550.00000" pt_clust_5="550.00000" pt_clust_6="33.16449"></scales>
<mgrwt>
<rscale>  0 0.30000000E+03</rscale>
<asrwt>  1 0.33164493E+02</asrwt>
<pdfrwt beam="1">  1        1 0.80382508E+00 0.30000000E+03</pdfrwt>
<pdfrwt beam="2">0</pdfrwt>
<totfact> 0.98235952E-04</totfact>
</mgrwt>
<clustering>
<clus scale="   33.164">  1  6  2 -1</clus>
<clus scale="  458.482">  4  5 -1 -1</clus>
<clus scale="  300.000">  1  4  2 -1</clus>
</clustering>
</event>
<event>
 6    1  0.1033679E-011  0.3000000E+03  0.7818608E-02  0.1093470E+00
          1   -1    0    0  502    0  0.00000000000E+00  0.00000000000E+00  0.22029906171E+03  0.22029906171E+03  0.00000000000E+00 0.  1.
         13   -1    0    0    0    0 -0.00000000000E+00 -0.00000000000E+00 -0.27500000000E+03  0.27500000000E+03  0.00000000000E+00 0.  1.
    9000005    2    1    2  501    0  0.19676700341E+02  0.25257643354E+02 -0.50440011343E+02  0.46299926941E+03  0.45912853063E+03 0.  0.
         13    1    3    3    0    0  0.67215183771E+02  0.21110815542E+03  0.74875851357E+02  0.23386091450E+03  0.00000000000E+00 0.  1.
          3    1    3    3  501    0 -0.47538483430E+02 -0.18585051207E+03 -0.12531586270E+03  0.22913835490E+03  0.00000000000E+00 0.  1.
         21    1    1    2  502  501 -0.19676700341E+02 -0.25257643354E+02 -0.42609269510E+01  0.32299792299E+02  0.00000000000E+00 0.  1.
<scales pt_clust_4="550.00000" pt_clust_5="550.00000" pt_clust_6="32.01753"></scales>
<mgrwt>
<rscale>  0 0.30000000E+03</rscale>
<asrwt>  1 0.32017528E+02</asrwt>
<pdfrwt beam="1">  1        1 0.80108750E+00 0.30000000E+03</pdfrwt>
<pdfrwt beam="2">0</pdfrwt>
<totfact> 0.10356478E-03</totfact>
</mgrwt>
<clustering>
<clus scale="   32.018">  1  6  2 -1</clus>
<clus scale="  459.129">  4  5 -1 -1</clus>
<clus scale="  300.000">  1  4  2 -1</clus>
</clustering>
</event>
<event>
 6    1  0.1033679E-011  0.3000000E+03  0.7818608E-02  0.1093470E+00
          1   -1    0    0  502    0  0.00000000000E+00  0.00000000000E+00  0.23960009196E+03  0.23960009196E+03  0.00000000000E+00 0.  1.
         13   -1    0    0    0    0 -0.00000000000E+00 -0.00000000000E+00 -0.27500000000E+03  0.27500000000E+03  0.00000000000E+00 0.  1.
    9000005    2    1    2  501    0  0.29918163587E+02 -0.18367076288E+02 -0.69005149535E+02  0.46600216752E+03  0.45952569402E+03 0.  0.
         13    1    3    3    0    0 -0.14266583298E+03 -0.94023712719E+02 -0.17928696316E+03  0.24766472016E+03  0.00000000000E+00 0.  1.
          1    1    3    3  501    0  0.17258399656E+03  0.75656636431E+02  0.11028181362E+03  0.21833744736E+03  0.00000000000E+00 0.  1.
         21    1    1    2  502  501 -0.29918163587E+02  0.18367076288E+02  0.33605241493E+02  0.48597924437E+02  0.00000000000E+00 0.  1.
<scales pt_clust_4="550.00000" pt_clust_5="550.00000" pt_clust_6="35.10621"></scales>
<mgrwt>
<rscale>  0 0.30000000E+03</rscale>
<asrwt>  1 0.35106210E+02</asrwt>
<pdfrwt beam="1">  1        1 0.87127306E+00 0.30000000E+03</pdfrwt>
<pdfrwt beam="2">0</pdfrwt>
<totfact> 0.24564440E-04</totfact>
</mgrwt>
<clustering>
<clus scale="   35.106">  1  6  2 -1</clus>
<clus scale="  459.526">  4  5 -1 -1</clus>
<clus scale="  300.000">  1  4  2 -1</clus>
</clustering>
</event>
<event>
 6    1  0.1033679E-011  0.3000000E+03  0.7818608E-02  0.1093470E+00
          1   -1    0    0  502    0  0.00000000000E+00  0.00000000000E+00  0.23529545275E+03  0.23529545275E+03  0.00000000000E+00 0.  1.
         13   -1    0    0    0    0 -0.00000000000E+00 -0.00000000000E+00 -0.27500000000E+03  0.27500000000E+03  0.00000000000E+00 0.  1.
    9000005    2    1    2  501    0  0.32691222785E+02  0.21137321056E+02 -0.44379982830E+02  0.47108624354E+03  0.46737261750E+03 0.  0.
         13    1    3    3    0    0  0.19783143410E+03  0.12787161568E+02  0.12501273664E+03  0.23436930717E+03  0.00000000000E+00 0.  1.
          3    1    3    3  501    0 -0.16514021131E+03  0.83501594878E+01 -0.16939271947E+03  0.23671693638E+03  0.00000000000E+00 0.  1.
         21    1    1    2  502  501 -0.32691222785E+02 -0.21137321056E+02  0.46754355798E+01  0.39209209205E+02  0.00000000000E+00 0. -1.
<scales pt_clust_4="550.00000" pt_clust_5="550.00000" pt_clust_6="38.92945"></scales>
<mgrwt>
<rscale>  0 0.30000000E+03</rscale>
<asrwt>  1 0.38929454E+02</asrwt>
<pdfrwt beam="1">  1        1 0.85561983E+00 0.30000000E+03</pdfrwt>
<pdfrwt beam="2">0</pdfrwt>
<totfact> 0.35217609E-04</totfact>
</mgrwt>
<clustering>
<clus scale="   38.929">  1  6  2 -1</clus>
<clus scale="  467.373">  4  5 -1 -1</clus>
<clus scale="  300.000">  1  4  2 -1</clus>
</clustering>
</event>
<event>
 6    1  0.1033679E-011  0.3000000E+03  0.7818608E-02  0.1093470E+00
          1   -1    0    0  502    0  0.00000000000E+00  0.00000000000E+00  0.21914640957E+03  0.21914640957E+03  0.00000000000E+00 0.  1.
         13   -1    0    0    0    0 -0.00000000000E+00 -0.00000000000E+00 -0.27500000000E+03  0.27500000000E+03  0.00000000000E+00 0.  1.
    9000005    2    1    2  501    0 -0.12575192523E+01 -0.30919014250E+02 -0.61582109693E+02  0.46267606274E+03  0.45751417027E+03 0.  0.
         13    1    3    3    0    0 -0.40331386542E+02 -0.51605332151E+02 -0.25551070313E+03  0.26377158766E+03  0.00000000000E+00 0.  1.
          3    1    3    3  501    0  0.39073867289E+02  0.20686317900E+02  0.19392859343E+03  0.19890447507E+03  0.00000000000E+00 0.  1.
         21    1    1    2  502  501  0.12575192523E+01  0.30919014250E+02  0.57285192648E+01  0.31470346834E+02  0.00000000000E+00 0.  1.
<scales pt_clust_4="550.00000" pt_clust_5="550.00000" pt_clust_6="30.94458"></scales>
<mgrwt>
<rscale>  0 0.30000000E+03</rscale>
<asrwt>  1 0.30944576E+02</asrwt>
<pdfrwt beam="1">  1        1 0.79689603E+00 0.30000000E+03</pdfrwt>
<pdfrwt beam="2">0</pdfrwt>
<totfact> 0.11180119E-03</totfact>
</mgrwt>
<clustering>
<clus scale="   30.945">  1  6  2 -1</clus>
<clus scale="  457.514">  4  5 -1 -1</clus>
<clus scale="  300.000">  1  4  2 -1</clus>
</clustering>
</event>
<event>
 6    1  0.1033679E-011  0.3000000E+03  0.7818608E-02  0.1093470E+00
          1   -1    0    0  502    0  0.00000000000E+00  0.00000000000E+00  0.24929843420E+03  0.24929843420E+03  0.00000000000E+00 0.  1.
         13   -1    0    0    0    0 -0.00000000000E+00 -0.00000000000E+00 -0.27500000000E+03  0.27500000000E+03  0.00000000000E+00 0.  1.
    9000005    2    1    2  501    0 -0.34193212802E+02  0.44662221950E+02 -0.35891142844E+02  0.46713448269E+03  0.46234463435E+03 0.  0.
         13    1    3    3    0    0  0.65016034286E+02  0.23055928856E+02 -0.23430578410E+03  0.24424958757E+03  0.00000000000E+00 0.  1.
          1    1    3    3  501    0 -0.99209247088E+02  0.21606293094E+02  0.19841464125E+03  0.22288489512E+03  0.00000000000E+00 0.  1.
         21    1    1    2  502  501  0.34193212802E+02 -0.44662221950E+02  0.10189577042E+02  0.57163951504E+02  0.00000000000E+00 0. -1.
<scales pt_clust_4="550.00000" pt_clust_5="550.00000" pt_clust_6="56.24847"></scales>
<mgrwt>
<rscale>  0 0.30000000E+03</rscale>
<asrwt>  1 0.56248466E+02</asrwt>
<pdfrwt beam="1">  1        1 0.90653976E+00 0.30000000E+03</pdfrwt>
<pdfrwt beam="2">0</pdfrwt>
<totfact> 0.79134838E-05</totfact>
</mgrwt>
<clustering>
<clus scale="   56.248">  1  6  2 -1</clus>
<clus scale="  462.345">  4  5 -1 -1</clus>
<clus scale="  300.000">  1  4  2 -1</clus>
</clustering>
</event>
<event>
 6    1  0.1033679E-011  0.3000000E+03  0.7818608E-02  0.1093470E+00
          1   -1    0    0  502    0  0.00000000000E+00  0.00000000000E+00  0.24503789021E+03  0.24503789021E+03  0.00000000000E+00 0.  1.
         13   -1    0    0    0    0 -0.00000000000E+00 -0.00000000000E+00 -0.27500000000E+03  0.27500000000E+03  0.00000000000E+00 0.  1.
    9000005    2    1    2  501    0 -0.65707569321E+01  0.41834917179E+02 -0.11748994881E+02  0.47393959635E+03  0.47189762339E+03 0.  0.
         13    1    3    3    0    0 -0.20953335336E+02  0.87848159505E+02  0.21969208077E+03  0.23753094902E+03  0.00000000000E+00 0.  1.
          3    1    3    3  501    0  0.14382578404E+02 -0.46013242326E+02 -0.23144107565E+03  0.23640864732E+03  0.00000000000E+00 0.  1.
         21    1    1    2  502  501  0.65707569321E+01 -0.41834917179E+02 -0.18213114911E+02  0.46098293860E+02  0.00000000000E+00 0.  1.
<scales pt_clust_4="550.00000" pt_clust_5="550.00000" pt_clust_6="42.34781"></scales>
<mgrwt>
<rscale>  0 0.30000000E+03</rscale>
<asrwt>  1 0.42347809E+02</asrwt>
<pdfrwt beam="1">  1        1 0.89104687E+00 0.30000000E+03</pdfrwt>
<pdfrwt beam="2">0</pdfrwt>
<totfact> 0.13562320E-04</totfact>
</mgrwt>
<clustering>
<clus scale="   42.348">  1  6  2 -1</clus>
<clus scale="  471.898">  4  5 -1 -1</clus>
<clus scale="  300.000">  1  4  2 -1</clus>
</clustering>
</event>
<event>
 6    1  0.1033679E-011  0.3000000E+03  0.7818608E-02  0.1093470E+00
          1   -1    0    0  502    0  0.00000000000E+00  0.00000000000E+00  0.23537772224E+03  0.23537772224E+03  0.00000000000E+00 0.  1.
         13   -1    0    0    0    0 -0.00000000000E+00 -0.00000000000E+00 -0.27500000000E+03  0.27500000000E+03  0.00000000000E+00 0.  1.
    9000005    2    1    2  501    0 -0.36563958461E+02 -0.12596153997E+02 -0.43338812347E+02  0.47152674048E+03  0.46793549575E+03 0.  0.
         13    1    3    3    0    0 -0.12081028456E+02  0.22449388124E+03 -0.59714713630E+02  0.23261406017E+03  0.00000000000E+00 0.  1.
          3    1    3    3  501    0 -0.24482930005E+02 -0.23709003524E+03  0.16375901283E+02  0.23891268031E+03  0.00000000000E+00 0.  1.
         21    1    1    2  502  501  0.36563958461E+02  0.12596153997E+02  0.37165345820E+01  0.38850981753E+02  0.00000000000E+00 0. -1.
<scales pt_clust_4="550.00000" pt_clust_5="550.00000" pt_clust_6="38.67281"></scales>
<mgrwt>
<rscale>  0 0.30000000E+03</rscale>
<asrwt>  1 0.38672809E+02</asrwt>
<pdfrwt beam="1">  1        1 0.85591899E+00 0.30000000E+03</pdfrwt>
<pdfrwt beam="2">0</pdfrwt>
<totfact> 0.35016790E-04</totfact>
</mgrwt>
<clustering>
<clus scale="   38.673">  1  6  2 -1</clus>
<clus scale="  467.935">  4  5 -1 -1</clus>
<clus scale="  300.000">  1  4  2 -1</clus>
</clustering>
</event>
<event>
 6    1  0.1033679E-011  0.3000000E+03  0.7818608E-02  0.1093470E+00
          1   -1    0    0  502    0  0.00000000000E+00  0.00000000000E+00  0.24757021943E+03  0.24757021943E+03  0.00000000000E+00 0.  1.
         13   -1    0    0    0    0 -0.00000000000E+00 -0.00000000000E+00 -0.27500000000E+03  0.27500000000E+03  0.00000000000E+00 0.  1.
    9000005    2    1    2  501    0 -0.26188737595E+02  0.24344546806E+02 -0.72498461786E+02  0.46504028841E+03  0.45796062707E+03 0.  0.
         13    1    3    3    0    0  0.19493663972E+03  0.43058991546E+01 -0.13164702789E+03  0.23526532728E+03  0.00000000000E+00 0.  1.
          1    1    3    3  501    0 -0.22112537731E+03  0.20038647651E+02  0.59148566099E+02  0.22977496113E+03  0.00000000000E+00 0.  1.
         21    1    1    2  502  501  0.26188737595E+02 -0.24344546806E+02  0.45068681212E+02  0.57529931012E+02  0.00000000000E+00 0.  1.
<scales pt_clust_4="550.00000" pt_clust_5="550.00000" pt_clust_6="35.75622"></scales>
<mgrwt>
<rscale>  0 0.30000000E+03</rscale>
<asrwt>  1 0.35756215E+02</asrwt>
<pdfrwt beam="1">  1        1 0.90025534E+00 0.30000000E+03</pdfrwt>
<pdfrwt beam="2">0</pdfrwt>
<totfact> 0.10918702E-04</totfact>
</mgrwt>
<clustering>
<clus scale="   35.756">  1  6  2 -1</clus>
<clus scale="  457.961">  4  5 -1 -1</clus>
<clus scale="  300.000">  1  4  2 -1</clus>
</clustering>
</event>
<event>
 6    1  0.1033679E-011  0.3000000E+03  0.7818608E-02  0.1093470E+00
          1   -1    0    0  502    0  0.00000000000E+00  0.00000000000E+00  0.22895813902E+03  0.22895813902E+03  0.00000000000E+00 0.  1.
         13   -1    0    0    0    0 -0.00000000000E+00 -0.00000000000E+00 -0.27500000000E+03  0.27500000000E+03  0.00000000000E+00 0.  1.
    9000005    2    1    2  501    0 -0.91435892461E+01 -0.35292218391E+02 -0.29861311652E+02  0.46407134823E+03  0.46167236479E+03 0.  0.
         13    1    3    3    0    0 -0.14550059579E+03  0.13791221687E+03  0.82334347477E+02  0.21672366671E+03  0.00000000000E+00 0.  1.
          3    1    3    3  501    0  0.13635700654E+03 -0.17320443526E+03 -0.11219565913E+03  0.24734768152E+03  0.00000000000E+00 0.  1.
         21    1    1    2  502  501  0.91435892461E+01  0.35292218391E+02 -0.16180549328E+02  0.39886790793E+02  0.00000000000E+00 0. -1.
<scales pt_clust_4="550.00000" pt_clust_5="550.00000" pt_clust_6="36.45747"></scales>
<mgrwt>
<rscale>  0 0.30000000E+03</rscale>
<asrwt>  1 0.36457472E+02</asrwt>
<pdfrwt beam="1">  1        1 0.83257505E+00 0.30000000E+03</pdfrwt>
<pdfrwt beam="2">0</pdfrwt>
<totfact> 0.55965253E-04</totfact>
</mgrwt>
<clustering>
<clus scale="   36.457">  1  6  2 -1</clus>
<clus scale="  461.672">  4  5 -1 -1</clus>
<clus scale="  300.000">  1  4  2 -1</clus>
</clustering>
</event>
<event>
 6    1  0.1033679E-011  0.3000000E+03  0.7818608E-02  0.1093470E+00
          1   -1    0    0  502    0  0.00000000000E+00  0.00000000000E+00  0.24120914487E+03  0.24120914487E+03  0.00000000000E+00 0.  1.
         13   -1    0    0    0    0 -0.00000000000E+00 -0.00000000000E+00 -0.27500000000E+03  0.27500000000E+03  0.00000000000E+00 0.  1.
    9000005    2    1    2  501    0  0.44949783194E+02  0.12367679911E+02 -0.33377598936E+02  0.46958711900E+03  0.46607355181E+03 0.  0.
         13    1    3    3    0    0  0.86652229801E+02 -0.22612500347E+02  0.20572261523E+03  0.22436962477E+03  0.00000000000E+00 0.  1.
          3    1    3    3  501    0 -0.41702446606E+02  0.34980180258E+02 -0.23910021416E+03  0.24521749423E+03  0.00000000000E+00 0.  1.
         21    1    1    2  502  501 -0.44949783194E+02 -0.12367679911E+02 -0.41325619691E+00  0.46622025871E+02  0.00000000000E+00 0.  1.
<scales pt_clust_4="550.00000" pt_clust_5="550.00000" pt_clust_6="46.62019"></scales>
<mgrwt>
<rscale>  0 0.30000000E+03</rscale>
<asrwt>  1 0.46620194E+02</asrwt>
<pdfrwt beam="1">  1        1 0.87712416E+00 0.30000000E+03</pdfrwt>
<pdfrwt beam="2">0</pdfrwt>
<totfact> 0.20245472E-04</totfact>
</mgrwt>
<clustering>
<clus scale="   46.620">  1  6  2 -1</clus>
<clus scale="  466.074">  4  5 -1 -1</clus>
<clus scale="  300.000">  1  4  2 -1</clus>
</clustering>
</event>
<event>
 6    1  0.1033679E-011  0.3000000E+03  0.7818608E-02  0.1093470E+00
          1   -1    0    0  502    0  0.00000000000E+00  0.00000000000E+00  0.22856277568E+03  0.22856277568E+03  0.00000000000E+00 0.  1.
         13   -1    0    0    0    0 -0.00000000000E+00 -0.00000000000E+00 -0.27500000000E+03  0.27500000000E+03  0.00000000000E+00 0.  1.
    9000005    2    1    2  501    0  0.34614629136E+02  0.14879198011E+02 -0.45015934968E+02  0.46585888799E+03  0.46214554637E+03 0.  0.
         13    1    3    3    0    0  0.19782083330E+03  0.73503513837E+02  0.10576843543E+03  0.23605679522E+03  0.00000000000E+00 0.  1.
          1    1    3    3  501    0 -0.16320620417E+03 -0.58624315826E+02 -0.15078437040E+03  0.22980209277E+03  0.00000000000E+00 0.  1.
         21    1    1    2  502  501 -0.34614629136E+02 -0.14879198011E+02 -0.14212893518E+01  0.37703887692E+02  0.00000000000E+00 0. -1.
<scales pt_clust_4="550.00000" pt_clust_5="550.00000" pt_clust_6="37.67709"></scales>
<mgrwt>
<rscale>  0 0.30000000E+03</rscale>
<asrwt>  1 0.37677090E+02</asrwt>
<pdfrwt beam="1">  1        1 0.83113737E+00 0.30000000E+03</pdfrwt>
<pdfrwt beam="2">0</pdfrwt>
<totfact> 0.57075007E-04</totfact>
</mgrwt>
<clustering>
<clus scale="   37.677">  1  6  2 -1</clus>
<clus scale="  462.146">  4  5 -1 -1</clus>
<clus scale="  300.000">  1  4  2 -1</clus>
</clustering>
</event>
<event>
 6    1  0.1033679E-011  0.3000000E+03  0.7818608E-02  0.1093470E+00
          1   -1    0    0  502    0  0.00000000000E+00  0.00000000000E+00  0.22109712821E+03  0.22109712821E+03  0.00000000000E+00 0.  1.
         13   -1    0    0    0    0 -0.00000000000E+00 -0.00000000000E+00 -0.27500000000E+03  0.27500000000E+03  0.00000000000E+00 0.  1.
    9000005    2    1    2  501    0  0.25429817070E+02  0.16466932228E+02 -0.56206969065E+02  0.46571383811E+03  0.46131585728E+03 0.  0.
         13    1    3    3    0    0 -0.17273909975E+03  0.66460804814E+02  0.98241745708E+02  0.20954063033E+03  0.00000000000E+00 0.  1.
          1    1    3    3  501    0  0.19816891682E+03 -0.49993872586E+02 -0.15444871477E+03  0.25617320778E+03  0.00000000000E+00 0.  1.
         21    1    1    2  502  501 -0.25429817070E+02 -0.16466932228E+02  0.23040972730E+01  0.30383290103E+02  0.00000000000E+00 0.  1.
<scales pt_clust_4="550.00000" pt_clust_5="550.00000" pt_clust_6="30.29580"></scales>
<mgrwt>
<rscale>  0 0.30000000E+03</rscale>
<asrwt>  1 0.30295799E+02</asrwt>
<pdfrwt beam="1">  1        1 0.80398956E+00 0.30000000E+03</pdfrwt>
<pdfrwt beam="2">0</pdfrwt>
<totfact> 0.99663312E-04</totfact>
</mgrwt>
<clustering>
<clus scale="   30.296">  1  6  2 -1</clus>
<clus scale="  461.316">  4  5 -1 -1</clus>
<clus scale="  300.000">  1  4  2 -1</clus>
</clustering>
</event>
<event>
 6    1  0.1033679E-011  0.3000000E+03  0.7818608E-02  0.1093470E+00
          1   -1    0    0  502    0  0.00000000000E+00  0.00000000000E+00  0.24150397756E+03  0.24150397756E+03  0.00000000000E+00 0.  1.
         13   -1    0    0    0    0 -0.00000000000E+00 -0.00000000000E+00 -0.27500000000E+03  0.27500000000E+03  0.00000000000E+00 0.  1.
    9000005    2    1    2  501    0  0.25706853046E+01 -0.46744204743E+02 -0.53610828996E+02  0.46555071915E+03  0.46007795211E+03 0.  0.
         13    1    3    3    0    0  0.12832892532E+03  0.15185161135E+02 -0.21558038739E+03  0.25134399858E+03  0.00000000000E+00 0.  1.
          3    1    3    3  501    0 -0.12575824002E+03 -0.61929365878E+02  0.16196955840E+03  0.21420672057E+03  0.00000000000E+00 0.  1.
         21    1    1    2  502  501 -0.25706853046E+01  0.46744204743E+02  0.20114806555E+02  0.50953258411E+02  0.00000000000E+00 0. -1.
<scales pt_clust_4="550.00000" pt_clust_5="550.00000" pt_clust_6="46.81484"></scales>
<mgrwt>
<rscale>  0 0.30000000E+03</rscale>
<asrwt>  1 0.46814838E+02</asrwt>
<pdfrwt beam="1">  1        1 0.87819628E+00 0.30000000E+03</pdfrwt>
<pdfrwt beam="2">0</pdfrwt>
<totfact> 0.19671640E-04</totfact>
</mgrwt>
<clustering>
<clus scale="   46.815">  1  6  2 -1</clus>
<clus scale="  460.078">  4  5 -1 -1</clus>
<clus scale="  300.000">  1  4  2 -1</clus>
</clustering>
</event>
<event>
 6    1  0.1033679E-011  0.3000000E+03  0.7818608E-02  0.1093470E+00
          1   -1    0    0  502    0  0.00000000000E+00  0.00000000000E+00  0.23932819899E+03  0.23932819899E+03  0.00000000000E+00 0.  1.
         13   -1    0    0    0    0 -0.00000000000E+00 -0.00000000000E+00 -0.27500000000E+03  0.27500000000E+03  0.00000000000E+00 0.  1.
    9000005    2    1    2  501    0  0.31559527916E+02  0.40614004158E+02 -0.16536163422E+02  0.45944948032E+03  0.45626185369E+03 0.  0.
         13    1    3    3    0    0 -0.17388562125E+03  0.12631194175E+03 -0.77802591561E+02  0.22856981244E+03  0.00000000000E+00 0.  1.
          1    1    3    3  501    0  0.20544514916E+03 -0.85697937595E+02  0.61266428140E+02  0.23087966788E+03  0.00000000000E+00 0.  1.
         21    1    1    2  502  501 -0.31559527916E+02 -0.40614004158E+02 -0.19135637592E+02  0.54878718663E+02  0.00000000000E+00 0. -1.
<scales pt_clust_4="550.00000" pt_clust_5="550.00000" pt_clust_6="51.43446"></scales>
<mgrwt>
<rscale>  0 0.30000000E+03</rscale>
<asrwt>  1 0.51434461E+02</asrwt>
<pdfrwt beam="1">  1        1 0.87028436E+00 0.30000000E+03</pdfrwt>
<pdfrwt beam="2">0</pdfrwt>
<totfact> 0.23466537E-04</totfact>
</mgrwt>
<clustering>
<clus scale="   51.434">  1  6  2 -1</clus>
<clus scale="  456.262">  4  5 -1 -1</clus>
<clus scale="  300.000">  1  4  2 -1</clus>
</clustering>
</event>
<event>
 6    1  0.1033679E-011  0.3000000E+03  0.7818608E-02  0.1093470E+00
          1   -1    0    0  502    0  0.00000000000E+00  0.00000000000E+00  0.24698945505E+03  0.24698945505E+03  0.00000000000E+00 0.  1.
         13   -1    0    0    0    0 -0.00000000000E+00 -0.00000000000E+00 -0.27500000000E+03  0.27500000000E+03  0.00000000000E+00 0.  1.
    9000005    2    1    2  501    0  0.29333959582E+02 -0.22983698756E+02 -0.69956979372E+02  0.46588032073E+03  0.45908796836E+03 0.  0.
         13    1    3    3    0    0 -0.61595971934E+02  0.13548844113E+02  0.18355497367E+03  0.19408777214E+03  0.00000000000E+00 0.  1.
          1    1    3    3  501    0  0.90929931516E+02 -0.36532542869E+02 -0.25351195304E+03  0.27179254859E+03  0.00000000000E+00 0.  1.
         21    1    1    2  502  501 -0.29333959582E+02  0.22983698756E+02  0.41946434424E+02  0.56109134320E+02  0.00000000000E+00 0. -1.
<scales pt_clust_4="550.00000" pt_clust_5="550.00000" pt_clust_6="37.26569"></scales>
<mgrwt>
<rscale>  0 0.30000000E+03</rscale>
<asrwt>  1 0.37265689E+02</asrwt>
<pdfrwt beam="1">  1        1 0.89814347E+00 0.30000000E+03</pdfrwt>
<pdfrwt beam="2">0</pdfrwt>
<totfact> 0.11489687E-04</totfact>
</mgrwt>
<clustering>
<clus scale="   37.266">  1  6  2 -1</clus>
<clus scale="  459.088">  4  5 -1 -1</clus>
<clus scale="  300.000">  1  4  2 -1</clus>
</clustering>
</event>
<event>
 6    1  0.1033679E-011  0.3000000E+03  0.7818608E-02  0.1093470E+00
          1   -1    0    0  502    0  0.00000000000E+00  0.00000000000E+00  0.23523336126E+03  0.23523336126E+03  0.00000000000E+00 0.  1.
         13   -1    0    0    0    0 -0.00000000000E+00 -0.00000000000E+00 -0.27500000000E+03  0.27500000000E+03  0.00000000000E+00 0.  1.
    9000005    2    1    2  501    0  0.66625941151E+01 -0.29647187846E+02 -0.60671417927E+02  0.47335036111E+03  0.46846152190E+03 0.  0.
         13    1    3    3    0    0 -0.75186911032E+02 -0.14199082907E+03  0.15075769037E+03  0.22032328142E+03  0.00000000000E+00 0.  1.
          1    1    3    3  501    0  0.81849505147E+02  0.11234364122E+03 -0.21142910830E+03  0.25302707968E+03  0.00000000000E+00 0.  1.
         21    1    1    2  502  501 -0.66625941151E+01  0.29647187846E+02  0.20904779186E+02  0.36883000154E+02  0.00000000000E+00 0. -1.
<scales pt_clust_4="550.00000" pt_clust_5="550.00000" pt_clust_6="30.38661"></scales>
<mgrwt>
<rscale>  0 0.30000000E+03</rscale>
<asrwt>  1 0.30386607E+02</asrwt>
<pdfrwt beam="1">  1        1 0.85539404E+00 0.30000000E+03</pdfrwt>
<pdfrwt beam="2">0</pdfrwt>
<totfact> 0.37086487E-04</totfact>
</mgrwt>
<clustering>
<clus scale="   30.387">  1  6  2 -1</clus>
<clus scale="  468.462">  4  5 -1 -1</clus>
<clus scale="  300.000">  1  4  2 -1</clus>
</clustering>
</event>
<event>
 6    1  0.1033679E-011  0.3000000E+03  0.7818608E-02  0.1093470E+00
          1   -1    0    0  502    0  0.00000000000E+00  0.00000000000E+00  0.22143101656E+03  0.22143101656E+03  0.00000000000E+00 0.  1.
         13   -1    0    0    0    0 -0.00000000000E+00 -0.00000000000E+00 -0.27500000000E+03  0.27500000000E+03  0.00000000000E+00 0.  1.
    9000005    2    1    2  501    0  0.63440390488E+01  0.29836390587E+02 -0.63380455428E+02  0.46438851327E+03  0.45903066574E+03 0.  0.
         13    1    3    3    0    0 -0.16830314124E+02 -0.21346309544E+03 -0.10812634078E+02  0.21439838069E+03  0.00000000000E+00 0.  1.
          1    1    3    3  501    0  0.23174353173E+02  0.24329948602E+03 -0.52567821350E+02  0.24999013258E+03  0.00000000000E+00 0.  1.
         21    1    1    2  502  501 -0.63440390488E+01 -0.29836390587E+02  0.98114719894E+01  0.32042503293E+02  0.00000000000E+00 0. -1.
<scales pt_clust_4="550.00000" pt_clust_5="550.00000" pt_clust_6="30.50339"></scales>
<mgrwt>
<rscale>  0 0.30000000E+03</rscale>
<asrwt>  1 0.30503394E+02</asrwt>
<pdfrwt beam="1">  1        1 0.80520370E+00 0.30000000E+03</pdfrwt>
<pdfrwt beam="2">0</pdfrwt>
<totfact> 0.97462982E-04</totfact>
</mgrwt>
<clustering>
<clus scale="   30.503">  1  6  2 -1</clus>
<clus scale="  459.031">  4  5 -1 -1</clus>
<clus scale="  300.000">  1  4  2 -1</clus>
</clustering>
</event>
<event>
 6    1  0.1033679E-011  0.3000000E+03  0.7818608E-02  0.1093470E+00
          1   -1    0    0  502    0  0.00000000000E+00  0.00000000000E+00  0.23680009924E+03  0.23680009924E+03  0.00000000000E+00 0.  1.
         13   -1    0    0    0    0 -0.00000000000E+00 -0.00000000000E+00 -0.27500000000E+03  0.27500000000E+03  0.00000000000E+00 0.  1.
    9000005    2    1    2  501    0 -0.17091385160E+02 -0.29511593033E+02 -0.41046871993E+02  0.47757795999E+03  0.47458699160E+03 0.  0.
         13    1    3    3    0    0 -0.21909023671E+03 -0.65672165520E+02 -0.11928679253E+03  0.25795872541E+03  0.00000000000E+00 0.  1.
          3    1    3    3  501    0  0.20199885155E+03  0.36160572486E+02  0.78239920537E+02  0.21961923457E+03  0.00000000000E+00 0.  1.
         21    1    1    2  502  501  0.17091385160E+02  0.29511593033E+02  0.28469712367E+01  0.34222139256E+02  0.00000000000E+00 0. -1.
<scales pt_clust_4="550.00000" pt_clust_5="550.00000" pt_clust_6="34.10351"></scales>
<mgrwt>
<rscale>  0 0.30000000E+03</rscale>
<asrwt>  1 0.34103513E+02</asrwt>
<pdfrwt beam="1">  1        1 0.86109127E+00 0.30000000E+03</pdfrwt>
<pdfrwt beam="2">0</pdfrwt>
<totfact> 0.31640652E-04</totfact>
</mgrwt>
<clustering>
<clus scale="   34.104">  1  6  2 -1</clus>
<clus scale="  474.587">  4  5 -1 -1</clus>
<clus scale="  300.000">  1  4  2 -1</clus>
</clustering>
</event>
<event>
 6    1  0.1033679E-011  0.3000000E+03  0.7818608E-02  0.1093470E+00
          1   -1    0    0  502    0  0.00000000000E+00  0.00000000000E+00  0.22537786414E+03  0.22537786414E+03  0.00000000000E+00 0.  1.
         13   -1    0    0    0    0 -0.00000000000E+00 -0.00000000000E+00 -0.27500000000E+03  0.27500000000E+03  0.00000000000E+00 0.  1.
    9000005    2    1    2  501    0 -0.25538634435E+02 -0.18368607064E+02 -0.50081907930E+02  0.46891615782E+03  0.46517151460E+03 0.  0.
         13    1    3    3    0    0 -0.74096519149E+02 -0.12204431056E+03 -0.22105418601E+03  0.26315406332E+03  0.00000000000E+00 0.  1.
          1    1    3    3  501    0  0.48557884714E+02  0.10367570350E+03  0.17097227808E+03  0.20576209450E+03  0.00000000000E+00 0.  1.
         21    1    1    2  502  501  0.25538634435E+02  0.18368607064E+02  0.45977207517E+00  0.31461706321E+02  0.00000000000E+00 0. -1.
<scales pt_clust_4="550.00000" pt_clust_5="550.00000" pt_clust_6="31.45835"></scales>
<mgrwt>
<rscale>  0 0.30000000E+03</rscale>
<asrwt>  1 0.31458347E+02</asrwt>
<pdfrwt beam="1">  1        1 0.81955587E+00 0.30000000E+03</pdfrwt>
<pdfrwt beam="2">0</pdfrwt>
<totfact> 0.74455657E-04</totfact>
</mgrwt>
<clustering>
<clus scale="   31.458">  1  6  2 -1</clus>
<clus scale="  465.172">  4  5 -1 -1</clus>
<clus scale="  300.000">  1  4  2 -1</clus>
</clustering>
</event>
<event>
 6    1  0.1033679E-011  0.3000000E+03  0.7818608E-02  0.1093470E+00
          1   -1    0    0  502    0  0.00000000000E+00  0.00000000000E+00  0.22768602511E+03  0.22768602511E+03  0.00000000000E+00 0.  1.
         13   -1    0    0    0    0 -0.00000000000E+00 -0.00000000000E+00 -0.27500000000E+03  0.27500000000E+03  0.00000000000E+00 0.  1.
    9000005    2    1    2  501    0  0.31277964447E+02  0.14445462052E+02 -0.67562404911E+02  0.46272377602E+03  0.45646646307E+03 0.  0.
         13    1    3    3    0    0  0.15874650219E+03 -0.43518827999E+02  0.13745544202E+03  0.21444891907E+03  0.00000000000E+00 0.  1.
          1    1    3    3  501    0 -0.12746853775E+03  0.57964290051E+02 -0.20501784693E+03  0.24827485696E+03  0.00000000000E+00 0.  1.
         21    1    1    2  502  501 -0.31277964447E+02 -0.14445462052E+02  0.20248430025E+02  0.39962249090E+02  0.00000000000E+00 0. -1.
<scales pt_clust_4="550.00000" pt_clust_5="550.00000" pt_clust_6="34.45261"></scales>
<mgrwt>
<rscale>  0 0.30000000E+03</rscale>
<asrwt>  1 0.34452611E+02</asrwt>
<pdfrwt beam="1">  1        1 0.82794918E+00 0.30000000E+03</pdfrwt>
<pdfrwt beam="2">0</pdfrwt>
<totfact> 0.61698823E-04</totfact>
</mgrwt>
<clustering>
<clus scale="   34.453">  1  6  2 -1</clus>
<clus scale="  456.466">  4  5 -1 -1</clus>
<clus scale="  300.000">  1  4  2 -1</clus>
</clustering>
</event>
<event>
 6    1  0.1033679E-011  0.3000000E+03  0.7818608E-02  0.1093470E+00
          1   -1    0    0  502    0  0.00000000000E+00  0.00000000000E+00  0.22093885768E+03  0.22093885768E+03  0.00000000000E+00 0.  1.
         13   -1    0    0    0    0 -0.00000000000E+00 -0.00000000000E+00 -0.27500000000E+03  0.27500000000E+03  0.00000000000E+00 0.  1.
    9000005    2    1    2  501    0 -0.19774771376E+01 -0.30400346424E+02 -0.66052924334E+02  0.46319906058E+03  0.45745195314E+03 0.  0.
         13    1    3    3    0    0  0.19126442469E+03  0.44396839231E+02 -0.14220487798E+03  0.24243635620E+03  0.00000000000E+00 0.  1.
          1    1    3    3  501    0 -0.19324190183E+03 -0.74797185655E+02  0.76151953642E+02  0.22076270438E+03  0.00000000000E+00 0.  1.
         21    1    1    2  502  501  0.19774771376E+01  0.30400346424E+02  0.11991782019E+02  0.32739797106E+02  0.00000000000E+00 0.  1.
<scales pt_clust_4="550.00000" pt_clust_5="550.00000" pt_clust_6="30.46459"></scales>
<mgrwt>
<rscale>  0 0.30000000E+03</rscale>
<asrwt>  1 0.30464594E+02</asrwt>
<pdfrwt beam="1">  1        1 0.80341403E+00 0.30000000E+03</pdfrwt>
<pdfrwt beam="2">0</pdfrwt>
<totfact> 0.10054007E-03</totfact>
</mgrwt>
<clustering>
<clus scale="   30.465">  1  6  2 -1</clus>
<clus scale="  457.452">  4  5 -1 -1</clus>
<clus scale="  300.000">  1  4  2 -1</clus>
</clustering>
</event>
<event>
 6    1  0.1033679E-011  0.3000000E+03  0.7818608E-02  0.1093470E+00
          1   -1    0    0  502    0  0.00000000000E+00  0.00000000000E+00  0.23485376861E+03  0.23485376861E+03  0.00000000000E+00 0.  1.
         13   -1    0    0    0    0 -0.00000000000E+00 -0.00000000000E+00 -0.27500000000E+03  0.27500000000E+03  0.00000000000E+00 0.  1.
    9000005    2    1    2  501    0  0.19958508815E+02 -0.36725669891E+02 -0.53998672484E+02  0.46581961110E+03  0.46078730077E+03 0.  0.
         13    1    3    3    0    0  0.12527601987E+03 -0.20558489661E+03  0.42790321472E+02  0.24452043367E+03  0.00000000000E+00 0.  1.
          3    1    3    3  501    0 -0.10531751106E+03  0.16885922672E+03 -0.96788993956E+02  0.22129917744E+03  0.00000000000E+00 0.  1.
         21    1    1    2  502  501 -0.19958508815E+02  0.36725669891E+02  0.13852441093E+02  0.44034157506E+02  0.00000000000E+00 0. -1.
<scales pt_clust_4="550.00000" pt_clust_5="550.00000" pt_clust_6="41.79853"></scales>
<mgrwt>
<rscale>  0 0.30000000E+03</rscale>
<asrwt>  1 0.41798528E+02</asrwt>
<pdfrwt beam="1">  1        1 0.85401370E+00 0.30000000E+03</pdfrwt>
<pdfrwt beam="2">0</pdfrwt>
<totfact> 0.36057694E-04</totfact>
</mgrwt>
<clustering>
<clus scale="   41.799">  1  6  2 -1</clus>
<clus scale="  460.787">  4  5 -1 -1</clus>
<clus scale="  300.000">  1  4  2 -1</clus>
</clustering>
</event>
<event>
 6    1  0.1033679E-011  0.3000000E+03  0.7818608E-02  0.1093470E+00
          1   -1    0    0  502    0  0.00000000000E+00  0.00000000000E+00  0.23315044422E+03  0.23315044422E+03  0.00000000000E+00 0.  1.
         13   -1    0    0    0    0 -0.00000000000E+00 -0.00000000000E+00 -0.27500000000E+03  0.27500000000E+03  0.00000000000E+00 0.  1.
    9000005    2    1    2  501    0  0.86688370083E+01  0.30744180707E+02 -0.48373822050E+02  0.47554799902E+03  0.47200160946E+03 0.  0.
         13    1    3    3    0    0  0.19793714873E+03  0.10063462805E+03  0.80442089106E+02  0.23617233731E+03  0.00000000000E+00 0.  1.
          3    1    3    3  501    0 -0.18926831172E+03 -0.69890447347E+02 -0.12881591116E+03  0.23937566171E+03  0.00000000000E+00 0.  1.
         21    1    1    2  502  501 -0.86688370083E+01 -0.30744180707E+02  0.65242662665E+01  0.32602445195E+02  0.00000000000E+00 0. -1.
<scales pt_clust_4="550.00000" pt_clust_5="550.00000" pt_clust_6="31.94297"></scales>
<mgrwt>
<rscale>  0 0.30000000E+03</rscale>
<asrwt>  1 0.31942971E+02</asrwt>
<pdfrwt beam="1">  1        1 0.84781980E+00 0.30000000E+03</pdfrwt>
<pdfrwt beam="2">0</pdfrwt>
<totfact> 0.43376408E-04</totfact>
</mgrwt>
<clustering>
<clus scale="   31.943">  1  6  2 -1</clus>
<clus scale="  472.002">  4  5 -1 -1</clus>
<clus scale="  300.000">  1  4  2 -1</clus>
</clustering>
</event>
<event>
 6    1  0.1033679E-011  0.3000000E+03  0.7818608E-02  0.1093470E+00
          1   -1    0    0  502    0  0.00000000000E+00  0.00000000000E+00  0.23822100288E+03  0.23822100288E+03  0.00000000000E+00 0.  1.
         13   -1    0    0    0    0 -0.00000000000E+00 -0.00000000000E+00 -0.27500000000E+03  0.27500000000E+03  0.00000000000E+00 0.  1.
    9000005    2    1    2  501    0  0.12407580465E+02 -0.29211210764E+02 -0.72329516786E+02  0.46556512878E+03  0.45881596229E+03 0.  0.
         13    1    3    3    0    0 -0.56816679822E+02 -0.23552559208E+03 -0.39818305661E+02  0.24553194720E+03  0.00000000000E+00 0.  1.
          1    1    3    3  501    0  0.69224260287E+02  0.20631438131E+03 -0.32511211125E+02  0.22003318158E+03  0.00000000000E+00 0.  1.
         21    1    1    2  502  501 -0.12407580465E+02  0.29211210764E+02  0.35550519667E+02  0.47655874096E+02  0.00000000000E+00 0.  1.
<scales pt_clust_4="550.00000" pt_clust_5="550.00000" pt_clust_6="31.73709"></scales>
<mgrwt>
<rscale>  0 0.30000000E+03</rscale>
<asrwt>  1 0.31737090E+02</asrwt>
<pdfrwt beam="1">  1        1 0.86625819E+00 0.30000000E+03</pdfrwt>
<pdfrwt beam="2">0</pdfrwt>
<totfact> 0.28213989E-04</totfact>
</mgrwt>
<clustering>
<clus scale="   31.737">  1  6  2 -1</clus>
<clus scale="  458.816">  4  5 -1 -1</clus>
<clus scale="  300.000">  1  4  2 -1</clus>
</clustering>
</event>
<event>
 6    1  0.1033679E-011  0.3000000E+03  0.7818608E-02  0.1093470E+00
          1   -1    0    0  502    0  0.00000000000E+00  0.00000000000E+00  0.25739728745E+03  0.25739728745E+03  0.00000000000E+00 0.  1.
         13   -1    0    0    0    0 -0.00000000000E+00 -0.00000000000E+00 -0.27500000000E+03  0.27500000000E+03  0.00000000000E+00 0.  1.
    9000005    2    1    2  501    0  0.30257249809E+02  0.41232539046E+01 -0.11316983449E+02  0.50122016797E+03  0.50016105433E+03 0.  0.
         13    1    3    3    0    0 -0.19094750165E+03  0.60890538952E+02  0.12408604701E+03  0.23572431606E+03  0.00000000000E+00 0.  1.
          3    1    3    3  501    0  0.22120475146E+03 -0.56767285047E+02 -0.13540303046E+03  0.26549585190E+03  0.00000000000E+00 0.  1.
         21    1    1    2  502  501 -0.30257249809E+02 -0.41232539046E+01 -0.62857291035E+01  0.31177119481E+02  0.00000000000E+00 0.  1.
<scales pt_clust_4="550.00000" pt_clust_5="550.00000" pt_clust_6="30.53692"></scales>
<mgrwt>
<rscale>  0 0.30000000E+03</rscale>
<asrwt>  1 0.30536917E+02</asrwt>
<pdfrwt beam="1">  1        1 0.93599014E+00 0.30000000E+03</pdfrwt>
<pdfrwt beam="2">0</pdfrwt>
<totfact> 0.22478308E-05</totfact>
</mgrwt>
<clustering>
<clus scale="   30.537">  1  6  2 -1</clus>
<clus scale="  500.161">  4  5 -1 -1</clus>
<clus scale="  300.000">  1  4  2 -1</clus>
</clustering>
</event>
<event>
 6    1  0.1033679E-011  0.3000000E+03  0.7818608E-02  0.1093470E+00
          1   -1    0    0  502    0  0.00000000000E+00  0.00000000000E+00  0.22915213348E+03  0.22915213348E+03  0.00000000000E+00 0.  1.
         13   -1    0    0    0    0 -0.00000000000E+00 -0.00000000000E+00 -0.27500000000E+03  0.27500000000E+03  0.00000000000E+00 0.  1.
    9000005    2    1    2  501    0  0.35786600851E+02  0.90202246788E+01 -0.52405115981E+02  0.46666823328E+03  0.46224549594E+03 0.  0.
         13    1    3    3    0    0  0.55198712998E+02 -0.58220203526E+02 -0.24708872219E+03  0.25978707945E+03  0.00000000000E+00 0.  1.
          1    1    3    3  501    0 -0.19412112147E+02  0.67240428205E+02  0.19468360621E+03  0.20688115383E+03  0.00000000000E+00 0.  1.
         21    1    1    2  502  501 -0.35786600851E+02 -0.90202246788E+01  0.65572494615E+01  0.37483900201E+02  0.00000000000E+00 0. -1.
<scales pt_clust_4="550.00000" pt_clust_5="550.00000" pt_clust_6="36.90590"></scales>
<mgrwt>
<rscale>  0 0.30000000E+03</rscale>
<asrwt>  1 0.36905897E+02</asrwt>
<pdfrwt beam="1">  1        1 0.83328049E+00 0.30000000E+03</pdfrwt>
<pdfrwt beam="2">0</pdfrwt>
<totfact> 0.55157290E-04</totfact>
</mgrwt>
<clustering>
<clus scale="   36.906">  1  6  2 -1</clus>
<clus scale="  462.245">  4  5 -1 -1</clus>
<clus scale="  300.000">  1  4  2 -1</clus>
</clustering>
</event>
<event>
 6    1  0.1033679E-011  0.3000000E+03  0.7818608E-02  0.1093470E+00
          1   -1    0    0  502    0  0.00000000000E+00  0.00000000000E+00  0.23840066691E+03  0.23840066691E+03  0.00000000000E+00 0.  1.
         13   -1    0    0    0    0 -0.00000000000E+00 -0.00000000000E+00 -0.27500000000E+03  0.27500000000E+03  0.00000000000E+00 0.  1.
    9000005    2    1    2  501    0  0.22455389806E+02  0.21155728063E+02 -0.55555845211E+02  0.47719074130E+03  0.47294052721E+03 0.  0.
         13    1    3    3    0    0 -0.63146426579E+01 -0.12365545502E+03 -0.22231269672E+03  0.25446705365E+03  0.00000000000E+00 0.  1.
          3    1    3    3  501    0  0.28770032464E+02  0.14481118308E+03  0.16675685151E+03  0.22272368765E+03  0.00000000000E+00 0.  1.
         21    1    1    2  502  501 -0.22455389806E+02 -0.21155728063E+02  0.18956512121E+02  0.36209925614E+02  0.00000000000E+00 0.  1.
<scales pt_clust_4="550.00000" pt_clust_5="550.00000" pt_clust_6="30.85141"></scales>
<mgrwt>
<rscale>  0 0.30000000E+03</rscale>
<asrwt>  1 0.30851408E+02</asrwt>
<pdfrwt beam="1">  1        1 0.86691152E+00 0.30000000E+03</pdfrwt>
<pdfrwt beam="2">0</pdfrwt>
<totfact> 0.27918854E-04</totfact>
</mgrwt>
<clustering>
<clus scale="   30.851">  1  6  2 -1</clus>
<clus scale="  472.941">  4  5 -1 -1</clus>
<clus scale="  300.000">  1  4  2 -1</clus>
</clustering>
</event>
<event>
 6    1  0.1033679E-011  0.3000000E+03  0.7818608E-02  0.1093470E+00
          1   -1    0    0  502    0  0.00000000000E+00  0.00000000000E+00  0.22068967354E+03  0.22068967354E+03  0.00000000000E+00 0.  1.
         13   -1    0    0    0    0 -0.00000000000E+00 -0.00000000000E+00 -0.27500000000E+03  0.27500000000E+03  0.00000000000E+00 0.  1.
    9000005    2    1    2  501    0 -0.29743905138E+02  0.77989836652E+01 -0.62568893388E+02  0.46385057860E+03  0.45858147456E+03 0.  0.
         13    1    3    3    0    0  0.19229110591E+03  0.84368873000E+01  0.70513644819E+02  0.20498591313E+03  0.00000000000E+00 0.  1.
          1    1    3    3  501    0 -0.22203501104E+03 -0.63790363488E+00 -0.13308253821E+03  0.25886466546E+03  0.00000000000E+00 0.  1.
         21    1    1    2  502  501  0.29743905138E+02 -0.77989836652E+01  0.82585669302E+01  0.31839094943E+02  0.00000000000E+00 0.  1.
<scales pt_clust_4="550.00000" pt_clust_5="550.00000" pt_clust_6="30.74937"></scales>
<mgrwt>
<rscale>  0 0.30000000E+03</rscale>
<asrwt>  1 0.30749375E+02</asrwt>
<pdfrwt beam="1">  1        1 0.80250790E+00 0.30000000E+03</pdfrwt>
<pdfrwt beam="2">0</pdfrwt>
<totfact> 0.10191174E-03</totfact>
</mgrwt>
<clustering>
<clus scale="   30.749">  1  6  2 -1</clus>
<clus scale="  458.581">  4  5 -1 -1</clus>
<clus scale="  300.000">  1  4  2 -1</clus>
</clustering>
</event>
<event>
 6    1  0.1033679E-011  0.3000000E+03  0.7818608E-02  0.1093470E+00
          1   -1    0    0  502    0  0.00000000000E+00  0.00000000000E+00  0.23417595873E+03  0.23417595873E+03  0.00000000000E+00 0.  1.
         13   -1    0    0    0    0 -0.00000000000E+00 -0.00000000000E+00 -0.27500000000E+03  0.27500000000E+03  0.00000000000E+00 0.  1.
    9000005    2    1    2  501    0 -0.29101966135E+02  0.14966186976E+02 -0.72174850056E+02  0.46385726064E+03  0.45703767687E+03 0.  0.
         13    1    3    3    0    0 -0.17868481996E+03  0.78088839109E+01  0.12357503268E+03  0.21739372634E+03  0.00000000000E+00 0.  1.
          3    1    3    3  501    0  0.14958285382E+03  0.71573030647E+01 -0.19574988274E+03  0.24646353429E+03  0.00000000000E+00 0.  1.
         21    1    1    2  502  501  0.29101966135E+02 -0.14966186976E+02  0.31350808791E+02  0.45318698099E+02  0.00000000000E+00 0.  1.
<scales pt_clust_4="550.00000" pt_clust_5="550.00000" pt_clust_6="32.72478"></scales>
<mgrwt>
<rscale>  0 0.30000000E+03</rscale>
<asrwt>  1 0.32724779E+02</asrwt>
<pdfrwt beam="1">  1        1 0.85154894E+00 0.30000000E+03</pdfrwt>
<pdfrwt beam="2">0</pdfrwt>
<totfact> 0.39849148E-04</totfact>
</mgrwt>
<clustering>
<clus scale="   32.725">  1  6  2 -1</clus>
<clus scale="  457.038">  4  5 -1 -1</clus>
<clus scale="  300.000">  1  4  2 -1</clus>
</clustering>
</event>
<event>
 6    1  0.1033679E-011  0.3000000E+03  0.7818608E-02  0.1093470E+00
          1   -1    0    0  502    0  0.00000000000E+00  0.00000000000E+00  0.22909797281E+03  0.22909797281E+03  0.00000000000E+00 0.  1.
         13   -1    0    0    0    0 -0.00000000000E+00 -0.00000000000E+00 -0.27500000000E+03  0.27500000000E+03  0.00000000000E+00 0.  1.
    9000005    2    1    2  501    0  0.30202358676E+02  0.78102867178E+00 -0.49570572039E+02  0.47366360578E+03  0.47009273272E+03 0.  0.
         13    1    3    3    0    0 -0.56881500100E+02 -0.62787252090E+02 -0.24017418999E+03  0.25467898542E+03  0.00000000000E+00 0.  1.
          1    1    3    3  501    0  0.87083858776E+02  0.63568280762E+02  0.19060361795E+03  0.21898462036E+03  0.00000000000E+00 0.  1.
         21    1    1    2  502  501 -0.30202358676E+02 -0.78102867178E+00  0.36685448528E+01  0.30434367034E+02  0.00000000000E+00 0. -1.
<scales pt_clust_4="550.00000" pt_clust_5="550.00000" pt_clust_6="30.21246"></scales>
<mgrwt>
<rscale>  0 0.30000000E+03</rscale>
<asrwt>  1 0.30212456E+02</asrwt>
<pdfrwt beam="1">  1        1 0.83308354E+00 0.30000000E+03</pdfrwt>
<pdfrwt beam="2">0</pdfrwt>
<totfact> 0.57475737E-04</totfact>
</mgrwt>
<clustering>
<clus scale="   30.212">  1  6  2 -1</clus>
<clus scale="  470.093">  4  5 -1 -1</clus>
<clus scale="  300.000">  1  4  2 -1</clus>
</clustering>
</event>
<event>
 6    1  0.1033679E-011  0.3000000E+03  0.7818608E-02  0.1093470E+00
          1   -1    0    0  502    0  0.00000000000E+00  0.00000000000E+00  0.23189770000E+03  0.23189770000E+03  0.00000000000E+00 0.  1.
         13   -1    0    0    0    0 -0.00000000000E+00 -0.00000000000E+00 -0.27500000000E+03  0.27500000000E+03  0.00000000000E+00 0.  1.
    9000005    2    1    2  501    0  0.26862712884E+02 -0.24005574528E+02 -0.67784162852E+02  0.46322771825E+03  0.45682310939E+03 0.  0.
         13    1    3    3    0    0 -0.61954664505E+02  0.12604891501E+03 -0.20000615225E+03  0.24439552035E+03  0.00000000000E+00 0.  1.
          3    1    3    3  501    0  0.88817377389E+02 -0.15005448954E+03  0.13222198940E+03  0.21883219790E+03  0.00000000000E+00 0.  1.
         21    1    1    2  502  501 -0.26862712884E+02  0.24005574528E+02  0.24681862854E+02  0.43669981748E+02  0.00000000000E+00 0.  1.
<scales pt_clust_4="550.00000" pt_clust_5="550.00000" pt_clust_6="36.02600"></scales>
<mgrwt>
<rscale>  0 0.30000000E+03</rscale>
<asrwt>  1 0.36026004E+02</asrwt>
<pdfrwt beam="1">  1        1 0.84326436E+00 0.30000000E+03</pdfrwt>
<pdfrwt beam="2">0</pdfrwt>
<totfact> 0.46512029E-04</totfact>
</mgrwt>
<clustering>
<clus scale="   36.026">  1  6  2 -1</clus>
<clus scale="  456.823">  4  5 -1 -1</clus>
<clus scale="  300.000">  1  4  2 -1</clus>
</clustering>
</event>
<event>
 6    1  0.1033679E-011  0.3000000E+03  0.7818608E-02  0.1093470E+00
          1   -1    0    0  502    0  0.00000000000E+00  0.00000000000E+00  0.23782399618E+03  0.23782399618E+03  0.00000000000E+00 0.  1.
         13   -1    0    0    0    0 -0.00000000000E+00 -0.00000000000E+00 -0.27500000000E+03  0.27500000000E+03  0.00000000000E+00 0.  1.
    9000005    2    1    2  501    0  0.54928947117E+01 -0.30836822594E+02 -0.12468841394E+02  0.47293006938E+03  0.47172693054E+03 0.  0.
         13    1    3    3    0    0  0.10210767523E+03 -0.55670301109E+02 -0.21653332085E+03  0.24578819907E+03  0.00000000000E+00 0.  1.
          1    1    3    3  501    0 -0.96614780517E+02  0.24833478515E+02  0.20406447946E+03  0.22714187030E+03  0.00000000000E+00 0.  1.
         21    1    1    2  502  501 -0.54928947117E+01  0.30836822594E+02 -0.24707162430E+02  0.39893926798E+02  0.00000000000E+00 0. -1.
<scales pt_clust_4="550.00000" pt_clust_5="550.00000" pt_clust_6="31.32224"></scales>
<mgrwt>
<rscale>  0 0.30000000E+03</rscale>
<asrwt>  1 0.31322237E+02</asrwt>
<pdfrwt beam="1">  1        1 0.86481453E+00 0.30000000E+03</pdfrwt>
<pdfrwt beam="2">0</pdfrwt>
<totfact> 0.29310349E-04</totfact>
</mgrwt>
<clustering>
<clus scale="   31.322">  1  6  2 -1</clus>
<clus scale="  471.727">  4  5 -1 -1</clus>
<clus scale="  300.000">  1  4  2 -1</clus>
</clustering>
</event>
<event>
 6    1  0.1033679E-011  0.3000000E+03  0.7818608E-02  0.1093470E+00
          1   -1    0    0  502    0  0.00000000000E+00  0.00000000000E+00  0.24290241477E+03  0.24290241477E+03  0.00000000000E+00 0.  1.
         13   -1    0    0    0    0 -0.00000000000E+00 -0.00000000000E+00 -0.27500000000E+03  0.27500000000E+03  0.00000000000E+00 0.  1.
    9000005    2    1    2  501    0  0.13296767191E+01 -0.54907606509E+02 -0.40533628825E+02  0.46233461722E+03  0.45726765677E+03 0.  0.
         13    1    3    3    0    0 -0.79433951021E+02 -0.13560681221E+03 -0.20735635370E+03  0.26018381485E+03  0.00000000000E+00 0.  1.
          3    1    3    3  501    0  0.80763627740E+02  0.80699205701E+02  0.16682272487E+03  0.20215080237E+03  0.00000000000E+00 0.  1.
         21    1    1    2  502  501 -0.13296767191E+01  0.54907606509E+02  0.84360435960E+01  0.55567797548E+02  0.00000000000E+00 0.  1.
<scales pt_clust_4="550.00000" pt_clust_5="550.00000" pt_clust_6="54.92370"></scales>
<mgrwt>
<rscale>  0 0.30000000E+03</rscale>
<asrwt>  1 0.54923704E+02</asrwt>
<pdfrwt beam="1">  1        1 0.88328151E+00 0.30000000E+03</pdfrwt>
<pdfrwt beam="2">0</pdfrwt>
<totfact> 0.16513999E-04</totfact>
</mgrwt>
<clustering>
<clus scale="   54.924">  1  6  2 -1</clus>
<clus scale="  457.268">  4  5 -1 -1</clus>
<clus scale="  300.000">  1  4  2 -1</clus>
</clustering>
</event>
<event>
 6    1  0.1033679E-011  0.3000000E+03  0.7818608E-02  0.1093470E+00
          1   -1    0    0  502    0  0.00000000000E+00  0.00000000000E+00  0.24790719138E+03  0.24790719138E+03  0.00000000000E+00 0.  1.
         13   -1    0    0    0    0 -0.00000000000E+00 -0.00000000000E+00 -0.27500000000E+03  0.27500000000E+03  0.00000000000E+00 0.  1.
    9000005    2    1    2  501    0  0.16928825341E+02  0.38508089350E+02 -0.19681557943E+02  0.48019437469E+03  0.47794331849E+03 0.  0.
         13    1    3    3    0    0  0.23981673478E+02 -0.92087092218E+02  0.20172629994E+03  0.22304406135E+03  0.00000000000E+00 0.  1.
          1    1    3    3  501    0 -0.70528481370E+01  0.13059518157E+03 -0.22140785789E+03  0.25715031334E+03  0.00000000000E+00 0.  1.
         21    1    1    2  502  501 -0.16928825341E+02 -0.38508089350E+02 -0.74112506800E+01  0.42712816688E+02  0.00000000000E+00 0. -1.
<scales pt_clust_4="550.00000" pt_clust_5="550.00000" pt_clust_6="42.06495"></scales>
<mgrwt>
<rscale>  0 0.30000000E+03</rscale>
<asrwt>  1 0.42064948E+02</asrwt>
<pdfrwt beam="1">  1        1 0.90148070E+00 0.30000000E+03</pdfrwt>
<pdfrwt beam="2">0</pdfrwt>
<totfact> 0.10207013E-04</totfact>
</mgrwt>
<clustering>
<clus scale="   42.065">  1  6  2 -1</clus>
<clus scale="  477.943">  4  5 -1 -1</clus>
<clus scale="  300.000">  1  4  2 -1</clus>
</clustering>
</event>
<event>
 6    1  0.1033679E-011  0.3000000E+03  0.7818608E-02  0.1093470E+00
          1   -1    0    0  502    0  0.00000000000E+00  0.00000000000E+00  0.22451021784E+03  0.22451021784E+03  0.00000000000E+00 0.  1.
         13   -1    0    0    0    0 -0.00000000000E+00 -0.00000000000E+00 -0.27500000000E+03  0.27500000000E+03  0.00000000000E+00 0.  1.
    9000005    2    1    2  501    0  0.17984345065E+02 -0.26453558051E+02 -0.63665952471E+02  0.46491485883E+03  0.45942273023E+03 0.  0.
         13    1    3    3    0    0 -0.18663893228E+03  0.44941997241E+02 -0.13730759303E+03  0.23602383198E+03  0.00000000000E+00 0.  1.
          1    1    3    3  501    0  0.20462327735E+03 -0.71395555292E+02  0.73641640557E+02  0.22889102685E+03  0.00000000000E+00 0.  1.
         21    1    1    2  502  501 -0.17984345065E+02  0.26453558051E+02  0.13176170306E+02  0.34595359008E+02  0.00000000000E+00 0.  1.
<scales pt_clust_4="550.00000" pt_clust_5="550.00000" pt_clust_6="31.98793"></scales>
<mgrwt>
<rscale>  0 0.30000000E+03</rscale>
<asrwt>  1 0.31987926E+02</asrwt>
<pdfrwt beam="1">  1        1 0.81640079E+00 0.30000000E+03</pdfrwt>
<pdfrwt beam="2">0</pdfrwt>
<totfact> 0.78870442E-04</totfact>
</mgrwt>
<clustering>
<clus scale="   31.988">  1  6  2 -1</clus>
<clus scale="  459.423">  4  5 -1 -1</clus>
<clus scale="  300.000">  1  4  2 -1</clus>
</clustering>
</event>
<event>
 6    1  0.1033679E-011  0.3000000E+03  0.7818608E-02  0.1093470E+00
          1   -1    0    0  502    0  0.00000000000E+00  0.00000000000E+00  0.23205927350E+03  0.23205927350E+03  0.00000000000E+00 0.  1.
         13   -1    0    0    0    0 -0.00000000000E+00 -0.00000000000E+00 -0.27500000000E+03  0.27500000000E+03  0.00000000000E+00 0.  1.
    9000005    2    1    2  501    0  0.22133718007E+01 -0.32202208441E+02 -0.15940414491E+02  0.46497723349E+03  0.46358154580E+03 0.  0.
         13    1    3    3    0    0 -0.48086111860E+02  0.39201390606E+02 -0.22765335522E+03  0.23595565965E+03  0.00000000000E+00 0.  1.
          1    1    3    3  501    0  0.50299483661E+02 -0.71403599047E+02  0.21171294073E+03  0.22902157384E+03  0.00000000000E+00 0.  1.
         21    1    1    2  502  501 -0.22133718007E+01  0.32202208441E+02 -0.27000312004E+02  0.42082040012E+02  0.00000000000E+00 0.  1.
<scales pt_clust_4="550.00000" pt_clust_5="550.00000" pt_clust_6="32.27820"></scales>
<mgrwt>
<rscale>  0 0.30000000E+03</rscale>
<asrwt>  1 0.32278201E+02</asrwt>
<pdfrwt beam="1">  1        1 0.84385190E+00 0.30000000E+03</pdfrwt>
<pdfrwt beam="2">0</pdfrwt>
<totfact> 0.46938263E-04</totfact>
</mgrwt>
<clustering>
<clus scale="   32.278">  1  6  2 -1</clus>
<clus scale="  463.582">  4  5 -1 -1</clus>
<clus scale="  300.000">  1  4  2 -1</clus>
</clustering>
</event>
<event>
 6    1  0.1033679E-011  0.3000000E+03  0.7818608E-02  0.1093470E+00
          1   -1    0    0  502    0  0.00000000000E+00  0.00000000000E+00  0.21916091734E+03  0.21916091734E+03  0.00000000000E+00 0.  1.
         13   -1    0    0    0    0 -0.00000000000E+00 -0.00000000000E+00 -0.27500000000E+03  0.27500000000E+03  0.00000000000E+00 0.  1.
    9000005    2    1    2  501    0 -0.17487901870E+02 -0.26595815329E+02 -0.40830252995E+02  0.45896959635E+03  0.45604036741E+03 0.  0.
         13    1    3    3    0    0  0.24084984938E+02  0.13442736691E+03  0.15199476078E+03  0.20433602418E+03  0.00000000000E+00 0.  1.
          1    1    3    3  501    0 -0.41572886808E+02 -0.16102318224E+03 -0.19282501378E+03  0.25463357217E+03  0.00000000000E+00 0.  1.
         21    1    1    2  502  501  0.17487901870E+02  0.26595815329E+02 -0.15008829668E+02  0.35191320988E+02  0.00000000000E+00 0. -1.
<scales pt_clust_4="550.00000" pt_clust_5="550.00000" pt_clust_6="31.83025"></scales>
<mgrwt>
<rscale>  0 0.30000000E+03</rscale>
<asrwt>  1 0.31830255E+02</asrwt>
<pdfrwt beam="1">  1        1 0.79694879E+00 0.30000000E+03</pdfrwt>
<pdfrwt beam="2">0</pdfrwt>
<totfact> 0.11110153E-03</totfact>
</mgrwt>
<clustering>
<clus scale="   31.830">  1  6  2 -1</clus>
<clus scale="  456.040">  4  5 -1 -1</clus>
<clus scale="  300.000">  1  4  2 -1</clus>
</clustering>
</event>
<event>
 6    1  0.1033679E-011  0.3000000E+03  0.7818608E-02  0.1093470E+00
          1   -1    0    0  502    0  0.00000000000E+00  0.00000000000E+00  0.23277368955E+03  0.23277368955E+03  0.00000000000E+00 0.  1.
         13   -1    0    0    0    0 -0.00000000000E+00 -0.00000000000E+00 -0.27500000000E+03  0.27500000000E+03  0.00000000000E+00 0.  1.
    9000005    2    1    2  501    0 -0.36586450632E+01  0.33838213774E+02 -0.27741482502E+02  0.47078422300E+03  0.46873210300E+03 0.  0.
         13    1    3    3    0    0 -0.19393568784E+03 -0.39157014250E+02 -0.13593519052E+03  0.24004728452E+03  0.00000000000E+00 0.  1.
          1    1    3    3  501    0  0.19027704278E+03  0.72995228024E+02  0.10819370802E+03  0.23073693848E+03  0.00000000000E+00 0.  1.
         21    1    1    2  502  501  0.36586450632E+01 -0.33838213774E+02 -0.14484827944E+02  0.36989466551E+02  0.00000000000E+00 0.  1.
<scales pt_clust_4="550.00000" pt_clust_5="550.00000" pt_clust_6="34.03545"></scales>
<mgrwt>
<rscale>  0 0.30000000E+03</rscale>
<asrwt>  1 0.34035446E+02</asrwt>
<pdfrwt beam="1">  1        1 0.84644978E+00 0.30000000E+03</pdfrwt>
<pdfrwt beam="2">0</pdfrwt>
<totfact> 0.44098613E-04</totfact>
</mgrwt>
<clustering>
<clus scale="   34.035">  1  6  2 -1</clus>
<clus scale="  468.732">  4  5 -1 -1</clus>
<clus scale="  300.000">  1  4  2 -1</clus>
</clustering>
</event>
<event>
 6    1  0.1033679E-011  0.3000000E+03  0.7818608E-02  0.1093470E+00
          1   -1    0    0  502    0  0.00000000000E+00  0.00000000000E+00  0.23134168559E+03  0.23134168559E+03  0.00000000000E+00 0.  1.
         13   -1    0    0    0    0 -0.00000000000E+00 -0.00000000000E+00 -0.27500000000E+03  0.27500000000E+03  0.00000000000E+00 0.  1.
    9000005    2    1    2  501    0 -0.33278837406E+02  0.49283359059E+01 -0.66759219780E+02  0.46553211143E+03  0.45949056991E+03 0.  0.
         13    1    3    3    0    0  0.11000404560E+03  0.17862424209E+03 -0.10904579530E+03  0.23642862640E+03  0.00000000000E+00 0.  1.
          3    1    3    3  501    0 -0.14328288301E+03 -0.17369590618E+03  0.42286575516E+02  0.22910348504E+03  0.00000000000E+00 0.  1.
         21    1    1    2  502  501  0.33278837406E+02 -0.49283359059E+01  0.23100905372E+02  0.40809574157E+02  0.00000000000E+00 0.  1.
<scales pt_clust_4="550.00000" pt_clust_5="550.00000" pt_clust_6="33.64178"></scales>
<mgrwt>
<rscale>  0 0.30000000E+03</rscale>
<asrwt>  1 0.33641782E+02</asrwt>
<pdfrwt beam="1">  1        1 0.84124249E+00 0.30000000E+03</pdfrwt>
<pdfrwt beam="2">0</pdfrwt>
<totfact> 0.48964787E-04</totfact>
</mgrwt>
<clustering>
<clus scale="   33.642">  1  6  2 -1</clus>
<clus scale="  459.491">  4  5 -1 -1</clus>
<clus scale="  300.000">  1  4  2 -1</clus>
</clustering>
</event>
<event>
 6    1  0.1033679E-011  0.3000000E+03  0.7818608E-02  0.1093470E+00
          1   -1    0    0  502    0  0.00000000000E+00  0.00000000000E+00  0.24730929053E+03  0.24730929053E+03  0.00000000000E+00 0.  1.
         13   -1    0    0    0    0 -0.00000000000E+00 -0.00000000000E+00 -0.27500000000E+03  0.27500000000E+03  0.00000000000E+00 0.  1.
    9000005    2    1    2  501    0 -0.12277346335E+02  0.33062207410E+02 -0.31212257644E+02  0.48686575665E+03  0.48458251845E+03 0.  0.
         13    1    3    3    0    0 -0.10873056666E+03 -0.19428486724E+03 -0.77226675801E+02  0.23565420688E+03  0.00000000000E+00 0.  1.
          1    1    3    3  501    0  0.96453220321E+02  0.22734707465E+03  0.46014418157E+02  0.25121154978E+03  0.00000000000E+00 0.  1.
         21    1    1    2  502  501  0.12277346335E+02 -0.33062207410E+02  0.35215481708E+01  0.35443533873E+02  0.00000000000E+00 0. -1.
<scales pt_clust_4="550.00000" pt_clust_5="550.00000" pt_clust_6="35.26816"></scales>
<mgrwt>
<rscale>  0 0.30000000E+03</rscale>
<asrwt>  1 0.35268155E+02</asrwt>
<pdfrwt beam="1">  1        1 0.89930651E+00 0.30000000E+03</pdfrwt>
<pdfrwt beam="2">0</pdfrwt>
<totfact> 0.11247455E-04</totfact>
</mgrwt>
<clustering>
<clus scale="   35.268">  1  6  2 -1</clus>
<clus scale="  484.583">  4  5 -1 -1</clus>
<clus scale="  300.000">  1  4  2 -1</clus>
</clustering>
</event>
<event>
 6    1  0.1033679E-011  0.3000000E+03  0.7818608E-02  0.1093470E+00
          1   -1    0    0  502    0  0.00000000000E+00  0.00000000000E+00  0.22982974101E+03  0.22982974101E+03  0.00000000000E+00 0.  1.
         13   -1    0    0    0    0 -0.00000000000E+00 -0.00000000000E+00 -0.27500000000E+03  0.27500000000E+03  0.00000000000E+00 0.  1.
    9000005    2    1    2  501    0 -0.30341842338E+02  0.99198429494E+01 -0.49136269393E+02  0.47266205662E+03  0.46901600838E+03 0.  0.
         13    1    3    3    0    0 -0.25414025341E+02 -0.16606032554E+03 -0.18528820671E+03  0.25010722490E+03  0.00000000000E+00 0.  1.
          1    1    3    3  501    0 -0.49278169962E+01  0.17598016849E+03  0.13615193732E+03  0.22255483171E+03  0.00000000000E+00 0.  1.
         21    1    1    2  502  501  0.30341842338E+02 -0.99198429494E+01  0.39660103997E+01  0.32167684391E+02  0.00000000000E+00 0. -1.
<scales pt_clust_4="550.00000" pt_clust_5="550.00000" pt_clust_6="31.92226"></scales>
<mgrwt>
<rscale>  0 0.30000000E+03</rscale>
<asrwt>  1 0.31922260E+02</asrwt>
<pdfrwt beam="1">  1        1 0.83574451E+00 0.30000000E+03</pdfrwt>
<pdfrwt beam="2">0</pdfrwt>
<totfact> 0.54363953E-04</totfact>
</mgrwt>
<clustering>
<clus scale="   31.922">  1  6  2 -1</clus>
<clus scale="  469.016">  4  5 -1 -1</clus>
<clus scale="  300.000">  1  4  2 -1</clus>
</clustering>
</event>
<event>
 6    1  0.1033679E-011  0.3000000E+03  0.7818608E-02  0.1093470E+00
          1   -1    0    0  502    0  0.00000000000E+00  0.00000000000E+00  0.23353550080E+03  0.23353550080E+03  0.00000000000E+00 0.  1.
         13   -1    0    0    0    0 -0.00000000000E+00 -0.00000000000E+00 -0.27500000000E+03  0.27500000000E+03  0.00000000000E+00 0.  1.
    9000005    2    1    2  501    0 -0.35444949765E+02  0.17574647382E+02 -0.44480285234E+02  0.46885795476E+03  0.46506351531E+03 0.  0.
         13    1    3    3    0    0  0.22968127094E+02  0.22277071416E+03  0.59210107652E+02  0.23164663347E+03  0.00000000000E+00 0.  1.
          1    1    3    3  501    0 -0.58413076859E+02 -0.20519606678E+03 -0.10369039289E+03  0.23721132129E+03  0.00000000000E+00 0.  1.
         21    1    1    2  502  501  0.35444949765E+02 -0.17574647382E+02  0.30157860302E+01  0.39677546041E+02  0.00000000000E+00 0.  1.
<scales pt_clust_4="550.00000" pt_clust_5="550.00000" pt_clust_6="39.56277"></scales>
<mgrwt>
<rscale>  0 0.30000000E+03</rscale>
<asrwt>  1 0.39562769E+02</asrwt>
<pdfrwt beam="1">  1        1 0.84922000E+00 0.30000000E+03</pdfrwt>
<pdfrwt beam="2">0</pdfrwt>
<totfact> 0.40459727E-04</totfact>
</mgrwt>
<clustering>
<clus scale="   39.563">  1  6  2 -1</clus>
<clus scale="  465.064">  4  5 -1 -1</clus>
<clus scale="  300.000">  1  4  2 -1</clus>
</clustering>
</event>
<event>
 6    1  0.1033679E-011  0.3000000E+03  0.7818608E-02  0.1093470E+00
          1   -1    0    0  502    0  0.00000000000E+00  0.00000000000E+00  0.24098368803E+03  0.24098368803E+03  0.00000000000E+00 0.  1.
         13   -1    0    0    0    0 -0.00000000000E+00 -0.00000000000E+00 -0.27500000000E+03  0.27500000000E+03  0.00000000000E+00 0.  1.
    9000005    2    1    2  501    0 -0.56599293077E+00 -0.33220536005E+02 -0.58699133763E+02  0.47459327788E+03  0.46977576219E+03 0.  0.
         13    1    3    3    0    0 -0.16608713948E+03  0.98785995788E+02 -0.14940611540E+03  0.24426583507E+03  0.00000000000E+00 0.  1.
          1    1    3    3  501    0  0.16552114655E+03 -0.13200653179E+03  0.90706981636E+02  0.23032744281E+03  0.00000000000E+00 0.  1.
         21    1    1    2  502  501  0.56599293077E+00  0.33220536005E+02  0.24682821791E+02  0.41390410146E+02  0.00000000000E+00 0. -1.
<scales pt_clust_4="550.00000" pt_clust_5="550.00000" pt_clust_6="33.22536"></scales>
<mgrwt>
<rscale>  0 0.30000000E+03</rscale>
<asrwt>  1 0.33225357E+02</asrwt>
<pdfrwt beam="1">  1        1 0.87630432E+00 0.30000000E+03</pdfrwt>
<pdfrwt beam="2">0</pdfrwt>
<totfact> 0.21993536E-04</totfact>
</mgrwt>
<clustering>
<clus scale="   33.225">  1  6  2 -1</clus>
<clus scale="  469.776">  4  5 -1 -1</clus>
<clus scale="  300.000">  1  4  2 -1</clus>
</clustering>
</event>
<event>
 6    1  0.1033679E-011  0.3000000E+03  0.7818608E-02  0.1093470E+00
          1   -1    0    0  502    0  0.00000000000E+00  0.00000000000E+00  0.23688416294E+03  0.23688416294E+03  0.00000000000E+00 0.  1.
         13   -1    0    0    0    0 -0.00000000000E+00 -0.00000000000E+00 -0.27500000000E+03  0.27500000000E+03  0.00000000000E+00 0.  1.
    9000005    2    1    2  501    0 -0.25549525613E+00 -0.33299495193E+02 -0.55694749220E+02  0.47422862137E+03  0.46976798377E+03 0.  0.
         13    1    3    3    0    0 -0.10329103338E+03  0.13253095965E+03 -0.17725870716E+03  0.24424197450E+03  0.00000000000E+00 0.  1.
          3    1    3    3  501    0  0.10303553813E+03 -0.16583045484E+03  0.12156395794E+03  0.22998664687E+03  0.00000000000E+00 0.  1.
         21    1    1    2  502  501  0.25549525613E+00  0.33299495193E+02  0.17578912156E+02  0.37655541565E+02  0.00000000000E+00 0.  1.
<scales pt_clust_4="550.00000" pt_clust_5="550.00000" pt_clust_6="33.30048"></scales>
<mgrwt>
<rscale>  0 0.30000000E+03</rscale>
<asrwt>  1 0.33300475E+02</asrwt>
<pdfrwt beam="1">  1        1 0.86139696E+00 0.30000000E+03</pdfrwt>
<pdfrwt beam="2">0</pdfrwt>
<totfact> 0.31543041E-04</totfact>
</mgrwt>
<clustering>
<clus scale="   33.300">  1  6  2 -1</clus>
<clus scale="  469.768">  4  5 -1 -1</clus>
<clus scale="  300.000">  1  4  2 -1</clus>
</clustering>
</event>
<event>
 6    1  0.1033679E-011  0.3000000E+03  0.7818608E-02  0.1093470E+00
          1   -1    0    0  502    0  0.00000000000E+00  0.00000000000E+00  0.25620552653E+03  0.25620552653E+03  0.00000000000E+00 0.  1.
         13   -1    0    0    0    0 -0.00000000000E+00 -0.00000000000E+00 -0.27500000000E+03  0.27500000000E+03  0.00000000000E+00 0.  1.
    9000005    2    1    2  501    0 -0.44421689218E+02 -0.39571106925E+01 -0.61629582855E+02  0.46936871068E+03  0.46316286108E+03 0.  0.
         13    1    3    3    0    0 -0.25963903949E+02 -0.51710213570E+02  0.19720549501E+03  0.20551904476E+03  0.00000000000E+00 0.  1.
          1    1    3    3  501    0 -0.18457785269E+02  0.47753102878E+02 -0.25883507787E+03  0.26384966592E+03  0.00000000000E+00 0.  1.
         21    1    1    2  502  501  0.44421689218E+02  0.39571106925E+01  0.42835109381E+02  0.61836815844E+02  0.00000000000E+00 0.  1.
<scales pt_clust_4="550.00000" pt_clust_5="550.00000" pt_clust_6="44.59759"></scales>
<mgrwt>
<rscale>  0 0.30000000E+03</rscale>
<asrwt>  1 0.44597592E+02</asrwt>
<pdfrwt beam="1">  1        1 0.93165646E+00 0.30000000E+03</pdfrwt>
<pdfrwt beam="2">0</pdfrwt>
<totfact> 0.23766081E-05</totfact>
</mgrwt>
<clustering>
<clus scale="   44.598">  1  6  2 -1</clus>
<clus scale="  463.163">  4  5 -1 -1</clus>
<clus scale="  300.000">  1  4  2 -1</clus>
</clustering>
</event>
<event>
 6    1  0.1033679E-011  0.3000000E+03  0.7818608E-02  0.1093470E+00
          1   -1    0    0  502    0  0.00000000000E+00  0.00000000000E+00  0.22815150476E+03  0.22815150476E+03  0.00000000000E+00 0.  1.
         13   -1    0    0    0    0 -0.00000000000E+00 -0.00000000000E+00 -0.27500000000E+03  0.27500000000E+03  0.00000000000E+00 0.  1.
    9000005    2    1    2  501    0  0.30178314409E+02  0.69360319636E+01 -0.61392405340E+02  0.46894091399E+03  0.46387251932E+03 0.  0.
         13    1    3    3    0    0 -0.19409850959E+03  0.10012584738E+03 -0.58319434560E+02  0.22605435892E+03  0.00000000000E+00 0.  1.
          3    1    3    3  501    0  0.22427682400E+03 -0.93189815417E+02 -0.30729707793E+01  0.24288655507E+03  0.00000000000E+00 0.  1.
         21    1    1    2  502  501 -0.30178314409E+02 -0.69360319636E+01  0.14543910100E+02  0.34210590772E+02  0.00000000000E+00 0.  1.
<scales pt_clust_4="550.00000" pt_clust_5="550.00000" pt_clust_6="30.96513"></scales>
<mgrwt>
<rscale>  0 0.30000000E+03</rscale>
<asrwt>  1 0.30965129E+02</asrwt>
<pdfrwt beam="1">  1        1 0.82964184E+00 0.30000000E+03</pdfrwt>
<pdfrwt beam="2">0</pdfrwt>
<totfact> 0.60902237E-04</totfact>
</mgrwt>
<clustering>
<clus scale="   30.965">  1  6  2 -1</clus>
<clus scale="  463.873">  4  5 -1 -1</clus>
<clus scale="  300.000">  1  4  2 -1</clus>
</clustering>
</event>
<event>
 6    1  0.1033679E-011  0.3000000E+03  0.7818608E-02  0.1093470E+00
          1   -1    0    0  502    0  0.00000000000E+00  0.00000000000E+00  0.23268005221E+03  0.23268005221E+03  0.00000000000E+00 0.  1.
         13   -1    0    0    0    0 -0.00000000000E+00 -0.00000000000E+00 -0.27500000000E+03  0.27500000000E+03  0.00000000000E+00 0.  1.
    9000005    2    1    2  501    0 -0.40394361821E+02  0.16788051279E-01 -0.26199973241E+02  0.46418800319E+03  0.46168426327E+03 0.  0.
         13    1    3    3    0    0 -0.12858739837E+03 -0.15125483780E+03  0.12350905664E+03  0.23381024795E+03  0.00000000000E+00 0.  1.
          3    1    3    3  501    0  0.88193036545E+02  0.15127162585E+03 -0.14970902988E+03  0.23037775524E+03  0.00000000000E+00 0.  1.
         21    1    1    2  502  501  0.40394361821E+02 -0.16788051279E-01 -0.16119974549E+02  0.43492049024E+02  0.00000000000E+00 0.  1.
<scales pt_clust_4="550.00000" pt_clust_5="550.00000" pt_clust_6="40.39439"></scales>
<mgrwt>
<rscale>  0 0.30000000E+03</rscale>
<asrwt>  1 0.40394386E+02</asrwt>
<pdfrwt beam="1">  1        1 0.84610928E+00 0.30000000E+03</pdfrwt>
<pdfrwt beam="2">0</pdfrwt>
<totfact> 0.43022534E-04</totfact>
</mgrwt>
<clustering>
<clus scale="   40.394">  1  6  2 -1</clus>
<clus scale="  461.684">  4  5 -1 -1</clus>
<clus scale="  300.000">  1  4  2 -1</clus>
</clustering>
</event>
<event>
 6    1  0.1033679E-011  0.3000000E+03  0.7818608E-02  0.1093470E+00
          1   -1    0    0  502    0  0.00000000000E+00  0.00000000000E+00  0.24316049763E+03  0.24316049763E+03  0.00000000000E+00 0.  1.
         13   -1    0    0    0    0 -0.00000000000E+00 -0.00000000000E+00 -0.27500000000E+03  0.27500000000E+03  0.00000000000E+00 0.  1.
    9000005    2    1    2  501    0 -0.18935390535E+02 -0.26399440427E+02 -0.49209058657E+02  0.48132056067E+03  0.47769495622E+03 0.  0.
         13    1    3    3    0    0  0.14352074653E+03 -0.63912745871E+02 -0.20149802124E+03  0.25550830972E+03  0.00000000000E+00 0.  1.
          3    1    3    3  501    0 -0.16245613707E+03  0.37513305443E+02  0.15228896259E+03  0.22581225095E+03  0.00000000000E+00 0.  1.
         21    1    1    2  502  501  0.18935390535E+02  0.26399440427E+02  0.17369556287E+02  0.36839936960E+02  0.00000000000E+00 0.  1.
<scales pt_clust_4="550.00000" pt_clust_5="550.00000" pt_clust_6="32.48814"></scales>
<mgrwt>
<rscale>  0 0.30000000E+03</rscale>
<asrwt>  1 0.32488144E+02</asrwt>
<pdfrwt beam="1">  1        1 0.88421999E+00 0.30000000E+03</pdfrwt>
<pdfrwt beam="2">0</pdfrwt>
<totfact> 0.17637337E-04</totfact>
</mgrwt>
<clustering>
<clus scale="   32.488">  1  6  2 -1</clus>
<clus scale="  477.695">  4  5 -1 -1</clus>
<clus scale="  300.000">  1  4  2 -1</clus>
</clustering>
</event>
<event>
 6    1  0.1033679E-011  0.3000000E+03  0.7818608E-02  0.1093470E+00
          1   -1    0    0  502    0  0.00000000000E+00  0.00000000000E+00  0.24606047322E+03  0.24606047322E+03  0.00000000000E+00 0.  1.
         13   -1    0    0    0    0 -0.00000000000E+00 -0.00000000000E+00 -0.27500000000E+03  0.27500000000E+03  0.00000000000E+00 0.  1.
    9000005    2    1    2  501    0  0.31663425534E+02 -0.94474596662E+01 -0.61899167182E+01  0.48094349715E+03  0.47976713661E+03 0.  0.
         13    1    3    3    0    0 -0.15781213433E+03  0.12654249641E+03 -0.10469458107E+03  0.22776880481E+03  0.00000000000E+00 0.  1.
          3    1    3    3  501    0  0.18947555986E+03 -0.13598995608E+03  0.98504664354E+02  0.25317469234E+03  0.00000000000E+00 0.  1.
         21    1    1    2  502  501 -0.31663425534E+02  0.94474596662E+01 -0.22749610066E+02  0.40116976068E+02  0.00000000000E+00 0.  1.
<scales pt_clust_4="550.00000" pt_clust_5="550.00000" pt_clust_6="33.04282"></scales>
<mgrwt>
<rscale>  0 0.30000000E+03</rscale>
<asrwt>  1 0.33042822E+02</asrwt>
<pdfrwt beam="1">  1        1 0.89476536E+00 0.30000000E+03</pdfrwt>
<pdfrwt beam="2">0</pdfrwt>
<totfact> 0.12824023E-04</totfact>
</mgrwt>
<clustering>
<clus scale="   33.043">  1  6  2 -1</clus>
<clus scale="  479.767">  4  5 -1 -1</clus>
<clus scale="  300.000">  1  4  2 -1</clus>
</clustering>
</event>
<event>
 6    1  0.1033679E-011  0.3000000E+03  0.7818608E-02  0.1093470E+00
          1   -1    0    0  502    0  0.00000000000E+00  0.00000000000E+00  0.23476055261E+03  0.23476055261E+03  0.00000000000E+00 0.  1.
         13   -1    0    0    0    0 -0.00000000000E+00 -0.00000000000E+00 -0.27500000000E+03  0.27500000000E+03  0.00000000000E+00 0.  1.
    9000005    2    1    2  501    0 -0.31612736994E+02 -0.67523547913E+01 -0.68764383953E+02  0.46664870457E+03  0.46042101770E+03 0.  0.
         13    1    3    3    0    0  0.42416208787E+02  0.20928465268E+03 -0.10063850981E+03  0.23606632600E+03  0.00000000000E+00 0.  1.
          1    1    3    3  501    0 -0.74028945781E+02 -0.21603700747E+03  0.31874125854E+02  0.23058237857E+03  0.00000000000E+00 0.  1.
         21    1    1    2  502  501  0.31612736994E+02  0.67523547913E+01  0.28524936562E+02  0.43111848039E+02  0.00000000000E+00 0. -1.
<scales pt_clust_4="550.00000" pt_clust_5="550.00000" pt_clust_6="32.32583"></scales>
<mgrwt>
<rscale>  0 0.30000000E+03</rscale>
<asrwt>  1 0.32325832E+02</asrwt>
<pdfrwt beam="1">  1        1 0.85367474E+00 0.30000000E+03</pdfrwt>
<pdfrwt beam="2">0</pdfrwt>
<totfact> 0.38104563E-04</totfact>
</mgrwt>
<clustering>
<clus scale="   32.326">  1  6  2 -1</clus>
<clus scale="  460.421">  4  5 -1 -1</clus>
<clus scale="  300.000">  1  4  2 -1</clus>
</clustering>
</event>
<event>
 6    1  0.1033679E-011  0.3000000E+03  0.7818608E-02  0.1093470E+00
          1   -1    0    0  502    0  0.00000000000E+00  0.00000000000E+00  0.24004849472E+03  0.24004849472E+03  0.00000000000E+00 0.  1.
         13   -1    0    0    0    0 -0.00000000000E+00 -0.00000000000E+00 -0.27500000000E+03  0.27500000000E+03  0.00000000000E+00 0.  1.
    9000005    2    1    2  501    0  0.27623314240E+02  0.34540172916E+02 -0.39626947082E+02  0.47057456088E+03  0.46681265127E+03 0.  0.
         13    1    3    3    0    0 -0.93174990699E+02  0.19433910178E+03 -0.12904821514E+03  0.25120252228E+03  0.00000000000E+00 0.  1.
          3    1    3    3  501    0  0.12079830494E+03 -0.15979892886E+03  0.89421268054E+02  0.21937203860E+03  0.00000000000E+00 0.  1.
         21    1    1    2  502  501 -0.27623314240E+02 -0.34540172916E+02  0.46754418008E+01  0.44473933835E+02  0.00000000000E+00 0.  1.
<scales pt_clust_4="550.00000" pt_clust_5="550.00000" pt_clust_6="44.22749"></scales>
<mgrwt>
<rscale>  0 0.30000000E+03</rscale>
<asrwt>  1 0.44227492E+02</asrwt>
<pdfrwt beam="1">  1        1 0.87290362E+00 0.30000000E+03</pdfrwt>
<pdfrwt beam="2">0</pdfrwt>
<totfact> 0.22660194E-04</totfact>
</mgrwt>
<clustering>
<clus scale="   44.227">  1  6  2 -1</clus>
<clus scale="  466.813">  4  5 -1 -1</clus>
<clus scale="  300.000">  1  4  2 -1</clus>
</clustering>
</event>
<event>
 6    1  0.1033679E-011  0.3000000E+03  0.7818608E-02  0.1093470E+00
          1   -1    0    0  502    0  0.00000000000E+00  0.00000000000E+00  0.24660557735E+03  0.24660557735E+03  0.00000000000E+00 0.  1.
         13   -1    0    0    0    0 -0.00000000000E+00 -0.00000000000E+00 -0.27500000000E+03  0.27500000000E+03  0.00000000000E+00 0.  1.
    9000005    2    1    2  501    0 -0.32522285317E+02  0.12452557052E+02 -0.32132259139E+02  0.48658077698E+03  0.48426811296E+03 0.  0.
         13    1    3    3    0    0  0.20392889165E+03 -0.44799071212E+02  0.73504726111E+02  0.22135242125E+03  0.00000000000E+00 0.  1.
          3    1    3    3  501    0 -0.23645117697E+03  0.57251628264E+02 -0.10563698525E+03  0.26522835573E+03  0.00000000000E+00 0.  1.
         21    1    1    2  502  501  0.32522285317E+02 -0.12452557052E+02  0.37378364858E+01  0.35024800370E+02  0.00000000000E+00 0.  1.
<scales pt_clust_4="550.00000" pt_clust_5="550.00000" pt_clust_6="34.82478"></scales>
<mgrwt>
<rscale>  0 0.30000000E+03</rscale>
<asrwt>  1 0.34824779E+02</asrwt>
<pdfrwt beam="1">  1        1 0.89674755E+00 0.30000000E+03</pdfrwt>
<pdfrwt beam="2">0</pdfrwt>
<totfact> 0.12066758E-04</totfact>
</mgrwt>
<clustering>
<clus scale="   34.825">  1  6  2 -1</clus>
<clus scale="  484.268">  4  5 -1 -1</clus>
<clus scale="  300.000">  1  4  2 -1</clus>
</clustering>
</event>
<event>
 6    1  0.1033679E-011  0.3000000E+03  0.7818608E-02  0.1093470E+00
          1   -1    0    0  502    0  0.00000000000E+00  0.00000000000E+00  0.23874849325E+03  0.23874849325E+03  0.00000000000E+00 0.  1.
         13   -1    0    0    0    0 -0.00000000000E+00 -0.00000000000E+00 -0.27500000000E+03  0.27500000000E+03  0.00000000000E+00 0.  1.
    9000005    2    1    2  501    0 -0.17593670006E+02  0.25419875121E+02 -0.41479370224E+02  0.48239505911E+03  0.47961312287E+03 0.  0.
         13    1    3    3    0    0 -0.19333155606E+03 -0.51307557621E+02  0.11865308363E+03  0.23256850667E+03  0.00000000000E+00 0.  1.
          3    1    3    3  501    0  0.17573788605E+03  0.76727432742E+02 -0.16013245386E+03  0.24982655245E+03  0.00000000000E+00 0.  1.
         21    1    1    2  502  501  0.17593670006E+02 -0.25419875121E+02  0.52278634711E+01  0.31353434133E+02  0.00000000000E+00 0.  1.
<scales pt_clust_4="550.00000" pt_clust_5="550.00000" pt_clust_6="30.91452"></scales>
<mgrwt>
<rscale>  0 0.30000000E+03</rscale>
<asrwt>  1 0.30914516E+02</asrwt>
<pdfrwt beam="1">  1        1 0.86817634E+00 0.30000000E+03</pdfrwt>
<pdfrwt beam="2">0</pdfrwt>
<totfact> 0.27071571E-04</totfact>
</mgrwt>
<clustering>
<clus scale="   30.915">  1  6  2 -1</clus>
<clus scale="  479.613">  4  5 -1 -1</clus>
<clus scale="  300.000">  1  4  2 -1</clus>
</clustering>
</event>
<event>
 6    1  0.1033679E-011  0.3000000E+03  0.7818608E-02  0.1093470E+00
          1   -1    0    0  502    0  0.00000000000E+00  0.00000000000E+00  0.22696141120E+03  0.22696141120E+03  0.00000000000E+00 0.  1.
         13   -1    0    0    0    0 -0.00000000000E+00 -0.00000000000E+00 -0.27500000000E+03  0.27500000000E+03  0.00000000000E+00 0.  1.
    9000005    2    1    2  501    0  0.32407400112E+02  0.12385289521E+01 -0.45676536781E+02  0.46944444908E+03  0.46609008917E+03 0.  0.
         13    1    3    3    0    0  0.10912220401E+03 -0.17985001035E+03  0.91766076493E+02  0.22950968264E+03  0.00000000000E+00 0.  1.
          1    1    3    3  501    0 -0.76714803893E+02  0.18108853930E+03 -0.13744261327E+03  0.23993476644E+03  0.00000000000E+00 0.  1.
         21    1    1    2  502  501 -0.32407400112E+02 -0.12385289521E+01 -0.23620520172E+01  0.32516962124E+02  0.00000000000E+00 0. -1.
<scales pt_clust_4="550.00000" pt_clust_5="550.00000" pt_clust_6="32.43106"></scales>
<mgrwt>
<rscale>  0 0.30000000E+03</rscale>
<asrwt>  1 0.32431058E+02</asrwt>
<pdfrwt beam="1">  1        1 0.82531422E+00 0.30000000E+03</pdfrwt>
<pdfrwt beam="2">0</pdfrwt>
<totfact> 0.65835499E-04</totfact>
</mgrwt>
<clustering>
<clus scale="   32.431">  1  6  2 -1</clus>
<clus scale="  466.090">  4  5 -1 -1</clus>
<clus scale="  300.000">  1  4  2 -1</clus>
</clustering>
</event>
<event>
 6    1  0.1033679E-011  0.3000000E+03  0.7818608E-02  0.1093470E+00
          1   -1    0    0  502    0  0.00000000000E+00  0.00000000000E+00  0.23569934597E+03  0.23569934597E+03  0.00000000000E+00 0.  1.
         13   -1    0    0    0    0 -0.00000000000E+00 -0.00000000000E+00 -0.27500000000E+03  0.27500000000E+03  0.00000000000E+00 0.  1.
    9000005    2    1    2  501    0  0.85799998154E+01 -0.30095195941E+02 -0.45892654984E+02  0.47871823135E+03  0.47548467066E+03 0.  0.
         13    1    3    3    0    0 -0.22278427187E+03  0.27754352814E+02 -0.78880590219E+02  0.23796067618E+03  0.00000000000E+00 0.  1.
          3    1    3    3  501    0  0.23136427169E+03 -0.57849548755E+02  0.32987935235E+02  0.24075755518E+03  0.00000000000E+00 0.  1.
         21    1    1    2  502  501 -0.85799998154E+01  0.30095195941E+02  0.65920009525E+01  0.31981114616E+02  0.00000000000E+00 0.  1.
<scales pt_clust_4="550.00000" pt_clust_5="550.00000" pt_clust_6="31.29436"></scales>
<mgrwt>
<rscale>  0 0.30000000E+03</rscale>
<asrwt>  1 0.31294364E+02</asrwt>
<pdfrwt beam="1">  1        1 0.85708853E+00 0.30000000E+03</pdfrwt>
<pdfrwt beam="2">0</pdfrwt>
<totfact> 0.35446391E-04</totfact>
</mgrwt>
<clustering>
<clus scale="   31.294">  1  6  2 -1</clus>
<clus scale="  475.485">  4  5 -1 -1</clus>
<clus scale="  300.000">  1  4  2 -1</clus>
</clustering>
</event>
<event>
 6    1  0.1033679E-011  0.3000000E+03  0.7818608E-02  0.1093470E+00
          1   -1    0    0  502    0  0.00000000000E+00  0.00000000000E+00  0.26774928923E+03  0.26774928923E+03  0.00000000000E+00 0.  1.
         13   -1    0    0    0    0 -0.00000000000E+00 -0.00000000000E+00 -0.27500000000E+03  0.27500000000E+03  0.00000000000E+00 0.  1.
    9000005    2    1    2  501    0  0.19185019018E+02 -0.35373205670E+02 -0.72104218453E+02  0.46642559636E+03  0.45905826427E+03 0.  0.
         13    1    3    3    0    0  0.79762564181E+02  0.20027860695E+03 -0.12619605094E+02  0.21594638566E+03  0.00000000000E+00 0.  1.
          3    1    3    3  501    0 -0.60577545163E+02 -0.23565181262E+03 -0.59484613358E+02  0.25047921070E+03  0.00000000000E+00 0.  1.
         21    1    1    2  502  501 -0.19185019018E+02  0.35373205670E+02  0.64853507685E+02  0.76323692869E+02  0.00000000000E+00 0.  1.
<scales pt_clust_4="550.00000" pt_clust_5="550.00000" pt_clust_6="40.24088"></scales>
<mgrwt>
<rscale>  0 0.30000000E+03</rscale>
<asrwt>  1 0.40240883E+02</asrwt>
<pdfrwt beam="1">  1        1 0.97363378E+00 0.30000000E+03</pdfrwt>
<pdfrwt beam="2">0</pdfrwt>
<totfact> 0.42328619E-06</totfact>
</mgrwt>
<clustering>
<clus scale="   40.241">  1  6  2 -1</clus>
<clus scale="  459.058">  4  5 -1 -1</clus>
<clus scale="  300.000">  1  4  2 -1</clus>
</clustering>
</event>
<event>
 6    1  0.1033679E-011  0.3000000E+03  0.7818608E-02  0.1093470E+00
          1   -1    0    0  502    0  0.00000000000E+00  0.00000000000E+00  0.25316526555E+03  0.25316526555E+03  0.00000000000E+00 0.  1.
         13   -1    0    0    0    0 -0.00000000000E+00 -0.00000000000E+00 -0.27500000000E+03  0.27500000000E+03  0.00000000000E+00 0.  1.
    9000005    2    1    2  501    0  0.33605162104E+02  0.23989201436E+02 -0.49504057595E+02  0.47846234663E+03  0.47409996491E+03 0.  0.
         13    1    3    3    0    0  0.92081187075E+02  0.33481054979E+02 -0.25046717099E+03  0.26894930712E+03  0.00000000000E+00 0.  1.
          3    1    3    3  501    0 -0.58476024971E+02 -0.94918535435E+01  0.20096311340E+03  0.20951303951E+03  0.00000000000E+00 0.  1.
         21    1    1    2  502  501 -0.33605162104E+02 -0.23989201436E+02  0.27669323149E+02  0.49702918919E+02  0.00000000000E+00 0. -1.
<scales pt_clust_4="550.00000" pt_clust_5="550.00000" pt_clust_6="41.28909"></scales>
<mgrwt>
<rscale>  0 0.30000000E+03</rscale>
<asrwt>  1 0.41289087E+02</asrwt>
<pdfrwt beam="1">  1        1 0.92060097E+00 0.30000000E+03</pdfrwt>
<pdfrwt beam="2">0</pdfrwt>
<totfact> 0.39351992E-05</totfact>
</mgrwt>
<clustering>
<clus scale="   41.289">  1  6  2 -1</clus>
<clus scale="  474.100">  4  5 -1 -1</clus>
<clus scale="  300.000">  1  4  2 -1</clus>
</clustering>
</event>
<event>
 6    1  0.1033679E-011  0.3000000E+03  0.7818608E-02  0.1093470E+00
          1   -1    0    0  502    0  0.00000000000E+00  0.00000000000E+00  0.23842710751E+03  0.23842710751E+03  0.00000000000E+00 0.  1.
         13   -1    0    0    0    0 -0.00000000000E+00 -0.00000000000E+00 -0.27500000000E+03  0.27500000000E+03  0.00000000000E+00 0.  1.
    9000005    2    1    2  501    0 -0.21203603562E+02 -0.31650059634E+02 -0.33989906582E+02  0.47524346056E+03  0.47249308352E+03 0.  0.
         13    1    3    3    0    0 -0.56073601027E+02 -0.23544178257E+03 -0.94493040459E+02  0.25981919946E+03  0.00000000000E+00 0.  1.
          3    1    3    3  501    0  0.34869997465E+02  0.20379172294E+03  0.60503133878E+02  0.21542426110E+03  0.00000000000E+00 0.  1.
         21    1    1    2  502  501  0.21203603562E+02  0.31650059634E+02 -0.25829859048E+01  0.38183646958E+02  0.00000000000E+00 0. -1.
<scales pt_clust_4="550.00000" pt_clust_5="550.00000" pt_clust_6="38.09618"></scales>
<mgrwt>
<rscale>  0 0.30000000E+03</rscale>
<asrwt>  1 0.38096182E+02</asrwt>
<pdfrwt beam="1">  1        1 0.86700766E+00 0.30000000E+03</pdfrwt>
<pdfrwt beam="2">0</pdfrwt>
<totfact> 0.26772102E-04</totfact>
</mgrwt>
<clustering>
<clus scale="   38.096">  1  6  2 -1</clus>
<clus scale="  472.493">  4  5 -1 -1</clus>
<clus scale="  300.000">  1  4  2 -1</clus>
</clustering>
</event>
<event>
 6    1  0.1033679E-011  0.3000000E+03  0.7818608E-02  0.1093470E+00
          1   -1    0    0  502    0  0.00000000000E+00  0.00000000000E+00  0.22300034622E+03  0.22300034622E+03  0.00000000000E+00 0.  1.
         13   -1    0    0    0    0 -0.00000000000E+00 -0.00000000000E+00 -0.27500000000E+03  0.27500000000E+03  0.00000000000E+00 0.  1.
    9000005    2    1    2  501    0  0.23542041478E+02  0.26520764322E+02 -0.53703540489E+02  0.46249708035E+03  0.45799770787E+03 0.  0.
         13    1    3    3    0    0 -0.12714961134E+03 -0.16564322778E+03 -0.63010688302E+02  0.21811705439E+03  0.00000000000E+00 0.  1.
          3    1    3    3  501    0  0.15069165282E+03  0.19216399211E+03  0.93071478124E+01  0.24438002597E+03  0.00000000000E+00 0.  1.
         21    1    1    2  502  501 -0.23542041478E+02 -0.26520764322E+02  0.17038867070E+01  0.35503265865E+02  0.00000000000E+00 0.  1.
<scales pt_clust_4="550.00000" pt_clust_5="550.00000" pt_clust_6="35.46236"></scales>
<mgrwt>
<rscale>  0 0.30000000E+03</rscale>
<asrwt>  1 0.35462355E+02</asrwt>
<pdfrwt beam="1">  1        1 0.81091035E+00 0.30000000E+03</pdfrwt>
<pdfrwt beam="2">0</pdfrwt>
<totfact> 0.85586807E-04</totfact>
</mgrwt>
<clustering>
<clus scale="   35.462">  1  6  2 -1</clus>
<clus scale="  457.998">  4  5 -1 -1</clus>
<clus scale="  300.000">  1  4  2 -1</clus>
</clustering>
</event>
<event>
 6    1  0.1033679E-011  0.3000000E+03  0.7818608E-02  0.1093470E+00
          1   -1    0    0  502    0  0.00000000000E+00  0.00000000000E+00  0.23217257000E+03  0.23217257000E+03  0.00000000000E+00 0.  1.
         13   -1    0    0    0    0 -0.00000000000E+00 -0.00000000000E+00 -0.27500000000E+03  0.27500000000E+03  0.00000000000E+00 0.  1.
    9000005    2    1    2  501    0  0.89755971505E+01  0.28776844394E+02 -0.39345812760E+02  0.47682805195E+03  0.47424490511E+03 0.  0.
         13    1    3    3    0    0 -0.83958065514E+02  0.23311053132E+03 -0.47160287950E+02  0.25221730578E+03  0.00000000000E+00 0.  1.
          3    1    3    3  501    0  0.92933662665E+02 -0.20433368693E+03  0.78144751899E+01  0.22461074616E+03  0.00000000000E+00 0.  1.
         21    1    1    2  502  501 -0.89755971505E+01 -0.28776844394E+02 -0.34816172380E+01  0.30344518057E+02  0.00000000000E+00 0.  1.
<scales pt_clust_4="550.00000" pt_clust_5="550.00000" pt_clust_6="30.14414"></scales>
<mgrwt>
<rscale>  0 0.30000000E+03</rscale>
<asrwt>  1 0.30144138E+02</asrwt>
<pdfrwt beam="1">  1        1 0.84426389E+00 0.30000000E+03</pdfrwt>
<pdfrwt beam="2">0</pdfrwt>
<totfact> 0.47169954E-04</totfact>
</mgrwt>
<clustering>
<clus scale="   30.144">  1  6  2 -1</clus>
<clus scale="  474.245">  4  5 -1 -1</clus>
<clus scale="  300.000">  1  4  2 -1</clus>
</clustering>
</event>
<event>
 6    1  0.1033679E-011  0.3000000E+03  0.7818608E-02  0.1093470E+00
          1   -1    0    0  502    0  0.00000000000E+00  0.00000000000E+00  0.25711541414E+03  0.25711541414E+03  0.00000000000E+00 0.  1.
         13   -1    0    0    0    0 -0.00000000000E+00 -0.00000000000E+00 -0.27500000000E+03  0.27500000000E+03  0.00000000000E+00 0.  1.
    9000005    2    1    2  501    0 -0.32253051474E+02 -0.41983821709E+01 -0.20430837492E+02  0.49949074342E+03  0.49801174474E+03 0.  0.
         13    1    3    3    0    0  0.19920855355E+03 -0.99198982739E+02  0.70249816715E+02  0.23336564171E+03  0.00000000000E+00 0.  1.
          1    1    3    3  501    0 -0.23146160503E+03  0.95000600569E+02 -0.90680654207E+02  0.26612510170E+03  0.00000000000E+00 0.  1.
         21    1    1    2  502  501  0.32253051474E+02  0.41983821709E+01  0.25462516302E+01  0.32624670720E+02  0.00000000000E+00 0. -1.
<scales pt_clust_4="550.00000" pt_clust_5="550.00000" pt_clust_6="32.52516"></scales>
<mgrwt>
<rscale>  0 0.30000000E+03</rscale>
<asrwt>  1 0.32525156E+02</asrwt>
<pdfrwt beam="1">  1        1 0.93496514E+00 0.30000000E+03</pdfrwt>
<pdfrwt beam="2">0</pdfrwt>
<totfact> 0.22860779E-05</totfact>
</mgrwt>
<clustering>
<clus scale="   32.525">  1  6  2 -1</clus>
<clus scale="  498.012">  4  5 -1 -1</clus>
<clus scale="  300.000">  1  4  2 -1</clus>
</clustering>
</event>
<event>
 6    1  0.1033679E-011  0.3000000E+03  0.7818608E-02  0.1093470E+00
          1   -1    0    0  502    0  0.00000000000E+00  0.00000000000E+00  0.24242417550E+03  0.24242417550E+03  0.00000000000E+00 0.  1.
         13   -1    0    0    0    0 -0.00000000000E+00 -0.00000000000E+00 -0.27500000000E+03  0.27500000000E+03  0.00000000000E+00 0.  1.
    9000005    2    1    2  501    0 -0.18967679004E+02  0.26386777371E+02 -0.52953850116E+02  0.47906666261E+03  0.47502075967E+03 0.  0.
         13    1    3    3    0    0 -0.22286790007E+03  0.99471065491E+02  0.32507969674E+02  0.24621405696E+03  0.00000000000E+00 0.  1.
          1    1    3    3  501    0  0.20390022106E+03 -0.73084288120E+02 -0.85461819789E+02  0.23285260566E+03  0.00000000000E+00 0.  1.
         21    1    1    2  502  501  0.18967679004E+02 -0.26386777371E+02  0.20378025617E+02  0.38357512887E+02  0.00000000000E+00 0.  1.
<scales pt_clust_4="550.00000" pt_clust_5="550.00000" pt_clust_6="32.49669"></scales>
<mgrwt>
<rscale>  0 0.30000000E+03</rscale>
<asrwt>  1 0.32496690E+02</asrwt>
<pdfrwt beam="1">  1        1 0.88154246E+00 0.30000000E+03</pdfrwt>
<pdfrwt beam="2">0</pdfrwt>
<totfact> 0.19138863E-04</totfact>
</mgrwt>
<clustering>
<clus scale="   32.497">  1  6  2 -1</clus>
<clus scale="  475.021">  4  5 -1 -1</clus>
<clus scale="  300.000">  1  4  2 -1</clus>
</clustering>
</event>
<event>
 6    1  0.1033679E-011  0.3000000E+03  0.7818608E-02  0.1093470E+00
          1   -1    0    0  502    0  0.00000000000E+00  0.00000000000E+00  0.22132838376E+03  0.22132838376E+03  0.00000000000E+00 0.  1.
         13   -1    0    0    0    0 -0.00000000000E+00 -0.00000000000E+00 -0.27500000000E+03  0.27500000000E+03  0.00000000000E+00 0.  1.
    9000005    2    1    2  501    0 -0.30221113245E+02 -0.18579028299E+02 -0.54727545543E+02  0.46083738540E+03  0.45619896488E+03 0.  0.
         13    1    3    3    0    0 -0.10883588943E+03 -0.20944845034E+03 -0.87683000394E+02  0.25179796015E+03  0.00000000000E+00 0.  1.
          1    1    3    3  501    0  0.78614776189E+02  0.19086942204E+03  0.32955454851E+02  0.20903942525E+03  0.00000000000E+00 0.  1.
         21    1    1    2  502  501  0.30221113245E+02  0.18579028299E+02  0.10559293062E+01  0.35490998366E+02  0.00000000000E+00 0. -1.
<scales pt_clust_4="550.00000" pt_clust_5="550.00000" pt_clust_6="35.47529"></scales>
<mgrwt>
<rscale>  0 0.30000000E+03</rscale>
<asrwt>  1 0.35475287E+02</asrwt>
<pdfrwt beam="1">  1        1 0.80483049E+00 0.30000000E+03</pdfrwt>
<pdfrwt beam="2">0</pdfrwt>
<totfact> 0.95335717E-04</totfact>
</mgrwt>
<clustering>
<clus scale="   35.475">  1  6  2 -1</clus>
<clus scale="  456.199">  4  5 -1 -1</clus>
<clus scale="  300.000">  1  4  2 -1</clus>
</clustering>
</event>
<event>
 6    1  0.1033679E-011  0.3000000E+03  0.7818608E-02  0.1093470E+00
          1   -1    0    0  502    0  0.00000000000E+00  0.00000000000E+00  0.23424151852E+03  0.23424151852E+03  0.00000000000E+00 0.  1.
         13   -1    0    0    0    0 -0.00000000000E+00 -0.00000000000E+00 -0.27500000000E+03  0.27500000000E+03  0.00000000000E+00 0.  1.
    9000005    2    1    2  501    0 -0.78967011441E+01 -0.32691819008E+02 -0.57283512524E+02  0.47176900099E+03  0.46706902763E+03 0.  0.
         13    1    3    3    0    0  0.11950942909E+03  0.40460631894E+02 -0.21933453458E+03  0.25303597458E+03  0.00000000000E+00 0.  1.
          1    1    3    3  501    0 -0.12740613023E+03 -0.73152450902E+02  0.16205102205E+03  0.21873302641E+03  0.00000000000E+00 0.  1.
         21    1    1    2  502  501  0.78967011441E+01  0.32691819008E+02  0.16525031042E+02  0.37472517529E+02  0.00000000000E+00 0.  1.
<scales pt_clust_4="550.00000" pt_clust_5="550.00000" pt_clust_6="33.63202"></scales>
<mgrwt>
<rscale>  0 0.30000000E+03</rscale>
<asrwt>  1 0.33632022E+02</asrwt>
<pdfrwt beam="1">  1        1 0.85178734E+00 0.30000000E+03</pdfrwt>
<pdfrwt beam="2">0</pdfrwt>
<totfact> 0.39436673E-04</totfact>
</mgrwt>
<clustering>
<clus scale="   33.632">  1  6  2 -1</clus>
<clus scale="  467.069">  4  5 -1 -1</clus>
<clus scale="  300.000">  1  4  2 -1</clus>
</clustering>
</event>
<event>
 6    1  0.1033679E-011  0.3000000E+03  0.7818608E-02  0.1093470E+00
          1   -1    0    0  502    0  0.00000000000E+00  0.00000000000E+00  0.25255482921E+03  0.25255482921E+03  0.00000000000E+00 0.  1.
         13   -1    0    0    0    0 -0.00000000000E+00 -0.00000000000E+00 -0.27500000000E+03  0.27500000000E+03  0.00000000000E+00 0.  1.
    9000005    2    1    2  501    0 -0.35790429946E+02  0.11143042403E+02 -0.48148981855E+02  0.48210366671E+03  0.47822640949E+03 0.  0.
         13    1    3    3    0    0 -0.15716361486E+02 -0.80658039584E+02 -0.24800139576E+03  0.26126120199E+03  0.00000000000E+00 0.  1.
          3    1    3    3  501    0 -0.20074068460E+02  0.91801081988E+02  0.19985241390E+03  0.22084246472E+03  0.00000000000E+00 0.  1.
         21    1    1    2  502  501  0.35790429946E+02 -0.11143042403E+02  0.25703811069E+02  0.45451162506E+02  0.00000000000E+00 0. -1.
<scales pt_clust_4="550.00000" pt_clust_5="550.00000" pt_clust_6="37.48496"></scales>
<mgrwt>
<rscale>  0 0.30000000E+03</rscale>
<asrwt>  1 0.37484961E+02</asrwt>
<pdfrwt beam="1">  1        1 0.91838120E+00 0.30000000E+03</pdfrwt>
<pdfrwt beam="2">0</pdfrwt>
<totfact> 0.44790023E-05</totfact>
</mgrwt>
<clustering>
<clus scale="   37.485">  1  6  2 -1</clus>
<clus scale="  478.226">  4  5 -1 -1</clus>
<clus scale="  300.000">  1  4  2 -1</clus>
</clustering>
</event>
<event>
 6    1  0.1033679E-011  0.3000000E+03  0.7818608E-02  0.1093470E+00
          1   -1    0    0  502    0  0.00000000000E+00  0.00000000000E+00  0.22719324215E+03  0.22719324215E+03  0.00000000000E+00 0.  1.
         13   -1    0    0    0    0 -0.00000000000E+00 -0.00000000000E+00 -0.27500000000E+03  0.27500000000E+03  0.00000000000E+00 0.  1.
    9000005    2    1    2  501    0 -0.23799690177E+02  0.21112111861E+02 -0.51953871069E+02  0.47010983417E+03  0.46614579795E+03 0.  0.
         13    1    3    3    0    0 -0.20937553374E+03  0.46031154846E+02  0.92640734474E+02  0.23353647901E+03  0.00000000000E+00 0.  1.
          1    1    3    3  501    0  0.18557584356E+03 -0.24919042985E+02 -0.14459460554E+03  0.23657335516E+03  0.00000000000E+00 0.  1.
         21    1    1    2  502  501  0.23799690177E+02 -0.21112111861E+02  0.41471132205E+01  0.32083407983E+02  0.00000000000E+00 0. -1.
<scales pt_clust_4="550.00000" pt_clust_5="550.00000" pt_clust_6="31.81425"></scales>
<mgrwt>
<rscale>  0 0.30000000E+03</rscale>
<asrwt>  1 0.31814250E+02</asrwt>
<pdfrwt beam="1">  1        1 0.82615724E+00 0.30000000E+03</pdfrwt>
<pdfrwt beam="2">0</pdfrwt>
<totfact> 0.64945298E-04</totfact>
</mgrwt>
<clustering>
<clus scale="   31.814">  1  6  2 -1</clus>
<clus scale="  466.146">  4  5 -1 -1</clus>
<clus scale="  300.000">  1  4  2 -1</clus>
</clustering>
</event>
<event>
 6    1  0.1033679E-011  0.3000000E+03  0.7818608E-02  0.1093470E+00
          1   -1    0    0  502    0  0.00000000000E+00  0.00000000000E+00  0.24699651163E+03  0.24699651163E+03  0.00000000000E+00 0.  1.
         13   -1    0    0    0    0 -0.00000000000E+00 -0.00000000000E+00 -0.27500000000E+03  0.27500000000E+03  0.00000000000E+00 0.  1.
    9000005    2    1    2  501    0  0.17397757935E+01  0.39670535246E+02 -0.35229578927E+02  0.48163570674E+03  0.47870142322E+03 0.  0.
         13    1    3    3    0    0 -0.22092990672E+03 -0.63449957636E+02  0.17916233890E+02  0.23055782842E+03  0.00000000000E+00 0.  1.
          1    1    3    3  501    0  0.22266968252E+03  0.10312049288E+03 -0.53145812817E+02  0.25107787832E+03  0.00000000000E+00 0.  1.
         21    1    1    2  502  501 -0.17397757935E+01 -0.39670535246E+02  0.72260905596E+01  0.40360804889E+02  0.00000000000E+00 0.  1.
<scales pt_clust_4="550.00000" pt_clust_5="550.00000" pt_clust_6="39.70867"></scales>
<mgrwt>
<rscale>  0 0.30000000E+03</rscale>
<asrwt>  1 0.39708666E+02</asrwt>
<pdfrwt beam="1">  1        1 0.89816913E+00 0.30000000E+03</pdfrwt>
<pdfrwt beam="2">0</pdfrwt>
<totfact> 0.11348651E-04</totfact>
</mgrwt>
<clustering>
<clus scale="   39.709">  1  6  2 -1</clus>
<clus scale="  478.701">  4  5 -1 -1</clus>
<clus scale="  300.000">  1  4  2 -1</clus>
</clustering>
</event>
<event>
 6    1  0.1033679E-011  0.3000000E+03  0.7818608E-02  0.1093470E+00
          1   -1    0    0  502    0  0.00000000000E+00  0.00000000000E+00  0.23624211478E+03  0.23624211478E+03  0.00000000000E+00 0.  1.
         13   -1    0    0    0    0 -0.00000000000E+00 -0.00000000000E+00 -0.27500000000E+03  0.27500000000E+03  0.00000000000E+00 0.  1.
    9000005    2    1    2  501    0 -0.38238457478E+01  0.37375902363E+02 -0.63481859518E+02  0.46626595689E+03  0.46039376211E+03 0.  0.
         13    1    3    3    0    0 -0.30795822773E+02  0.23053161147E+03 -0.12201478976E+03  0.26264199114E+03  0.00000000000E+00 0.  1.
          1    1    3    3  501    0  0.26971977026E+02 -0.19315570911E+03  0.58532930246E+02  0.20362396575E+03  0.00000000000E+00 0.  1.
         21    1    1    2  502  501  0.38238457478E+01 -0.37375902363E+02  0.24723974301E+02  0.44976157895E+02  0.00000000000E+00 0. -1.
<scales pt_clust_4="550.00000" pt_clust_5="550.00000" pt_clust_6="37.57100"></scales>
<mgrwt>
<rscale>  0 0.30000000E+03</rscale>
<asrwt>  1 0.37570998E+02</asrwt>
<pdfrwt beam="1">  1        1 0.85906224E+00 0.30000000E+03</pdfrwt>
<pdfrwt beam="2">0</pdfrwt>
<totfact> 0.32663572E-04</totfact>
</mgrwt>
<clustering>
<clus scale="   37.571">  1  6  2 -1</clus>
<clus scale="  460.394">  4  5 -1 -1</clus>
<clus scale="  300.000">  1  4  2 -1</clus>
</clustering>
</event>
<event>
 6    1  0.1033679E-011  0.3000000E+03  0.7818608E-02  0.1093470E+00
          1   -1    0    0  502    0  0.00000000000E+00  0.00000000000E+00  0.24648306352E+03  0.24648306352E+03  0.00000000000E+00 0.  1.
         13   -1    0    0    0    0 -0.00000000000E+00 -0.00000000000E+00 -0.27500000000E+03  0.27500000000E+03  0.00000000000E+00 0.  1.
    9000005    2    1    2  501    0 -0.15592198130E+02 -0.37910978872E+02 -0.48892310291E+02  0.47570627006E+03  0.47140814419E+03 0.  0.
         13    1    3    3    0    0 -0.40888899541E+02  0.21500705978E+03 -0.28524740032E+02  0.22071157345E+03  0.00000000000E+00 0.  1.
          3    1    3    3  501    0  0.25296701411E+02 -0.25291803865E+03 -0.20367570259E+02  0.25499469661E+03  0.00000000000E+00 0.  1.
         21    1    1    2  502  501  0.15592198130E+02  0.37910978872E+02  0.20375373808E+02  0.45776793459E+02  0.00000000000E+00 0. -1.
<scales pt_clust_4="550.00000" pt_clust_5="550.00000" pt_clust_6="40.99218"></scales>
<mgrwt>
<rscale>  0 0.30000000E+03</rscale>
<asrwt>  1 0.40992182E+02</asrwt>
<pdfrwt beam="1">  1        1 0.89630205E+00 0.30000000E+03</pdfrwt>
<pdfrwt beam="2">0</pdfrwt>
<totfact> 0.11844165E-04</totfact>
</mgrwt>
<clustering>
<clus scale="   40.992">  1  6  2 -1</clus>
<clus scale="  471.408">  4  5 -1 -1</clus>
<clus scale="  300.000">  1  4  2 -1</clus>
</clustering>
</event>
<event>
 6    1  0.1033679E-011  0.3000000E+03  0.7818608E-02  0.1093470E+00
          1   -1    0    0  502    0  0.00000000000E+00  0.00000000000E+00  0.24158014049E+03  0.24158014049E+03  0.00000000000E+00 0.  1.
         13   -1    0    0    0    0 -0.00000000000E+00 -0.00000000000E+00 -0.27500000000E+03  0.27500000000E+03  0.00000000000E+00 0.  1.
    9000005    2    1    2  501    0  0.37027940148E+02 -0.20721987557E+01 -0.49339866114E+02  0.47622163495E+03  0.47220468109E+03 0.  0.
         13    1    3    3    0    0 -0.16914092746E+03  0.10249540348E+03  0.77646720667E+02  0.21246876078E+03  0.00000000000E+00 0.  1.
          3    1    3    3  501    0  0.20616886761E+03 -0.10456760224E+03 -0.12698658678E+03  0.26375287417E+03  0.00000000000E+00 0.  1.
         21    1    1    2  502  501 -0.37027940148E+02  0.20721987557E+01  0.15920006602E+02  0.40358505541E+02  0.00000000000E+00 0. -1.
<scales pt_clust_4="550.00000" pt_clust_5="550.00000" pt_clust_6="37.08588"></scales>
<mgrwt>
<rscale>  0 0.30000000E+03</rscale>
<asrwt>  1 0.37085878E+02</asrwt>
<pdfrwt beam="1">  1        1 0.87847324E+00 0.30000000E+03</pdfrwt>
<pdfrwt beam="2">0</pdfrwt>
<totfact> 0.20368165E-04</totfact>
</mgrwt>
<clustering>
<clus scale="   37.086">  1  6  2 -1</clus>
<clus scale="  472.205">  4  5 -1 -1</clus>
<clus scale="  300.000">  1  4  2 -1</clus>
</clustering>
</event>
<event>
 6    1  0.1033679E-011  0.3000000E+03  0.7818608E-02  0.1093470E+00
          1   -1    0    0  502    0  0.00000000000E+00  0.00000000000E+00  0.24098283230E+03  0.24098283230E+03  0.00000000000E+00 0.  1.
         13   -1    0    0    0    0 -0.00000000000E+00 -0.00000000000E+00 -0.27500000000E+03  0.27500000000E+03  0.00000000000E+00 0.  1.
    9000005    2    1    2  501    0  0.18536040032E+02 -0.27378651473E+02 -0.54287948431E+02  0.47720036348E+03  0.47294802063E+03 0.  0.
         13    1    3    3    0    0 -0.19321290255E+03 -0.65565859831E+02  0.84842763013E+02  0.22097149618E+03  0.00000000000E+00 0.  1.
          3    1    3    3  501    0  0.21174894259E+03  0.38187208358E+02 -0.13913071144E+03  0.25622886730E+03  0.00000000000E+00 0.  1.
         21    1    1    2  502  501 -0.18536040032E+02  0.27378651473E+02  0.20270780730E+02  0.38782468822E+02  0.00000000000E+00 0. -1.
<scales pt_clust_4="550.00000" pt_clust_5="550.00000" pt_clust_6="33.06320"></scales>
<mgrwt>
<rscale>  0 0.30000000E+03</rscale>
<asrwt>  1 0.33063202E+02</asrwt>
<pdfrwt beam="1">  1        1 0.87630121E+00 0.30000000E+03</pdfrwt>
<pdfrwt beam="2">0</pdfrwt>
<totfact> 0.22015591E-04</totfact>
</mgrwt>
<clustering>
<clus scale="   33.063">  1  6  2 -1</clus>
<clus scale="  472.948">  4  5 -1 -1</clus>
<clus scale="  300.000">  1  4  2 -1</clus>
</clustering>
</event>
<event>
 6    1  0.1033679E-011  0.3000000E+03  0.7818608E-02  0.1093470E+00
          1   -1    0    0  502    0  0.00000000000E+00  0.00000000000E+00  0.22523278030E+03  0.22523278030E+03  0.00000000000E+00 0.  1.
         13   -1    0    0    0    0 -0.00000000000E+00 -0.00000000000E+00 -0.27500000000E+03  0.27500000000E+03  0.00000000000E+00 0.  1.
    9000005    2    1    2  501    0  0.32198716922E+02  0.95843403372E+01 -0.49567188680E+02  0.46663729008E+03  0.46277946945E+03 0.  0.
         13    1    3    3    0    0  0.37873858192E+02 -0.16709534514E+03 -0.17882005002E+03  0.24765276859E+03  0.00000000000E+00 0.  1.
          1    1    3    3  501    0 -0.56751412696E+01  0.17667968548E+03  0.12925286133E+03  0.21898452149E+03  0.00000000000E+00 0.  1.
         21    1    1    2  502  501 -0.32198716922E+02 -0.95843403372E+01 -0.20003101760E+00  0.33595490226E+02  0.00000000000E+00 0. -1.
<scales pt_clust_4="550.00000" pt_clust_5="550.00000" pt_clust_6="33.59489"></scales>
<mgrwt>
<rscale>  0 0.30000000E+03</rscale>
<asrwt>  1 0.33594895E+02</asrwt>
<pdfrwt beam="1">  1        1 0.81902829E+00 0.30000000E+03</pdfrwt>
<pdfrwt beam="2">0</pdfrwt>
<totfact> 0.74302558E-04</totfact>
</mgrwt>
<clustering>
<clus scale="   33.595">  1  6  2 -1</clus>
<clus scale="  462.779">  4  5 -1 -1</clus>
<clus scale="  300.000">  1  4  2 -1</clus>
</clustering>
</event>
<event>
 6    1  0.1033679E-011  0.3000000E+03  0.7818608E-02  0.1093470E+00
          1   -1    0    0  502    0  0.00000000000E+00  0.00000000000E+00  0.24127645266E+03  0.24127645266E+03  0.00000000000E+00 0.  1.
         13   -1    0    0    0    0 -0.00000000000E+00 -0.00000000000E+00 -0.27500000000E+03  0.27500000000E+03  0.00000000000E+00 0.  1.
    9000005    2    1    2  501    0  0.26861475021E+01 -0.33640238702E+02 -0.53594895823E+02  0.47711331261E+03  0.47289091677E+03 0.  0.
         13    1    3    3    0    0  0.48830637845E+02  0.21458646276E+03 -0.44151623495E+02  0.22445745042E+03  0.00000000000E+00 0.  1.
          1    1    3    3  501    0 -0.46144490343E+02 -0.24822670146E+03 -0.94432723282E+01  0.25265586219E+03  0.00000000000E+00 0.  1.
         21    1    1    2  502  501 -0.26861475021E+01  0.33640238702E+02  0.19871348483E+02  0.39163140054E+02  0.00000000000E+00 0.  1.
<scales pt_clust_4="550.00000" pt_clust_5="550.00000" pt_clust_6="33.74731"></scales>
<mgrwt>
<rscale>  0 0.30000000E+03</rscale>
<asrwt>  1 0.33747312E+02</asrwt>
<pdfrwt beam="1">  1        1 0.87736892E+00 0.30000000E+03</pdfrwt>
<pdfrwt beam="2">0</pdfrwt>
<totfact> 0.21342474E-04</totfact>
</mgrwt>
<clustering>
<clus scale="   33.747">  1  6  2 -1</clus>
<clus scale="  472.891">  4  5 -1 -1</clus>
<clus scale="  300.000">  1  4  2 -1</clus>
</clustering>
</event>
<event>
 6    1  0.1033679E-011  0.3000000E+03  0.7818608E-02  0.1093470E+00
          1   -1    0    0  502    0  0.00000000000E+00  0.00000000000E+00  0.24992723241E+03  0.24992723241E+03  0.00000000000E+00 0.  1.
         13   -1    0    0    0    0 -0.00000000000E+00 -0.00000000000E+00 -0.27500000000E+03  0.27500000000E+03  0.00000000000E+00 0.  1.
    9000005    2    1    2  501    0  0.25913238942E+02  0.39105003718E+02 -0.44798746863E+02  0.47403704154E+03  0.46957799327E+03 0.  0.
         13    1    3    3    0    0  0.15201903690E+03  0.17306854486E+03  0.88577885186E+02  0.24679657725E+03  0.00000000000E+00 0.  1.
          1    1    3    3  501    0 -0.12610579796E+03 -0.13396354114E+03 -0.13337663205E+03  0.22724046429E+03  0.00000000000E+00 0.  1.
         21    1    1    2  502  501 -0.25913238942E+02 -0.39105003718E+02  0.19725979271E+02  0.50890190866E+02  0.00000000000E+00 0.  1.
<scales pt_clust_4="550.00000" pt_clust_5="550.00000" pt_clust_6="46.91159"></scales>
<mgrwt>
<rscale>  0 0.30000000E+03</rscale>
<asrwt>  1 0.46911590E+02</asrwt>
<pdfrwt beam="1">  1        1 0.90882630E+00 0.30000000E+03</pdfrwt>
<pdfrwt beam="2">0</pdfrwt>
<totfact> 0.72665982E-05</totfact>
</mgrwt>
<clustering>
<clus scale="   46.912">  1  6  2 -1</clus>
<clus scale="  469.578">  4  5 -1 -1</clus>
<clus scale="  300.000">  1  4  2 -1</clus>
</clustering>
</event>
<event>
 6    1  0.1033679E-011  0.3000000E+03  0.7818608E-02  0.1093470E+00
          1   -1    0    0  502    0  0.00000000000E+00  0.00000000000E+00  0.23400438685E+03  0.23400438685E+03  0.00000000000E+00 0.  1.
         13   -1    0    0    0    0 -0.00000000000E+00 -0.00000000000E+00 -0.27500000000E+03  0.27500000000E+03  0.00000000000E+00 0.  1.
    9000005    2    1    2  501    0 -0.28558855536E+02  0.19661791292E+02 -0.25903200335E+02  0.47118937408E+03  0.46919745971E+03 0.  0.
         13    1    3    3    0    0  0.21577439783E+03  0.57158239540E+02 -0.83349079725E+01  0.22337216881E+03  0.00000000000E+00 0.  1.
          3    1    3    3  501    0 -0.24433325337E+03 -0.37496448248E+02 -0.17568292363E+02  0.24781720527E+03  0.00000000000E+00 0.  1.
         21    1    1    2  502  501  0.28558855536E+02 -0.19661791292E+02 -0.15092412810E+02  0.37815012770E+02  0.00000000000E+00 0.  1.
<scales pt_clust_4="550.00000" pt_clust_5="550.00000" pt_clust_6="34.67269"></scales>
<mgrwt>
<rscale>  0 0.30000000E+03</rscale>
<asrwt>  1 0.34672691E+02</asrwt>
<pdfrwt beam="1">  1        1 0.85092504E+00 0.30000000E+03</pdfrwt>
<pdfrwt beam="2">0</pdfrwt>
<totfact> 0.39959555E-04</totfact>
</mgrwt>
<clustering>
<clus scale="   34.673">  1  6  2 -1</clus>
<clus scale="  469.197">  4  5 -1 -1</clus>
<clus scale="  300.000">  1  4  2 -1</clus>
</clustering>
</event>
<event>
 6    1  0.1033679E-011  0.3000000E+03  0.7818608E-02  0.1093470E+00
          1   -1    0    0  502    0  0.00000000000E+00  0.00000000000E+00  0.23334232852E+03  0.23334232852E+03  0.00000000000E+00 0.  1.
         13   -1    0    0    0    0 -0.00000000000E+00 -0.00000000000E+00 -0.27500000000E+03  0.27500000000E+03  0.00000000000E+00 0.  1.
    9000005    2    1    2  501    0  0.30441349819E+02 -0.95442312466E+01 -0.38925971555E+02  0.47632311065E+03  0.47365673895E+03 0.  0.
         13    1    3    3    0    0 -0.15146946864E+03 -0.71970235608E+01 -0.18770710057E+03  0.24130634613E+03  0.00000000000E+00 0.  1.
          1    1    3    3  501    0  0.18191081846E+03 -0.23472076858E+01  0.14878112901E+03  0.23501676452E+03  0.00000000000E+00 0.  1.
         21    1    1    2  502  501 -0.30441349819E+02  0.95442312466E+01 -0.27316999200E+01  0.32019217875E+02  0.00000000000E+00 0.  1.
<scales pt_clust_4="550.00000" pt_clust_5="550.00000" pt_clust_6="31.90249"></scales>
<mgrwt>
<rscale>  0 0.30000000E+03</rscale>
<asrwt>  1 0.31902494E+02</asrwt>
<pdfrwt beam="1">  1        1 0.84851756E+00 0.30000000E+03</pdfrwt>
<pdfrwt beam="2">0</pdfrwt>
<totfact> 0.42752254E-04</totfact>
</mgrwt>
<clustering>
<clus scale="   31.902">  1  6  2 -1</clus>
<clus scale="  473.657">  4  5 -1 -1</clus>
<clus scale="  300.000">  1  4  2 -1</clus>
</clustering>
</event>
<event>
 6    1  0.1033679E-011  0.3000000E+03  0.7818608E-02  0.1093470E+00
          1   -1    0    0  502    0  0.00000000000E+00  0.00000000000E+00  0.23666876883E+03  0.23666876883E+03  0.00000000000E+00 0.  1.
         13   -1    0    0    0    0 -0.00000000000E+00 -0.00000000000E+00 -0.27500000000E+03  0.27500000000E+03  0.00000000000E+00 0.  1.
    9000005    2    1    2  501    0  0.21019443972E+02  0.25466674024E+02 -0.28208453705E+01  0.46317798609E+03  0.46199082363E+03 0.  0.
         13    1    3    3    0    0 -0.12258399233E+03  0.18468158847E+03 -0.79473676905E+02  0.23547863940E+03  0.00000000000E+00 0.  1.
          1    1    3    3  501    0  0.14360343630E+03 -0.15921491444E+03  0.76652831535E+02  0.22769934669E+03  0.00000000000E+00 0.  1.
         21    1    1    2  502  501 -0.21019443972E+02 -0.25466674024E+02 -0.35510385803E+02  0.48490782739E+02  0.00000000000E+00 0.  1.
<scales pt_clust_4="550.00000" pt_clust_5="550.00000" pt_clust_6="33.02075"></scales>
<mgrwt>
<rscale>  0 0.30000000E+03</rscale>
<asrwt>  1 0.33020745E+02</asrwt>
<pdfrwt beam="1">  1        1 0.86061370E+00 0.30000000E+03</pdfrwt>
<pdfrwt beam="2">0</pdfrwt>
<totfact> 0.32211794E-04</totfact>
</mgrwt>
<clustering>
<clus scale="   33.021">  1  6  2 -1</clus>
<clus scale="  461.991">  4  5 -1 -1</clus>
<clus scale="  300.000">  1  4  2 -1</clus>
</clustering>
</event>
<event>
 6    1  0.1033679E-011  0.3000000E+03  0.7818608E-02  0.1093470E+00
          1   -1    0    0  502    0  0.00000000000E+00  0.00000000000E+00  0.22360241693E+03  0.22360241693E+03  0.00000000000E+00 0.  1.
         13   -1    0    0    0    0 -0.00000000000E+00 -0.00000000000E+00 -0.27500000000E+03  0.27500000000E+03  0.00000000000E+00 0.  1.
    9000005    2    1    2  501    0  0.31773888863E+02 -0.87496804309E+01 -0.66640329204E+02  0.46229156138E+03  0.45627449778E+03 0.  0.
         13    1    3    3    0    0  0.23411138847E+02  0.21809318906E+03 -0.83424274048E+02  0.23467494548E+03  0.00000000000E+00 0.  1.
          1    1    3    3  501    0  0.83627500152E+01 -0.22684286949E+03  0.16783944843E+02  0.22761661590E+03  0.00000000000E+00 0.  1.
         21    1    1    2  502  501 -0.31773888863E+02  0.87496804309E+01  0.15242746138E+02  0.36310855552E+02  0.00000000000E+00 0.  1.
<scales pt_clust_4="550.00000" pt_clust_5="550.00000" pt_clust_6="32.95659"></scales>
<mgrwt>
<rscale>  0 0.30000000E+03</rscale>
<asrwt>  1 0.32956591E+02</asrwt>
<pdfrwt beam="1">  1        1 0.81309970E+00 0.30000000E+03</pdfrwt>
<pdfrwt beam="2">0</pdfrwt>
<totfact> 0.83385490E-04</totfact>
</mgrwt>
<clustering>
<clus scale="   32.957">  1  6  2 -1</clus>
<clus scale="  456.274">  4  5 -1 -1</clus>
<clus scale="  300.000">  1  4  2 -1</clus>
</clustering>
</event>
<event>
 6    1  0.1033679E-011  0.3000000E+03  0.7818608E-02  0.1093470E+00
          1   -1    0    0  502    0  0.00000000000E+00  0.00000000000E+00  0.22825161048E+03  0.22825161048E+03  0.00000000000E+00 0.  1.
         13   -1    0    0    0    0 -0.00000000000E+00 -0.00000000000E+00 -0.27500000000E+03  0.27500000000E+03  0.00000000000E+00 0.  1.
    9000005    2    1    2  501    0 -0.30065376035E+02 -0.11563386026E+02 -0.49156396578E+02  0.47094933145E+03  0.46726789183E+03 0.  0.
         13    1    3    3    0    0 -0.14789097452E+03 -0.29619321832E+02 -0.21749813787E+03  0.26467807719E+03  0.00000000000E+00 0.  1.
          1    1    3    3  501    0  0.11782559848E+03  0.18055935805E+02  0.16834174129E+03  0.20627125426E+03  0.00000000000E+00 0.  1.
         21    1    1    2  502  501  0.30065376035E+02  0.11563386026E+02  0.24080070605E+01  0.32302279030E+02  0.00000000000E+00 0.  1.
<scales pt_clust_4="550.00000" pt_clust_5="550.00000" pt_clust_6="32.21240"></scales>
<mgrwt>
<rscale>  0 0.30000000E+03</rscale>
<asrwt>  1 0.32212400E+02</asrwt>
<pdfrwt beam="1">  1        1 0.83000586E+00 0.30000000E+03</pdfrwt>
<pdfrwt beam="2">0</pdfrwt>
<totfact> 0.60026120E-04</totfact>
</mgrwt>
<clustering>
<clus scale="   32.212">  1  6  2 -1</clus>
<clus scale="  467.268">  4  5 -1 -1</clus>
<clus scale="  300.000">  1  4  2 -1</clus>
</clustering>
</event>
<event>
 6    1  0.1033679E-011  0.3000000E+03  0.7818608E-02  0.1093470E+00
          1   -1    0    0  502    0  0.00000000000E+00  0.00000000000E+00  0.22793844344E+03  0.22793844344E+03  0.00000000000E+00 0.  1.
         13   -1    0    0    0    0 -0.00000000000E+00 -0.00000000000E+00 -0.27500000000E+03  0.27500000000E+03  0.00000000000E+00 0.  1.
    9000005    2    1    2  501    0 -0.29186969658E+02  0.17231570227E+02 -0.52738733174E+02  0.46857223119E+03  0.46435951121E+03 0.  0.
         13    1    3    3    0    0  0.12161843491E+03 -0.10310769399E+03 -0.17766805407E+03  0.23872196737E+03  0.00000000000E+00 0.  1.
          3    1    3    3  501    0 -0.15080540456E+03  0.12033926422E+03  0.12492932089E+03  0.22985026382E+03  0.00000000000E+00 0.  1.
         21    1    1    2  502  501  0.29186969658E+02 -0.17231570227E+02  0.56771766161E+01  0.34366212253E+02  0.00000000000E+00 0. -1.
<scales pt_clust_4="550.00000" pt_clust_5="550.00000" pt_clust_6="33.89404"></scales>
<mgrwt>
<rscale>  0 0.30000000E+03</rscale>
<asrwt>  1 0.33894044E+02</asrwt>
<pdfrwt beam="1">  1        1 0.82886707E+00 0.30000000E+03</pdfrwt>
<pdfrwt beam="2">0</pdfrwt>
<totfact> 0.60774436E-04</totfact>
</mgrwt>
<clustering>
<clus scale="   33.894">  1  6  2 -1</clus>
<clus scale="  464.360">  4  5 -1 -1</clus>
<clus scale="  300.000">  1  4  2 -1</clus>
</clustering>
</event>
<event>
 6    1  0.1033679E-011  0.3000000E+03  0.7818608E-02  0.1093470E+00
          1   -1    0    0  502    0  0.00000000000E+00  0.00000000000E+00  0.22833392112E+03  0.22833392112E+03  0.00000000000E+00 0.  1.
         13   -1    0    0    0    0 -0.00000000000E+00 -0.00000000000E+00 -0.27500000000E+03  0.27500000000E+03  0.00000000000E+00 0.  1.
    9000005    2    1    2  501    0  0.35784600476E+02  0.14665713527E+02 -0.50207305189E+02  0.46449887163E+03  0.46015519933E+03 0.  0.
         13    1    3    3    0    0  0.20806161237E+03  0.87576941037E+01 -0.15781628085E+03  0.26128970559E+03  0.00000000000E+00 0.  1.
          3    1    3    3  501    0 -0.17227701189E+03  0.59080194236E+01  0.10760897566E+03  0.20320916604E+03  0.00000000000E+00 0.  1.
         21    1    1    2  502  501 -0.35784600476E+02 -0.14665713527E+02  0.35412263044E+01  0.38835049481E+02  0.00000000000E+00 0.  1.
<scales pt_clust_4="550.00000" pt_clust_5="550.00000" pt_clust_6="38.67326"></scales>
<mgrwt>
<rscale>  0 0.30000000E+03</rscale>
<asrwt>  1 0.38673257E+02</asrwt>
<pdfrwt beam="1">  1        1 0.83030517E+00 0.30000000E+03</pdfrwt>
<pdfrwt beam="2">0</pdfrwt>
<totfact> 0.57684280E-04</totfact>
</mgrwt>
<clustering>
<clus scale="   38.673">  1  6  2 -1</clus>
<clus scale="  460.155">  4  5 -1 -1</clus>
<clus scale="  300.000">  1  4  2 -1</clus>
</clustering>
</event>
<event>
 6    1  0.1033679E-011  0.3000000E+03  0.7818608E-02  0.1093470E+00
          1   -1    0    0  502    0  0.00000000000E+00  0.00000000000E+00  0.22697976404E+03  0.22697976404E+03  0.00000000000E+00 0.  1.
         13   -1    0    0    0    0 -0.00000000000E+00 -0.00000000000E+00 -0.27500000000E+03  0.27500000000E+03  0.00000000000E+00 0.  1.
    9000005    2    1    2  501    0 -0.28386243116E+02  0.24530984434E+02 -0.34383435152E+02  0.46206096732E+03  0.45925000698E+03 0.  0.
         13    1    3    3    0    0 -0.35545972772E+02 -0.21465427139E+03  0.13611495563E+02  0.21800285599E+03  0.00000000000E+00 0.  1.
          1    1    3    3  501    0  0.71597296553E+01  0.23918525583E+03 -0.47994930714E+02  0.24405811133E+03  0.00000000000E+00 0.  1.
         21    1    1    2  502  501  0.28386243116E+02 -0.24530984434E+02 -0.13636800806E+02  0.39918796723E+02  0.00000000000E+00 0. -1.
<scales pt_clust_4="550.00000" pt_clust_5="550.00000" pt_clust_6="37.51732"></scales>
<mgrwt>
<rscale>  0 0.30000000E+03</rscale>
<asrwt>  1 0.37517321E+02</asrwt>
<pdfrwt beam="1">  1        1 0.82538096E+00 0.30000000E+03</pdfrwt>
<pdfrwt beam="2">0</pdfrwt>
<totfact> 0.63976840E-04</totfact>
</mgrwt>
<clustering>
<clus scale="   37.517">  1  6  2 -1</clus>
<clus scale="  459.250">  4  5 -1 -1</clus>
<clus scale="  300.000">  1  4  2 -1</clus>
</clustering>
</event>
<event>
 6    1  0.1033679E-011  0.3000000E+03  0.7818608E-02  0.1093470E+00
          1   -1    0    0  502    0  0.00000000000E+00  0.00000000000E+00  0.22185748539E+03  0.22185748539E+03  0.00000000000E+00 0.  1.
         13   -1    0    0    0    0 -0.00000000000E+00 -0.00000000000E+00 -0.27500000000E+03  0.27500000000E+03  0.00000000000E+00 0.  1.
    9000005    2    1    2  501    0  0.20865359519E+02 -0.23961543030E+02 -0.63927626572E+02  0.46330398464E+03  0.45777103663E+03 0.  0.
         13    1    3    3    0    0 -0.18234480409E+03  0.80359588157E+02  0.53696075046E+02  0.20637480337E+03  0.00000000000E+00 0.  1.
          3    1    3    3  501    0  0.20321016361E+03 -0.10432113119E+03 -0.11762370162E+03  0.25692918127E+03  0.00000000000E+00 0.  1.
         21    1    1    2  502  501 -0.20865359519E+02  0.23961543030E+02  0.10785111958E+02  0.33553500744E+02  0.00000000000E+00 0. -1.
<scales pt_clust_4="550.00000" pt_clust_5="550.00000" pt_clust_6="31.77293"></scales>
<mgrwt>
<rscale>  0 0.30000000E+03</rscale>
<asrwt>  1 0.31772925E+02</asrwt>
<pdfrwt beam="1">  1        1 0.80675449E+00 0.30000000E+03</pdfrwt>
<pdfrwt beam="2">0</pdfrwt>
<totfact> 0.94102941E-04</totfact>
</mgrwt>
<clustering>
<clus scale="   31.773">  1  6  2 -1</clus>
<clus scale="  457.771">  4  5 -1 -1</clus>
<clus scale="  300.000">  1  4  2 -1</clus>
</clustering>
</event>
<event>
 6    1  0.1033679E-011  0.3000000E+03  0.7818608E-02  0.1093470E+00
          1   -1    0    0  502    0  0.00000000000E+00  0.00000000000E+00  0.23185999935E+03  0.23185999935E+03  0.00000000000E+00 0.  1.
         13   -1    0    0    0    0 -0.00000000000E+00 -0.00000000000E+00 -0.27500000000E+03  0.27500000000E+03  0.00000000000E+00 0.  1.
    9000005    2    1    2  501    0  0.31624171779E+02 -0.18187341197E+02 -0.64292317154E+02  0.46469024580E+03  0.45877298839E+03 0.  0.
         13    1    3    3    0    0 -0.18834170962E+03 -0.28161042021E+02  0.74407356118E+02  0.20445561503E+03  0.00000000000E+00 0.  1.
          3    1    3    3  501    0  0.21996588140E+03  0.99737008248E+01 -0.13869967327E+03  0.26023463078E+03  0.00000000000E+00 0.  1.
         21    1    1    2  502  501 -0.31624171779E+02  0.18187341197E+02  0.21152316502E+02  0.42169753543E+02  0.00000000000E+00 0.  1.
<scales pt_clust_4="550.00000" pt_clust_5="550.00000" pt_clust_6="36.48106"></scales>
<mgrwt>
<rscale>  0 0.30000000E+03</rscale>
<asrwt>  1 0.36481058E+02</asrwt>
<pdfrwt beam="1">  1        1 0.84312727E+00 0.30000000E+03</pdfrwt>
<pdfrwt beam="2">0</pdfrwt>
<totfact> 0.46527701E-04</totfact>
</mgrwt>
<clustering>
<clus scale="   36.481">  1  6  2 -1</clus>
<clus scale="  458.773">  4  5 -1 -1</clus>
<clus scale="  300.000">  1  4  2 -1</clus>
</clustering>
</event>
<event>
 6    1  0.1033679E-011  0.3000000E+03  0.7818608E-02  0.1093470E+00
          1   -1    0    0  502    0  0.00000000000E+00  0.00000000000E+00  0.23659709181E+03  0.23659709181E+03  0.00000000000E+00 0.  1.
         13   -1    0    0    0    0 -0.00000000000E+00 -0.00000000000E+00 -0.27500000000E+03  0.27500000000E+03  0.00000000000E+00 0.  1.
    9000005    2    1    2  501    0 -0.84484603512E+01  0.29591869609E+02 -0.54556456532E+02  0.47684090742E+03  0.47270898956E+03 0.  0.
         13    1    3    3    0    0 -0.38247868063E+02 -0.20277968340E+03 -0.11316265506E+03  0.23534716040E+03  0.00000000000E+00 0.  1.
          1    1    3    3  501    0  0.29799407712E+02  0.23237155300E+03  0.58606198524E+02  0.24149374702E+03  0.00000000000E+00 0.  1.
         21    1    1    2  502  501  0.84484603512E+01 -0.29591869609E+02  0.16153548346E+02  0.34756184391E+02  0.00000000000E+00 0.  1.
<scales pt_clust_4="550.00000" pt_clust_5="550.00000" pt_clust_6="30.77426"></scales>
<mgrwt>
<rscale>  0 0.30000000E+03</rscale>
<asrwt>  1 0.30774262E+02</asrwt>
<pdfrwt beam="1">  1        1 0.86035306E+00 0.30000000E+03</pdfrwt>
<pdfrwt beam="2">0</pdfrwt>
<totfact> 0.32857261E-04</totfact>
</mgrwt>
<clustering>
<clus scale="   30.774">  1  6  2 -1</clus>
<clus scale="  472.709">  4  5 -1 -1</clus>
<clus scale="  300.000">  1  4  2 -1</clus>
</clustering>
</event>
<event>
 6    1  0.1033679E-011  0.3000000E+03  0.7818608E-02  0.1093470E+00
          1   -1    0    0  502    0  0.00000000000E+00  0.00000000000E+00  0.23729120982E+03  0.23729120982E+03  0.00000000000E+00 0.  1.
         13   -1    0    0    0    0 -0.00000000000E+00 -0.00000000000E+00 -0.27500000000E+03  0.27500000000E+03  0.00000000000E+00 0.  1.
    9000005    2    1    2  501    0  0.30149904463E+02 -0.14270056316E+02 -0.38227781684E+02  0.47893074522E+03  0.47623591231E+03 0.  0.
         13    1    3    3    0    0  0.43259095904E+02  0.19370448239E+03 -0.14402380721E+03  0.24522567752E+03  0.00000000000E+00 0.  1.
          3    1    3    3  501    0 -0.13109191440E+02 -0.20797453870E+03  0.10579602552E+03  0.23370506769E+03  0.00000000000E+00 0.  1.
         21    1    1    2  502  501 -0.30149904463E+02  0.14270056316E+02  0.51899150535E+00  0.33360464604E+02  0.00000000000E+00 0.  1.
<scales pt_clust_4="550.00000" pt_clust_5="550.00000" pt_clust_6="33.35643"></scales>
<mgrwt>
<rscale>  0 0.30000000E+03</rscale>
<asrwt>  1 0.33356427E+02</asrwt>
<pdfrwt beam="1">  1        1 0.86287713E+00 0.30000000E+03</pdfrwt>
<pdfrwt beam="2">0</pdfrwt>
<totfact> 0.30393060E-04</totfact>
</mgrwt>
<clustering>
<clus scale="   33.356">  1  6  2 -1</clus>
<clus scale="  476.236">  4  5 -1 -1</clus>
<clus scale="  300.000">  1  4  2 -1</clus>
</clustering>
</event>
<event>
 6    1  0.1033679E-011  0.3000000E+03  0.7818608E-02  0.1093470E+00
          1   -1    0    0  502    0  0.00000000000E+00  0.00000000000E+00  0.24432130876E+03  0.24432130876E+03  0.00000000000E+00 0.  1.
         13   -1    0    0    0    0 -0.00000000000E+00 -0.00000000000E+00 -0.27500000000E+03  0.27500000000E+03  0.00000000000E+00 0.  1.
    9000005    2    1    2  501    0 -0.31115811982E+02 -0.13311045084E+02 -0.48287089456E+02  0.48117116637E+03  0.47754441748E+03 0.  0.
         13    1    3    3    0    0  0.12116195894E+03  0.17068942046E+03  0.61697371579E+02  0.21822388552E+03  0.00000000000E+00 0.  1.
          3    1    3    3  501    0 -0.15227777092E+03 -0.18400046555E+03 -0.10998446103E+03  0.26294728085E+03  0.00000000000E+00 0.  1.
         21    1    1    2  502  501  0.31115811982E+02  0.13311045084E+02  0.17608398220E+02  0.38150142391E+02  0.00000000000E+00 0.  1.
<scales pt_clust_4="550.00000" pt_clust_5="550.00000" pt_clust_6="33.84343"></scales>
<mgrwt>
<rscale>  0 0.30000000E+03</rscale>
<asrwt>  1 0.33843429E+02</asrwt>
<pdfrwt beam="1">  1        1 0.88844112E+00 0.30000000E+03</pdfrwt>
<pdfrwt beam="2">0</pdfrwt>
<totfact> 0.15312328E-04</totfact>
</mgrwt>
<clustering>
<clus scale="   33.843">  1  6  2 -1</clus>
<clus scale="  477.544">  4  5 -1 -1</clus>
<clus scale="  300.000">  1  4  2 -1</clus>
</clustering>
</event>
<event>
 6    1  0.1033679E-011  0.3000000E+03  0.7818608E-02  0.1093470E+00
          1   -1    0    0  502    0  0.00000000000E+00  0.00000000000E+00  0.23092323798E+03  0.23092323798E+03  0.00000000000E+00 0.  1.
         13   -1    0    0    0    0 -0.00000000000E+00 -0.00000000000E+00 -0.27500000000E+03  0.27500000000E+03  0.00000000000E+00 0.  1.
    9000005    2    1    2  501    0 -0.35230615323E+02  0.66147989111E+01 -0.59535744823E+02  0.46688566672E+03  0.46168470741E+03 0.  0.
         13    1    3    3    0    0  0.11947472117E+03  0.96559305095E+02  0.13360279964E+03  0.20358687696E+03  0.00000000000E+00 0.  1.
          3    1    3    3  501    0 -0.15470533650E+03 -0.89944506184E+02 -0.19313854446E+03  0.26329878976E+03  0.00000000000E+00 0.  1.
         21    1    1    2  502  501  0.35230615323E+02 -0.66147989111E+01  0.15458982805E+02  0.39037571262E+02  0.00000000000E+00 0.  1.
<scales pt_clust_4="550.00000" pt_clust_5="550.00000" pt_clust_6="35.84622"></scales>
<mgrwt>
<rscale>  0 0.30000000E+03</rscale>
<asrwt>  1 0.35846225E+02</asrwt>
<pdfrwt beam="1">  1        1 0.83972087E+00 0.30000000E+03</pdfrwt>
<pdfrwt beam="2">0</pdfrwt>
<totfact> 0.49726769E-04</totfact>
</mgrwt>
<clustering>
<clus scale="   35.846">  1  6  2 -1</clus>
<clus scale="  461.685">  4  5 -1 -1</clus>
<clus scale="  300.000">  1  4  2 -1</clus>
</clustering>
</event>
<event>
 6    1  0.1033679E-011  0.3000000E+03  0.7818608E-02  0.1093470E+00
          1   -1    0    0  502    0  0.00000000000E+00  0.00000000000E+00  0.23079730343E+03  0.23079730343E+03  0.00000000000E+00 0.  1.
         13   -1    0    0    0    0 -0.00000000000E+00 -0.00000000000E+00 -0.27500000000E+03  0.27500000000E+03  0.00000000000E+00 0.  1.
    9000005    2    1    2  501    0 -0.62274320553E+01 -0.31554934769E+02 -0.63260081396E+02  0.46841176164E+03  0.46300458500E+03 0.  0.
         13    1    3    3    0    0 -0.37035867373E+02 -0.24488458415E+03 -0.48424827867E+02  0.25235902794E+03  0.00000000000E+00 0.  1.
          3    1    3    3  501    0  0.30808435318E+02  0.21332964939E+03 -0.14835253529E+02  0.21605273370E+03  0.00000000000E+00 0.  1.
         21    1    1    2  502  501  0.62274320553E+01  0.31554934769E+02  0.19057384826E+02  0.37385541786E+02  0.00000000000E+00 0.  1.
<scales pt_clust_4="550.00000" pt_clust_5="550.00000" pt_clust_6="32.16356"></scales>
<mgrwt>
<rscale>  0 0.30000000E+03</rscale>
<asrwt>  1 0.32163564E+02</asrwt>
<pdfrwt beam="1">  1        1 0.83926292E+00 0.30000000E+03</pdfrwt>
<pdfrwt beam="2">0</pdfrwt>
<totfact> 0.51157379E-04</totfact>
</mgrwt>
<clustering>
<clus scale="   32.164">  1  6  2 -1</clus>
<clus scale="  463.005">  4  5 -1 -1</clus>
<clus scale="  300.000">  1  4  2 -1</clus>
</clustering>
</event>
<event>
 6    1  0.1033679E-011  0.3000000E+03  0.7818608E-02  0.1093470E+00
          1   -1    0    0  502    0  0.00000000000E+00  0.00000000000E+00  0.23320639791E+03  0.23320639791E+03  0.00000000000E+00 0.  1.
         13   -1    0    0    0    0 -0.00000000000E+00 -0.00000000000E+00 -0.27500000000E+03  0.27500000000E+03  0.00000000000E+00 0.  1.
    9000005    2    1    2  501    0 -0.51799372391E+01  0.37224317754E+02 -0.65342999574E+02  0.46385489620E+03  0.45768895066E+03 0.  0.
         13    1    3    3    0    0  0.77466629943E+01  0.87250086195E+02 -0.25377536958E+03  0.26846699338E+03  0.00000000000E+00 0.  1.
          3    1    3    3  501    0 -0.12926600233E+02 -0.50025768442E+02  0.18843237001E+03  0.19538790282E+03  0.00000000000E+00 0.  1.
         21    1    1    2  502  501  0.51799372391E+01 -0.37224317754E+02  0.23549397481E+02  0.44351501708E+02  0.00000000000E+00 0. -1.
<scales pt_clust_4="550.00000" pt_clust_5="550.00000" pt_clust_6="37.58300"></scales>
<mgrwt>
<rscale>  0 0.30000000E+03</rscale>
<asrwt>  1 0.37582996E+02</asrwt>
<pdfrwt beam="1">  1        1 0.84802327E+00 0.30000000E+03</pdfrwt>
<pdfrwt beam="2">0</pdfrwt>
<totfact> 0.41894776E-04</totfact>
</mgrwt>
<clustering>
<clus scale="   37.583">  1  6  2 -1</clus>
<clus scale="  457.689">  4  5 -1 -1</clus>
<clus scale="  300.000">  1  4  2 -1</clus>
</clustering>
</event>
<event>
 6    1  0.1033679E-011  0.3000000E+03  0.7818608E-02  0.1093470E+00
          1   -1    0    0  502    0  0.00000000000E+00  0.00000000000E+00  0.24662493118E+03  0.24662493118E+03  0.00000000000E+00 0.  1.
         13   -1    0    0    0    0 -0.00000000000E+00 -0.00000000000E+00 -0.27500000000E+03  0.27500000000E+03  0.00000000000E+00 0.  1.
    9000005    2    1    2  501    0  0.28676235909E+02 -0.29668805643E+02 -0.55619661893E+02  0.47217968484E+03  0.46707338123E+03 0.  0.
         13    1    3    3    0    0  0.19667269155E+03  0.12186662574E+03  0.23365144520E+02  0.23254580635E+03  0.00000000000E+00 0.  1.
          3    1    3    3  501    0 -0.16799645565E+03 -0.15153543139E+03 -0.78984806413E+02  0.23963387849E+03  0.00000000000E+00 0.  1.
         21    1    1    2  502  501 -0.28676235909E+02  0.29668805643E+02  0.27244593074E+02  0.49445246343E+02  0.00000000000E+00 0.  1.
<scales pt_clust_4="550.00000" pt_clust_5="550.00000" pt_clust_6="41.26214"></scales>
<mgrwt>
<rscale>  0 0.30000000E+03</rscale>
<asrwt>  1 0.41262144E+02</asrwt>
<pdfrwt beam="1">  1        1 0.89681793E+00 0.30000000E+03</pdfrwt>
<pdfrwt beam="2">0</pdfrwt>
<totfact> 0.11674177E-04</totfact>
</mgrwt>
<clustering>
<clus scale="   41.262">  1  6  2 -1</clus>
<clus scale="  467.073">  4  5 -1 -1</clus>
<clus scale="  300.000">  1  4  2 -1</clus>
</clustering>
</event>
<event>
 6    1  0.1033679E-011  0.3000000E+03  0.7818608E-02  0.1093470E+00
          1   -1    0    0  502    0  0.00000000000E+00  0.00000000000E+00  0.23035711459E+03  0.23035711459E+03  0.00000000000E+00 0.  1.
         13   -1    0    0    0    0 -0.00000000000E+00 -0.00000000000E+00 -0.27500000000E+03  0.27500000000E+03  0.00000000000E+00 0.  1.
    9000005    2    1    2  501    0  0.18579314033E+02 -0.26203206815E+02 -0.66264114799E+02  0.46663662237E+03  0.46078954575E+03 0.  0.
         13    1    3    3    0    0 -0.18573836551E+03 -0.13121668567E+03  0.47625850347E+00  0.22741324905E+03  0.00000000000E+00 0.  1.
          3    1    3    3  501    0  0.20431767955E+03  0.10501347885E+03 -0.66740373303E+02  0.23922337332E+03  0.00000000000E+00 0.  1.
         21    1    1    2  502  501 -0.18579314033E+02  0.26203206815E+02  0.21621229390E+02  0.38720492219E+02  0.00000000000E+00 0. -1.
<scales pt_clust_4="550.00000" pt_clust_5="550.00000" pt_clust_6="32.12163"></scales>
<mgrwt>
<rscale>  0 0.30000000E+03</rscale>
<asrwt>  1 0.32121628E+02</asrwt>
<pdfrwt beam="1">  1        1 0.83766223E+00 0.30000000E+03</pdfrwt>
<pdfrwt beam="2">0</pdfrwt>
<totfact> 0.52584835E-04</totfact>
</mgrwt>
<clustering>
<clus scale="   32.122">  1  6  2 -1</clus>
<clus scale="  460.790">  4  5 -1 -1</clus>
<clus scale="  300.000">  1  4  2 -1</clus>
</clustering>
</event>
<event>
 6    1  0.1033679E-011  0.3000000E+03  0.7818608E-02  0.1093470E+00
          1   -1    0    0  502    0  0.00000000000E+00  0.00000000000E+00  0.22542485211E+03  0.22542485211E+03  0.00000000000E+00 0.  1.
         13   -1    0    0    0    0 -0.00000000000E+00 -0.00000000000E+00 -0.27500000000E+03  0.27500000000E+03  0.00000000000E+00 0.  1.
    9000005    2    1    2  501    0 -0.29235363400E+02 -0.68428087307E+01 -0.58720153936E+02  0.46903756742E+03  0.46437770475E+03 0.  0.
         13    1    3    3    0    0  0.17419425640E+03  0.18791561738E+02 -0.16273738394E+03  0.23912385470E+03  0.00000000000E+00 0.  1.
          1    1    3    3  501    0 -0.20342961980E+03 -0.25634370468E+02  0.10401723001E+03  0.22991371272E+03  0.00000000000E+00 0.  1.
         21    1    1    2  502  501  0.29235363400E+02  0.68428087307E+01  0.91450060440E+01  0.31387284687E+02  0.00000000000E+00 0.  1.
<scales pt_clust_4="550.00000" pt_clust_5="550.00000" pt_clust_6="30.02550"></scales>
<mgrwt>
<rscale>  0 0.30000000E+03</rscale>
<asrwt>  1 0.30025498E+02</asrwt>
<pdfrwt beam="1">  1        1 0.81972673E+00 0.30000000E+03</pdfrwt>
<pdfrwt beam="2">0</pdfrwt>
<totfact> 0.74870130E-04</totfact>
</mgrwt>
<clustering>
<clus scale="   30.025">  1  6  2 -1</clus>
<clus scale="  464.378">  4  5 -1 -1</clus>
<clus scale="  300.000">  1  4  2 -1</clus>
</clustering>
</event>
<event>
 6    1  0.1033679E-011  0.3000000E+03  0.7818608E-02  0.1093470E+00
          1   -1    0    0  502    0  0.00000000000E+00  0.00000000000E+00  0.22317037962E+03  0.22317037962E+03  0.00000000000E+00 0.  1.
         13   -1    0    0    0    0 -0.00000000000E+00 -0.00000000000E+00 -0.27500000000E+03  0.27500000000E+03  0.00000000000E+00 0.  1.
    9000005    2    1    2  501    0 -0.31459236507E+02 -0.64594742094E+01 -0.52680336868E+02  0.46604356703E+03  0.46194153321E+03 0.  0.
         13    1    3    3    0    0 -0.19976380678E+03 -0.13837493077E+03 -0.65925840429E+02  0.25179240736E+03  0.00000000000E+00 0.  1.
          3    1    3    3  501    0  0.16830457028E+03  0.13191545656E+03  0.13245503560E+02  0.21425115967E+03  0.00000000000E+00 0.  1.
         21    1    1    2  502  501  0.31459236507E+02  0.64594742094E+01  0.85071648686E+00  0.32126812590E+02  0.00000000000E+00 0. -1.
<scales pt_clust_4="550.00000" pt_clust_5="550.00000" pt_clust_6="32.11555"></scales>
<mgrwt>
<rscale>  0 0.30000000E+03</rscale>
<asrwt>  1 0.32115547E+02</asrwt>
<pdfrwt beam="1">  1        1 0.81152865E+00 0.30000000E+03</pdfrwt>
<pdfrwt beam="2">0</pdfrwt>
<totfact> 0.86229354E-04</totfact>
</mgrwt>
<clustering>
<clus scale="   32.116">  1  6  2 -1</clus>
<clus scale="  461.942">  4  5 -1 -1</clus>
<clus scale="  300.000">  1  4  2 -1</clus>
</clustering>
</event>
<event>
 6    1  0.1033679E-011  0.3000000E+03  0.7818608E-02  0.1093470E+00
          1   -1    0    0  502    0  0.00000000000E+00  0.00000000000E+00  0.22360663347E+03  0.22360663347E+03  0.00000000000E+00 0.  1.
         13   -1    0    0    0    0 -0.00000000000E+00 -0.00000000000E+00 -0.27500000000E+03  0.27500000000E+03  0.00000000000E+00 0.  1.
    9000005    2    1    2  501    0  0.31129119739E+02 -0.49497637641E+01 -0.43103367866E+02  0.46601451272E+03  0.46294503290E+03 0.  0.
         13    1    3    3    0    0 -0.10593108291E+03  0.25856097289E+02  0.17523298842E+03  0.20638927376E+03  0.00000000000E+00 0.  1.
          1    1    3    3  501    0  0.13706020265E+03 -0.30805861053E+02 -0.21833635629E+03  0.25962523895E+03  0.00000000000E+00 0.  1.
         21    1    1    2  502  501 -0.31129119739E+02  0.49497637641E+01 -0.82899986662E+01  0.32592120749E+02  0.00000000000E+00 0.  1.
<scales pt_clust_4="550.00000" pt_clust_5="550.00000" pt_clust_6="31.52020"></scales>
<mgrwt>
<rscale>  0 0.30000000E+03</rscale>
<asrwt>  1 0.31520204E+02</asrwt>
<pdfrwt beam="1">  1        1 0.81311503E+00 0.30000000E+03</pdfrwt>
<pdfrwt beam="2">0</pdfrwt>
<totfact> 0.84070621E-04</totfact>
</mgrwt>
<clustering>
<clus scale="   31.520">  1  6  2 -1</clus>
<clus scale="  462.945">  4  5 -1 -1</clus>
<clus scale="  300.000">  1  4  2 -1</clus>
</clustering>
</event>
<event>
 6    1  0.1033679E-011  0.3000000E+03  0.7818608E-02  0.1093470E+00
          1   -1    0    0  502    0  0.00000000000E+00  0.00000000000E+00  0.21971207487E+03  0.21971207487E+03  0.00000000000E+00 0.  1.
         13   -1    0    0    0    0 -0.00000000000E+00 -0.00000000000E+00 -0.27500000000E+03  0.27500000000E+03  0.00000000000E+00 0.  1.
    9000005    2    1    2  501    0 -0.26594047015E+02  0.14270677331E+02 -0.61264074452E+02  0.46394504822E+03  0.45889086435E+03 0.  0.
         13    1    3    3    0    0 -0.68438921223E+02 -0.15506923654E+02  0.19257516993E+03  0.20496230554E+03  0.00000000000E+00 0.  1.
          1    1    3    3  501    0  0.41844874208E+02  0.29777600984E+02 -0.25383924438E+03  0.25898274268E+03  0.00000000000E+00 0.  1.
         21    1    1    2  502  501  0.26594047015E+02 -0.14270677331E+02  0.59761493214E+01  0.30767026649E+02  0.00000000000E+00 0. -1.
<scales pt_clust_4="550.00000" pt_clust_5="550.00000" pt_clust_6="30.18105"></scales>
<mgrwt>
<rscale>  0 0.30000000E+03</rscale>
<asrwt>  1 0.30181047E+02</asrwt>
<pdfrwt beam="1">  1        1 0.79895300E+00 0.30000000E+03</pdfrwt>
<pdfrwt beam="2">0</pdfrwt>
<totfact> 0.10853386E-03</totfact>
</mgrwt>
<clustering>
<clus scale="   30.181">  1  6  2 -1</clus>
<clus scale="  458.891">  4  5 -1 -1</clus>
<clus scale="  300.000">  1  4  2 -1</clus>
</clustering>
</event>
<event>
 6    1  0.1033679E-011  0.3000000E+03  0.7818608E-02  0.1093470E+00
          1   -1    0    0  502    0  0.00000000000E+00  0.00000000000E+00  0.25607447711E+03  0.25607447711E+03  0.00000000000E+00 0.  1.
         13   -1    0    0    0    0 -0.00000000000E+00 -0.00000000000E+00 -0.27500000000E+03  0.27500000000E+03  0.00000000000E+00 0.  1.
    9000005    2    1    2  501    0 -0.46637519457E+02 -0.85118858731E+01 -0.57864531867E+02  0.46972501222E+03  0.46373028005E+03 0.  0.
         13    1    3    3    0    0 -0.20269355244E+03 -0.37971015900E+01  0.11798949906E+03  0.23456473748E+03  0.00000000000E+00 0.  1.
          3    1    3    3  501    0  0.15605603298E+03 -0.47147842831E+01 -0.17585403093E+03  0.23516027474E+03  0.00000000000E+00 0.  1.
         21    1    1    2  502  501  0.46637519457E+02  0.85118858731E+01  0.38939008976E+02  0.61349464890E+02  0.00000000000E+00 0.  1.
<scales pt_clust_4="550.00000" pt_clust_5="550.00000" pt_clust_6="47.40792"></scales>
<mgrwt>
<rscale>  0 0.30000000E+03</rscale>
<asrwt>  1 0.47407915E+02</asrwt>
<pdfrwt beam="1">  1        1 0.93117992E+00 0.30000000E+03</pdfrwt>
<pdfrwt beam="2">0</pdfrwt>
<totfact> 0.23876951E-05</totfact>
</mgrwt>
<clustering>
<clus scale="   47.408">  1  6  2 -1</clus>
<clus scale="  463.730">  4  5 -1 -1</clus>
<clus scale="  300.000">  1  4  2 -1</clus>
</clustering>
</event>
<event>
 6    1  0.1033679E-011  0.3000000E+03  0.7818608E-02  0.1093470E+00
          1   -1    0    0  502    0  0.00000000000E+00  0.00000000000E+00  0.23886498176E+03  0.23886498176E+03  0.00000000000E+00 0.  1.
         13   -1    0    0    0    0 -0.00000000000E+00 -0.00000000000E+00 -0.27500000000E+03  0.27500000000E+03  0.00000000000E+00 0.  1.
    9000005    2    1    2  501    0  0.28084402723E+02  0.17516314421E+02 -0.63842045145E+02  0.47069978412E+03  0.46517408042E+03 0.  0.
         13    1    3    3    0    0  0.66546776740E+02 -0.21258799746E+03  0.17946082481E+02  0.22348197250E+03  0.00000000000E+00 0.  1.
          3    1    3    3  501    0 -0.38462374018E+02  0.23010431188E+03 -0.81788127626E+02  0.24721781162E+03  0.00000000000E+00 0.  1.
         21    1    1    2  502  501 -0.28084402723E+02 -0.17516314421E+02  0.27707026906E+02  0.43165197639E+02  0.00000000000E+00 0.  1.
<scales pt_clust_4="550.00000" pt_clust_5="550.00000" pt_clust_6="33.09917"></scales>
<mgrwt>
<rscale>  0 0.30000000E+03</rscale>
<asrwt>  1 0.33099168E+02</asrwt>
<pdfrwt beam="1">  1        1 0.86859993E+00 0.30000000E+03</pdfrwt>
<pdfrwt beam="2">0</pdfrwt>
<totfact> 0.26453894E-04</totfact>
</mgrwt>
<clustering>
<clus scale="   33.099">  1  6  2 -1</clus>
<clus scale="  465.174">  4  5 -1 -1</clus>
<clus scale="  300.000">  1  4  2 -1</clus>
</clustering>
</event>
<event>
 6    1  0.1033679E-011  0.3000000E+03  0.7818608E-02  0.1093470E+00
          1   -1    0    0  502    0  0.00000000000E+00  0.00000000000E+00  0.25349799117E+03  0.25349799117E+03  0.00000000000E+00 0.  1.
         13   -1    0    0    0    0 -0.00000000000E+00 -0.00000000000E+00 -0.27500000000E+03  0.27500000000E+03  0.00000000000E+00 0.  1.
    9000005    2    1    2  501    0  0.12734596971E+02  0.32599665434E+02 -0.39942687051E+02  0.48893833041E+03  0.48604564039E+03 0.  0.
         13    1    3    3    0    0 -0.33100613271E+01  0.13354247495E+03  0.19290689493E+03  0.23464360045E+03  0.00000000000E+00 0.  1.
          3    1    3    3  501    0  0.16044658298E+02 -0.10094280952E+03 -0.23284958198E+03  0.25429472995E+03  0.00000000000E+00 0.  1.
         21    1    1    2  502  501 -0.12734596971E+02 -0.32599665434E+02  0.18440678221E+02  0.39559660763E+02  0.00000000000E+00 0.  1.
<scales pt_clust_4="550.00000" pt_clust_5="550.00000" pt_clust_6="34.99869"></scales>
<mgrwt>
<rscale>  0 0.30000000E+03</rscale>
<asrwt>  1 0.34998688E+02</asrwt>
<pdfrwt beam="1">  1        1 0.92181088E+00 0.30000000E+03</pdfrwt>
<pdfrwt beam="2">0</pdfrwt>
<totfact> 0.38224953E-05</totfact>
</mgrwt>
<clustering>
<clus scale="   34.999">  1  6  2 -1</clus>
<clus scale="  486.046">  4  5 -1 -1</clus>
<clus scale="  300.000">  1  4  2 -1</clus>
</clustering>
</event>
<event>
 6    1  0.1033679E-011  0.3000000E+03  0.7818608E-02  0.1093470E+00
          1   -1    0    0  502    0  0.00000000000E+00  0.00000000000E+00  0.24674135116E+03  0.24674135116E+03  0.00000000000E+00 0.  1.
         13   -1    0    0    0    0 -0.00000000000E+00 -0.00000000000E+00 -0.27500000000E+03  0.27500000000E+03  0.00000000000E+00 0.  1.
    9000005    2    1    2  501    0  0.58422577750E+01  0.36503277681E+02 -0.30843151723E+02  0.48468327630E+03  0.48228617756E+03 0.  0.
         13    1    3    3    0    0 -0.13888246551E+03 -0.16816655122E+03 -0.74025871219E+02  0.23032185694E+03  0.00000000000E+00 0.  1.
          1    1    3    3  501    0  0.14472472329E+03  0.20466982890E+03  0.43182719497E+02  0.25436141936E+03  0.00000000000E+00 0.  1.
         21    1    1    2  502  501 -0.58422577750E+01 -0.36503277681E+02  0.25845028868E+01  0.37058074863E+02  0.00000000000E+00 0.  1.
<scales pt_clust_4="550.00000" pt_clust_5="550.00000" pt_clust_6="36.96784"></scales>
<mgrwt>
<rscale>  0 0.30000000E+03</rscale>
<asrwt>  1 0.36967841E+02</asrwt>
<pdfrwt beam="1">  1        1 0.89724128E+00 0.30000000E+03</pdfrwt>
<pdfrwt beam="2">0</pdfrwt>
<totfact> 0.11782047E-04</totfact>
</mgrwt>
<clustering>
<clus scale="   36.968">  1  6  2 -1</clus>
<clus scale="  482.286">  4  5 -1 -1</clus>
<clus scale="  300.000">  1  4  2 -1</clus>
</clustering>
</event>
<event>
 6    1  0.1033679E-011  0.3000000E+03  0.7818608E-02  0.1093470E+00
          1   -1    0    0  502    0  0.00000000000E+00  0.00000000000E+00  0.23427244222E+03  0.23427244222E+03  0.00000000000E+00 0.  1.
         13   -1    0    0    0    0 -0.00000000000E+00 -0.00000000000E+00 -0.27500000000E+03  0.27500000000E+03  0.00000000000E+00 0.  1.
    9000005    2    1    2  501    0  0.29670508826E+02  0.22066204783E+02 -0.60663557316E+02  0.46726410299E+03  0.46183159081E+03 0.  0.
         13    1    3    3    0    0  0.11787997127E+03  0.79567747938E+02  0.16524586772E+03  0.21802043697E+03  0.00000000000E+00 0.  1.
          1    1    3    3  501    0 -0.88209462442E+02 -0.57501543155E+02 -0.22590942504E+03  0.24924366602E+03  0.00000000000E+00 0.  1.
         21    1    1    2  502  501 -0.29670508826E+02 -0.22066204783E+02  0.19935999533E+02  0.42008339230E+02  0.00000000000E+00 0. -1.
<scales pt_clust_4="550.00000" pt_clust_5="550.00000" pt_clust_6="36.97643"></scales>
<mgrwt>
<rscale>  0 0.30000000E+03</rscale>
<asrwt>  1 0.36976432E+02</asrwt>
<pdfrwt beam="1">  1        1 0.85189979E+00 0.30000000E+03</pdfrwt>
<pdfrwt beam="2">0</pdfrwt>
<totfact> 0.38648657E-04</totfact>
</mgrwt>
<clustering>
<clus scale="   36.976">  1  6  2 -1</clus>
<clus scale="  461.832">  4  5 -1 -1</clus>
<clus scale="  300.000">  1  4  2 -1</clus>
</clustering>
</event>
<event>
 6    1  0.1033679E-011  0.3000000E+03  0.7818608E-02  0.1093470E+00
          1   -1    0    0  502    0  0.00000000000E+00  0.00000000000E+00  0.24237584078E+03  0.24237584078E+03  0.00000000000E+00 0.  1.
         13   -1    0    0    0    0 -0.00000000000E+00 -0.00000000000E+00 -0.27500000000E+03  0.27500000000E+03  0.00000000000E+00 0.  1.
    9000005    2    1    2  501    0  0.41375690509E+02  0.81975934358E+01 -0.46441488663E+02  0.47299040515E+03  0.46881122341E+03 0.  0.
         13    1    3    3    0    0  0.19032863709E+03 -0.14017390567E+02  0.13753179604E+03  0.23523705545E+03  0.00000000000E+00 0.  1.
          1    1    3    3  501    0 -0.14895294658E+03  0.22214984003E+02 -0.18397328470E+03  0.23775334970E+03  0.00000000000E+00 0.  1.
         21    1    1    2  502  501 -0.41375690509E+02 -0.81975934358E+01  0.13817329447E+02  0.44385435633E+02  0.00000000000E+00 0.  1.
<scales pt_clust_4="550.00000" pt_clust_5="550.00000" pt_clust_6="42.17995"></scales>
<mgrwt>
<rscale>  0 0.30000000E+03</rscale>
<asrwt>  1 0.42179951E+02</asrwt>
<pdfrwt beam="1">  1        1 0.88136669E+00 0.30000000E+03</pdfrwt>
<pdfrwt beam="2">0</pdfrwt>
<totfact> 0.18331891E-04</totfact>
</mgrwt>
<clustering>
<clus scale="   42.180">  1  6  2 -1</clus>
<clus scale="  468.811">  4  5 -1 -1</clus>
<clus scale="  300.000">  1  4  2 -1</clus>
</clustering>
</event>
<event>
 6    1  0.1033679E-011  0.3000000E+03  0.7818608E-02  0.1093470E+00
          1   -1    0    0  502    0  0.00000000000E+00  0.00000000000E+00  0.25841278188E+03  0.25841278188E+03  0.00000000000E+00 0.  1.
         13   -1    0    0    0    0 -0.00000000000E+00 -0.00000000000E+00 -0.27500000000E+03  0.27500000000E+03  0.00000000000E+00 0.  1.
    9000005    2    1    2  501    0  0.65001882584E+01  0.39533565573E+02 -0.53854006214E+02  0.47869561137E+03  0.47396632697E+03 0.  0.
         13    1    3    3    0    0 -0.21220917594E+03  0.11227457914E+03 -0.62372044666E+02  0.24804956648E+03  0.00000000000E+00 0.  1.
          1    1    3    3  501    0  0.21870936420E+03 -0.72741013572E+02  0.85180384525E+01  0.23064604489E+03  0.00000000000E+00 0.  1.
         21    1    1    2  502  501 -0.65001882584E+01 -0.39533565573E+02  0.37266788092E+02  0.54717170513E+02  0.00000000000E+00 0. -1.
<scales pt_clust_4="550.00000" pt_clust_5="550.00000" pt_clust_6="40.06439"></scales>
<mgrwt>
<rscale>  0 0.30000000E+03</rscale>
<asrwt>  1 0.40064389E+02</asrwt>
<pdfrwt beam="1">  1        1 0.93968284E+00 0.30000000E+03</pdfrwt>
<pdfrwt beam="2">0</pdfrwt>
<totfact> 0.18915614E-05</totfact>
</mgrwt>
<clustering>
<clus scale="   40.064">  1  6  2 -1</clus>
<clus scale="  473.966">  4  5 -1 -1</clus>
<clus scale="  300.000">  1  4  2 -1</clus>
</clustering>
</event>
<event>
 6    1  0.1033679E-011  0.3000000E+03  0.7818608E-02  0.1093470E+00
          1   -1    0    0  502    0  0.00000000000E+00  0.00000000000E+00  0.25140367085E+03  0.25140367085E+03  0.00000000000E+00 0.  1.
         13   -1    0    0    0    0 -0.00000000000E+00 -0.00000000000E+00 -0.27500000000E+03  0.27500000000E+03  0.00000000000E+00 0.  1.
    9000005    2    1    2  501    0  0.30971525067E+02 -0.33193242530E+02  0.91270223482E+01  0.47044078629E+03  0.46815617496E+03 0.  0.
         13    1    3    3    0    0  0.52432267618E+02 -0.22332293991E+03 -0.99918449218E+02  0.25021185957E+03  0.00000000000E+00 0.  1.
          1    1    3    3  501    0 -0.21460742551E+02  0.19012969738E+03  0.10904547157E+03  0.22022892672E+03  0.00000000000E+00 0.  1.
         21    1    1    2  502  501 -0.30971525067E+02  0.33193242530E+02 -0.32723351501E+02  0.55962884558E+02  0.00000000000E+00 0.  1.
<scales pt_clust_4="550.00000" pt_clust_5="550.00000" pt_clust_6="45.39855"></scales>
<mgrwt>
<rscale>  0 0.30000000E+03</rscale>
<asrwt>  1 0.45398555E+02</asrwt>
<pdfrwt beam="1">  1        1 0.91419517E+00 0.30000000E+03</pdfrwt>
<pdfrwt beam="2">0</pdfrwt>
<totfact> 0.53944337E-05</totfact>
</mgrwt>
<clustering>
<clus scale="   45.399">  1  6  2 -1</clus>
<clus scale="  468.156">  4  5 -1 -1</clus>
<clus scale="  300.000">  1  4  2 -1</clus>
</clustering>
</event>
<event>
 6    1  0.1033679E-011  0.3000000E+03  0.7818608E-02  0.1093470E+00
          1   -1    0    0  502    0  0.00000000000E+00  0.00000000000E+00  0.24742594379E+03  0.24742594379E+03  0.00000000000E+00 0.  1.
         13   -1    0    0    0    0 -0.00000000000E+00 -0.00000000000E+00 -0.27500000000E+03  0.27500000000E+03  0.00000000000E+00 0.  1.
    9000005    2    1    2  501    0 -0.19662893839E+02  0.37638591642E+02 -0.25461826228E+02  0.47990824759E+03  0.47734717820E+03 0.  0.
         13    1    3    3    0    0 -0.11173054078E+03  0.18694060733E+03 -0.15029894635E+03  0.26461344955E+03  0.00000000000E+00 0.  1.
          3    1    3    3  501    0  0.92067646939E+02 -0.14930201569E+03  0.12483712012E+03  0.21529479804E+03  0.00000000000E+00 0.  1.
         21    1    1    2  502  501  0.19662893839E+02 -0.37638591642E+02 -0.21122299776E+01  0.42517696203E+02  0.00000000000E+00 0.  1.
<scales pt_clust_4="550.00000" pt_clust_5="550.00000" pt_clust_6="42.46520"></scales>
<mgrwt>
<rscale>  0 0.30000000E+03</rscale>
<asrwt>  1 0.42465197E+02</asrwt>
<pdfrwt beam="1">  1        1 0.89973070E+00 0.30000000E+03</pdfrwt>
<pdfrwt beam="2">0</pdfrwt>
<totfact> 0.10741448E-04</totfact>
</mgrwt>
<clustering>
<clus scale="   42.465">  1  6  2 -1</clus>
<clus scale="  477.347">  4  5 -1 -1</clus>
<clus scale="  300.000">  1  4  2 -1</clus>
</clustering>
</event>
<event>
 6    1  0.1033679E-011  0.3000000E+03  0.7818608E-02  0.1093470E+00
          1   -1    0    0  502    0  0.00000000000E+00  0.00000000000E+00  0.23206333804E+03  0.23206333804E+03  0.00000000000E+00 0.  1.
         13   -1    0    0    0    0 -0.00000000000E+00 -0.00000000000E+00 -0.27500000000E+03  0.27500000000E+03  0.00000000000E+00 0.  1.
    9000005    2    1    2  501    0 -0.38305467418E+02 -0.27547970183E+00 -0.55961091130E+02  0.46660322832E+03  0.46164872386E+03 0.  0.
         13    1    3    3    0    0  0.15392133945E+03 -0.58038332634E+02 -0.16933291799E+03  0.23608020652E+03  0.00000000000E+00 0.  1.
          3    1    3    3  501    0 -0.19222680687E+03  0.57762852932E+02  0.11337182686E+03  0.23052302181E+03  0.00000000000E+00 0.  1.
         21    1    1    2  502  501  0.38305467418E+02  0.27547970183E+00  0.13024429172E+02  0.40460109719E+02  0.00000000000E+00 0.  1.
<scales pt_clust_4="550.00000" pt_clust_5="550.00000" pt_clust_6="38.30646"></scales>
<mgrwt>
<rscale>  0 0.30000000E+03</rscale>
<asrwt>  1 0.38306458E+02</asrwt>
<pdfrwt beam="1">  1        1 0.84386668E+00 0.30000000E+03</pdfrwt>
<pdfrwt beam="2">0</pdfrwt>
<totfact> 0.45446707E-04</totfact>
</mgrwt>
<clustering>
<clus scale="   38.306">  1  6  2 -1</clus>
<clus scale="  461.649">  4  5 -1 -1</clus>
<clus scale="  300.000">  1  4  2 -1</clus>
</clustering>
</event>
<event>
 6    1  0.1033679E-011  0.3000000E+03  0.7818608E-02  0.1093470E+00
          1   -1    0    0  502    0  0.00000000000E+00  0.00000000000E+00  0.23676299589E+03  0.23676299589E+03  0.00000000000E+00 0.  1.
         13   -1    0    0    0    0 -0.00000000000E+00 -0.00000000000E+00 -0.27500000000E+03  0.27500000000E+03  0.00000000000E+00 0.  1.
    9000005    2    1    2  501    0  0.15221811432E+02 -0.30680160471E+02  0.10604623808E+01  0.45963558792E+03  0.45835660059E+03 0.  0.
         13    1    3    3    0    0 -0.13816106448E+03 -0.14909130936E+03 -0.11522177812E+03  0.23365092857E+03  0.00000000000E+00 0.  1.
          3    1    3    3  501    0  0.15338287591E+03  0.11841114889E+03  0.11628224050E+03  0.22598465935E+03  0.00000000000E+00 0.  1.
         21    1    1    2  502  501 -0.15221811432E+02  0.30680160471E+02 -0.39297466489E+02  0.52127407976E+02  0.00000000000E+00 0.  1.
<scales pt_clust_4="550.00000" pt_clust_5="550.00000" pt_clust_6="34.24875"></scales>
<mgrwt>
<rscale>  0 0.30000000E+03</rscale>
<asrwt>  1 0.34248751E+02</asrwt>
<pdfrwt beam="1">  1        1 0.86095635E+00 0.30000000E+03</pdfrwt>
<pdfrwt beam="2">0</pdfrwt>
<totfact> 0.31721179E-04</totfact>
</mgrwt>
<clustering>
<clus scale="   34.249">  1  6  2 -1</clus>
<clus scale="  458.357">  4  5 -1 -1</clus>
<clus scale="  300.000">  1  4  2 -1</clus>
</clustering>
</event>
<event>
 6    1  0.1033679E-011  0.3000000E+03  0.7818608E-02  0.1093470E+00
          1   -1    0    0  502    0  0.00000000000E+00  0.00000000000E+00  0.24817108496E+03  0.24817108496E+03  0.00000000000E+00 0.  1.
         13   -1    0    0    0    0 -0.00000000000E+00 -0.00000000000E+00 -0.27500000000E+03  0.27500000000E+03  0.00000000000E+00 0.  1.
    9000005    2    1    2  501    0  0.41098030747E+02 -0.29068600157E+01 -0.18805186120E+02  0.48119635218E+03  0.47906032643E+03 0.  0.
         13    1    3    3    0    0 -0.18067836983E+03  0.12664755531E+03 -0.36924758059E+02  0.22371346484E+03  0.00000000000E+00 0.  1.
          1    1    3    3  501    0  0.22177640058E+03 -0.12955441533E+03  0.18119571939E+02  0.25748288734E+03  0.00000000000E+00 0.  1.
         21    1    1    2  502  501 -0.41098030747E+02  0.29068600157E+01 -0.80237289201E+01  0.41974732784E+02  0.00000000000E+00 0. -1.
<scales pt_clust_4="550.00000" pt_clust_5="550.00000" pt_clust_6="41.20072"></scales>
<mgrwt>
<rscale>  0 0.30000000E+03</rscale>
<asrwt>  1 0.41200724E+02</asrwt>
<pdfrwt beam="1">  1        1 0.90244031E+00 0.30000000E+03</pdfrwt>
<pdfrwt beam="2">0</pdfrwt>
<totfact> 0.99217578E-05</totfact>
</mgrwt>
<clustering>
<clus scale="   41.201">  1  6  2 -1</clus>
<clus scale="  479.060">  4  5 -1 -1</clus>
<clus scale="  300.000">  1  4  2 -1</clus>
</clustering>
</event>
<event>
 6    1  0.1033679E-011  0.3000000E+03  0.7818608E-02  0.1093470E+00
          1   -1    0    0  502    0  0.00000000000E+00  0.00000000000E+00  0.23183707811E+03  0.23183707811E+03  0.00000000000E+00 0.  1.
         13   -1    0    0    0    0 -0.00000000000E+00 -0.00000000000E+00 -0.27500000000E+03  0.27500000000E+03  0.00000000000E+00 0.  1.
    9000005    2    1    2  501    0  0.32778404725E+02  0.30861366002E+02 -0.44680579071E+02  0.46179097938E+03  0.45741415234E+03 0.  0.
         13    1    3    3    0    0  0.10917881494E+03 -0.16819565721E+02  0.18478427779E+03  0.21528618335E+03  0.00000000000E+00 0.  1.
          1    1    3    3  501    0 -0.76400410211E+02  0.47680931724E+02 -0.22946485686E+03  0.24650479603E+03  0.00000000000E+00 0.  1.
         21    1    1    2  502  501 -0.32778404725E+02 -0.30861366002E+02  0.15176571815E+01  0.45046098734E+02  0.00000000000E+00 0. -1.
<scales pt_clust_4="550.00000" pt_clust_5="550.00000" pt_clust_6="45.02053"></scales>
<mgrwt>
<rscale>  0 0.30000000E+03</rscale>
<asrwt>  1 0.45020526E+02</asrwt>
<pdfrwt beam="1">  1        1 0.84304392E+00 0.30000000E+03</pdfrwt>
<pdfrwt beam="2">0</pdfrwt>
<totfact> 0.44852232E-04</totfact>
</mgrwt>
<clustering>
<clus scale="   45.021">  1  6  2 -1</clus>
<clus scale="  457.414">  4  5 -1 -1</clus>
<clus scale="  300.000">  1  4  2 -1</clus>
</clustering>
</event>
<event>
 6    1  0.1033679E-011  0.3000000E+03  0.7818608E-02  0.1093470E+00
          1   -1    0    0  502    0  0.00000000000E+00  0.00000000000E+00  0.23366390918E+03  0.23366390918E+03  0.00000000000E+00 0.  1.
         13   -1    0    0    0    0 -0.00000000000E+00 -0.00000000000E+00 -0.27500000000E+03  0.27500000000E+03  0.00000000000E+00 0.  1.
    9000005    2    1    2  501    0 -0.20350365522E+02 -0.25375549519E+02 -0.53874767093E+02  0.47380312472E+03  0.46960499846E+03 0.  0.
         13    1    3    3    0    0  0.14788161623E+03 -0.16731147451E+03  0.52425700982E+02  0.22936991094E+03  0.00000000000E+00 0.  1.
          1    1    3    3  501    0 -0.16823198175E+03  0.14193592499E+03 -0.10630046808E+03  0.24443321378E+03  0.00000000000E+00 0.  1.
         21    1    1    2  502  501  0.20350365522E+02  0.25375549519E+02  0.12538676270E+02  0.34860784456E+02  0.00000000000E+00 0. -1.
<scales pt_clust_4="550.00000" pt_clust_5="550.00000" pt_clust_6="32.52777"></scales>
<mgrwt>
<rscale>  0 0.30000000E+03</rscale>
<asrwt>  1 0.32527771E+02</asrwt>
<pdfrwt beam="1">  1        1 0.84968694E+00 0.30000000E+03</pdfrwt>
<pdfrwt beam="2">0</pdfrwt>
<totfact> 0.41543471E-04</totfact>
</mgrwt>
<clustering>
<clus scale="   32.528">  1  6  2 -1</clus>
<clus scale="  469.605">  4  5 -1 -1</clus>
<clus scale="  300.000">  1  4  2 -1</clus>
</clustering>
</event>
<event>
 6    1  0.1033679E-011  0.3000000E+03  0.7818608E-02  0.1093470E+00
          1   -1    0    0  502    0  0.00000000000E+00  0.00000000000E+00  0.24838059014E+03  0.24838059014E+03  0.00000000000E+00 0.  1.
         13   -1    0    0    0    0 -0.00000000000E+00 -0.00000000000E+00 -0.27500000000E+03  0.27500000000E+03  0.00000000000E+00 0.  1.
    9000005    2    1    2  501    0 -0.57151939387E+01  0.38268038782E+02 -0.30688539227E+02  0.48447475449E+03  0.48195113348E+03 0.  0.
         13    1    3    3    0    0 -0.92222359208E+02  0.14616662546E+03  0.16890072837E+03  0.24165492335E+03  0.00000000000E+00 0.  1.
          1    1    3    3  501    0  0.86507165270E+02 -0.10789858667E+03 -0.19958926760E+03  0.24281983113E+03  0.00000000000E+00 0.  1.
         21    1    1    2  502  501  0.57151939387E+01 -0.38268038782E+02  0.40691293639E+01  0.38905835652E+02  0.00000000000E+00 0.  1.
<scales pt_clust_4="550.00000" pt_clust_5="550.00000" pt_clust_6="38.69246"></scales>
<mgrwt>
<rscale>  0 0.30000000E+03</rscale>
<asrwt>  1 0.38692457E+02</asrwt>
<pdfrwt beam="1">  1        1 0.90320215E+00 0.30000000E+03</pdfrwt>
<pdfrwt beam="2">0</pdfrwt>
<totfact> 0.97630847E-05</totfact>
</mgrwt>
<clustering>
<clus scale="   38.692">  1  6  2 -1</clus>
<clus scale="  481.951">  4  5 -1 -1</clus>
<clus scale="  300.000">  1  4  2 -1</clus>
</clustering>
</event>
<event>
 6    1  0.1033679E-011  0.3000000E+03  0.7818608E-02  0.1093470E+00
          1   -1    0    0  502    0  0.00000000000E+00  0.00000000000E+00  0.25319747174E+03  0.25319747174E+03  0.00000000000E+00 0.  1.
         13   -1    0    0    0    0 -0.00000000000E+00 -0.00000000000E+00 -0.27500000000E+03  0.27500000000E+03  0.00000000000E+00 0.  1.
    9000005    2    1    2  501    0 -0.28411041326E+02  0.26654855641E+02 -0.65403027936E+02  0.46972805948E+03  0.46351831161E+03 0.  0.
         13    1    3    3    0    0  0.98205624938E+02  0.14210720717E+03 -0.19081257811E+03  0.25738734053E+03  0.00000000000E+00 0.  1.
          3    1    3    3  501    0 -0.12661666626E+03 -0.11545235153E+03  0.12540955017E+03  0.21234071895E+03  0.00000000000E+00 0.  1.
         21    1    1    2  502  501  0.28411041326E+02 -0.26654855641E+02  0.43600499677E+02  0.58469412265E+02  0.00000000000E+00 0.  1.
<scales pt_clust_4="550.00000" pt_clust_5="550.00000" pt_clust_6="38.95727"></scales>
<mgrwt>
<rscale>  0 0.30000000E+03</rscale>
<asrwt>  1 0.38957266E+02</asrwt>
<pdfrwt beam="1">  1        1 0.92071808E+00 0.30000000E+03</pdfrwt>
<pdfrwt beam="2">0</pdfrwt>
<totfact> 0.39541306E-05</totfact>
</mgrwt>
<clustering>
<clus scale="   38.957">  1  6  2 -1</clus>
<clus scale="  463.518">  4  5 -1 -1</clus>
<clus scale="  300.000">  1  4  2 -1</clus>
</clustering>
</event>
<event>
 6    1  0.1033679E-011  0.3000000E+03  0.7818608E-02  0.1093470E+00
          1   -1    0    0  502    0  0.00000000000E+00  0.00000000000E+00  0.22611985591E+03  0.22611985591E+03  0.00000000000E+00 0.  1.
         13   -1    0    0    0    0 -0.00000000000E+00 -0.00000000000E+00 -0.27500000000E+03  0.27500000000E+03  0.00000000000E+00 0.  1.
    9000005    2    1    2  501    0 -0.24168060036E+02 -0.21656575139E+02 -0.27277296354E+02  0.46213543078E+03  0.46018692192E+03 0.  0.
         13    1    3    3    0    0  0.28073762960E+02  0.60198040343E+02 -0.22890260755E+03  0.23834501038E+03  0.00000000000E+00 0.  1.
          3    1    3    3  501    0 -0.52241822996E+02 -0.81854615482E+02  0.20162531120E+03  0.22379042040E+03  0.00000000000E+00 0.  1.
         21    1    1    2  502  501  0.24168060036E+02  0.21656575139E+02 -0.21602847736E+02  0.38984425133E+02  0.00000000000E+00 0. -1.
<scales pt_clust_4="550.00000" pt_clust_5="550.00000" pt_clust_6="32.45156"></scales>
<mgrwt>
<rscale>  0 0.30000000E+03</rscale>
<asrwt>  1 0.32451555E+02</asrwt>
<pdfrwt beam="1">  1        1 0.82225402E+00 0.30000000E+03</pdfrwt>
<pdfrwt beam="2">0</pdfrwt>
<totfact> 0.70098603E-04</totfact>
</mgrwt>
<clustering>
<clus scale="   32.452">  1  6  2 -1</clus>
<clus scale="  460.187">  4  5 -1 -1</clus>
<clus scale="  300.000">  1  4  2 -1</clus>
</clustering>
</event>
<event>
 6    1  0.1033679E-011  0.3000000E+03  0.7818608E-02  0.1093470E+00
          1   -1    0    0  502    0  0.00000000000E+00  0.00000000000E+00  0.24261321698E+03  0.24261321698E+03  0.00000000000E+00 0.  1.
         13   -1    0    0    0    0 -0.00000000000E+00 -0.00000000000E+00 -0.27500000000E+03  0.27500000000E+03  0.00000000000E+00 0.  1.
    9000005    2    1    2  501    0  0.44847567083E+02 -0.85645441235E+01 -0.35092520371E+02  0.47187508515E+03  0.46834811338E+03 0.  0.
         13    1    3    3    0    0  0.13012657903E+03 -0.20499679440E+03  0.37651676407E+02  0.24571174375E+03  0.00000000000E+00 0.  1.
          3    1    3    3  501    0 -0.85279011943E+02  0.19643225027E+03 -0.72744196778E+02  0.22616334139E+03  0.00000000000E+00 0.  1.
         21    1    1    2  502  501 -0.44847567083E+02  0.85645441235E+01  0.27057373545E+01  0.45738131837E+02  0.00000000000E+00 0. -1.
<scales pt_clust_4="550.00000" pt_clust_5="550.00000" pt_clust_6="45.65803"></scales>
<mgrwt>
<rscale>  0 0.30000000E+03</rscale>
<asrwt>  1 0.45658030E+02</asrwt>
<pdfrwt beam="1">  1        1 0.88222988E+00 0.30000000E+03</pdfrwt>
<pdfrwt beam="2">0</pdfrwt>
<totfact> 0.17613384E-04</totfact>
</mgrwt>
<clustering>
<clus scale="   45.658">  1  6  2 -1</clus>
<clus scale="  468.348">  4  5 -1 -1</clus>
<clus scale="  300.000">  1  4  2 -1</clus>
</clustering>
</event>
<event>
 6    1  0.1033679E-011  0.3000000E+03  0.7818608E-02  0.1093470E+00
          1   -1    0    0  502    0  0.00000000000E+00  0.00000000000E+00  0.23045974920E+03  0.23045974920E+03  0.00000000000E+00 0.  1.
         13   -1    0    0    0    0 -0.00000000000E+00 -0.00000000000E+00 -0.27500000000E+03  0.27500000000E+03  0.00000000000E+00 0.  1.
    9000005    2    1    2  501    0  0.39682398872E+02 -0.20814941937E+02 -0.44283095324E+02  0.46064880503E+03  0.45632047341E+03 0.  0.
         13    1    3    3    0    0 -0.12225808583E+03  0.14286774198E+03 -0.11421763680E+03  0.22000886302E+03  0.00000000000E+00 0.  1.
          3    1    3    3  501    0  0.16194048470E+03 -0.16368268392E+03  0.69934541479E+02  0.24063994201E+03  0.00000000000E+00 0.  1.
         21    1    1    2  502  501 -0.39682398872E+02  0.20814941937E+02 -0.25715547950E+00  0.44810944166E+02  0.00000000000E+00 0. -1.
<scales pt_clust_4="550.00000" pt_clust_5="550.00000" pt_clust_6="44.81021"></scales>
<mgrwt>
<rscale>  0 0.30000000E+03</rscale>
<asrwt>  1 0.44810206E+02</asrwt>
<pdfrwt beam="1">  1        1 0.83803545E+00 0.30000000E+03</pdfrwt>
<pdfrwt beam="2">0</pdfrwt>
<totfact> 0.49144976E-04</totfact>
</mgrwt>
<clustering>
<clus scale="   44.810">  1  6  2 -1</clus>
<clus scale="  456.320">  4  5 -1 -1</clus>
<clus scale="  300.000">  1  4  2 -1</clus>
</clustering>
</event>
<event>
 6    1  0.1033679E-011  0.3000000E+03  0.7818608E-02  0.1093470E+00
          1   -1    0    0  502    0  0.00000000000E+00  0.00000000000E+00  0.26906069063E+03  0.26906069063E+03  0.00000000000E+00 0.  1.
         13   -1    0    0    0    0 -0.00000000000E+00 -0.00000000000E+00 -0.27500000000E+03  0.27500000000E+03  0.00000000000E+00 0.  1.
    9000005    2    1    2  501    0 -0.20210586049E+02 -0.24234228947E+02 -0.20156682646E+02  0.50945000812E+03  0.50807209457E+03 0.  0.
         13    1    3    3    0    0 -0.11505132763E+03 -0.99213856251E+00 -0.24150972249E+03  0.26751586568E+03  0.00000000000E+00 0.  1.
          3    1    3    3  501    0  0.94840741584E+02 -0.23242090384E+02  0.22135303985E+03  0.24193414244E+03  0.00000000000E+00 0.  1.
         21    1    1    2  502  501  0.20210586049E+02  0.24234228947E+02  0.14217373280E+02  0.34610682514E+02  0.00000000000E+00 0. -1.
<scales pt_clust_4="550.00000" pt_clust_5="550.00000" pt_clust_6="31.55575"></scales>
<mgrwt>
<rscale>  0 0.30000000E+03</rscale>
<asrwt>  1 0.31555754E+02</asrwt>
<pdfrwt beam="1">  1        1 0.97840251E+00 0.30000000E+03</pdfrwt>
<pdfrwt beam="2">0</pdfrwt>
<totfact> 0.33460737E-06</totfact>
</mgrwt>
<clustering>
<clus scale="   31.556">  1  6  2 -1</clus>
<clus scale="  508.072">  4  5 -1 -1</clus>
<clus scale="  300.000">  1  4  2 -1</clus>
</clustering>
</event>
<event>
 6    1  0.1033679E-011  0.3000000E+03  0.7818608E-02  0.1093470E+00
          1   -1    0    0  502    0  0.00000000000E+00  0.00000000000E+00  0.23173792188E+03  0.23173792188E+03  0.00000000000E+00 0.  1.
         13   -1    0    0    0    0 -0.00000000000E+00 -0.00000000000E+00 -0.27500000000E+03  0.27500000000E+03  0.00000000000E+00 0.  1.
    9000005    2    1    2  501    0 -0.12158554502E+02  0.33274416370E+02 -0.19323838211E+02  0.46398214376E+03  0.46222397360E+03 0.  0.
         13    1    3    3    0    0  0.28013689225E+02  0.78428156624E+02  0.21048349400E+03  0.22636042892E+03  0.00000000000E+00 0.  1.
          3    1    3    3  501    0 -0.40172243727E+02 -0.45153740254E+02 -0.22980733221E+03  0.23762171484E+03  0.00000000000E+00 0.  1.
         21    1    1    2  502  501  0.12158554502E+02 -0.33274416370E+02 -0.23938239914E+02  0.42755778118E+02  0.00000000000E+00 0.  1.
<scales pt_clust_4="550.00000" pt_clust_5="550.00000" pt_clust_6="35.42624"></scales>
<mgrwt>
<rscale>  0 0.30000000E+03</rscale>
<asrwt>  1 0.35426240E+02</asrwt>
<pdfrwt beam="1">  1        1 0.84268335E+00 0.30000000E+03</pdfrwt>
<pdfrwt beam="2">0</pdfrwt>
<totfact> 0.47186543E-04</totfact>
</mgrwt>
<clustering>
<clus scale="   35.426">  1  6  2 -1</clus>
<clus scale="  462.224">  4  5 -1 -1</clus>
<clus scale="  300.000">  1  4  2 -1</clus>
</clustering>
</event>
<event>
 6    1  0.1033679E-011  0.3000000E+03  0.7818608E-02  0.1093470E+00
          1   -1    0    0  502    0  0.00000000000E+00  0.00000000000E+00  0.24239926962E+03  0.24239926962E+03  0.00000000000E+00 0.  1.
         13   -1    0    0    0    0 -0.00000000000E+00 -0.00000000000E+00 -0.27500000000E+03  0.27500000000E+03  0.00000000000E+00 0.  1.
    9000005    2    1    2  501    0 -0.29543004416E+02 -0.53402977825E+01 -0.58820979051E+02  0.47753939844E+03  0.47295101395E+03 0.  0.
         13    1    3    3    0    0 -0.13656871083E+03 -0.20511802012E+03 -0.16440259079E+02  0.24697104501E+03  0.00000000000E+00 0.  1.
          3    1    3    3  501    0  0.10702570641E+03  0.19977772234E+03 -0.42380719972E+02  0.23056835343E+03  0.00000000000E+00 0.  1.
         21    1    1    2  502  501  0.29543004416E+02  0.53402977825E+01  0.26220248672E+02  0.39859871183E+02  0.00000000000E+00 0.  1.
<scales pt_clust_4="550.00000" pt_clust_5="550.00000" pt_clust_6="30.02179"></scales>
<mgrwt>
<rscale>  0 0.30000000E+03</rscale>
<asrwt>  1 0.30021790E+02</asrwt>
<pdfrwt beam="1">  1        1 0.88145189E+00 0.30000000E+03</pdfrwt>
<pdfrwt beam="2">0</pdfrwt>
<totfact> 0.19483045E-04</totfact>
</mgrwt>
<clustering>
<clus scale="   30.022">  1  6  2 -1</clus>
<clus scale="  472.951">  4  5 -1 -1</clus>
<clus scale="  300.000">  1  4  2 -1</clus>
</clustering>
</event>
<event>
 6    1  0.1033679E-011  0.3000000E+03  0.7818608E-02  0.1093470E+00
          1   -1    0    0  502    0  0.00000000000E+00  0.00000000000E+00  0.22818519545E+03  0.22818519545E+03  0.00000000000E+00 0.  1.
         13   -1    0    0    0    0 -0.00000000000E+00 -0.00000000000E+00 -0.27500000000E+03  0.27500000000E+03  0.00000000000E+00 0.  1.
    9000005    2    1    2  501    0  0.36764803936E+01 -0.31477618432E+02 -0.55535162511E+02  0.47031573222E+03  0.46594889926E+03 0.  0.
         13    1    3    3    0    0 -0.10515320594E+03  0.78200062429E+02 -0.21275975373E+03  0.24987828896E+03  0.00000000000E+00 0.  1.
          1    1    3    3  501    0  0.10882968633E+03 -0.10967768086E+03  0.15722459122E+03  0.22043744326E+03  0.00000000000E+00 0.  1.
         21    1    1    2  502  501 -0.36764803936E+01  0.31477618432E+02  0.87203579603E+01  0.32869463233E+02  0.00000000000E+00 0.  1.
<scales pt_clust_4="550.00000" pt_clust_5="550.00000" pt_clust_6="31.69159"></scales>
<mgrwt>
<rscale>  0 0.30000000E+03</rscale>
<asrwt>  1 0.31691591E+02</asrwt>
<pdfrwt beam="1">  1        1 0.82976435E+00 0.30000000E+03</pdfrwt>
<pdfrwt beam="2">0</pdfrwt>
<totfact> 0.60490621E-04</totfact>
</mgrwt>
<clustering>
<clus scale="   31.692">  1  6  2 -1</clus>
<clus scale="  465.949">  4  5 -1 -1</clus>
<clus scale="  300.000">  1  4  2 -1</clus>
</clustering>
</event>
<event>
 6    1  0.1033679E-011  0.3000000E+03  0.7818608E-02  0.1093470E+00
          1   -1    0    0  502    0  0.00000000000E+00  0.00000000000E+00  0.24088430160E+03  0.24088430160E+03  0.00000000000E+00 0.  1.
         13   -1    0    0    0    0 -0.00000000000E+00 -0.00000000000E+00 -0.27500000000E+03  0.27500000000E+03  0.00000000000E+00 0.  1.
    9000005    2    1    2  501    0  0.22525659773E+02 -0.26357317339E+02 -0.73303512707E+02  0.46356032702E+03  0.45641281565E+03 0.  0.
         13    1    3    3    0    0  0.91427987210E+02 -0.98057159138E+02 -0.23684611006E+03  0.27215870950E+03  0.00000000000E+00 0.  1.
          3    1    3    3  501    0 -0.68902327437E+02  0.71699841799E+02  0.16354259736E+03  0.19140161752E+03  0.00000000000E+00 0.  1.
         21    1    1    2  502  501 -0.22525659773E+02  0.26357317339E+02  0.39187814303E+02  0.52323974575E+02  0.00000000000E+00 0.  1.
<scales pt_clust_4="550.00000" pt_clust_5="550.00000" pt_clust_6="34.67151"></scales>
<mgrwt>
<rscale>  0 0.30000000E+03</rscale>
<asrwt>  1 0.34671509E+02</asrwt>
<pdfrwt beam="1">  1        1 0.87594291E+00 0.30000000E+03</pdfrwt>
<pdfrwt beam="2">0</pdfrwt>
<totfact> 0.22015818E-04</totfact>
</mgrwt>
<clustering>
<clus scale="   34.672">  1  6  2 -1</clus>
<clus scale="  456.413">  4  5 -1 -1</clus>
<clus scale="  300.000">  1  4  2 -1</clus>
</clustering>
</event>
<event>
 6    1  0.1033679E-011  0.3000000E+03  0.7818608E-02  0.1093470E+00
          1   -1    0    0  502    0  0.00000000000E+00  0.00000000000E+00  0.24237976255E+03  0.24237976255E+03  0.00000000000E+00 0.  1.
         13   -1    0    0    0    0 -0.00000000000E+00 -0.00000000000E+00 -0.27500000000E+03  0.27500000000E+03  0.00000000000E+00 0.  1.
    9000005    2    1    2  501    0 -0.12532957738E+02 -0.33062397869E+02 -0.48339516402E+02  0.47868489321E+03  0.47492348959E+03 0.  0.
         13    1    3    3    0    0  0.10162466203E+03  0.98065298046E+02  0.15597536934E+03  0.21041076601E+03  0.00000000000E+00 0.  1.
          1    1    3    3  501    0 -0.11415761977E+03 -0.13112769591E+03 -0.20431488574E+03  0.26827412720E+03  0.00000000000E+00 0.  1.
         21    1    1    2  502  501  0.12532957738E+02  0.33062397869E+02  0.15719278954E+02  0.38694869341E+02  0.00000000000E+00 0.  1.
<scales pt_clust_4="550.00000" pt_clust_5="550.00000" pt_clust_6="35.35813"></scales>
<mgrwt>
<rscale>  0 0.30000000E+03</rscale>
<asrwt>  1 0.35358128E+02</asrwt>
<pdfrwt beam="1">  1        1 0.88138095E+00 0.30000000E+03</pdfrwt>
<pdfrwt beam="2">0</pdfrwt>
<totfact> 0.18927666E-04</totfact>
</mgrwt>
<clustering>
<clus scale="   35.358">  1  6  2 -1</clus>
<clus scale="  474.923">  4  5 -1 -1</clus>
<clus scale="  300.000">  1  4  2 -1</clus>
</clustering>
</event>
<event>
 6    1  0.1033679E-011  0.3000000E+03  0.7818608E-02  0.1093470E+00
          1   -1    0    0  502    0  0.00000000000E+00  0.00000000000E+00  0.22746104612E+03  0.22746104612E+03  0.00000000000E+00 0.  1.
         13   -1    0    0    0    0 -0.00000000000E+00 -0.00000000000E+00 -0.27500000000E+03  0.27500000000E+03  0.00000000000E+00 0.  1.
    9000005    2    1    2  501    0 -0.36595338679E+01  0.36067033026E+02 -0.42663879377E+02  0.46588250855E+03  0.46250630494E+03 0.  0.
         13    1    3    3    0    0  0.85877727155E+02  0.36468426516E+02 -0.23548062673E+03  0.25329045722E+03  0.00000000000E+00 0.  1.
          1    1    3    3  501    0 -0.89537261023E+02 -0.40139348957E+00  0.19281674735E+03  0.21259205133E+03  0.00000000000E+00 0.  1.
         21    1    1    2  502  501  0.36595338679E+01 -0.36067033026E+02 -0.48750745037E+01  0.36578537571E+02  0.00000000000E+00 0. -1.
<scales pt_clust_4="550.00000" pt_clust_5="550.00000" pt_clust_6="36.25223"></scales>
<mgrwt>
<rscale>  0 0.30000000E+03</rscale>
<asrwt>  1 0.36252233E+02</asrwt>
<pdfrwt beam="1">  1        1 0.82713108E+00 0.30000000E+03</pdfrwt>
<pdfrwt beam="2">0</pdfrwt>
<totfact> 0.62127887E-04</totfact>
</mgrwt>
<clustering>
<clus scale="   36.252">  1  6  2 -1</clus>
<clus scale="  462.506">  4  5 -1 -1</clus>
<clus scale="  300.000">  1  4  2 -1</clus>
</clustering>
</event>
<event>
 6    1  0.1033679E-011  0.3000000E+03  0.7818608E-02  0.1093470E+00
          1   -1    0    0  502    0  0.00000000000E+00  0.00000000000E+00  0.22593966722E+03  0.22593966722E+03  0.00000000000E+00 0.  1.
         13   -1    0    0    0    0 -0.00000000000E+00 -0.00000000000E+00 -0.27500000000E+03  0.27500000000E+03  0.00000000000E+00 0.  1.
    9000005    2    1    2  501    0  0.14891582643E+02 -0.35496792422E+02 -0.53854912071E+02  0.46214830869E+03  0.45738269116E+03 0.  0.
         13    1    3    3    0    0  0.14885915763E+03  0.14283555893E+03  0.55640819412E+02  0.21367486162E+03  0.00000000000E+00 0.  1.
          3    1    3    3  501    0 -0.13396757498E+03 -0.17833235135E+03 -0.10949573148E+03  0.24847344707E+03  0.00000000000E+00 0.  1.
         21    1    1    2  502  501 -0.14891582643E+02  0.35496792422E+02  0.47945792931E+01  0.38791358528E+02  0.00000000000E+00 0. -1.
<scales pt_clust_4="550.00000" pt_clust_5="550.00000" pt_clust_6="38.49392"></scales>
<mgrwt>
<rscale>  0 0.30000000E+03</rscale>
<asrwt>  1 0.38493915E+02</asrwt>
<pdfrwt beam="1">  1        1 0.82159879E+00 0.30000000E+03</pdfrwt>
<pdfrwt beam="2">0</pdfrwt>
<totfact> 0.68811818E-04</totfact>
</mgrwt>
<clustering>
<clus scale="   38.494">  1  6  2 -1</clus>
<clus scale="  457.383">  4  5 -1 -1</clus>
<clus scale="  300.000">  1  4  2 -1</clus>
</clustering>
</event>
<event>
 6    1  0.1033679E-011  0.3000000E+03  0.7818608E-02  0.1093470E+00
          1   -1    0    0  502    0  0.00000000000E+00  0.00000000000E+00  0.25921017310E+03  0.25921017310E+03  0.00000000000E+00 0.  1.
         13   -1    0    0    0    0 -0.00000000000E+00 -0.00000000000E+00 -0.27500000000E+03  0.27500000000E+03  0.00000000000E+00 0.  1.
    9000005    2    1    2  501    0 -0.20551815271E+02  0.45285087564E+02 -0.35855716592E+02  0.48058409553E+03  0.47665744953E+03 0.  0.
         13    1    3    3    0    0  0.21292555214E+03  0.10604857440E+03 -0.12496879259E+02  0.23820109756E+03  0.00000000000E+00 0.  1.
          3    1    3    3  501    0 -0.23347736741E+03 -0.60763486835E+02 -0.23358837332E+02  0.24238299797E+03  0.00000000000E+00 0.  1.
         21    1    1    2  502  501  0.20551815271E+02 -0.45285087564E+02  0.20065889690E+02  0.53626077571E+02  0.00000000000E+00 0.  1.
<scales pt_clust_4="550.00000" pt_clust_5="550.00000" pt_clust_6="49.73044"></scales>
<mgrwt>
<rscale>  0 0.30000000E+03</rscale>
<asrwt>  1 0.49730436E+02</asrwt>
<pdfrwt beam="1">  1        1 0.94258245E+00 0.30000000E+03</pdfrwt>
<pdfrwt beam="2">0</pdfrwt>
<totfact> 0.16195716E-05</totfact>
</mgrwt>
<clustering>
<clus scale="   49.730">  1  6  2 -1</clus>
<clus scale="  476.657">  4  5 -1 -1</clus>
<clus scale="  300.000">  1  4  2 -1</clus>
</clustering>
</event>
<event>
 6    1  0.1033679E-011  0.3000000E+03  0.7818608E-02  0.1093470E+00
          1   -1    0    0  502    0  0.00000000000E+00  0.00000000000E+00  0.24075827421E+03  0.24075827421E+03  0.00000000000E+00 0.  1.
         13   -1    0    0    0    0 -0.00000000000E+00 -0.00000000000E+00 -0.27500000000E+03  0.27500000000E+03  0.00000000000E+00 0.  1.
    9000005    2    1    2  501    0 -0.89599591727E+01 -0.28892914706E+02 -0.35489963998E+02  0.48548221953E+03  0.48323738115E+03 0.  0.
         13    1    3    3    0    0  0.24998456761E+02 -0.15017045255E+03 -0.21668461535E+03  0.26481750355E+03  0.00000000000E+00 0.  1.
          3    1    3    3  501    0 -0.33958415933E+02  0.12127753784E+03  0.18119465135E+03  0.22066471598E+03  0.00000000000E+00 0.  1.
         21    1    1    2  502  501  0.89599591727E+01  0.28892914706E+02  0.12482382103E+01  0.30276054683E+02  0.00000000000E+00 0. -1.
<scales pt_clust_4="550.00000" pt_clust_5="550.00000" pt_clust_6="30.25031"></scales>
<mgrwt>
<rscale>  0 0.30000000E+03</rscale>
<asrwt>  1 0.30250312E+02</asrwt>
<pdfrwt beam="1">  1        1 0.87548463E+00 0.30000000E+03</pdfrwt>
<pdfrwt beam="2">0</pdfrwt>
<totfact> 0.22850747E-04</totfact>
</mgrwt>
<clustering>
<clus scale="   30.250">  1  6  2 -1</clus>
<clus scale="  483.237">  4  5 -1 -1</clus>
<clus scale="  300.000">  1  4  2 -1</clus>
</clustering>
</event>
<event>
 6    1  0.1033679E-011  0.3000000E+03  0.7818608E-02  0.1093470E+00
          1   -1    0    0  502    0  0.00000000000E+00  0.00000000000E+00  0.23075147648E+03  0.23075147648E+03  0.00000000000E+00 0.  1.
         13   -1    0    0    0    0 -0.00000000000E+00 -0.00000000000E+00 -0.27500000000E+03  0.27500000000E+03  0.00000000000E+00 0.  1.
    9000005    2    1    2  501    0  0.23323091724E+02  0.23692747024E+02 -0.38319114477E+02  0.47198061980E+03  0.46924624459E+03 0.  0.
         13    1    3    3    0    0 -0.14383346912E+03  0.15459280284E+03 -0.12189201341E+03  0.24381276518E+03  0.00000000000E+00 0.  1.
          1    1    3    3  501    0  0.16715656085E+03 -0.13090005582E+03  0.83572898935E+02  0.22816785462E+03  0.00000000000E+00 0.  1.
         21    1    1    2  502  501 -0.23323091724E+02 -0.23692747024E+02 -0.59294090436E+01  0.33770856677E+02  0.00000000000E+00 0. -1.
<scales pt_clust_4="550.00000" pt_clust_5="550.00000" pt_clust_6="33.24626"></scales>
<mgrwt>
<rscale>  0 0.30000000E+03</rscale>
<asrwt>  1 0.33246263E+02</asrwt>
<pdfrwt beam="1">  1        1 0.83909628E+00 0.30000000E+03</pdfrwt>
<pdfrwt beam="2">0</pdfrwt>
<totfact> 0.50984180E-04</totfact>
</mgrwt>
<clustering>
<clus scale="   33.246">  1  6  2 -1</clus>
<clus scale="  469.246">  4  5 -1 -1</clus>
<clus scale="  300.000">  1  4  2 -1</clus>
</clustering>
</event>
<event>
 6    1  0.1033679E-011  0.3000000E+03  0.7818608E-02  0.1093470E+00
          1   -1    0    0  502    0  0.00000000000E+00  0.00000000000E+00  0.22641131362E+03  0.22641131362E+03  0.00000000000E+00 0.  1.
         13   -1    0    0    0    0 -0.00000000000E+00 -0.00000000000E+00 -0.27500000000E+03  0.27500000000E+03  0.00000000000E+00 0.  1.
    9000005    2    1    2  501    0  0.13970950839E+02  0.28523850302E+02 -0.57805893644E+02  0.46833935551E+03  0.46367168673E+03 0.  0.
         13    1    3    3    0    0 -0.10803101118E+02 -0.80599221517E+02 -0.24062394601E+03  0.25399374972E+03  0.00000000000E+00 0.  1.
          1    1    3    3  501    0  0.24774051957E+02  0.10912307182E+03  0.18281805236E+03  0.21434560579E+03  0.00000000000E+00 0.  1.
         21    1    1    2  502  501 -0.13970950839E+02 -0.28523850302E+02  0.92172072617E+01  0.33071958108E+02  0.00000000000E+00 0.  1.
<scales pt_clust_4="550.00000" pt_clust_5="550.00000" pt_clust_6="31.76157"></scales>
<mgrwt>
<rscale>  0 0.30000000E+03</rscale>
<asrwt>  1 0.31761573E+02</asrwt>
<pdfrwt beam="1">  1        1 0.82331387E+00 0.30000000E+03</pdfrwt>
<pdfrwt beam="2">0</pdfrwt>
<totfact> 0.68872872E-04</totfact>
</mgrwt>
<clustering>
<clus scale="   31.762">  1  6  2 -1</clus>
<clus scale="  463.672">  4  5 -1 -1</clus>
<clus scale="  300.000">  1  4  2 -1</clus>
</clustering>
</event>
<event>
 6    1  0.1033679E-011  0.3000000E+03  0.7818608E-02  0.1093470E+00
          1   -1    0    0  502    0  0.00000000000E+00  0.00000000000E+00  0.22887501169E+03  0.22887501169E+03  0.00000000000E+00 0.  1.
         13   -1    0    0    0    0 -0.00000000000E+00 -0.00000000000E+00 -0.27500000000E+03  0.27500000000E+03  0.00000000000E+00 0.  1.
    9000005    2    1    2  501    0  0.25481703290E+02  0.22282236889E+02 -0.53470111147E+02  0.46923737157E+03  0.46495036596E+03 0.  0.
         13    1    3    3    0    0  0.12857663872E+03 -0.28046478373E+02  0.17181516140E+03  0.21642321193E+03  0.00000000000E+00 0.  1.
          1    1    3    3  501    0 -0.10309493543E+03  0.50328715262E+02 -0.22528527255E+03  0.25281415965E+03  0.00000000000E+00 0.  1.
         21    1    1    2  502  501 -0.25481703290E+02 -0.22282236889E+02  0.73451228336E+01  0.34637640115E+02  0.00000000000E+00 0.  1.
<scales pt_clust_4="550.00000" pt_clust_5="550.00000" pt_clust_6="33.84989"></scales>
<mgrwt>
<rscale>  0 0.30000000E+03</rscale>
<asrwt>  1 0.33849893E+02</asrwt>
<pdfrwt beam="1">  1        1 0.83227277E+00 0.30000000E+03</pdfrwt>
<pdfrwt beam="2">0</pdfrwt>
<totfact> 0.57049900E-04</totfact>
</mgrwt>
<clustering>
<clus scale="   33.850">  1  6  2 -1</clus>
<clus scale="  464.950">  4  5 -1 -1</clus>
<clus scale="  300.000">  1  4  2 -1</clus>
</clustering>
</event>
<event>
 6    1  0.1033679E-011  0.3000000E+03  0.7818608E-02  0.1093470E+00
          1   -1    0    0  502    0  0.00000000000E+00  0.00000000000E+00  0.23265409821E+03  0.23265409821E+03  0.00000000000E+00 0.  1.
         13   -1    0    0    0    0 -0.00000000000E+00 -0.00000000000E+00 -0.27500000000E+03  0.27500000000E+03  0.00000000000E+00 0.  1.
    9000005    2    1    2  501    0 -0.27019346531E+02  0.25727064417E+02 -0.57586849597E+02  0.46735256697E+03  0.46228805920E+03 0.  0.
         13    1    3    3    0    0  0.21694283585E+03 -0.10109320058E+02 -0.24201263912E+02  0.21852252413E+03  0.00000000000E+00 0.  1.
          1    1    3    3  501    0 -0.24396218238E+03  0.35836384475E+02 -0.33385585684E+02  0.24883004283E+03  0.00000000000E+00 0.  1.
         21    1    1    2  502  501  0.27019346531E+02 -0.25727064417E+02  0.15240947809E+02  0.40301531244E+02  0.00000000000E+00 0.  1.
<scales pt_clust_4="550.00000" pt_clust_5="550.00000" pt_clust_6="37.30854"></scales>
<mgrwt>
<rscale>  0 0.30000000E+03</rscale>
<asrwt>  1 0.37308537E+02</asrwt>
<pdfrwt beam="1">  1        1 0.84601490E+00 0.30000000E+03</pdfrwt>
<pdfrwt beam="2">0</pdfrwt>
<totfact> 0.43738839E-04</totfact>
</mgrwt>
<clustering>
<clus scale="   37.309">  1  6  2 -1</clus>
<clus scale="  462.288">  4  5 -1 -1</clus>
<clus scale="  300.000">  1  4  2 -1</clus>
</clustering>
</event>
<event>
 6    1  0.1033679E-011  0.3000000E+03  0.7818608E-02  0.1093470E+00
          1   -1    0    0  502    0  0.00000000000E+00  0.00000000000E+00  0.23148382989E+03  0.23148382989E+03  0.00000000000E+00 0.  1.
         13   -1    0    0    0    0 -0.00000000000E+00 -0.00000000000E+00 -0.27500000000E+03  0.27500000000E+03  0.00000000000E+00 0.  1.
    9000005    2    1    2  501    0  0.26574302986E+02 -0.17369822066E+02 -0.24845284810E+02  0.46965305125E+03  0.46791964703E+03 0.  0.
         13    1    3    3    0    0 -0.10101170773E+03 -0.39528282624E+02 -0.21428968905E+03  0.24017893550E+03  0.00000000000E+00 0.  1.
          3    1    3    3  501    0  0.12758601071E+03  0.22158460558E+02  0.18944440424E+03  0.22947411575E+03  0.00000000000E+00 0.  1.
         21    1    1    2  502  501 -0.26574302986E+02  0.17369822066E+02 -0.18670885296E+02  0.36830778644E+02  0.00000000000E+00 0.  1.
<scales pt_clust_4="550.00000" pt_clust_5="550.00000" pt_clust_6="31.74752"></scales>
<mgrwt>
<rscale>  0 0.30000000E+03</rscale>
<asrwt>  1 0.31747524E+02</asrwt>
<pdfrwt beam="1">  1        1 0.84175938E+00 0.30000000E+03</pdfrwt>
<pdfrwt beam="2">0</pdfrwt>
<totfact> 0.49029973E-04</totfact>
</mgrwt>
<clustering>
<clus scale="   31.748">  1  6  2 -1</clus>
<clus scale="  467.920">  4  5 -1 -1</clus>
<clus scale="  300.000">  1  4  2 -1</clus>
</clustering>
</event>
<event>
 6    1  0.1033679E-011  0.3000000E+03  0.7818608E-02  0.1093470E+00
          1   -1    0    0  502    0  0.00000000000E+00  0.00000000000E+00  0.22995373425E+03  0.22995373425E+03  0.00000000000E+00 0.  1.
         13   -1    0    0    0    0 -0.00000000000E+00 -0.00000000000E+00 -0.27500000000E+03  0.27500000000E+03  0.00000000000E+00 0.  1.
    9000005    2    1    2  501    0  0.21076149151E+02  0.25224640696E+02 -0.68599402367E+02  0.46451567290E+03  0.45824496266E+03 0.  0.
         13    1    3    3    0    0 -0.19627501684E+02  0.19014913369E+03  0.10793232440E+03  0.21952521158E+03  0.00000000000E+00 0.  1.
          3    1    3    3  501    0  0.40703650835E+02 -0.16492449300E+03 -0.17653172677E+03  0.24499046132E+03  0.00000000000E+00 0.  1.
         21    1    1    2  502  501 -0.21076149151E+02 -0.25224640696E+02  0.23553136616E+02  0.40438061349E+02  0.00000000000E+00 0. -1.
<scales pt_clust_4="550.00000" pt_clust_5="550.00000" pt_clust_6="32.87076"></scales>
<mgrwt>
<rscale>  0 0.30000000E+03</rscale>
<asrwt>  1 0.32870755E+02</asrwt>
<pdfrwt beam="1">  1        1 0.83619540E+00 0.30000000E+03</pdfrwt>
<pdfrwt beam="2">0</pdfrwt>
<totfact> 0.53656987E-04</totfact>
</mgrwt>
<clustering>
<clus scale="   32.871">  1  6  2 -1</clus>
<clus scale="  458.245">  4  5 -1 -1</clus>
<clus scale="  300.000">  1  4  2 -1</clus>
</clustering>
</event>
<event>
 6    1  0.1033679E-011  0.3000000E+03  0.7818608E-02  0.1093470E+00
          1   -1    0    0  502    0  0.00000000000E+00  0.00000000000E+00  0.22675567656E+03  0.22675567656E+03  0.00000000000E+00 0.  1.
         13   -1    0    0    0    0 -0.00000000000E+00 -0.00000000000E+00 -0.27500000000E+03  0.27500000000E+03  0.00000000000E+00 0.  1.
    9000005    2    1    2  501    0 -0.25058269886E+02 -0.23401977098E+02 -0.63416639199E+02  0.46426209594E+03  0.45863062935E+03 0.  0.
         13    1    3    3    0    0  0.20283700509E+03 -0.60305614151E+02  0.32821736211E+02  0.21414220532E+03  0.00000000000E+00 0.  1.
          3    1    3    3  501    0 -0.22789527498E+03  0.36903637053E+02 -0.96238375409E+02  0.25011989062E+03  0.00000000000E+00 0.  1.
         21    1    1    2  502  501  0.25058269886E+02  0.23401977098E+02  0.15172315755E+02  0.37493580612E+02  0.00000000000E+00 0. -1.
<scales pt_clust_4="550.00000" pt_clust_5="550.00000" pt_clust_6="34.28658"></scales>
<mgrwt>
<rscale>  0 0.30000000E+03</rscale>
<asrwt>  1 0.34286578E+02</asrwt>
<pdfrwt beam="1">  1        1 0.82456610E+00 0.30000000E+03</pdfrwt>
<pdfrwt beam="2">0</pdfrwt>
<totfact> 0.66157494E-04</totfact>
</mgrwt>
<clustering>
<clus scale="   34.287">  1  6  2 -1</clus>
<clus scale="  458.631">  4  5 -1 -1</clus>
<clus scale="  300.000">  1  4  2 -1</clus>
</clustering>
</event>
<event>
 6    1  0.1033679E-011  0.3000000E+03  0.7818608E-02  0.1093470E+00
          1   -1    0    0  502    0  0.00000000000E+00  0.00000000000E+00  0.22895604618E+03  0.22895604618E+03  0.00000000000E+00 0.  1.
         13   -1    0    0    0    0 -0.00000000000E+00 -0.00000000000E+00 -0.27500000000E+03  0.27500000000E+03  0.00000000000E+00 0.  1.
    9000005    2    1    2  501    0  0.52611168104E+01  0.34805448570E+02 -0.59410733527E+02  0.46630276744E+03  0.46116107496E+03 0.  0.
         13    1    3    3    0    0 -0.71736831880E+02  0.22169442598E+03  0.47255493044E+02  0.23775549033E+03  0.00000000000E+00 0.  1.
          3    1    3    3  501    0  0.76997948690E+02 -0.18688897741E+03 -0.10666622657E+03  0.22854727710E+03  0.00000000000E+00 0.  1.
         21    1    1    2  502  501 -0.52611168104E+01 -0.34805448570E+02  0.13366779703E+02  0.37653278740E+02  0.00000000000E+00 0. -1.
<scales pt_clust_4="550.00000" pt_clust_5="550.00000" pt_clust_6="35.20083"></scales>
<mgrwt>
<rscale>  0 0.30000000E+03</rscale>
<asrwt>  1 0.35200832E+02</asrwt>
<pdfrwt beam="1">  1        1 0.83256744E+00 0.30000000E+03</pdfrwt>
<pdfrwt beam="2">0</pdfrwt>
<totfact> 0.56339646E-04</totfact>
</mgrwt>
<clustering>
<clus scale="   35.201">  1  6  2 -1</clus>
<clus scale="  461.161">  4  5 -1 -1</clus>
<clus scale="  300.000">  1  4  2 -1</clus>
</clustering>
</event>
<event>
 6    1  0.1033679E-011  0.3000000E+03  0.7818608E-02  0.1093470E+00
          1   -1    0    0  502    0  0.00000000000E+00  0.00000000000E+00  0.24358475165E+03  0.24358475165E+03  0.00000000000E+00 0.  1.
         13   -1    0    0    0    0 -0.00000000000E+00 -0.00000000000E+00 -0.27500000000E+03  0.27500000000E+03  0.00000000000E+00 0.  1.
    9000005    2    1    2  501    0 -0.25302291844E+02  0.27239243889E+02 -0.49727964623E+02  0.47714156213E+03  0.47308457750E+03 0.  0.
         13    1    3    3    0    0 -0.16686838762E+03  0.16687133800E+03  0.68596448346E+02  0.24575714631E+03  0.00000000000E+00 0.  1.
          3    1    3    3  501    0  0.14156609578E+03 -0.13963209411E+03 -0.11832441297E+03  0.23138441582E+03  0.00000000000E+00 0.  1.
         21    1    1    2  502  501  0.25302291844E+02 -0.27239243889E+02  0.18312716272E+02  0.41443189519E+02  0.00000000000E+00 0. -1.
<scales pt_clust_4="550.00000" pt_clust_5="550.00000" pt_clust_6="37.17771"></scales>
<mgrwt>
<rscale>  0 0.30000000E+03</rscale>
<asrwt>  1 0.37177713E+02</asrwt>
<pdfrwt beam="1">  1        1 0.88576273E+00 0.30000000E+03</pdfrwt>
<pdfrwt beam="2">0</pdfrwt>
<totfact> 0.16381120E-04</totfact>
</mgrwt>
<clustering>
<clus scale="   37.178">  1  6  2 -1</clus>
<clus scale="  473.085">  4  5 -1 -1</clus>
<clus scale="  300.000">  1  4  2 -1</clus>
</clustering>
</event>
<event>
 6    1  0.1033679E-011  0.3000000E+03  0.7818608E-02  0.1093470E+00
          1   -1    0    0  502    0  0.00000000000E+00  0.00000000000E+00  0.24529593758E+03  0.24529593758E+03  0.00000000000E+00 0.  1.
         13   -1    0    0    0    0 -0.00000000000E+00 -0.00000000000E+00 -0.27500000000E+03  0.27500000000E+03  0.00000000000E+00 0.  1.
    9000005    2    1    2  501    0 -0.43361828244E+02 -0.18559454649E+02 -0.39840516129E+02  0.47205229345E+03  0.46799722170E+03 0.  0.
         13    1    3    3    0    0  0.13830900462E+03  0.29830404683E+02  0.14907392684E+03  0.20552924236E+03  0.00000000000E+00 0.  1.
          3    1    3    3  501    0 -0.18167083286E+03 -0.48389859333E+02 -0.18891444297E+03  0.26652305109E+03  0.00000000000E+00 0.  1.
         21    1    1    2  502  501  0.43361828244E+02  0.18559454649E+02  0.10136453713E+02  0.48243644135E+02  0.00000000000E+00 0. -1.
<scales pt_clust_4="550.00000" pt_clust_5="550.00000" pt_clust_6="47.16674"></scales>
<mgrwt>
<rscale>  0 0.30000000E+03</rscale>
<asrwt>  1 0.47166742E+02</asrwt>
<pdfrwt beam="1">  1        1 0.89198523E+00 0.30000000E+03</pdfrwt>
<pdfrwt beam="2">0</pdfrwt>
<totfact> 0.12948400E-04</totfact>
</mgrwt>
<clustering>
<clus scale="   47.167">  1  6  2 -1</clus>
<clus scale="  467.997">  4  5 -1 -1</clus>
<clus scale="  300.000">  1  4  2 -1</clus>
</clustering>
</event>
<event>
 6    1  0.1033679E-011  0.3000000E+03  0.7818608E-02  0.1093470E+00
          1   -1    0    0  502    0  0.00000000000E+00  0.00000000000E+00  0.22890718137E+03  0.22890718137E+03  0.00000000000E+00 0.  1.
         13   -1    0    0    0    0 -0.00000000000E+00 -0.00000000000E+00 -0.27500000000E+03  0.27500000000E+03  0.00000000000E+00 0.  1.
    9000005    2    1    2  501    0  0.30463113449E+02  0.12053976225E+02 -0.66666667127E+02  0.46522148807E+03  0.45925296824E+03 0.  0.
         13    1    3    3    0    0 -0.49202992343E+02 -0.91219524462E+02 -0.23231522757E+03  0.25438612592E+03  0.00000000000E+00 0.  1.
          3    1    3    3  501    0  0.79666105792E+02  0.10327350069E+03  0.16564856045E+03  0.21083536215E+03  0.00000000000E+00 0.  1.
         21    1    1    2  502  501 -0.30463113449E+02 -0.12053976225E+02  0.20573848497E+02  0.38685693296E+02  0.00000000000E+00 0.  1.
<scales pt_clust_4="550.00000" pt_clust_5="550.00000" pt_clust_6="32.76125"></scales>
<mgrwt>
<rscale>  0 0.30000000E+03</rscale>
<asrwt>  1 0.32761252E+02</asrwt>
<pdfrwt beam="1">  1        1 0.83238975E+00 0.30000000E+03</pdfrwt>
<pdfrwt beam="2">0</pdfrwt>
<totfact> 0.57284543E-04</totfact>
</mgrwt>
<clustering>
<clus scale="   32.761">  1  6  2 -1</clus>
<clus scale="  459.253">  4  5 -1 -1</clus>
<clus scale="  300.000">  1  4  2 -1</clus>
</clustering>
</event>
<event>
 6    1  0.1033679E-011  0.3000000E+03  0.7818608E-02  0.1093470E+00
          1   -1    0    0  502    0  0.00000000000E+00  0.00000000000E+00  0.23499595913E+03  0.23499595913E+03  0.00000000000E+00 0.  1.
         13   -1    0    0    0    0 -0.00000000000E+00 -0.00000000000E+00 -0.27500000000E+03  0.27500000000E+03  0.00000000000E+00 0.  1.
    9000005    2    1    2  501    0  0.10823448648E+02  0.29310348921E+02 -0.36181007739E+02  0.47851804343E+03  0.47612415290E+03 0.  0.
         13    1    3    3    0    0  0.12546992572E+03  0.18701798119E+02  0.18782724630E+03  0.22665289313E+03  0.00000000000E+00 0.  1.
          3    1    3    3  501    0 -0.11464647707E+03  0.10608550801E+02 -0.22400825404E+03  0.25186515029E+03  0.00000000000E+00 0.  1.
         21    1    1    2  502  501 -0.10823448648E+02 -0.29310348921E+02 -0.38230331321E+01  0.31477915700E+02  0.00000000000E+00 0. -1.
<scales pt_clust_4="550.00000" pt_clust_5="550.00000" pt_clust_6="31.24491"></scales>
<mgrwt>
<rscale>  0 0.30000000E+03</rscale>
<asrwt>  1 0.31244913E+02</asrwt>
<pdfrwt beam="1">  1        1 0.85453076E+00 0.30000000E+03</pdfrwt>
<pdfrwt beam="2">0</pdfrwt>
<totfact> 0.37622702E-04</totfact>
</mgrwt>
<clustering>
<clus scale="   31.245">  1  6  2 -1</clus>
<clus scale="  476.124">  4  5 -1 -1</clus>
<clus scale="  300.000">  1  4  2 -1</clus>
</clustering>
</event>
<event>
 6    1  0.1033679E-011  0.3000000E+03  0.7818608E-02  0.1093470E+00
          1   -1    0    0  502    0  0.00000000000E+00  0.00000000000E+00  0.25568328394E+03  0.25568328394E+03  0.00000000000E+00 0.  1.
         13   -1    0    0    0    0 -0.00000000000E+00 -0.00000000000E+00 -0.27500000000E+03  0.27500000000E+03  0.00000000000E+00 0.  1.
    9000005    2    1    2  501    0 -0.15120555083E+02 -0.40971749367E+02 -0.41477856198E+02  0.48170949948E+03  0.47792919340E+03 0.  0.
         13    1    3    3    0    0 -0.22393342742E+03  0.79347130984E+02 -0.38631236485E+02  0.24069590678E+03  0.00000000000E+00 0.  1.
          1    1    3    3  501    0  0.20881287233E+03 -0.12031888035E+03 -0.28466197135E+01  0.24101359270E+03  0.00000000000E+00 0.  1.
         21    1    1    2  502  501  0.15120555083E+02  0.40971749367E+02  0.22161140141E+02  0.48973784462E+02  0.00000000000E+00 0.  1.
<scales pt_clust_4="550.00000" pt_clust_5="550.00000" pt_clust_6="43.67282"></scales>
<mgrwt>
<rscale>  0 0.30000000E+03</rscale>
<asrwt>  1 0.43672823E+02</asrwt>
<pdfrwt beam="1">  1        1 0.92975740E+00 0.30000000E+03</pdfrwt>
<pdfrwt beam="2">0</pdfrwt>
<totfact> 0.25475113E-05</totfact>
</mgrwt>
<clustering>
<clus scale="   43.673">  1  6  2 -1</clus>
<clus scale="  477.929">  4  5 -1 -1</clus>
<clus scale="  300.000">  1  4  2 -1</clus>
</clustering>
</event>
<event>
 6    1  0.1033679E-011  0.3000000E+03  0.7818608E-02  0.1093470E+00
          1   -1    0    0  502    0  0.00000000000E+00  0.00000000000E+00  0.24554210761E+03  0.24554210761E+03  0.00000000000E+00 0.  1.
         13   -1    0    0    0    0 -0.00000000000E+00 -0.00000000000E+00 -0.27500000000E+03  0.27500000000E+03  0.00000000000E+00 0.  1.
    9000005    2    1    2  501    0  0.10699847683E+02  0.33659789100E+02 -0.67170468608E+02  0.46887290452E+03  0.46269045873E+03 0.  0.
         13    1    3    3    0    0 -0.18115204109E+03  0.10285569808E+03 -0.14146984154E+03  0.25181158171E+03  0.00000000000E+00 0.  1.
          3    1    3    3  501    0  0.19185188877E+03 -0.69195908981E+02  0.74299372927E+02  0.21706132281E+03  0.00000000000E+00 0.  1.
         21    1    1    2  502  501 -0.10699847683E+02 -0.33659789100E+02  0.37712576214E+02  0.51669203085E+02  0.00000000000E+00 0.  1.
<scales pt_clust_4="550.00000" pt_clust_5="550.00000" pt_clust_6="35.31952"></scales>
<mgrwt>
<rscale>  0 0.30000000E+03</rscale>
<asrwt>  1 0.35319515E+02</asrwt>
<pdfrwt beam="1">  1        1 0.89288039E+00 0.30000000E+03</pdfrwt>
<pdfrwt beam="2">0</pdfrwt>
<totfact> 0.13313255E-04</totfact>
</mgrwt>
<clustering>
<clus scale="   35.320">  1  6  2 -1</clus>
<clus scale="  462.690">  4  5 -1 -1</clus>
<clus scale="  300.000">  1  4  2 -1</clus>
</clustering>
</event>
<event>
 6    1  0.1033679E-011  0.3000000E+03  0.7818608E-02  0.1093470E+00
          1   -1    0    0  502    0  0.00000000000E+00  0.00000000000E+00  0.23462668877E+03  0.23462668877E+03  0.00000000000E+00 0.  1.
         13   -1    0    0    0    0 -0.00000000000E+00 -0.00000000000E+00 -0.27500000000E+03  0.27500000000E+03  0.00000000000E+00 0.  1.
    9000005    2    1    2  501    0  0.22093355571E+02  0.33079242089E+02 -0.37687146739E+02  0.46975730080E+03  0.46655037028E+03 0.  0.
         13    1    3    3    0    0  0.11547471414E+03 -0.53693802606E+02  0.17821066837E+03  0.21903533131E+03  0.00000000000E+00 0.  1.
          3    1    3    3  501    0 -0.93381358565E+02  0.86773044695E+02 -0.21589781511E+03  0.25072196948E+03  0.00000000000E+00 0.  1.
         21    1    1    2  502  501 -0.22093355571E+02 -0.33079242089E+02 -0.26861644912E+01  0.39869387972E+02  0.00000000000E+00 0.  1.
<scales pt_clust_4="550.00000" pt_clust_5="550.00000" pt_clust_6="39.77880"></scales>
<mgrwt>
<rscale>  0 0.30000000E+03</rscale>
<asrwt>  1 0.39778796E+02</asrwt>
<pdfrwt beam="1">  1        1 0.85318796E+00 0.30000000E+03</pdfrwt>
<pdfrwt beam="2">0</pdfrwt>
<totfact> 0.37060509E-04</totfact>
</mgrwt>
<clustering>
<clus scale="   39.779">  1  6  2 -1</clus>
<clus scale="  466.550">  4  5 -1 -1</clus>
<clus scale="  300.000">  1  4  2 -1</clus>
</clustering>
</event>
<event>
 6    1  0.1033679E-011  0.3000000E+03  0.7818608E-02  0.1093470E+00
          1   -1    0    0  502    0  0.00000000000E+00  0.00000000000E+00  0.26829734549E+03  0.26829734549E+03  0.00000000000E+00 0.  1.
         13   -1    0    0    0    0 -0.00000000000E+00 -0.00000000000E+00 -0.27500000000E+03  0.27500000000E+03  0.00000000000E+00 0.  1.
    9000005    2    1    2  501    0 -0.38557984681E+02 -0.10410213507E+02 -0.31503213180E+02  0.49628502329E+03  0.49367122782E+03 0.  0.
         13    1    3    3    0    0  0.17775122938E+03 -0.21067741160E+02  0.13409804709E+03  0.22365517096E+03  0.00000000000E+00 0.  1.
          3    1    3    3  501    0 -0.21630921406E+03  0.10657527653E+02 -0.16560126027E+03  0.27262985234E+03  0.00000000000E+00 0.  1.
         21    1    1    2  502  501  0.38557984681E+02  0.10410213507E+02  0.24800558668E+02  0.47012322195E+02  0.00000000000E+00 0. -1.
<scales pt_clust_4="550.00000" pt_clust_5="550.00000" pt_clust_6="39.93859"></scales>
<mgrwt>
<rscale>  0 0.30000000E+03</rscale>
<asrwt>  1 0.39938587E+02</asrwt>
<pdfrwt beam="1">  1        1 0.97562671E+00 0.30000000E+03</pdfrwt>
<pdfrwt beam="2">0</pdfrwt>
<totfact> 0.38532876E-06</totfact>
</mgrwt>
<clustering>
<clus scale="   39.939">  1  6  2 -1</clus>
<clus scale="  493.671">  4  5 -1 -1</clus>
<clus scale="  300.000">  1  4  2 -1</clus>
</clustering>
</event>
<event>
 6    1  0.1033679E-011  0.3000000E+03  0.7818608E-02  0.1093470E+00
          1   -1    0    0  502    0  0.00000000000E+00  0.00000000000E+00  0.23570785277E+03  0.23570785277E+03  0.00000000000E+00 0.  1.
         13   -1    0    0    0    0 -0.00000000000E+00 -0.00000000000E+00 -0.27500000000E+03  0.27500000000E+03  0.00000000000E+00 0.  1.
    9000005    2    1    2  501    0  0.15892524212E+02  0.32706876541E+02 -0.59858311433E+02  0.46893131379E+03  0.46367148662E+03 0.  0.
         13    1    3    3    0    0 -0.16444306636E+02  0.20692878409E+03  0.99881463483E+02  0.23036111576E+03  0.00000000000E+00 0.  1.
          1    1    3    3  501    0  0.32336830848E+02 -0.17422190755E+03 -0.15973977492E+03  0.23857019803E+03  0.00000000000E+00 0.  1.
         21    1    1    2  502  501 -0.15892524212E+02 -0.32706876541E+02  0.20566164201E+02  0.41776538976E+02  0.00000000000E+00 0. -1.
<scales pt_clust_4="550.00000" pt_clust_5="550.00000" pt_clust_6="36.36361"></scales>
<mgrwt>
<rscale>  0 0.30000000E+03</rscale>
<asrwt>  1 0.36363610E+02</asrwt>
<pdfrwt beam="1">  1        1 0.85711946E+00 0.30000000E+03</pdfrwt>
<pdfrwt beam="2">0</pdfrwt>
<totfact> 0.34432955E-04</totfact>
</mgrwt>
<clustering>
<clus scale="   36.364">  1  6  2 -1</clus>
<clus scale="  463.671">  4  5 -1 -1</clus>
<clus scale="  300.000">  1  4  2 -1</clus>
</clustering>
</event>
<event>
 6    1  0.1033679E-011  0.3000000E+03  0.7818608E-02  0.1093470E+00
          1   -1    0    0  502    0  0.00000000000E+00  0.00000000000E+00  0.23864841101E+03  0.23864841101E+03  0.00000000000E+00 0.  1.
         13   -1    0    0    0    0 -0.00000000000E+00 -0.00000000000E+00 -0.27500000000E+03  0.27500000000E+03  0.00000000000E+00 0.  1.
    9000005    2    1    2  501    0 -0.33340048722E+02  0.13639707018E+02 -0.34859653541E+02  0.47759530674E+03  0.47495734663E+03 0.  0.
         13    1    3    3    0    0 -0.13260779942E+03  0.77893243344E+02  0.17730038449E+03  0.23470750343E+03  0.00000000000E+00 0.  1.
          3    1    3    3  501    0  0.99267750696E+02 -0.64253536326E+02 -0.21216003803E+03  0.24288780331E+03  0.00000000000E+00 0.  1.
         21    1    1    2  502  501  0.33340048722E+02 -0.13639707018E+02 -0.14919354452E+01  0.36053104272E+02  0.00000000000E+00 0. -1.
<scales pt_clust_4="550.00000" pt_clust_5="550.00000" pt_clust_6="36.02222"></scales>
<mgrwt>
<rscale>  0 0.30000000E+03</rscale>
<asrwt>  1 0.36022222E+02</asrwt>
<pdfrwt beam="1">  1        1 0.86781240E+00 0.30000000E+03</pdfrwt>
<pdfrwt beam="2">0</pdfrwt>
<totfact> 0.26531554E-04</totfact>
</mgrwt>
<clustering>
<clus scale="   36.022">  1  6  2 -1</clus>
<clus scale="  474.957">  4  5 -1 -1</clus>
<clus scale="  300.000">  1  4  2 -1</clus>
</clustering>
</event>
<event>
 6    1  0.1033679E-011  0.3000000E+03  0.7818608E-02  0.1093470E+00
          1   -1    0    0  502    0  0.00000000000E+00  0.00000000000E+00  0.23374731328E+03  0.23374731328E+03  0.00000000000E+00 0.  1.
         13   -1    0    0    0    0 -0.00000000000E+00 -0.00000000000E+00 -0.27500000000E+03  0.27500000000E+03  0.00000000000E+00 0.  1.
    9000005    2    1    2  501    0  0.23759980203E+01  0.38104572020E+02 -0.66254986854E+02  0.46311049933E+03  0.45675377123E+03 0.  0.
         13    1    3    3    0    0  0.14091448151E+03  0.25103632711E+02 -0.21572896342E+03  0.25889393414E+03  0.00000000000E+00 0.  1.
          3    1    3    3  501    0 -0.13853848349E+03  0.13000939309E+02  0.14947397657E+03  0.20421656520E+03  0.00000000000E+00 0.  1.
         21    1    1    2  502  501 -0.23759980203E+01 -0.38104572020E+02  0.25002300135E+02  0.45636813949E+02  0.00000000000E+00 0.  1.
<scales pt_clust_4="550.00000" pt_clust_5="550.00000" pt_clust_6="38.17858"></scales>
<mgrwt>
<rscale>  0 0.30000000E+03</rscale>
<asrwt>  1 0.38178577E+02</asrwt>
<pdfrwt beam="1">  1        1 0.84999023E+00 0.30000000E+03</pdfrwt>
<pdfrwt beam="2">0</pdfrwt>
<totfact> 0.40055869E-04</totfact>
</mgrwt>
<clustering>
<clus scale="   38.179">  1  6  2 -1</clus>
<clus scale="  456.754">  4  5 -1 -1</clus>
<clus scale="  300.000">  1  4  2 -1</clus>
</clustering>
</event>
<event>
 6    1  0.1033679E-011  0.3000000E+03  0.7818608E-02  0.1093470E+00
          1   -1    0    0  502    0  0.00000000000E+00  0.00000000000E+00  0.25139967934E+03  0.25139967934E+03  0.00000000000E+00 0.  1.
         13   -1    0    0    0    0 -0.00000000000E+00 -0.00000000000E+00 -0.27500000000E+03  0.27500000000E+03  0.00000000000E+00 0.  1.
    9000005    2    1    2  501    0  0.16457012901E+02  0.40080666807E+02 -0.34773273824E+02  0.48165453426E+03  0.47843977330E+03 0.  0.
         13    1    3    3    0    0  0.19310039961E+03  0.95048442499E+02  0.11464169690E+03  0.24385382798E+03  0.00000000000E+00 0.  1.
          3    1    3    3  501    0 -0.17664338671E+03 -0.54967775692E+02 -0.14941497072E+03  0.23780070628E+03  0.00000000000E+00 0.  1.
         21    1    1    2  502  501 -0.16457012901E+02 -0.40080666807E+02  0.11172953161E+02  0.44745145074E+02  0.00000000000E+00 0.  1.
<scales pt_clust_4="550.00000" pt_clust_5="550.00000" pt_clust_6="43.32774"></scales>
<mgrwt>
<rscale>  0 0.30000000E+03</rscale>
<asrwt>  1 0.43327741E+02</asrwt>
<pdfrwt beam="1">  1        1 0.91418065E+00 0.30000000E+03</pdfrwt>
<pdfrwt beam="2">0</pdfrwt>
<totfact> 0.54441287E-05</totfact>
</mgrwt>
<clustering>
<clus scale="   43.328">  1  6  2 -1</clus>
<clus scale="  478.440">  4  5 -1 -1</clus>
<clus scale="  300.000">  1  4  2 -1</clus>
</clustering>
</event>
<event>
 6    1  0.1033679E-011  0.3000000E+03  0.7818608E-02  0.1093470E+00
          1   -1    0    0  502    0  0.00000000000E+00  0.00000000000E+00  0.23518639132E+03  0.23518639132E+03  0.00000000000E+00 0.  1.
         13   -1    0    0    0    0 -0.00000000000E+00 -0.00000000000E+00 -0.27500000000E+03  0.27500000000E+03  0.00000000000E+00 0.  1.
    9000005    2    1    2  501    0  0.29204370275E+02 -0.13800747210E+02 -0.35327483796E+02  0.47757533211E+03  0.47517029669E+03 0.  0.
         13    1    3    3    0    0 -0.63417635090E+02 -0.13404822606E+03 -0.20300703425E+03  0.25140123171E+03  0.00000000000E+00 0.  1.
          3    1    3    3  501    0  0.92622005364E+02  0.12024747885E+03  0.16767955046E+03  0.22617410039E+03  0.00000000000E+00 0.  1.
         21    1    1    2  502  501 -0.29204370275E+02  0.13800747210E+02 -0.44861248812E+01  0.32611059215E+02  0.00000000000E+00 0. -1.
<scales pt_clust_4="550.00000" pt_clust_5="550.00000" pt_clust_6="32.30104"></scales>
<mgrwt>
<rscale>  0 0.30000000E+03</rscale>
<asrwt>  1 0.32301036E+02</asrwt>
<pdfrwt beam="1">  1        1 0.85522324E+00 0.30000000E+03</pdfrwt>
<pdfrwt beam="2">0</pdfrwt>
<totfact> 0.36800285E-04</totfact>
</mgrwt>
<clustering>
<clus scale="   32.301">  1  6  2 -1</clus>
<clus scale="  475.170">  4  5 -1 -1</clus>
<clus scale="  300.000">  1  4  2 -1</clus>
</clustering>
</event>
<event>
 6    1  0.1033679E-011  0.3000000E+03  0.7818608E-02  0.1093470E+00
          1   -1    0    0  502    0  0.00000000000E+00  0.00000000000E+00  0.24094962920E+03  0.24094962920E+03  0.00000000000E+00 0.  1.
         13   -1    0    0    0    0 -0.00000000000E+00 -0.00000000000E+00 -0.27500000000E+03  0.27500000000E+03  0.00000000000E+00 0.  1.
    9000005    2    1    2  501    0 -0.33534113622E+02 -0.22804373778E+01 -0.55633444592E+02  0.47600508958E+03  0.47154642187E+03 0.  0.
         13    1    3    3    0    0 -0.61855703599E+02 -0.23041413650E+03 -0.60291677498E+02  0.24607293379E+03  0.00000000000E+00 0.  1.
          3    1    3    3  501    0  0.28321589977E+02  0.22813369912E+03  0.46582329061E+01  0.22993215579E+03  0.00000000000E+00 0.  1.
         21    1    1    2  502  501  0.33534113622E+02  0.22804373778E+01  0.21583073791E+02  0.39944539619E+02  0.00000000000E+00 0. -1.
<scales pt_clust_4="550.00000" pt_clust_5="550.00000" pt_clust_6="33.61156"></scales>
<mgrwt>
<rscale>  0 0.30000000E+03</rscale>
<asrwt>  1 0.33611563E+02</asrwt>
<pdfrwt beam="1">  1        1 0.87618047E+00 0.30000000E+03</pdfrwt>
<pdfrwt beam="2">0</pdfrwt>
<totfact> 0.22013833E-04</totfact>
</mgrwt>
<clustering>
<clus scale="   33.612">  1  6  2 -1</clus>
<clus scale="  471.546">  4  5 -1 -1</clus>
<clus scale="  300.000">  1  4  2 -1</clus>
</clustering>
</event>
<event>
 6    1  0.1033679E-011  0.3000000E+03  0.7818608E-02  0.1093470E+00
          1   -1    0    0  502    0  0.00000000000E+00  0.00000000000E+00  0.24006439229E+03  0.24006439229E+03  0.00000000000E+00 0.  1.
         13   -1    0    0    0    0 -0.00000000000E+00 -0.00000000000E+00 -0.27500000000E+03  0.27500000000E+03  0.00000000000E+00 0.  1.
    9000005    2    1    2  501    0  0.17333649758E+02  0.28647120146E+02 -0.61005489334E+02  0.47262912825E+03  0.46747781790E+03 0.  0.
         13    1    3    3    0    0  0.80408917595E+02 -0.20732103983E+03 -0.51162475080E+02  0.22817801480E+03  0.00000000000E+00 0.  1.
          3    1    3    3  501    0 -0.63075267837E+02  0.23596815997E+03 -0.98430142549E+01  0.24445111344E+03  0.00000000000E+00 0.  1.
         21    1    1    2  502  501 -0.17333649758E+02 -0.28647120146E+02  0.26069881627E+02  0.42435264046E+02  0.00000000000E+00 0. -1.
<scales pt_clust_4="550.00000" pt_clust_5="550.00000" pt_clust_6="33.48302"></scales>
<mgrwt>
<rscale>  0 0.30000000E+03</rscale>
<asrwt>  1 0.33483024E+02</asrwt>
<pdfrwt beam="1">  1        1 0.87296143E+00 0.30000000E+03</pdfrwt>
<pdfrwt beam="2">0</pdfrwt>
<totfact> 0.23816964E-04</totfact>
</mgrwt>
<clustering>
<clus scale="   33.483">  1  6  2 -1</clus>
<clus scale="  467.478">  4  5 -1 -1</clus>
<clus scale="  300.000">  1  4  2 -1</clus>
</clustering>
</event>
<event>
 6    1  0.1033679E-011  0.3000000E+03  0.7818608E-02  0.1093470E+00
          1   -1    0    0  502    0  0.00000000000E+00  0.00000000000E+00  0.23295351197E+03  0.23295351197E+03  0.00000000000E+00 0.  1.
         13   -1    0    0    0    0 -0.00000000000E+00 -0.00000000000E+00 -0.27500000000E+03  0.27500000000E+03  0.00000000000E+00 0.  1.
    9000005    2    1    2  501    0 -0.13603093324E+02 -0.30256455422E+02 -0.41556291801E+02  0.47477614717E+03  0.47178911315E+03 0.  0.
         13    1    3    3    0    0  0.21146918910E+03 -0.10448229030E+03 -0.16206484436E+02  0.23642846077E+03  0.00000000000E+00 0.  1.
          1    1    3    3  501    0 -0.22507228242E+03  0.74225834879E+02 -0.25349807365E+02  0.23834768640E+03  0.00000000000E+00 0.  1.
         21    1    1    2  502  501  0.13603093324E+02  0.30256455422E+02 -0.49019623244E+00  0.33177364799E+02  0.00000000000E+00 0. -1.
<scales pt_clust_4="550.00000" pt_clust_5="550.00000" pt_clust_6="33.17374"></scales>
<mgrwt>
<rscale>  0 0.30000000E+03</rscale>
<asrwt>  1 0.33173743E+02</asrwt>
<pdfrwt beam="1">  1        1 0.84710368E+00 0.30000000E+03</pdfrwt>
<pdfrwt beam="2">0</pdfrwt>
<totfact> 0.43716409E-04</totfact>
</mgrwt>
<clustering>
<clus scale="   33.174">  1  6  2 -1</clus>
<clus scale="  471.789">  4  5 -1 -1</clus>
<clus scale="  300.000">  1  4  2 -1</clus>
</clustering>
</event>
<event>
 6    1  0.1033679E-011  0.3000000E+03  0.7818608E-02  0.1093470E+00
          1   -1    0    0  502    0  0.00000000000E+00  0.00000000000E+00  0.24954310891E+03  0.24954310891E+03  0.00000000000E+00 0.  1.
         13   -1    0    0    0    0 -0.00000000000E+00 -0.00000000000E+00 -0.27500000000E+03  0.27500000000E+03  0.00000000000E+00 0.  1.
    9000005    2    1    2  501    0 -0.38469666034E+02  0.25917274635E+02 -0.17114781729E+02  0.47741338243E+03  0.47484629265E+03 0.  0.
         13    1    3    3    0    0 -0.29980764500E+02 -0.21928848545E+03 -0.57701624051E+02  0.22872639443E+03  0.00000000000E+00 0.  1.
          3    1    3    3  501    0 -0.84889015340E+01  0.24520576009E+03  0.40586842322E+02  0.24868698800E+03  0.00000000000E+00 0.  1.
         21    1    1    2  502  501  0.38469666034E+02 -0.25917274635E+02 -0.83421093586E+01  0.47129726478E+02  0.00000000000E+00 0.  1.
<scales pt_clust_4="550.00000" pt_clust_5="550.00000" pt_clust_6="46.38558"></scales>
<mgrwt>
<rscale>  0 0.30000000E+03</rscale>
<asrwt>  1 0.46385585E+02</asrwt>
<pdfrwt beam="1">  1        1 0.90742949E+00 0.30000000E+03</pdfrwt>
<pdfrwt beam="2">0</pdfrwt>
<totfact> 0.78326980E-05</totfact>
</mgrwt>
<clustering>
<clus scale="   46.386">  1  6  2 -1</clus>
<clus scale="  474.846">  4  5 -1 -1</clus>
<clus scale="  300.000">  1  4  2 -1</clus>
</clustering>
</event>
<event>
 6    1  0.1033679E-011  0.3000000E+03  0.7818608E-02  0.1093470E+00
          1   -1    0    0  502    0  0.00000000000E+00  0.00000000000E+00  0.25392993871E+03  0.25392993871E+03  0.00000000000E+00 0.  1.
         13   -1    0    0    0    0 -0.00000000000E+00 -0.00000000000E+00 -0.27500000000E+03  0.27500000000E+03  0.00000000000E+00 0.  1.
    9000005    2    1    2  501    0  0.11075890770E+02 -0.28911829721E+02 -0.69851568090E+02  0.47115274027E+03  0.46491622239E+03 0.  0.
         13    1    3    3    0    0 -0.33582781081E+02  0.21508415376E+03 -0.39650513624E+02  0.22127168733E+03  0.00000000000E+00 0.  1.
          1    1    3    3  501    0  0.44658671852E+02 -0.24399598348E+03 -0.30201054465E+02  0.24988105294E+03  0.00000000000E+00 0.  1.
         21    1    1    2  502  501 -0.11075890770E+02  0.28911829721E+02  0.48781506796E+02  0.57777198439E+02  0.00000000000E+00 0.  1.
<scales pt_clust_4="550.00000" pt_clust_5="550.00000" pt_clust_6="30.96077"></scales>
<mgrwt>
<rscale>  0 0.30000000E+03</rscale>
<asrwt>  1 0.30960770E+02</asrwt>
<pdfrwt beam="1">  1        1 0.92338160E+00 0.30000000E+03</pdfrwt>
<pdfrwt beam="2">0</pdfrwt>
<totfact> 0.36258843E-05</totfact>
</mgrwt>
<clustering>
<clus scale="   30.961">  1  6  2 -1</clus>
<clus scale="  464.916">  4  5 -1 -1</clus>
<clus scale="  300.000">  1  4  2 -1</clus>
</clustering>
</event>
<event>
 6    1  0.1033679E-011  0.3000000E+03  0.7818608E-02  0.1093470E+00
          1   -1    0    0  502    0  0.00000000000E+00  0.00000000000E+00  0.27160536424E+03  0.27160536424E+03  0.00000000000E+00 0.  1.
         13   -1    0    0    0    0 -0.00000000000E+00 -0.00000000000E+00 -0.27500000000E+03  0.27500000000E+03  0.00000000000E+00 0.  1.
    9000005    2    1    2  501    0 -0.28269831528E+02  0.18226896524E+02 -0.35830783742E+02  0.49987735522E+03  0.49745564834E+03 0.  0.
         13    1    3    3    0    0 -0.23847550038E+02  0.80441802449E+02  0.22057552246E+03  0.23599396249E+03  0.00000000000E+00 0.  1.
          1    1    3    3  501    0 -0.44222814901E+01 -0.62214905925E+02 -0.25640630620E+03  0.26388339272E+03  0.00000000000E+00 0.  1.
         21    1    1    2  502  501  0.28269831528E+02 -0.18226896524E+02  0.32436147984E+02  0.46728009026E+02  0.00000000000E+00 0.  1.
<scales pt_clust_4="550.00000" pt_clust_5="550.00000" pt_clust_6="33.63634"></scales>
<mgrwt>
<rscale>  0 0.30000000E+03</rscale>
<asrwt>  1 0.33636336E+02</asrwt>
<pdfrwt beam="1">  1        1 0.98765587E+00 0.30000000E+03</pdfrwt>
<pdfrwt beam="2">0</pdfrwt>
<totfact> 0.10820502E-06</totfact>
</mgrwt>
<clustering>
<clus scale="   33.636">  1  6  2 -1</clus>
<clus scale="  497.456">  4  5 -1 -1</clus>
<clus scale="  300.000">  1  4  2 -1</clus>
</clustering>
</event>
<event>
 6    1  0.1033679E-011  0.3000000E+03  0.7818608E-02  0.1093470E+00
          1   -1    0    0  502    0  0.00000000000E+00  0.00000000000E+00  0.23835967424E+03  0.23835967424E+03  0.00000000000E+00 0.  1.
         13   -1    0    0    0    0 -0.00000000000E+00 -0.00000000000E+00 -0.27500000000E+03  0.27500000000E+03  0.00000000000E+00 0.  1.
    9000005    2    1    2  501    0 -0.17025432018E+02  0.32015457868E+02 -0.64821294984E+02  0.46743558574E+03  0.46149688153E+03 0.  0.
         13    1    3    3    0    0  0.13111475607E+03  0.59442470561E+00  0.15341101961E+03  0.20180776382E+03  0.00000000000E+00 0.  1.
          1    1    3    3  501    0 -0.14814018809E+03  0.31421033163E+02 -0.21823231459E+03  0.26562782193E+03  0.00000000000E+00 0.  1.
         21    1    1    2  502  501  0.17025432018E+02 -0.32015457868E+02  0.28180969229E+02  0.45924088501E+02  0.00000000000E+00 0.  1.
<scales pt_clust_4="550.00000" pt_clust_5="550.00000" pt_clust_6="36.26093"></scales>
<mgrwt>
<rscale>  0 0.30000000E+03</rscale>
<asrwt>  1 0.36260928E+02</asrwt>
<pdfrwt beam="1">  1        1 0.86676245E+00 0.30000000E+03</pdfrwt>
<pdfrwt beam="2">0</pdfrwt>
<totfact> 0.27179030E-04</totfact>
</mgrwt>
<clustering>
<clus scale="   36.261">  1  6  2 -1</clus>
<clus scale="  461.497">  4  5 -1 -1</clus>
<clus scale="  300.000">  1  4  2 -1</clus>
</clustering>
</event>
<event>
 6    1  0.1033679E-011  0.3000000E+03  0.7818608E-02  0.1093470E+00
          1   -1    0    0  502    0  0.00000000000E+00  0.00000000000E+00  0.23963603277E+03  0.23963603277E+03  0.00000000000E+00 0.  1.
         13   -1    0    0    0    0 -0.00000000000E+00 -0.00000000000E+00 -0.27500000000E+03  0.27500000000E+03  0.00000000000E+00 0.  1.
    9000005    2    1    2  501    0  0.41633028082E+02 -0.14248988138E+02 -0.54788485996E+02  0.46653556895E+03  0.46121287515E+03 0.  0.
         13    1    3    3    0    0 -0.10263616574E+03  0.22887901021E+02 -0.22014425179E+03  0.24397034682E+03  0.00000000000E+00 0.  1.
          1    1    3    3  501    0  0.14426919382E+03 -0.37136889159E+02  0.16535576579E+03  0.22256522213E+03  0.00000000000E+00 0.  1.
         21    1    1    2  502  501 -0.41633028082E+02  0.14248988138E+02  0.19424518766E+02  0.48100463818E+02  0.00000000000E+00 0. -1.
<scales pt_clust_4="550.00000" pt_clust_5="550.00000" pt_clust_6="44.00389"></scales>
<mgrwt>
<rscale>  0 0.30000000E+03</rscale>
<asrwt>  1 0.44003894E+02</asrwt>
<pdfrwt beam="1">  1        1 0.87140376E+00 0.30000000E+03</pdfrwt>
<pdfrwt beam="2">0</pdfrwt>
<totfact> 0.23496870E-04</totfact>
</mgrwt>
<clustering>
<clus scale="   44.004">  1  6  2 -1</clus>
<clus scale="  461.213">  4  5 -1 -1</clus>
<clus scale="  300.000">  1  4  2 -1</clus>
</clustering>
</event>
<event>
 6    1  0.1033679E-011  0.3000000E+03  0.7818608E-02  0.1093470E+00
          1   -1    0    0  502    0  0.00000000000E+00  0.00000000000E+00  0.22915085733E+03  0.22915085733E+03  0.00000000000E+00 0.  1.
         13   -1    0    0    0    0 -0.00000000000E+00 -0.00000000000E+00 -0.27500000000E+03  0.27500000000E+03  0.00000000000E+00 0.  1.
    9000005    2    1    2  501    0 -0.25233297707E+02  0.25027255944E+02 -0.29628489175E+02  0.46508434414E+03  0.46277696241E+03 0.  0.
         13    1    3    3    0    0  0.18880365540E+03  0.82505883186E+02  0.75955393378E+02  0.21959795727E+03  0.00000000000E+00 0.  1.
          3    1    3    3  501    0 -0.21403695311E+03 -0.57478627242E+02 -0.10558388255E+03  0.24548638687E+03  0.00000000000E+00 0.  1.
         21    1    1    2  502  501  0.25233297707E+02 -0.25027255944E+02 -0.16220653494E+02  0.39066513193E+02  0.00000000000E+00 0.  1.
<scales pt_clust_4="550.00000" pt_clust_5="550.00000" pt_clust_6="35.53989"></scales>
<mgrwt>
<rscale>  0 0.30000000E+03</rscale>
<asrwt>  1 0.35539895E+02</asrwt>
<pdfrwt beam="1">  1        1 0.83327584E+00 0.30000000E+03</pdfrwt>
<pdfrwt beam="2">0</pdfrwt>
<totfact> 0.55549877E-04</totfact>
</mgrwt>
<clustering>
<clus scale="   35.540">  1  6  2 -1</clus>
<clus scale="  462.777">  4  5 -1 -1</clus>
<clus scale="  300.000">  1  4  2 -1</clus>
</clustering>
</event>
<event>
 6    1  0.1033679E-011  0.3000000E+03  0.7818608E-02  0.1093470E+00
          1   -1    0    0  502    0  0.00000000000E+00  0.00000000000E+00  0.22297768038E+03  0.22297768038E+03  0.00000000000E+00 0.  1.
         13   -1    0    0    0    0 -0.00000000000E+00 -0.00000000000E+00 -0.27500000000E+03  0.27500000000E+03  0.00000000000E+00 0.  1.
    9000005    2    1    2  501    0  0.28752104712E+02  0.17226487630E+02 -0.55603910670E+02  0.46426917707E+03  0.45970712252E+03 0.  0.
         13    1    3    3    0    0  0.20988413834E+03  0.11937242676E+03  0.21671081578E+02  0.24242682107E+03  0.00000000000E+00 0.  1.
          1    1    3    3  501    0 -0.18113203363E+03 -0.10214593913E+03 -0.77274992248E+02  0.22184235600E+03  0.00000000000E+00 0.  1.
         21    1    1    2  502  501 -0.28752104712E+02 -0.17226487630E+02  0.35815910545E+01  0.33708503317E+02  0.00000000000E+00 0. -1.
<scales pt_clust_4="550.00000" pt_clust_5="550.00000" pt_clust_6="33.51769"></scales>
<mgrwt>
<rscale>  0 0.30000000E+03</rscale>
<asrwt>  1 0.33517688E+02</asrwt>
<pdfrwt beam="1">  1        1 0.81082793E+00 0.30000000E+03</pdfrwt>
<pdfrwt beam="2">0</pdfrwt>
<totfact> 0.86625633E-04</totfact>
</mgrwt>
<clustering>
<clus scale="   33.518">  1  6  2 -1</clus>
<clus scale="  459.707">  4  5 -1 -1</clus>
<clus scale="  300.000">  1  4  2 -1</clus>
</clustering>
</event>
<event>
 6    1  0.1033679E-011  0.3000000E+03  0.7818608E-02  0.1093470E+00
          1   -1    0    0  502    0  0.00000000000E+00  0.00000000000E+00  0.22635118981E+03  0.22635118981E+03  0.00000000000E+00 0.  1.
         13   -1    0    0    0    0 -0.00000000000E+00 -0.00000000000E+00 -0.27500000000E+03  0.27500000000E+03  0.00000000000E+00 0.  1.
    9000005    2    1    2  501    0 -0.23735853095E+02  0.32696723401E+02 -0.43965838955E+02  0.46067691461E+03  0.45679071599E+03 0.  0.
         13    1    3    3    0    0 -0.22579174983E+03  0.73337291853E+02  0.34990998998E+02  0.23996800345E+03  0.00000000000E+00 0.  1.
          3    1    3    3  501    0  0.20205589673E+03 -0.40640568452E+02 -0.78956837953E+02  0.22070891117E+03  0.00000000000E+00 0.  1.
         21    1    1    2  502  501  0.23735853095E+02 -0.32696723401E+02 -0.46829712346E+01  0.40674275198E+02  0.00000000000E+00 0. -1.
<scales pt_clust_4="550.00000" pt_clust_5="550.00000" pt_clust_6="40.40381"></scales>
<mgrwt>
<rscale>  0 0.30000000E+03</rscale>
<asrwt>  1 0.40403813E+02</asrwt>
<pdfrwt beam="1">  1        1 0.82309524E+00 0.30000000E+03</pdfrwt>
<pdfrwt beam="2">0</pdfrwt>
<totfact> 0.66150234E-04</totfact>
</mgrwt>
<clustering>
<clus scale="   40.404">  1  6  2 -1</clus>
<clus scale="  456.791">  4  5 -1 -1</clus>
<clus scale="  300.000">  1  4  2 -1</clus>
</clustering>
</event>
<event>
 6    1  0.1033679E-011  0.3000000E+03  0.7818608E-02  0.1093470E+00
          1   -1    0    0  502    0  0.00000000000E+00  0.00000000000E+00  0.24024480300E+03  0.24024480300E+03  0.00000000000E+00 0.  1.
         13   -1    0    0    0    0 -0.00000000000E+00 -0.00000000000E+00 -0.27500000000E+03  0.27500000000E+03  0.00000000000E+00 0.  1.
    9000005    2    1    2  501    0 -0.33471905858E+02 -0.58223344539E+01 -0.52268950757E+02  0.47702177812E+03  0.47293071959E+03 0.  0.
         13    1    3    3    0    0 -0.82483214814E+02 -0.33861254778E+02  0.19975426789E+03  0.21875061792E+03  0.00000000000E+00 0.  1.
          3    1    3    3  501    0  0.49011308956E+02  0.28038920324E+02 -0.25202321864E+03  0.25827116020E+03  0.00000000000E+00 0.  1.
         21    1    1    2  502  501  0.33471905858E+02  0.58223344539E+01  0.17513753760E+02  0.38223024881E+02  0.00000000000E+00 0. -1.
<scales pt_clust_4="550.00000" pt_clust_5="550.00000" pt_clust_6="33.97452"></scales>
<mgrwt>
<rscale>  0 0.30000000E+03</rscale>
<asrwt>  1 0.33974521E+02</asrwt>
<pdfrwt beam="1">  1        1 0.87361747E+00 0.30000000E+03</pdfrwt>
<pdfrwt beam="2">0</pdfrwt>
<totfact> 0.23384311E-04</totfact>
</mgrwt>
<clustering>
<clus scale="   33.975">  1  6  2 -1</clus>
<clus scale="  472.931">  4  5 -1 -1</clus>
<clus scale="  300.000">  1  4  2 -1</clus>
</clustering>
</event>
<event>
 6    1  0.1033679E-011  0.3000000E+03  0.7818608E-02  0.1093470E+00
          1   -1    0    0  502    0  0.00000000000E+00  0.00000000000E+00  0.24167900869E+03  0.24167900869E+03  0.00000000000E+00 0.  1.
         13   -1    0    0    0    0 -0.00000000000E+00 -0.00000000000E+00 -0.27500000000E+03  0.27500000000E+03  0.00000000000E+00 0.  1.
    9000005    2    1    2  501    0 -0.14308800145E+02  0.42321316520E+02 -0.57319052131E+02  0.46596665796E+03  0.46026472491E+03 0.  0.
         13    1    3    3    0    0 -0.67181157337E+02  0.23266313770E+03  0.40491124635E+02  0.24552998741E+03  0.00000000000E+00 0.  1.
          1    1    3    3  501    0  0.52872357193E+02 -0.19034182118E+03 -0.97810176766E+02  0.22043667055E+03  0.00000000000E+00 0.  1.
         21    1    1    2  502  501  0.14308800145E+02 -0.42321316520E+02  0.23998060820E+02  0.50712350731E+02  0.00000000000E+00 0. -1.
<scales pt_clust_4="550.00000" pt_clust_5="550.00000" pt_clust_6="44.67478"></scales>
<mgrwt>
<rscale>  0 0.30000000E+03</rscale>
<asrwt>  1 0.44674776E+02</asrwt>
<pdfrwt beam="1">  1        1 0.87883276E+00 0.30000000E+03</pdfrwt>
<pdfrwt beam="2">0</pdfrwt>
<totfact> 0.19499163E-04</totfact>
</mgrwt>
<clustering>
<clus scale="   44.675">  1  6  2 -1</clus>
<clus scale="  460.265">  4  5 -1 -1</clus>
<clus scale="  300.000">  1  4  2 -1</clus>
</clustering>
</event>
<event>
 6    1  0.1033679E-011  0.3000000E+03  0.7818608E-02  0.1093470E+00
          1   -1    0    0  502    0  0.00000000000E+00  0.00000000000E+00  0.22899234645E+03  0.22899234645E+03  0.00000000000E+00 0.  1.
         13   -1    0    0    0    0 -0.00000000000E+00 -0.00000000000E+00 -0.27500000000E+03  0.27500000000E+03  0.00000000000E+00 0.  1.
    9000005    2    1    2  501    0 -0.44877314532E+01 -0.39940653789E+02 -0.55670003819E+02  0.46265523756E+03  0.45753177372E+03 0.  0.
         13    1    3    3    0    0  0.18672140619E+03  0.80342867284E+02  0.55744383401E+02  0.21077783596E+03  0.00000000000E+00 0.  1.
          3    1    3    3  501    0 -0.19120913764E+03 -0.12028352107E+03 -0.11141438722E+03  0.25187740160E+03  0.00000000000E+00 0.  1.
         21    1    1    2  502  501  0.44877314532E+01  0.39940653789E+02  0.96623502734E+01  0.41337108891E+02  0.00000000000E+00 0. -1.
<scales pt_clust_4="550.00000" pt_clust_5="550.00000" pt_clust_6="40.19198"></scales>
<mgrwt>
<rscale>  0 0.30000000E+03</rscale>
<asrwt>  1 0.40191984E+02</asrwt>
<pdfrwt beam="1">  1        1 0.83269944E+00 0.30000000E+03</pdfrwt>
<pdfrwt beam="2">0</pdfrwt>
<totfact> 0.54850466E-04</totfact>
</mgrwt>
<clustering>
<clus scale="   40.192">  1  6  2 -1</clus>
<clus scale="  457.532">  4  5 -1 -1</clus>
<clus scale="  300.000">  1  4  2 -1</clus>
</clustering>
</event>
<event>
 6    1  0.1033679E-011  0.3000000E+03  0.7818608E-02  0.1093470E+00
          1   -1    0    0  502    0  0.00000000000E+00  0.00000000000E+00  0.25217654808E+03  0.25217654808E+03  0.00000000000E+00 0.  1.
         13   -1    0    0    0    0 -0.00000000000E+00 -0.00000000000E+00 -0.27500000000E+03  0.27500000000E+03  0.00000000000E+00 0.  1.
    9000005    2    1    2  501    0 -0.20688338623E+02 -0.33222965077E+02 -0.15810027000E+02  0.48741524914E+03  0.48558407653E+03 0.  0.
         13    1    3    3    0    0  0.18328866157E+03 -0.52147874415E+02  0.13457305688E+03  0.23328960951E+03  0.00000000000E+00 0.  1.
          1    1    3    3  501    0 -0.20397700020E+03  0.18924909338E+02 -0.15038308388E+03  0.25412563963E+03  0.00000000000E+00 0.  1.
         21    1    1    2  502  501  0.20688338623E+02  0.33222965077E+02 -0.70134249246E+01  0.39761298931E+02  0.00000000000E+00 0.  1.
<scales pt_clust_4="550.00000" pt_clust_5="550.00000" pt_clust_6="39.13789"></scales>
<mgrwt>
<rscale>  0 0.30000000E+03</rscale>
<asrwt>  1 0.39137888E+02</asrwt>
<pdfrwt beam="1">  1        1 0.91700563E+00 0.30000000E+03</pdfrwt>
<pdfrwt beam="2">0</pdfrwt>
<totfact> 0.47706524E-05</totfact>
</mgrwt>
<clustering>
<clus scale="   39.138">  1  6  2 -1</clus>
<clus scale="  485.584">  4  5 -1 -1</clus>
<clus scale="  300.000">  1  4  2 -1</clus>
</clustering>
</event>
<event>
 6    1  0.1033679E-011  0.3000000E+03  0.7818608E-02  0.1093470E+00
          1   -1    0    0  502    0  0.00000000000E+00  0.00000000000E+00  0.24183577748E+03  0.24183577748E+03  0.00000000000E+00 0.  1.
         13   -1    0    0    0    0 -0.00000000000E+00 -0.00000000000E+00 -0.27500000000E+03  0.27500000000E+03  0.00000000000E+00 0.  1.
    9000005    2    1    2  501    0  0.17090726278E+02  0.34097263524E+02 -0.62506586109E+02  0.46871415442E+03  0.46295914393E+03 0.  0.
         13    1    3    3    0    0 -0.21207990184E+03  0.22307139449E+02 -0.10112729016E+03  0.23601318194E+03  0.00000000000E+00 0.  1.
          3    1    3    3  501    0  0.22917062811E+03  0.11790124075E+02  0.38620704048E+02  0.23270097249E+03  0.00000000000E+00 0.  1.
         21    1    1    2  502  501 -0.17090726278E+02 -0.34097263524E+02  0.29342363586E+02  0.48121623054E+02  0.00000000000E+00 0.  1.
<scales pt_clust_4="550.00000" pt_clust_5="550.00000" pt_clust_6="38.14074"></scales>
<mgrwt>
<rscale>  0 0.30000000E+03</rscale>
<asrwt>  1 0.38140743E+02</asrwt>
<pdfrwt beam="1">  1        1 0.87940283E+00 0.30000000E+03</pdfrwt>
<pdfrwt beam="2">0</pdfrwt>
<totfact> 0.19754108E-04</totfact>
</mgrwt>
<clustering>
<clus scale="   38.141">  1  6  2 -1</clus>
<clus scale="  462.959">  4  5 -1 -1</clus>
<clus scale="  300.000">  1  4  2 -1</clus>
</clustering>
</event>
<event>
 6    1  0.1033679E-011  0.3000000E+03  0.7818608E-02  0.1093470E+00
          1   -1    0    0  502    0  0.00000000000E+00  0.00000000000E+00  0.23447573916E+03  0.23447573916E+03  0.00000000000E+00 0.  1.
         13   -1    0    0    0    0 -0.00000000000E+00 -0.00000000000E+00 -0.27500000000E+03  0.27500000000E+03  0.00000000000E+00 0.  1.
    9000005    2    1    2  501    0  0.31212775768E+02  0.10587199851E+01 -0.50640094682E+02  0.47664757513E+03  0.47291979598E+03 0.  0.
         13    1    3    3    0    0  0.10062803042E+03 -0.19101169286E+03  0.84402671188E+02  0.23180871040E+03  0.00000000000E+00 0.  1.
          1    1    3    3  501    0 -0.69415254649E+02  0.19207041284E+03 -0.13504276587E+03  0.24483886473E+03  0.00000000000E+00 0.  1.
         21    1    1    2  502  501 -0.31212775768E+02 -0.10587199851E+01  0.10115833837E+02  0.32828164027E+02  0.00000000000E+00 0.  1.
<scales pt_clust_4="550.00000" pt_clust_5="550.00000" pt_clust_6="31.23073"></scales>
<mgrwt>
<rscale>  0 0.30000000E+03</rscale>
<asrwt>  1 0.31230726E+02</asrwt>
<pdfrwt beam="1">  1        1 0.85263905E+00 0.30000000E+03</pdfrwt>
<pdfrwt beam="2">0</pdfrwt>
<totfact> 0.39249589E-04</totfact>
</mgrwt>
<clustering>
<clus scale="   31.231">  1  6  2 -1</clus>
<clus scale="  472.920">  4  5 -1 -1</clus>
<clus scale="  300.000">  1  4  2 -1</clus>
</clustering>
</event>
<event>
 6    1  0.1033679E-011  0.3000000E+03  0.7818608E-02  0.1093470E+00
          1   -1    0    0  502    0  0.00000000000E+00  0.00000000000E+00  0.23213826902E+03  0.23213826902E+03  0.00000000000E+00 0.  1.
         13   -1    0    0    0    0 -0.00000000000E+00 -0.00000000000E+00 -0.27500000000E+03  0.27500000000E+03  0.00000000000E+00 0.  1.
    9000005    2    1    2  501    0  0.17852193549E+02  0.26309061708E+02 -0.54983506306E+02  0.47311173556E+03  0.46882903154E+03 0.  0.
         13    1    3    3    0    0  0.60921016816E+02 -0.20358996957E+03 -0.10009511393E+03  0.23490269865E+03  0.00000000000E+00 0.  1.
          1    1    3    3  501    0 -0.43068823267E+02  0.22989903128E+03  0.45111607627E+02  0.23820903691E+03  0.00000000000E+00 0.  1.
         21    1    1    2  502  501 -0.17852193549E+02 -0.26309061708E+02  0.12121775330E+02  0.34026533465E+02  0.00000000000E+00 0.  1.
<scales pt_clust_4="550.00000" pt_clust_5="550.00000" pt_clust_6="31.79414"></scales>
<mgrwt>
<rscale>  0 0.30000000E+03</rscale>
<asrwt>  1 0.31794143E+02</asrwt>
<pdfrwt beam="1">  1        1 0.84413916E+00 0.30000000E+03</pdfrwt>
<pdfrwt beam="2">0</pdfrwt>
<totfact> 0.46806773E-04</totfact>
</mgrwt>
<clustering>
<clus scale="   31.794">  1  6  2 -1</clus>
<clus scale="  468.829">  4  5 -1 -1</clus>
<clus scale="  300.000">  1  4  2 -1</clus>
</clustering>
</event>
<event>
 6    1  0.1033679E-011  0.3000000E+03  0.7818608E-02  0.1093470E+00
          1   -1    0    0  502    0  0.00000000000E+00  0.00000000000E+00  0.24145502921E+03  0.24145502921E+03  0.00000000000E+00 0.  1.
         13   -1    0    0    0    0 -0.00000000000E+00 -0.00000000000E+00 -0.27500000000E+03  0.27500000000E+03  0.00000000000E+00 0.  1.
    9000005    2    1    2  501    0 -0.38723419488E+02 -0.54567242849E+01 -0.22740412074E+02  0.47588388743E+03  0.47372889812E+03 0.  0.
         13    1    3    3    0    0 -0.42471060945E+01  0.14328232216E+03 -0.19736214042E+03  0.24392555468E+03  0.00000000000E+00 0.  1.
          1    1    3    3  501    0 -0.34476313393E+02 -0.14873904645E+03  0.17462172834E+03  0.23195833275E+03  0.00000000000E+00 0.  1.
         21    1    1    2  502  501  0.38723419488E+02  0.54567242849E+01 -0.10804558711E+02  0.40571141784E+02  0.00000000000E+00 0. -1.
<scales pt_clust_4="550.00000" pt_clust_5="550.00000" pt_clust_6="39.10602"></scales>
<mgrwt>
<rscale>  0 0.30000000E+03</rscale>
<asrwt>  1 0.39106017E+02</asrwt>
<pdfrwt beam="1">  1        1 0.87801829E+00 0.30000000E+03</pdfrwt>
<pdfrwt beam="2">0</pdfrwt>
<totfact> 0.20416378E-04</totfact>
</mgrwt>
<clustering>
<clus scale="   39.106">  1  6  2 -1</clus>
<clus scale="  473.729">  4  5 -1 -1</clus>
<clus scale="  300.000">  1  4  2 -1</clus>
</clustering>
</event>
<event>
 6    1  0.1033679E-011  0.3000000E+03  0.7818608E-02  0.1093470E+00
          1   -1    0    0  502    0  0.00000000000E+00  0.00000000000E+00  0.23806806245E+03  0.23806806245E+03  0.00000000000E+00 0.  1.
         13   -1    0    0    0    0 -0.00000000000E+00 -0.00000000000E+00 -0.27500000000E+03  0.27500000000E+03  0.00000000000E+00 0.  1.
    9000005    2    1    2  501    0  0.38806813484E+02 -0.49509861917E+01 -0.65318675972E+02  0.46473289973E+03  0.45845355012E+03 0.  0.
         13    1    3    3    0    0  0.60465465207E+02 -0.15913443511E+01 -0.26095466121E+03  0.26787299242E+03  0.00000000000E+00 0.  1.
          1    1    3    3  501    0 -0.21658651723E+02 -0.33596418406E+01  0.19563598524E+03  0.19685990731E+03  0.00000000000E+00 0.  1.
         21    1    1    2  502  501 -0.38806813484E+02  0.49509861917E+01  0.28386738418E+02  0.48335162718E+02  0.00000000000E+00 0.  1.
<scales pt_clust_4="550.00000" pt_clust_5="550.00000" pt_clust_6="39.12136"></scales>
<mgrwt>
<rscale>  0 0.30000000E+03</rscale>
<asrwt>  1 0.39121363E+02</asrwt>
<pdfrwt beam="1">  1        1 0.86570205E+00 0.30000000E+03</pdfrwt>
<pdfrwt beam="2">0</pdfrwt>
<totfact> 0.27505967E-04</totfact>
</mgrwt>
<clustering>
<clus scale="   39.121">  1  6  2 -1</clus>
<clus scale="  458.454">  4  5 -1 -1</clus>
<clus scale="  300.000">  1  4  2 -1</clus>
</clustering>
</event>
<event>
 6    1  0.1033679E-011  0.3000000E+03  0.7818608E-02  0.1093470E+00
          1   -1    0    0  502    0  0.00000000000E+00  0.00000000000E+00  0.23259950237E+03  0.23259950237E+03  0.00000000000E+00 0.  1.
         13   -1    0    0    0    0 -0.00000000000E+00 -0.00000000000E+00 -0.27500000000E+03  0.27500000000E+03  0.00000000000E+00 0.  1.
    9000005    2    1    2  501    0 -0.27506276825E+02 -0.36950965789E+02 -0.48129720936E+02  0.46117975294E+03  0.45634233350E+03 0.  0.
         13    1    3    3    0    0  0.51205644236E+02 -0.62811982179E+02  0.19133388619E+03  0.20778839984E+03  0.00000000000E+00 0.  1.
          3    1    3    3  501    0 -0.78711921061E+02  0.25861016390E+02 -0.23946360712E+03  0.25339135309E+03  0.00000000000E+00 0.  1.
         21    1    1    2  502  501  0.27506276825E+02  0.36950965789E+02  0.57292233029E+01  0.46419749431E+02  0.00000000000E+00 0. -1.
<scales pt_clust_4="550.00000" pt_clust_5="550.00000" pt_clust_6="46.06484"></scales>
<mgrwt>
<rscale>  0 0.30000000E+03</rscale>
<asrwt>  1 0.46064836E+02</asrwt>
<pdfrwt beam="1">  1        1 0.84581637E+00 0.30000000E+03</pdfrwt>
<pdfrwt beam="2">0</pdfrwt>
<totfact> 0.42269425E-04</totfact>
</mgrwt>
<clustering>
<clus scale="   46.065">  1  6  2 -1</clus>
<clus scale="  456.342">  4  5 -1 -1</clus>
<clus scale="  300.000">  1  4  2 -1</clus>
</clustering>
</event>
<event>
 6    1  0.1033679E-011  0.3000000E+03  0.7818608E-02  0.1093470E+00
          1   -1    0    0  502    0  0.00000000000E+00  0.00000000000E+00  0.24655100443E+03  0.24655100443E+03  0.00000000000E+00 0.  1.
         13   -1    0    0    0    0 -0.00000000000E+00 -0.00000000000E+00 -0.27500000000E+03  0.27500000000E+03  0.00000000000E+00 0.  1.
    9000005    2    1    2  501    0 -0.58357959761E+02 -0.13189224961E+02 -0.34182386088E+02  0.46144710364E+03  0.45627336852E+03 0.  0.
         13    1    3    3    0    0  0.14066881451E+03  0.11686556173E+03 -0.10813654479E+03  0.21245890712E+03  0.00000000000E+00 0.  1.
          3    1    3    3  501    0 -0.19902677427E+03 -0.13005478669E+03  0.73954158704E+02  0.24898819652E+03  0.00000000000E+00 0.  1.
         21    1    1    2  502  501  0.58357959761E+02  0.13189224961E+02  0.57333905142E+01  0.60103900782E+02  0.00000000000E+00 0.  1.
<scales pt_clust_4="550.00000" pt_clust_5="550.00000" pt_clust_6="59.82982"></scales>
<mgrwt>
<rscale>  0 0.30000000E+03</rscale>
<asrwt>  1 0.59829818E+02</asrwt>
<pdfrwt beam="1">  1        1 0.89654911E+00 0.30000000E+03</pdfrwt>
<pdfrwt beam="2">0</pdfrwt>
<totfact> 0.11012721E-04</totfact>
</mgrwt>
<clustering>
<clus scale="   59.830">  1  6  2 -1</clus>
<clus scale="  456.273">  4  5 -1 -1</clus>
<clus scale="  300.000">  1  4  2 -1</clus>
</clustering>
</event>
<event>
 6    1  0.1033679E-011  0.3000000E+03  0.7818608E-02  0.1093470E+00
          1   -1    0    0  502    0  0.00000000000E+00  0.00000000000E+00  0.25053777890E+03  0.25053777890E+03  0.00000000000E+00 0.  1.
         13   -1    0    0    0    0 -0.00000000000E+00 -0.00000000000E+00 -0.27500000000E+03  0.27500000000E+03  0.00000000000E+00 0.  1.
    9000005    2    1    2  501    0 -0.55901545182E+02  0.40853045098E+01 -0.30399669870E+02  0.46917355474E+03  0.46482040841E+03 0.  0.
         13    1    3    3    0    0  0.19346630133E+03 -0.17696598063E+00  0.62069095038E+02  0.20317926475E+03  0.00000000000E+00 0.  1.
          3    1    3    3  501    0 -0.24936784651E+03  0.42622704904E+01 -0.92468764907E+02  0.26599428999E+03  0.00000000000E+00 0.  1.
         21    1    1    2  502  501  0.55901545182E+02 -0.40853045098E+01  0.59374487673E+01  0.56364224155E+02  0.00000000000E+00 0. -1.
<scales pt_clust_4="550.00000" pt_clust_5="550.00000" pt_clust_6="56.05062"></scales>
<mgrwt>
<rscale>  0 0.30000000E+03</rscale>
<asrwt>  1 0.56050624E+02</asrwt>
<pdfrwt beam="1">  1        1 0.91104647E+00 0.30000000E+03</pdfrwt>
<pdfrwt beam="2">0</pdfrwt>
<totfact> 0.62239846E-05</totfact>
</mgrwt>
<clustering>
<clus scale="   56.051">  1  6  2 -1</clus>
<clus scale="  464.820">  4  5 -1 -1</clus>
<clus scale="  300.000">  1  4  2 -1</clus>
</clustering>
</event>
<event>
 6    1  0.1033679E-011  0.3000000E+03  0.7818608E-02  0.1093470E+00
          1   -1    0    0  502    0  0.00000000000E+00  0.00000000000E+00  0.23964010613E+03  0.23964010613E+03  0.00000000000E+00 0.  1.
         13   -1    0    0    0    0 -0.00000000000E+00 -0.00000000000E+00 -0.27500000000E+03  0.27500000000E+03  0.00000000000E+00 0.  1.
    9000005    2    1    2  501    0 -0.37316967572E+02 -0.32419141783E+01 -0.59916182572E+02  0.46985085082E+03  0.46450705808E+03 0.  0.
         13    1    3    3    0    0  0.18652377202E+03 -0.10071028296E+03  0.20113328634E+02  0.21292774505E+03  0.00000000000E+00 0.  1.
          1    1    3    3  501    0 -0.22384073959E+03  0.97468368783E+02 -0.80029511206E+02  0.25692310577E+03  0.00000000000E+00 0.  1.
         21    1    1    2  502  501  0.37316967572E+02  0.32419141783E+01  0.24556288704E+02  0.44789255310E+02  0.00000000000E+00 0.  1.
<scales pt_clust_4="550.00000" pt_clust_5="550.00000" pt_clust_6="37.45752"></scales>
<mgrwt>
<rscale>  0 0.30000000E+03</rscale>
<asrwt>  1 0.37457524E+02</asrwt>
<pdfrwt beam="1">  1        1 0.87141857E+00 0.30000000E+03</pdfrwt>
<pdfrwt beam="2">0</pdfrwt>
<totfact> 0.24187372E-04</totfact>
</mgrwt>
<clustering>
<clus scale="   37.458">  1  6  2 -1</clus>
<clus scale="  464.507">  4  5 -1 -1</clus>
<clus scale="  300.000">  1  4  2 -1</clus>
</clustering>
</event>
<event>
 6    1  0.1033679E-011  0.3000000E+03  0.7818608E-02  0.1093470E+00
          1   -1    0    0  502    0  0.00000000000E+00  0.00000000000E+00  0.23822650064E+03  0.23822650064E+03  0.00000000000E+00 0.  1.
         13   -1    0    0    0    0 -0.00000000000E+00 -0.00000000000E+00 -0.27500000000E+03  0.27500000000E+03  0.00000000000E+00 0.  1.
    9000005    2    1    2  501    0 -0.31994621758E+02 -0.15909213433E+02 -0.40905361227E+02  0.47725663581E+03  0.47415597534E+03 0.  0.
         13    1    3    3    0    0  0.20480058098E+03  0.61001750467E+02  0.35942294256E+02  0.21669411632E+03  0.00000000000E+00 0.  1.
          3    1    3    3  501    0 -0.23679520274E+03 -0.76910963900E+02 -0.76847655483E+02  0.26056251949E+03  0.00000000000E+00 0.  1.
         21    1    1    2  502  501  0.31994621758E+02  0.15909213433E+02  0.41318618635E+01  0.35969864831E+02  0.00000000000E+00 0.  1.
<scales pt_clust_4="550.00000" pt_clust_5="550.00000" pt_clust_6="35.73176"></scales>
<mgrwt>
<rscale>  0 0.30000000E+03</rscale>
<asrwt>  1 0.35731763E+02</asrwt>
<pdfrwt beam="1">  1        1 0.86627818E+00 0.30000000E+03</pdfrwt>
<pdfrwt beam="2">0</pdfrwt>
<totfact> 0.27577383E-04</totfact>
</mgrwt>
<clustering>
<clus scale="   35.732">  1  6  2 -1</clus>
<clus scale="  474.156">  4  5 -1 -1</clus>
<clus scale="  300.000">  1  4  2 -1</clus>
</clustering>
</event>
<event>
 6    1  0.1033679E-011  0.3000000E+03  0.7818608E-02  0.1093470E+00
          1   -1    0    0  502    0  0.00000000000E+00  0.00000000000E+00  0.22740073219E+03  0.22740073219E+03  0.00000000000E+00 0.  1.
         13   -1    0    0    0    0 -0.00000000000E+00 -0.00000000000E+00 -0.27500000000E+03  0.27500000000E+03  0.00000000000E+00 0.  1.
    9000005    2    1    2  501    0 -0.22766778534E+02  0.26117213659E+02 -0.51856370090E+02  0.46749288245E+03  0.46331423134E+03 0.  0.
         13    1    3    3    0    0  0.19012215184E+03 -0.45420848678E+02 -0.12413953484E+03  0.23156016546E+03  0.00000000000E+00 0.  1.
          1    1    3    3  501    0 -0.21288893038E+03  0.71538062337E+02  0.72283164749E+02  0.23593271699E+03  0.00000000000E+00 0.  1.
         21    1    1    2  502  501  0.22766778534E+02 -0.26117213659E+02  0.42571022838E+01  0.34907849747E+02  0.00000000000E+00 0. -1.
<scales pt_clust_4="550.00000" pt_clust_5="550.00000" pt_clust_6="34.64730"></scales>
<mgrwt>
<rscale>  0 0.30000000E+03</rscale>
<asrwt>  1 0.34647295E+02</asrwt>
<pdfrwt beam="1">  1        1 0.82691175E+00 0.30000000E+03</pdfrwt>
<pdfrwt beam="2">0</pdfrwt>
<totfact> 0.62933830E-04</totfact>
</mgrwt>
<clustering>
<clus scale="   34.647">  1  6  2 -1</clus>
<clus scale="  463.314">  4  5 -1 -1</clus>
<clus scale="  300.000">  1  4  2 -1</clus>
</clustering>
</event>
<event>
 6    1  0.1033679E-011  0.3000000E+03  0.7818608E-02  0.1093470E+00
          1   -1    0    0  502    0  0.00000000000E+00  0.00000000000E+00  0.22890579833E+03  0.22890579833E+03  0.00000000000E+00 0.  1.
         13   -1    0    0    0    0 -0.00000000000E+00 -0.00000000000E+00 -0.27500000000E+03  0.27500000000E+03  0.00000000000E+00 0.  1.
    9000005    2    1    2  501    0 -0.27131496598E+01 -0.34757511705E+02 -0.64861246399E+02  0.46431226642E+03  0.45843587738E+03 0.  0.
         13    1    3    3    0    0 -0.15611929395E+03 -0.15266889159E+03  0.69037691540E+02  0.22901359623E+03  0.00000000000E+00 0.  1.
          3    1    3    3  501    0  0.15340614429E+03  0.11791137989E+03 -0.13389893794E+03  0.23529867019E+03  0.00000000000E+00 0.  1.
         21    1    1    2  502  501  0.27131496598E+01  0.34757511705E+02  0.18767044728E+02  0.39593531906E+02  0.00000000000E+00 0. -1.
<scales pt_clust_4="550.00000" pt_clust_5="550.00000" pt_clust_6="34.86324"></scales>
<mgrwt>
<rscale>  0 0.30000000E+03</rscale>
<asrwt>  1 0.34863244E+02</asrwt>
<pdfrwt beam="1">  1        1 0.83238472E+00 0.30000000E+03</pdfrwt>
<pdfrwt beam="2">0</pdfrwt>
<totfact> 0.56622950E-04</totfact>
</mgrwt>
<clustering>
<clus scale="   34.863">  1  6  2 -1</clus>
<clus scale="  458.436">  4  5 -1 -1</clus>
<clus scale="  300.000">  1  4  2 -1</clus>
</clustering>
</event>
<event>
 6    1  0.1033679E-011  0.3000000E+03  0.7818608E-02  0.1093470E+00
          1   -1    0    0  502    0  0.00000000000E+00  0.00000000000E+00  0.22922016346E+03  0.22922016346E+03  0.00000000000E+00 0.  1.
         13   -1    0    0    0    0 -0.00000000000E+00 -0.00000000000E+00 -0.27500000000E+03  0.27500000000E+03  0.00000000000E+00 0.  1.
    9000005    2    1    2  501    0  0.27239305880E+02 -0.17000732131E+02 -0.69605685491E+02  0.46423671993E+03  0.45786436420E+03 0.  0.
         13    1    3    3    0    0 -0.17630156690E+03 -0.62358942060E+02 -0.15102358574E+03  0.24037263487E+03  0.00000000000E+00 0.  1.
          1    1    3    3  501    0  0.20354087278E+03  0.45358209929E+02  0.81417900253E+02  0.22386408506E+03  0.00000000000E+00 0.  1.
         21    1    1    2  502  501 -0.27239305880E+02  0.17000732131E+02  0.23825848948E+02  0.39983443523E+02  0.00000000000E+00 0.  1.
<scales pt_clust_4="550.00000" pt_clust_5="550.00000" pt_clust_6="32.10926"></scales>
<mgrwt>
<rscale>  0 0.30000000E+03</rscale>
<asrwt>  1 0.32109262E+02</asrwt>
<pdfrwt beam="1">  1        1 0.83352787E+00 0.30000000E+03</pdfrwt>
<pdfrwt beam="2">0</pdfrwt>
<totfact> 0.56376448E-04</totfact>
</mgrwt>
<clustering>
<clus scale="   32.109">  1  6  2 -1</clus>
<clus scale="  457.864">  4  5 -1 -1</clus>
<clus scale="  300.000">  1  4  2 -1</clus>
</clustering>
</event>
<event>
 6    1  0.1033679E-011  0.3000000E+03  0.7818608E-02  0.1093470E+00
          1   -1    0    0  502    0  0.00000000000E+00  0.00000000000E+00  0.23718120598E+03  0.23718120598E+03  0.00000000000E+00 0.  1.
         13   -1    0    0    0    0 -0.00000000000E+00 -0.00000000000E+00 -0.27500000000E+03  0.27500000000E+03  0.00000000000E+00 0.  1.
    9000005    2    1    2  501    0 -0.39828875580E+02 -0.21456589562E+02 -0.52341047073E+02  0.46466678291E+03  0.45948765965E+03 0.  0.
         13    1    3    3    0    0  0.13418358692E+03  0.14441285277E+03 -0.97716773597E+02  0.22002016927E+03  0.00000000000E+00 0.  1.
          1    1    3    3  501    0 -0.17401246250E+03 -0.16586944233E+03  0.45375726524E+02  0.24464661364E+03  0.00000000000E+00 0.  1.
         21    1    1    2  502  501  0.39828875580E+02  0.21456589562E+02  0.14522253049E+02  0.47514423065E+02  0.00000000000E+00 0.  1.
<scales pt_clust_4="550.00000" pt_clust_5="550.00000" pt_clust_6="45.24074"></scales>
<mgrwt>
<rscale>  0 0.30000000E+03</rscale>
<asrwt>  1 0.45240740E+02</asrwt>
<pdfrwt beam="1">  1        1 0.86247711E+00 0.30000000E+03</pdfrwt>
<pdfrwt beam="2">0</pdfrwt>
<totfact> 0.29027835E-04</totfact>
</mgrwt>
<clustering>
<clus scale="   45.241">  1  6  2 -1</clus>
<clus scale="  459.488">  4  5 -1 -1</clus>
<clus scale="  300.000">  1  4  2 -1</clus>
</clustering>
</event>
<event>
 6    1  0.1033679E-011  0.3000000E+03  0.7818608E-02  0.1093470E+00
          1   -1    0    0  502    0  0.00000000000E+00  0.00000000000E+00  0.25557573623E+03  0.25557573623E+03  0.00000000000E+00 0.  1.
         13   -1    0    0    0    0 -0.00000000000E+00 -0.00000000000E+00 -0.27500000000E+03  0.27500000000E+03  0.00000000000E+00 0.  1.
    9000005    2    1    2  501    0 -0.50739274264E+02 -0.14639006057E+02 -0.36762973328E+02  0.47499331724E+03  0.47061487521E+03 0.  0.
         13    1    3    3    0    0 -0.30269332527E+02  0.15454957562E+03  0.15325483391E+03  0.21974723646E+03  0.00000000000E+00 0.  1.
          3    1    3    3  501    0 -0.20469941737E+02 -0.16918858168E+03 -0.19001780724E+03  0.25524608078E+03  0.00000000000E+00 0.  1.
         21    1    1    2  502  501  0.50739274264E+02  0.14639006057E+02  0.17338709559E+02  0.55582418986E+02  0.00000000000E+00 0.  1.
<scales pt_clust_4="550.00000" pt_clust_5="550.00000" pt_clust_6="52.80885"></scales>
<mgrwt>
<rscale>  0 0.30000000E+03</rscale>
<asrwt>  1 0.52808848E+02</asrwt>
<pdfrwt beam="1">  1        1 0.92936631E+00 0.30000000E+03</pdfrwt>
<pdfrwt beam="2">0</pdfrwt>
<totfact> 0.25004783E-05</totfact>
</mgrwt>
<clustering>
<clus scale="   52.809">  1  6  2 -1</clus>
<clus scale="  470.615">  4  5 -1 -1</clus>
<clus scale="  300.000">  1  4  2 -1</clus>
</clustering>
</event>
<event>
 6    1  0.1033679E-011  0.3000000E+03  0.7818608E-02  0.1093470E+00
          1   -1    0    0  502    0  0.00000000000E+00  0.00000000000E+00  0.22954344702E+03  0.22954344702E+03  0.00000000000E+00 0.  1.
         13   -1    0    0    0    0 -0.00000000000E+00 -0.00000000000E+00 -0.27500000000E+03  0.27500000000E+03  0.00000000000E+00 0.  1.
    9000005    2    1    2  501    0  0.35081745090E+02  0.19676806189E+02 -0.51151251569E+02  0.46391913001E+03  0.45933278036E+03 0.  0.
         13    1    3    3    0    0 -0.20724110187E+03  0.59217947458E+02 -0.26423288781E+02  0.21714932603E+03  0.00000000000E+00 0.  1.
          1    1    3    3  501    0  0.24232284696E+03 -0.39541141269E+02 -0.24727962788E+02  0.24676980398E+03  0.00000000000E+00 0.  1.
         21    1    1    2  502  501 -0.35081745090E+02 -0.19676806189E+02  0.56946985843E+01  0.40624317007E+02  0.00000000000E+00 0.  1.
<scales pt_clust_4="550.00000" pt_clust_5="550.00000" pt_clust_6="40.22320"></scales>
<mgrwt>
<rscale>  0 0.30000000E+03</rscale>
<asrwt>  1 0.40223197E+02</asrwt>
<pdfrwt beam="1">  1        1 0.83470344E+00 0.30000000E+03</pdfrwt>
<pdfrwt beam="2">0</pdfrwt>
<totfact> 0.52991034E-04</totfact>
</mgrwt>
<clustering>
<clus scale="   40.223">  1  6  2 -1</clus>
<clus scale="  459.333">  4  5 -1 -1</clus>
<clus scale="  300.000">  1  4  2 -1</clus>
</clustering>
</event>
<event>
 6    1  0.1033679E-011  0.3000000E+03  0.7818608E-02  0.1093470E+00
          1   -1    0    0  502    0  0.00000000000E+00  0.00000000000E+00  0.22337211212E+03  0.22337211212E+03  0.00000000000E+00 0.  1.
         13   -1    0    0    0    0 -0.00000000000E+00 -0.00000000000E+00 -0.27500000000E+03  0.27500000000E+03  0.00000000000E+00 0.  1.
    9000005    2    1    2  501    0  0.24582080436E+02  0.22877757811E+02 -0.65179403955E+02  0.46216004136E+03  0.45630678129E+03 0.  0.
         13    1    3    3    0    0 -0.74847529812E+02  0.13314409941E+03  0.14114240451E+03  0.20796798378E+03  0.00000000000E+00 0.  1.
          3    1    3    3  501    0  0.99429610248E+02 -0.11026634160E+03 -0.20632180847E+03  0.25419205757E+03  0.00000000000E+00 0.  1.
         21    1    1    2  502  501 -0.24582080436E+02 -0.22877757811E+02  0.13551516077E+02  0.36212070763E+02  0.00000000000E+00 0.  1.
<scales pt_clust_4="550.00000" pt_clust_5="550.00000" pt_clust_6="33.58081"></scales>
<mgrwt>
<rscale>  0 0.30000000E+03</rscale>
<asrwt>  1 0.33580805E+02</asrwt>
<pdfrwt beam="1">  1        1 0.81226223E+00 0.30000000E+03</pdfrwt>
<pdfrwt beam="2">0</pdfrwt>
<totfact> 0.84372067E-04</totfact>
</mgrwt>
<clustering>
<clus scale="   33.581">  1  6  2 -1</clus>
<clus scale="  456.307">  4  5 -1 -1</clus>
<clus scale="  300.000">  1  4  2 -1</clus>
</clustering>
</event>
<event>
 6    1  0.1033679E-011  0.3000000E+03  0.7818608E-02  0.1093470E+00
          1   -1    0    0  502    0  0.00000000000E+00  0.00000000000E+00  0.23659522073E+03  0.23659522073E+03  0.00000000000E+00 0.  1.
         13   -1    0    0    0    0 -0.00000000000E+00 -0.00000000000E+00 -0.27500000000E+03  0.27500000000E+03  0.00000000000E+00 0.  1.
    9000005    2    1    2  501    0 -0.68090728964E+01  0.32726499727E+02 -0.42445063577E+02  0.47792459324E+03  0.47486097560E+03 0.  0.
         13    1    3    3    0    0 -0.26588648293E+02 -0.14610733898E+03  0.15234589841E+03  0.21275239948E+03  0.00000000000E+00 0.  1.
          1    1    3    3  501    0  0.19779575397E+02  0.17883383871E+03 -0.19479096199E+03  0.26517219376E+03  0.00000000000E+00 0.  1.
         21    1    1    2  502  501  0.68090728964E+01 -0.32726499727E+02  0.40402843039E+01  0.33670627487E+02  0.00000000000E+00 0.  1.
<scales pt_clust_4="550.00000" pt_clust_5="550.00000" pt_clust_6="33.42734"></scales>
<mgrwt>
<rscale>  0 0.30000000E+03</rscale>
<asrwt>  1 0.33427343E+02</asrwt>
<pdfrwt beam="1">  1        1 0.86034626E+00 0.30000000E+03</pdfrwt>
<pdfrwt beam="2">0</pdfrwt>
<totfact> 0.32350123E-04</totfact>
</mgrwt>
<clustering>
<clus scale="   33.427">  1  6  2 -1</clus>
<clus scale="  474.861">  4  5 -1 -1</clus>
<clus scale="  300.000">  1  4  2 -1</clus>
</clustering>
</event>
<event>
 6    1  0.1033679E-011  0.3000000E+03  0.7818608E-02  0.1093470E+00
          1   -1    0    0  502    0  0.00000000000E+00  0.00000000000E+00  0.23328667390E+03  0.23328667390E+03  0.00000000000E+00 0.  1.
         13   -1    0    0    0    0 -0.00000000000E+00 -0.00000000000E+00 -0.27500000000E+03  0.27500000000E+03  0.00000000000E+00 0.  1.
    9000005    2    1    2  501    0  0.86588674129E+01  0.41602679624E+02 -0.29010056309E+02  0.46393431206E+03  0.46107234097E+03 0.  0.
         13    1    3    3    0    0 -0.10506782639E+03  0.62530935123E+02 -0.21359801822E+03  0.24611680027E+03  0.00000000000E+00 0.  1.
          1    1    3    3  501    0  0.11372669380E+03 -0.20928255499E+02  0.18458796191E+03  0.21781751179E+03  0.00000000000E+00 0.  1.
         21    1    1    2  502  501 -0.86588674129E+01 -0.41602679624E+02 -0.12703269793E+02  0.44352361834E+02  0.00000000000E+00 0. -1.
<scales pt_clust_4="550.00000" pt_clust_5="550.00000" pt_clust_6="42.49424"></scales>
<mgrwt>
<rscale>  0 0.30000000E+03</rscale>
<asrwt>  1 0.42494244E+02</asrwt>
<pdfrwt beam="1">  1        1 0.84831518E+00 0.30000000E+03</pdfrwt>
<pdfrwt beam="2">0</pdfrwt>
<totfact> 0.40714488E-04</totfact>
</mgrwt>
<clustering>
<clus scale="   42.494">  1  6  2 -1</clus>
<clus scale="  461.072">  4  5 -1 -1</clus>
<clus scale="  300.000">  1  4  2 -1</clus>
</clustering>
</event>
<event>
 6    1  0.1033679E-011  0.3000000E+03  0.7818608E-02  0.1093470E+00
          1   -1    0    0  502    0  0.00000000000E+00  0.00000000000E+00  0.22394313345E+03  0.22394313345E+03  0.00000000000E+00 0.  1.
         13   -1    0    0    0    0 -0.00000000000E+00 -0.00000000000E+00 -0.27500000000E+03  0.27500000000E+03  0.00000000000E+00 0.  1.
    9000005    2    1    2  501    0 -0.28027936693E+02 -0.21468629270E+02 -0.52692398730E+02  0.46359992698E+03  0.45924060811E+03 0.  0.
         13    1    3    3    0    0 -0.19043339392E+03 -0.18267188615E+02  0.12054559523E+03  0.22611901342E+03  0.00000000000E+00 0.  1.
          3    1    3    3  501    0  0.16240545723E+03 -0.32014406553E+01 -0.17323799396E+03  0.23748091357E+03  0.00000000000E+00 0.  1.
         21    1    1    2  502  501  0.28027936693E+02  0.21468629270E+02  0.16355321837E+01  0.35343206469E+02  0.00000000000E+00 0. -1.
<scales pt_clust_4="550.00000" pt_clust_5="550.00000" pt_clust_6="35.30534"></scales>
<mgrwt>
<rscale>  0 0.30000000E+03</rscale>
<asrwt>  1 0.35305343E+02</asrwt>
<pdfrwt beam="1">  1        1 0.81433867E+00 0.30000000E+03</pdfrwt>
<pdfrwt beam="2">0</pdfrwt>
<totfact> 0.80456666E-04</totfact>
</mgrwt>
<clustering>
<clus scale="   35.305">  1  6  2 -1</clus>
<clus scale="  459.241">  4  5 -1 -1</clus>
<clus scale="  300.000">  1  4  2 -1</clus>
</clustering>
</event>
<event>
 6    1  0.1033679E-011  0.3000000E+03  0.7818608E-02  0.1093470E+00
          1   -1    0    0  502    0  0.00000000000E+00  0.00000000000E+00  0.22991298783E+03  0.22991298783E+03  0.00000000000E+00 0.  1.
         13   -1    0    0    0    0 -0.00000000000E+00 -0.00000000000E+00 -0.27500000000E+03  0.27500000000E+03  0.00000000000E+00 0.  1.
    9000005    2    1    2  501    0 -0.36474809944E+02  0.12715095975E+02 -0.58141133922E+02  0.46413927668E+03  0.45886031783E+03 0.  0.
         13    1    3    3    0    0 -0.12766174144E+02  0.19037704771E+03 -0.16773661291E+03  0.25405111062E+03  0.00000000000E+00 0.  1.
          1    1    3    3  501    0 -0.23708635800E+02 -0.17766195173E+03  0.10959547899E+03  0.21008816606E+03  0.00000000000E+00 0.  1.
         21    1    1    2  502  501  0.36474809944E+02 -0.12715095975E+02  0.13054121756E+02  0.40773711150E+02  0.00000000000E+00 0.  1.
<scales pt_clust_4="550.00000" pt_clust_5="550.00000" pt_clust_6="38.62752"></scales>
<mgrwt>
<rscale>  0 0.30000000E+03</rscale>
<asrwt>  1 0.38627522E+02</asrwt>
<pdfrwt beam="1">  1        1 0.83604723E+00 0.30000000E+03</pdfrwt>
<pdfrwt beam="2">0</pdfrwt>
<totfact> 0.52195655E-04</totfact>
</mgrwt>
<clustering>
<clus scale="   38.628">  1  6  2 -1</clus>
<clus scale="  458.860">  4  5 -1 -1</clus>
<clus scale="  300.000">  1  4  2 -1</clus>
</clustering>
</event>
<event>
 6    1  0.1033679E-011  0.3000000E+03  0.7818608E-02  0.1093470E+00
          1   -1    0    0  502    0  0.00000000000E+00  0.00000000000E+00  0.24836848130E+03  0.24836848130E+03  0.00000000000E+00 0.  1.
         13   -1    0    0    0    0 -0.00000000000E+00 -0.00000000000E+00 -0.27500000000E+03  0.27500000000E+03  0.00000000000E+00 0.  1.
    9000005    2    1    2  501    0  0.29560114331E+01  0.31542884336E+02 -0.45645306231E+02  0.48641965625E+03  0.48323586007E+03 0.  0.
         13    1    3    3    0    0  0.42621825795E+02 -0.71845472642E+02 -0.24473845654E+03  0.25860259876E+03  0.00000000000E+00 0.  1.
          3    1    3    3  501    0 -0.39665814362E+02  0.10338835698E+03  0.19909315031E+03  0.22781705750E+03  0.00000000000E+00 0.  1.
         21    1    1    2  502  501 -0.29560114331E+01 -0.31542884336E+02  0.19013787528E+02  0.36948825042E+02  0.00000000000E+00 0. -1.
<scales pt_clust_4="550.00000" pt_clust_5="550.00000" pt_clust_6="31.68109"></scales>
<mgrwt>
<rscale>  0 0.30000000E+03</rscale>
<asrwt>  1 0.31681091E+02</asrwt>
<pdfrwt beam="1">  1        1 0.90315811E+00 0.30000000E+03</pdfrwt>
<pdfrwt beam="2">0</pdfrwt>
<totfact> 0.10151826E-04</totfact>
</mgrwt>
<clustering>
<clus scale="   31.681">  1  6  2 -1</clus>
<clus scale="  483.236">  4  5 -1 -1</clus>
<clus scale="  300.000">  1  4  2 -1</clus>
</clustering>
</event>
<event>
 6    1  0.1033679E-011  0.3000000E+03  0.7818608E-02  0.1093470E+00
          1   -1    0    0  502    0  0.00000000000E+00  0.00000000000E+00  0.24944680405E+03  0.24944680405E+03  0.00000000000E+00 0.  1.
         13   -1    0    0    0    0 -0.00000000000E+00 -0.00000000000E+00 -0.27500000000E+03  0.27500000000E+03  0.00000000000E+00 0.  1.
    9000005    2    1    2  501    0 -0.16188520585E+02 -0.49998584744E+02 -0.32918337855E+02  0.47137918689E+03  0.46728234954E+03 0.  0.
         13    1    3    3    0    0  0.12830407557E+03  0.16548967750E+03  0.32241215200E+01  0.20942579623E+03  0.00000000000E+00 0.  1.
          1    1    3    3  501    0 -0.14449259615E+03 -0.21548826225E+03 -0.36142459375E+02  0.26195339066E+03  0.00000000000E+00 0.  1.
         21    1    1    2  502  501  0.16188520585E+02  0.49998584744E+02  0.73651419003E+01  0.53067617153E+02  0.00000000000E+00 0.  1.
<scales pt_clust_4="550.00000" pt_clust_5="550.00000" pt_clust_6="52.55404"></scales>
<mgrwt>
<rscale>  0 0.30000000E+03</rscale>
<asrwt>  1 0.52554036E+02</asrwt>
<pdfrwt beam="1">  1        1 0.90707929E+00 0.30000000E+03</pdfrwt>
<pdfrwt beam="2">0</pdfrwt>
<totfact> 0.77984206E-05</totfact>
</mgrwt>
<clustering>
<clus scale="   52.554">  1  6  2 -1</clus>
<clus scale="  467.282">  4  5 -1 -1</clus>
<clus scale="  300.000">  1  4  2 -1</clus>
</clustering>
</event>
<event>
 6    1  0.1033679E-011  0.3000000E+03  0.7818608E-02  0.1093470E+00
          1   -1    0    0  502    0  0.00000000000E+00  0.00000000000E+00  0.24810386079E+03  0.24810386079E+03  0.00000000000E+00 0.  1.
         13   -1    0    0    0    0 -0.00000000000E+00 -0.00000000000E+00 -0.27500000000E+03  0.27500000000E+03  0.00000000000E+00 0.  1.
    9000005    2    1    2  501    0 -0.43063670001E+02 -0.40317927608E+01 -0.56907101742E+02  0.47045984025E+03  0.46499818067E+03 0.  0.
         13    1    3    3    0    0  0.17527020058E+03  0.68767481892E+02  0.77874444883E+02  0.20374748819E+03  0.00000000000E+00 0.  1.
          1    1    3    3  501    0 -0.21833387058E+03 -0.72799274653E+02 -0.13478154662E+03  0.26671235206E+03  0.00000000000E+00 0.  1.
         21    1    1    2  502  501  0.43063670001E+02  0.40317927608E+01  0.30010962533E+02  0.52644020544E+02  0.00000000000E+00 0.  1.
<scales pt_clust_4="550.00000" pt_clust_5="550.00000" pt_clust_6="43.25199"></scales>
<mgrwt>
<rscale>  0 0.30000000E+03</rscale>
<asrwt>  1 0.43251994E+02</asrwt>
<pdfrwt beam="1">  1        1 0.90219586E+00 0.30000000E+03</pdfrwt>
<pdfrwt beam="2">0</pdfrwt>
<totfact> 0.99183737E-05</totfact>
</mgrwt>
<clustering>
<clus scale="   43.252">  1  6  2 -1</clus>
<clus scale="  464.998">  4  5 -1 -1</clus>
<clus scale="  300.000">  1  4  2 -1</clus>
</clustering>
</event>
<event>
 6    1  0.1033679E-011  0.3000000E+03  0.7818608E-02  0.1093470E+00
          1   -1    0    0  502    0  0.00000000000E+00  0.00000000000E+00  0.22396996599E+03  0.22396996599E+03  0.00000000000E+00 0.  1.
         13   -1    0    0    0    0 -0.00000000000E+00 -0.00000000000E+00 -0.27500000000E+03  0.27500000000E+03  0.00000000000E+00 0.  1.
    9000005    2    1    2  501    0  0.20942653627E+02  0.26447725799E+02 -0.61912559283E+02  0.46352273342E+03  0.45812889284E+03 0.  0.
         13    1    3    3    0    0  0.19208556623E+03  0.63409810673E+02  0.99460318752E+02  0.22541078912E+03  0.00000000000E+00 0.  1.
          3    1    3    3  501    0 -0.17114291261E+03 -0.36962084875E+02 -0.16137287803E+03  0.23811194430E+03  0.00000000000E+00 0.  1.
         21    1    1    2  502  501 -0.20942653627E+02 -0.26447725799E+02  0.10882525276E+02  0.35447232575E+02  0.00000000000E+00 0.  1.
<scales pt_clust_4="550.00000" pt_clust_5="550.00000" pt_clust_6="33.73540"></scales>
<mgrwt>
<rscale>  0 0.30000000E+03</rscale>
<asrwt>  1 0.33735396E+02</asrwt>
<pdfrwt beam="1">  1        1 0.81443624E+00 0.30000000E+03</pdfrwt>
<pdfrwt beam="2">0</pdfrwt>
<totfact> 0.80999330E-04</totfact>
</mgrwt>
<clustering>
<clus scale="   33.735">  1  6  2 -1</clus>
<clus scale="  458.129">  4  5 -1 -1</clus>
<clus scale="  300.000">  1  4  2 -1</clus>
</clustering>
</event>
<event>
 6    1  0.1033679E-011  0.3000000E+03  0.7818608E-02  0.1093470E+00
          1   -1    0    0  502    0  0.00000000000E+00  0.00000000000E+00  0.22120672974E+03  0.22120672974E+03  0.00000000000E+00 0.  1.
         13   -1    0    0    0    0 -0.00000000000E+00 -0.00000000000E+00 -0.27500000000E+03  0.27500000000E+03  0.00000000000E+00 0.  1.
    9000005    2    1    2  501    0  0.21713492738E+02  0.23565661023E+02 -0.58973858441E+02  0.46374668291E+03  0.45886409076E+03 0.  0.
         13    1    3    3    0    0  0.19726288987E+03 -0.12032444245E+03 -0.50981742870E+02  0.23662154863E+03  0.00000000000E+00 0.  1.
          1    1    3    3  501    0 -0.17554939713E+03  0.14389010347E+03 -0.79921155717E+01  0.22712513428E+03  0.00000000000E+00 0.  1.
         21    1    1    2  502  501 -0.21713492738E+02 -0.23565661023E+02  0.51805881848E+01  0.32460046832E+02  0.00000000000E+00 0. -1.
<scales pt_clust_4="550.00000" pt_clust_5="550.00000" pt_clust_6="32.04397"></scales>
<mgrwt>
<rscale>  0 0.30000000E+03</rscale>
<asrwt>  1 0.32043972E+02</asrwt>
<pdfrwt beam="1">  1        1 0.80438811E+00 0.30000000E+03</pdfrwt>
<pdfrwt beam="2">0</pdfrwt>
<totfact> 0.97926582E-04</totfact>
</mgrwt>
<clustering>
<clus scale="   32.044">  1  6  2 -1</clus>
<clus scale="  458.864">  4  5 -1 -1</clus>
<clus scale="  300.000">  1  4  2 -1</clus>
</clustering>
</event>
<event>
 6    1  0.1033679E-011  0.3000000E+03  0.7818608E-02  0.1093470E+00
          1   -1    0    0  502    0  0.00000000000E+00  0.00000000000E+00  0.23664889986E+03  0.23664889986E+03  0.00000000000E+00 0.  1.
         13   -1    0    0    0    0 -0.00000000000E+00 -0.00000000000E+00 -0.27500000000E+03  0.27500000000E+03  0.00000000000E+00 0.  1.
    9000005    2    1    2  501    0  0.33698011566E+02 -0.17949913740E+02 -0.39603423621E+02  0.47344780432E+03  0.47024104124E+03 0.  0.
         13    1    3    3    0    0  0.22279705399E+03  0.16696799853E+01 -0.13523780077E+03  0.26063495133E+03  0.00000000000E+00 0.  1.
          1    1    3    3  501    0 -0.18909904243E+03 -0.19619593725E+02  0.95634377146E+02  0.21281285299E+03  0.00000000000E+00 0.  1.
         21    1    1    2  502  501 -0.33698011566E+02  0.17949913740E+02  0.12523234837E+01  0.38201095546E+02  0.00000000000E+00 0. -1.
<scales pt_clust_4="550.00000" pt_clust_5="550.00000" pt_clust_6="38.18056"></scales>
<mgrwt>
<rscale>  0 0.30000000E+03</rscale>
<asrwt>  1 0.38180563E+02</asrwt>
<pdfrwt beam="1">  1        1 0.86054145E+00 0.30000000E+03</pdfrwt>
<pdfrwt beam="2">0</pdfrwt>
<totfact> 0.31406948E-04</totfact>
</mgrwt>
<clustering>
<clus scale="   38.181">  1  6  2 -1</clus>
<clus scale="  470.241">  4  5 -1 -1</clus>
<clus scale="  300.000">  1  4  2 -1</clus>
</clustering>
</event>
<event>
 6    1  0.1033679E-011  0.3000000E+03  0.7818608E-02  0.1093470E+00
          1   -1    0    0  502    0  0.00000000000E+00  0.00000000000E+00  0.23511161083E+03  0.23511161083E+03  0.00000000000E+00 0.  1.
         13   -1    0    0    0    0 -0.00000000000E+00 -0.00000000000E+00 -0.27500000000E+03  0.27500000000E+03  0.00000000000E+00 0.  1.
    9000005    2    1    2  501    0 -0.10710901533E+01  0.36272690844E+02 -0.44658167762E+02  0.47351098074E+03  0.47000153361E+03 0.  0.
         13    1    3    3    0    0  0.64468341345E+02  0.20282292711E+02 -0.24916309477E+03  0.25816619885E+03  0.00000000000E+00 0.  1.
          1    1    3    3  501    0 -0.65539431499E+02  0.15990398133E+02  0.20450492701E+03  0.21534478188E+03  0.00000000000E+00 0.  1.
         21    1    1    2  502  501  0.10710901533E+01 -0.36272690844E+02  0.47697785873E+01  0.36600630090E+02  0.00000000000E+00 0.  1.
<scales pt_clust_4="550.00000" pt_clust_5="550.00000" pt_clust_6="36.28850"></scales>
<mgrwt>
<rscale>  0 0.30000000E+03</rscale>
<asrwt>  1 0.36288501E+02</asrwt>
<pdfrwt beam="1">  1        1 0.85495131E+00 0.30000000E+03</pdfrwt>
<pdfrwt beam="2">0</pdfrwt>
<totfact> 0.36229174E-04</totfact>
</mgrwt>
<clustering>
<clus scale="   36.289">  1  6  2 -1</clus>
<clus scale="  470.002">  4  5 -1 -1</clus>
<clus scale="  300.000">  1  4  2 -1</clus>
</clustering>
</event>
<event>
 6    1  0.1033679E-011  0.3000000E+03  0.7818608E-02  0.1093470E+00
          1   -1    0    0  502    0  0.00000000000E+00  0.00000000000E+00  0.23957215722E+03  0.23957215722E+03  0.00000000000E+00 0.  1.
         13   -1    0    0    0    0 -0.00000000000E+00 -0.00000000000E+00 -0.27500000000E+03  0.27500000000E+03  0.00000000000E+00 0.  1.
    9000005    2    1    2  501    0  0.19265874757E+02  0.32052883033E+02 -0.51745638439E+02  0.47376980807E+03  0.46944824922E+03 0.  0.
         13    1    3    3    0    0  0.13927373914E+03  0.12961619107E+03 -0.18812947635E+03  0.26756350886E+03  0.00000000000E+00 0.  1.
          1    1    3    3  501    0 -0.12000786438E+03 -0.97563308035E+02  0.13638383792E+03  0.20620629921E+03  0.00000000000E+00 0.  1.
         21    1    1    2  502  501 -0.19265874757E+02 -0.32052883033E+02  0.16317795656E+02  0.40802349148E+02  0.00000000000E+00 0.  1.
<scales pt_clust_4="550.00000" pt_clust_5="550.00000" pt_clust_6="37.39734"></scales>
<mgrwt>
<rscale>  0 0.30000000E+03</rscale>
<asrwt>  1 0.37397343E+02</asrwt>
<pdfrwt beam="1">  1        1 0.87117148E+00 0.30000000E+03</pdfrwt>
<pdfrwt beam="2">0</pdfrwt>
<totfact> 0.24335448E-04</totfact>
</mgrwt>
<clustering>
<clus scale="   37.397">  1  6  2 -1</clus>
<clus scale="  469.448">  4  5 -1 -1</clus>
<clus scale="  300.000">  1  4  2 -1</clus>
</clustering>
</event>
<event>
 6    1  0.1033679E-011  0.3000000E+03  0.7818608E-02  0.1093470E+00
          1   -1    0    0  502    0  0.00000000000E+00  0.00000000000E+00  0.23049586038E+03  0.23049586038E+03  0.00000000000E+00 0.  1.
         13   -1    0    0    0    0 -0.00000000000E+00 -0.00000000000E+00 -0.27500000000E+03  0.27500000000E+03  0.00000000000E+00 0.  1.
    9000005    2    1    2  501    0 -0.28304589366E+02  0.10551333412E+02 -0.59737780222E+02  0.47166474716E+03  0.46689029858E+03 0.  0.
         13    1    3    3    0    0  0.88465061561E+02 -0.17198775004E+03 -0.14194283869E+03  0.23990336124E+03  0.00000000000E+00 0.  1.
          1    1    3    3  501    0 -0.11676965093E+03  0.18253908345E+03  0.82205058464E+02  0.23176138592E+03  0.00000000000E+00 0.  1.
         21    1    1    2  502  501  0.28304589366E+02 -0.10551333412E+02  0.15233640603E+02  0.33831113224E+02  0.00000000000E+00 0. -1.
<scales pt_clust_4="550.00000" pt_clust_5="550.00000" pt_clust_6="30.20729"></scales>
<mgrwt>
<rscale>  0 0.30000000E+03</rscale>
<asrwt>  1 0.30207291E+02</asrwt>
<pdfrwt beam="1">  1        1 0.83816677E+00 0.30000000E+03</pdfrwt>
<pdfrwt beam="2">0</pdfrwt>
<totfact> 0.52755170E-04</totfact>
</mgrwt>
<clustering>
<clus scale="   30.207">  1  6  2 -1</clus>
<clus scale="  466.890">  4  5 -1 -1</clus>
<clus scale="  300.000">  1  4  2 -1</clus>
</clustering>
</event>
<event>
 6    1  0.1033679E-011  0.3000000E+03  0.7818608E-02  0.1093470E+00
          1   -1    0    0  502    0  0.00000000000E+00  0.00000000000E+00  0.22208787281E+03  0.22208787281E+03  0.00000000000E+00 0.  1.
         13   -1    0    0    0    0 -0.00000000000E+00 -0.00000000000E+00 -0.27500000000E+03  0.27500000000E+03  0.00000000000E+00 0.  1.
    9000005    2    1    2  501    0 -0.30124077999E+02  0.82607136082E+00 -0.39388224305E+02  0.46405700212E+03  0.46139931353E+03 0.  0.
         13    1    3    3    0    0 -0.88875929015E+02 -0.19260026911E+03  0.82960143884E+02  0.22776342966E+03  0.00000000000E+00 0.  1.
          3    1    3    3  501    0  0.58751851017E+02  0.19342634047E+03 -0.12234836819E+03  0.23629357245E+03  0.00000000000E+00 0.  1.
         21    1    1    2  502  501  0.30124077999E+02 -0.82607136082E+00 -0.13523902889E+02  0.33030870690E+02  0.00000000000E+00 0.  1.
<scales pt_clust_4="550.00000" pt_clust_5="550.00000" pt_clust_6="30.13542"></scales>
<mgrwt>
<rscale>  0 0.30000000E+03</rscale>
<asrwt>  1 0.30135417E+02</asrwt>
<pdfrwt beam="1">  1        1 0.80759226E+00 0.30000000E+03</pdfrwt>
<pdfrwt beam="2">0</pdfrwt>
<totfact> 0.93662904E-04</totfact>
</mgrwt>
<clustering>
<clus scale="   30.135">  1  6  2 -1</clus>
<clus scale="  461.399">  4  5 -1 -1</clus>
<clus scale="  300.000">  1  4  2 -1</clus>
</clustering>
</event>
<event>
 6    1  0.1033679E-011  0.3000000E+03  0.7818608E-02  0.1093470E+00
          1   -1    0    0  502    0  0.00000000000E+00  0.00000000000E+00  0.23195210993E+03  0.23195210993E+03  0.00000000000E+00 0.  1.
         13   -1    0    0    0    0 -0.00000000000E+00 -0.00000000000E+00 -0.27500000000E+03  0.27500000000E+03  0.00000000000E+00 0.  1.
    9000005    2    1    2  501    0 -0.15930053110E+02  0.25755690070E+02 -0.65412148900E+02  0.46930530082E+03  0.46373655667E+03 0.  0.
         13    1    3    3    0    0  0.14688865331E+03  0.11152129452E+02  0.14241061049E+03  0.20489370035E+03  0.00000000000E+00 0.  1.
          3    1    3    3  501    0 -0.16281870642E+03  0.14603560618E+02 -0.20782275939E+03  0.26441160047E+03  0.00000000000E+00 0.  1.
         21    1    1    2  502  501  0.15930053110E+02 -0.25755690070E+02  0.22364258828E+02  0.37646809108E+02  0.00000000000E+00 0. -1.
<scales pt_clust_4="550.00000" pt_clust_5="550.00000" pt_clust_6="30.28402"></scales>
<mgrwt>
<rscale>  0 0.30000000E+03</rscale>
<asrwt>  1 0.30284025E+02</asrwt>
<pdfrwt beam="1">  1        1 0.84346222E+00 0.30000000E+03</pdfrwt>
<pdfrwt beam="2">0</pdfrwt>
<totfact> 0.47878929E-04</totfact>
</mgrwt>
<clustering>
<clus scale="   30.284">  1  6  2 -1</clus>
<clus scale="  463.737">  4  5 -1 -1</clus>
<clus scale="  300.000">  1  4  2 -1</clus>
</clustering>
</event>
<event>
 6    1  0.1033679E-011  0.3000000E+03  0.7818608E-02  0.1093470E+00
          1   -1    0    0  502    0  0.00000000000E+00  0.00000000000E+00  0.24423854282E+03  0.24423854282E+03  0.00000000000E+00 0.  1.
         13   -1    0    0    0    0 -0.00000000000E+00 -0.00000000000E+00 -0.27500000000E+03  0.27500000000E+03  0.00000000000E+00 0.  1.
    9000005    2    1    2  501    0  0.50331757195E+02 -0.12009061415E+02 -0.34915618443E+02  0.46732746121E+03  0.46313966819E+03 0.  0.
         13    1    3    3    0    0 -0.62961580160E+02 -0.21986162736E+03 -0.28994824123E+02  0.23052981497E+03  0.00000000000E+00 0.  1.
          1    1    3    3  501    0  0.11329333735E+03  0.20785256595E+03 -0.59207943199E+01  0.23679764624E+03  0.00000000000E+00 0.  1.
         21    1    1    2  502  501 -0.50331757195E+02  0.12009061415E+02  0.41541612623E+01  0.51911081612E+02  0.00000000000E+00 0. -1.
<scales pt_clust_4="550.00000" pt_clust_5="550.00000" pt_clust_6="51.74460"></scales>
<mgrwt>
<rscale>  0 0.30000000E+03</rscale>
<asrwt>  1 0.51744597E+02</asrwt>
<pdfrwt beam="1">  1        1 0.88814016E+00 0.30000000E+03</pdfrwt>
<pdfrwt beam="2">0</pdfrwt>
<totfact> 0.14314528E-04</totfact>
</mgrwt>
<clustering>
<clus scale="   51.745">  1  6  2 -1</clus>
<clus scale="  463.140">  4  5 -1 -1</clus>
<clus scale="  300.000">  1  4  2 -1</clus>
</clustering>
</event>
<event>
 6    1  0.1033679E-011  0.3000000E+03  0.7818608E-02  0.1093470E+00
          1   -1    0    0  502    0  0.00000000000E+00  0.00000000000E+00  0.23417804954E+03  0.23417804954E+03  0.00000000000E+00 0.  1.
         13   -1    0    0    0    0 -0.00000000000E+00 -0.00000000000E+00 -0.27500000000E+03  0.27500000000E+03  0.00000000000E+00 0.  1.
    9000005    2    1    2  501    0  0.16104322089E+02 -0.26592700840E+02 -0.69989036465E+02  0.46654895344E+03  0.46022053388E+03 0.  0.
         13    1    3    3    0    0  0.21710139091E+03 -0.58551872891E+02  0.49915723855E+02  0.23033218456E+03  0.00000000000E+00 0.  1.
          1    1    3    3  501    0 -0.20099706883E+03  0.31959172051E+02 -0.11990476032E+03  0.23621676888E+03  0.00000000000E+00 0.  1.
         21    1    1    2  502  501 -0.16104322089E+02  0.26592700840E+02  0.29167086005E+02  0.42629096096E+02  0.00000000000E+00 0.  1.
<scales pt_clust_4="550.00000" pt_clust_5="550.00000" pt_clust_6="31.08892"></scales>
<mgrwt>
<rscale>  0 0.30000000E+03</rscale>
<asrwt>  1 0.31088920E+02</asrwt>
<pdfrwt beam="1">  1        1 0.85155654E+00 0.30000000E+03</pdfrwt>
<pdfrwt beam="2">0</pdfrwt>
<totfact> 0.40233268E-04</totfact>
</mgrwt>
<clustering>
<clus scale="   31.089">  1  6  2 -1</clus>
<clus scale="  460.221">  4  5 -1 -1</clus>
<clus scale="  300.000">  1  4  2 -1</clus>
</clustering>
</event>
<event>
 6    1  0.1033679E-011  0.3000000E+03  0.7818608E-02  0.1093470E+00
          1   -1    0    0  502    0  0.00000000000E+00  0.00000000000E+00  0.22692825753E+03  0.22692825753E+03  0.00000000000E+00 0.  1.
         13   -1    0    0    0    0 -0.00000000000E+00 -0.00000000000E+00 -0.27500000000E+03  0.27500000000E+03  0.00000000000E+00 0.  1.
    9000005    2    1    2  501    0  0.34444848183E+02  0.17755653684E+02 -0.53040802616E+02  0.46285905786E+03  0.45817406069E+03 0.  0.
         13    1    3    3    0    0  0.10140696349E+03 -0.99032319766E+02 -0.21170758991E+03  0.25477612963E+03  0.00000000000E+00 0.  1.
          3    1    3    3  501    0 -0.66962115309E+02  0.11678797345E+03  0.15866678729E+03  0.20808292823E+03  0.00000000000E+00 0.  1.
         21    1    1    2  502  501 -0.34444848183E+02 -0.17755653684E+02  0.49690601418E+01  0.39069199669E+02  0.00000000000E+00 0. -1.
<scales pt_clust_4="550.00000" pt_clust_5="550.00000" pt_clust_6="38.75191"></scales>
<mgrwt>
<rscale>  0 0.30000000E+03</rscale>
<asrwt>  1 0.38751914E+02</asrwt>
<pdfrwt beam="1">  1        1 0.82519366E+00 0.30000000E+03</pdfrwt>
<pdfrwt beam="2">0</pdfrwt>
<totfact> 0.63841646E-04</totfact>
</mgrwt>
<clustering>
<clus scale="   38.752">  1  6  2 -1</clus>
<clus scale="  458.174">  4  5 -1 -1</clus>
<clus scale="  300.000">  1  4  2 -1</clus>
</clustering>
</event>
<event>
 6    1  0.1033679E-011  0.3000000E+03  0.7818608E-02  0.1093470E+00
          1   -1    0    0  502    0  0.00000000000E+00  0.00000000000E+00  0.24033562999E+03  0.24033562999E+03  0.00000000000E+00 0.  1.
         13   -1    0    0    0    0 -0.00000000000E+00 -0.00000000000E+00 -0.27500000000E+03  0.27500000000E+03  0.00000000000E+00 0.  1.
    9000005    2    1    2  501    0 -0.35112839783E+02  0.32195853834E+01 -0.43690286436E+02  0.47893859144E+03  0.47563647463E+03 0.  0.
         13    1    3    3    0    0 -0.51354708141E+02  0.15905105590E+03  0.15360545329E+03  0.22700039584E+03  0.00000000000E+00 0.  1.
          3    1    3    3  501    0  0.16241868358E+02 -0.15583147051E+03 -0.19729573973E+03  0.25193819560E+03  0.00000000000E+00 0.  1.
         21    1    1    2  502  501  0.35112839783E+02 -0.32195853834E+01  0.90259164264E+01  0.36397038547E+02  0.00000000000E+00 0. -1.
<scales pt_clust_4="550.00000" pt_clust_5="550.00000" pt_clust_6="35.26014"></scales>
<mgrwt>
<rscale>  0 0.30000000E+03</rscale>
<asrwt>  1 0.35260137E+02</asrwt>
<pdfrwt beam="1">  1        1 0.87394775E+00 0.30000000E+03</pdfrwt>
<pdfrwt beam="2">0</pdfrwt>
<totfact> 0.23039553E-04</totfact>
</mgrwt>
<clustering>
<clus scale="   35.260">  1  6  2 -1</clus>
<clus scale="  475.636">  4  5 -1 -1</clus>
<clus scale="  300.000">  1  4  2 -1</clus>
</clustering>
</event>
<event>
 6    1  0.1033679E-011  0.3000000E+03  0.7818608E-02  0.1093470E+00
          1   -1    0    0  502    0  0.00000000000E+00  0.00000000000E+00  0.23074952530E+03  0.23074952530E+03  0.00000000000E+00 0.  1.
         13   -1    0    0    0    0 -0.00000000000E+00 -0.00000000000E+00 -0.27500000000E+03  0.27500000000E+03  0.00000000000E+00 0.  1.
    9000005    2    1    2  501    0  0.21534259431E+02  0.29314566295E+02 -0.41880092345E+02  0.46929836841E+03  0.46600852818E+03 0.  0.
         13    1    3    3    0    0 -0.92843931761E+02  0.22053001269E+03 -0.57000777436E+02  0.24597270334E+03  0.00000000000E+00 0.  1.
          1    1    3    3  501    0  0.11437819119E+03 -0.19121544640E+03  0.15120685091E+02  0.22332566507E+03  0.00000000000E+00 0.  1.
         21    1    1    2  502  501 -0.21534259431E+02 -0.29314566295E+02 -0.23703823513E+01  0.36451156892E+02  0.00000000000E+00 0.  1.
<scales pt_clust_4="550.00000" pt_clust_5="550.00000" pt_clust_6="36.37400"></scales>
<mgrwt>
<rscale>  0 0.30000000E+03</rscale>
<asrwt>  1 0.36374003E+02</asrwt>
<pdfrwt beam="1">  1        1 0.83908918E+00 0.30000000E+03</pdfrwt>
<pdfrwt beam="2">0</pdfrwt>
<totfact> 0.50139085E-04</totfact>
</mgrwt>
<clustering>
<clus scale="   36.374">  1  6  2 -1</clus>
<clus scale="  466.009">  4  5 -1 -1</clus>
<clus scale="  300.000">  1  4  2 -1</clus>
</clustering>
</event>
<event>
 6    1  0.1033679E-011  0.3000000E+03  0.7818608E-02  0.1093470E+00
          1   -1    0    0  502    0  0.00000000000E+00  0.00000000000E+00  0.25480469691E+03  0.25480469691E+03  0.00000000000E+00 0.  1.
         13   -1    0    0    0    0 -0.00000000000E+00 -0.00000000000E+00 -0.27500000000E+03  0.27500000000E+03  0.00000000000E+00 0.  1.
    9000005    2    1    2  501    0 -0.57610990959E+01 -0.38355553957E+02 -0.11315898430E+02  0.49001546961E+03  0.48834697922E+03 0.  0.
         13    1    3    3    0    0  0.10349331983E+00  0.14066801086E+03 -0.19040015231E+03  0.23672709602E+03  0.00000000000E+00 0.  1.
          1    1    3    3  501    0 -0.58645924158E+01 -0.17902356482E+03  0.17908425388E+03  0.25328837358E+03  0.00000000000E+00 0.  1.
         21    1    1    2  502  501  0.57610990959E+01  0.38355553957E+02 -0.88794046606E+01  0.39789227302E+02  0.00000000000E+00 0. -1.
<scales pt_clust_4="550.00000" pt_clust_5="550.00000" pt_clust_6="38.78583"></scales>
<mgrwt>
<rscale>  0 0.30000000E+03</rscale>
<asrwt>  1 0.38785826E+02</asrwt>
<pdfrwt beam="1">  1        1 0.92656253E+00 0.30000000E+03</pdfrwt>
<pdfrwt beam="2">0</pdfrwt>
<totfact> 0.29876440E-05</totfact>
</mgrwt>
<clustering>
<clus scale="   38.786">  1  6  2 -1</clus>
<clus scale="  488.347">  4  5 -1 -1</clus>
<clus scale="  300.000">  1  4  2 -1</clus>
</clustering>
</event>
<event>
 6    1  0.1033679E-011  0.3000000E+03  0.7818608E-02  0.1093470E+00
          1   -1    0    0  502    0  0.00000000000E+00  0.00000000000E+00  0.24210107954E+03  0.24210107954E+03  0.00000000000E+00 0.  1.
         13   -1    0    0    0    0 -0.00000000000E+00 -0.00000000000E+00 -0.27500000000E+03  0.27500000000E+03  0.00000000000E+00 0.  1.
    9000005    2    1    2  501    0  0.13632996332E+02 -0.27655812915E+02 -0.48048730896E+02  0.48274675909E+03  0.47935899939E+03 0.  0.
         13    1    3    3    0    0 -0.12065583299E+03  0.17473594708E+03 -0.99445120355E+02  0.23447774564E+03  0.00000000000E+00 0.  1.
          1    1    3    3  501    0  0.13428882932E+03 -0.20239175999E+03  0.51396389460E+02  0.24826901346E+03  0.00000000000E+00 0.  1.
         21    1    1    2  502  501 -0.13632996332E+02  0.27655812915E+02  0.15149810432E+02  0.34354320443E+02  0.00000000000E+00 0.  1.
<scales pt_clust_4="550.00000" pt_clust_5="550.00000" pt_clust_6="30.83347"></scales>
<mgrwt>
<rscale>  0 0.30000000E+03</rscale>
<asrwt>  1 0.30833465E+02</asrwt>
<pdfrwt beam="1">  1        1 0.88036756E+00 0.30000000E+03</pdfrwt>
<pdfrwt beam="2">0</pdfrwt>
<totfact> 0.20005974E-04</totfact>
</mgrwt>
<clustering>
<clus scale="   30.833">  1  6  2 -1</clus>
<clus scale="  479.359">  4  5 -1 -1</clus>
<clus scale="  300.000">  1  4  2 -1</clus>
</clustering>
</event>
<event>
 6    1  0.1033679E-011  0.3000000E+03  0.7818608E-02  0.1093470E+00
          1   -1    0    0  502    0  0.00000000000E+00  0.00000000000E+00  0.25328326276E+03  0.25328326276E+03  0.00000000000E+00 0.  1.
         13   -1    0    0    0    0 -0.00000000000E+00 -0.00000000000E+00 -0.27500000000E+03  0.27500000000E+03  0.00000000000E+00 0.  1.
    9000005    2    1    2  501    0  0.12578563217E+02  0.29596895049E+02 -0.27030163916E+02  0.49568834057E+03  0.49390495520E+03 0.  0.
         13    1    3    3    0    0  0.12897460200E+03  0.11618827269E+03 -0.20334373196E+03  0.26736274235E+03  0.00000000000E+00 0.  1.
          3    1    3    3  501    0 -0.11639603878E+03 -0.86591377645E+02  0.17631356804E+03  0.22832559822E+03  0.00000000000E+00 0.  1.
         21    1    1    2  502  501 -0.12578563217E+02 -0.29596895049E+02  0.53134266718E+01  0.32594922183E+02  0.00000000000E+00 0.  1.
<scales pt_clust_4="550.00000" pt_clust_5="550.00000" pt_clust_6="32.15892"></scales>
<mgrwt>
<rscale>  0 0.30000000E+03</rscale>
<asrwt>  1 0.32158925E+02</asrwt>
<pdfrwt beam="1">  1        1 0.92103005E+00 0.30000000E+03</pdfrwt>
<pdfrwt beam="2">0</pdfrwt>
<totfact> 0.40355807E-05</totfact>
</mgrwt>
<clustering>
<clus scale="   32.159">  1  6  2 -1</clus>
<clus scale="  493.905">  4  5 -1 -1</clus>
<clus scale="  300.000">  1  4  2 -1</clus>
</clustering>
</event>
<event>
 6    1  0.1033679E-011  0.3000000E+03  0.7818608E-02  0.1093470E+00
          1   -1    0    0  502    0  0.00000000000E+00  0.00000000000E+00  0.23936650668E+03  0.23936650668E+03  0.00000000000E+00 0.  1.
         13   -1    0    0    0    0 -0.00000000000E+00 -0.00000000000E+00 -0.27500000000E+03  0.27500000000E+03  0.00000000000E+00 0.  1.
    9000005    2    1    2  501    0  0.32869460556E+02  0.23998253175E+02 -0.42921352615E+02  0.47302124715E+03  0.46930857668E+03 0.  0.
         13    1    3    3    0    0  0.13068347457E+03 -0.18325306796E+03  0.41350253733E+02  0.22884427222E+03  0.00000000000E+00 0.  1.
          3    1    3    3  501    0 -0.97814014016E+02  0.20725132113E+03 -0.84271606348E+02  0.24417697493E+03  0.00000000000E+00 0.  1.
         21    1    1    2  502  501 -0.32869460556E+02 -0.23998253175E+02  0.72878592924E+01  0.41345259532E+02  0.00000000000E+00 0.  1.
<scales pt_clust_4="550.00000" pt_clust_5="550.00000" pt_clust_6="40.69788"></scales>
<mgrwt>
<rscale>  0 0.30000000E+03</rscale>
<asrwt>  1 0.40697882E+02</asrwt>
<pdfrwt beam="1">  1        1 0.87042366E+00 0.30000000E+03</pdfrwt>
<pdfrwt beam="2">0</pdfrwt>
<totfact> 0.24385920E-04</totfact>
</mgrwt>
<clustering>
<clus scale="   40.698">  1  6  2 -1</clus>
<clus scale="  469.309">  4  5 -1 -1</clus>
<clus scale="  300.000">  1  4  2 -1</clus>
</clustering>
</event>
<event>
 6    1  0.1033679E-011  0.3000000E+03  0.7818608E-02  0.1093470E+00
          1   -1    0    0  502    0  0.00000000000E+00  0.00000000000E+00  0.24339051592E+03  0.24339051592E+03  0.00000000000E+00 0.  1.
         13   -1    0    0    0    0 -0.00000000000E+00 -0.00000000000E+00 -0.27500000000E+03  0.27500000000E+03  0.00000000000E+00 0.  1.
    9000005    2    1    2  501    0 -0.12242002379E+02 -0.33953731264E+02 -0.44112555051E+02  0.48019301243E+03  0.47679837372E+03 0.  0.
         13    1    3    3    0    0  0.82109305735E+02  0.40715382296E+02  0.19335801018E+03  0.21397897220E+03  0.00000000000E+00 0.  1.
          1    1    3    3  501    0 -0.94351308114E+02 -0.74669113561E+02 -0.23747056523E+03  0.26621404023E+03  0.00000000000E+00 0.  1.
         21    1    1    2  502  501  0.12242002379E+02  0.33953731264E+02  0.12503070971E+02  0.38197503488E+02  0.00000000000E+00 0. -1.
<scales pt_clust_4="550.00000" pt_clust_5="550.00000" pt_clust_6="36.09325"></scales>
<mgrwt>
<rscale>  0 0.30000000E+03</rscale>
<asrwt>  1 0.36093247E+02</asrwt>
<pdfrwt beam="1">  1        1 0.88505642E+00 0.30000000E+03</pdfrwt>
<pdfrwt beam="2">0</pdfrwt>
<totfact> 0.16843715E-04</totfact>
</mgrwt>
<clustering>
<clus scale="   36.093">  1  6  2 -1</clus>
<clus scale="  476.798">  4  5 -1 -1</clus>
<clus scale="  300.000">  1  4  2 -1</clus>
</clustering>
</event>
<event>
 6    1  0.1033679E-011  0.3000000E+03  0.7818608E-02  0.1093470E+00
          1   -1    0    0  502    0  0.00000000000E+00  0.00000000000E+00  0.23229784621E+03  0.23229784621E+03  0.00000000000E+00 0.  1.
         13   -1    0    0    0    0 -0.00000000000E+00 -0.00000000000E+00 -0.27500000000E+03  0.27500000000E+03  0.00000000000E+00 0.  1.
    9000005    2    1    2  501    0  0.63641400259E+01 -0.43164852137E+02 -0.50343989943E+02  0.46300219859E+03  0.45818425533E+03 0.  0.
         13    1    3    3    0    0 -0.21494863076E+02 -0.22495133657E+03  0.77641959073E+02  0.23894226661E+03  0.00000000000E+00 0.  1.
          3    1    3    3  501    0  0.27859003101E+02  0.18178648443E+03 -0.12798594902E+03  0.22405993198E+03  0.00000000000E+00 0.  1.
         21    1    1    2  502  501 -0.63641400259E+01  0.43164852137E+02  0.76418361520E+01  0.44295647620E+02  0.00000000000E+00 0. -1.
<scales pt_clust_4="550.00000" pt_clust_5="550.00000" pt_clust_6="43.63149"></scales>
<mgrwt>
<rscale>  0 0.30000000E+03</rscale>
<asrwt>  1 0.43631488E+02</asrwt>
<pdfrwt beam="1">  1        1 0.84471944E+00 0.30000000E+03</pdfrwt>
<pdfrwt beam="2">0</pdfrwt>
<totfact> 0.43638443E-04</totfact>
</mgrwt>
<clustering>
<clus scale="   43.631">  1  6  2 -1</clus>
<clus scale="  458.184">  4  5 -1 -1</clus>
<clus scale="  300.000">  1  4  2 -1</clus>
</clustering>
</event>
<event>
 6    1  0.1033679E-011  0.3000000E+03  0.7818608E-02  0.1093470E+00
          1   -1    0    0  502    0  0.00000000000E+00  0.00000000000E+00  0.25963070489E+03  0.25963070489E+03  0.00000000000E+00 0.  1.
         13   -1    0    0    0    0 -0.00000000000E+00 -0.00000000000E+00 -0.27500000000E+03  0.27500000000E+03  0.00000000000E+00 0.  1.
    9000005    2    1    2  501    0 -0.38612814959E+02  0.10067162126E+02 -0.21768893314E+02  0.49421719119E+03  0.49212239344E+03 0.  0.
         13    1    3    3    0    0  0.17376484978E+03 -0.86411492988E+02 -0.13352495283E+03  0.23556332942E+03  0.00000000000E+00 0.  1.
          3    1    3    3  501    0 -0.21237766474E+03  0.96478655114E+02  0.11175605951E+03  0.25865386177E+03  0.00000000000E+00 0.  1.
         21    1    1    2  502  501  0.38612814959E+02 -0.10067162126E+02  0.63995982064E+01  0.40413513700E+02  0.00000000000E+00 0.  1.
<scales pt_clust_4="550.00000" pt_clust_5="550.00000" pt_clust_6="39.90360"></scales>
<mgrwt>
<rscale>  0 0.30000000E+03</rscale>
<asrwt>  1 0.39903599E+02</asrwt>
<pdfrwt beam="1">  1        1 0.94411165E+00 0.30000000E+03</pdfrwt>
<pdfrwt beam="2">0</pdfrwt>
<totfact> 0.15780606E-05</totfact>
</mgrwt>
<clustering>
<clus scale="   39.904">  1  6  2 -1</clus>
<clus scale="  492.122">  4  5 -1 -1</clus>
<clus scale="  300.000">  1  4  2 -1</clus>
</clustering>
</event>
<event>
 6    1  0.1033679E-011  0.3000000E+03  0.7818608E-02  0.1093470E+00
          1   -1    0    0  502    0  0.00000000000E+00  0.00000000000E+00  0.22404605490E+03  0.22404605490E+03  0.00000000000E+00 0.  1.
         13   -1    0    0    0    0 -0.00000000000E+00 -0.00000000000E+00 -0.27500000000E+03  0.27500000000E+03  0.00000000000E+00 0.  1.
    9000005    2    1    2  501    0 -0.32335480554E+02 -0.90315774900E+01 -0.42462386205E+02  0.46441573196E+03  0.46125021968E+03 0.  0.
         13    1    3    3    0    0  0.10527890206E+03 -0.16771920911E+03  0.88485740030E+02  0.21689422886E+03  0.00000000000E+00 0.  1.
          1    1    3    3  501    0 -0.13761438262E+03  0.15868763162E+03 -0.13094812624E+03  0.24752150310E+03  0.00000000000E+00 0.  1.
         21    1    1    2  502  501  0.32335480554E+02  0.90315774900E+01 -0.84915588957E+01  0.34630322942E+02  0.00000000000E+00 0.  1.
<scales pt_clust_4="550.00000" pt_clust_5="550.00000" pt_clust_6="33.57311"></scales>
<mgrwt>
<rscale>  0 0.30000000E+03</rscale>
<asrwt>  1 0.33573112E+02</asrwt>
<pdfrwt beam="1">  1        1 0.81471293E+00 0.30000000E+03</pdfrwt>
<pdfrwt beam="2">0</pdfrwt>
<totfact> 0.80658007E-04</totfact>
</mgrwt>
<clustering>
<clus scale="   33.573">  1  6  2 -1</clus>
<clus scale="  461.250">  4  5 -1 -1</clus>
<clus scale="  300.000">  1  4  2 -1</clus>
</clustering>
</event>
<event>
 6    1  0.1033679E-011  0.3000000E+03  0.7818608E-02  0.1093470E+00
          1   -1    0    0  502    0  0.00000000000E+00  0.00000000000E+00  0.25180823305E+03  0.25180823305E+03  0.00000000000E+00 0.  1.
         13   -1    0    0    0    0 -0.00000000000E+00 -0.00000000000E+00 -0.27500000000E+03  0.27500000000E+03  0.00000000000E+00 0.  1.
    9000005    2    1    2  501    0 -0.14114104360E+02 -0.28050316576E+02 -0.28156152341E+02  0.49501714430E+03  0.49321716924E+03 0.  0.
         13    1    3    3    0    0 -0.14933672273E+03  0.14567999594E+03 -0.13684008780E+03  0.24949815149E+03  0.00000000000E+00 0.  1.
          1    1    3    3  501    0  0.13522261837E+03 -0.17373031251E+03  0.10868393545E+03  0.24551899281E+03  0.00000000000E+00 0.  1.
         21    1    1    2  502  501  0.14114104360E+02  0.28050316576E+02  0.49643853952E+01  0.31791088755E+02  0.00000000000E+00 0.  1.
<scales pt_clust_4="550.00000" pt_clust_5="550.00000" pt_clust_6="31.40109"></scales>
<mgrwt>
<rscale>  0 0.30000000E+03</rscale>
<asrwt>  1 0.31401086E+02</asrwt>
<pdfrwt beam="1">  1        1 0.91566630E+00 0.30000000E+03</pdfrwt>
<pdfrwt beam="2">0</pdfrwt>
<totfact> 0.53340391E-05</totfact>
</mgrwt>
<clustering>
<clus scale="   31.401">  1  6  2 -1</clus>
<clus scale="  493.217">  4  5 -1 -1</clus>
<clus scale="  300.000">  1  4  2 -1</clus>
</clustering>
</event>
<event>
 6    1  0.1033679E-011  0.3000000E+03  0.7818608E-02  0.1093470E+00
          1   -1    0    0  502    0  0.00000000000E+00  0.00000000000E+00  0.23321773265E+03  0.23321773265E+03  0.00000000000E+00 0.  1.
         13   -1    0    0    0    0 -0.00000000000E+00 -0.00000000000E+00 -0.27500000000E+03  0.27500000000E+03  0.00000000000E+00 0.  1.
    9000005    2    1    2  501    0  0.10447531193E+02 -0.28921871479E+02 -0.64997111915E+02  0.46968781484E+03  0.46415126123E+03 0.  0.
         13    1    3    3    0    0 -0.59205890098E+02 -0.78529396711E+02 -0.24849168868E+03  0.26724580991E+03  0.00000000000E+00 0.  1.
          1    1    3    3  501    0  0.69653421292E+02  0.49607525232E+02  0.18349457677E+03  0.20244200493E+03  0.00000000000E+00 0.  1.
         21    1    1    2  502  501 -0.10447531193E+02  0.28921871479E+02  0.23214844564E+02  0.38529917804E+02  0.00000000000E+00 0.  1.
<scales pt_clust_4="550.00000" pt_clust_5="550.00000" pt_clust_6="30.75103"></scales>
<mgrwt>
<rscale>  0 0.30000000E+03</rscale>
<asrwt>  1 0.30751025E+02</asrwt>
<pdfrwt beam="1">  1        1 0.84806448E+00 0.30000000E+03</pdfrwt>
<pdfrwt beam="2">0</pdfrwt>
<totfact> 0.43468115E-04</totfact>
</mgrwt>
<clustering>
<clus scale="   30.751">  1  6  2 -1</clus>
<clus scale="  464.151">  4  5 -1 -1</clus>
<clus scale="  300.000">  1  4  2 -1</clus>
</clustering>
</event>
<event>
 6    1  0.1033679E-011  0.3000000E+03  0.7818608E-02  0.1093470E+00
          1   -1    0    0  502    0  0.00000000000E+00  0.00000000000E+00  0.23303204536E+03  0.23303204536E+03  0.00000000000E+00 0.  1.
         13   -1    0    0    0    0 -0.00000000000E+00 -0.00000000000E+00 -0.27500000000E+03  0.27500000000E+03  0.00000000000E+00 0.  1.
    9000005    2    1    2  501    0  0.32213649586E+02  0.76250917420E+01 -0.65327431811E+02  0.46751629018E+03  0.46174446071E+03 0.  0.
         13    1    3    3    0    0  0.18907883865E+03 -0.14668206839E+03 -0.49982296594E+01  0.23935625898E+03  0.00000000000E+00 0.  1.
          1    1    3    3  501    0 -0.15686518906E+03  0.15430716013E+03 -0.60329202152E+02  0.22816003121E+03  0.00000000000E+00 0.  1.
         21    1    1    2  502  501 -0.32213649586E+02 -0.76250917420E+01  0.23359477169E+02  0.40515755174E+02  0.00000000000E+00 0.  1.
<scales pt_clust_4="550.00000" pt_clust_5="550.00000" pt_clust_6="33.10380"></scales>
<mgrwt>
<rscale>  0 0.30000000E+03</rscale>
<asrwt>  1 0.33103795E+02</asrwt>
<pdfrwt beam="1">  1        1 0.84738926E+00 0.30000000E+03</pdfrwt>
<pdfrwt beam="2">0</pdfrwt>
<totfact> 0.43474262E-04</totfact>
</mgrwt>
<clustering>
<clus scale="   33.104">  1  6  2 -1</clus>
<clus scale="  461.744">  4  5 -1 -1</clus>
<clus scale="  300.000">  1  4  2 -1</clus>
</clustering>
</event>
<event>
 6    1  0.1033679E-011  0.3000000E+03  0.7818608E-02  0.1093470E+00
          1   -1    0    0  502    0  0.00000000000E+00  0.00000000000E+00  0.22243479580E+03  0.22243479580E+03  0.00000000000E+00 0.  1.
         13   -1    0    0    0    0 -0.00000000000E+00 -0.00000000000E+00 -0.27500000000E+03  0.27500000000E+03  0.00000000000E+00 0.  1.
    9000005    2    1    2  501    0  0.19983617662E+02 -0.26894157213E+02 -0.42828855168E+02  0.46254300364E+03  0.45933547514E+03 0.  0.
         13    1    3    3    0    0  0.13571593691E+03  0.55496739512E+02 -0.20173578234E+03  0.24939131802E+03  0.00000000000E+00 0.  1.
          1    1    3    3  501    0 -0.11573231925E+03 -0.82390896724E+02  0.15890692717E+03  0.21315168562E+03  0.00000000000E+00 0.  1.
         21    1    1    2  502  501 -0.19983617662E+02  0.26894157213E+02 -0.97363490361E+01  0.34891792152E+02  0.00000000000E+00 0.  1.
<scales pt_clust_4="550.00000" pt_clust_5="550.00000" pt_clust_6="33.50585"></scales>
<mgrwt>
<rscale>  0 0.30000000E+03</rscale>
<asrwt>  1 0.33505847E+02</asrwt>
<pdfrwt beam="1">  1        1 0.80885380E+00 0.30000000E+03</pdfrwt>
<pdfrwt beam="2">0</pdfrwt>
<totfact> 0.89754349E-04</totfact>
</mgrwt>
<clustering>
<clus scale="   33.506">  1  6  2 -1</clus>
<clus scale="  459.335">  4  5 -1 -1</clus>
<clus scale="  300.000">  1  4  2 -1</clus>
</clustering>
</event>
<event>
 6    1  0.1033679E-011  0.3000000E+03  0.7818608E-02  0.1093470E+00
          1   -1    0    0  502    0  0.00000000000E+00  0.00000000000E+00  0.23794714388E+03  0.23794714388E+03  0.00000000000E+00 0.  1.
         13   -1    0    0    0    0 -0.00000000000E+00 -0.00000000000E+00 -0.27500000000E+03  0.27500000000E+03  0.00000000000E+00 0.  1.
    9000005    2    1    2  501    0 -0.85166708990E+00 -0.40845774637E+02 -0.14996197264E+02  0.46651871679E+03  0.46448436415E+03 0.  0.
         13    1    3    3    0    0 -0.17952421148E+03 -0.15614013466E+03  0.52058774291E+02  0.24355451163E+03  0.00000000000E+00 0.  1.
          3    1    3    3  501    0  0.17867254439E+03  0.11529436002E+03 -0.67054971555E+02  0.22296420515E+03  0.00000000000E+00 0.  1.
         21    1    1    2  502  501  0.85166708990E+00  0.40845774637E+02 -0.22056658854E+02  0.46428427093E+02  0.00000000000E+00 0. -1.
<scales pt_clust_4="550.00000" pt_clust_5="550.00000" pt_clust_6="40.85467"></scales>
<mgrwt>
<rscale>  0 0.30000000E+03</rscale>
<asrwt>  1 0.40854673E+02</asrwt>
<pdfrwt beam="1">  1        1 0.86526234E+00 0.30000000E+03</pdfrwt>
<pdfrwt beam="2">0</pdfrwt>
<totfact> 0.27587104E-04</totfact>
</mgrwt>
<clustering>
<clus scale="   40.855">  1  6  2 -1</clus>
<clus scale="  464.484">  4  5 -1 -1</clus>
<clus scale="  300.000">  1  4  2 -1</clus>
</clustering>
</event>
<event>
 6    1  0.1033679E-011  0.3000000E+03  0.7818608E-02  0.1093470E+00
          1   -1    0    0  502    0  0.00000000000E+00  0.00000000000E+00  0.22413879258E+03  0.22413879258E+03  0.00000000000E+00 0.  1.
         13   -1    0    0    0    0 -0.00000000000E+00 -0.00000000000E+00 -0.27500000000E+03  0.27500000000E+03  0.00000000000E+00 0.  1.
    9000005    2    1    2  501    0  0.28164560833E+02  0.16398081280E+02 -0.65505869809E+02  0.46340917331E+03  0.45759687867E+03 0.  0.
         13    1    3    3    0    0  0.93746208001E+02 -0.20072845319E+03 -0.81440137065E+02  0.23603550445E+03  0.00000000000E+00 0.  1.
          3    1    3    3  501    0 -0.65581647167E+02  0.21712653447E+03  0.15934267256E+02  0.22737366886E+03  0.00000000000E+00 0.  1.
         21    1    1    2  502  501 -0.28164560833E+02 -0.16398081280E+02  0.14644662388E+02  0.35729619268E+02  0.00000000000E+00 0. -1.
<scales pt_clust_4="550.00000" pt_clust_5="550.00000" pt_clust_6="32.59048"></scales>
<mgrwt>
<rscale>  0 0.30000000E+03</rscale>
<asrwt>  1 0.32590483E+02</asrwt>
<pdfrwt beam="1">  1        1 0.81505015E+00 0.30000000E+03</pdfrwt>
<pdfrwt beam="2">0</pdfrwt>
<totfact> 0.80605090E-04</totfact>
</mgrwt>
<clustering>
<clus scale="   32.590">  1  6  2 -1</clus>
<clus scale="  457.597">  4  5 -1 -1</clus>
<clus scale="  300.000">  1  4  2 -1</clus>
</clustering>
</event>
<event>
 6    1  0.1033679E-011  0.3000000E+03  0.7818608E-02  0.1093470E+00
          1   -1    0    0  502    0  0.00000000000E+00  0.00000000000E+00  0.22270472157E+03  0.22270472157E+03  0.00000000000E+00 0.  1.
         13   -1    0    0    0    0 -0.00000000000E+00 -0.00000000000E+00 -0.27500000000E+03  0.27500000000E+03  0.00000000000E+00 0.  1.
    9000005    2    1    2  501    0 -0.24469502999E+02  0.23329773211E+02 -0.54933350727E+02  0.46379315539E+03  0.45928573140E+03 0.  0.
         13    1    3    3    0    0 -0.12807206947E+03 -0.94420424506E+02  0.14115115903E+03  0.21270007343E+03  0.00000000000E+00 0.  1.
          1    1    3    3  501    0  0.10360256647E+03  0.11775019772E+03 -0.19608450976E+03  0.25109308196E+03  0.00000000000E+00 0.  1.
         21    1    1    2  502  501  0.24469502999E+02 -0.23329773211E+02  0.26380722945E+01  0.33911566176E+02  0.00000000000E+00 0. -1.
<scales pt_clust_4="550.00000" pt_clust_5="550.00000" pt_clust_6="33.80880"></scales>
<mgrwt>
<rscale>  0 0.30000000E+03</rscale>
<asrwt>  1 0.33808799E+02</asrwt>
<pdfrwt beam="1">  1        1 0.80983535E+00 0.30000000E+03</pdfrwt>
<pdfrwt beam="2">0</pdfrwt>
<totfact> 0.88042876E-04</totfact>
</mgrwt>
<clustering>
<clus scale="   33.809">  1  6  2 -1</clus>
<clus scale="  459.286">  4  5 -1 -1</clus>
<clus scale="  300.000">  1  4  2 -1</clus>
</clustering>
</event>
<event>
 6    1  0.1033679E-011  0.3000000E+03  0.7818608E-02  0.1093470E+00
          1   -1    0    0  502    0  0.00000000000E+00  0.00000000000E+00  0.23858523716E+03  0.23858523716E+03  0.00000000000E+00 0.  1.
         13   -1    0    0    0    0 -0.00000000000E+00 -0.00000000000E+00 -0.27500000000E+03  0.27500000000E+03  0.00000000000E+00 0.  1.
    9000005    2    1    2  501    0 -0.17023587857E+02  0.34152904898E+02 -0.57018863287E+02  0.47021759471E+03  0.46518513750E+03 0.  0.
         13    1    3    3    0    0  0.22260581422E+03 -0.68208421411E+01 -0.12443835940E+02  0.22305766399E+03  0.00000000000E+00 0.  1.
          3    1    3    3  501    0 -0.23962940208E+03  0.40973747039E+02 -0.44575027347E+02  0.24715993072E+03  0.00000000000E+00 0.  1.
         21    1    1    2  502  501  0.17023587857E+02 -0.34152904898E+02  0.20604100449E+02  0.43367642451E+02  0.00000000000E+00 0. -1.
<scales pt_clust_4="550.00000" pt_clust_5="550.00000" pt_clust_6="38.16050"></scales>
<mgrwt>
<rscale>  0 0.30000000E+03</rscale>
<asrwt>  1 0.38160496E+02</asrwt>
<pdfrwt beam="1">  1        1 0.86758268E+00 0.30000000E+03</pdfrwt>
<pdfrwt beam="2">0</pdfrwt>
<totfact> 0.26395015E-04</totfact>
</mgrwt>
<clustering>
<clus scale="   38.160">  1  6  2 -1</clus>
<clus scale="  465.185">  4  5 -1 -1</clus>
<clus scale="  300.000">  1  4  2 -1</clus>
</clustering>
</event>
<event>
 6    1  0.1033679E-011  0.3000000E+03  0.7818608E-02  0.1093470E+00
          1   -1    0    0  502    0  0.00000000000E+00  0.00000000000E+00  0.23569066396E+03  0.23569066396E+03  0.00000000000E+00 0.  1.
         13   -1    0    0    0    0 -0.00000000000E+00 -0.00000000000E+00 -0.27500000000E+03  0.27500000000E+03  0.00000000000E+00 0.  1.
    9000005    2    1    2  501    0 -0.42077684821E+02 -0.41582968638E+01 -0.54329143972E+02  0.46581954159E+03  0.46070420711E+03 0.  0.
         13    1    3    3    0    0 -0.23237573854E+03  0.54835516434E+02  0.45374920037E+02  0.24303148169E+03  0.00000000000E+00 0.  1.
          3    1    3    3  501    0  0.19029805371E+03 -0.58993813298E+02 -0.99704064009E+02  0.22278805990E+03  0.00000000000E+00 0.  1.
         21    1    1    2  502  501  0.42077684821E+02  0.41582968638E+01  0.15019807935E+02  0.44871122374E+02  0.00000000000E+00 0.  1.
<scales pt_clust_4="550.00000" pt_clust_5="550.00000" pt_clust_6="42.28266"></scales>
<mgrwt>
<rscale>  0 0.30000000E+03</rscale>
<asrwt>  1 0.42282656E+02</asrwt>
<pdfrwt beam="1">  1        1 0.85705696E+00 0.30000000E+03</pdfrwt>
<pdfrwt beam="2">0</pdfrwt>
<totfact> 0.33544565E-04</totfact>
</mgrwt>
<clustering>
<clus scale="   42.283">  1  6  2 -1</clus>
<clus scale="  460.704">  4  5 -1 -1</clus>
<clus scale="  300.000">  1  4  2 -1</clus>
</clustering>
</event>
<event>
 6    1  0.1033679E-011  0.3000000E+03  0.7818608E-02  0.1093470E+00
          1   -1    0    0  502    0  0.00000000000E+00  0.00000000000E+00  0.23865761519E+03  0.23865761519E+03  0.00000000000E+00 0.  1.
         13   -1    0    0    0    0 -0.00000000000E+00 -0.00000000000E+00 -0.27500000000E+03  0.27500000000E+03  0.00000000000E+00 0.  1.
    9000005    2    1    2  501    0  0.31804035217E+02  0.34373481970E+01 -0.69975091115E+02  0.46724133623E+03  0.46086293070E+03 0.  0.
         13    1    3    3    0    0  0.99317145587E+02 -0.26776279679E+02  0.17958107050E+03  0.20695464586E+03  0.00000000000E+00 0.  1.
          1    1    3    3  501    0 -0.67513110369E+02  0.30213627876E+02 -0.24955616162E+03  0.26028669037E+03  0.00000000000E+00 0.  1.
         21    1    1    2  502  501 -0.31804035217E+02 -0.34373481970E+01  0.33632706305E+02  0.46416278956E+02  0.00000000000E+00 0. -1.
<scales pt_clust_4="550.00000" pt_clust_5="550.00000" pt_clust_6="31.98925"></scales>
<mgrwt>
<rscale>  0 0.30000000E+03</rscale>
<asrwt>  1 0.31989248E+02</asrwt>
<pdfrwt beam="1">  1        1 0.86784587E+00 0.30000000E+03</pdfrwt>
<pdfrwt beam="2">0</pdfrwt>
<totfact> 0.27109007E-04</totfact>
</mgrwt>
<clustering>
<clus scale="   31.989">  1  6  2 -1</clus>
<clus scale="  460.863">  4  5 -1 -1</clus>
<clus scale="  300.000">  1  4  2 -1</clus>
</clustering>
</event>
<event>
 6    1  0.1033679E-011  0.3000000E+03  0.7818608E-02  0.1093470E+00
          1   -1    0    0  502    0  0.00000000000E+00  0.00000000000E+00  0.23857492068E+03  0.23857492068E+03  0.00000000000E+00 0.  1.
         13   -1    0    0    0    0 -0.00000000000E+00 -0.00000000000E+00 -0.27500000000E+03  0.27500000000E+03  0.00000000000E+00 0.  1.
    9000005    2    1    2  501    0 -0.16809536329E+02 -0.29250237506E+02 -0.40000992960E+02  0.47964964892E+03  0.47678671266E+03 0.  0.
         13    1    3    3    0    0  0.19400523640E+03 -0.21371697361E+02  0.10694150268E+03  0.22255620906E+03  0.00000000000E+00 0.  1.
          1    1    3    3  501    0 -0.21081477272E+03 -0.78785401456E+01 -0.14694249564E+03  0.25709343986E+03  0.00000000000E+00 0.  1.
         21    1    1    2  502  501  0.16809536329E+02  0.29250237506E+02  0.35759136416E+01  0.33925271762E+02  0.00000000000E+00 0.  1.
<scales pt_clust_4="550.00000" pt_clust_5="550.00000" pt_clust_6="33.73628"></scales>
<mgrwt>
<rscale>  0 0.30000000E+03</rscale>
<asrwt>  1 0.33736285E+02</asrwt>
<pdfrwt beam="1">  1        1 0.86754517E+00 0.30000000E+03</pdfrwt>
<pdfrwt beam="2">0</pdfrwt>
<totfact> 0.27032038E-04</totfact>
</mgrwt>
<clustering>
<clus scale="   33.736">  1  6  2 -1</clus>
<clus scale="  476.787">  4  5 -1 -1</clus>
<clus scale="  300.000">  1  4  2 -1</clus>
</clustering>
</event>
<event>
 6    1  0.1033679E-011  0.3000000E+03  0.7818608E-02  0.1093470E+00
          1   -1    0    0  502    0  0.00000000000E+00  0.00000000000E+00  0.25270703112E+03  0.25270703112E+03  0.00000000000E+00 0.  1.
         13   -1    0    0    0    0 -0.00000000000E+00 -0.00000000000E+00 -0.27500000000E+03  0.27500000000E+03  0.00000000000E+00 0.  1.
    9000005    2    1    2  501    0 -0.29466887413E+02  0.64052721120E+01 -0.66426884736E+02  0.47425492645E+03  0.46861058384E+03 0.  0.
         13    1    3    3    0    0  0.71530015132E+02 -0.31071062382E+01  0.18755879208E+03  0.20075980091E+03  0.00000000000E+00 0.  1.
          3    1    3    3  501    0 -0.10099690255E+03  0.95123783502E+01 -0.25398567682E+03  0.27349512554E+03  0.00000000000E+00 0.  1.
         21    1    1    2  502  501  0.29466887413E+02 -0.64052721120E+01  0.44133915860E+02  0.53452104671E+02  0.00000000000E+00 0.  1.
<scales pt_clust_4="550.00000" pt_clust_5="550.00000" pt_clust_6="30.15502"></scales>
<mgrwt>
<rscale>  0 0.30000000E+03</rscale>
<asrwt>  1 0.30155016E+02</asrwt>
<pdfrwt beam="1">  1        1 0.91893466E+00 0.30000000E+03</pdfrwt>
<pdfrwt beam="2">0</pdfrwt>
<totfact> 0.45368086E-05</totfact>
</mgrwt>
<clustering>
<clus scale="   30.155">  1  6  2 -1</clus>
<clus scale="  468.611">  4  5 -1 -1</clus>
<clus scale="  300.000">  1  4  2 -1</clus>
</clustering>
</event>
<event>
 6    1  0.1033679E-011  0.3000000E+03  0.7818608E-02  0.1093470E+00
          1   -1    0    0  502    0  0.00000000000E+00  0.00000000000E+00  0.23024963217E+03  0.23024963217E+03  0.00000000000E+00 0.  1.
         13   -1    0    0    0    0 -0.00000000000E+00 -0.00000000000E+00 -0.27500000000E+03  0.27500000000E+03  0.00000000000E+00 0.  1.
    9000005    2    1    2  501    0  0.36120900931E+02 -0.24422976983E+02 -0.29803209247E+02  0.45915604435E+03  0.45610836486E+03 0.  0.
         13    1    3    3    0    0  0.20026929758E+03 -0.14703918790E+03  0.16851041472E+02  0.24902263337E+03  0.00000000000E+00 0.  1.
          1    1    3    3  501    0 -0.16414839664E+03  0.12261621092E+03 -0.46654250719E+02  0.21013341098E+03  0.00000000000E+00 0.  1.
         21    1    1    2  502  501 -0.36120900931E+02  0.24422976983E+02 -0.14947158582E+02  0.46093587824E+02  0.00000000000E+00 0.  1.
<scales pt_clust_4="550.00000" pt_clust_5="550.00000" pt_clust_6="43.60279"></scales>
<mgrwt>
<rscale>  0 0.30000000E+03</rscale>
<asrwt>  1 0.43602789E+02</asrwt>
<pdfrwt beam="1">  1        1 0.83727139E+00 0.30000000E+03</pdfrwt>
<pdfrwt beam="2">0</pdfrwt>
<totfact> 0.50025379E-04</totfact>
</mgrwt>
<clustering>
<clus scale="   43.603">  1  6  2 -1</clus>
<clus scale="  456.108">  4  5 -1 -1</clus>
<clus scale="  300.000">  1  4  2 -1</clus>
</clustering>
</event>
<event>
 6    1  0.1033679E-011  0.3000000E+03  0.7818608E-02  0.1093470E+00
          1   -1    0    0  502    0  0.00000000000E+00  0.00000000000E+00  0.24167415650E+03  0.24167415650E+03  0.00000000000E+00 0.  1.
         13   -1    0    0    0    0 -0.00000000000E+00 -0.00000000000E+00 -0.27500000000E+03  0.27500000000E+03  0.00000000000E+00 0.  1.
    9000005    2    1    2  501    0  0.15723134887E+02 -0.27738080284E+02 -0.52431119806E+02  0.47950387736E+03  0.47556106654E+03 0.  0.
         13    1    3    3    0    0 -0.20092006220E+03  0.15951915301E+02 -0.13608993534E+03  0.24319499480E+03  0.00000000000E+00 0.  1.
          1    1    3    3  501    0  0.21664319709E+03 -0.43689995586E+02  0.83658815534E+02  0.23630888256E+03  0.00000000000E+00 0.  1.
         21    1    1    2  502  501 -0.15723134887E+02  0.27738080284E+02  0.19105276308E+02  0.37170279139E+02  0.00000000000E+00 0.  1.
<scales pt_clust_4="550.00000" pt_clust_5="550.00000" pt_clust_6="31.88445"></scales>
<mgrwt>
<rscale>  0 0.30000000E+03</rscale>
<asrwt>  1 0.31884449E+02</asrwt>
<pdfrwt beam="1">  1        1 0.87881511E+00 0.30000000E+03</pdfrwt>
<pdfrwt beam="2">0</pdfrwt>
<totfact> 0.20761056E-04</totfact>
</mgrwt>
<clustering>
<clus scale="   31.884">  1  6  2 -1</clus>
<clus scale="  475.561">  4  5 -1 -1</clus>
<clus scale="  300.000">  1  4  2 -1</clus>
</clustering>
</event>
<event>
 6    1  0.1033679E-011  0.3000000E+03  0.7818608E-02  0.1093470E+00
          1   -1    0    0  502    0  0.00000000000E+00  0.00000000000E+00  0.22677273746E+03  0.22677273746E+03  0.00000000000E+00 0.  1.
         13   -1    0    0    0    0 -0.00000000000E+00 -0.00000000000E+00 -0.27500000000E+03  0.27500000000E+03  0.00000000000E+00 0.  1.
    9000005    2    1    2  501    0 -0.30762369162E+02 -0.59203581860E+01 -0.53788592722E+02  0.46995603758E+03  0.46581551129E+03 0.  0.
         13    1    3    3    0    0 -0.23073416941E+03 -0.42802786680E+02 -0.10972841165E+03  0.25905725198E+03  0.00000000000E+00 0.  1.
          1    1    3    3  501    0  0.19997180025E+03  0.36882428494E+02  0.55939818928E+02  0.21089878560E+03  0.00000000000E+00 0.  1.
         21    1    1    2  502  501  0.30762369162E+02  0.59203581860E+01  0.55613301818E+01  0.31816699874E+02  0.00000000000E+00 0. -1.
<scales pt_clust_4="550.00000" pt_clust_5="550.00000" pt_clust_6="31.32689"></scales>
<mgrwt>
<rscale>  0 0.30000000E+03</rscale>
<asrwt>  1 0.31326889E+02</asrwt>
<pdfrwt beam="1">  1        1 0.82462814E+00 0.30000000E+03</pdfrwt>
<pdfrwt beam="2">0</pdfrwt>
<totfact> 0.67212152E-04</totfact>
</mgrwt>
<clustering>
<clus scale="   31.327">  1  6  2 -1</clus>
<clus scale="  465.816">  4  5 -1 -1</clus>
<clus scale="  300.000">  1  4  2 -1</clus>
</clustering>
</event>
<event>
 6    1  0.1033679E-011  0.3000000E+03  0.7818608E-02  0.1093470E+00
          1   -1    0    0  502    0  0.00000000000E+00  0.00000000000E+00  0.23898542947E+03  0.23898542947E+03  0.00000000000E+00 0.  1.
         13   -1    0    0    0    0 -0.00000000000E+00 -0.00000000000E+00 -0.27500000000E+03  0.27500000000E+03  0.00000000000E+00 0.  1.
    9000005    2    1    2  501    0  0.23254144902E+02  0.38507549659E+02 -0.24325226574E+02  0.46750718296E+03  0.46470169231E+03 0.  0.
         13    1    3    3    0    0 -0.18919847332E+03 -0.55588580079E+01  0.10344921996E+03  0.21570513281E+03  0.00000000000E+00 0.  1.
          1    1    3    3  501    0  0.21245261822E+03  0.44066407667E+02 -0.12777444653E+03  0.25180205015E+03  0.00000000000E+00 0.  1.
         21    1    1    2  502  501 -0.23254144902E+02 -0.38507549659E+02 -0.11689343961E+02  0.46478246504E+02  0.00000000000E+00 0.  1.
<scales pt_clust_4="550.00000" pt_clust_5="550.00000" pt_clust_6="44.98432"></scales>
<mgrwt>
<rscale>  0 0.30000000E+03</rscale>
<asrwt>  1 0.44984316E+02</asrwt>
<pdfrwt beam="1">  1        1 0.86903793E+00 0.30000000E+03</pdfrwt>
<pdfrwt beam="2">0</pdfrwt>
<totfact> 0.24745378E-04</totfact>
</mgrwt>
<clustering>
<clus scale="   44.984">  1  6  2 -1</clus>
<clus scale="  464.702">  4  5 -1 -1</clus>
<clus scale="  300.000">  1  4  2 -1</clus>
</clustering>
</event>
<event>
 6    1  0.1033679E-011  0.3000000E+03  0.7818608E-02  0.1093470E+00
          1   -1    0    0  502    0  0.00000000000E+00  0.00000000000E+00  0.25474857334E+03  0.25474857334E+03  0.00000000000E+00 0.  1.
         13   -1    0    0    0    0 -0.00000000000E+00 -0.00000000000E+00 -0.27500000000E+03  0.27500000000E+03  0.00000000000E+00 0.  1.
    9000005    2    1    2  501    0  0.30424249692E+02 -0.22593830812E+02 -0.47099246499E+02  0.48330590341E+03  0.47951031385E+03 0.  0.
         13    1    3    3    0    0 -0.36685565454E+01 -0.24683871976E+03 -0.66471266009E+02  0.25565844615E+03  0.00000000000E+00 0.  1.
          3    1    3    3  501    0  0.34092806237E+02  0.22424488895E+03  0.19372019510E+02  0.22764745726E+03  0.00000000000E+00 0.  1.
         21    1    1    2  502  501 -0.30424249692E+02  0.22593830812E+02  0.26847819840E+02  0.46442669930E+02  0.00000000000E+00 0.  1.
<scales pt_clust_4="550.00000" pt_clust_5="550.00000" pt_clust_6="37.89612"></scales>
<mgrwt>
<rscale>  0 0.30000000E+03</rscale>
<asrwt>  1 0.37896123E+02</asrwt>
<pdfrwt beam="1">  1        1 0.92635845E+00 0.30000000E+03</pdfrwt>
<pdfrwt beam="2">0</pdfrwt>
<totfact> 0.30296364E-05</totfact>
</mgrwt>
<clustering>
<clus scale="   37.896">  1  6  2 -1</clus>
<clus scale="  479.510">  4  5 -1 -1</clus>
<clus scale="  300.000">  1  4  2 -1</clus>
</clustering>
</event>
<event>
 6    1  0.1033679E-011  0.3000000E+03  0.7818608E-02  0.1093470E+00
          1   -1    0    0  502    0  0.00000000000E+00  0.00000000000E+00  0.22689198918E+03  0.22689198918E+03  0.00000000000E+00 0.  1.
         13   -1    0    0    0    0 -0.00000000000E+00 -0.00000000000E+00 -0.27500000000E+03  0.27500000000E+03  0.00000000000E+00 0.  1.
    9000005    2    1    2  501    0  0.18271284718E+02 -0.24138415889E+02 -0.46217938464E+02  0.47155924548E+03  0.46831135070E+03 0.  0.
         13    1    3    3    0    0 -0.20996786674E+02 -0.19199568005E+03 -0.17162868180E+03  0.25837881226E+03  0.00000000000E+00 0.  1.
          1    1    3    3  501    0  0.39268071392E+02  0.16785726416E+03  0.12541074334E+03  0.21318043322E+03  0.00000000000E+00 0.  1.
         21    1    1    2  502  501 -0.18271284718E+02  0.24138415889E+02 -0.18900723553E+01  0.30332743700E+02  0.00000000000E+00 0.  1.
<scales pt_clust_4="550.00000" pt_clust_5="550.00000" pt_clust_6="30.27380"></scales>
<mgrwt>
<rscale>  0 0.30000000E+03</rscale>
<asrwt>  1 0.30273800E+02</asrwt>
<pdfrwt beam="1">  1        1 0.82506178E+00 0.30000000E+03</pdfrwt>
<pdfrwt beam="2">0</pdfrwt>
<totfact> 0.67053581E-04</totfact>
</mgrwt>
<clustering>
<clus scale="   30.274">  1  6  2 -1</clus>
<clus scale="  468.311">  4  5 -1 -1</clus>
<clus scale="  300.000">  1  4  2 -1</clus>
</clustering>
</event>
<event>
 6    1  0.1033679E-011  0.3000000E+03  0.7818608E-02  0.1093470E+00
          1   -1    0    0  502    0  0.00000000000E+00  0.00000000000E+00  0.24968839238E+03  0.24968839238E+03  0.00000000000E+00 0.  1.
         13   -1    0    0    0    0 -0.00000000000E+00 -0.00000000000E+00 -0.27500000000E+03  0.27500000000E+03  0.00000000000E+00 0.  1.
    9000005    2    1    2  501    0 -0.30487733018E+01  0.31547624275E+02 -0.52904555457E+02  0.48266556065E+03  0.47870931037E+03 0.  0.
         13    1    3    3    0    0 -0.92706287722E+02  0.94400885940E+02 -0.23528850154E+03  0.26993825591E+03  0.00000000000E+00 0.  1.
          1    1    3    3  501    0  0.89657514420E+02 -0.62853261665E+02  0.18238394608E+03  0.21272730474E+03  0.00000000000E+00 0.  1.
         21    1    1    2  502  501  0.30487733018E+01 -0.31547624275E+02  0.27592947838E+02  0.42022831728E+02  0.00000000000E+00 0.  1.
<scales pt_clust_4="550.00000" pt_clust_5="550.00000" pt_clust_6="31.69460"></scales>
<mgrwt>
<rscale>  0 0.30000000E+03</rscale>
<asrwt>  1 0.31694599E+02</asrwt>
<pdfrwt beam="1">  1        1 0.90795779E+00 0.30000000E+03</pdfrwt>
<pdfrwt beam="2">0</pdfrwt>
<totfact> 0.81767933E-05</totfact>
</mgrwt>
<clustering>
<clus scale="   31.695">  1  6  2 -1</clus>
<clus scale="  478.709">  4  5 -1 -1</clus>
<clus scale="  300.000">  1  4  2 -1</clus>
</clustering>
</event>
<event>
 6    1  0.1033679E-011  0.3000000E+03  0.7818608E-02  0.1093470E+00
          1   -1    0    0  502    0  0.00000000000E+00  0.00000000000E+00  0.22997551616E+03  0.22997551616E+03  0.00000000000E+00 0.  1.
         13   -1    0    0    0    0 -0.00000000000E+00 -0.00000000000E+00 -0.27500000000E+03  0.27500000000E+03  0.00000000000E+00 0.  1.
    9000005    2    1    2  501    0  0.17996273532E+02 -0.35034831160E+02 -0.42889289585E+02  0.46553107029E+03  0.46187485425E+03 0.  0.
         13    1    3    3    0    0  0.11391877850E+03  0.16015675532E+03 -0.12515433804E+03  0.23300489845E+03  0.00000000000E+00 0.  1.
          1    1    3    3  501    0 -0.95922504970E+02 -0.19519158648E+03  0.82265048457E+02  0.23252617184E+03  0.00000000000E+00 0.  1.
         21    1    1    2  502  501 -0.17996273532E+02  0.35034831160E+02 -0.21351942530E+01  0.39444445869E+02  0.00000000000E+00 0.  1.
<scales pt_clust_4="550.00000" pt_clust_5="550.00000" pt_clust_6="39.38661"></scales>
<mgrwt>
<rscale>  0 0.30000000E+03</rscale>
<asrwt>  1 0.39386613E+02</asrwt>
<pdfrwt beam="1">  1        1 0.83627460E+00 0.30000000E+03</pdfrwt>
<pdfrwt beam="2">0</pdfrwt>
<totfact> 0.51812652E-04</totfact>
</mgrwt>
<clustering>
<clus scale="   39.387">  1  6  2 -1</clus>
<clus scale="  461.875">  4  5 -1 -1</clus>
<clus scale="  300.000">  1  4  2 -1</clus>
</clustering>
</event>
<event>
 6    1  0.1033679E-011  0.3000000E+03  0.7818608E-02  0.1093470E+00
          1   -1    0    0  502    0  0.00000000000E+00  0.00000000000E+00  0.23540805374E+03  0.23540805374E+03  0.00000000000E+00 0.  1.
         13   -1    0    0    0    0 -0.00000000000E+00 -0.00000000000E+00 -0.27500000000E+03  0.27500000000E+03  0.00000000000E+00 0.  1.
    9000005    2    1    2  501    0  0.73445192427E+01 -0.30411312053E+02 -0.24972313901E+02  0.47587511999E+03  0.47418848942E+03 0.  0.
         13    1    3    3    0    0  0.29558638235E+02 -0.17095579101E+03 -0.19045596539E+03  0.25762971554E+03  0.00000000000E+00 0.  1.
          3    1    3    3  501    0 -0.22214118993E+02  0.14054447896E+03  0.16548365149E+03  0.21824540444E+03  0.00000000000E+00 0.  1.
         21    1    1    2  502  501 -0.73445192427E+01  0.30411312053E+02 -0.14619632356E+02  0.34532933757E+02  0.00000000000E+00 0.  1.
<scales pt_clust_4="550.00000" pt_clust_5="550.00000" pt_clust_6="31.28563"></scales>
<mgrwt>
<rscale>  0 0.30000000E+03</rscale>
<asrwt>  1 0.31285633E+02</asrwt>
<pdfrwt beam="1">  1        1 0.85602929E+00 0.30000000E+03</pdfrwt>
<pdfrwt beam="2">0</pdfrwt>
<totfact> 0.36341544E-04</totfact>
</mgrwt>
<clustering>
<clus scale="   31.286">  1  6  2 -1</clus>
<clus scale="  474.188">  4  5 -1 -1</clus>
<clus scale="  300.000">  1  4  2 -1</clus>
</clustering>
</event>
<event>
 6    1  0.1033679E-011  0.3000000E+03  0.7818608E-02  0.1093470E+00
          1   -1    0    0  502    0  0.00000000000E+00  0.00000000000E+00  0.24053031255E+03  0.24053031255E+03  0.00000000000E+00 0.  1.
         13   -1    0    0    0    0 -0.00000000000E+00 -0.00000000000E+00 -0.27500000000E+03  0.27500000000E+03  0.00000000000E+00 0.  1.
    9000005    2    1    2  501    0  0.31801938552E+02  0.16404091884E+02 -0.23705678707E+02  0.47816292824E+03  0.47623247392E+03 0.  0.
         13    1    3    3    0    0 -0.10387226646E+03  0.21205002502E+03  0.16526345645E+02  0.23670188202E+03  0.00000000000E+00 0.  1.
          1    1    3    3  501    0  0.13567420501E+03 -0.19564593314E+03 -0.40232024352E+02  0.24146104622E+03  0.00000000000E+00 0.  1.
         21    1    1    2  502  501 -0.31801938552E+02 -0.16404091884E+02 -0.10764008741E+02  0.37367384313E+02  0.00000000000E+00 0. -1.
<scales pt_clust_4="550.00000" pt_clust_5="550.00000" pt_clust_6="35.78350"></scales>
<mgrwt>
<rscale>  0 0.30000000E+03</rscale>
<asrwt>  1 0.35783499E+02</asrwt>
<pdfrwt beam="1">  1        1 0.87465568E+00 0.30000000E+03</pdfrwt>
<pdfrwt beam="2">0</pdfrwt>
<totfact> 0.22588065E-04</totfact>
</mgrwt>
<clustering>
<clus scale="   35.783">  1  6  2 -1</clus>
<clus scale="  476.232">  4  5 -1 -1</clus>
<clus scale="  300.000">  1  4  2 -1</clus>
</clustering>
</event>
<event>
 6    1  0.1033679E-011  0.3000000E+03  0.7818608E-02  0.1093470E+00
          1   -1    0    0  502    0  0.00000000000E+00  0.00000000000E+00  0.22707259557E+03  0.22707259557E+03  0.00000000000E+00 0.  1.
         13   -1    0    0    0    0 -0.00000000000E+00 -0.00000000000E+00 -0.27500000000E+03  0.27500000000E+03  0.00000000000E+00 0.  1.
    9000005    2    1    2  501    0  0.17794001862E+02  0.25468036044E+02 -0.58845093369E+02  0.46914170895E+03  0.46439848266E+03 0.  0.
         13    1    3    3    0    0  0.93992447031E+02 -0.19806762873E+03 -0.76783884967E+02  0.23229535217E+03  0.00000000000E+00 0.  1.
          3    1    3    3  501    0 -0.76198445170E+02  0.22353566477E+03  0.17938791598E+02  0.23684635677E+03  0.00000000000E+00 0.  1.
         21    1    1    2  502  501 -0.17794001862E+02 -0.25468036044E+02  0.10917688941E+02  0.32930886626E+02  0.00000000000E+00 0. -1.
<scales pt_clust_4="550.00000" pt_clust_5="550.00000" pt_clust_6="31.06843"></scales>
<mgrwt>
<rscale>  0 0.30000000E+03</rscale>
<asrwt>  1 0.31068430E+02</asrwt>
<pdfrwt beam="1">  1        1 0.82571853E+00 0.30000000E+03</pdfrwt>
<pdfrwt beam="2">0</pdfrwt>
<totfact> 0.65828027E-04</totfact>
</mgrwt>
<clustering>
<clus scale="   31.068">  1  6  2 -1</clus>
<clus scale="  464.398">  4  5 -1 -1</clus>
<clus scale="  300.000">  1  4  2 -1</clus>
</clustering>
</event>
<event>
 6    1  0.1033679E-011  0.3000000E+03  0.7818608E-02  0.1093470E+00
          1   -1    0    0  502    0  0.00000000000E+00  0.00000000000E+00  0.22451760946E+03  0.22451760946E+03  0.00000000000E+00 0.  1.
         13   -1    0    0    0    0 -0.00000000000E+00 -0.00000000000E+00 -0.27500000000E+03  0.27500000000E+03  0.00000000000E+00 0.  1.
    9000005    2    1    2  501    0 -0.12827869966E+02 -0.27387260337E+02 -0.58891943055E+02  0.46812753380E+03  0.46342260483E+03 0.  0.
         13    1    3    3    0    0 -0.14904182322E+03 -0.76301612221E+02 -0.20350350953E+03  0.26353193258E+03  0.00000000000E+00 0.  1.
          3    1    3    3  501    0  0.13621395325E+03  0.48914351884E+02  0.14461156648E+03  0.20459560122E+03  0.00000000000E+00 0.  1.
         21    1    1    2  502  501  0.12827869966E+02  0.27387260337E+02  0.84095525192E+01  0.31390075665E+02  0.00000000000E+00 0. -1.
<scales pt_clust_4="550.00000" pt_clust_5="550.00000" pt_clust_6="30.24262"></scales>
<mgrwt>
<rscale>  0 0.30000000E+03</rscale>
<asrwt>  1 0.30242624E+02</asrwt>
<pdfrwt beam="1">  1        1 0.81642767E+00 0.30000000E+03</pdfrwt>
<pdfrwt beam="2">0</pdfrwt>
<totfact> 0.79681122E-04</totfact>
</mgrwt>
<clustering>
<clus scale="   30.243">  1  6  2 -1</clus>
<clus scale="  463.423">  4  5 -1 -1</clus>
<clus scale="  300.000">  1  4  2 -1</clus>
</clustering>
</event>
<event>
 6    1  0.1033679E-011  0.3000000E+03  0.7818608E-02  0.1093470E+00
          1   -1    0    0  502    0  0.00000000000E+00  0.00000000000E+00  0.22633951520E+03  0.22633951520E+03  0.00000000000E+00 0.  1.
         13   -1    0    0    0    0 -0.00000000000E+00 -0.00000000000E+00 -0.27500000000E+03  0.27500000000E+03  0.00000000000E+00 0.  1.
    9000005    2    1    2  501    0  0.32331389866E+02 -0.93101016837E+01 -0.54124416811E+02  0.46725357503E+03  0.46288708572E+03 0.  0.
         13    1    3    3    0    0  0.15416009140E+03 -0.15606339677E+03  0.80637285274E+02  0.23371668612E+03  0.00000000000E+00 0.  1.
          1    1    3    3  501    0 -0.12182870153E+03  0.14675329509E+03 -0.13476170208E+03  0.23353688892E+03  0.00000000000E+00 0.  1.
         21    1    1    2  502  501 -0.32331389866E+02  0.93101016837E+01  0.54639320129E+01  0.34085940167E+02  0.00000000000E+00 0. -1.
<scales pt_clust_4="550.00000" pt_clust_5="550.00000" pt_clust_6="33.64516"></scales>
<mgrwt>
<rscale>  0 0.30000000E+03</rscale>
<asrwt>  1 0.33645160E+02</asrwt>
<pdfrwt beam="1">  1        1 0.82305278E+00 0.30000000E+03</pdfrwt>
<pdfrwt beam="2">0</pdfrwt>
<totfact> 0.68491683E-04</totfact>
</mgrwt>
<clustering>
<clus scale="   33.645">  1  6  2 -1</clus>
<clus scale="  462.887">  4  5 -1 -1</clus>
<clus scale="  300.000">  1  4  2 -1</clus>
</clustering>
</event>
<event>
 6    1  0.1033679E-011  0.3000000E+03  0.7818608E-02  0.1093470E+00
          1   -1    0    0  502    0  0.00000000000E+00  0.00000000000E+00  0.24798212679E+03  0.24798212679E+03  0.00000000000E+00 0.  1.
         13   -1    0    0    0    0 -0.00000000000E+00 -0.00000000000E+00 -0.27500000000E+03  0.27500000000E+03  0.00000000000E+00 0.  1.
    9000005    2    1    2  501    0 -0.18703109646E+02  0.30674834663E+02 -0.59901101562E+02  0.47427834358E+03  0.46910665464E+03 0.  0.
         13    1    3    3    0    0  0.17962586674E+03  0.15078839499E+03  0.10759585344E+01  0.23452878236E+03  0.00000000000E+00 0.  1.
          1    1    3    3  501    0 -0.19832897639E+03 -0.12011356033E+03 -0.60977060096E+02  0.23974956123E+03  0.00000000000E+00 0.  1.
         21    1    1    2  502  501  0.18703109646E+02 -0.30674834663E+02  0.32883228355E+02  0.48703783211E+02  0.00000000000E+00 0.  1.
<scales pt_clust_4="550.00000" pt_clust_5="550.00000" pt_clust_6="35.92703"></scales>
<mgrwt>
<rscale>  0 0.30000000E+03</rscale>
<asrwt>  1 0.35927034E+02</asrwt>
<pdfrwt beam="1">  1        1 0.90175319E+00 0.30000000E+03</pdfrwt>
<pdfrwt beam="2">0</pdfrwt>
<totfact> 0.10414105E-04</totfact>
</mgrwt>
<clustering>
<clus scale="   35.927">  1  6  2 -1</clus>
<clus scale="  469.107">  4  5 -1 -1</clus>
<clus scale="  300.000">  1  4  2 -1</clus>
</clustering>
</event>
<event>
 6    1  0.1033679E-011  0.3000000E+03  0.7818608E-02  0.1093470E+00
          1   -1    0    0  502    0  0.00000000000E+00  0.00000000000E+00  0.22059056085E+03  0.22059056085E+03  0.00000000000E+00 0.  1.
         13   -1    0    0    0    0 -0.00000000000E+00 -0.00000000000E+00 -0.27500000000E+03  0.27500000000E+03  0.00000000000E+00 0.  1.
    9000005    2    1    2  501    0  0.61453294294E+01  0.30908551207E+02 -0.65697707000E+02  0.46211626321E+03  0.45633556557E+03 0.  0.
         13    1    3    3    0    0 -0.85706364484E+02 -0.61389212335E+02 -0.22968172676E+03  0.25272101597E+03  0.00000000000E+00 0.  1.
          1    1    3    3  501    0  0.91851693913E+02  0.92297763542E+02  0.16398401976E+03  0.20939524724E+03  0.00000000000E+00 0.  1.
         21    1    1    2  502  501 -0.61453294294E+01 -0.30908551207E+02  0.11288267851E+02  0.33474297642E+02  0.00000000000E+00 0. -1.
<scales pt_clust_4="550.00000" pt_clust_5="550.00000" pt_clust_6="31.51355"></scales>
<mgrwt>
<rscale>  0 0.30000000E+03</rscale>
<asrwt>  1 0.31513546E+02</asrwt>
<pdfrwt beam="1">  1        1 0.80214749E+00 0.30000000E+03</pdfrwt>
<pdfrwt beam="2">0</pdfrwt>
<totfact> 0.10205125E-03</totfact>
</mgrwt>
<clustering>
<clus scale="   31.514">  1  6  2 -1</clus>
<clus scale="  456.336">  4  5 -1 -1</clus>
<clus scale="  300.000">  1  4  2 -1</clus>
</clustering>
</event>
<event>
 6    1  0.1033679E-011  0.3000000E+03  0.7818608E-02  0.1093470E+00
          1   -1    0    0  502    0  0.00000000000E+00  0.00000000000E+00  0.22569535287E+03  0.22569535287E+03  0.00000000000E+00 0.  1.
         13   -1    0    0    0    0 -0.00000000000E+00 -0.00000000000E+00 -0.27500000000E+03  0.27500000000E+03  0.00000000000E+00 0.  1.
    9000005    2    1    2  501    0 -0.17317978753E+02  0.31165880024E+02 -0.63320326798E+02  0.46238525313E+03  0.45663928221E+03 0.  0.
         13    1    3    3    0    0  0.14599323472E+03  0.14270436384E+03  0.78817393601E+02  0.21883953385E+03  0.00000000000E+00 0.  1.
          1    1    3    3  501    0 -0.16331121347E+03 -0.11153848381E+03 -0.14213772040E+03  0.24354571928E+03  0.00000000000E+00 0.  1.
         21    1    1    2  502  501  0.17317978753E+02 -0.31165880024E+02  0.14015679667E+02  0.38310099743E+02  0.00000000000E+00 0.  1.
<scales pt_clust_4="550.00000" pt_clust_5="550.00000" pt_clust_6="35.65423"></scales>
<mgrwt>
<rscale>  0 0.30000000E+03</rscale>
<asrwt>  1 0.35654235E+02</asrwt>
<pdfrwt beam="1">  1        1 0.82071037E+00 0.30000000E+03</pdfrwt>
<pdfrwt beam="2">0</pdfrwt>
<totfact> 0.71060810E-04</totfact>
</mgrwt>
<clustering>
<clus scale="   35.654">  1  6  2 -1</clus>
<clus scale="  456.639">  4  5 -1 -1</clus>
<clus scale="  300.000">  1  4  2 -1</clus>
</clustering>
</event>
<event>
 6    1  0.1033679E-011  0.3000000E+03  0.7818608E-02  0.1093470E+00
          1   -1    0    0  502    0  0.00000000000E+00  0.00000000000E+00  0.23424386217E+03  0.23424386217E+03  0.00000000000E+00 0.  1.
         13   -1    0    0    0    0 -0.00000000000E+00 -0.00000000000E+00 -0.27500000000E+03  0.27500000000E+03  0.00000000000E+00 0.  1.
    9000005    2    1    2  501    0 -0.12161749592E+02 -0.36594117134E+02 -0.53003095173E+02  0.46878369007E+03  0.46417861047E+03 0.  0.
         13    1    3    3    0    0 -0.19716056177E+03  0.28334387469E+02  0.97355069342E+02  0.22170506119E+03  0.00000000000E+00 0.  1.
          1    1    3    3  501    0  0.18499881217E+03 -0.64928504602E+02 -0.15035816451E+03  0.24707862889E+03  0.00000000000E+00 0.  1.
         21    1    1    2  502  501  0.12161749592E+02  0.36594117134E+02  0.12246957340E+02  0.40460172096E+02  0.00000000000E+00 0.  1.
<scales pt_clust_4="550.00000" pt_clust_5="550.00000" pt_clust_6="38.56213"></scales>
<mgrwt>
<rscale>  0 0.30000000E+03</rscale>
<asrwt>  1 0.38562126E+02</asrwt>
<pdfrwt beam="1">  1        1 0.85179586E+00 0.30000000E+03</pdfrwt>
<pdfrwt beam="2">0</pdfrwt>
<totfact> 0.38438324E-04</totfact>
</mgrwt>
<clustering>
<clus scale="   38.562">  1  6  2 -1</clus>
<clus scale="  464.179">  4  5 -1 -1</clus>
<clus scale="  300.000">  1  4  2 -1</clus>
</clustering>
</event>
<event>
 6    1  0.1033679E-011  0.3000000E+03  0.7818608E-02  0.1093470E+00
          1   -1    0    0  502    0  0.00000000000E+00  0.00000000000E+00  0.23499193962E+03  0.23499193962E+03  0.00000000000E+00 0.  1.
         13   -1    0    0    0    0 -0.00000000000E+00 -0.00000000000E+00 -0.27500000000E+03  0.27500000000E+03  0.00000000000E+00 0.  1.
    9000005    2    1    2  501    0 -0.15719230904E+02  0.28678122914E+02 -0.67296788966E+02  0.46739846991E+03  0.46137072178E+03 0.  0.
         13    1    3    3    0    0 -0.22887251863E+03 -0.16251470519E+01  0.30554125064E+02  0.23090869504E+03  0.00000000000E+00 0.  1.
          3    1    3    3  501    0  0.21315328773E+03  0.30303269966E+02 -0.97850914031E+02  0.23648977487E+03  0.00000000000E+00 0.  1.
         21    1    1    2  502  501  0.15719230904E+02 -0.28678122914E+02  0.27288728590E+02  0.42593469712E+02  0.00000000000E+00 0. -1.
<scales pt_clust_4="550.00000" pt_clust_5="550.00000" pt_clust_6="32.70365"></scales>
<mgrwt>
<rscale>  0 0.30000000E+03</rscale>
<asrwt>  1 0.32703654E+02</asrwt>
<pdfrwt beam="1">  1        1 0.85451614E+00 0.30000000E+03</pdfrwt>
<pdfrwt beam="2">0</pdfrwt>
<totfact> 0.37309847E-04</totfact>
</mgrwt>
<clustering>
<clus scale="   32.704">  1  6  2 -1</clus>
<clus scale="  461.371">  4  5 -1 -1</clus>
<clus scale="  300.000">  1  4  2 -1</clus>
</clustering>
</event>
<event>
 6    1  0.1033679E-011  0.3000000E+03  0.7818608E-02  0.1093470E+00
          1   -1    0    0  502    0  0.00000000000E+00  0.00000000000E+00  0.23930890201E+03  0.23930890201E+03  0.00000000000E+00 0.  1.
         13   -1    0    0    0    0 -0.00000000000E+00 -0.00000000000E+00 -0.27500000000E+03  0.27500000000E+03  0.00000000000E+00 0.  1.
    9000005    2    1    2  501    0  0.26067774890E+02  0.26962857781E+02 -0.64580209297E+02  0.46696858791E+03  0.46095827801E+03 0.  0.
         13    1    3    3    0    0  0.23956454563E+03 -0.27789186819E+02 -0.48320491578E+02  0.24596398178E+03  0.00000000000E+00 0.  1.
          1    1    3    3  501    0 -0.21349677074E+03  0.54752044600E+02 -0.16259717719E+02  0.22100460612E+03  0.00000000000E+00 0.  1.
         21    1    1    2  502  501 -0.26067774890E+02 -0.26962857781E+02  0.28889111306E+02  0.47340314104E+02  0.00000000000E+00 0.  1.
<scales pt_clust_4="550.00000" pt_clust_5="550.00000" pt_clust_6="37.50366"></scales>
<mgrwt>
<rscale>  0 0.30000000E+03</rscale>
<asrwt>  1 0.37503661E+02</asrwt>
<pdfrwt beam="1">  1        1 0.87021419E+00 0.30000000E+03</pdfrwt>
<pdfrwt beam="2">0</pdfrwt>
<totfact> 0.24876199E-04</totfact>
</mgrwt>
<clustering>
<clus scale="   37.504">  1  6  2 -1</clus>
<clus scale="  460.958">  4  5 -1 -1</clus>
<clus scale="  300.000">  1  4  2 -1</clus>
</clustering>
</event>
<event>
 6    1  0.1033679E-011  0.3000000E+03  0.7818608E-02  0.1093470E+00
          1   -1    0    0  502    0  0.00000000000E+00  0.00000000000E+00  0.26374267803E+03  0.26374267803E+03  0.00000000000E+00 0.  1.
         13   -1    0    0    0    0 -0.00000000000E+00 -0.00000000000E+00 -0.27500000000E+03  0.27500000000E+03  0.00000000000E+00 0.  1.
    9000005    2    1    2  501    0 -0.21803613780E+02 -0.26054304776E+02 -0.47755682832E+02  0.48887931756E+03  0.48535364172E+03 0.  0.
         13    1    3    3    0    0  0.21571421551E+03  0.35344343058E+01  0.63554197957E+02  0.22490942861E+03  0.00000000000E+00 0.  1.
          1    1    3    3  501    0 -0.23751782929E+03 -0.29588739082E+02 -0.11130988079E+03  0.26396988895E+03  0.00000000000E+00 0.  1.
         21    1    1    2  502  501  0.21803613780E+02  0.26054304776E+02  0.36498360863E+02  0.49863360466E+02  0.00000000000E+00 0.  1.
<scales pt_clust_4="550.00000" pt_clust_5="550.00000" pt_clust_6="33.97388"></scales>
<mgrwt>
<rscale>  0 0.30000000E+03</rscale>
<asrwt>  1 0.33973878E+02</asrwt>
<pdfrwt beam="1">  1        1 0.95906428E+00 0.30000000E+03</pdfrwt>
<pdfrwt beam="2">0</pdfrwt>
<totfact> 0.79897046E-06</totfact>
</mgrwt>
<clustering>
<clus scale="   33.974">  1  6  2 -1</clus>
<clus scale="  485.354">  4  5 -1 -1</clus>
<clus scale="  300.000">  1  4  2 -1</clus>
</clustering>
</event>
<event>
 6    1  0.1033679E-011  0.3000000E+03  0.7818608E-02  0.1093470E+00
          1   -1    0    0  502    0  0.00000000000E+00  0.00000000000E+00  0.23283355690E+03  0.23283355690E+03  0.00000000000E+00 0.  1.
         13   -1    0    0    0    0 -0.00000000000E+00 -0.00000000000E+00 -0.27500000000E+03  0.27500000000E+03  0.00000000000E+00 0.  1.
    9000005    2    1    2  501    0 -0.97152571134E+01  0.28762261044E+02 -0.57961280821E+02  0.47361176882E+03  0.46907029708E+03 0.  0.
         13    1    3    3    0    0 -0.23906985212E+03  0.23527961974E+01 -0.24598369203E+02  0.24034352417E+03  0.00000000000E+00 0.  1.
          3    1    3    3  501    0  0.22935459501E+03  0.26409464846E+02 -0.33362911618E+02  0.23326824464E+03  0.00000000000E+00 0.  1.
         21    1    1    2  502  501  0.97152571134E+01 -0.28762261044E+02  0.15794837723E+02  0.34221788087E+02  0.00000000000E+00 0.  1.
<scales pt_clust_4="550.00000" pt_clust_5="550.00000" pt_clust_6="30.35875"></scales>
<mgrwt>
<rscale>  0 0.30000000E+03</rscale>
<asrwt>  1 0.30358753E+02</asrwt>
<pdfrwt beam="1">  1        1 0.84666748E+00 0.30000000E+03</pdfrwt>
<pdfrwt beam="2">0</pdfrwt>
<totfact> 0.44865235E-04</totfact>
</mgrwt>
<clustering>
<clus scale="   30.359">  1  6  2 -1</clus>
<clus scale="  469.070">  4  5 -1 -1</clus>
<clus scale="  300.000">  1  4  2 -1</clus>
</clustering>
</event>
<event>
 6    1  0.1033679E-011  0.3000000E+03  0.7818608E-02  0.1093470E+00
          1   -1    0    0  502    0  0.00000000000E+00  0.00000000000E+00  0.24484178952E+03  0.24484178952E+03  0.00000000000E+00 0.  1.
         13   -1    0    0    0    0 -0.00000000000E+00 -0.00000000000E+00 -0.27500000000E+03  0.27500000000E+03  0.00000000000E+00 0.  1.
    9000005    2    1    2  501    0  0.15687444746E+02  0.33044162726E+02 -0.59464544902E+02  0.47297096864E+03  0.46779000894E+03 0.  0.
         13    1    3    3    0    0 -0.20287565737E+03  0.30859750607E+01 -0.13046021898E+03  0.24122173271E+03  0.00000000000E+00 0.  1.
          3    1    3    3  501    0  0.21856310212E+03  0.29958187666E+02  0.70995674075E+02  0.23174923593E+03  0.00000000000E+00 0.  1.
         21    1    1    2  502  501 -0.15687444746E+02 -0.33044162726E+02  0.29306334424E+02  0.46870820884E+02  0.00000000000E+00 0.  1.
<scales pt_clust_4="550.00000" pt_clust_5="550.00000" pt_clust_6="36.57885"></scales>
<mgrwt>
<rscale>  0 0.30000000E+03</rscale>
<asrwt>  1 0.36578855E+02</asrwt>
<pdfrwt beam="1">  1        1 0.89033378E+00 0.30000000E+03</pdfrwt>
<pdfrwt beam="2">0</pdfrwt>
<totfact> 0.14231345E-04</totfact>
</mgrwt>
<clustering>
<clus scale="   36.579">  1  6  2 -1</clus>
<clus scale="  467.790">  4  5 -1 -1</clus>
<clus scale="  300.000">  1  4  2 -1</clus>
</clustering>
</event>
<event>
 6    1  0.1033679E-011  0.3000000E+03  0.7818608E-02  0.1093470E+00
          1   -1    0    0  502    0  0.00000000000E+00  0.00000000000E+00  0.22940513784E+03  0.22940513784E+03  0.00000000000E+00 0.  1.
         13   -1    0    0    0    0 -0.00000000000E+00 -0.00000000000E+00 -0.27500000000E+03  0.27500000000E+03  0.00000000000E+00 0.  1.
    9000005    2    1    2  501    0 -0.39611895780E+01  0.31019127985E+02 -0.59494764074E+02  0.47018402452E+03  0.46535525423E+03 0.  0.
         13    1    3    3    0    0  0.18400172967E+03  0.10357796026E+03 -0.13985536639E+03  0.25326775137E+03  0.00000000000E+00 0.  1.
          1    1    3    3  501    0 -0.18796291925E+03 -0.72558832275E+02  0.80360602319E+02  0.21691627315E+03  0.00000000000E+00 0.  1.
         21    1    1    2  502  501  0.39611895780E+01 -0.31019127985E+02  0.13899901915E+02  0.34221113323E+02  0.00000000000E+00 0.  1.
<scales pt_clust_4="550.00000" pt_clust_5="550.00000" pt_clust_6="31.27103"></scales>
<mgrwt>
<rscale>  0 0.30000000E+03</rscale>
<asrwt>  1 0.31271030E+02</asrwt>
<pdfrwt beam="1">  1        1 0.83420050E+00 0.30000000E+03</pdfrwt>
<pdfrwt beam="2">0</pdfrwt>
<totfact> 0.56014416E-04</totfact>
</mgrwt>
<clustering>
<clus scale="   31.271">  1  6  2 -1</clus>
<clus scale="  465.355">  4  5 -1 -1</clus>
<clus scale="  300.000">  1  4  2 -1</clus>
</clustering>
</event>
<event>
 6    1  0.1033679E-011  0.3000000E+03  0.7818608E-02  0.1093470E+00
          1   -1    0    0  502    0  0.00000000000E+00  0.00000000000E+00  0.23114952892E+03  0.23114952892E+03  0.00000000000E+00 0.  1.
         13   -1    0    0    0    0 -0.00000000000E+00 -0.00000000000E+00 -0.27500000000E+03  0.27500000000E+03  0.00000000000E+00 0.  1.
    9000005    2    1    2  501    0 -0.31230322425E+02 -0.38116071801E+00 -0.56137563888E+02  0.47258688641E+03  0.46820023581E+03 0.  0.
         13    1    3    3    0    0 -0.18840361773E+03  0.11842138164E+03  0.76235369046E+02  0.23522622791E+03  0.00000000000E+00 0.  1.
          3    1    3    3  501    0  0.15717329531E+03 -0.11880254236E+03 -0.13237293293E+03  0.23736065850E+03  0.00000000000E+00 0.  1.
         21    1    1    2  502  501  0.31230322425E+02  0.38116071801E+00  0.12287092807E+02  0.33562642505E+02  0.00000000000E+00 0.  1.
<scales pt_clust_4="550.00000" pt_clust_5="550.00000" pt_clust_6="31.23265"></scales>
<mgrwt>
<rscale>  0 0.30000000E+03</rscale>
<asrwt>  1 0.31232648E+02</asrwt>
<pdfrwt beam="1">  1        1 0.84054374E+00 0.30000000E+03</pdfrwt>
<pdfrwt beam="2">0</pdfrwt>
<totfact> 0.50296126E-04</totfact>
</mgrwt>
<clustering>
<clus scale="   31.233">  1  6  2 -1</clus>
<clus scale="  468.200">  4  5 -1 -1</clus>
<clus scale="  300.000">  1  4  2 -1</clus>
</clustering>
</event>
<event>
 6    1  0.1033679E-011  0.3000000E+03  0.7818608E-02  0.1093470E+00
          1   -1    0    0  502    0  0.00000000000E+00  0.00000000000E+00  0.24076516869E+03  0.24076516869E+03  0.00000000000E+00 0.  1.
         13   -1    0    0    0    0 -0.00000000000E+00 -0.00000000000E+00 -0.27500000000E+03  0.27500000000E+03  0.00000000000E+00 0.  1.
    9000005    2    1    2  501    0 -0.31563670955E+02  0.14016782010E+01 -0.57749408302E+02  0.47638033205E+03  0.47181033963E+03 0.  0.
         13    1    3    3    0    0  0.62746185974E+02  0.22127880508E+03 -0.57703197220E+02  0.23713087610E+03  0.00000000000E+00 0.  1.
          3    1    3    3  501    0 -0.94309856929E+02 -0.21987712688E+03 -0.46211082172E-01  0.23924945595E+03  0.00000000000E+00 0.  1.
         21    1    1    2  502  501  0.31563670955E+02 -0.14016782010E+01  0.23514576993E+02  0.39384836639E+02  0.00000000000E+00 0. -1.
<scales pt_clust_4="550.00000" pt_clust_5="550.00000" pt_clust_6="31.59478"></scales>
<mgrwt>
<rscale>  0 0.30000000E+03</rscale>
<asrwt>  1 0.31594778E+02</asrwt>
<pdfrwt beam="1">  1        1 0.87550970E+00 0.30000000E+03</pdfrwt>
<pdfrwt beam="2">0</pdfrwt>
<totfact> 0.22647244E-04</totfact>
</mgrwt>
<clustering>
<clus scale="   31.595">  1  6  2 -1</clus>
<clus scale="  471.810">  4  5 -1 -1</clus>
<clus scale="  300.000">  1  4  2 -1</clus>
</clustering>
</event>
<event>
 6    1  0.1033679E-011  0.3000000E+03  0.7818608E-02  0.1093470E+00
          1   -1    0    0  502    0  0.00000000000E+00  0.00000000000E+00  0.22396194823E+03  0.22396194823E+03  0.00000000000E+00 0.  1.
         13   -1    0    0    0    0 -0.00000000000E+00 -0.00000000000E+00 -0.27500000000E+03  0.27500000000E+03  0.00000000000E+00 0.  1.
    9000005    2    1    2  501    0  0.18357433358E+02  0.25420166745E+02 -0.64083498298E+02  0.46500073636E+03  0.45949516844E+03 0.  0.
         13    1    3    3    0    0  0.68892492992E+01  0.20644637535E+03 -0.15863555706E+03  0.26044732215E+03  0.00000000000E+00 0.  1.
          1    1    3    3  501    0  0.11468184059E+02 -0.18102620861E+03  0.94552058761E+02  0.20455341421E+03  0.00000000000E+00 0.  1.
         21    1    1    2  502  501 -0.18357433358E+02 -0.25420166745E+02  0.13045446529E+02  0.33961211874E+02  0.00000000000E+00 0.  1.
<scales pt_clust_4="550.00000" pt_clust_5="550.00000" pt_clust_6="31.35571"></scales>
<mgrwt>
<rscale>  0 0.30000000E+03</rscale>
<asrwt>  1 0.31355705E+02</asrwt>
<pdfrwt beam="1">  1        1 0.81440708E+00 0.30000000E+03</pdfrwt>
<pdfrwt beam="2">0</pdfrwt>
<totfact> 0.82174969E-04</totfact>
</mgrwt>
<clustering>
<clus scale="   31.356">  1  6  2 -1</clus>
<clus scale="  459.495">  4  5 -1 -1</clus>
<clus scale="  300.000">  1  4  2 -1</clus>
</clustering>
</event>
<event>
 6    1  0.1033679E-011  0.3000000E+03  0.7818608E-02  0.1093470E+00
          1   -1    0    0  502    0  0.00000000000E+00  0.00000000000E+00  0.24687030260E+03  0.24687030260E+03  0.00000000000E+00 0.  1.
         13   -1    0    0    0    0 -0.00000000000E+00 -0.00000000000E+00 -0.27500000000E+03  0.27500000000E+03  0.00000000000E+00 0.  1.
    9000005    2    1    2  501    0 -0.39163735268E+02  0.35847443113E+00 -0.58562381367E+02  0.47227116029E+03  0.46698669111E+03 0.  0.
         13    1    3    3    0    0 -0.20727952987E+03 -0.11126576679E+03 -0.11622016197E+03  0.26239664710E+03  0.00000000000E+00 0.  1.
          3    1    3    3  501    0  0.16811579460E+03  0.11162424122E+03  0.57657780606E+02  0.20987451319E+03  0.00000000000E+00 0.  1.
         21    1    1    2  502  501  0.39163735268E+02 -0.35847443113E+00  0.30432683968E+02  0.49599142307E+02  0.00000000000E+00 0. -1.
<scales pt_clust_4="550.00000" pt_clust_5="550.00000" pt_clust_6="39.16538"></scales>
<mgrwt>
<rscale>  0 0.30000000E+03</rscale>
<asrwt>  1 0.39165376E+02</asrwt>
<pdfrwt beam="1">  1        1 0.89771019E+00 0.30000000E+03</pdfrwt>
<pdfrwt beam="2">0</pdfrwt>
<totfact> 0.11515810E-04</totfact>
</mgrwt>
<clustering>
<clus scale="   39.165">  1  6  2 -1</clus>
<clus scale="  466.987">  4  5 -1 -1</clus>
<clus scale="  300.000">  1  4  2 -1</clus>
</clustering>
</event>
<event>
 6    1  0.1033679E-011  0.3000000E+03  0.7818608E-02  0.1093470E+00
          1   -1    0    0  502    0  0.00000000000E+00  0.00000000000E+00  0.23552728884E+03  0.23552728884E+03  0.00000000000E+00 0.  1.
         13   -1    0    0    0    0 -0.00000000000E+00 -0.00000000000E+00 -0.27500000000E+03  0.27500000000E+03  0.00000000000E+00 0.  1.
    9000005    2    1    2  501    0  0.11781472054E+02 -0.34706865120E+02 -0.27801690326E+02  0.47206194993E+03  0.46981504979E+03 0.  0.
         13    1    3    3    0    0 -0.17664890992E+03  0.11757230956E+03 -0.75331771632E+02  0.22517318039E+03  0.00000000000E+00 0.  1.
          3    1    3    3  501    0  0.18843038197E+03 -0.15227917468E+03  0.47530081306E+02  0.24688876953E+03  0.00000000000E+00 0.  1.
         21    1    1    2  502  501 -0.11781472054E+02  0.34706865120E+02 -0.11671020835E+02  0.38465338912E+02  0.00000000000E+00 0. -1.
<scales pt_clust_4="550.00000" pt_clust_5="550.00000" pt_clust_6="36.65202"></scales>
<mgrwt>
<rscale>  0 0.30000000E+03</rscale>
<asrwt>  1 0.36652025E+02</asrwt>
<pdfrwt beam="1">  1        1 0.85646287E+00 0.30000000E+03</pdfrwt>
<pdfrwt beam="2">0</pdfrwt>
<totfact> 0.34919104E-04</totfact>
</mgrwt>
<clustering>
<clus scale="   36.652">  1  6  2 -1</clus>
<clus scale="  469.815">  4  5 -1 -1</clus>
<clus scale="  300.000">  1  4  2 -1</clus>
</clustering>
</event>
<event>
 6    1  0.1033679E-011  0.3000000E+03  0.7818608E-02  0.1093470E+00
          1   -1    0    0  502    0  0.00000000000E+00  0.00000000000E+00  0.24817146990E+03  0.24817146990E+03  0.00000000000E+00 0.  1.
         13   -1    0    0    0    0 -0.00000000000E+00 -0.00000000000E+00 -0.27500000000E+03  0.27500000000E+03  0.00000000000E+00 0.  1.
    9000005    2    1    2  501    0 -0.32382326810E+02 -0.71833185012E+01 -0.25909932306E+02  0.48998926117E+03  0.48817818091E+03 0.  0.
         13    1    3    3    0    0  0.10129329003E+03 -0.18282854243E+03 -0.12979722022E+03  0.24603643004E+03  0.00000000000E+00 0.  1.
          1    1    3    3  501    0 -0.13367561684E+03  0.17564522393E+03  0.10388728791E+03  0.24395283113E+03  0.00000000000E+00 0.  1.
         21    1    1    2  502  501  0.32382326810E+02  0.71833185012E+01 -0.91859779540E+00  0.33182208730E+02  0.00000000000E+00 0. -1.
<scales pt_clust_4="550.00000" pt_clust_5="550.00000" pt_clust_6="33.16949"></scales>
<mgrwt>
<rscale>  0 0.30000000E+03</rscale>
<asrwt>  1 0.33169491E+02</asrwt>
<pdfrwt beam="1">  1        1 0.90244171E+00 0.30000000E+03</pdfrwt>
<pdfrwt beam="2">0</pdfrwt>
<totfact> 0.10327700E-04</totfact>
</mgrwt>
<clustering>
<clus scale="   33.169">  1  6  2 -1</clus>
<clus scale="  488.178">  4  5 -1 -1</clus>
<clus scale="  300.000">  1  4  2 -1</clus>
</clustering>
</event>
<event>
 6    1  0.1033679E-011  0.3000000E+03  0.7818608E-02  0.1093470E+00
          1   -1    0    0  502    0  0.00000000000E+00  0.00000000000E+00  0.21997895926E+03  0.21997895926E+03  0.00000000000E+00 0.  1.
         13   -1    0    0    0    0 -0.00000000000E+00 -0.00000000000E+00 -0.27500000000E+03  0.27500000000E+03  0.00000000000E+00 0.  1.
    9000005    2    1    2  501    0 -0.72979931165E+01 -0.29150097212E+02 -0.37878744385E+02  0.46038347985E+03  0.45783748249E+03 0.  0.
         13    1    3    3    0    0 -0.14384541014E+03 -0.19413300107E+03  0.63622360774E+01  0.24170147325E+03  0.00000000000E+00 0.  1.
          3    1    3    3  501    0  0.13654741702E+03  0.16498290386E+03 -0.44240980462E+02  0.21868200660E+03  0.00000000000E+00 0.  1.
         21    1    1    2  502  501  0.72979931165E+01  0.29150097212E+02 -0.17142296358E+02  0.34595479407E+02  0.00000000000E+00 0. -1.
<scales pt_clust_4="550.00000" pt_clust_5="550.00000" pt_clust_6="30.04979"></scales>
<mgrwt>
<rscale>  0 0.30000000E+03</rscale>
<asrwt>  1 0.30049788E+02</asrwt>
<pdfrwt beam="1">  1        1 0.79992349E+00 0.30000000E+03</pdfrwt>
<pdfrwt beam="2">0</pdfrwt>
<totfact> 0.10688318E-03</totfact>
</mgrwt>
<clustering>
<clus scale="   30.050">  1  6  2 -1</clus>
<clus scale="  457.837">  4  5 -1 -1</clus>
<clus scale="  300.000">  1  4  2 -1</clus>
</clustering>
</event>
<event>
 6    1  0.1033679E-011  0.3000000E+03  0.7818608E-02  0.1093470E+00
          1   -1    0    0  502    0  0.00000000000E+00  0.00000000000E+00  0.23144949393E+03  0.23144949393E+03  0.00000000000E+00 0.  1.
         13   -1    0    0    0    0 -0.00000000000E+00 -0.00000000000E+00 -0.27500000000E+03  0.27500000000E+03  0.00000000000E+00 0.  1.
    9000005    2    1    2  501    0  0.53043384288E+01 -0.34789054968E+02 -0.62966617995E+02  0.46625745798E+03  0.46064390562E+03 0.  0.
         13    1    3    3    0    0 -0.12999149664E+03 -0.36652603345E+02  0.15756287284E+03  0.20752653186E+03  0.00000000000E+00 0.  1.
          1    1    3    3  501    0  0.13529583507E+03  0.18635483764E+01 -0.22052949083E+03  0.25873092611E+03  0.00000000000E+00 0.  1.
         21    1    1    2  502  501 -0.53043384288E+01  0.34789054968E+02  0.19416111923E+02  0.40192035952E+02  0.00000000000E+00 0.  1.
<scales pt_clust_4="550.00000" pt_clust_5="550.00000" pt_clust_6="35.19111"></scales>
<mgrwt>
<rscale>  0 0.30000000E+03</rscale>
<asrwt>  1 0.35191112E+02</asrwt>
<pdfrwt beam="1">  1        1 0.84163452E+00 0.30000000E+03</pdfrwt>
<pdfrwt beam="2">0</pdfrwt>
<totfact> 0.48199909E-04</totfact>
</mgrwt>
<clustering>
<clus scale="   35.191">  1  6  2 -1</clus>
<clus scale="  460.644">  4  5 -1 -1</clus>
<clus scale="  300.000">  1  4  2 -1</clus>
</clustering>
</event>
<event>
 6    1  0.1033679E-011  0.3000000E+03  0.7818608E-02  0.1093470E+00
          1   -1    0    0  502    0  0.00000000000E+00  0.00000000000E+00  0.23175171726E+03  0.23175171726E+03  0.00000000000E+00 0.  1.
         13   -1    0    0    0    0 -0.00000000000E+00 -0.00000000000E+00 -0.27500000000E+03  0.27500000000E+03  0.00000000000E+00 0.  1.
    9000005    2    1    2  501    0 -0.24992775759E+02 -0.20624615750E+02 -0.65241200939E+02  0.46758920884E+03  0.46188011465E+03 0.  0.
         13    1    3    3    0    0 -0.62121507572E+02  0.42118656733E+02  0.18886476463E+03  0.20323130238E+03  0.00000000000E+00 0.  1.
          1    1    3    3  501    0  0.37128731813E+02 -0.62743272483E+02 -0.25410596557E+03  0.26435790646E+03  0.00000000000E+00 0.  1.
         21    1    1    2  502  501  0.24992775759E+02  0.20624615750E+02  0.21992918197E+02  0.39162508421E+02  0.00000000000E+00 0. -1.
<scales pt_clust_4="550.00000" pt_clust_5="550.00000" pt_clust_6="32.40391"></scales>
<mgrwt>
<rscale>  0 0.30000000E+03</rscale>
<asrwt>  1 0.32403914E+02</asrwt>
<pdfrwt beam="1">  1        1 0.84273352E+00 0.30000000E+03</pdfrwt>
<pdfrwt beam="2">0</pdfrwt>
<totfact> 0.47938474E-04</totfact>
</mgrwt>
<clustering>
<clus scale="   32.404">  1  6  2 -1</clus>
<clus scale="  461.880">  4  5 -1 -1</clus>
<clus scale="  300.000">  1  4  2 -1</clus>
</clustering>
</event>
<event>
 6    1  0.1033679E-011  0.3000000E+03  0.7818608E-02  0.1093470E+00
          1   -1    0    0  502    0  0.00000000000E+00  0.00000000000E+00  0.21934393848E+03  0.21934393848E+03  0.00000000000E+00 0.  1.
         13   -1    0    0    0    0 -0.00000000000E+00 -0.00000000000E+00 -0.27500000000E+03  0.27500000000E+03  0.00000000000E+00 0.  1.
    9000005    2    1    2  501    0  0.29458481955E+02 -0.12582816490E+02 -0.52126699595E+02  0.46211684079E+03  0.45804874446E+03 0.  0.
         13    1    3    3    0    0  0.16917481029E+03 -0.65243991884E+02  0.13257094119E+03  0.22461511383E+03  0.00000000000E+00 0.  1.
          3    1    3    3  501    0 -0.13971632834E+03  0.52661175394E+02 -0.18469764079E+03  0.23750172696E+03  0.00000000000E+00 0.  1.
         21    1    1    2  502  501 -0.29458481955E+02  0.12582816490E+02 -0.35293619214E+01  0.32227097689E+02  0.00000000000E+00 0. -1.
<scales pt_clust_4="550.00000" pt_clust_5="550.00000" pt_clust_6="32.03326"></scales>
<mgrwt>
<rscale>  0 0.30000000E+03</rscale>
<asrwt>  1 0.32033255E+02</asrwt>
<pdfrwt beam="1">  1        1 0.79761432E+00 0.30000000E+03</pdfrwt>
<pdfrwt beam="2">0</pdfrwt>
<totfact> 0.10973235E-03</totfact>
</mgrwt>
<clustering>
<clus scale="   32.033">  1  6  2 -1</clus>
<clus scale="  458.049">  4  5 -1 -1</clus>
<clus scale="  300.000">  1  4  2 -1</clus>
</clustering>
</event>
<event>
 6    1  0.1033679E-011  0.3000000E+03  0.7818608E-02  0.1093470E+00
          1   -1    0    0  502    0  0.00000000000E+00  0.00000000000E+00  0.24125098688E+03  0.24125098688E+03  0.00000000000E+00 0.  1.
         13   -1    0    0    0    0 -0.00000000000E+00 -0.00000000000E+00 -0.27500000000E+03  0.27500000000E+03  0.00000000000E+00 0.  1.
    9000005    2    1    2  501    0  0.20490521788E+02 -0.43961792878E+02 -0.41798974284E+02  0.46708491533E+03  0.46267554848E+03 0.  0.
         13    1    3    3    0    0  0.20308090365E+03 -0.13873304295E+03 -0.78391532918E+02  0.25813551299E+03  0.00000000000E+00 0.  1.
          3    1    3    3  501    0 -0.18259038187E+03  0.94771250076E+02  0.36592558634E+02  0.20894940234E+03  0.00000000000E+00 0.  1.
         21    1    1    2  502  501 -0.20490521788E+02  0.43961792878E+02  0.80499611605E+01  0.49166071542E+02  0.00000000000E+00 0. -1.
<scales pt_clust_4="550.00000" pt_clust_5="550.00000" pt_clust_6="48.50258"></scales>
<mgrwt>
<rscale>  0 0.30000000E+03</rscale>
<asrwt>  1 0.48502585E+02</asrwt>
<pdfrwt beam="1">  1        1 0.87727632E+00 0.30000000E+03</pdfrwt>
<pdfrwt beam="2">0</pdfrwt>
<totfact> 0.20025647E-04</totfact>
</mgrwt>
<clustering>
<clus scale="   48.503">  1  6  2 -1</clus>
<clus scale="  462.676">  4  5 -1 -1</clus>
<clus scale="  300.000">  1  4  2 -1</clus>
</clustering>
</event>
<event>
 6    1  0.1033679E-011  0.3000000E+03  0.7818608E-02  0.1093470E+00
          1   -1    0    0  502    0  0.00000000000E+00  0.00000000000E+00  0.22391754692E+03  0.22391754692E+03  0.00000000000E+00 0.  1.
         13   -1    0    0    0    0 -0.00000000000E+00 -0.00000000000E+00 -0.27500000000E+03  0.27500000000E+03  0.00000000000E+00 0.  1.
    9000005    2    1    2  501    0 -0.27485381700E+02 -0.13968118849E+02 -0.67811344048E+02  0.46384034144E+03  0.45781975647E+03 0.  0.
         13    1    3    3    0    0  0.20832191465E+03 -0.62716543447E+02 -0.21321623288E+02  0.21860008363E+03  0.00000000000E+00 0.  1.
          1    1    3    3  501    0 -0.23580729635E+03  0.48748424598E+02 -0.46489720760E+02  0.24524025781E+03  0.00000000000E+00 0.  1.
         21    1    1    2  502  501  0.27485381700E+02  0.13968118849E+02  0.16728890970E+02  0.35077205483E+02  0.00000000000E+00 0.  1.
<scales pt_clust_4="550.00000" pt_clust_5="550.00000" pt_clust_6="30.83106"></scales>
<mgrwt>
<rscale>  0 0.30000000E+03</rscale>
<asrwt>  1 0.30831065E+02</asrwt>
<pdfrwt beam="1">  1        1 0.81424563E+00 0.30000000E+03</pdfrwt>
<pdfrwt beam="2">0</pdfrwt>
<totfact> 0.82687364E-04</totfact>
</mgrwt>
<clustering>
<clus scale="   30.831">  1  6  2 -1</clus>
<clus scale="  457.820">  4  5 -1 -1</clus>
<clus scale="  300.000">  1  4  2 -1</clus>
</clustering>
</event>
<event>
 6    1  0.1033679E-011  0.3000000E+03  0.7818608E-02  0.1093470E+00
          1   -1    0    0  502    0  0.00000000000E+00  0.00000000000E+00  0.23007115734E+03  0.23007115734E+03  0.00000000000E+00 0.  1.
         13   -1    0    0    0    0 -0.00000000000E+00 -0.00000000000E+00 -0.27500000000E+03  0.27500000000E+03  0.00000000000E+00 0.  1.
    9000005    2    1    2  501    0  0.41177918846E+02  0.52976522612E+01 -0.46884505576E+02  0.46350782329E+03  0.45925772641E+03 0.  0.
         13    1    3    3    0    0  0.18901325611E+03  0.68652449643E+02 -0.16810501955E+03  0.26210392486E+03  0.00000000000E+00 0.  1.
          3    1    3    3  501    0 -0.14783533726E+03 -0.63354797382E+02  0.12122051398E+03  0.20140389843E+03  0.00000000000E+00 0.  1.
         21    1    1    2  502  501 -0.41177918846E+02 -0.52976522612E+01  0.19556629136E+01  0.41563334051E+02  0.00000000000E+00 0. -1.
<scales pt_clust_4="550.00000" pt_clust_5="550.00000" pt_clust_6="41.51730"></scales>
<mgrwt>
<rscale>  0 0.30000000E+03</rscale>
<asrwt>  1 0.41517299E+02</asrwt>
<pdfrwt beam="1">  1        1 0.83662239E+00 0.30000000E+03</pdfrwt>
<pdfrwt beam="2">0</pdfrwt>
<totfact> 0.51020777E-04</totfact>
</mgrwt>
<clustering>
<clus scale="   41.517">  1  6  2 -1</clus>
<clus scale="  459.258">  4  5 -1 -1</clus>
<clus scale="  300.000">  1  4  2 -1</clus>
</clustering>
</event>
<event>
 6    1  0.1033679E-011  0.3000000E+03  0.7818608E-02  0.1093470E+00
          1   -1    0    0  502    0  0.00000000000E+00  0.00000000000E+00  0.25357563879E+03  0.25357563879E+03  0.00000000000E+00 0.  1.
         13   -1    0    0    0    0 -0.00000000000E+00 -0.00000000000E+00 -0.27500000000E+03  0.27500000000E+03  0.00000000000E+00 0.  1.
    9000005    2    1    2  501    0 -0.42360943986E+01  0.34167039267E+02 -0.31791522249E+02  0.49261998422E+03  0.49038598766E+03 0.  0.
         13    1    3    3    0    0  0.11684703635E+03 -0.13881599133E+03 -0.16309533168E+03  0.24397376205E+03  0.00000000000E+00 0.  1.
          3    1    3    3  501    0 -0.12108313075E+03  0.17298303060E+03  0.13130380943E+03  0.24864622217E+03  0.00000000000E+00 0.  1.
         21    1    1    2  502  501  0.42360943986E+01 -0.34167039267E+02  0.10367161043E+02  0.35955654578E+02  0.00000000000E+00 0. -1.
<scales pt_clust_4="550.00000" pt_clust_5="550.00000" pt_clust_6="34.42864"></scales>
<mgrwt>
<rscale>  0 0.30000000E+03</rscale>
<asrwt>  1 0.34428637E+02</asrwt>
<pdfrwt beam="1">  1        1 0.92209323E+00 0.30000000E+03</pdfrwt>
<pdfrwt beam="2">0</pdfrwt>
<totfact> 0.37818796E-05</totfact>
</mgrwt>
<clustering>
<clus scale="   34.429">  1  6  2 -1</clus>
<clus scale="  490.386">  4  5 -1 -1</clus>
<clus scale="  300.000">  1  4  2 -1</clus>
</clustering>
</event>
<event>
 6    1  0.1033679E-011  0.3000000E+03  0.7818608E-02  0.1093470E+00
          1   -1    0    0  502    0  0.00000000000E+00  0.00000000000E+00  0.22797486388E+03  0.22797486388E+03  0.00000000000E+00 0.  1.
         13   -1    0    0    0    0 -0.00000000000E+00 -0.00000000000E+00 -0.27500000000E+03  0.27500000000E+03  0.00000000000E+00 0.  1.
    9000005    2    1    2  501    0 -0.32620397220E+02 -0.22915326582E+02 -0.50432062781E+02  0.46296474446E+03  0.45847983505E+03 0.  0.
         13    1    3    3    0    0  0.71531511985E+02 -0.15980247851E+03 -0.17734349216E+03  0.24920735052E+03  0.00000000000E+00 0.  1.
          3    1    3    3  501    0 -0.10415190921E+03  0.13688715193E+03  0.12691142938E+03  0.21375739393E+03  0.00000000000E+00 0.  1.
         21    1    1    2  502  501  0.32620397220E+02  0.22915326582E+02  0.34069266616E+01  0.40010119426E+02  0.00000000000E+00 0.  1.
<scales pt_clust_4="550.00000" pt_clust_5="550.00000" pt_clust_6="39.86480"></scales>
<mgrwt>
<rscale>  0 0.30000000E+03</rscale>
<asrwt>  1 0.39864803E+02</asrwt>
<pdfrwt beam="1">  1        1 0.82899951E+00 0.30000000E+03</pdfrwt>
<pdfrwt beam="2">0</pdfrwt>
<totfact> 0.58821084E-04</totfact>
</mgrwt>
<clustering>
<clus scale="   39.865">  1  6  2 -1</clus>
<clus scale="  458.480">  4  5 -1 -1</clus>
<clus scale="  300.000">  1  4  2 -1</clus>
</clustering>
</event>
<event>
 6    1  0.1033679E-011  0.3000000E+03  0.7818608E-02  0.1093470E+00
          1   -1    0    0  502    0  0.00000000000E+00  0.00000000000E+00  0.23525362642E+03  0.23525362642E+03  0.00000000000E+00 0.  1.
         13   -1    0    0    0    0 -0.00000000000E+00 -0.00000000000E+00 -0.27500000000E+03  0.27500000000E+03  0.00000000000E+00 0.  1.
    9000005    2    1    2  501    0  0.19715922680E+02  0.35871908969E+02 -0.54067235749E+02  0.46688775789E+03  0.46193657684E+03 0.  0.
         13    1    3    3    0    0 -0.14355643308E+02  0.14168626393E+03 -0.22303956877E+03  0.26462753281E+03  0.00000000000E+00 0.  1.
          3    1    3    3  501    0  0.34071565988E+02 -0.10581435496E+03  0.16897233302E+03  0.20226022509E+03  0.00000000000E+00 0.  1.
         21    1    1    2  502  501 -0.19715922680E+02 -0.35871908969E+02  0.14320862173E+02  0.43365868533E+02  0.00000000000E+00 0.  1.
<scales pt_clust_4="550.00000" pt_clust_5="550.00000" pt_clust_6="40.93301"></scales>
<mgrwt>
<rscale>  0 0.30000000E+03</rscale>
<asrwt>  1 0.40933012E+02</asrwt>
<pdfrwt beam="1">  1        1 0.85546773E+00 0.30000000E+03</pdfrwt>
<pdfrwt beam="2">0</pdfrwt>
<totfact> 0.35019210E-04</totfact>
</mgrwt>
<clustering>
<clus scale="   40.933">  1  6  2 -1</clus>
<clus scale="  461.937">  4  5 -1 -1</clus>
<clus scale="  300.000">  1  4  2 -1</clus>
</clustering>
</event>
<event>
 6    1  0.1033679E-011  0.3000000E+03  0.7818608E-02  0.1093470E+00
          1   -1    0    0  502    0  0.00000000000E+00  0.00000000000E+00  0.24858340432E+03  0.24858340432E+03  0.00000000000E+00 0.  1.
         13   -1    0    0    0    0 -0.00000000000E+00 -0.00000000000E+00 -0.27500000000E+03  0.27500000000E+03  0.00000000000E+00 0.  1.
    9000005    2    1    2  501    0 -0.30819471582E+00 -0.31560836840E+02 -0.92460848944E+01  0.48765280668E+03  0.48654248363E+03 0.  0.
         13    1    3    3    0    0 -0.27955117358E+02 -0.25521132426E+03  0.31443025983E+02  0.25865608924E+03  0.00000000000E+00 0.  1.
          1    1    3    3  501    0  0.27646922642E+02  0.22365048742E+03 -0.40689110877E+02  0.22899671744E+03  0.00000000000E+00 0.  1.
         21    1    1    2  502  501  0.30819471582E+00  0.31560836840E+02 -0.17170510785E+02  0.35930597638E+02  0.00000000000E+00 0.  1.
<scales pt_clust_4="550.00000" pt_clust_5="550.00000" pt_clust_6="31.56236"></scales>
<mgrwt>
<rscale>  0 0.30000000E+03</rscale>
<asrwt>  1 0.31562357E+02</asrwt>
<pdfrwt beam="1">  1        1 0.90393965E+00 0.30000000E+03</pdfrwt>
<pdfrwt beam="2">0</pdfrwt>
<totfact> 0.98561867E-05</totfact>
</mgrwt>
<clustering>
<clus scale="   31.562">  1  6  2 -1</clus>
<clus scale="  486.542">  4  5 -1 -1</clus>
<clus scale="  300.000">  1  4  2 -1</clus>
</clustering>
</event>
<event>
 6    1  0.1033679E-011  0.3000000E+03  0.7818608E-02  0.1093470E+00
          1   -1    0    0  502    0  0.00000000000E+00  0.00000000000E+00  0.22966166102E+03  0.22966166102E+03  0.00000000000E+00 0.  1.
         13   -1    0    0    0    0 -0.00000000000E+00 -0.00000000000E+00 -0.27500000000E+03  0.27500000000E+03  0.00000000000E+00 0.  1.
    9000005    2    1    2  501    0 -0.27975573107E+02  0.16279469166E+02 -0.70621303530E+02  0.46358999069E+03  0.45703463452E+03 0.  0.
         13    1    3    3    0    0  0.11879106481E+03 -0.17500443349E+03  0.28823614578E+01  0.21153292138E+03  0.00000000000E+00 0.  1.
          3    1    3    3  501    0 -0.14676663792E+03  0.19128390266E+03 -0.73503664988E+02  0.25205706931E+03  0.00000000000E+00 0.  1.
         21    1    1    2  502  501  0.27975573107E+02 -0.16279469166E+02  0.25282964548E+02  0.41071670325E+02  0.00000000000E+00 0. -1.
<scales pt_clust_4="550.00000" pt_clust_5="550.00000" pt_clust_6="32.36748"></scales>
<mgrwt>
<rscale>  0 0.30000000E+03</rscale>
<asrwt>  1 0.32367481E+02</asrwt>
<pdfrwt beam="1">  1        1 0.83513331E+00 0.30000000E+03</pdfrwt>
<pdfrwt beam="2">0</pdfrwt>
<totfact> 0.54779006E-04</totfact>
</mgrwt>
<clustering>
<clus scale="   32.367">  1  6  2 -1</clus>
<clus scale="  457.035">  4  5 -1 -1</clus>
<clus scale="  300.000">  1  4  2 -1</clus>
</clustering>
</event>
<event>
 6    1  0.1033679E-011  0.3000000E+03  0.7818608E-02  0.1093470E+00
          1   -1    0    0  502    0  0.00000000000E+00  0.00000000000E+00  0.24911920725E+03  0.24911920725E+03  0.00000000000E+00 0.  1.
         13   -1    0    0    0    0 -0.00000000000E+00 -0.00000000000E+00 -0.27500000000E+03  0.27500000000E+03  0.00000000000E+00 0.  1.
    9000005    2    1    2  501    0 -0.26645557073E+02  0.14753610218E+02 -0.21053028052E+02  0.49328153486E+03  0.49189001608E+03 0.  0.
         13    1    3    3    0    0  0.52551591403E+02 -0.18172762401E+03 -0.15335072398E+03  0.24352216251E+03  0.00000000000E+00 0.  1.
          1    1    3    3  501    0 -0.79197148476E+02  0.19648123423E+03  0.13229769592E+03  0.24975937235E+03  0.00000000000E+00 0.  1.
         21    1    1    2  502  501  0.26645557073E+02 -0.14753610218E+02 -0.48277647013E+01  0.30837672387E+02  0.00000000000E+00 0.  1.
<scales pt_clust_4="550.00000" pt_clust_5="550.00000" pt_clust_6="30.45744"></scales>
<mgrwt>
<rscale>  0 0.30000000E+03</rscale>
<asrwt>  1 0.30457440E+02</asrwt>
<pdfrwt beam="1">  1        1 0.90588803E+00 0.30000000E+03</pdfrwt>
<pdfrwt beam="2">0</pdfrwt>
<totfact> 0.91221721E-05</totfact>
</mgrwt>
<clustering>
<clus scale="   30.457">  1  6  2 -1</clus>
<clus scale="  491.890">  4  5 -1 -1</clus>
<clus scale="  300.000">  1  4  2 -1</clus>
</clustering>
</event>
<event>
 6    1  0.1033679E-011  0.3000000E+03  0.7818608E-02  0.1093470E+00
          1   -1    0    0  502    0  0.00000000000E+00  0.00000000000E+00  0.23690187741E+03  0.23690187741E+03  0.00000000000E+00 0.  1.
         13   -1    0    0    0    0 -0.00000000000E+00 -0.00000000000E+00 -0.27500000000E+03  0.27500000000E+03  0.00000000000E+00 0.  1.
    9000005    2    1    2  501    0 -0.30888934762E+02  0.88333532173E+01 -0.43516597893E+02  0.47932098892E+03  0.47625913294E+03 0.  0.
         13    1    3    3    0    0  0.62558354051E+02 -0.21905147279E+03  0.68986721066E+01  0.22791377113E+03  0.00000000000E+00 0.  1.
          3    1    3    3  501    0 -0.93447288812E+02  0.22788482601E+03 -0.50415270000E+02  0.25140721780E+03  0.00000000000E+00 0.  1.
         21    1    1    2  502  501  0.30888934762E+02 -0.88333532173E+01  0.54184752997E+01  0.32580888483E+02  0.00000000000E+00 0.  1.
<scales pt_clust_4="550.00000" pt_clust_5="550.00000" pt_clust_6="32.12716"></scales>
<mgrwt>
<rscale>  0 0.30000000E+03</rscale>
<asrwt>  1 0.32127160E+02</asrwt>
<pdfrwt beam="1">  1        1 0.86146137E+00 0.30000000E+03</pdfrwt>
<pdfrwt beam="2">0</pdfrwt>
<totfact> 0.31707335E-04</totfact>
</mgrwt>
<clustering>
<clus scale="   32.127">  1  6  2 -1</clus>
<clus scale="  476.259">  4  5 -1 -1</clus>
<clus scale="  300.000">  1  4  2 -1</clus>
</clustering>
</event>
<event>
 6    1  0.1033679E-011  0.3000000E+03  0.7818608E-02  0.1093470E+00
          1   -1    0    0  502    0  0.00000000000E+00  0.00000000000E+00  0.22930094435E+03  0.22930094435E+03  0.00000000000E+00 0.  1.
         13   -1    0    0    0    0 -0.00000000000E+00 -0.00000000000E+00 -0.27500000000E+03  0.27500000000E+03  0.00000000000E+00 0.  1.
    9000005    2    1    2  501    0 -0.18503314887E+02  0.39616967116E+02 -0.40559589902E+02  0.46027491963E+03  0.45639461495E+03 0.  0.
         13    1    3    3    0    0 -0.14936152356E+03 -0.14157648465E+02 -0.19812066692E+03  0.24851781101E+03  0.00000000000E+00 0.  1.
          3    1    3    3  501    0  0.13085820867E+03  0.53774615581E+02  0.15756107702E+03  0.21175710861E+03  0.00000000000E+00 0.  1.
         21    1    1    2  502  501  0.18503314887E+02 -0.39616967116E+02 -0.51394657439E+01  0.44026024728E+02  0.00000000000E+00 0.  1.
<scales pt_clust_4="550.00000" pt_clust_5="550.00000" pt_clust_6="43.72503"></scales>
<mgrwt>
<rscale>  0 0.30000000E+03</rscale>
<asrwt>  1 0.43725035E+02</asrwt>
<pdfrwt beam="1">  1        1 0.83382162E+00 0.30000000E+03</pdfrwt>
<pdfrwt beam="2">0</pdfrwt>
<totfact> 0.52983592E-04</totfact>
</mgrwt>
<clustering>
<clus scale="   43.725">  1  6  2 -1</clus>
<clus scale="  456.395">  4  5 -1 -1</clus>
<clus scale="  300.000">  1  4  2 -1</clus>
</clustering>
</event>
<event>
 6    1  0.1033679E-011  0.3000000E+03  0.7818608E-02  0.1093470E+00
          1   -1    0    0  502    0  0.00000000000E+00  0.00000000000E+00  0.22008297952E+03  0.22008297952E+03  0.00000000000E+00 0.  1.
         13   -1    0    0    0    0 -0.00000000000E+00 -0.00000000000E+00 -0.27500000000E+03  0.27500000000E+03  0.00000000000E+00 0.  1.
    9000005    2    1    2  501    0 -0.30134627904E+02  0.10925693418E+02 -0.52956519433E+02  0.46296896171E+03  0.45881194402E+03 0.  0.
         13    1    3    3    0    0  0.10407967665E+03 -0.16641829928E+03  0.70541283460E+02  0.20857541106E+03  0.00000000000E+00 0.  1.
          3    1    3    3  501    0 -0.13421430455E+03  0.17734399270E+03 -0.12349780289E+03  0.25439355065E+03  0.00000000000E+00 0.  1.
         21    1    1    2  502  501  0.30134627904E+02 -0.10925693418E+02 -0.19605010492E+01  0.32114017811E+02  0.00000000000E+00 0. -1.
<scales pt_clust_4="550.00000" pt_clust_5="550.00000" pt_clust_6="32.05412"></scales>
<mgrwt>
<rscale>  0 0.30000000E+03</rscale>
<asrwt>  1 0.32054119E+02</asrwt>
<pdfrwt beam="1">  1        1 0.80030174E+00 0.30000000E+03</pdfrwt>
<pdfrwt beam="2">0</pdfrwt>
<totfact> 0.10490761E-03</totfact>
</mgrwt>
<clustering>
<clus scale="   32.054">  1  6  2 -1</clus>
<clus scale="  458.812">  4  5 -1 -1</clus>
<clus scale="  300.000">  1  4  2 -1</clus>
</clustering>
</event>
<event>
 6    1  0.1033679E-011  0.3000000E+03  0.7818608E-02  0.1093470E+00
          1   -1    0    0  502    0  0.00000000000E+00  0.00000000000E+00  0.23023849236E+03  0.23023849236E+03  0.00000000000E+00 0.  1.
         13   -1    0    0    0    0 -0.00000000000E+00 -0.00000000000E+00 -0.27500000000E+03  0.27500000000E+03  0.00000000000E+00 0.  1.
    9000005    2    1    2  501    0  0.39017505643E+02  0.23045922064E+01 -0.53876767841E+02  0.46510415718E+03  0.46031673228E+03 0.  0.
         13    1    3    3    0    0  0.11118566356E+02  0.17339790444E+03 -0.18041589953E+03  0.25048024390E+03  0.00000000000E+00 0.  1.
          3    1    3    3  501    0  0.27898939286E+02 -0.17109331223E+03  0.12653913169E+03  0.21462391328E+03  0.00000000000E+00 0.  1.
         21    1    1    2  502  501 -0.39017505643E+02 -0.23045922064E+01  0.91152601975E+01  0.40134335179E+02  0.00000000000E+00 0.  1.
<scales pt_clust_4="550.00000" pt_clust_5="550.00000" pt_clust_6="39.08551"></scales>
<mgrwt>
<rscale>  0 0.30000000E+03</rscale>
<asrwt>  1 0.39085507E+02</asrwt>
<pdfrwt beam="1">  1        1 0.83723088E+00 0.30000000E+03</pdfrwt>
<pdfrwt beam="2">0</pdfrwt>
<totfact> 0.51062476E-04</totfact>
</mgrwt>
<clustering>
<clus scale="   39.086">  1  6  2 -1</clus>
<clus scale="  460.317">  4  5 -1 -1</clus>
<clus scale="  300.000">  1  4  2 -1</clus>
</clustering>
</event>
<event>
 6    1  0.1033679E-011  0.3000000E+03  0.7818608E-02  0.1093470E+00
          1   -1    0    0  502    0  0.00000000000E+00  0.00000000000E+00  0.22320746762E+03  0.22320746762E+03  0.00000000000E+00 0.  1.
         13   -1    0    0    0    0 -0.00000000000E+00 -0.00000000000E+00 -0.27500000000E+03  0.27500000000E+03  0.00000000000E+00 0.  1.
    9000005    2    1    2  501    0 -0.26455756368E+02  0.14941197598E+02 -0.56141370847E+02  0.46751449079E+03  0.46313583228E+03 0.  0.
         13    1    3    3    0    0  0.69649336171E+02  0.18569548665E+03 -0.15152750230E+03  0.24958851685E+03  0.00000000000E+00 0.  1.
          1    1    3    3  501    0 -0.96105092539E+02 -0.17075428906E+03  0.95386131448E+02  0.21792597393E+03  0.00000000000E+00 0.  1.
         21    1    1    2  502  501  0.26455756368E+02 -0.14941197598E+02  0.43488384626E+01  0.30692976829E+02  0.00000000000E+00 0. -1.
<scales pt_clust_4="550.00000" pt_clust_5="550.00000" pt_clust_6="30.38332"></scales>
<mgrwt>
<rscale>  0 0.30000000E+03</rscale>
<asrwt>  1 0.30383325E+02</asrwt>
<pdfrwt beam="1">  1        1 0.81166352E+00 0.30000000E+03</pdfrwt>
<pdfrwt beam="2">0</pdfrwt>
<totfact> 0.86935109E-04</totfact>
</mgrwt>
<clustering>
<clus scale="   30.383">  1  6  2 -1</clus>
<clus scale="  463.136">  4  5 -1 -1</clus>
<clus scale="  300.000">  1  4  2 -1</clus>
</clustering>
</event>
<event>
 6    1  0.1033679E-011  0.3000000E+03  0.7818608E-02  0.1093470E+00
          1   -1    0    0  502    0  0.00000000000E+00  0.00000000000E+00  0.24982027916E+03  0.24982027916E+03  0.00000000000E+00 0.  1.
         13   -1    0    0    0    0 -0.00000000000E+00 -0.00000000000E+00 -0.27500000000E+03  0.27500000000E+03  0.00000000000E+00 0.  1.
    9000005    2    1    2  501    0  0.20453693021E+02  0.26742664184E+02 -0.37630460664E+02  0.48892397617E+03  0.48630965368E+03 0.  0.
         13    1    3    3    0    0  0.18205657874E+01  0.20389695368E+03 -0.17122529085E+03  0.26626186810E+03  0.00000000000E+00 0.  1.
          3    1    3    3  501    0  0.18633127234E+02 -0.17715428950E+03  0.13359483018E+03  0.22266210807E+03  0.00000000000E+00 0.  1.
         21    1    1    2  502  501 -0.20453693021E+02 -0.26742664184E+02  0.12450739821E+02  0.35896302984E+02  0.00000000000E+00 0.  1.
<scales pt_clust_4="550.00000" pt_clust_5="550.00000" pt_clust_6="33.66784"></scales>
<mgrwt>
<rscale>  0 0.30000000E+03</rscale>
<asrwt>  1 0.33667843E+02</asrwt>
<pdfrwt beam="1">  1        1 0.90843738E+00 0.30000000E+03</pdfrwt>
<pdfrwt beam="2">0</pdfrwt>
<totfact> 0.78829150E-05</totfact>
</mgrwt>
<clustering>
<clus scale="   33.668">  1  6  2 -1</clus>
<clus scale="  486.310">  4  5 -1 -1</clus>
<clus scale="  300.000">  1  4  2 -1</clus>
</clustering>
</event>
<event>
 6    1  0.1033679E-011  0.3000000E+03  0.7818608E-02  0.1093470E+00
          1   -1    0    0  502    0  0.00000000000E+00  0.00000000000E+00  0.23042141983E+03  0.23042141983E+03  0.00000000000E+00 0.  1.
         13   -1    0    0    0    0 -0.00000000000E+00 -0.00000000000E+00 -0.27500000000E+03  0.27500000000E+03  0.00000000000E+00 0.  1.
    9000005    2    1    2  501    0 -0.56226471938E+01  0.29984107260E+02 -0.59839883657E+02  0.47131030385E+03  0.46649965701E+03 0.  0.
         13    1    3    3    0    0 -0.55208168246E+02  0.89286968856E+02 -0.24723435865E+03  0.26859808776E+03  0.00000000000E+00 0.  1.
          3    1    3    3  501    0  0.49585521052E+02 -0.59302861595E+02  0.18739447500E+03  0.20271221609E+03  0.00000000000E+00 0.  1.
         21    1    1    2  502  501  0.56226471938E+01 -0.29984107260E+02  0.15261303490E+02  0.34111115987E+02  0.00000000000E+00 0.  1.
<scales pt_clust_4="550.00000" pt_clust_5="550.00000" pt_clust_6="30.50673"></scales>
<mgrwt>
<rscale>  0 0.30000000E+03</rscale>
<asrwt>  1 0.30506734E+02</asrwt>
<pdfrwt beam="1">  1        1 0.83789607E+00 0.30000000E+03</pdfrwt>
<pdfrwt beam="2">0</pdfrwt>
<totfact> 0.52896749E-04</totfact>
</mgrwt>
<clustering>
<clus scale="   30.507">  1  6  2 -1</clus>
<clus scale="  466.500">  4  5 -1 -1</clus>
<clus scale="  300.000">  1  4  2 -1</clus>
</clustering>
</event>
<event>
 6    1  0.1033679E-011  0.3000000E+03  0.7818608E-02  0.1093470E+00
          1   -1    0    0  502    0  0.00000000000E+00  0.00000000000E+00  0.23906741874E+03  0.23906741874E+03  0.00000000000E+00 0.  1.
         13   -1    0    0    0    0 -0.00000000000E+00 -0.00000000000E+00 -0.27500000000E+03  0.27500000000E+03  0.00000000000E+00 0.  1.
    9000005    2    1    2  501    0  0.21884932624E+02 -0.24625460641E+02 -0.49954117856E+02  0.47826285093E+03  0.47450455962E+03 0.  0.
         13    1    3    3    0    0 -0.70707211189E+02  0.45990183787E+02  0.19201901393E+03  0.20972817748E+03  0.00000000000E+00 0.  1.
          3    1    3    3  501    0  0.92592143813E+02 -0.70615644429E+02 -0.24197313179E+03  0.26853467344E+03  0.00000000000E+00 0.  1.
         21    1    1    2  502  501 -0.21884932624E+02  0.24625460641E+02  0.14021536597E+02  0.35804567813E+02  0.00000000000E+00 0. -1.
<scales pt_clust_4="550.00000" pt_clust_5="550.00000" pt_clust_6="32.94486"></scales>
<mgrwt>
<rscale>  0 0.30000000E+03</rscale>
<asrwt>  1 0.32944857E+02</asrwt>
<pdfrwt beam="1">  1        1 0.86933607E+00 0.30000000E+03</pdfrwt>
<pdfrwt beam="2">0</pdfrwt>
<totfact> 0.26019308E-04</totfact>
</mgrwt>
<clustering>
<clus scale="   32.945">  1  6  2 -1</clus>
<clus scale="  474.505">  4  5 -1 -1</clus>
<clus scale="  300.000">  1  4  2 -1</clus>
</clustering>
</event>
<event>
 6    1  0.1033679E-011  0.3000000E+03  0.7818608E-02  0.1093470E+00
          1   -1    0    0  502    0  0.00000000000E+00  0.00000000000E+00  0.22704618044E+03  0.22704618044E+03  0.00000000000E+00 0.  1.
         13   -1    0    0    0    0 -0.00000000000E+00 -0.00000000000E+00 -0.27500000000E+03  0.27500000000E+03  0.00000000000E+00 0.  1.
    9000005    2    1    2  501    0  0.27921877944E+02  0.15115104654E+02 -0.60830082462E+02  0.46778401759E+03  0.46272398957E+03 0.  0.
         13    1    3    3    0    0  0.16255516154E+02  0.58982953282E+01 -0.26375193992E+03  0.26431821259E+03  0.00000000000E+00 0.  1.
          1    1    3    3  501    0  0.11666361789E+02  0.92168093256E+01  0.20292185746E+03  0.20346580500E+03  0.00000000000E+00 0.  1.
         21    1    1    2  502  501 -0.27921877944E+02 -0.15115104654E+02  0.12876262899E+02  0.34262162845E+02  0.00000000000E+00 0. -1.
<scales pt_clust_4="550.00000" pt_clust_5="550.00000" pt_clust_6="31.75055"></scales>
<mgrwt>
<rscale>  0 0.30000000E+03</rscale>
<asrwt>  1 0.31750554E+02</asrwt>
<pdfrwt beam="1">  1        1 0.82562247E+00 0.30000000E+03</pdfrwt>
<pdfrwt beam="2">0</pdfrwt>
<totfact> 0.65684801E-04</totfact>
</mgrwt>
<clustering>
<clus scale="   31.751">  1  6  2 -1</clus>
<clus scale="  462.724">  4  5 -1 -1</clus>
<clus scale="  300.000">  1  4  2 -1</clus>
</clustering>
</event>
<event>
 6    1  0.1033679E-011  0.3000000E+03  0.7818608E-02  0.1093470E+00
          1   -1    0    0  502    0  0.00000000000E+00  0.00000000000E+00  0.23728567136E+03  0.23728567136E+03  0.00000000000E+00 0.  1.
         13   -1    0    0    0    0 -0.00000000000E+00 -0.00000000000E+00 -0.27500000000E+03  0.27500000000E+03  0.00000000000E+00 0.  1.
    9000005    2    1    2  501    0 -0.12385958461E+02 -0.41895956413E+02 -0.42777555339E+02  0.46830477328E+03  0.46429598136E+03 0.  0.
         13    1    3    3    0    0  0.13438887616E+03 -0.53685021097E+02 -0.20389893502E+03  0.25003445209E+03  0.00000000000E+00 0.  1.
          3    1    3    3  501    0 -0.14677483463E+03  0.11789064685E+02  0.16112137968E+03  0.21827032120E+03  0.00000000000E+00 0.  1.
         21    1    1    2  502  501  0.12385958461E+02  0.41895956413E+02  0.50632266973E+01  0.43980898073E+02  0.00000000000E+00 0.  1.
<scales pt_clust_4="550.00000" pt_clust_5="550.00000" pt_clust_6="43.68848"></scales>
<mgrwt>
<rscale>  0 0.30000000E+03</rscale>
<asrwt>  1 0.43688478E+02</asrwt>
<pdfrwt beam="1">  1        1 0.86285699E+00 0.30000000E+03</pdfrwt>
<pdfrwt beam="2">0</pdfrwt>
<totfact> 0.28934795E-04</totfact>
</mgrwt>
<clustering>
<clus scale="   43.688">  1  6  2 -1</clus>
<clus scale="  464.296">  4  5 -1 -1</clus>
<clus scale="  300.000">  1  4  2 -1</clus>
</clustering>
</event>
<event>
 6    1  0.1033679E-011  0.3000000E+03  0.7818608E-02  0.1093470E+00
          1   -1    0    0  502    0  0.00000000000E+00  0.00000000000E+00  0.24064283361E+03  0.24064283361E+03  0.00000000000E+00 0.  1.
         13   -1    0    0    0    0 -0.00000000000E+00 -0.00000000000E+00 -0.27500000000E+03  0.27500000000E+03  0.00000000000E+00 0.  1.
    9000005    2    1    2  501    0  0.16009060346E+02  0.26456480039E+02 -0.38608809088E+02  0.48442886534E+03  0.48189672139E+03 0.  0.
         13    1    3    3    0    0  0.14648673937E+03 -0.16254064895E+03  0.70879775425E+02  0.23000384765E+03  0.00000000000E+00 0.  1.
          3    1    3    3  501    0 -0.13047767902E+03  0.18899712899E+03 -0.10948858451E+03  0.25442501769E+03  0.00000000000E+00 0.  1.
         21    1    1    2  502  501 -0.16009060346E+02 -0.26456480039E+02  0.42516426969E+01  0.31213968265E+02  0.00000000000E+00 0.  1.
<scales pt_clust_4="550.00000" pt_clust_5="550.00000" pt_clust_6="30.92306"></scales>
<mgrwt>
<rscale>  0 0.30000000E+03</rscale>
<asrwt>  1 0.30923055E+02</asrwt>
<pdfrwt beam="1">  1        1 0.87506485E+00 0.30000000E+03</pdfrwt>
<pdfrwt beam="2">0</pdfrwt>
<totfact> 0.22989657E-04</totfact>
</mgrwt>
<clustering>
<clus scale="   30.923">  1  6  2 -1</clus>
<clus scale="  481.897">  4  5 -1 -1</clus>
<clus scale="  300.000">  1  4  2 -1</clus>
</clustering>
</event>
<event>
 6    1  0.1033679E-011  0.3000000E+03  0.7818608E-02  0.1093470E+00
          1   -1    0    0  502    0  0.00000000000E+00  0.00000000000E+00  0.22257322918E+03  0.22257322918E+03  0.00000000000E+00 0.  1.
         13   -1    0    0    0    0 -0.00000000000E+00 -0.00000000000E+00 -0.27500000000E+03  0.27500000000E+03  0.00000000000E+00 0.  1.
    9000005    2    1    2  501    0 -0.34687860568E+02  0.51454314234E+01 -0.52195311917E+02  0.46250505688E+03  0.45821049084E+03 0.  0.
         13    1    3    3    0    0 -0.39773153129E+01  0.45597842047E+02  0.20003876706E+03  0.20520840763E+03  0.00000000000E+00 0.  1.
          1    1    3    3  501    0 -0.30710545255E+02 -0.40452410623E+02 -0.25223407898E+03  0.25729664925E+03  0.00000000000E+00 0.  1.
         21    1    1    2  502  501  0.34687860568E+02 -0.51454314234E+01 -0.23145890247E+00  0.35068172301E+02  0.00000000000E+00 0.  1.
<scales pt_clust_4="550.00000" pt_clust_5="550.00000" pt_clust_6="35.06741"></scales>
<mgrwt>
<rscale>  0 0.30000000E+03</rscale>
<asrwt>  1 0.35067408E+02</asrwt>
<pdfrwt beam="1">  1        1 0.80935720E+00 0.30000000E+03</pdfrwt>
<pdfrwt beam="2">0</pdfrwt>
<totfact> 0.88193444E-04</totfact>
</mgrwt>
<clustering>
<clus scale="   35.067">  1  6  2 -1</clus>
<clus scale="  458.210">  4  5 -1 -1</clus>
<clus scale="  300.000">  1  4  2 -1</clus>
</clustering>
</event>
<event>
 6    1  0.1033679E-011  0.3000000E+03  0.7818608E-02  0.1093470E+00
          1   -1    0    0  502    0  0.00000000000E+00  0.00000000000E+00  0.25590171832E+03  0.25590171832E+03  0.00000000000E+00 0.  1.
         13   -1    0    0    0    0 -0.00000000000E+00 -0.00000000000E+00 -0.27500000000E+03  0.27500000000E+03  0.00000000000E+00 0.  1.
    9000005    2    1    2  501    0 -0.42168284780E+02 -0.10503199465E+02 -0.37214004246E+02  0.48382029051E+03  0.48042555090E+03 0.  0.
         13    1    3    3    0    0  0.14201495487E+03 -0.82250746848E+02 -0.17726420823E+03  0.24156993249E+03  0.00000000000E+00 0.  1.
          3    1    3    3  501    0 -0.18418323965E+03  0.71747547383E+02  0.14005020399E+03  0.24225035802E+03  0.00000000000E+00 0.  1.
         21    1    1    2  502  501  0.42168284780E+02  0.10503199465E+02  0.18115722569E+02  0.47081427808E+02  0.00000000000E+00 0. -1.
<scales pt_clust_4="550.00000" pt_clust_5="550.00000" pt_clust_6="43.45666"></scales>
<mgrwt>
<rscale>  0 0.30000000E+03</rscale>
<asrwt>  1 0.43456662E+02</asrwt>
<pdfrwt beam="1">  1        1 0.93055170E+00 0.30000000E+03</pdfrwt>
<pdfrwt beam="2">0</pdfrwt>
<totfact> 0.24775187E-05</totfact>
</mgrwt>
<clustering>
<clus scale="   43.457">  1  6  2 -1</clus>
<clus scale="  480.426">  4  5 -1 -1</clus>
<clus scale="  300.000">  1  4  2 -1</clus>
</clustering>
</event>
<event>
 6    1  0.1033679E-011  0.3000000E+03  0.7818608E-02  0.1093470E+00
          1   -1    0    0  502    0  0.00000000000E+00  0.00000000000E+00  0.25906916432E+03  0.25906916432E+03  0.00000000000E+00 0.  1.
         13   -1    0    0    0    0 -0.00000000000E+00 -0.00000000000E+00 -0.27500000000E+03  0.27500000000E+03  0.00000000000E+00 0.  1.
    9000005    2    1    2  501    0 -0.30291161240E+02 -0.22422090029E+02  0.23269063259E+02  0.47969144234E+03  0.47764225732E+03 0.  0.
         13    1    3    3    0    0 -0.70078600597E+02  0.11368144825E+03  0.20777432300E+03  0.24699119667E+03  0.00000000000E+00 0.  1.
          1    1    3    3  501    0  0.39787439357E+02 -0.13610353828E+03 -0.18450525974E+03  0.23270024567E+03  0.00000000000E+00 0.  1.
         21    1    1    2  502  501  0.30291161240E+02  0.22422090029E+02 -0.39199898940E+02  0.54377721977E+02  0.00000000000E+00 0.  1.
<scales pt_clust_4="550.00000" pt_clust_5="550.00000" pt_clust_6="37.68695"></scales>
<mgrwt>
<rscale>  0 0.30000000E+03</rscale>
<asrwt>  1 0.37686947E+02</asrwt>
<pdfrwt beam="1">  1        1 0.94206969E+00 0.30000000E+03</pdfrwt>
<pdfrwt beam="2">0</pdfrwt>
<totfact> 0.17391413E-05</totfact>
</mgrwt>
<clustering>
<clus scale="   37.687">  1  6  2 -1</clus>
<clus scale="  477.642">  4  5 -1 -1</clus>
<clus scale="  300.000">  1  4  2 -1</clus>
</clustering>
</event>
<event>
 6    1  0.1033679E-011  0.3000000E+03  0.7818608E-02  0.1093470E+00
          1   -1    0    0  502    0  0.00000000000E+00  0.00000000000E+00  0.26124069841E+03  0.26124069841E+03  0.00000000000E+00 0.  1.
         13   -1    0    0    0    0 -0.00000000000E+00 -0.00000000000E+00 -0.27500000000E+03  0.27500000000E+03  0.00000000000E+00 0.  1.
    9000005    2    1    2  501    0 -0.25893736250E+01 -0.55244199934E+02 -0.45053469479E+02  0.47269582115E+03  0.46728246034E+03 0.  0.
         13    1    3    3    0    0  0.18435483245E+02 -0.12850456187E+03 -0.23475280644E+03  0.26825765524E+03  0.00000000000E+00 0.  1.
          3    1    3    3  501    0 -0.21024856871E+02  0.73260361933E+02  0.18969933696E+03  0.20443816591E+03  0.00000000000E+00 0.  1.
         21    1    1    2  502  501  0.25893736250E+01  0.55244199934E+02  0.31294167888E+02  0.63544877259E+02  0.00000000000E+00 0.  1.
<scales pt_clust_4="550.00000" pt_clust_5="550.00000" pt_clust_6="55.30485"></scales>
<mgrwt>
<rscale>  0 0.30000000E+03</rscale>
<asrwt>  1 0.55304850E+02</asrwt>
<pdfrwt beam="1">  1        1 0.94996618E+00 0.30000000E+03</pdfrwt>
<pdfrwt beam="2">0</pdfrwt>
<totfact> 0.11382019E-05</totfact>
</mgrwt>
<clustering>
<clus scale="   55.305">  1  6  2 -1</clus>
<clus scale="  467.282">  4  5 -1 -1</clus>
<clus scale="  300.000">  1  4  2 -1</clus>
</clustering>
</event>
<event>
 6    1  0.1033679E-011  0.3000000E+03  0.7818608E-02  0.1093470E+00
          1   -1    0    0  502    0  0.00000000000E+00  0.00000000000E+00  0.22598536386E+03  0.22598536386E+03  0.00000000000E+00 0.  1.
         13   -1    0    0    0    0 -0.00000000000E+00 -0.00000000000E+00 -0.27500000000E+03  0.27500000000E+03  0.00000000000E+00 0.  1.
    9000005    2    1    2  501    0  0.17435140186E+02 -0.34289685305E+02 -0.35469112001E+02  0.46020242802E+03  0.45721816480E+03 0.  0.
         13    1    3    3    0    0  0.13638851598E+02  0.20755071995E+03 -0.61591036539E+02  0.21692573707E+03  0.00000000000E+00 0.  1.
          1    1    3    3  501    0  0.37962885885E+01 -0.24184040525E+03  0.26121924538E+02  0.24327669095E+03  0.00000000000E+00 0.  1.
         21    1    1    2  502  501 -0.17435140186E+02  0.34289685305E+02 -0.13545524135E+02  0.40782935840E+02  0.00000000000E+00 0.  1.
<scales pt_clust_4="550.00000" pt_clust_5="550.00000" pt_clust_6="38.46775"></scales>
<mgrwt>
<rscale>  0 0.30000000E+03</rscale>
<asrwt>  1 0.38467754E+02</asrwt>
<pdfrwt beam="1">  1        1 0.82176496E+00 0.30000000E+03</pdfrwt>
<pdfrwt beam="2">0</pdfrwt>
<totfact> 0.68588203E-04</totfact>
</mgrwt>
<clustering>
<clus scale="   38.468">  1  6  2 -1</clus>
<clus scale="  457.218">  4  5 -1 -1</clus>
<clus scale="  300.000">  1  4  2 -1</clus>
</clustering>
</event>
<event>
 6    1  0.1033679E-011  0.3000000E+03  0.7818608E-02  0.1093470E+00
          1   -1    0    0  502    0  0.00000000000E+00  0.00000000000E+00  0.24642699006E+03  0.24642699006E+03  0.00000000000E+00 0.  1.
         13   -1    0    0    0    0 -0.00000000000E+00 -0.00000000000E+00 -0.27500000000E+03  0.27500000000E+03  0.00000000000E+00 0.  1.
    9000005    2    1    2  501    0 -0.24998800206E+02 -0.42191859532E+02 -0.53791056995E+02  0.46628133819E+03  0.46056456172E+03 0.  0.
         13    1    3    3    0    0 -0.22192205847E+03 -0.98703369124E+02 -0.88474687289E+02  0.25849472993E+03  0.00000000000E+00 0.  1.
          1    1    3    3  501    0  0.19692325827E+03  0.56511509593E+02  0.34683630294E+02  0.20778660826E+03  0.00000000000E+00 0.  1.
         21    1    1    2  502  501  0.24998800206E+02  0.42191859532E+02  0.25218047057E+02  0.55145651867E+02  0.00000000000E+00 0. -1.
<scales pt_clust_4="550.00000" pt_clust_5="550.00000" pt_clust_6="49.04175"></scales>
<mgrwt>
<rscale>  0 0.30000000E+03</rscale>
<asrwt>  1 0.49041748E+02</asrwt>
<pdfrwt beam="1">  1        1 0.89609815E+00 0.30000000E+03</pdfrwt>
<pdfrwt beam="2">0</pdfrwt>
<totfact> 0.11530709E-04</totfact>
</mgrwt>
<clustering>
<clus scale="   49.042">  1  6  2 -1</clus>
<clus scale="  460.565">  4  5 -1 -1</clus>
<clus scale="  300.000">  1  4  2 -1</clus>
</clustering>
</event>
<event>
 6    1  0.1033679E-011  0.3000000E+03  0.7818608E-02  0.1093470E+00
          1   -1    0    0  502    0  0.00000000000E+00  0.00000000000E+00  0.23586974625E+03  0.23586974625E+03  0.00000000000E+00 0.  1.
         13   -1    0    0    0    0 -0.00000000000E+00 -0.00000000000E+00 -0.27500000000E+03  0.27500000000E+03  0.00000000000E+00 0.  1.
    9000005    2    1    2  501    0  0.22171041376E+02 -0.20964434599E+02 -0.72016085101E+02  0.46600839877E+03  0.45939791970E+03 0.  0.
         13    1    3    3    0    0  0.17546522731E+03 -0.57370017906E+02  0.11805386273E+03  0.21912571610E+03  0.00000000000E+00 0.  1.
          3    1    3    3  501    0 -0.15329418593E+03  0.36405583307E+02 -0.19006994783E+03  0.24688268268E+03  0.00000000000E+00 0.  1.
         21    1    1    2  502  501 -0.22171041376E+02  0.20964434599E+02  0.32885831349E+02  0.44861347475E+02  0.00000000000E+00 0.  1.
<scales pt_clust_4="550.00000" pt_clust_5="550.00000" pt_clust_6="30.51332"></scales>
<mgrwt>
<rscale>  0 0.30000000E+03</rscale>
<asrwt>  1 0.30513318E+02</asrwt>
<pdfrwt beam="1">  1        1 0.85770817E+00 0.30000000E+03</pdfrwt>
<pdfrwt beam="2">0</pdfrwt>
<totfact> 0.35096736E-04</totfact>
</mgrwt>
<clustering>
<clus scale="   30.513">  1  6  2 -1</clus>
<clus scale="  459.398">  4  5 -1 -1</clus>
<clus scale="  300.000">  1  4  2 -1</clus>
</clustering>
</event>
<event>
 6    1  0.1033679E-011  0.3000000E+03  0.7818608E-02  0.1093470E+00
          1   -1    0    0  502    0  0.00000000000E+00  0.00000000000E+00  0.23503698692E+03  0.23503698692E+03  0.00000000000E+00 0.  1.
         13   -1    0    0    0    0 -0.00000000000E+00 -0.00000000000E+00 -0.27500000000E+03  0.27500000000E+03  0.00000000000E+00 0.  1.
    9000005    2    1    2  501    0  0.22032769598E+02  0.31066903503E+02 -0.28037499601E+02  0.47012692175E+03  0.46774205044E+03 0.  0.
         13    1    3    3    0    0  0.24417382558E+02 -0.21733397314E+03 -0.35702725163E+02  0.22159636512E+03  0.00000000000E+00 0.  1.
          1    1    3    3  501    0 -0.23846129598E+01  0.24840087664E+03  0.76652255621E+01  0.24853055663E+03  0.00000000000E+00 0.  1.
         21    1    1    2  502  501 -0.22032769598E+02 -0.31066903503E+02 -0.11925513482E+02  0.39910065162E+02  0.00000000000E+00 0. -1.
<scales pt_clust_4="550.00000" pt_clust_5="550.00000" pt_clust_6="38.08670"></scales>
<mgrwt>
<rscale>  0 0.30000000E+03</rscale>
<asrwt>  1 0.38086702E+02</asrwt>
<pdfrwt beam="1">  1        1 0.85467995E+00 0.30000000E+03</pdfrwt>
<pdfrwt beam="2">0</pdfrwt>
<totfact> 0.36128741E-04</totfact>
</mgrwt>
<clustering>
<clus scale="   38.087">  1  6  2 -1</clus>
<clus scale="  467.742">  4  5 -1 -1</clus>
<clus scale="  300.000">  1  4  2 -1</clus>
</clustering>
</event>
<event>
 6    1  0.1033679E-011  0.3000000E+03  0.7818608E-02  0.1093470E+00
          1   -1    0    0  502    0  0.00000000000E+00  0.00000000000E+00  0.23639115052E+03  0.23639115052E+03  0.00000000000E+00 0.  1.
         13   -1    0    0    0    0 -0.00000000000E+00 -0.00000000000E+00 -0.27500000000E+03  0.27500000000E+03  0.00000000000E+00 0.  1.
    9000005    2    1    2  501    0 -0.52726648432E+00 -0.37601360000E+02 -0.66905357778E+02  0.46432914179E+03  0.45794222860E+03 0.  0.
         13    1    3    3    0    0 -0.18750239844E+03 -0.14333816067E+03  0.98634251267E+01  0.23622079689E+03  0.00000000000E+00 0.  1.
          3    1    3    3  501    0  0.18697513196E+03  0.10573680067E+03 -0.76768782904E+02  0.22810834491E+03  0.00000000000E+00 0.  1.
         21    1    1    2  502  501  0.52726648432E+00  0.37601360000E+02  0.28296508302E+02  0.47062008732E+02  0.00000000000E+00 0.  1.
<scales pt_clust_4="550.00000" pt_clust_5="550.00000" pt_clust_6="37.60506"></scales>
<mgrwt>
<rscale>  0 0.30000000E+03</rscale>
<asrwt>  1 0.37605057E+02</asrwt>
<pdfrwt beam="1">  1        1 0.85960418E+00 0.30000000E+03</pdfrwt>
<pdfrwt beam="2">0</pdfrwt>
<totfact> 0.32228974E-04</totfact>
</mgrwt>
<clustering>
<clus scale="   37.605">  1  6  2 -1</clus>
<clus scale="  457.942">  4  5 -1 -1</clus>
<clus scale="  300.000">  1  4  2 -1</clus>
</clustering>
</event>
<event>
 6    1  0.1033679E-011  0.3000000E+03  0.7818608E-02  0.1093470E+00
          1   -1    0    0  502    0  0.00000000000E+00  0.00000000000E+00  0.24188329260E+03  0.24188329260E+03  0.00000000000E+00 0.  1.
         13   -1    0    0    0    0 -0.00000000000E+00 -0.00000000000E+00 -0.27500000000E+03  0.27500000000E+03  0.00000000000E+00 0.  1.
    9000005    2    1    2  501    0  0.30067528628E+02  0.21933889715E+02 -0.50647770284E+02  0.47574340974E+03  0.47157337020E+03 0.  0.
         13    1    3    3    0    0 -0.12026678706E+03 -0.18293584953E+03 -0.23960932103E+02  0.22023567236E+03  0.00000000000E+00 0.  1.
          1    1    3    3  501    0  0.15033431569E+03  0.20486973924E+03 -0.26686838181E+02  0.25550773738E+03  0.00000000000E+00 0.  1.
         21    1    1    2  502  501 -0.30067528628E+02 -0.21933889715E+02  0.17531062881E+02  0.41139882858E+02  0.00000000000E+00 0.  1.
<scales pt_clust_4="550.00000" pt_clust_5="550.00000" pt_clust_6="37.21763"></scales>
<mgrwt>
<rscale>  0 0.30000000E+03</rscale>
<asrwt>  1 0.37217627E+02</asrwt>
<pdfrwt beam="1">  1        1 0.87957561E+00 0.30000000E+03</pdfrwt>
<pdfrwt beam="2">0</pdfrwt>
<totfact> 0.19748194E-04</totfact>
</mgrwt>
<clustering>
<clus scale="   37.218">  1  6  2 -1</clus>
<clus scale="  471.573">  4  5 -1 -1</clus>
<clus scale="  300.000">  1  4  2 -1</clus>
</clustering>
</event>
<event>
 6    1  0.1033679E-011  0.3000000E+03  0.7818608E-02  0.1093470E+00
          1   -1    0    0  502    0  0.00000000000E+00  0.00000000000E+00  0.22645784404E+03  0.22645784404E+03  0.00000000000E+00 0.  1.
         13   -1    0    0    0    0 -0.00000000000E+00 -0.00000000000E+00 -0.27500000000E+03  0.27500000000E+03  0.00000000000E+00 0.  1.
    9000005    2    1    2  501    0 -0.52221442496E+01 -0.33311381016E+02 -0.49529743574E+02  0.46772515625E+03  0.46387143413E+03 0.  0.
         13    1    3    3    0    0 -0.17546444715E+03  0.12209768815E+03  0.45231203060E+02  0.21849823660E+03  0.00000000000E+00 0.  1.
          3    1    3    3  501    0  0.17024230290E+03 -0.15540906916E+03 -0.94760946634E+02  0.24922691966E+03  0.00000000000E+00 0.  1.
         21    1    1    2  502  501  0.52221442496E+01  0.33311381016E+02  0.98758761104E+00  0.33732687783E+02  0.00000000000E+00 0. -1.
<scales pt_clust_4="550.00000" pt_clust_5="550.00000" pt_clust_6="33.71823"></scales>
<mgrwt>
<rscale>  0 0.30000000E+03</rscale>
<asrwt>  1 0.33718228E+02</asrwt>
<pdfrwt beam="1">  1        1 0.82348307E+00 0.30000000E+03</pdfrwt>
<pdfrwt beam="2">0</pdfrwt>
<totfact> 0.67861133E-04</totfact>
</mgrwt>
<clustering>
<clus scale="   33.718">  1  6  2 -1</clus>
<clus scale="  463.871">  4  5 -1 -1</clus>
<clus scale="  300.000">  1  4  2 -1</clus>
</clustering>
</event>
<event>
 6    1  0.1033679E-011  0.3000000E+03  0.7818608E-02  0.1093470E+00
          1   -1    0    0  502    0  0.00000000000E+00  0.00000000000E+00  0.22953951036E+03  0.22953951036E+03  0.00000000000E+00 0.  1.
         13   -1    0    0    0    0 -0.00000000000E+00 -0.00000000000E+00 -0.27500000000E+03  0.27500000000E+03  0.00000000000E+00 0.  1.
    9000005    2    1    2  501    0  0.91425525363E+01 -0.31262160505E+02 -0.47739780082E+02  0.47188826059E+03  0.46833592104E+03 0.  0.
         13    1    3    3    0    0 -0.27888041195E+02  0.13921139021E+03 -0.19663644141E+03  0.24253544915E+03  0.00000000000E+00 0.  1.
          1    1    3    3  501    0  0.37030593731E+02 -0.17047355071E+03  0.14889666132E+03  0.22935281144E+03  0.00000000000E+00 0.  1.
         21    1    1    2  502  501 -0.91425525363E+01  0.31262160505E+02  0.22792904408E+01  0.32651249766E+02  0.00000000000E+00 0.  1.
<scales pt_clust_4="550.00000" pt_clust_5="550.00000" pt_clust_6="32.57160"></scales>
<mgrwt>
<rscale>  0 0.30000000E+03</rscale>
<asrwt>  1 0.32571597E+02</asrwt>
<pdfrwt beam="1">  1        1 0.83468913E+00 0.30000000E+03</pdfrwt>
<pdfrwt beam="2">0</pdfrwt>
<totfact> 0.55124140E-04</totfact>
</mgrwt>
<clustering>
<clus scale="   32.572">  1  6  2 -1</clus>
<clus scale="  468.336">  4  5 -1 -1</clus>
<clus scale="  300.000">  1  4  2 -1</clus>
</clustering>
</event>
<event>
 6    1  0.1033679E-011  0.3000000E+03  0.7818608E-02  0.1093470E+00
          1   -1    0    0  502    0  0.00000000000E+00  0.00000000000E+00  0.24592116844E+03  0.24592116844E+03  0.00000000000E+00 0.  1.
         13   -1    0    0    0    0 -0.00000000000E+00 -0.00000000000E+00 -0.27500000000E+03  0.27500000000E+03  0.00000000000E+00 0.  1.
    9000005    2    1    2  501    0 -0.33445570188E+02 -0.65843298492E+01 -0.67000479263E+02  0.46993086614E+03  0.46387928943E+03 0.  0.
         13    1    3    3    0    0 -0.16468529430E+03  0.15594309709E+03 -0.11689599589E+03  0.25515518718E+03  0.00000000000E+00 0.  1.
          3    1    3    3  501    0  0.13123972411E+03 -0.16252742694E+03  0.49895516628E+02  0.21477567896E+03  0.00000000000E+00 0.  1.
         21    1    1    2  502  501  0.33445570188E+02  0.65843298492E+01  0.37921647708E+02  0.50990302309E+02  0.00000000000E+00 0.  1.
<scales pt_clust_4="550.00000" pt_clust_5="550.00000" pt_clust_6="34.08753"></scales>
<mgrwt>
<rscale>  0 0.30000000E+03</rscale>
<asrwt>  1 0.34087528E+02</asrwt>
<pdfrwt beam="1">  1        1 0.89425879E+00 0.30000000E+03</pdfrwt>
<pdfrwt beam="2">0</pdfrwt>
<totfact> 0.12918318E-04</totfact>
</mgrwt>
<clustering>
<clus scale="   34.088">  1  6  2 -1</clus>
<clus scale="  463.879">  4  5 -1 -1</clus>
<clus scale="  300.000">  1  4  2 -1</clus>
</clustering>
</event>
<event>
 6    1  0.1033679E-011  0.3000000E+03  0.7818608E-02  0.1093470E+00
          1   -1    0    0  502    0  0.00000000000E+00  0.00000000000E+00  0.23422313172E+03  0.23422313172E+03  0.00000000000E+00 0.  1.
         13   -1    0    0    0    0 -0.00000000000E+00 -0.00000000000E+00 -0.27500000000E+03  0.27500000000E+03  0.00000000000E+00 0.  1.
    9000005    2    1    2  501    0  0.45762404660E+01  0.37571056303E+02 -0.22686301625E+02  0.46727322290E+03  0.46518498504E+03 0.  0.
         13    1    3    3    0    0  0.61202657371E+02 -0.17420938166E+03  0.10616240024E+03  0.21299091331E+03  0.00000000000E+00 0.  1.
          3    1    3    3  501    0 -0.56626416905E+02  0.21178043797E+03 -0.12884870186E+03  0.25428230959E+03  0.00000000000E+00 0.  1.
         21    1    1    2  502  501 -0.45762404660E+01 -0.37571056303E+02 -0.18090566651E+02  0.41949908823E+02  0.00000000000E+00 0.  1.
<scales pt_clust_4="550.00000" pt_clust_5="550.00000" pt_clust_6="37.84875"></scales>
<mgrwt>
<rscale>  0 0.30000000E+03</rscale>
<asrwt>  1 0.37848747E+02</asrwt>
<pdfrwt beam="1">  1        1 0.85172048E+00 0.30000000E+03</pdfrwt>
<pdfrwt beam="2">0</pdfrwt>
<totfact> 0.38634649E-04</totfact>
</mgrwt>
<clustering>
<clus scale="   37.849">  1  6  2 -1</clus>
<clus scale="  465.185">  4  5 -1 -1</clus>
<clus scale="  300.000">  1  4  2 -1</clus>
</clustering>
</event>
<event>
 6    1  0.1033679E-011  0.3000000E+03  0.7818608E-02  0.1093470E+00
          1   -1    0    0  502    0  0.00000000000E+00  0.00000000000E+00  0.24197854385E+03  0.24197854385E+03  0.00000000000E+00 0.  1.
         13   -1    0    0    0    0 -0.00000000000E+00 -0.00000000000E+00 -0.27500000000E+03  0.27500000000E+03  0.00000000000E+00 0.  1.
    9000005    2    1    2  501    0 -0.95337948070E+01 -0.32879384534E+02  0.79603775763E+01  0.46357950017E+03  0.46224521436E+03 0.  0.
         13    1    3    3    0    0 -0.12538121632E+03  0.90750763344E+02 -0.16168066677E+03  0.22382311869E+03  0.00000000000E+00 0.  1.
          1    1    3    3  501    0  0.11584742151E+03 -0.12363014788E+03  0.16964104435E+03  0.23975638148E+03  0.00000000000E+00 0.  1.
         21    1    1    2  502  501  0.95337948070E+01  0.32879384534E+02 -0.40981833721E+02  0.53399043680E+02  0.00000000000E+00 0. -1.
<scales pt_clust_4="550.00000" pt_clust_5="550.00000" pt_clust_6="34.23373"></scales>
<mgrwt>
<rscale>  0 0.30000000E+03</rscale>
<asrwt>  1 0.34233731E+02</asrwt>
<pdfrwt beam="1">  1        1 0.87992198E+00 0.30000000E+03</pdfrwt>
<pdfrwt beam="2">0</pdfrwt>
<totfact> 0.19863647E-04</totfact>
</mgrwt>
<clustering>
<clus scale="   34.234">  1  6  2 -1</clus>
<clus scale="  462.245">  4  5 -1 -1</clus>
<clus scale="  300.000">  1  4  2 -1</clus>
</clustering>
</event>
<event>
 6    1  0.1033679E-011  0.3000000E+03  0.7818608E-02  0.1093470E+00
          1   -1    0    0  502    0  0.00000000000E+00  0.00000000000E+00  0.25313782217E+03  0.25313782217E+03  0.00000000000E+00 0.  1.
         13   -1    0    0    0    0 -0.00000000000E+00 -0.00000000000E+00 -0.27500000000E+03  0.27500000000E+03  0.00000000000E+00 0.  1.
    9000005    2    1    2  501    0  0.17429099223E+02 -0.38339384445E+02 -0.21853003994E+02  0.48602271819E+03  0.48370119590E+03 0.  0.
         13    1    3    3    0    0 -0.12787434762E+03 -0.21550296519E+03 -0.48868651876E+02  0.25530672126E+03  0.00000000000E+00 0.  1.
          1    1    3    3  501    0  0.14530344684E+03  0.17716358075E+03  0.27015647882E+02  0.23071599693E+03  0.00000000000E+00 0.  1.
         21    1    1    2  502  501 -0.17429099223E+02  0.38339384445E+02 -0.91738332559E-02  0.42115103983E+02  0.00000000000E+00 0. -1.
<scales pt_clust_4="550.00000" pt_clust_5="550.00000" pt_clust_6="42.11510"></scales>
<mgrwt>
<rscale>  0 0.30000000E+03</rscale>
<asrwt>  1 0.42115103E+02</asrwt>
<pdfrwt beam="1">  1        1 0.92050117E+00 0.30000000E+03</pdfrwt>
<pdfrwt beam="2">0</pdfrwt>
<totfact> 0.39405699E-05</totfact>
</mgrwt>
<clustering>
<clus scale="   42.115">  1  6  2 -1</clus>
<clus scale="  483.701">  4  5 -1 -1</clus>
<clus scale="  300.000">  1  4  2 -1</clus>
</clustering>
</event>
<event>
 6    1  0.1033679E-011  0.3000000E+03  0.7818608E-02  0.1093470E+00
          1   -1    0    0  502    0  0.00000000000E+00  0.00000000000E+00  0.24264330219E+03  0.24264330219E+03  0.00000000000E+00 0.  1.
         13   -1    0    0    0    0 -0.00000000000E+00 -0.00000000000E+00 -0.27500000000E+03  0.27500000000E+03  0.00000000000E+00 0.  1.
    9000005    2    1    2  501    0  0.13412223350E+01 -0.50704693470E+02 -0.13800837084E+02  0.46363325882E+03  0.46064364835E+03 0.  0.
         13    1    3    3    0    0  0.11062845300E+03 -0.18873262863E+03 -0.12830689576E+03  0.25361648058E+03  0.00000000000E+00 0.  1.
          3    1    3    3  501    0 -0.10928723066E+03  0.13802793516E+03  0.11450605868E+03  0.21001677824E+03  0.00000000000E+00 0.  1.
         21    1    1    2  502  501 -0.13412223350E+01  0.50704693470E+02 -0.18555860728E+02  0.54010043368E+02  0.00000000000E+00 0. -1.
<scales pt_clust_4="550.00000" pt_clust_5="550.00000" pt_clust_6="50.72245"></scales>
<mgrwt>
<rscale>  0 0.30000000E+03</rscale>
<asrwt>  1 0.50722454E+02</asrwt>
<pdfrwt beam="1">  1        1 0.88233928E+00 0.30000000E+03</pdfrwt>
<pdfrwt beam="2">0</pdfrwt>
<totfact> 0.17232373E-04</totfact>
</mgrwt>
<clustering>
<clus scale="   50.722">  1  6  2 -1</clus>
<clus scale="  460.644">  4  5 -1 -1</clus>
<clus scale="  300.000">  1  4  2 -1</clus>
</clustering>
</event>
<event>
 6    1  0.1033679E-011  0.3000000E+03  0.7818608E-02  0.1093470E+00
          1   -1    0    0  502    0  0.00000000000E+00  0.00000000000E+00  0.23636168241E+03  0.23636168241E+03  0.00000000000E+00 0.  1.
         13   -1    0    0    0    0 -0.00000000000E+00 -0.00000000000E+00 -0.27500000000E+03  0.27500000000E+03  0.00000000000E+00 0.  1.
    9000005    2    1    2  501    0  0.32625739240E+02 -0.85636838932E+01 -0.50713419310E+02  0.47553454710E+03  0.47161793758E+03 0.  0.
         13    1    3    3    0    0  0.20044928421E+03  0.10539456043E+03 -0.12599621083E+03  0.25915820275E+03  0.00000000000E+00 0.  1.
          1    1    3    3  501    0 -0.16782354497E+03 -0.11395824433E+03  0.75282791521E+02  0.21637634435E+03  0.00000000000E+00 0.  1.
         21    1    1    2  502  501 -0.32625739240E+02  0.85636838932E+01  0.12075101717E+02  0.35827135307E+02  0.00000000000E+00 0.  1.
<scales pt_clust_4="550.00000" pt_clust_5="550.00000" pt_clust_6="33.73093"></scales>
<mgrwt>
<rscale>  0 0.30000000E+03</rscale>
<asrwt>  1 0.33730929E+02</asrwt>
<pdfrwt beam="1">  1        1 0.85949703E+00 0.30000000E+03</pdfrwt>
<pdfrwt beam="2">0</pdfrwt>
<totfact> 0.32975334E-04</totfact>
</mgrwt>
<clustering>
<clus scale="   33.731">  1  6  2 -1</clus>
<clus scale="  471.618">  4  5 -1 -1</clus>
<clus scale="  300.000">  1  4  2 -1</clus>
</clustering>
</event>
<event>
 6    1  0.1033679E-011  0.3000000E+03  0.7818608E-02  0.1093470E+00
          1   -1    0    0  502    0  0.00000000000E+00  0.00000000000E+00  0.23377953415E+03  0.23377953415E+03  0.00000000000E+00 0.  1.
         13   -1    0    0    0    0 -0.00000000000E+00 -0.00000000000E+00 -0.27500000000E+03  0.27500000000E+03  0.00000000000E+00 0.  1.
    9000005    2    1    2  501    0 -0.30074631090E+02 -0.12356842716E+02 -0.66880799856E+02  0.46735939728E+03  0.46140501714E+03 0.  0.
         13    1    3    3    0    0  0.12153580369E+03 -0.18042504656E+03 -0.98524069459E+02  0.23881193703E+03  0.00000000000E+00 0.  1.
          1    1    3    3  501    0 -0.15161043478E+03  0.16806820384E+03  0.31643269603E+02  0.22854746025E+03  0.00000000000E+00 0.  1.
         21    1    1    2  502  501  0.30074631090E+02  0.12356842716E+02  0.25660334008E+02  0.41420136872E+02  0.00000000000E+00 0.  1.
<scales pt_clust_4="550.00000" pt_clust_5="550.00000" pt_clust_6="32.51423"></scales>
<mgrwt>
<rscale>  0 0.30000000E+03</rscale>
<asrwt>  1 0.32514228E+02</asrwt>
<pdfrwt beam="1">  1        1 0.85010740E+00 0.30000000E+03</pdfrwt>
<pdfrwt beam="2">0</pdfrwt>
<totfact> 0.41171496E-04</totfact>
</mgrwt>
<clustering>
<clus scale="   32.514">  1  6  2 -1</clus>
<clus scale="  461.405">  4  5 -1 -1</clus>
<clus scale="  300.000">  1  4  2 -1</clus>
</clustering>
</event>
<event>
 6    1  0.1033679E-011  0.3000000E+03  0.7818608E-02  0.1093470E+00
          1   -1    0    0  502    0  0.00000000000E+00  0.00000000000E+00  0.24607158131E+03  0.24607158131E+03  0.00000000000E+00 0.  1.
         13   -1    0    0    0    0 -0.00000000000E+00 -0.00000000000E+00 -0.27500000000E+03  0.27500000000E+03  0.00000000000E+00 0.  1.
    9000005    2    1    2  501    0 -0.54640147249E+01 -0.35979071086E+02 -0.26070310773E+02  0.48456791308E+03  0.48249565000E+03 0.  0.
         13    1    3    3    0    0  0.10169729934E+03 -0.63443273984E+01 -0.23041178873E+03  0.25193686425E+03  0.00000000000E+00 0.  1.
          1    1    3    3  501    0 -0.10716131407E+03 -0.29634743688E+02  0.20434147796E+03  0.23263104883E+03  0.00000000000E+00 0.  1.
         21    1    1    2  502  501  0.54640147249E+01  0.35979071086E+02 -0.28581079212E+01  0.36503668227E+02  0.00000000000E+00 0. -1.
<scales pt_clust_4="550.00000" pt_clust_5="550.00000" pt_clust_6="36.39162"></scales>
<mgrwt>
<rscale>  0 0.30000000E+03</rscale>
<asrwt>  1 0.36391625E+02</asrwt>
<pdfrwt beam="1">  1        1 0.89480575E+00 0.30000000E+03</pdfrwt>
<pdfrwt beam="2">0</pdfrwt>
<totfact> 0.12580992E-04</totfact>
</mgrwt>
<clustering>
<clus scale="   36.392">  1  6  2 -1</clus>
<clus scale="  482.496">  4  5 -1 -1</clus>
<clus scale="  300.000">  1  4  2 -1</clus>
</clustering>
</event>
<event>
 6    1  0.1033679E-011  0.3000000E+03  0.7818608E-02  0.1093470E+00
          1   -1    0    0  502    0  0.00000000000E+00  0.00000000000E+00  0.24079287304E+03  0.24079287304E+03  0.00000000000E+00 0.  1.
         13   -1    0    0    0    0 -0.00000000000E+00 -0.00000000000E+00 -0.27500000000E+03  0.27500000000E+03  0.00000000000E+00 0.  1.
    9000005    2    1    2  501    0  0.37372307419E+02  0.82922298772E+01 -0.33621506365E+02  0.47750719178E+03  0.47478127814E+03 0.  0.
         13    1    3    3    0    0  0.24823484982E+02 -0.20943804390E+03 -0.12032373306E+03  0.24281330354E+03  0.00000000000E+00 0.  1.
          3    1    3    3  501    0  0.12548822437E+02  0.21773027378E+03  0.86702226692E+02  0.23469388824E+03  0.00000000000E+00 0.  1.
         21    1    1    2  502  501 -0.37372307419E+02 -0.82922298772E+01 -0.58562059176E+00  0.38285681261E+02  0.00000000000E+00 0. -1.
<scales pt_clust_4="550.00000" pt_clust_5="550.00000" pt_clust_6="38.28120"></scales>
<mgrwt>
<rscale>  0 0.30000000E+03</rscale>
<asrwt>  1 0.38281202E+02</asrwt>
<pdfrwt beam="1">  1        1 0.87561045E+00 0.30000000E+03</pdfrwt>
<pdfrwt beam="2">0</pdfrwt>
<totfact> 0.21793320E-04</totfact>
</mgrwt>
<clustering>
<clus scale="   38.281">  1  6  2 -1</clus>
<clus scale="  474.781">  4  5 -1 -1</clus>
<clus scale="  300.000">  1  4  2 -1</clus>
</clustering>
</event>
<event>
 6    1  0.1033679E-011  0.3000000E+03  0.7818608E-02  0.1093470E+00
          1   -1    0    0  502    0  0.00000000000E+00  0.00000000000E+00  0.24744536155E+03  0.24744536155E+03  0.00000000000E+00 0.  1.
         13   -1    0    0    0    0 -0.00000000000E+00 -0.00000000000E+00 -0.27500000000E+03  0.27500000000E+03  0.00000000000E+00 0.  1.
    9000005    2    1    2  501    0  0.34143447243E+02 -0.28723455182E+02 -0.53939382268E+02  0.47060940324E+03  0.46537398036E+03 0.  0.
         13    1    3    3    0    0  0.11656097911E+03  0.18447372332E+03  0.42862649882E+02  0.22238305511E+03  0.00000000000E+00 0.  1.
          3    1    3    3  501    0 -0.82417531868E+02 -0.21319717850E+03 -0.96802032150E+02  0.24822634813E+03  0.00000000000E+00 0.  1.
         21    1    1    2  502  501 -0.34143447243E+02  0.28723455182E+02  0.26384743817E+02  0.51835958306E+02  0.00000000000E+00 0.  1.
<scales pt_clust_4="550.00000" pt_clust_5="550.00000" pt_clust_6="44.61851"></scales>
<mgrwt>
<rscale>  0 0.30000000E+03</rscale>
<asrwt>  1 0.44618515E+02</asrwt>
<pdfrwt beam="1">  1        1 0.89980131E+00 0.30000000E+03</pdfrwt>
<pdfrwt beam="2">0</pdfrwt>
<totfact> 0.10624955E-04</totfact>
</mgrwt>
<clustering>
<clus scale="   44.619">  1  6  2 -1</clus>
<clus scale="  465.374">  4  5 -1 -1</clus>
<clus scale="  300.000">  1  4  2 -1</clus>
</clustering>
</event>
<event>
 6    1  0.1033679E-011  0.3000000E+03  0.7818608E-02  0.1093470E+00
          1   -1    0    0  502    0  0.00000000000E+00  0.00000000000E+00  0.24377384639E+03  0.24377384639E+03  0.00000000000E+00 0.  1.
         13   -1    0    0    0    0 -0.00000000000E+00 -0.00000000000E+00 -0.27500000000E+03  0.27500000000E+03  0.00000000000E+00 0.  1.
    9000005    2    1    2  501    0  0.40569678075E+01 -0.49555173380E+02 -0.33604860446E+02  0.46899601555E+03  0.46514062579E+03 0.  0.
         13    1    3    3    0    0  0.18919268504E+03 -0.16285833958E+03 -0.34020592673E+02  0.25194069058E+03  0.00000000000E+00 0.  1.
          3    1    3    3  501    0 -0.18513571723E+03  0.11330316620E+03  0.41573222747E+00  0.21705532497E+03  0.00000000000E+00 0.  1.
         21    1    1    2  502  501 -0.40569678075E+01  0.49555173380E+02  0.23787068310E+01  0.49777830835E+02  0.00000000000E+00 0.  1.
<scales pt_clust_4="550.00000" pt_clust_5="550.00000" pt_clust_6="49.72096"></scales>
<mgrwt>
<rscale>  0 0.30000000E+03</rscale>
<asrwt>  1 0.49720963E+02</asrwt>
<pdfrwt beam="1">  1        1 0.88645035E+00 0.30000000E+03</pdfrwt>
<pdfrwt beam="2">0</pdfrwt>
<totfact> 0.15209344E-04</totfact>
</mgrwt>
<clustering>
<clus scale="   49.721">  1  6  2 -1</clus>
<clus scale="  465.141">  4  5 -1 -1</clus>
<clus scale="  300.000">  1  4  2 -1</clus>
</clustering>
</event>
<event>
 6    1  0.1033679E-011  0.3000000E+03  0.7818608E-02  0.1093470E+00
          1   -1    0    0  502    0  0.00000000000E+00  0.00000000000E+00  0.25728098307E+03  0.25728098307E+03  0.00000000000E+00 0.  1.
         13   -1    0    0    0    0 -0.00000000000E+00 -0.00000000000E+00 -0.27500000000E+03  0.27500000000E+03  0.00000000000E+00 0.  1.
    9000005    2    1    2  501    0 -0.30305434337E+02  0.22080237267E+02 -0.36895062765E+02  0.49016593870E+03  0.48733504448E+03 0.  0.
         13    1    3    3    0    0  0.20530308627E+02  0.13336793949E+02  0.22343628746E+03  0.22477352646E+03  0.00000000000E+00 0.  1.
          1    1    3    3  501    0 -0.50835742964E+02  0.87434433183E+01 -0.26033135023E+03  0.26539241224E+03  0.00000000000E+00 0.  1.
         21    1    1    2  502  501  0.30305434337E+02 -0.22080237267E+02  0.19176045838E+02  0.42115044368E+02  0.00000000000E+00 0.  1.
<scales pt_clust_4="550.00000" pt_clust_5="550.00000" pt_clust_6="37.49608"></scales>
<mgrwt>
<rscale>  0 0.30000000E+03</rscale>
<asrwt>  1 0.37496083E+02</asrwt>
<pdfrwt beam="1">  1        1 0.93556721E+00 0.30000000E+03</pdfrwt>
<pdfrwt beam="2">0</pdfrwt>
<totfact> 0.21887315E-05</totfact>
</mgrwt>
<clustering>
<clus scale="   37.496">  1  6  2 -1</clus>
<clus scale="  487.335">  4  5 -1 -1</clus>
<clus scale="  300.000">  1  4  2 -1</clus>
</clustering>
</event>
<event>
 6    1  0.1033679E-011  0.3000000E+03  0.7818608E-02  0.1093470E+00
          1   -1    0    0  502    0  0.00000000000E+00  0.00000000000E+00  0.23803079399E+03  0.23803079399E+03  0.00000000000E+00 0.  1.
         13   -1    0    0    0    0 -0.00000000000E+00 -0.00000000000E+00 -0.27500000000E+03  0.27500000000E+03  0.00000000000E+00 0.  1.
    9000005    2    1    2  501    0  0.79085340544E+01 -0.31976698066E+02 -0.48724433674E+02  0.47805595293E+03  0.47442425060E+03 0.  0.
         13    1    3    3    0    0 -0.22648646656E+02 -0.34569121510E+02 -0.26065858405E+03  0.26391453692E+03  0.00000000000E+00 0.  1.
          1    1    3    3  501    0  0.30557180711E+02  0.25924234442E+01  0.21193415038E+03  0.21414141601E+03  0.00000000000E+00 0.  1.
         21    1    1    2  502  501 -0.79085340544E+01  0.31976698066E+02  0.11755227666E+02  0.34974841066E+02  0.00000000000E+00 0.  1.
<scales pt_clust_4="550.00000" pt_clust_5="550.00000" pt_clust_6="32.94016"></scales>
<mgrwt>
<rscale>  0 0.30000000E+03</rscale>
<asrwt>  1 0.32940160E+02</asrwt>
<pdfrwt beam="1">  1        1 0.86556652E+00 0.30000000E+03</pdfrwt>
<pdfrwt beam="2">0</pdfrwt>
<totfact> 0.28495971E-04</totfact>
</mgrwt>
<clustering>
<clus scale="   32.940">  1  6  2 -1</clus>
<clus scale="  474.424">  4  5 -1 -1</clus>
<clus scale="  300.000">  1  4  2 -1</clus>
</clustering>
</event>
<event>
 6    1  0.1033679E-011  0.3000000E+03  0.7818608E-02  0.1093470E+00
          1   -1    0    0  502    0  0.00000000000E+00  0.00000000000E+00  0.24290706846E+03  0.24290706846E+03  0.00000000000E+00 0.  1.
         13   -1    0    0    0    0 -0.00000000000E+00 -0.00000000000E+00 -0.27500000000E+03  0.27500000000E+03  0.00000000000E+00 0.  1.
    9000005    2    1    2  501    0 -0.39718184208E+02  0.31157469716E+02 -0.40020503107E+02  0.46680747485E+03  0.46234106008E+03 0.  0.
         13    1    3    3    0    0 -0.81148252371E+02  0.26288410591E+02 -0.24406536368E+03  0.25854210709E+03  0.00000000000E+00 0.  1.
          1    1    3    3  501    0  0.41430068163E+02  0.48690591248E+01  0.20404486057E+03  0.20826536776E+03  0.00000000000E+00 0.  1.
         21    1    1    2  502  501  0.39718184208E+02 -0.31157469716E+02  0.79275715695E+01  0.51099593607E+02  0.00000000000E+00 0. -1.
<scales pt_clust_4="550.00000" pt_clust_5="550.00000" pt_clust_6="50.48091"></scales>
<mgrwt>
<rscale>  0 0.30000000E+03</rscale>
<asrwt>  1 0.50480908E+02</asrwt>
<pdfrwt beam="1">  1        1 0.88329843E+00 0.30000000E+03</pdfrwt>
<pdfrwt beam="2">0</pdfrwt>
<totfact> 0.16749098E-04</totfact>
</mgrwt>
<clustering>
<clus scale="   50.481">  1  6  2 -1</clus>
<clus scale="  462.341">  4  5 -1 -1</clus>
<clus scale="  300.000">  1  4  2 -1</clus>
</clustering>
</event>
<event>
 6    1  0.1033679E-011  0.3000000E+03  0.7818608E-02  0.1093470E+00
          1   -1    0    0  502    0  0.00000000000E+00  0.00000000000E+00  0.26245029796E+03  0.26245029796E+03  0.00000000000E+00 0.  1.
         13   -1    0    0    0    0 -0.00000000000E+00 -0.00000000000E+00 -0.27500000000E+03  0.27500000000E+03  0.00000000000E+00 0.  1.
    9000005    2    1    2  501    0 -0.47626693148E+02  0.25029007302E+02 -0.11354944830E+02  0.48363412426E+03  0.48049794825E+03 0.  0.
         13    1    3    3    0    0 -0.25799416519E+02  0.85484719096E+01 -0.24595150417E+03  0.24744863845E+03  0.00000000000E+00 0.  1.
          1    1    3    3  501    0 -0.21827276629E+02  0.16480535393E+02  0.23459655934E+03  0.23618548581E+03  0.00000000000E+00 0.  1.
         21    1    1    2  502  501  0.47626693148E+02 -0.25029007302E+02 -0.11947572137E+01  0.53816173698E+02  0.00000000000E+00 0. -1.
<scales pt_clust_4="550.00000" pt_clust_5="550.00000" pt_clust_6="53.80291"></scales>
<mgrwt>
<rscale>  0 0.30000000E+03</rscale>
<asrwt>  1 0.53802910E+02</asrwt>
<pdfrwt beam="1">  1        1 0.95436472E+00 0.30000000E+03</pdfrwt>
<pdfrwt beam="2">0</pdfrwt>
<totfact> 0.92670779E-06</totfact>
</mgrwt>
<clustering>
<clus scale="   53.803">  1  6  2 -1</clus>
<clus scale="  480.498">  4  5 -1 -1</clus>
<clus scale="  300.000">  1  4  2 -1</clus>
</clustering>
</event>
<event>
 6    1  0.1033679E-011  0.3000000E+03  0.7818608E-02  0.1093470E+00
          1   -1    0    0  502    0  0.00000000000E+00  0.00000000000E+00  0.22929007314E+03  0.22929007314E+03  0.00000000000E+00 0.  1.
         13   -1    0    0    0    0 -0.00000000000E+00 -0.00000000000E+00 -0.27500000000E+03  0.27500000000E+03  0.00000000000E+00 0.  1.
    9000005    2    1    2  501    0 -0.24937975562E+02 -0.18482526838E+02 -0.49545408746E+02  0.47301360683E+03  0.46938642747E+03 0.  0.
         13    1    3    3    0    0 -0.15640801170E+03 -0.10372569768E+03  0.13480387177E+03  0.23107265162E+03  0.00000000000E+00 0.  1.
          1    1    3    3  501    0  0.13147003613E+03  0.85243170844E+02 -0.18434928052E+03  0.24194095520E+03  0.00000000000E+00 0.  1.
         21    1    1    2  502  501  0.24937975562E+02  0.18482526838E+02  0.38354818812E+01  0.31276466308E+02  0.00000000000E+00 0.  1.
<scales pt_clust_4="550.00000" pt_clust_5="550.00000" pt_clust_6="31.04040"></scales>
<mgrwt>
<rscale>  0 0.30000000E+03</rscale>
<asrwt>  1 0.31040400E+02</asrwt>
<pdfrwt beam="1">  1        1 0.83378208E+00 0.30000000E+03</pdfrwt>
<pdfrwt beam="2">0</pdfrwt>
<totfact> 0.56494994E-04</totfact>
</mgrwt>
<clustering>
<clus scale="   31.040">  1  6  2 -1</clus>
<clus scale="  469.386">  4  5 -1 -1</clus>
<clus scale="  300.000">  1  4  2 -1</clus>
</clustering>
</event>
<event>
 6    1  0.1033679E-011  0.3000000E+03  0.7818608E-02  0.1093470E+00
          1   -1    0    0  502    0  0.00000000000E+00  0.00000000000E+00  0.23815287293E+03  0.23815287293E+03  0.00000000000E+00 0.  1.
         13   -1    0    0    0    0 -0.00000000000E+00 -0.00000000000E+00 -0.27500000000E+03  0.27500000000E+03  0.00000000000E+00 0.  1.
    9000005    2    1    2  501    0 -0.32062131743E+02 -0.14376200226E+02 -0.27598357636E+02  0.47681838297E+03  0.47472038672E+03 0.  0.
         13    1    3    3    0    0 -0.99966004315E+02 -0.22086860845E+03 -0.76102348997E+02  0.25410177438E+03  0.00000000000E+00 0.  1.
          1    1    3    3  501    0  0.67903872572E+02  0.20649240823E+03  0.48503991361E+02  0.22271660859E+03  0.00000000000E+00 0.  1.
         21    1    1    2  502  501  0.32062131743E+02  0.14376200226E+02 -0.92487694326E+01  0.36334489963E+02  0.00000000000E+00 0.  1.
<scales pt_clust_4="550.00000" pt_clust_5="550.00000" pt_clust_6="35.13768"></scales>
<mgrwt>
<rscale>  0 0.30000000E+03</rscale>
<asrwt>  1 0.35137681E+02</asrwt>
<pdfrwt beam="1">  1        1 0.86601045E+00 0.30000000E+03</pdfrwt>
<pdfrwt beam="2">0</pdfrwt>
<totfact> 0.27846085E-04</totfact>
</mgrwt>
<clustering>
<clus scale="   35.138">  1  6  2 -1</clus>
<clus scale="  474.720">  4  5 -1 -1</clus>
<clus scale="  300.000">  1  4  2 -1</clus>
</clustering>
</event>
<event>
 6    1  0.1033679E-011  0.3000000E+03  0.7818608E-02  0.1093470E+00
          1   -1    0    0  502    0  0.00000000000E+00  0.00000000000E+00  0.24325633684E+03  0.24325633684E+03  0.00000000000E+00 0.  1.
         13   -1    0    0    0    0 -0.00000000000E+00 -0.00000000000E+00 -0.27500000000E+03  0.27500000000E+03  0.00000000000E+00 0.  1.
    9000005    2    1    2  501    0  0.87766959031E+01 -0.32879371529E+02 -0.15120280502E+02  0.48038259510E+03  0.47893708494E+03 0.  0.
         13    1    3    3    0    0  0.11720892949E+03  0.84541989100E+02 -0.19308744041E+03  0.24118051480E+03  0.00000000000E+00 0.  1.
          1    1    3    3  501    0 -0.10843223359E+03 -0.11742136063E+03  0.17796715991E+03  0.23920208030E+03  0.00000000000E+00 0.  1.
         21    1    1    2  502  501 -0.87766959031E+01  0.32879371529E+02 -0.16623382653E+02  0.37873741748E+02  0.00000000000E+00 0.  1.
<scales pt_clust_4="550.00000" pt_clust_5="550.00000" pt_clust_6="34.03064"></scales>
<mgrwt>
<rscale>  0 0.30000000E+03</rscale>
<asrwt>  1 0.34030642E+02</asrwt>
<pdfrwt beam="1">  1        1 0.88456850E+00 0.30000000E+03</pdfrwt>
<pdfrwt beam="2">0</pdfrwt>
<totfact> 0.17293692E-04</totfact>
</mgrwt>
<clustering>
<clus scale="   34.031">  1  6  2 -1</clus>
<clus scale="  478.937">  4  5 -1 -1</clus>
<clus scale="  300.000">  1  4  2 -1</clus>
</clustering>
</event>
<event>
 6    1  0.1033679E-011  0.3000000E+03  0.7818608E-02  0.1093470E+00
          1   -1    0    0  502    0  0.00000000000E+00  0.00000000000E+00  0.24692995094E+03  0.24692995094E+03  0.00000000000E+00 0.  1.
         13   -1    0    0    0    0 -0.00000000000E+00 -0.00000000000E+00 -0.27500000000E+03  0.27500000000E+03  0.00000000000E+00 0.  1.
    9000005    2    1    2  501    0 -0.39873527741E+02 -0.31973076764E+02 -0.18113039631E+02  0.46985963416E+03  0.46672027785E+03 0.  0.
         13    1    3    3    0    0  0.61042881411E+02 -0.20460717175E+03 -0.12053201559E+03  0.24519032379E+03  0.00000000000E+00 0.  1.
          3    1    3    3  501    0 -0.10091640915E+03  0.17263409498E+03  0.10241897596E+03  0.22466931037E+03  0.00000000000E+00 0.  1.
         21    1    1    2  502  501  0.39873527741E+02  0.31973076764E+02 -0.99570094292E+01  0.52070316775E+02  0.00000000000E+00 0.  1.
<scales pt_clust_4="550.00000" pt_clust_5="550.00000" pt_clust_6="51.10948"></scales>
<mgrwt>
<rscale>  0 0.30000000E+03</rscale>
<asrwt>  1 0.51109475E+02</asrwt>
<pdfrwt beam="1">  1        1 0.89792709E+00 0.30000000E+03</pdfrwt>
<pdfrwt beam="2">0</pdfrwt>
<totfact> 0.10918034E-04</totfact>
</mgrwt>
<clustering>
<clus scale="   51.109">  1  6  2 -1</clus>
<clus scale="  466.720">  4  5 -1 -1</clus>
<clus scale="  300.000">  1  4  2 -1</clus>
</clustering>
</event>
<event>
 6    1  0.1033679E-011  0.3000000E+03  0.7818608E-02  0.1093470E+00
          1   -1    0    0  502    0  0.00000000000E+00  0.00000000000E+00  0.22787001143E+03  0.22787001143E+03  0.00000000000E+00 0.  1.
         13   -1    0    0    0    0 -0.00000000000E+00 -0.00000000000E+00 -0.27500000000E+03  0.27500000000E+03  0.00000000000E+00 0.  1.
    9000005    2    1    2  501    0  0.24365051170E+02 -0.19869180520E+02 -0.50864172582E+02  0.47120956002E+03  0.46740009130E+03 0.  0.
         13    1    3    3    0    0 -0.88915210544E+01  0.17694534731E+02  0.20728582740E+03  0.20822960871E+03  0.00000000000E+00 0.  1.
          1    1    3    3  501    0  0.33256572224E+02 -0.37563715250E+02 -0.25814999998E+03  0.26297995131E+03  0.00000000000E+00 0.  1.
         21    1    1    2  502  501 -0.24365051170E+02  0.19869180520E+02  0.37341840079E+01  0.31660451406E+02  0.00000000000E+00 0.  1.
<scales pt_clust_4="550.00000" pt_clust_5="550.00000" pt_clust_6="31.43947"></scales>
<mgrwt>
<rscale>  0 0.30000000E+03</rscale>
<asrwt>  1 0.31439466E+02</asrwt>
<pdfrwt beam="1">  1        1 0.82861822E+00 0.30000000E+03</pdfrwt>
<pdfrwt beam="2">0</pdfrwt>
<totfact> 0.61948569E-04</totfact>
</mgrwt>
<clustering>
<clus scale="   31.439">  1  6  2 -1</clus>
<clus scale="  467.400">  4  5 -1 -1</clus>
<clus scale="  300.000">  1  4  2 -1</clus>
</clustering>
</event>
<event>
 6    1  0.1033679E-011  0.3000000E+03  0.7818608E-02  0.1093470E+00
          1   -1    0    0  502    0  0.00000000000E+00  0.00000000000E+00  0.23035285273E+03  0.23035285273E+03  0.00000000000E+00 0.  1.
         13   -1    0    0    0    0 -0.00000000000E+00 -0.00000000000E+00 -0.27500000000E+03  0.27500000000E+03  0.00000000000E+00 0.  1.
    9000005    2    1    2  501    0  0.29288220040E+02 -0.19890702970E+02 -0.54422751546E+02  0.46862408558E+03  0.46410479183E+03 0.  0.
         13    1    3    3    0    0 -0.63225847338E+02  0.20832775408E+03 -0.44217612276E+02  0.22215570694E+03  0.00000000000E+00 0.  1.
          1    1    3    3  501    0  0.92514067378E+02 -0.22821845705E+03 -0.10205139270E+02  0.24646837864E+03  0.00000000000E+00 0.  1.
         21    1    1    2  502  501 -0.29288220040E+02  0.19890702970E+02  0.97756042762E+01  0.36728767155E+02  0.00000000000E+00 0. -1.
<scales pt_clust_4="550.00000" pt_clust_5="550.00000" pt_clust_6="35.40395"></scales>
<mgrwt>
<rscale>  0 0.30000000E+03</rscale>
<asrwt>  1 0.35403953E+02</asrwt>
<pdfrwt beam="1">  1        1 0.83764674E+00 0.30000000E+03</pdfrwt>
<pdfrwt beam="2">0</pdfrwt>
<totfact> 0.51643628E-04</totfact>
</mgrwt>
<clustering>
<clus scale="   35.404">  1  6  2 -1</clus>
<clus scale="  464.105">  4  5 -1 -1</clus>
<clus scale="  300.000">  1  4  2 -1</clus>
</clustering>
</event>
<event>
 6    1  0.1033679E-011  0.3000000E+03  0.7818608E-02  0.1093470E+00
          1   -1    0    0  502    0  0.00000000000E+00  0.00000000000E+00  0.22821600237E+03  0.22821600237E+03  0.00000000000E+00 0.  1.
         13   -1    0    0    0    0 -0.00000000000E+00 -0.00000000000E+00 -0.27500000000E+03  0.27500000000E+03  0.00000000000E+00 0.  1.
    9000005    2    1    2  501    0  0.15396079862E+02  0.27794412145E+02 -0.62436006181E+02  0.46779631867E+03  0.46252088847E+03 0.  0.
         13    1    3    3    0    0  0.19203028132E+03 -0.54526146359E+02  0.91368601901E+02  0.21953803997E+03  0.00000000000E+00 0.  1.
          1    1    3    3  501    0 -0.17663420146E+03  0.82320558504E+02 -0.15380460808E+03  0.24825827870E+03  0.00000000000E+00 0.  1.
         21    1    1    2  502  501 -0.15396079862E+02 -0.27794412145E+02  0.15652008555E+02  0.35419683700E+02  0.00000000000E+00 0.  1.
<scales pt_clust_4="550.00000" pt_clust_5="550.00000" pt_clust_6="31.77371"></scales>
<mgrwt>
<rscale>  0 0.30000000E+03</rscale>
<asrwt>  1 0.31773710E+02</asrwt>
<pdfrwt beam="1">  1        1 0.82987637E+00 0.30000000E+03</pdfrwt>
<pdfrwt beam="2">0</pdfrwt>
<totfact> 0.60331428E-04</totfact>
</mgrwt>
<clustering>
<clus scale="   31.774">  1  6  2 -1</clus>
<clus scale="  462.521">  4  5 -1 -1</clus>
<clus scale="  300.000">  1  4  2 -1</clus>
</clustering>
</event>
<event>
 6    1  0.1033679E-011  0.3000000E+03  0.7818608E-02  0.1093470E+00
          1   -1    0    0  502    0  0.00000000000E+00  0.00000000000E+00  0.23154726007E+03  0.23154726007E+03  0.00000000000E+00 0.  1.
         13   -1    0    0    0    0 -0.00000000000E+00 -0.00000000000E+00 -0.27500000000E+03  0.27500000000E+03  0.00000000000E+00 0.  1.
    9000005    2    1    2  501    0  0.18732612181E+02  0.34193131763E+02 -0.52880133648E+02  0.46643545668E+03  0.46178528094E+03 0.  0.
         13    1    3    3    0    0 -0.11495889727E+03  0.14777400740E+03  0.11818890930E+03  0.22140759609E+03  0.00000000000E+00 0.  1.
          3    1    3    3  501    0  0.13369150945E+03 -0.11358087564E+03 -0.17106904295E+03  0.24502786059E+03  0.00000000000E+00 0.  1.
         21    1    1    2  502  501 -0.18732612181E+02 -0.34193131763E+02  0.94273937210E+01  0.40111803391E+02  0.00000000000E+00 0.  1.
<scales pt_clust_4="550.00000" pt_clust_5="550.00000" pt_clust_6="38.98822"></scales>
<mgrwt>
<rscale>  0 0.30000000E+03</rscale>
<asrwt>  1 0.38988216E+02</asrwt>
<pdfrwt beam="1">  1        1 0.84199004E+00 0.30000000E+03</pdfrwt>
<pdfrwt beam="2">0</pdfrwt>
<totfact> 0.46977317E-04</totfact>
</mgrwt>
<clustering>
<clus scale="   38.988">  1  6  2 -1</clus>
<clus scale="  461.785">  4  5 -1 -1</clus>
<clus scale="  300.000">  1  4  2 -1</clus>
</clustering>
</event>
<event>
 6    1  0.1033679E-011  0.3000000E+03  0.7818608E-02  0.1093470E+00
          1   -1    0    0  502    0  0.00000000000E+00  0.00000000000E+00  0.23425108137E+03  0.23425108137E+03  0.00000000000E+00 0.  1.
         13   -1    0    0    0    0 -0.00000000000E+00 -0.00000000000E+00 -0.27500000000E+03  0.27500000000E+03  0.00000000000E+00 0.  1.
    9000005    2    1    2  501    0  0.56667966669E+00 -0.30500205036E+02 -0.38317418623E+02  0.47864886208E+03  0.47613645624E+03 0.  0.
         13    1    3    3    0    0 -0.14331475958E+03  0.38596012267E+02  0.16384338079E+03  0.22107334960E+03  0.00000000000E+00 0.  1.
          1    1    3    3  501    0  0.14388143924E+03 -0.69096217303E+02 -0.20216079942E+03  0.25757551247E+03  0.00000000000E+00 0.  1.
         21    1    1    2  502  501 -0.56667966669E+00  0.30500205036E+02 -0.24315000111E+01  0.30602219288E+02  0.00000000000E+00 0. -1.
<scales pt_clust_4="550.00000" pt_clust_5="550.00000" pt_clust_6="30.50547"></scales>
<mgrwt>
<rscale>  0 0.30000000E+03</rscale>
<asrwt>  1 0.30505469E+02</asrwt>
<pdfrwt beam="1">  1        1 0.85182211E+00 0.30000000E+03</pdfrwt>
<pdfrwt beam="2">0</pdfrwt>
<totfact> 0.40144580E-04</totfact>
</mgrwt>
<clustering>
<clus scale="   30.505">  1  6  2 -1</clus>
<clus scale="  476.136">  4  5 -1 -1</clus>
<clus scale="  300.000">  1  4  2 -1</clus>
</clustering>
</event>
<event>
 6    1  0.1033679E-011  0.3000000E+03  0.7818608E-02  0.1093470E+00
          1   -1    0    0  502    0  0.00000000000E+00  0.00000000000E+00  0.23798782213E+03  0.23798782213E+03  0.00000000000E+00 0.  1.
         13   -1    0    0    0    0 -0.00000000000E+00 -0.00000000000E+00 -0.27500000000E+03  0.27500000000E+03  0.00000000000E+00 0.  1.
    9000005    2    1    2  501    0 -0.28286475575E+02 -0.10353200209E+02 -0.65979288246E+02  0.47119778817E+03  0.46558219000E+03 0.  0.
         13    1    3    3    0    0 -0.70125108971E+02 -0.19352438920E+03  0.92244424330E+02  0.22556208445E+03  0.00000000000E+00 0.  1.
          3    1    3    3  501    0  0.41838633396E+02  0.18317118899E+03 -0.15822371258E+03  0.24563570372E+03  0.00000000000E+00 0.  1.
         21    1    1    2  502  501  0.28286475575E+02  0.10353200209E+02  0.28967110379E+02  0.41790033964E+02  0.00000000000E+00 0. -1.
<scales pt_clust_4="550.00000" pt_clust_5="550.00000" pt_clust_6="30.12164"></scales>
<mgrwt>
<rscale>  0 0.30000000E+03</rscale>
<asrwt>  1 0.30121644E+02</asrwt>
<pdfrwt beam="1">  1        1 0.86541026E+00 0.30000000E+03</pdfrwt>
<pdfrwt beam="2">0</pdfrwt>
<totfact> 0.29098549E-04</totfact>
</mgrwt>
<clustering>
<clus scale="   30.122">  1  6  2 -1</clus>
<clus scale="  465.582">  4  5 -1 -1</clus>
<clus scale="  300.000">  1  4  2 -1</clus>
</clustering>
</event>
<event>
 6    1  0.1033679E-011  0.3000000E+03  0.7818608E-02  0.1093470E+00
          1   -1    0    0  502    0  0.00000000000E+00  0.00000000000E+00  0.25013250813E+03  0.25013250813E+03  0.00000000000E+00 0.  1.
         13   -1    0    0    0    0 -0.00000000000E+00 -0.00000000000E+00 -0.27500000000E+03  0.27500000000E+03  0.00000000000E+00 0.  1.
    9000005    2    1    2  501    0 -0.21923883547E+02  0.21046695919E+02 -0.30778494427E+02  0.49417188749E+03  0.49227524678E+03 0.  0.
         13    1    3    3    0    0 -0.20025118700E+03 -0.23278036137E+01  0.14142858530E+03  0.24516933190E+03  0.00000000000E+00 0.  1.
          3    1    3    3  501    0  0.17832730345E+03  0.23374499532E+02 -0.17220707972E+03  0.24900255559E+03  0.00000000000E+00 0.  1.
         21    1    1    2  502  501  0.21923883547E+02 -0.21046695919E+02  0.59110025550E+01  0.30960620635E+02  0.00000000000E+00 0.  1.
<scales pt_clust_4="550.00000" pt_clust_5="550.00000" pt_clust_6="30.39112"></scales>
<mgrwt>
<rscale>  0 0.30000000E+03</rscale>
<asrwt>  1 0.30391118E+02</asrwt>
<pdfrwt beam="1">  1        1 0.90957276E+00 0.30000000E+03</pdfrwt>
<pdfrwt beam="2">0</pdfrwt>
<totfact> 0.75582851E-05</totfact>
</mgrwt>
<clustering>
<clus scale="   30.391">  1  6  2 -1</clus>
<clus scale="  492.275">  4  5 -1 -1</clus>
<clus scale="  300.000">  1  4  2 -1</clus>
</clustering>
</event>
<event>
 6    1  0.1033679E-011  0.3000000E+03  0.7818608E-02  0.1093470E+00
          1   -1    0    0  502    0  0.00000000000E+00  0.00000000000E+00  0.21954833470E+03  0.21954833470E+03  0.00000000000E+00 0.  1.
         13   -1    0    0    0    0 -0.00000000000E+00 -0.00000000000E+00 -0.27500000000E+03  0.27500000000E+03  0.00000000000E+00 0.  1.
    9000005    2    1    2  501    0  0.20279546472E+02  0.24712529495E+02 -0.56705032124E+02  0.46255552226E+03  0.45795216059E+03 0.  0.
         13    1    3    3    0    0 -0.11959900311E+02  0.16665834712E+03 -0.19842150758E+03  0.25940150067E+03  0.00000000000E+00 0.  1.
          3    1    3    3  501    0  0.32239446783E+02 -0.14194581763E+03  0.14171647546E+03  0.20315402159E+03  0.00000000000E+00 0.  1.
         21    1    1    2  502  501 -0.20279546472E+02 -0.24712529495E+02  0.12533668199E+01  0.31992812435E+02  0.00000000000E+00 0.  1.
<scales pt_clust_4="550.00000" pt_clust_5="550.00000" pt_clust_6="31.96825"></scales>
<mgrwt>
<rscale>  0 0.30000000E+03</rscale>
<asrwt>  1 0.31968252E+02</asrwt>
<pdfrwt beam="1">  1        1 0.79835758E+00 0.30000000E+03</pdfrwt>
<pdfrwt beam="2">0</pdfrwt>
<totfact> 0.10841753E-03</totfact>
</mgrwt>
<clustering>
<clus scale="   31.968">  1  6  2 -1</clus>
<clus scale="  457.952">  4  5 -1 -1</clus>
<clus scale="  300.000">  1  4  2 -1</clus>
</clustering>
</event>
<event>
 6    1  0.1033679E-011  0.3000000E+03  0.7818608E-02  0.1093470E+00
          1   -1    0    0  502    0  0.00000000000E+00  0.00000000000E+00  0.22889117395E+03  0.22889117395E+03  0.00000000000E+00 0.  1.
         13   -1    0    0    0    0 -0.00000000000E+00 -0.00000000000E+00 -0.27500000000E+03  0.27500000000E+03  0.00000000000E+00 0.  1.
    9000005    2    1    2  501    0 -0.18608447672E+02 -0.26313567356E+02 -0.39439820768E+02  0.47097987219E+03  0.46821775105E+03 0.  0.
         13    1    3    3    0    0 -0.16277424957E+03 -0.92210971103E+02 -0.17963934171E+03  0.25936193361E+03  0.00000000000E+00 0.  1.
          3    1    3    3  501    0  0.14416580190E+03  0.65897403747E+02  0.14019952094E+03  0.21161793858E+03  0.00000000000E+00 0.  1.
         21    1    1    2  502  501  0.18608447672E+02  0.26313567356E+02 -0.66690052861E+01  0.32911301756E+02  0.00000000000E+00 0. -1.
<scales pt_clust_4="550.00000" pt_clust_5="550.00000" pt_clust_6="32.22855"></scales>
<mgrwt>
<rscale>  0 0.30000000E+03</rscale>
<asrwt>  1 0.32228546E+02</asrwt>
<pdfrwt beam="1">  1        1 0.83233154E+00 0.30000000E+03</pdfrwt>
<pdfrwt beam="2">0</pdfrwt>
<totfact> 0.57521941E-04</totfact>
</mgrwt>
<clustering>
<clus scale="   32.229">  1  6  2 -1</clus>
<clus scale="  468.218">  4  5 -1 -1</clus>
<clus scale="  300.000">  1  4  2 -1</clus>
</clustering>
</event>
<event>
 6    1  0.1033679E-011  0.3000000E+03  0.7818608E-02  0.1093470E+00
          1   -1    0    0  502    0  0.00000000000E+00  0.00000000000E+00  0.21900095752E+03  0.21900095752E+03  0.00000000000E+00 0.  1.
         13   -1    0    0    0    0 -0.00000000000E+00 -0.00000000000E+00 -0.27500000000E+03  0.27500000000E+03  0.00000000000E+00 0.  1.
    9000005    2    1    2  501    0  0.17381712273E+02 -0.25930067512E+02 -0.59234079817E+02  0.46261692035E+03  0.45774583172E+03 0.  0.
         13    1    3    3    0    0  0.21888814610E+03 -0.89525602833E+02 -0.81512093140E+02  0.25014211040E+03  0.00000000000E+00 0.  1.
          3    1    3    3  501    0 -0.20150643383E+03  0.63595535320E+02  0.22278013323E+02  0.21247480995E+03  0.00000000000E+00 0.  1.
         21    1    1    2  502  501 -0.17381712273E+02  0.25930067512E+02  0.32350373401E+01  0.31384037174E+02  0.00000000000E+00 0. -1.
<scales pt_clust_4="550.00000" pt_clust_5="550.00000" pt_clust_6="31.21686"></scales>
<mgrwt>
<rscale>  0 0.30000000E+03</rscale>
<asrwt>  1 0.31216860E+02</asrwt>
<pdfrwt beam="1">  1        1 0.79636712E+00 0.30000000E+03</pdfrwt>
<pdfrwt beam="2">0</pdfrwt>
<totfact> 0.11261641E-03</totfact>
</mgrwt>
<clustering>
<clus scale="   31.217">  1  6  2 -1</clus>
<clus scale="  457.746">  4  5 -1 -1</clus>
<clus scale="  300.000">  1  4  2 -1</clus>
</clustering>
</event>
<event>
 6    1  0.1033679E-011  0.3000000E+03  0.7818608E-02  0.1093470E+00
          1   -1    0    0  502    0  0.00000000000E+00  0.00000000000E+00  0.25460113485E+03  0.25460113485E+03  0.00000000000E+00 0.  1.
         13   -1    0    0    0    0 -0.00000000000E+00 -0.00000000000E+00 -0.27500000000E+03  0.27500000000E+03  0.00000000000E+00 0.  1.
    9000005    2    1    2  501    0 -0.25773020637E+02 -0.37789990549E+02 -0.30151072153E+02  0.48283108547E+03  0.47971287033E+03 0.  0.
         13    1    3    3    0    0  0.20612530007E+03  0.80806518962E+02 -0.16317654422E+02  0.22199909613E+03  0.00000000000E+00 0.  1.
          1    1    3    3  501    0 -0.23189832071E+03 -0.11859650951E+03 -0.13833417731E+02  0.26083198934E+03  0.00000000000E+00 0.  1.
         21    1    1    2  502  501  0.25773020637E+02  0.37789990549E+02  0.97522070082E+01  0.46770049390E+02  0.00000000000E+00 0.  1.
<scales pt_clust_4="550.00000" pt_clust_5="550.00000" pt_clust_6="45.74202"></scales>
<mgrwt>
<rscale>  0 0.30000000E+03</rscale>
<asrwt>  1 0.45742015E+02</asrwt>
<pdfrwt beam="1">  1        1 0.92582231E+00 0.30000000E+03</pdfrwt>
<pdfrwt beam="2">0</pdfrwt>
<totfact> 0.30035297E-05</totfact>
</mgrwt>
<clustering>
<clus scale="   45.742">  1  6  2 -1</clus>
<clus scale="  479.713">  4  5 -1 -1</clus>
<clus scale="  300.000">  1  4  2 -1</clus>
</clustering>
</event>
<event>
 6    1  0.1033679E-011  0.3000000E+03  0.7818608E-02  0.1093470E+00
          1   -1    0    0  502    0  0.00000000000E+00  0.00000000000E+00  0.21909148595E+03  0.21909148595E+03  0.00000000000E+00 0.  1.
         13   -1    0    0    0    0 -0.00000000000E+00 -0.00000000000E+00 -0.27500000000E+03  0.27500000000E+03  0.00000000000E+00 0.  1.
    9000005    2    1    2  501    0 -0.29698594851E+02 -0.60863274331E+01 -0.56478260014E+02  0.46377029653E+03  0.45931910930E+03 0.  0.
         13    1    3    3    0    0 -0.78815548408E+02  0.11384078126E+03 -0.21703257236E+03  0.25743883082E+03  0.00000000000E+00 0.  1.
          1    1    3    3  501    0  0.49116953557E+02 -0.11992710870E+03  0.16055431235E+03  0.20633146570E+03  0.00000000000E+00 0.  1.
         21    1    1    2  502  501  0.29698594851E+02  0.60863274331E+01  0.56974596525E+00  0.30321189426E+02  0.00000000000E+00 0. -1.
<scales pt_clust_4="550.00000" pt_clust_5="550.00000" pt_clust_6="30.31584"></scales>
<mgrwt>
<rscale>  0 0.30000000E+03</rscale>
<asrwt>  1 0.30315836E+02</asrwt>
<pdfrwt beam="1">  1        1 0.79669631E+00 0.30000000E+03</pdfrwt>
<pdfrwt beam="2">0</pdfrwt>
<totfact> 0.11262149E-03</totfact>
</mgrwt>
<clustering>
<clus scale="   30.316">  1  6  2 -1</clus>
<clus scale="  459.319">  4  5 -1 -1</clus>
<clus scale="  300.000">  1  4  2 -1</clus>
</clustering>
</event>
<event>
 6    1  0.1033679E-011  0.3000000E+03  0.7818608E-02  0.1093470E+00
          1   -1    0    0  502    0  0.00000000000E+00  0.00000000000E+00  0.22918506377E+03  0.22918506377E+03  0.00000000000E+00 0.  1.
         13   -1    0    0    0    0 -0.00000000000E+00 -0.00000000000E+00 -0.27500000000E+03  0.27500000000E+03  0.00000000000E+00 0.  1.
    9000005    2    1    2  501    0  0.55313534771E+01 -0.34228307480E+02 -0.25446902249E+02  0.46397275580E+03  0.46197510798E+03 0.  0.
         13    1    3    3    0    0  0.21325720844E+03 -0.10184696245E+03  0.30973388980E+02  0.23835014483E+03  0.00000000000E+00 0.  1.
          3    1    3    3  501    0 -0.20772585497E+03  0.67618654968E+02 -0.56420291230E+02  0.22562261098E+03  0.00000000000E+00 0.  1.
         21    1    1    2  502  501 -0.55313534771E+01  0.34228307480E+02 -0.20368033977E+02  0.40212307970E+02  0.00000000000E+00 0. -1.
<scales pt_clust_4="550.00000" pt_clust_5="550.00000" pt_clust_6="34.67238"></scales>
<mgrwt>
<rscale>  0 0.30000000E+03</rscale>
<asrwt>  1 0.34672382E+02</asrwt>
<pdfrwt beam="1">  1        1 0.83340023E+00 0.30000000E+03</pdfrwt>
<pdfrwt beam="2">0</pdfrwt>
<totfact> 0.55687523E-04</totfact>
</mgrwt>
<clustering>
<clus scale="   34.672">  1  6  2 -1</clus>
<clus scale="  461.975">  4  5 -1 -1</clus>
<clus scale="  300.000">  1  4  2 -1</clus>
</clustering>
</event>
<event>
 6    1  0.1033679E-011  0.3000000E+03  0.7818608E-02  0.1093470E+00
          1   -1    0    0  502    0  0.00000000000E+00  0.00000000000E+00  0.24106611490E+03  0.24106611490E+03  0.00000000000E+00 0.  1.
         13   -1    0    0    0    0 -0.00000000000E+00 -0.00000000000E+00 -0.27500000000E+03  0.27500000000E+03  0.00000000000E+00 0.  1.
    9000005    2    1    2  501    0 -0.20576279797E+02 -0.31664791356E+02 -0.26169711181E+02  0.47751323305E+03  0.47529779260E+03 0.  0.
         13    1    3    3    0    0  0.15152586721E+03  0.11359744113E+03  0.10535152660E+03  0.21671043173E+03  0.00000000000E+00 0.  1.
          3    1    3    3  501    0 -0.17210214700E+03 -0.14526223249E+03 -0.13152123778E+03  0.26080280132E+03  0.00000000000E+00 0.  1.
         21    1    1    2  502  501  0.20576279797E+02  0.31664791356E+02 -0.77641739235E+01  0.38552881846E+02  0.00000000000E+00 0. -1.
<scales pt_clust_4="550.00000" pt_clust_5="550.00000" pt_clust_6="37.76299"></scales>
<mgrwt>
<rscale>  0 0.30000000E+03</rscale>
<asrwt>  1 0.37762994E+02</asrwt>
<pdfrwt beam="1">  1        1 0.87660405E+00 0.30000000E+03</pdfrwt>
<pdfrwt beam="2">0</pdfrwt>
<totfact> 0.21312747E-04</totfact>
</mgrwt>
<clustering>
<clus scale="   37.763">  1  6  2 -1</clus>
<clus scale="  475.298">  4  5 -1 -1</clus>
<clus scale="  300.000">  1  4  2 -1</clus>
</clustering>
</event>
<event>
 6    1  0.1033679E-011  0.3000000E+03  0.7818608E-02  0.1093470E+00
          1   -1    0    0  502    0  0.00000000000E+00  0.00000000000E+00  0.23731627740E+03  0.23731627740E+03  0.00000000000E+00 0.  1.
         13   -1    0    0    0    0 -0.00000000000E+00 -0.00000000000E+00 -0.27500000000E+03  0.27500000000E+03  0.00000000000E+00 0.  1.
    9000005    2    1    2  501    0  0.28794806583E+02  0.25818930432E+02 -0.32734914118E+02  0.47332590987E+03  0.47060608187E+03 0.  0.
         13    1    3    3    0    0 -0.14830499130E+03  0.77562873817E+01 -0.18628322536E+03  0.23823511598E+03  0.00000000000E+00 0.  1.
          1    1    3    3  501    0  0.17709979788E+03  0.18062643051E+02  0.15354831124E+03  0.23509079388E+03  0.00000000000E+00 0.  1.
         21    1    1    2  502  501 -0.28794806583E+02 -0.25818930432E+02 -0.49488084845E+01  0.38990367531E+02  0.00000000000E+00 0.  1.
<scales pt_clust_4="550.00000" pt_clust_5="550.00000" pt_clust_6="38.67505"></scales>
<mgrwt>
<rscale>  0 0.30000000E+03</rscale>
<asrwt>  1 0.38675051E+02</asrwt>
<pdfrwt beam="1">  1        1 0.86296828E+00 0.30000000E+03</pdfrwt>
<pdfrwt beam="2">0</pdfrwt>
<totfact> 0.29500310E-04</totfact>
</mgrwt>
<clustering>
<clus scale="   38.675">  1  6  2 -1</clus>
<clus scale="  470.606">  4  5 -1 -1</clus>
<clus scale="  300.000">  1  4  2 -1</clus>
</clustering>
</event>
<event>
 6    1  0.1033679E-011  0.3000000E+03  0.7818608E-02  0.1093470E+00
          1   -1    0    0  502    0  0.00000000000E+00  0.00000000000E+00  0.23268105416E+03  0.23268105416E+03  0.00000000000E+00 0.  1.
         13   -1    0    0    0    0 -0.00000000000E+00 -0.00000000000E+00 -0.27500000000E+03  0.27500000000E+03  0.00000000000E+00 0.  1.
    9000005    2    1    2  501    0  0.37311960448E+02 -0.56472488011E+01 -0.34284933763E+02  0.46909842644E+03  0.46631942185E+03 0.  0.
         13    1    3    3    0    0  0.51258326065E+02 -0.52556405669E+02  0.20869919313E+03  0.22123504465E+03  0.00000000000E+00 0.  1.
          1    1    3    3  501    0 -0.13946365616E+02  0.46909156868E+02 -0.24298412689E+03  0.24786338179E+03  0.00000000000E+00 0.  1.
         21    1    1    2  502  501 -0.37311960448E+02  0.56472488011E+01 -0.80340120814E+01  0.38582627718E+02  0.00000000000E+00 0. -1.
<scales pt_clust_4="550.00000" pt_clust_5="550.00000" pt_clust_6="37.73692"></scales>
<mgrwt>
<rscale>  0 0.30000000E+03</rscale>
<asrwt>  1 0.37736921E+02</asrwt>
<pdfrwt beam="1">  1        1 0.84611292E+00 0.30000000E+03</pdfrwt>
<pdfrwt beam="2">0</pdfrwt>
<totfact> 0.43559206E-04</totfact>
</mgrwt>
<clustering>
<clus scale="   37.737">  1  6  2 -1</clus>
<clus scale="  466.319">  4  5 -1 -1</clus>
<clus scale="  300.000">  1  4  2 -1</clus>
</clustering>
</event>
<event>
 6    1  0.1033679E-011  0.3000000E+03  0.7818608E-02  0.1093470E+00
          1   -1    0    0  502    0  0.00000000000E+00  0.00000000000E+00  0.23493763968E+03  0.23493763968E+03  0.00000000000E+00 0.  1.
         13   -1    0    0    0    0 -0.00000000000E+00 -0.00000000000E+00 -0.27500000000E+03  0.27500000000E+03  0.00000000000E+00 0.  1.
    9000005    2    1    2  501    0 -0.27022605844E+02  0.22120822280E+02 -0.31485672329E+02  0.47397777898E+03  0.47163973052E+03 0.  0.
         13    1    3    3    0    0  0.19243758601E+03  0.11950066063E+03 -0.53873919142E+02  0.23284121535E+03  0.00000000000E+00 0.  1.
          3    1    3    3  501    0 -0.21946019186E+03 -0.97379838346E+02  0.22388246813E+02  0.24113656363E+03  0.00000000000E+00 0.  1.
         21    1    1    2  502  501  0.27022605844E+02 -0.22120822280E+02 -0.85766879880E+01  0.35959860703E+02  0.00000000000E+00 0.  1.
<scales pt_clust_4="550.00000" pt_clust_5="550.00000" pt_clust_6="34.92210"></scales>
<mgrwt>
<rscale>  0 0.30000000E+03</rscale>
<asrwt>  1 0.34922102E+02</asrwt>
<pdfrwt beam="1">  1        1 0.85431869E+00 0.30000000E+03</pdfrwt>
<pdfrwt beam="2">0</pdfrwt>
<totfact> 0.37016263E-04</totfact>
</mgrwt>
<clustering>
<clus scale="   34.922">  1  6  2 -1</clus>
<clus scale="  471.640">  4  5 -1 -1</clus>
<clus scale="  300.000">  1  4  2 -1</clus>
</clustering>
</event>
<event>
 6    1  0.1033679E-011  0.3000000E+03  0.7818608E-02  0.1093470E+00
          1   -1    0    0  502    0  0.00000000000E+00  0.00000000000E+00  0.23021305952E+03  0.23021305952E+03  0.00000000000E+00 0.  1.
         13   -1    0    0    0    0 -0.00000000000E+00 -0.00000000000E+00 -0.27500000000E+03  0.27500000000E+03  0.00000000000E+00 0.  1.
    9000005    2    1    2  501    0  0.19891606695E+02  0.22535710395E+02 -0.52144411006E+02  0.47426687022E+03  0.47043223776E+03 0.  0.
         13    1    3    3    0    0  0.33181382398E+01 -0.17584949622E+03  0.11848908032E+03  0.21207007690E+03  0.00000000000E+00 0.  1.
          3    1    3    3  501    0  0.16573468455E+02  0.19838520662E+03 -0.17063349133E+03  0.26219679331E+03  0.00000000000E+00 0.  1.
         21    1    1    2  502  501 -0.19891606695E+02 -0.22535710395E+02  0.73574705288E+01  0.30946189305E+02  0.00000000000E+00 0.  1.
<scales pt_clust_4="550.00000" pt_clust_5="550.00000" pt_clust_6="30.05885"></scales>
<mgrwt>
<rscale>  0 0.30000000E+03</rscale>
<asrwt>  1 0.30058847E+02</asrwt>
<pdfrwt beam="1">  1        1 0.83713840E+00 0.30000000E+03</pdfrwt>
<pdfrwt beam="2">0</pdfrwt>
<totfact> 0.53727219E-04</totfact>
</mgrwt>
<clustering>
<clus scale="   30.059">  1  6  2 -1</clus>
<clus scale="  470.432">  4  5 -1 -1</clus>
<clus scale="  300.000">  1  4  2 -1</clus>
</clustering>
</event>
<event>
 6    1  0.1033679E-011  0.3000000E+03  0.7818608E-02  0.1093470E+00
          1   -1    0    0  502    0  0.00000000000E+00  0.00000000000E+00  0.22368479714E+03  0.22368479714E+03  0.00000000000E+00 0.  1.
         13   -1    0    0    0    0 -0.00000000000E+00 -0.00000000000E+00 -0.27500000000E+03  0.27500000000E+03  0.00000000000E+00 0.  1.
    9000005    2    1    2  501    0 -0.29810463913E+02  0.69502072072E+01 -0.63625962672E+02  0.46569201087E+03  0.46030839306E+03 0.  0.
         13    1    3    3    0    0  0.41018915551E+02  0.16666932166E+03  0.12214480868E+03  0.21066696111E+03  0.00000000000E+00 0.  1.
          3    1    3    3  501    0 -0.70829379464E+02 -0.15971911445E+03 -0.18577077135E+03  0.25502504976E+03  0.00000000000E+00 0.  1.
         21    1    1    2  502  501  0.29810463913E+02 -0.69502072072E+01  0.12310759810E+02  0.32992786273E+02  0.00000000000E+00 0.  1.
<scales pt_clust_4="550.00000" pt_clust_5="550.00000" pt_clust_6="30.60995"></scales>
<mgrwt>
<rscale>  0 0.30000000E+03</rscale>
<asrwt>  1 0.30609952E+02</asrwt>
<pdfrwt beam="1">  1        1 0.81339926E+00 0.30000000E+03</pdfrwt>
<pdfrwt beam="2">0</pdfrwt>
<totfact> 0.84103476E-04</totfact>
</mgrwt>
<clustering>
<clus scale="   30.610">  1  6  2 -1</clus>
<clus scale="  460.308">  4  5 -1 -1</clus>
<clus scale="  300.000">  1  4  2 -1</clus>
</clustering>
</event>
<event>
 6    1  0.1033679E-011  0.3000000E+03  0.7818608E-02  0.1093470E+00
          1   -1    0    0  502    0  0.00000000000E+00  0.00000000000E+00  0.25279133336E+03  0.25279133336E+03  0.00000000000E+00 0.  1.
         13   -1    0    0    0    0 -0.00000000000E+00 -0.00000000000E+00 -0.27500000000E+03  0.27500000000E+03  0.00000000000E+00 0.  1.
    9000005    2    1    2  501    0  0.50171012024E+02 -0.24716844656E+02 -0.40136255466E+02  0.46905930378E+03  0.46398023514E+03 0.  0.
         13    1    3    3    0    0  0.92198891161E+01 -0.14937917540E+03 -0.20784236712E+03  0.25612027246E+03  0.00000000000E+00 0.  1.
          3    1    3    3  501    0  0.40951122908E+02  0.12466233074E+03  0.16770611165E+03  0.21293903132E+03  0.00000000000E+00 0.  1.
         21    1    1    2  502  501 -0.50171012024E+02  0.24716844656E+02  0.17927588826E+02  0.58732029579E+02  0.00000000000E+00 0.  1.
<scales pt_clust_4="550.00000" pt_clust_5="550.00000" pt_clust_6="55.92900"></scales>
<mgrwt>
<rscale>  0 0.30000000E+03</rscale>
<asrwt>  1 0.55928998E+02</asrwt>
<pdfrwt beam="1">  1        1 0.91924121E+00 0.30000000E+03</pdfrwt>
<pdfrwt beam="2">0</pdfrwt>
<totfact> 0.39924317E-05</totfact>
</mgrwt>
<clustering>
<clus scale="   55.929">  1  6  2 -1</clus>
<clus scale="  463.980">  4  5 -1 -1</clus>
<clus scale="  300.000">  1  4  2 -1</clus>
</clustering>
</event>
<event>
 6    1  0.1033679E-011  0.3000000E+03  0.7818608E-02  0.1093470E+00
          1   -1    0    0  502    0  0.00000000000E+00  0.00000000000E+00  0.25620462691E+03  0.25620462691E+03  0.00000000000E+00 0.  1.
         13   -1    0    0    0    0 -0.00000000000E+00 -0.00000000000E+00 -0.27500000000E+03  0.27500000000E+03  0.00000000000E+00 0.  1.
    9000005    2    1    2  501    0  0.24835142007E+02 -0.41609540747E+02 -0.38343213439E+02  0.47895277315E+03  0.47494991181E+03 0.  0.
         13    1    3    3    0    0  0.24938650792E+03 -0.79351474665E+01 -0.58834410818E+01  0.24958207423E+03  0.00000000000E+00 0.  1.
          1    1    3    3  501    0 -0.22455136592E+03 -0.33674393280E+02 -0.32459772358E+02  0.22937069891E+03  0.00000000000E+00 0.  1.
         21    1    1    2  502  501 -0.24835142007E+02  0.41609540747E+02  0.19547840353E+02  0.52251853767E+02  0.00000000000E+00 0. -1.
<scales pt_clust_4="550.00000" pt_clust_5="550.00000" pt_clust_6="48.45759"></scales>
<mgrwt>
<rscale>  0 0.30000000E+03</rscale>
<asrwt>  1 0.48457591E+02</asrwt>
<pdfrwt beam="1">  1        1 0.93165319E+00 0.30000000E+03</pdfrwt>
<pdfrwt beam="2">0</pdfrwt>
<totfact> 0.23420664E-05</totfact>
</mgrwt>
<clustering>
<clus scale="   48.458">  1  6  2 -1</clus>
<clus scale="  474.950">  4  5 -1 -1</clus>
<clus scale="  300.000">  1  4  2 -1</clus>
</clustering>
</event>
<event>
 6    1  0.1033679E-011  0.3000000E+03  0.7818608E-02  0.1093470E+00
          1   -1    0    0  502    0  0.00000000000E+00  0.00000000000E+00  0.22256507985E+03  0.22256507985E+03  0.00000000000E+00 0.  1.
         13   -1    0    0    0    0 -0.00000000000E+00 -0.00000000000E+00 -0.27500000000E+03  0.27500000000E+03  0.00000000000E+00 0.  1.
    9000005    2    1    2  501    0 -0.32063202421E+02 -0.39931377364E+01 -0.54653933638E+02  0.46517807444E+03  0.46082490642E+03 0.  0.
         13    1    3    3    0    0 -0.41591186720E+02 -0.21635015637E+03 -0.10895528796E+03  0.24578134947E+03  0.00000000000E+00 0.  1.
          1    1    3    3  501    0  0.95279842991E+01  0.21235701863E+03  0.54301354323E+02  0.21939672497E+03  0.00000000000E+00 0.  1.
         21    1    1    2  502  501  0.32063202421E+02  0.39931377364E+01  0.22190134884E+01  0.32387005409E+02  0.00000000000E+00 0.  1.
<scales pt_clust_4="550.00000" pt_clust_5="550.00000" pt_clust_6="32.31090"></scales>
<mgrwt>
<rscale>  0 0.30000000E+03</rscale>
<asrwt>  1 0.32310898E+02</asrwt>
<pdfrwt beam="1">  1        1 0.80932756E+00 0.30000000E+03</pdfrwt>
<pdfrwt beam="2">0</pdfrwt>
<totfact> 0.89611550E-04</totfact>
</mgrwt>
<clustering>
<clus scale="   32.311">  1  6  2 -1</clus>
<clus scale="  460.825">  4  5 -1 -1</clus>
<clus scale="  300.000">  1  4  2 -1</clus>
</clustering>
</event>
<event>
 6    1  0.1033679E-011  0.3000000E+03  0.7818608E-02  0.1093470E+00
          1   -1    0    0  502    0  0.00000000000E+00  0.00000000000E+00  0.23889385940E+03  0.23889385940E+03  0.00000000000E+00 0.  1.
         13   -1    0    0    0    0 -0.00000000000E+00 -0.00000000000E+00 -0.27500000000E+03  0.27500000000E+03  0.00000000000E+00 0.  1.
    9000005    2    1    2  501    0  0.26223766689E+02  0.28805312463E+02 -0.48959482382E+02  0.47287385988E+03  0.46871657158E+03 0.  0.
         13    1    3    3    0    0  0.15304209889E+03 -0.91156670689E+02  0.13179275442E+03  0.22158689664E+03  0.00000000000E+00 0.  1.
          3    1    3    3  501    0 -0.12681833220E+03  0.11996198315E+03 -0.18075223680E+03  0.25128696324E+03  0.00000000000E+00 0.  1.
         21    1    1    2  502  501 -0.26223766689E+02 -0.28805312463E+02  0.12853341779E+02  0.41019999517E+02  0.00000000000E+00 0.  1.
<scales pt_clust_4="550.00000" pt_clust_5="550.00000" pt_clust_6="38.95423"></scales>
<mgrwt>
<rscale>  0 0.30000000E+03</rscale>
<asrwt>  1 0.38954229E+02</asrwt>
<pdfrwt beam="1">  1        1 0.86870494E+00 0.30000000E+03</pdfrwt>
<pdfrwt beam="2">0</pdfrwt>
<totfact> 0.25599798E-04</totfact>
</mgrwt>
<clustering>
<clus scale="   38.954">  1  6  2 -1</clus>
<clus scale="  468.717">  4  5 -1 -1</clus>
<clus scale="  300.000">  1  4  2 -1</clus>
</clustering>
</event>
<event>
 6    1  0.1033679E-011  0.3000000E+03  0.7818608E-02  0.1093470E+00
          1   -1    0    0  502    0  0.00000000000E+00  0.00000000000E+00  0.23506287544E+03  0.23506287544E+03  0.00000000000E+00 0.  1.
         13   -1    0    0    0    0 -0.00000000000E+00 -0.00000000000E+00 -0.27500000000E+03  0.27500000000E+03  0.00000000000E+00 0.  1.
    9000005    2    1    2  501    0 -0.84094719711E+01 -0.35579075646E+02 -0.61395122916E+02  0.46767141951E+03  0.46218027399E+03 0.  0.
         13    1    3    3    0    0  0.95613938581E+02  0.19084938568E+03 -0.13162961977E+02  0.21386625922E+03  0.00000000000E+00 0.  1.
          1    1    3    3  501    0 -0.10402341055E+03 -0.22642846132E+03 -0.48232160939E+02  0.25380516029E+03  0.00000000000E+00 0.  1.
         21    1    1    2  502  501  0.84094719711E+01  0.35579075646E+02  0.21457998356E+02  0.42391455933E+02  0.00000000000E+00 0. -1.
<scales pt_clust_4="550.00000" pt_clust_5="550.00000" pt_clust_6="36.55940"></scales>
<mgrwt>
<rscale>  0 0.30000000E+03</rscale>
<asrwt>  1 0.36559402E+02</asrwt>
<pdfrwt beam="1">  1        1 0.85477409E+00 0.30000000E+03</pdfrwt>
<pdfrwt beam="2">0</pdfrwt>
<totfact> 0.36325429E-04</totfact>
</mgrwt>
<clustering>
<clus scale="   36.559">  1  6  2 -1</clus>
<clus scale="  462.180">  4  5 -1 -1</clus>
<clus scale="  300.000">  1  4  2 -1</clus>
</clustering>
</event>
<event>
 6    1  0.1033679E-011  0.3000000E+03  0.7818608E-02  0.1093470E+00
          1   -1    0    0  502    0  0.00000000000E+00  0.00000000000E+00  0.22126394866E+03  0.22126394866E+03  0.00000000000E+00 0.  1.
         13   -1    0    0    0    0 -0.00000000000E+00 -0.00000000000E+00 -0.27500000000E+03  0.27500000000E+03  0.00000000000E+00 0.  1.
    9000005    2    1    2  501    0 -0.32465524599E+02 -0.12364544186E+02 -0.47039576192E+02  0.46088408123E+03  0.45715918711E+03 0.  0.
         13    1    3    3    0    0  0.11861884718E+03 -0.11792419655E+03  0.12496048821E+03  0.20878618406E+03  0.00000000000E+00 0.  1.
          3    1    3    3  501    0 -0.15108437178E+03  0.10555965237E+03 -0.17200006440E+03  0.25209789717E+03  0.00000000000E+00 0.  1.
         21    1    1    2  502  501  0.32465524599E+02  0.12364544186E+02 -0.66964751451E+01  0.35379867436E+02  0.00000000000E+00 0.  1.
<scales pt_clust_4="550.00000" pt_clust_5="550.00000" pt_clust_6="34.74037"></scales>
<mgrwt>
<rscale>  0 0.30000000E+03</rscale>
<asrwt>  1 0.34740372E+02</asrwt>
<pdfrwt beam="1">  1        1 0.80459618E+00 0.30000000E+03</pdfrwt>
<pdfrwt beam="2">0</pdfrwt>
<totfact> 0.96099077E-04</totfact>
</mgrwt>
<clustering>
<clus scale="   34.740">  1  6  2 -1</clus>
<clus scale="  457.159">  4  5 -1 -1</clus>
<clus scale="  300.000">  1  4  2 -1</clus>
</clustering>
</event>
<event>
 6    1  0.1033679E-011  0.3000000E+03  0.7818608E-02  0.1093470E+00
          1   -1    0    0  502    0  0.00000000000E+00  0.00000000000E+00  0.23183199198E+03  0.23183199198E+03  0.00000000000E+00 0.  1.
         13   -1    0    0    0    0 -0.00000000000E+00 -0.00000000000E+00 -0.27500000000E+03  0.27500000000E+03  0.00000000000E+00 0.  1.
    9000005    2    1    2  501    0  0.22569083102E+02 -0.40472762625E+02 -0.42414607730E+02  0.46048573389E+03  0.45618056090E+03 0.  0.
         13    1    3    3    0    0 -0.46738481002E+02  0.19445995390E+03 -0.74557292752E+02  0.21344308183E+03  0.00000000000E+00 0.  1.
          3    1    3    3  501    0  0.69307564104E+02 -0.23493271653E+03  0.32142685022E+02  0.24704265206E+03  0.00000000000E+00 0.  1.
         21    1    1    2  502  501 -0.22569083102E+02  0.40472762625E+02 -0.75340029067E+00  0.46346258085E+02  0.00000000000E+00 0.  1.
<scales pt_clust_4="550.00000" pt_clust_5="550.00000" pt_clust_6="46.34013"></scales>
<mgrwt>
<rscale>  0 0.30000000E+03</rscale>
<asrwt>  1 0.46340134E+02</asrwt>
<pdfrwt beam="1">  1        1 0.84302543E+00 0.30000000E+03</pdfrwt>
<pdfrwt beam="2">0</pdfrwt>
<totfact> 0.44637916E-04</totfact>
</mgrwt>
<clustering>
<clus scale="   46.340">  1  6  2 -1</clus>
<clus scale="  456.181">  4  5 -1 -1</clus>
<clus scale="  300.000">  1  4  2 -1</clus>
</clustering>
</event>
<event>
 6    1  0.1033679E-011  0.3000000E+03  0.7818608E-02  0.1093470E+00
          1   -1    0    0  502    0  0.00000000000E+00  0.00000000000E+00  0.24388279726E+03  0.24388279726E+03  0.00000000000E+00 0.  1.
         13   -1    0    0    0    0 -0.00000000000E+00 -0.00000000000E+00 -0.27500000000E+03  0.27500000000E+03  0.00000000000E+00 0.  1.
    9000005    2    1    2  501    0  0.88955558974E+01 -0.35858679869E+02 -0.42090965376E+02  0.48034191893E+03  0.47706575425E+03 0.  0.
         13    1    3    3    0    0 -0.17308744694E+02 -0.25334973465E+03  0.13618655279E+02  0.25430522696E+03  0.00000000000E+00 0.  1.
          1    1    3    3  501    0  0.26204300591E+02  0.21749105478E+03 -0.55709620656E+02  0.22603669196E+03  0.00000000000E+00 0.  1.
         21    1    1    2  502  501 -0.88955558974E+01  0.35858679869E+02  0.10973762641E+02  0.38540878339E+02  0.00000000000E+00 0.  1.
<scales pt_clust_4="550.00000" pt_clust_5="550.00000" pt_clust_6="36.94558"></scales>
<mgrwt>
<rscale>  0 0.30000000E+03</rscale>
<asrwt>  1 0.36945579E+02</asrwt>
<pdfrwt beam="1">  1        1 0.88684654E+00 0.30000000E+03</pdfrwt>
<pdfrwt beam="2">0</pdfrwt>
<totfact> 0.15844744E-04</totfact>
</mgrwt>
<clustering>
<clus scale="   36.946">  1  6  2 -1</clus>
<clus scale="  477.066">  4  5 -1 -1</clus>
<clus scale="  300.000">  1  4  2 -1</clus>
</clustering>
</event>
<event>
 6    1  0.1033679E-011  0.3000000E+03  0.7818608E-02  0.1093470E+00
          1   -1    0    0  502    0  0.00000000000E+00  0.00000000000E+00  0.24450936697E+03  0.24450936697E+03  0.00000000000E+00 0.  1.
         13   -1    0    0    0    0 -0.00000000000E+00 -0.00000000000E+00 -0.27500000000E+03  0.27500000000E+03  0.00000000000E+00 0.  1.
    9000005    2    1    2  501    0 -0.14729216256E+02  0.29021907006E+02 -0.35097374517E+02  0.48663927471E+03  0.48427960632E+03 0.  0.
         13    1    3    3    0    0 -0.24803376852E+03 -0.92756926583E+01 -0.31381326109E+02  0.25018308582E+03  0.00000000000E+00 0.  1.
          3    1    3    3  501    0  0.23330455227E+03  0.38297599664E+02 -0.37160484077E+01  0.23645618889E+03  0.00000000000E+00 0.  1.
         21    1    1    2  502  501  0.14729216256E+02 -0.29021907006E+02  0.46067414830E+01  0.32870092255E+02  0.00000000000E+00 0.  1.
<scales pt_clust_4="550.00000" pt_clust_5="550.00000" pt_clust_6="32.54567"></scales>
<mgrwt>
<rscale>  0 0.30000000E+03</rscale>
<asrwt>  1 0.32545674E+02</asrwt>
<pdfrwt beam="1">  1        1 0.88912497E+00 0.30000000E+03</pdfrwt>
<pdfrwt beam="2">0</pdfrwt>
<totfact> 0.15098537E-04</totfact>
</mgrwt>
<clustering>
<clus scale="   32.546">  1  6  2 -1</clus>
<clus scale="  484.280">  4  5 -1 -1</clus>
<clus scale="  300.000">  1  4  2 -1</clus>
</clustering>
</event>
<event>
 6    1  0.1033679E-011  0.3000000E+03  0.7818608E-02  0.1093470E+00
          1   -1    0    0  502    0  0.00000000000E+00  0.00000000000E+00  0.23132914542E+03  0.23132914542E+03  0.00000000000E+00 0.  1.
         13   -1    0    0    0    0 -0.00000000000E+00 -0.00000000000E+00 -0.27500000000E+03  0.27500000000E+03  0.00000000000E+00 0.  1.
    9000005    2    1    2  501    0  0.10531769705E+02 -0.28690535999E+02 -0.72212844748E+02  0.46451156261E+03  0.45784520509E+03 0.  0.
         13    1    3    3    0    0 -0.22048852729E+03 -0.30839455260E+02 -0.59596324663E+00  0.22263561674E+03  0.00000000000E+00 0.  1.
          3    1    3    3  501    0  0.23102029700E+03  0.21489192609E+01 -0.71616881502E+02  0.24187594588E+03  0.00000000000E+00 0.  1.
         21    1    1    2  502  501 -0.10531769705E+02  0.28690535999E+02  0.28541990172E+02  0.41817582809E+02  0.00000000000E+00 0.  1.
<scales pt_clust_4="550.00000" pt_clust_5="550.00000" pt_clust_6="30.56248"></scales>
<mgrwt>
<rscale>  0 0.30000000E+03</rscale>
<asrwt>  1 0.30562477E+02</asrwt>
<pdfrwt beam="1">  1        1 0.84119689E+00 0.30000000E+03</pdfrwt>
<pdfrwt beam="2">0</pdfrwt>
<totfact> 0.49908697E-04</totfact>
</mgrwt>
<clustering>
<clus scale="   30.562">  1  6  2 -1</clus>
<clus scale="  457.845">  4  5 -1 -1</clus>
<clus scale="  300.000">  1  4  2 -1</clus>
</clustering>
</event>
<event>
 6    1  0.1033679E-011  0.3000000E+03  0.7818608E-02  0.1093470E+00
          1   -1    0    0  502    0  0.00000000000E+00  0.00000000000E+00  0.24973666683E+03  0.24973666683E+03  0.00000000000E+00 0.  1.
         13   -1    0    0    0    0 -0.00000000000E+00 -0.00000000000E+00 -0.27500000000E+03  0.27500000000E+03  0.00000000000E+00 0.  1.
    9000005    2    1    2  501    0  0.29257238605E+02  0.88463030065E+01 -0.34887989373E+02  0.49269174376E+03  0.49050355705E+03 0.  0.
         13    1    3    3    0    0 -0.16751304460E+03 -0.74313479627E+02  0.12844070149E+03  0.22378589581E+03  0.00000000000E+00 0.  1.
          1    1    3    3  501    0  0.19677028320E+03  0.83159782633E+02 -0.16332869087E+03  0.26890584795E+03  0.00000000000E+00 0.  1.
         21    1    1    2  502  501 -0.29257238605E+02 -0.88463030065E+01  0.96246562021E+01  0.32044923072E+02  0.00000000000E+00 0.  1.
<scales pt_clust_4="550.00000" pt_clust_5="550.00000" pt_clust_6="30.56539"></scales>
<mgrwt>
<rscale>  0 0.30000000E+03</rscale>
<asrwt>  1 0.30565390E+02</asrwt>
<pdfrwt beam="1">  1        1 0.90813333E+00 0.30000000E+03</pdfrwt>
<pdfrwt beam="2">0</pdfrwt>
<totfact> 0.81587540E-05</totfact>
</mgrwt>
<clustering>
<clus scale="   30.565">  1  6  2 -1</clus>
<clus scale="  490.504">  4  5 -1 -1</clus>
<clus scale="  300.000">  1  4  2 -1</clus>
</clustering>
</event>
<event>
 6    1  0.1033679E-011  0.3000000E+03  0.7818608E-02  0.1093470E+00
          1   -1    0    0  502    0  0.00000000000E+00  0.00000000000E+00  0.23217651212E+03  0.23217651212E+03  0.00000000000E+00 0.  1.
         13   -1    0    0    0    0 -0.00000000000E+00 -0.00000000000E+00 -0.27500000000E+03  0.27500000000E+03  0.00000000000E+00 0.  1.
    9000005    2    1    2  501    0 -0.32573798118E+02 -0.13218613697E+02 -0.64617189768E+02  0.46581530428E+03  0.45997036037E+03 0.  0.
         13    1    3    3    0    0  0.14189887759E+03  0.87553114449E+02 -0.17026903650E+03  0.23831152743E+03  0.00000000000E+00 0.  1.
          1    1    3    3  501    0 -0.17447267571E+03 -0.10077172815E+03  0.10565184674E+03  0.22750377685E+03  0.00000000000E+00 0.  1.
         21    1    1    2  502  501  0.32573798118E+02  0.13218613697E+02  0.21793701883E+02  0.41361207836E+02  0.00000000000E+00 0. -1.
<scales pt_clust_4="550.00000" pt_clust_5="550.00000" pt_clust_6="35.15372"></scales>
<mgrwt>
<rscale>  0 0.30000000E+03</rscale>
<asrwt>  1 0.35153721E+02</asrwt>
<pdfrwt beam="1">  1        1 0.84427823E+00 0.30000000E+03</pdfrwt>
<pdfrwt beam="2">0</pdfrwt>
<totfact> 0.45801724E-04</totfact>
</mgrwt>
<clustering>
<clus scale="   35.154">  1  6  2 -1</clus>
<clus scale="  459.970">  4  5 -1 -1</clus>
<clus scale="  300.000">  1  4  2 -1</clus>
</clustering>
</event>
<event>
 6    1  0.1033679E-011  0.3000000E+03  0.7818608E-02  0.1093470E+00
          1   -1    0    0  502    0  0.00000000000E+00  0.00000000000E+00  0.22481111509E+03  0.22481111509E+03  0.00000000000E+00 0.  1.
         13   -1    0    0    0    0 -0.00000000000E+00 -0.00000000000E+00 -0.27500000000E+03  0.27500000000E+03  0.00000000000E+00 0.  1.
    9000005    2    1    2  501    0 -0.48630203391E+01 -0.36623554578E+02 -0.57902379434E+02  0.46206947079E+03  0.45693607493E+03 0.  0.
         13    1    3    3    0    0 -0.96926803736E+02  0.83596665197E+02 -0.21096838829E+03  0.24676075168E+03  0.00000000000E+00 0.  1.
          3    1    3    3  501    0  0.92063783397E+02 -0.12022021977E+03  0.15306600885E+03  0.21530871911E+03  0.00000000000E+00 0.  1.
         21    1    1    2  502  501  0.48630203391E+01  0.36623554578E+02  0.77134945245E+01  0.37741644301E+02  0.00000000000E+00 0.  1.
<scales pt_clust_4="550.00000" pt_clust_5="550.00000" pt_clust_6="36.94501"></scales>
<mgrwt>
<rscale>  0 0.30000000E+03</rscale>
<asrwt>  1 0.36945009E+02</asrwt>
<pdfrwt beam="1">  1        1 0.81749496E+00 0.30000000E+03</pdfrwt>
<pdfrwt beam="2">0</pdfrwt>
<totfact> 0.75191559E-04</totfact>
</mgrwt>
<clustering>
<clus scale="   36.945">  1  6  2 -1</clus>
<clus scale="  456.936">  4  5 -1 -1</clus>
<clus scale="  300.000">  1  4  2 -1</clus>
</clustering>
</event>
<event>
 6    1  0.1033679E-011  0.3000000E+03  0.7818608E-02  0.1093470E+00
          1   -1    0    0  502    0  0.00000000000E+00  0.00000000000E+00  0.25914300260E+03  0.25914300260E+03  0.00000000000E+00 0.  1.
         13   -1    0    0    0    0 -0.00000000000E+00 -0.00000000000E+00 -0.27500000000E+03  0.27500000000E+03  0.00000000000E+00 0.  1.
    9000005    2    1    2  501    0 -0.12302683880E+02 -0.29301174445E+02 -0.14927700745E+02  0.50235026055E+03  0.50112177480E+03 0.  0.
         13    1    3    3    0    0 -0.11666306366E+02  0.13639286531E+03  0.19291138748E+03  0.23654580916E+03  0.00000000000E+00 0.  1.
          3    1    3    3  501    0 -0.63637751433E+00 -0.16569403976E+03 -0.20783908822E+03  0.26580445139E+03  0.00000000000E+00 0.  1.
         21    1    1    2  502  501  0.12302683880E+02  0.29301174445E+02 -0.92929665577E+00  0.31792742046E+02  0.00000000000E+00 0. -1.
<scales pt_clust_4="550.00000" pt_clust_5="550.00000" pt_clust_6="31.77916"></scales>
<mgrwt>
<rscale>  0 0.30000000E+03</rscale>
<asrwt>  1 0.31779158E+02</asrwt>
<pdfrwt beam="1">  1        1 0.94233819E+00 0.30000000E+03</pdfrwt>
<pdfrwt beam="2">0</pdfrwt>
<totfact> 0.17757376E-05</totfact>
</mgrwt>
<clustering>
<clus scale="   31.779">  1  6  2 -1</clus>
<clus scale="  501.122">  4  5 -1 -1</clus>
<clus scale="  300.000">  1  4  2 -1</clus>
</clustering>
</event>
<event>
 6    1  0.1033679E-011  0.3000000E+03  0.7818608E-02  0.1093470E+00
          1   -1    0    0  502    0  0.00000000000E+00  0.00000000000E+00  0.22509572443E+03  0.22509572443E+03  0.00000000000E+00 0.  1.
         13   -1    0    0    0    0 -0.00000000000E+00 -0.00000000000E+00 -0.27500000000E+03  0.27500000000E+03  0.00000000000E+00 0.  1.
    9000005    2    1    2  501    0  0.75721004210E+01  0.31321723908E+02 -0.49945193946E+02  0.46787168422E+03  0.46408081559E+03 0.  0.
         13    1    3    3    0    0 -0.59487651785E+02  0.29201611311E+02  0.19915664542E+03  0.20989255402E+03  0.00000000000E+00 0.  1.
          1    1    3    3  501    0  0.67059752206E+02  0.21201125973E+01 -0.24910183937E+03  0.25797913020E+03  0.00000000000E+00 0.  1.
         21    1    1    2  502  501 -0.75721004210E+01 -0.31321723908E+02  0.40918378855E-01  0.32224040213E+02  0.00000000000E+00 0. -1.
<scales pt_clust_4="550.00000" pt_clust_5="550.00000" pt_clust_6="32.22401"></scales>
<mgrwt>
<rscale>  0 0.30000000E+03</rscale>
<asrwt>  1 0.32224014E+02</asrwt>
<pdfrwt beam="1">  1        1 0.81852991E+00 0.30000000E+03</pdfrwt>
<pdfrwt beam="2">0</pdfrwt>
<totfact> 0.75623265E-04</totfact>
</mgrwt>
<clustering>
<clus scale="   32.224">  1  6  2 -1</clus>
<clus scale="  464.081">  4  5 -1 -1</clus>
<clus scale="  300.000">  1  4  2 -1</clus>
</clustering>
</event>
<event>
 6    1  0.1033679E-011  0.3000000E+03  0.7818608E-02  0.1093470E+00
          1   -1    0    0  502    0  0.00000000000E+00  0.00000000000E+00  0.22692743895E+03  0.22692743895E+03  0.00000000000E+00 0.  1.
         13   -1    0    0    0    0 -0.00000000000E+00 -0.00000000000E+00 -0.27500000000E+03  0.27500000000E+03  0.00000000000E+00 0.  1.
    9000005    2    1    2  501    0  0.30675590756E+02  0.21573221368E+00 -0.71176627545E+02  0.46352384150E+03  0.45699803164E+03 0.  0.
         13    1    3    3    0    0 -0.24759387312E+02  0.19956486538E+02  0.19160913859E+03  0.19423014855E+03  0.00000000000E+00 0.  1.
          1    1    3    3  501    0  0.55434978068E+02 -0.19740754324E+02 -0.26278576614E+03  0.26929369295E+03  0.00000000000E+00 0.  1.
         21    1    1    2  502  501 -0.30675590756E+02 -0.21573221368E+00  0.23104066500E+02  0.38403597455E+02  0.00000000000E+00 0.  1.
<scales pt_clust_4="550.00000" pt_clust_5="550.00000" pt_clust_6="30.67635"></scales>
<mgrwt>
<rscale>  0 0.30000000E+03</rscale>
<asrwt>  1 0.30676349E+02</asrwt>
<pdfrwt beam="1">  1        1 0.82519069E+00 0.30000000E+03</pdfrwt>
<pdfrwt beam="2">0</pdfrwt>
<totfact> 0.66706762E-04</totfact>
</mgrwt>
<clustering>
<clus scale="   30.676">  1  6  2 -1</clus>
<clus scale="  456.998">  4  5 -1 -1</clus>
<clus scale="  300.000">  1  4  2 -1</clus>
</clustering>
</event>
<event>
 6    1  0.1033679E-011  0.3000000E+03  0.7818608E-02  0.1093470E+00
          1   -1    0    0  502    0  0.00000000000E+00  0.00000000000E+00  0.22923911757E+03  0.22923911757E+03  0.00000000000E+00 0.  1.
         13   -1    0    0    0    0 -0.00000000000E+00 -0.00000000000E+00 -0.27500000000E+03  0.27500000000E+03  0.00000000000E+00 0.  1.
    9000005    2    1    2  501    0  0.92130327687E+01 -0.37180201218E+02 -0.59090888030E+02  0.46368130223E+03  0.45830270527E+03 0.  0.
         13    1    3    3    0    0  0.19244471407E+03  0.41026213809E+02  0.88488202781E+02  0.21575050457E+03  0.00000000000E+00 0.  1.
          1    1    3    3  501    0 -0.18323168130E+03 -0.78206415027E+02 -0.14757909081E+03  0.24793079766E+03  0.00000000000E+00 0.  1.
         21    1    1    2  502  501 -0.92130327687E+01  0.37180201218E+02  0.13330005598E+02  0.40557815334E+02  0.00000000000E+00 0.  1.
<scales pt_clust_4="550.00000" pt_clust_5="550.00000" pt_clust_6="38.30466"></scales>
<mgrwt>
<rscale>  0 0.30000000E+03</rscale>
<asrwt>  1 0.38304665E+02</asrwt>
<pdfrwt beam="1">  1        1 0.83359679E+00 0.30000000E+03</pdfrwt>
<pdfrwt beam="2">0</pdfrwt>
<totfact> 0.54482456E-04</totfact>
</mgrwt>
<clustering>
<clus scale="   38.305">  1  6  2 -1</clus>
<clus scale="  458.303">  4  5 -1 -1</clus>
<clus scale="  300.000">  1  4  2 -1</clus>
</clustering>
</event>
<event>
 6    1  0.1033679E-011  0.3000000E+03  0.7818608E-02  0.1093470E+00
          1   -1    0    0  502    0  0.00000000000E+00  0.00000000000E+00  0.23032298754E+03  0.23032298754E+03  0.00000000000E+00 0.  1.
         13   -1    0    0    0    0 -0.00000000000E+00 -0.00000000000E+00 -0.27500000000E+03  0.27500000000E+03  0.00000000000E+00 0.  1.
    9000005    2    1    2  501    0 -0.16449024319E+02  0.25257570371E+02 -0.69374996903E+02  0.46635497890E+03  0.46017992230E+03 0.  0.
         13    1    3    3    0    0  0.17224471512E+03 -0.10992653154E+03  0.42459646870E+02  0.20869812131E+03  0.00000000000E+00 0.  1.
          1    1    3    3  501    0 -0.18869373944E+03  0.13518410191E+03 -0.11183464377E+03  0.25765685759E+03  0.00000000000E+00 0.  1.
         21    1    1    2  502  501  0.16449024319E+02 -0.25257570371E+02  0.24697984447E+02  0.38968008646E+02  0.00000000000E+00 0. -1.
<scales pt_clust_4="550.00000" pt_clust_5="550.00000" pt_clust_6="30.14159"></scales>
<mgrwt>
<rscale>  0 0.30000000E+03</rscale>
<asrwt>  1 0.30141587E+02</asrwt>
<pdfrwt beam="1">  1        1 0.83753814E+00 0.30000000E+03</pdfrwt>
<pdfrwt beam="2">0</pdfrwt>
<totfact> 0.53339897E-04</totfact>
</mgrwt>
<clustering>
<clus scale="   30.142">  1  6  2 -1</clus>
<clus scale="  460.180">  4  5 -1 -1</clus>
<clus scale="  300.000">  1  4  2 -1</clus>
</clustering>
</event>
<event>
 6    1  0.1033679E-011  0.3000000E+03  0.7818608E-02  0.1093470E+00
          1   -1    0    0  502    0  0.00000000000E+00  0.00000000000E+00  0.24454745921E+03  0.24454745921E+03  0.00000000000E+00 0.  1.
         13   -1    0    0    0    0 -0.00000000000E+00 -0.00000000000E+00 -0.27500000000E+03  0.27500000000E+03  0.00000000000E+00 0.  1.
    9000005    2    1    2  501    0 -0.35003948306E+02 -0.42218684182E+01 -0.59504542119E+02  0.47386245783E+03  0.46878751886E+03 0.  0.
         13    1    3    3    0    0 -0.12610755782E+03 -0.20490675114E+03 -0.77387455722E+02  0.25274238091E+03  0.00000000000E+00 0.  1.
          1    1    3    3  501    0  0.91103609512E+02  0.20068488272E+03  0.17882913602E+02  0.22112007692E+03  0.00000000000E+00 0.  1.
         21    1    1    2  502  501  0.35003948306E+02  0.42218684182E+01  0.29052001330E+02  0.45685001381E+02  0.00000000000E+00 0.  1.
<scales pt_clust_4="550.00000" pt_clust_5="550.00000" pt_clust_6="35.25763"></scales>
<mgrwt>
<rscale>  0 0.30000000E+03</rscale>
<asrwt>  1 0.35257631E+02</asrwt>
<pdfrwt beam="1">  1        1 0.88926349E+00 0.30000000E+03</pdfrwt>
<pdfrwt beam="2">0</pdfrwt>
<totfact> 0.14808820E-04</totfact>
</mgrwt>
<clustering>
<clus scale="   35.258">  1  6  2 -1</clus>
<clus scale="  468.788">  4  5 -1 -1</clus>
<clus scale="  300.000">  1  4  2 -1</clus>
</clustering>
</event>
<event>
 6    1  0.1033679E-011  0.3000000E+03  0.7818608E-02  0.1093470E+00
          1   -1    0    0  502    0  0.00000000000E+00  0.00000000000E+00  0.23327859767E+03  0.23327859767E+03  0.00000000000E+00 0.  1.
         13   -1    0    0    0    0 -0.00000000000E+00 -0.00000000000E+00 -0.27500000000E+03  0.27500000000E+03  0.00000000000E+00 0.  1.
    9000005    2    1    2  501    0 -0.27776047760E+02  0.19118629928E+02 -0.21648817264E+02  0.46903653464E+03  0.46732169723E+03 0.  0.
         13    1    3    3    0    0 -0.24092689372E+03  0.20687454435E+02 -0.67388269897E+02  0.25102772319E+03  0.00000000000E+00 0.  1.
          3    1    3    3  501    0  0.21315084596E+03 -0.15688245072E+01  0.45739452634E+02  0.21800881145E+03  0.00000000000E+00 0.  1.
         21    1    1    2  502  501  0.27776047760E+02 -0.19118629928E+02 -0.20072585066E+02  0.39242063029E+02  0.00000000000E+00 0.  1.
<scales pt_clust_4="550.00000" pt_clust_5="550.00000" pt_clust_6="33.71990"></scales>
<mgrwt>
<rscale>  0 0.30000000E+03</rscale>
<asrwt>  1 0.33719905E+02</asrwt>
<pdfrwt beam="1">  1        1 0.84828581E+00 0.30000000E+03</pdfrwt>
<pdfrwt beam="2">0</pdfrwt>
<totfact> 0.42514437E-04</totfact>
</mgrwt>
<clustering>
<clus scale="   33.720">  1  6  2 -1</clus>
<clus scale="  467.322">  4  5 -1 -1</clus>
<clus scale="  300.000">  1  4  2 -1</clus>
</clustering>
</event>
<event>
 6    1  0.1033679E-011  0.3000000E+03  0.7818608E-02  0.1093470E+00
          1   -1    0    0  502    0  0.00000000000E+00  0.00000000000E+00  0.23810335968E+03  0.23810335968E+03  0.00000000000E+00 0.  1.
         13   -1    0    0    0    0 -0.00000000000E+00 -0.00000000000E+00 -0.27500000000E+03  0.27500000000E+03  0.00000000000E+00 0.  1.
    9000005    2    1    2  501    0 -0.27642496648E+02  0.20587395726E+02 -0.66156920475E+01  0.46722434147E+03  0.46590435649E+03 0.  0.
         13    1    3    3    0    0 -0.22208688517E+03  0.10630744423E+03  0.40593067517E+02  0.24954289089E+03  0.00000000000E+00 0.  1.
          3    1    3    3  501    0  0.19444438853E+03 -0.85720048504E+02 -0.47208759564E+02  0.21768145057E+03  0.00000000000E+00 0.  1.
         21    1    1    2  502  501  0.27642496648E+02 -0.20587395726E+02 -0.30280948273E+02  0.45879018211E+02  0.00000000000E+00 0.  1.
<scales pt_clust_4="550.00000" pt_clust_5="550.00000" pt_clust_6="34.46665"></scales>
<mgrwt>
<rscale>  0 0.30000000E+03</rscale>
<asrwt>  1 0.34466646E+02</asrwt>
<pdfrwt beam="1">  1        1 0.86583040E+00 0.30000000E+03</pdfrwt>
<pdfrwt beam="2">0</pdfrwt>
<totfact> 0.28070788E-04</totfact>
</mgrwt>
<clustering>
<clus scale="   34.467">  1  6  2 -1</clus>
<clus scale="  465.904">  4  5 -1 -1</clus>
<clus scale="  300.000">  1  4  2 -1</clus>
</clustering>
</event>
<event>
 6    1  0.1033679E-011  0.3000000E+03  0.7818608E-02  0.1093470E+00
          1   -1    0    0  502    0  0.00000000000E+00  0.00000000000E+00  0.21804268209E+03  0.21804268209E+03  0.00000000000E+00 0.  1.
         13   -1    0    0    0    0 -0.00000000000E+00 -0.00000000000E+00 -0.27500000000E+03  0.27500000000E+03  0.00000000000E+00 0.  1.
    9000005    2    1    2  501    0 -0.10916023339E+02  0.29517367256E+02 -0.50191007615E+02  0.46085234984E+03  0.45702879184E+03 0.  0.
         13    1    3    3    0    0  0.33077374584E+02  0.22010335741E+03 -0.12037893649E+03  0.25304286001E+03  0.00000000000E+00 0.  1.
          3    1    3    3  501    0 -0.43993397923E+02 -0.19058599015E+03  0.70187928873E+02  0.20780948983E+03  0.00000000000E+00 0.  1.
         21    1    1    2  502  501  0.10916023339E+02 -0.29517367256E+02 -0.67663102970E+01  0.32190332248E+02  0.00000000000E+00 0.  1.
<scales pt_clust_4="550.00000" pt_clust_5="550.00000" pt_clust_6="31.47119"></scales>
<mgrwt>
<rscale>  0 0.30000000E+03</rscale>
<asrwt>  1 0.31471186E+02</asrwt>
<pdfrwt beam="1">  1        1 0.79288248E+00 0.30000000E+03</pdfrwt>
<pdfrwt beam="2">0</pdfrwt>
<totfact> 0.11943612E-03</totfact>
</mgrwt>
<clustering>
<clus scale="   31.471">  1  6  2 -1</clus>
<clus scale="  457.029">  4  5 -1 -1</clus>
<clus scale="  300.000">  1  4  2 -1</clus>
</clustering>
</event>
<event>
 6    1  0.1033679E-011  0.3000000E+03  0.7818608E-02  0.1093470E+00
          1   -1    0    0  502    0  0.00000000000E+00  0.00000000000E+00  0.23807268879E+03  0.23807268879E+03  0.00000000000E+00 0.  1.
         13   -1    0    0    0    0 -0.00000000000E+00 -0.00000000000E+00 -0.27500000000E+03  0.27500000000E+03  0.00000000000E+00 0.  1.
    9000005    2    1    2  501    0 -0.35946932332E+02 -0.32222100289E+02 -0.50441657274E+02  0.46294202711E+03  0.45764671307E+03 0.  0.
         13    1    3    3    0    0 -0.80391535500E+01 -0.17380951704E+03 -0.19316457139E+03  0.25997486002E+03  0.00000000000E+00 0.  1.
          1    1    3    3  501    0 -0.27907778782E+02  0.14158741676E+03  0.14272291411E+03  0.20296716708E+03  0.00000000000E+00 0.  1.
         21    1    1    2  502  501  0.35946932332E+02  0.32222100289E+02  0.13514346060E+02  0.50130661681E+02  0.00000000000E+00 0.  1.
<scales pt_clust_4="550.00000" pt_clust_5="550.00000" pt_clust_6="48.27469"></scales>
<mgrwt>
<rscale>  0 0.30000000E+03</rscale>
<asrwt>  1 0.48274690E+02</asrwt>
<pdfrwt beam="1">  1        1 0.86571887E+00 0.30000000E+03</pdfrwt>
<pdfrwt beam="2">0</pdfrwt>
<totfact> 0.26474749E-04</totfact>
</mgrwt>
<clustering>
<clus scale="   48.275">  1  6  2 -1</clus>
<clus scale="  457.647">  4  5 -1 -1</clus>
<clus scale="  300.000">  1  4  2 -1</clus>
</clustering>
</event>
<event>
 6    1  0.1033679E-011  0.3000000E+03  0.7818608E-02  0.1093470E+00
          1   -1    0    0  502    0  0.00000000000E+00  0.00000000000E+00  0.23377891883E+03  0.23377891883E+03  0.00000000000E+00 0.  1.
         13   -1    0    0    0    0 -0.00000000000E+00 -0.00000000000E+00 -0.27500000000E+03  0.27500000000E+03  0.00000000000E+00 0.  1.
    9000005    2    1    2  501    0  0.39665729638E+02  0.14188570647E+01 -0.48108916265E+02  0.46849461003E+03  0.46432461548E+03 0.  0.
         13    1    3    3    0    0  0.10501051548E+02  0.11780107748E+03  0.17730981017E+03  0.21313407686E+03  0.00000000000E+00 0.  1.
          1    1    3    3  501    0  0.29164678090E+02 -0.11638222042E+03 -0.22541872643E+03  0.25536053317E+03  0.00000000000E+00 0.  1.
         21    1    1    2  502  501 -0.39665729638E+02 -0.14188570647E+01  0.68878350989E+01  0.40284308800E+02  0.00000000000E+00 0.  1.
<scales pt_clust_4="550.00000" pt_clust_5="550.00000" pt_clust_6="39.69110"></scales>
<mgrwt>
<rscale>  0 0.30000000E+03</rscale>
<asrwt>  1 0.39691098E+02</asrwt>
<pdfrwt beam="1">  1        1 0.85010516E+00 0.30000000E+03</pdfrwt>
<pdfrwt beam="2">0</pdfrwt>
<totfact> 0.39672833E-04</totfact>
</mgrwt>
<clustering>
<clus scale="   39.691">  1  6  2 -1</clus>
<clus scale="  464.325">  4  5 -1 -1</clus>
<clus scale="  300.000">  1  4  2 -1</clus>
</clustering>
</event>
<event>
 6    1  0.1033679E-011  0.3000000E+03  0.7818608E-02  0.1093470E+00
          1   -1    0    0  502    0  0.00000000000E+00  0.00000000000E+00  0.23031225838E+03  0.23031225838E+03  0.00000000000E+00 0.  1.
         13   -1    0    0    0    0 -0.00000000000E+00 -0.00000000000E+00 -0.27500000000E+03  0.27500000000E+03  0.00000000000E+00 0.  1.
    9000005    2    1    2  501    0 -0.42795799851E+02 -0.76022121208E+01 -0.34556929767E+02  0.46068146785E+03  0.45732259874E+03 0.  0.
         13    1    3    3    0    0 -0.78766596539E+02 -0.17313667540E+03 -0.16107655879E+03  0.24925116427E+03  0.00000000000E+00 0.  1.
          3    1    3    3  501    0  0.35970796688E+02  0.16553446328E+03  0.12651962902E+03  0.21143030359E+03  0.00000000000E+00 0.  1.
         21    1    1    2  502  501  0.42795799851E+02  0.76022121208E+01 -0.10130811854E+02  0.44630790524E+02  0.00000000000E+00 0.  1.
<scales pt_clust_4="550.00000" pt_clust_5="550.00000" pt_clust_6="43.46580"></scales>
<mgrwt>
<rscale>  0 0.30000000E+03</rscale>
<asrwt>  1 0.43465803E+02</asrwt>
<pdfrwt beam="1">  1        1 0.83749912E+00 0.30000000E+03</pdfrwt>
<pdfrwt beam="2">0</pdfrwt>
<totfact> 0.49862754E-04</totfact>
</mgrwt>
<clustering>
<clus scale="   43.466">  1  6  2 -1</clus>
<clus scale="  457.323">  4  5 -1 -1</clus>
<clus scale="  300.000">  1  4  2 -1</clus>
</clustering>
</event>
<event>
 6    1  0.1033679E-011  0.3000000E+03  0.7818608E-02  0.1093470E+00
          1   -1    0    0  502    0  0.00000000000E+00  0.00000000000E+00  0.22086702943E+03  0.22086702943E+03  0.00000000000E+00 0.  1.
         13   -1    0    0    0    0 -0.00000000000E+00 -0.00000000000E+00 -0.27500000000E+03  0.27500000000E+03  0.00000000000E+00 0.  1.
    9000005    2    1    2  501    0 -0.17079243775E+02 -0.27858355292E+02 -0.55180076857E+02  0.46317322330E+03  0.45871211601E+03 0.  0.
         13    1    3    3    0    0 -0.60886620132E+02  0.19234800108E+03  0.60462933296E+02  0.21061980043E+03  0.00000000000E+00 0.  1.
          1    1    3    3  501    0  0.43807376356E+02 -0.22020635637E+03 -0.11564301015E+03  0.25255342287E+03  0.00000000000E+00 0.  1.
         21    1    1    2  502  501  0.17079243775E+02  0.27858355292E+02  0.10471062835E+01  0.32693806127E+02  0.00000000000E+00 0. -1.
<scales pt_clust_4="550.00000" pt_clust_5="550.00000" pt_clust_6="32.67703"></scales>
<mgrwt>
<rscale>  0 0.30000000E+03</rscale>
<asrwt>  1 0.32677034E+02</asrwt>
<pdfrwt beam="1">  1        1 0.80315283E+00 0.30000000E+03</pdfrwt>
<pdfrwt beam="2">0</pdfrwt>
<totfact> 0.99645618E-04</totfact>
</mgrwt>
<clustering>
<clus scale="   32.677">  1  6  2 -1</clus>
<clus scale="  458.712">  4  5 -1 -1</clus>
<clus scale="  300.000">  1  4  2 -1</clus>
</clustering>
</event>
<event>
 6    1  0.1033679E-011  0.3000000E+03  0.7818608E-02  0.1093470E+00
          1   -1    0    0  502    0  0.00000000000E+00  0.00000000000E+00  0.22847443976E+03  0.22847443976E+03  0.00000000000E+00 0.  1.
         13   -1    0    0    0    0 -0.00000000000E+00 -0.00000000000E+00 -0.27500000000E+03  0.27500000000E+03  0.00000000000E+00 0.  1.
    9000005    2    1    2  501    0  0.14599385683E+02 -0.31223078209E+02 -0.58739003638E+02  0.46690681918E+03  0.46191307037E+03 0.  0.
         13    1    3    3    0    0  0.18033283084E+03  0.11101066658E+03  0.57597224084E+02  0.21945554947E+03  0.00000000000E+00 0.  1.
          1    1    3    3  501    0 -0.16573344516E+03 -0.14223374479E+03 -0.11633622772E+03  0.24745126971E+03  0.00000000000E+00 0.  1.
         21    1    1    2  502  501 -0.14599385683E+02  0.31223078209E+02  0.12213443402E+02  0.36567620581E+02  0.00000000000E+00 0. -1.
<scales pt_clust_4="550.00000" pt_clust_5="550.00000" pt_clust_6="34.46770"></scales>
<mgrwt>
<rscale>  0 0.30000000E+03</rscale>
<asrwt>  1 0.34467705E+02</asrwt>
<pdfrwt beam="1">  1        1 0.83081614E+00 0.30000000E+03</pdfrwt>
<pdfrwt beam="2">0</pdfrwt>
<totfact> 0.58371862E-04</totfact>
</mgrwt>
<clustering>
<clus scale="   34.468">  1  6  2 -1</clus>
<clus scale="  461.913">  4  5 -1 -1</clus>
<clus scale="  300.000">  1  4  2 -1</clus>
</clustering>
</event>
<event>
 6    1  0.1033679E-011  0.3000000E+03  0.7818608E-02  0.1093470E+00
          1   -1    0    0  502    0  0.00000000000E+00  0.00000000000E+00  0.24553561472E+03  0.24553561472E+03  0.00000000000E+00 0.  1.
         13   -1    0    0    0    0 -0.00000000000E+00 -0.00000000000E+00 -0.27500000000E+03  0.27500000000E+03  0.00000000000E+00 0.  1.
    9000005    2    1    2  501    0  0.14060782813E+02 -0.35983544092E+02 -0.67649521361E+02  0.46621595275E+03  0.45966110974E+03 0.  0.
         13    1    3    3    0    0  0.15214047318E+03 -0.19404951359E+03 -0.29894410625E+01  0.24659860920E+03  0.00000000000E+00 0.  1.
          1    1    3    3  501    0 -0.13807969037E+03  0.15806596950E+03 -0.64660080298E+02  0.21961734355E+03  0.00000000000E+00 0.  1.
         21    1    1    2  502  501 -0.14060782813E+02  0.35983544092E+02  0.38185136084E+02  0.54319661970E+02  0.00000000000E+00 0.  1.
<scales pt_clust_4="550.00000" pt_clust_5="550.00000" pt_clust_6="38.63316"></scales>
<mgrwt>
<rscale>  0 0.30000000E+03</rscale>
<asrwt>  1 0.38633160E+02</asrwt>
<pdfrwt beam="1">  1        1 0.89285678E+00 0.30000000E+03</pdfrwt>
<pdfrwt beam="2">0</pdfrwt>
<totfact> 0.13102382E-04</totfact>
</mgrwt>
<clustering>
<clus scale="   38.633">  1  6  2 -1</clus>
<clus scale="  459.661">  4  5 -1 -1</clus>
<clus scale="  300.000">  1  4  2 -1</clus>
</clustering>
</event>
<event>
 6    1  0.1033679E-011  0.3000000E+03  0.7818608E-02  0.1093470E+00
          1   -1    0    0  502    0  0.00000000000E+00  0.00000000000E+00  0.23621017254E+03  0.23621017254E+03  0.00000000000E+00 0.  1.
         13   -1    0    0    0    0 -0.00000000000E+00 -0.00000000000E+00 -0.27500000000E+03  0.27500000000E+03  0.00000000000E+00 0.  1.
    9000005    2    1    2  501    0  0.26319429681E+02 -0.26587344671E+02 -0.62978699787E+02  0.46666019140E+03  0.46087505718E+03 0.  0.
         13    1    3    3    0    0 -0.15272019014E+03  0.11894692262E+03  0.63265564719E+02  0.20365254371E+03  0.00000000000E+00 0.  1.
          3    1    3    3  501    0  0.17903961983E+03 -0.14553426729E+03 -0.12624426451E+03  0.26300764769E+03  0.00000000000E+00 0.  1.
         21    1    1    2  502  501 -0.26319429681E+02  0.26587344671E+02  0.24188872330E+02  0.44549981145E+02  0.00000000000E+00 0.  1.
<scales pt_clust_4="550.00000" pt_clust_5="550.00000" pt_clust_6="37.41122"></scales>
<mgrwt>
<rscale>  0 0.30000000E+03</rscale>
<asrwt>  1 0.37411219E+02</asrwt>
<pdfrwt beam="1">  1        1 0.85894608E+00 0.30000000E+03</pdfrwt>
<pdfrwt beam="2">0</pdfrwt>
<totfact> 0.32781769E-04</totfact>
</mgrwt>
<clustering>
<clus scale="   37.411">  1  6  2 -1</clus>
<clus scale="  460.875">  4  5 -1 -1</clus>
<clus scale="  300.000">  1  4  2 -1</clus>
</clustering>
</event>
<event>
 6    1  0.1033679E-011  0.3000000E+03  0.7818608E-02  0.1093470E+00
          1   -1    0    0  502    0  0.00000000000E+00  0.00000000000E+00  0.23429526021E+03  0.23429526021E+03  0.00000000000E+00 0.  1.
         13   -1    0    0    0    0 -0.00000000000E+00 -0.00000000000E+00 -0.27500000000E+03  0.27500000000E+03  0.00000000000E+00 0.  1.
    9000005    2    1    2  501    0  0.18038150804E+02  0.27818135997E+02 -0.63992530317E+02  0.46877927864E+03  0.46320594186E+03 0.  0.
         13    1    3    3    0    0  0.39768166672E+02 -0.16916325164E+03 -0.17079404429E+03  0.24365614778E+03  0.00000000000E+00 0.  1.
          1    1    3    3  501    0 -0.21730015868E+02  0.19698138763E+03  0.10680151397E+03  0.22512313086E+03  0.00000000000E+00 0.  1.
         21    1    1    2  502  501 -0.18038150804E+02 -0.27818135997E+02  0.23287790524E+02  0.40515981566E+02  0.00000000000E+00 0. -1.
<scales pt_clust_4="550.00000" pt_clust_5="550.00000" pt_clust_6="33.15454"></scales>
<mgrwt>
<rscale>  0 0.30000000E+03</rscale>
<asrwt>  1 0.33154541E+02</asrwt>
<pdfrwt beam="1">  1        1 0.85198276E+00 0.30000000E+03</pdfrwt>
<pdfrwt beam="2">0</pdfrwt>
<totfact> 0.39373372E-04</totfact>
</mgrwt>
<clustering>
<clus scale="   33.155">  1  6  2 -1</clus>
<clus scale="  463.206">  4  5 -1 -1</clus>
<clus scale="  300.000">  1  4  2 -1</clus>
</clustering>
</event>
<event>
 6    1  0.1033679E-011  0.3000000E+03  0.7818608E-02  0.1093470E+00
          1   -1    0    0  502    0  0.00000000000E+00  0.00000000000E+00  0.22589780468E+03  0.22589780468E+03  0.00000000000E+00 0.  1.
         13   -1    0    0    0    0 -0.00000000000E+00 -0.00000000000E+00 -0.27500000000E+03  0.27500000000E+03  0.00000000000E+00 0.  1.
    9000005    2    1    2  501    0  0.28025649664E+02 -0.20257137547E+02 -0.66045883681E+02  0.46238965962E+03  0.45634016908E+03 0.  0.
         13    1    3    3    0    0 -0.13377771021E+03 -0.73652101552E+02  0.13149090286E+03  0.20152162501E+03  0.00000000000E+00 0.  1.
          1    1    3    3  501    0  0.16180335987E+03  0.53394964005E+02 -0.19753678654E+03  0.26086803461E+03  0.00000000000E+00 0.  1.
         21    1    1    2  502  501 -0.28025649664E+02  0.20257137547E+02  0.16943688366E+02  0.38508145062E+02  0.00000000000E+00 0. -1.
<scales pt_clust_4="550.00000" pt_clust_5="550.00000" pt_clust_6="34.58018"></scales>
<mgrwt>
<rscale>  0 0.30000000E+03</rscale>
<asrwt>  1 0.34580177E+02</asrwt>
<pdfrwt beam="1">  1        1 0.82144656E+00 0.30000000E+03</pdfrwt>
<pdfrwt beam="2">0</pdfrwt>
<totfact> 0.70412546E-04</totfact>
</mgrwt>
<clustering>
<clus scale="   34.580">  1  6  2 -1</clus>
<clus scale="  456.340">  4  5 -1 -1</clus>
<clus scale="  300.000">  1  4  2 -1</clus>
</clustering>
</event>
<event>
 6    1  0.1033679E-011  0.3000000E+03  0.7818608E-02  0.1093470E+00
          1   -1    0    0  502    0  0.00000000000E+00  0.00000000000E+00  0.23448971595E+03  0.23448971595E+03  0.00000000000E+00 0.  1.
         13   -1    0    0    0    0 -0.00000000000E+00 -0.00000000000E+00 -0.27500000000E+03  0.27500000000E+03  0.00000000000E+00 0.  1.
    9000005    2    1    2  501    0  0.33975551890E+02  0.14323323771E+02 -0.55563284376E+02  0.46966398873E+03  0.46490589156E+03 0.  0.
         13    1    3    3    0    0 -0.18380067570E+03  0.10775442252E+03 -0.87934035940E+02  0.23049099470E+03  0.00000000000E+00 0.  1.
          3    1    3    3  501    0  0.21777622759E+03 -0.93431098747E+02  0.32370751564E+02  0.23917299403E+03  0.00000000000E+00 0.  1.
         21    1    1    2  502  501 -0.33975551890E+02 -0.14323323771E+02  0.15053000327E+02  0.39825727224E+02  0.00000000000E+00 0.  1.
<scales pt_clust_4="550.00000" pt_clust_5="550.00000" pt_clust_6="36.87134"></scales>
<mgrwt>
<rscale>  0 0.30000000E+03</rscale>
<asrwt>  1 0.36871340E+02</asrwt>
<pdfrwt beam="1">  1        1 0.85268988E+00 0.30000000E+03</pdfrwt>
<pdfrwt beam="2">0</pdfrwt>
<totfact> 0.37999694E-04</totfact>
</mgrwt>
<clustering>
<clus scale="   36.871">  1  6  2 -1</clus>
<clus scale="  464.906">  4  5 -1 -1</clus>
<clus scale="  300.000">  1  4  2 -1</clus>
</clustering>
</event>
<event>
 6    1  0.1033679E-011  0.3000000E+03  0.7818608E-02  0.1093470E+00
          1   -1    0    0  502    0  0.00000000000E+00  0.00000000000E+00  0.25107505607E+03  0.25107505607E+03  0.00000000000E+00 0.  1.
         13   -1    0    0    0    0 -0.00000000000E+00 -0.00000000000E+00 -0.27500000000E+03  0.27500000000E+03  0.00000000000E+00 0.  1.
    9000005    2    1    2  501    0  0.34726466512E+02  0.93519722251E+01 -0.44485267750E+02  0.48464905244E+03  0.48126123688E+03 0.  0.
         13    1    3    3    0    0  0.24257577781E+03  0.76011221975E+02  0.25364597431E+02  0.25546834765E+03  0.00000000000E+00 0.  1.
          1    1    3    3  501    0 -0.20784931130E+03 -0.66659249750E+02 -0.69849865181E+02  0.22918070480E+03  0.00000000000E+00 0.  1.
         21    1    1    2  502  501 -0.34726466512E+02 -0.93519722251E+01  0.20560323824E+02  0.41426003629E+02  0.00000000000E+00 0. -1.
<scales pt_clust_4="550.00000" pt_clust_5="550.00000" pt_clust_6="35.96369"></scales>
<mgrwt>
<rscale>  0 0.30000000E+03</rscale>
<asrwt>  1 0.35963688E+02</asrwt>
<pdfrwt beam="1">  1        1 0.91300020E+00 0.30000000E+03</pdfrwt>
<pdfrwt beam="2">0</pdfrwt>
<totfact> 0.60215140E-05</totfact>
</mgrwt>
<clustering>
<clus scale="   35.964">  1  6  2 -1</clus>
<clus scale="  481.261">  4  5 -1 -1</clus>
<clus scale="  300.000">  1  4  2 -1</clus>
</clustering>
</event>
<event>
 6    1  0.1033679E-011  0.3000000E+03  0.7818608E-02  0.1093470E+00
          1   -1    0    0  502    0  0.00000000000E+00  0.00000000000E+00  0.23611452421E+03  0.23611452421E+03  0.00000000000E+00 0.  1.
         13   -1    0    0    0    0 -0.00000000000E+00 -0.00000000000E+00 -0.27500000000E+03  0.27500000000E+03  0.00000000000E+00 0.  1.
    9000005    2    1    2  501    0 -0.19847804391E+02  0.27624549063E+02 -0.51388598092E+02  0.47487395140E+03  0.47085818529E+03 0.  0.
         13    1    3    3    0    0 -0.24673088021E+02  0.11400953657E+03  0.18748683159E+03  0.22081269828E+03  0.00000000000E+00 0.  1.
          3    1    3    3  501    0  0.48252836301E+01 -0.86384987509E+02 -0.23887542969E+03  0.25406125312E+03  0.00000000000E+00 0.  1.
         21    1    1    2  502  501  0.19847804391E+02 -0.27624549063E+02  0.12503122302E+02  0.36240572807E+02  0.00000000000E+00 0. -1.
<scales pt_clust_4="550.00000" pt_clust_5="550.00000" pt_clust_6="34.01545"></scales>
<mgrwt>
<rscale>  0 0.30000000E+03</rscale>
<asrwt>  1 0.34015453E+02</asrwt>
<pdfrwt beam="1">  1        1 0.85859827E+00 0.30000000E+03</pdfrwt>
<pdfrwt beam="2">0</pdfrwt>
<totfact> 0.33651129E-04</totfact>
</mgrwt>
<clustering>
<clus scale="   34.015">  1  6  2 -1</clus>
<clus scale="  470.858">  4  5 -1 -1</clus>
<clus scale="  300.000">  1  4  2 -1</clus>
</clustering>
</event>
<event>
 6    1  0.1033679E-011  0.3000000E+03  0.7818608E-02  0.1093470E+00
          1   -1    0    0  502    0  0.00000000000E+00  0.00000000000E+00  0.22151377188E+03  0.22151377188E+03  0.00000000000E+00 0.  1.
         13   -1    0    0    0    0 -0.00000000000E+00 -0.00000000000E+00 -0.27500000000E+03  0.27500000000E+03  0.00000000000E+00 0.  1.
    9000005    2    1    2  501    0 -0.39179939488E+01 -0.31982917505E+02 -0.48985287649E+02  0.46397892665E+03  0.46025930548E+03 0.  0.
         13    1    3    3    0    0 -0.10952064166E+03  0.31791431669E+02 -0.22311877304E+03  0.25057424641E+03  0.00000000000E+00 0.  1.
          1    1    3    3  501    0  0.10560264771E+03 -0.63774349174E+02  0.17413348539E+03  0.21340468025E+03  0.00000000000E+00 0.  1.
         21    1    1    2  502  501  0.39179939488E+01  0.31982917505E+02 -0.45009404716E+01  0.32534845225E+02  0.00000000000E+00 0. -1.
<scales pt_clust_4="550.00000" pt_clust_5="550.00000" pt_clust_6="32.22202"></scales>
<mgrwt>
<rscale>  0 0.30000000E+03</rscale>
<asrwt>  1 0.32222022E+02</asrwt>
<pdfrwt beam="1">  1        1 0.80550463E+00 0.30000000E+03</pdfrwt>
<pdfrwt beam="2">0</pdfrwt>
<totfact> 0.95940450E-04</totfact>
</mgrwt>
<clustering>
<clus scale="   32.222">  1  6  2 -1</clus>
<clus scale="  460.259">  4  5 -1 -1</clus>
<clus scale="  300.000">  1  4  2 -1</clus>
</clustering>
</event>
<event>
 6    1  0.1033679E-011  0.3000000E+03  0.7818608E-02  0.1093470E+00
          1   -1    0    0  502    0  0.00000000000E+00  0.00000000000E+00  0.24910802103E+03  0.24910802103E+03  0.00000000000E+00 0.  1.
         13   -1    0    0    0    0 -0.00000000000E+00 -0.00000000000E+00 -0.27500000000E+03  0.27500000000E+03  0.00000000000E+00 0.  1.
    9000005    2    1    2  501    0 -0.10247635244E+02  0.28241488018E+02 -0.17842693762E+02  0.49300518087E+03  0.49176534136E+03 0.  0.
         13    1    3    3    0    0  0.54579460165E+02 -0.21701696653E+03 -0.69092358434E+02  0.23419870885E+03  0.00000000000E+00 0.  1.
          1    1    3    3  501    0 -0.64827095409E+02  0.24525845455E+03  0.51249664672E+02  0.25880647201E+03  0.00000000000E+00 0.  1.
         21    1    1    2  502  501  0.10247635244E+02 -0.28241488018E+02 -0.80492852119E+01  0.31102840159E+02  0.00000000000E+00 0. -1.
<scales pt_clust_4="550.00000" pt_clust_5="550.00000" pt_clust_6="30.04325"></scales>
<mgrwt>
<rscale>  0 0.30000000E+03</rscale>
<asrwt>  1 0.30043245E+02</asrwt>
<pdfrwt beam="1">  1        1 0.90584735E+00 0.30000000E+03</pdfrwt>
<pdfrwt beam="2">0</pdfrwt>
<totfact> 0.91634393E-05</totfact>
</mgrwt>
<clustering>
<clus scale="   30.043">  1  6  2 -1</clus>
<clus scale="  491.765">  4  5 -1 -1</clus>
<clus scale="  300.000">  1  4  2 -1</clus>
</clustering>
</event>
<event>
 6    1  0.1033679E-011  0.3000000E+03  0.7818608E-02  0.1093470E+00
          1   -1    0    0  502    0  0.00000000000E+00  0.00000000000E+00  0.23199560055E+03  0.23199560055E+03  0.00000000000E+00 0.  1.
         13   -1    0    0    0    0 -0.00000000000E+00 -0.00000000000E+00 -0.27500000000E+03  0.27500000000E+03  0.00000000000E+00 0.  1.
    9000005    2    1    2  501    0 -0.15600878969E+02 -0.28181841646E+02 -0.51784509568E+02  0.47360856779E+03  0.46966566452E+03 0.  0.
         13    1    3    3    0    0 -0.12694267470E+03  0.15612008041E+03  0.85085612449E+02  0.21846620703E+03  0.00000000000E+00 0.  1.
          1    1    3    3  501    0  0.11134179574E+03 -0.18430192206E+03 -0.13687012202E+03  0.25514236076E+03  0.00000000000E+00 0.  1.
         21    1    1    2  502  501  0.15600878969E+02  0.28181841646E+02  0.87801101223E+01  0.33387032766E+02  0.00000000000E+00 0.  1.
<scales pt_clust_4="550.00000" pt_clust_5="550.00000" pt_clust_6="32.21186"></scales>
<mgrwt>
<rscale>  0 0.30000000E+03</rscale>
<asrwt>  1 0.32211855E+02</asrwt>
<pdfrwt beam="1">  1        1 0.84362037E+00 0.30000000E+03</pdfrwt>
<pdfrwt beam="2">0</pdfrwt>
<totfact> 0.47171009E-04</totfact>
</mgrwt>
<clustering>
<clus scale="   32.212">  1  6  2 -1</clus>
<clus scale="  469.666">  4  5 -1 -1</clus>
<clus scale="  300.000">  1  4  2 -1</clus>
</clustering>
</event>
<event>
 6    1  0.1033679E-011  0.3000000E+03  0.7818608E-02  0.1093470E+00
          1   -1    0    0  502    0  0.00000000000E+00  0.00000000000E+00  0.25232636874E+03  0.25232636874E+03  0.00000000000E+00 0.  1.
         13   -1    0    0    0    0 -0.00000000000E+00 -0.00000000000E+00 -0.27500000000E+03  0.27500000000E+03  0.00000000000E+00 0.  1.
    9000005    2    1    2  501    0 -0.42929810383E+02  0.31371795041E+01 -0.18688133528E+02  0.48409796711E+03  0.48181820733E+03 0.  0.
         13    1    3    3    0    0 -0.24770080655E+03 -0.48790072579E+02 -0.78777671097E+02  0.26446565413E+03  0.00000000000E+00 0.  1.
          1    1    3    3  501    0  0.20477099617E+03  0.51927252083E+02  0.60089537568E+02  0.21963231298E+03  0.00000000000E+00 0.  1.
         21    1    1    2  502  501  0.42929810383E+02 -0.31371795041E+01 -0.39854977353E+01  0.43228401624E+02  0.00000000000E+00 0. -1.
<scales pt_clust_4="550.00000" pt_clust_5="550.00000" pt_clust_6="43.04431"></scales>
<mgrwt>
<rscale>  0 0.30000000E+03</rscale>
<asrwt>  1 0.43044307E+02</asrwt>
<pdfrwt beam="1">  1        1 0.91755043E+00 0.30000000E+03</pdfrwt>
<pdfrwt beam="2">0</pdfrwt>
<totfact> 0.45581469E-05</totfact>
</mgrwt>
<clustering>
<clus scale="   43.044">  1  6  2 -1</clus>
<clus scale="  481.818">  4  5 -1 -1</clus>
<clus scale="  300.000">  1  4  2 -1</clus>
</clustering>
</event>
<event>
 6    1  0.1033679E-011  0.3000000E+03  0.7818608E-02  0.1093470E+00
          1   -1    0    0  502    0  0.00000000000E+00  0.00000000000E+00  0.23031839966E+03  0.23031839966E+03  0.00000000000E+00 0.  1.
         13   -1    0    0    0    0 -0.00000000000E+00 -0.00000000000E+00 -0.27500000000E+03  0.27500000000E+03  0.00000000000E+00 0.  1.
    9000005    2    1    2  501    0 -0.32630858666E+02 -0.28045857176E+01 -0.54026375781E+02  0.47126016326E+03  0.46700605302E+03 0.  0.
         13    1    3    3    0    0 -0.23424549696E+03  0.39289557638E+02 -0.10405245014E+03  0.25930972709E+03  0.00000000000E+00 0.  1.
          3    1    3    3  501    0  0.20161463829E+03 -0.42094143355E+02  0.50026074358E+02  0.21195043617E+03  0.00000000000E+00 0.  1.
         21    1    1    2  502  501  0.32630858666E+02  0.28045857176E+01  0.93447754397E+01  0.34058236395E+02  0.00000000000E+00 0. -1.
<scales pt_clust_4="550.00000" pt_clust_5="550.00000" pt_clust_6="32.75116"></scales>
<mgrwt>
<rscale>  0 0.30000000E+03</rscale>
<asrwt>  1 0.32751162E+02</asrwt>
<pdfrwt beam="1">  1        1 0.83752145E+00 0.30000000E+03</pdfrwt>
<pdfrwt beam="2">0</pdfrwt>
<totfact> 0.52515755E-04</totfact>
</mgrwt>
<clustering>
<clus scale="   32.751">  1  6  2 -1</clus>
<clus scale="  467.006">  4  5 -1 -1</clus>
<clus scale="  300.000">  1  4  2 -1</clus>
</clustering>
</event>
<event>
 6    1  0.1033679E-011  0.3000000E+03  0.7818608E-02  0.1093470E+00
          1   -1    0    0  502    0  0.00000000000E+00  0.00000000000E+00  0.24717419781E+03  0.24717419781E+03  0.00000000000E+00 0.  1.
         13   -1    0    0    0    0 -0.00000000000E+00 -0.00000000000E+00 -0.27500000000E+03  0.27500000000E+03  0.00000000000E+00 0.  1.
    9000005    2    1    2  501    0  0.13291327565E+02  0.31932136297E+02 -0.53819682419E+02  0.47890755331E+03  0.47461517642E+03 0.  0.
         13    1    3    3    0    0  0.10750005525E+03 -0.84103853485E+02  0.16486006182E+03  0.21402934386E+03  0.00000000000E+00 0.  1.
          3    1    3    3  501    0 -0.94208727687E+02  0.11603598978E+03 -0.21867974424E+03  0.26487820945E+03  0.00000000000E+00 0.  1.
         21    1    1    2  502  501 -0.13291327565E+02 -0.31932136297E+02  0.25993880230E+02  0.43266644501E+02  0.00000000000E+00 0. -1.
<scales pt_clust_4="550.00000" pt_clust_5="550.00000" pt_clust_6="34.58787"></scales>
<mgrwt>
<rscale>  0 0.30000000E+03</rscale>
<asrwt>  1 0.34587870E+02</asrwt>
<pdfrwt beam="1">  1        1 0.89881526E+00 0.30000000E+03</pdfrwt>
<pdfrwt beam="2">0</pdfrwt>
<totfact> 0.11442080E-04</totfact>
</mgrwt>
<clustering>
<clus scale="   34.588">  1  6  2 -1</clus>
<clus scale="  474.615">  4  5 -1 -1</clus>
<clus scale="  300.000">  1  4  2 -1</clus>
</clustering>
</event>
<event>
 6    1  0.1033679E-011  0.3000000E+03  0.7818608E-02  0.1093470E+00
          1   -1    0    0  502    0  0.00000000000E+00  0.00000000000E+00  0.25216675366E+03  0.25216675366E+03  0.00000000000E+00 0.  1.
         13   -1    0    0    0    0 -0.00000000000E+00 -0.00000000000E+00 -0.27500000000E+03  0.27500000000E+03  0.00000000000E+00 0.  1.
    9000005    2    1    2  501    0  0.33815433149E+02  0.11254661657E+01 -0.18946809741E+02  0.49311011579E+03  0.49158300877E+03 0.  0.
         13    1    3    3    0    0  0.73276108002E+02  0.62614628572E+02  0.22163127434E+03  0.24168243933E+03  0.00000000000E+00 0.  1.
          3    1    3    3  501    0 -0.39460674853E+02 -0.61489162406E+02 -0.24057808408E+03  0.25142767647E+03  0.00000000000E+00 0.  1.
         21    1    1    2  502  501 -0.33815433149E+02 -0.11254661657E+01 -0.38864365999E+01  0.34056637864E+02  0.00000000000E+00 0.  1.
<scales pt_clust_4="550.00000" pt_clust_5="550.00000" pt_clust_6="33.83417"></scales>
<mgrwt>
<rscale>  0 0.30000000E+03</rscale>
<asrwt>  1 0.33834174E+02</asrwt>
<pdfrwt beam="1">  1        1 0.91697001E+00 0.30000000E+03</pdfrwt>
<pdfrwt beam="2">0</pdfrwt>
<totfact> 0.49105396E-05</totfact>
</mgrwt>
<clustering>
<clus scale="   33.834">  1  6  2 -1</clus>
<clus scale="  491.583">  4  5 -1 -1</clus>
<clus scale="  300.000">  1  4  2 -1</clus>
</clustering>
</event>
<event>
 6    1  0.1033679E-011  0.3000000E+03  0.7818608E-02  0.1093470E+00
          1   -1    0    0  502    0  0.00000000000E+00  0.00000000000E+00  0.22988939569E+03  0.22988939569E+03  0.00000000000E+00 0.  1.
         13   -1    0    0    0    0 -0.00000000000E+00 -0.00000000000E+00 -0.27500000000E+03  0.27500000000E+03  0.00000000000E+00 0.  1.
    9000005    2    1    2  501    0 -0.11621857176E+02 -0.36052301199E+02 -0.37342912286E+02  0.46622192841E+03  0.46317767374E+03 0.  0.
         13    1    3    3    0    0 -0.19063586891E+03 -0.11633789618E+03 -0.11976698669E+03  0.25341797826E+03  0.00000000000E+00 0.  1.
          3    1    3    3  501    0  0.17901401173E+03  0.80285594984E+02  0.82424074406E+02  0.21280395015E+03  0.00000000000E+00 0.  1.
         21    1    1    2  502  501  0.11621857176E+02  0.36052301199E+02 -0.77676920283E+01  0.38667467274E+02  0.00000000000E+00 0.  1.
<scales pt_clust_4="550.00000" pt_clust_5="550.00000" pt_clust_6="37.87925"></scales>
<mgrwt>
<rscale>  0 0.30000000E+03</rscale>
<asrwt>  1 0.37879248E+02</asrwt>
<pdfrwt beam="1">  1        1 0.83596144E+00 0.30000000E+03</pdfrwt>
<pdfrwt beam="2">0</pdfrwt>
<totfact> 0.52458980E-04</totfact>
</mgrwt>
<clustering>
<clus scale="   37.879">  1  6  2 -1</clus>
<clus scale="  463.178">  4  5 -1 -1</clus>
<clus scale="  300.000">  1  4  2 -1</clus>
</clustering>
</event>
<event>
 6    1  0.1033679E-011  0.3000000E+03  0.7818608E-02  0.1093470E+00
          1   -1    0    0  502    0  0.00000000000E+00  0.00000000000E+00  0.24886036102E+03  0.24886036102E+03  0.00000000000E+00 0.  1.
         13   -1    0    0    0    0 -0.00000000000E+00 -0.00000000000E+00 -0.27500000000E+03  0.27500000000E+03  0.00000000000E+00 0.  1.
    9000005    2    1    2  501    0  0.18084029747E+02  0.49681569711E+02 -0.54196126904E+02  0.46400673109E+03  0.45778787209E+03 0.  0.
         13    1    3    3    0    0  0.18489637207E+03 -0.10740241844E+03  0.37714785988E+02  0.21712750395E+03  0.00000000000E+00 0.  1.
          1    1    3    3  501    0 -0.16681234232E+03  0.15708398815E+03 -0.91910912892E+02  0.24687922714E+03  0.00000000000E+00 0.  1.
         21    1    1    2  502  501 -0.18084029747E+02 -0.49681569711E+02  0.28056487928E+02  0.59853629929E+02  0.00000000000E+00 0.  1.
<scales pt_clust_4="550.00000" pt_clust_5="550.00000" pt_clust_6="52.87051"></scales>
<mgrwt>
<rscale>  0 0.30000000E+03</rscale>
<asrwt>  1 0.52870507E+02</asrwt>
<pdfrwt beam="1">  1        1 0.90494677E+00 0.30000000E+03</pdfrwt>
<pdfrwt beam="2">0</pdfrwt>
<totfact> 0.86040748E-05</totfact>
</mgrwt>
<clustering>
<clus scale="   52.871">  1  6  2 -1</clus>
<clus scale="  457.788">  4  5 -1 -1</clus>
<clus scale="  300.000">  1  4  2 -1</clus>
</clustering>
</event>
<event>
 6    1  0.1033679E-011  0.3000000E+03  0.7818608E-02  0.1093470E+00
          1   -1    0    0  502    0  0.00000000000E+00  0.00000000000E+00  0.22484591311E+03  0.22484591311E+03  0.00000000000E+00 0.  1.
         13   -1    0    0    0    0 -0.00000000000E+00 -0.00000000000E+00 -0.27500000000E+03  0.27500000000E+03  0.00000000000E+00 0.  1.
    9000005    2    1    2  501    0  0.26854097514E+02  0.23320457943E+02 -0.55712655706E+02  0.46384752426E+03  0.45911397218E+03 0.  0.
         13    1    3    3    0    0 -0.21380772102E+03  0.40973262200E+02 -0.78597318353E+01  0.21784013673E+03  0.00000000000E+00 0.  1.
          1    1    3    3  501    0  0.24066181854E+03 -0.17652804257E+02 -0.47852923871E+02  0.24600738754E+03  0.00000000000E+00 0.  1.
         21    1    1    2  502  501 -0.26854097514E+02 -0.23320457943E+02  0.55585688112E+01  0.35998388842E+02  0.00000000000E+00 0. -1.
<scales pt_clust_4="550.00000" pt_clust_5="550.00000" pt_clust_6="35.56665"></scales>
<mgrwt>
<rscale>  0 0.30000000E+03</rscale>
<asrwt>  1 0.35566646E+02</asrwt>
<pdfrwt beam="1">  1        1 0.81762150E+00 0.30000000E+03</pdfrwt>
<pdfrwt beam="2">0</pdfrwt>
<totfact> 0.75542477E-04</totfact>
</mgrwt>
<clustering>
<clus scale="   35.567">  1  6  2 -1</clus>
<clus scale="  459.114">  4  5 -1 -1</clus>
<clus scale="  300.000">  1  4  2 -1</clus>
</clustering>
</event>
<event>
 6    1  0.1033679E-011  0.3000000E+03  0.7818608E-02  0.1093470E+00
          1   -1    0    0  502    0  0.00000000000E+00  0.00000000000E+00  0.22655062820E+03  0.22655062820E+03  0.00000000000E+00 0.  1.
         13   -1    0    0    0    0 -0.00000000000E+00 -0.00000000000E+00 -0.27500000000E+03  0.27500000000E+03  0.00000000000E+00 0.  1.
    9000005    2    1    2  501    0 -0.38251244380E+02  0.54096592517E+01 -0.54269304244E+02  0.46248281890E+03  0.45766011218E+03 0.  0.
         13    1    3    3    0    0  0.69476220639E+02  0.13992454787E+03 -0.18793411145E+03  0.24438709986E+03  0.00000000000E+00 0.  1.
          3    1    3    3  501    0 -0.10772746502E+03 -0.13451488862E+03  0.13366480721E+03  0.21809571904E+03  0.00000000000E+00 0.  1.
         21    1    1    2  502  501  0.38251244380E+02 -0.54096592517E+01  0.58199324442E+01  0.39067809300E+02  0.00000000000E+00 0.  1.
<scales pt_clust_4="550.00000" pt_clust_5="550.00000" pt_clust_6="38.63188"></scales>
<mgrwt>
<rscale>  0 0.30000000E+03</rscale>
<asrwt>  1 0.38631879E+02</asrwt>
<pdfrwt beam="1">  1        1 0.82382047E+00 0.30000000E+03</pdfrwt>
<pdfrwt beam="2">0</pdfrwt>
<totfact> 0.65707997E-04</totfact>
</mgrwt>
<clustering>
<clus scale="   38.632">  1  6  2 -1</clus>
<clus scale="  457.660">  4  5 -1 -1</clus>
<clus scale="  300.000">  1  4  2 -1</clus>
</clustering>
</event>
<event>
 6    1  0.1033679E-011  0.3000000E+03  0.7818608E-02  0.1093470E+00
          1   -1    0    0  502    0  0.00000000000E+00  0.00000000000E+00  0.22519077320E+03  0.22519077320E+03  0.00000000000E+00 0.  1.
         13   -1    0    0    0    0 -0.00000000000E+00 -0.00000000000E+00 -0.27500000000E+03  0.27500000000E+03  0.00000000000E+00 0.  1.
    9000005    2    1    2  501    0 -0.15313539774E+02  0.29154219855E+02 -0.55344916649E+02  0.46679740713E+03  0.46233352297E+03 0.  0.
         13    1    3    3    0    0  0.38206780217E+02 -0.16768830133E+03 -0.16229552777E+03  0.23647190698E+03  0.00000000000E+00 0.  1.
          3    1    3    3  501    0 -0.53520319992E+02  0.19684252119E+03  0.10695061112E+03  0.23032550015E+03  0.00000000000E+00 0.  1.
         21    1    1    2  502  501  0.15313539774E+02 -0.29154219855E+02  0.55356898514E+01  0.33393366077E+02  0.00000000000E+00 0.  1.
<scales pt_clust_4="550.00000" pt_clust_5="550.00000" pt_clust_6="32.93134"></scales>
<mgrwt>
<rscale>  0 0.30000000E+03</rscale>
<asrwt>  1 0.32931338E+02</asrwt>
<pdfrwt beam="1">  1        1 0.81887554E+00 0.30000000E+03</pdfrwt>
<pdfrwt beam="2">0</pdfrwt>
<totfact> 0.74806542E-04</totfact>
</mgrwt>
<clustering>
<clus scale="   32.931">  1  6  2 -1</clus>
<clus scale="  462.334">  4  5 -1 -1</clus>
<clus scale="  300.000">  1  4  2 -1</clus>
</clustering>
</event>
<event>
 6    1  0.1033679E-011  0.3000000E+03  0.7818608E-02  0.1093470E+00
          1   -1    0    0  502    0  0.00000000000E+00  0.00000000000E+00  0.24343107115E+03  0.24343107115E+03  0.00000000000E+00 0.  1.
         13   -1    0    0    0    0 -0.00000000000E+00 -0.00000000000E+00 -0.27500000000E+03  0.27500000000E+03  0.00000000000E+00 0.  1.
    9000005    2    1    2  501    0 -0.27893110819E+02  0.11087014758E+02 -0.57675977993E+02  0.47865010155E+03  0.47421351072E+03 0.  0.
         13    1    3    3    0    0 -0.11112697530E+03  0.15506544500E+03 -0.18763812088E+03  0.26758654914E+03  0.00000000000E+00 0.  1.
          3    1    3    3  501    0  0.83233864479E+02 -0.14397843025E+03  0.12996214289E+03  0.21106355241E+03  0.00000000000E+00 0.  1.
         21    1    1    2  502  501  0.27893110819E+02 -0.11087014758E+02  0.26107049142E+02  0.39780969600E+02  0.00000000000E+00 0.  1.
<scales pt_clust_4="550.00000" pt_clust_5="550.00000" pt_clust_6="30.01579"></scales>
<mgrwt>
<rscale>  0 0.30000000E+03</rscale>
<asrwt>  1 0.30015788E+02</asrwt>
<pdfrwt beam="1">  1        1 0.88520390E+00 0.30000000E+03</pdfrwt>
<pdfrwt beam="2">0</pdfrwt>
<totfact> 0.17360724E-04</totfact>
</mgrwt>
<clustering>
<clus scale="   30.016">  1  6  2 -1</clus>
<clus scale="  474.214">  4  5 -1 -1</clus>
<clus scale="  300.000">  1  4  2 -1</clus>
</clustering>
</event>
<event>
 6    1  0.1033679E-011  0.3000000E+03  0.7818608E-02  0.1093470E+00
          1   -1    0    0  502    0  0.00000000000E+00  0.00000000000E+00  0.23701710465E+03  0.23701710465E+03  0.00000000000E+00 0.  1.
         13   -1    0    0    0    0 -0.00000000000E+00 -0.00000000000E+00 -0.27500000000E+03  0.27500000000E+03  0.00000000000E+00 0.  1.
    9000005    2    1    2  501    0 -0.41036334085E+02  0.22108513356E+02 -0.50672914407E+02  0.46370764738E+03  0.45856762959E+03 0.  0.
         13    1    3    3    0    0 -0.20720226879E+02 -0.12846345090E+03 -0.20777215411E+03  0.24515597901E+03  0.00000000000E+00 0.  1.
          3    1    3    3  501    0 -0.20316107206E+02  0.15057196426E+03  0.15709923970E+03  0.21855166837E+03  0.00000000000E+00 0.  1.
         21    1    1    2  502  501  0.41036334085E+02 -0.22108513356E+02  0.12690019052E+02  0.48309457267E+02  0.00000000000E+00 0.  1.
<scales pt_clust_4="550.00000" pt_clust_5="550.00000" pt_clust_6="46.61295"></scales>
<mgrwt>
<rscale>  0 0.30000000E+03</rscale>
<asrwt>  1 0.46612950E+02</asrwt>
<pdfrwt beam="1">  1        1 0.86188038E+00 0.30000000E+03</pdfrwt>
<pdfrwt beam="2">0</pdfrwt>
<totfact> 0.29305794E-04</totfact>
</mgrwt>
<clustering>
<clus scale="   46.613">  1  6  2 -1</clus>
<clus scale="  458.568">  4  5 -1 -1</clus>
<clus scale="  300.000">  1  4  2 -1</clus>
</clustering>
</event>
<event>
 6    1  0.1033679E-011  0.3000000E+03  0.7818608E-02  0.1093470E+00
          1   -1    0    0  502    0  0.00000000000E+00  0.00000000000E+00  0.23894874298E+03  0.23894874298E+03  0.00000000000E+00 0.  1.
         13   -1    0    0    0    0 -0.00000000000E+00 -0.00000000000E+00 -0.27500000000E+03  0.27500000000E+03  0.00000000000E+00 0.  1.
    9000005    2    1    2  501    0 -0.25932322513E+02  0.15474896890E+02 -0.51715344398E+02  0.47992931591E+03  0.47617823726E+03 0.  0.
         13    1    3    3    0    0  0.20292246498E+03 -0.63747306029E+02  0.47960665591E+02  0.21804006802E+03  0.00000000000E+00 0.  1.
          1    1    3    3  501    0 -0.22885478749E+03  0.79222202919E+02 -0.99676009989E+02  0.26188924789E+03  0.00000000000E+00 0.  1.
         21    1    1    2  502  501  0.25932322513E+02 -0.15474896890E+02  0.15664087383E+02  0.34019427071E+02  0.00000000000E+00 0. -1.
<scales pt_clust_4="550.00000" pt_clust_5="550.00000" pt_clust_6="30.19864"></scales>
<mgrwt>
<rscale>  0 0.30000000E+03</rscale>
<asrwt>  1 0.30198639E+02</asrwt>
<pdfrwt beam="1">  1        1 0.86890452E+00 0.30000000E+03</pdfrwt>
<pdfrwt beam="2">0</pdfrwt>
<totfact> 0.26726574E-04</totfact>
</mgrwt>
<clustering>
<clus scale="   30.199">  1  6  2 -1</clus>
<clus scale="  476.178">  4  5 -1 -1</clus>
<clus scale="  300.000">  1  4  2 -1</clus>
</clustering>
</event>
<event>
 6    1  0.1033679E-011  0.3000000E+03  0.7818608E-02  0.1093470E+00
          1   -1    0    0  502    0  0.00000000000E+00  0.00000000000E+00  0.22770074309E+03  0.22770074309E+03  0.00000000000E+00 0.  1.
         13   -1    0    0    0    0 -0.00000000000E+00 -0.00000000000E+00 -0.27500000000E+03  0.27500000000E+03  0.00000000000E+00 0.  1.
    9000005    2    1    2  501    0 -0.32617330937E+02  0.11284687814E+02 -0.65100937655E+02  0.46386603833E+03  0.45797634762E+03 0.  0.
         13    1    3    3    0    0 -0.17570768534E+02  0.14214655838E+03 -0.21875832182E+03  0.26147577197E+03  0.00000000000E+00 0.  1.
          3    1    3    3  501    0 -0.15046562403E+02 -0.13086187056E+03  0.15365738416E+03  0.20239026635E+03  0.00000000000E+00 0.  1.
         21    1    1    2  502  501  0.32617330937E+02 -0.11284687814E+02  0.17801680744E+02  0.38834704760E+02  0.00000000000E+00 0.  1.
<scales pt_clust_4="550.00000" pt_clust_5="550.00000" pt_clust_6="34.51426"></scales>
<mgrwt>
<rscale>  0 0.30000000E+03</rscale>
<asrwt>  1 0.34514265E+02</asrwt>
<pdfrwt beam="1">  1        1 0.82800270E+00 0.30000000E+03</pdfrwt>
<pdfrwt beam="2">0</pdfrwt>
<totfact> 0.61612309E-04</totfact>
</mgrwt>
<clustering>
<clus scale="   34.514">  1  6  2 -1</clus>
<clus scale="  457.976">  4  5 -1 -1</clus>
<clus scale="  300.000">  1  4  2 -1</clus>
</clustering>
</event>
<event>
 6    1  0.1033679E-011  0.3000000E+03  0.7818608E-02  0.1093470E+00
          1   -1    0    0  502    0  0.00000000000E+00  0.00000000000E+00  0.23593911202E+03  0.23593911202E+03  0.00000000000E+00 0.  1.
         13   -1    0    0    0    0 -0.00000000000E+00 -0.00000000000E+00 -0.27500000000E+03  0.27500000000E+03  0.00000000000E+00 0.  1.
    9000005    2    1    2  501    0  0.31361578952E+02  0.43367302461E+01 -0.49857942622E+02  0.47748866729E+03  0.47382196771E+03 0.  0.
         13    1    3    3    0    0  0.19764976878E+03 -0.11133691278E+03  0.75723031778E+02  0.23915542392E+03  0.00000000000E+00 0.  1.
          3    1    3    3  501    0 -0.16628818983E+03  0.11567364303E+03 -0.12558097440E+03  0.23833324338E+03  0.00000000000E+00 0.  1.
         21    1    1    2  502  501 -0.31361578952E+02 -0.43367302461E+01  0.10797054643E+02  0.33450444729E+02  0.00000000000E+00 0.  1.
<scales pt_clust_4="550.00000" pt_clust_5="550.00000" pt_clust_6="31.66000"></scales>
<mgrwt>
<rscale>  0 0.30000000E+03</rscale>
<asrwt>  1 0.31660004E+02</asrwt>
<pdfrwt beam="1">  1        1 0.85796041E+00 0.30000000E+03</pdfrwt>
<pdfrwt beam="2">0</pdfrwt>
<totfact> 0.34639888E-04</totfact>
</mgrwt>
<clustering>
<clus scale="   31.660">  1  6  2 -1</clus>
<clus scale="  473.822">  4  5 -1 -1</clus>
<clus scale="  300.000">  1  4  2 -1</clus>
</clustering>
</event>
<event>
 6    1  0.1033679E-011  0.3000000E+03  0.7818608E-02  0.1093470E+00
          1   -1    0    0  502    0  0.00000000000E+00  0.00000000000E+00  0.23651586453E+03  0.23651586453E+03  0.00000000000E+00 0.  1.
         13   -1    0    0    0    0 -0.00000000000E+00 -0.00000000000E+00 -0.27500000000E+03  0.27500000000E+03  0.00000000000E+00 0.  1.
    9000005    2    1    2  501    0 -0.18283965821E+02  0.36080623819E+02 -0.24829881220E+02  0.46882448975E+03  0.46641587062E+03 0.  0.
         13    1    3    3    0    0  0.14218517046E+03 -0.13883153032E+03 -0.96439747471E+02  0.22088784802E+03  0.00000000000E+00 0.  1.
          1    1    3    3  501    0 -0.16046913628E+03  0.17491215414E+03  0.71609866251E+02  0.24793664173E+03  0.00000000000E+00 0.  1.
         21    1    1    2  502  501  0.18283965821E+02 -0.36080623819E+02 -0.13654254254E+02  0.42691374779E+02  0.00000000000E+00 0.  1.
<scales pt_clust_4="550.00000" pt_clust_5="550.00000" pt_clust_6="40.44894"></scales>
<mgrwt>
<rscale>  0 0.30000000E+03</rscale>
<asrwt>  1 0.40448936E+02</asrwt>
<pdfrwt beam="1">  1        1 0.86005769E+00 0.30000000E+03</pdfrwt>
<pdfrwt beam="2">0</pdfrwt>
<totfact> 0.31449376E-04</totfact>
</mgrwt>
<clustering>
<clus scale="   40.449">  1  6  2 -1</clus>
<clus scale="  466.416">  4  5 -1 -1</clus>
<clus scale="  300.000">  1  4  2 -1</clus>
</clustering>
</event>
<event>
 6    1  0.1033679E-011  0.3000000E+03  0.7818608E-02  0.1093470E+00
          1   -1    0    0  502    0  0.00000000000E+00  0.00000000000E+00  0.23836895842E+03  0.23836895842E+03  0.00000000000E+00 0.  1.
         13   -1    0    0    0    0 -0.00000000000E+00 -0.00000000000E+00 -0.27500000000E+03  0.27500000000E+03  0.00000000000E+00 0.  1.
    9000005    2    1    2  501    0  0.38178761312E+02  0.45494773608E+01 -0.41819080270E+01  0.46305731137E+03  0.46143934564E+03 0.  0.
         13    1    3    3    0    0  0.12167514539E+02  0.64647461465E+02 -0.22412133478E+03  0.23357593067E+03  0.00000000000E+00 0.  1.
          1    1    3    3  501    0  0.26011246773E+02 -0.60097984105E+02  0.21993942675E+03  0.22948138071E+03  0.00000000000E+00 0.  1.
         21    1    1    2  502  501 -0.38178761312E+02 -0.45494773608E+01 -0.32449133557E+02  0.50311647043E+02  0.00000000000E+00 0.  1.
<scales pt_clust_4="550.00000" pt_clust_5="550.00000" pt_clust_6="38.44889"></scales>
<mgrwt>
<rscale>  0 0.30000000E+03</rscale>
<asrwt>  1 0.38448889E+02</asrwt>
<pdfrwt beam="1">  1        1 0.86679621E+00 0.30000000E+03</pdfrwt>
<pdfrwt beam="2">0</pdfrwt>
<totfact> 0.26864201E-04</totfact>
</mgrwt>
<clustering>
<clus scale="   38.449">  1  6  2 -1</clus>
<clus scale="  461.439">  4  5 -1 -1</clus>
<clus scale="  300.000">  1  4  2 -1</clus>
</clustering>
</event>
<event>
 6    1  0.1033679E-011  0.3000000E+03  0.7818608E-02  0.1093470E+00
          1   -1    0    0  502    0  0.00000000000E+00  0.00000000000E+00  0.22568752129E+03  0.22568752129E+03  0.00000000000E+00 0.  1.
         13   -1    0    0    0    0 -0.00000000000E+00 -0.00000000000E+00 -0.27500000000E+03  0.27500000000E+03  0.00000000000E+00 0.  1.
    9000005    2    1    2  501    0  0.10711729688E+02  0.30007056908E+02 -0.51870900341E+02  0.46872332041E+03  0.46475347892E+03 0.  0.
         13    1    3    3    0    0  0.15476116031E+03 -0.76643284677E+02 -0.17919450254E+03  0.24886920173E+03  0.00000000000E+00 0.  1.
          3    1    3    3  501    0 -0.14404943062E+03  0.10665034158E+03  0.12732360220E+03  0.21985411868E+03  0.00000000000E+00 0.  1.
         21    1    1    2  502  501 -0.10711729688E+02 -0.30007056908E+02  0.25584216350E+01  0.31964200889E+02  0.00000000000E+00 0. -1.
<scales pt_clust_4="550.00000" pt_clust_5="550.00000" pt_clust_6="31.86165"></scales>
<mgrwt>
<rscale>  0 0.30000000E+03</rscale>
<asrwt>  1 0.31861648E+02</asrwt>
<pdfrwt beam="1">  1        1 0.82068190E+00 0.30000000E+03</pdfrwt>
<pdfrwt beam="2">0</pdfrwt>
<totfact> 0.72623651E-04</totfact>
</mgrwt>
<clustering>
<clus scale="   31.862">  1  6  2 -1</clus>
<clus scale="  464.753">  4  5 -1 -1</clus>
<clus scale="  300.000">  1  4  2 -1</clus>
</clustering>
</event>
<event>
 6    1  0.1033679E-011  0.3000000E+03  0.7818608E-02  0.1093470E+00
          1   -1    0    0  502    0  0.00000000000E+00  0.00000000000E+00  0.23362651611E+03  0.23362651611E+03  0.00000000000E+00 0.  1.
         13   -1    0    0    0    0 -0.00000000000E+00 -0.00000000000E+00 -0.27500000000E+03  0.27500000000E+03  0.00000000000E+00 0.  1.
    9000005    2    1    2  501    0  0.39816916343E+02 -0.37729317547E+01 -0.63286925304E+02  0.46302146424E+03  0.45692889993E+03 0.  0.
         13    1    3    3    0    0  0.10203319064E+03 -0.27566575235E+02 -0.24643117665E+03  0.26813991289E+03  0.00000000000E+00 0.  1.
          3    1    3    3  501    0 -0.62216274298E+02  0.23793643480E+02  0.18314425134E+03  0.19488155135E+03  0.00000000000E+00 0.  1.
         21    1    1    2  502  501 -0.39816916343E+02  0.37729317547E+01  0.21913441411E+02  0.45605051864E+02  0.00000000000E+00 0.  1.
<scales pt_clust_4="550.00000" pt_clust_5="550.00000" pt_clust_6="39.99527"></scales>
<mgrwt>
<rscale>  0 0.30000000E+03</rscale>
<asrwt>  1 0.39995273E+02</asrwt>
<pdfrwt beam="1">  1        1 0.84955097E+00 0.30000000E+03</pdfrwt>
<pdfrwt beam="2">0</pdfrwt>
<totfact> 0.40093830E-04</totfact>
</mgrwt>
<clustering>
<clus scale="   39.995">  1  6  2 -1</clus>
<clus scale="  456.929">  4  5 -1 -1</clus>
<clus scale="  300.000">  1  4  2 -1</clus>
</clustering>
</event>
<event>
 6    1  0.1033679E-011  0.3000000E+03  0.7818608E-02  0.1093470E+00
          1   -1    0    0  502    0  0.00000000000E+00  0.00000000000E+00  0.22746328618E+03  0.22746328618E+03  0.00000000000E+00 0.  1.
         13   -1    0    0    0    0 -0.00000000000E+00 -0.00000000000E+00 -0.27500000000E+03  0.27500000000E+03  0.00000000000E+00 0.  1.
    9000005    2    1    2  501    0  0.12249631266E+02 -0.37817399427E+02 -0.50828798152E+02  0.46257535587E+03  0.45805259957E+03 0.  0.
         13    1    3    3    0    0  0.88423984572E+02  0.18313735108E+03 -0.95424774474E+02  0.22464188833E+03  0.00000000000E+00 0.  1.
          1    1    3    3  501    0 -0.76174353306E+02 -0.22095475051E+03  0.44595976322E+02  0.23793346754E+03  0.00000000000E+00 0.  1.
         21    1    1    2  502  501 -0.12249631266E+02  0.37817399427E+02  0.32920843356E+01  0.39887930315E+02  0.00000000000E+00 0. -1.
<scales pt_clust_4="550.00000" pt_clust_5="550.00000" pt_clust_6="39.75184"></scales>
<mgrwt>
<rscale>  0 0.30000000E+03</rscale>
<asrwt>  1 0.39751845E+02</asrwt>
<pdfrwt beam="1">  1        1 0.82713922E+00 0.30000000E+03</pdfrwt>
<pdfrwt beam="2">0</pdfrwt>
<totfact> 0.61071734E-04</totfact>
</mgrwt>
<clustering>
<clus scale="   39.752">  1  6  2 -1</clus>
<clus scale="  458.053">  4  5 -1 -1</clus>
<clus scale="  300.000">  1  4  2 -1</clus>
</clustering>
</event>
<event>
 6    1  0.1033679E-011  0.3000000E+03  0.7818608E-02  0.1093470E+00
          1   -1    0    0  502    0  0.00000000000E+00  0.00000000000E+00  0.23718614572E+03  0.23718614572E+03  0.00000000000E+00 0.  1.
         13   -1    0    0    0    0 -0.00000000000E+00 -0.00000000000E+00 -0.27500000000E+03  0.27500000000E+03  0.00000000000E+00 0.  1.
    9000005    2    1    2  501    0 -0.24346995437E+02  0.29123526490E+02 -0.49287019439E+02  0.47253025712E+03  0.46841720466E+03 0.  0.
         13    1    3    3    0    0  0.65578586699E+02  0.67421090945E+02 -0.24025155357E+03  0.25800574322E+03  0.00000000000E+00 0.  1.
          3    1    3    3  501    0 -0.89925582137E+02 -0.38297564455E+02  0.19096453414E+03  0.21452451390E+03  0.00000000000E+00 0.  1.
         21    1    1    2  502  501  0.24346995437E+02 -0.29123526490E+02  0.11473165154E+02  0.39655888600E+02  0.00000000000E+00 0.  1.
<scales pt_clust_4="550.00000" pt_clust_5="550.00000" pt_clust_6="37.95993"></scales>
<mgrwt>
<rscale>  0 0.30000000E+03</rscale>
<asrwt>  1 0.37959926E+02</asrwt>
<pdfrwt beam="1">  1        1 0.86249508E+00 0.30000000E+03</pdfrwt>
<pdfrwt beam="2">0</pdfrwt>
<totfact> 0.29952812E-04</totfact>
</mgrwt>
<clustering>
<clus scale="   37.960">  1  6  2 -1</clus>
<clus scale="  468.417">  4  5 -1 -1</clus>
<clus scale="  300.000">  1  4  2 -1</clus>
</clustering>
</event>
<event>
 6    1  0.1033679E-011  0.3000000E+03  0.7818608E-02  0.1093470E+00
          1   -1    0    0  502    0  0.00000000000E+00  0.00000000000E+00  0.23468745865E+03  0.23468745865E+03  0.00000000000E+00 0.  1.
         13   -1    0    0    0    0 -0.00000000000E+00 -0.00000000000E+00 -0.27500000000E+03  0.27500000000E+03  0.00000000000E+00 0.  1.
    9000005    2    1    2  501    0 -0.21822642387E+02 -0.20763770073E+02 -0.70045662867E+02  0.46736228430E+03  0.46110058342E+03 0.  0.
         13    1    3    3    0    0 -0.24116973268E+03  0.35554715075E+01 -0.29770865999E+02  0.24302630681E+03  0.00000000000E+00 0.  1.
          1    1    3    3  501    0  0.21934709030E+03 -0.24319241581E+02 -0.40274796869E+02  0.22433597749E+03  0.00000000000E+00 0.  1.
         21    1    1    2  502  501  0.21822642387E+02  0.20763770073E+02  0.29733121516E+02  0.42325174347E+02  0.00000000000E+00 0.  1.
<scales pt_clust_4="550.00000" pt_clust_5="550.00000" pt_clust_6="30.12245"></scales>
<mgrwt>
<rscale>  0 0.30000000E+03</rscale>
<asrwt>  1 0.30122448E+02</asrwt>
<pdfrwt beam="1">  1        1 0.85340894E+00 0.30000000E+03</pdfrwt>
<pdfrwt beam="2">0</pdfrwt>
<totfact> 0.38852001E-04</totfact>
</mgrwt>
<clustering>
<clus scale="   30.122">  1  6  2 -1</clus>
<clus scale="  461.101">  4  5 -1 -1</clus>
<clus scale="  300.000">  1  4  2 -1</clus>
</clustering>
</event>
<event>
 6    1  0.1033679E-011  0.3000000E+03  0.7818608E-02  0.1093470E+00
          1   -1    0    0  502    0  0.00000000000E+00  0.00000000000E+00  0.24620705571E+03  0.24620705571E+03  0.00000000000E+00 0.  1.
         13   -1    0    0    0    0 -0.00000000000E+00 -0.00000000000E+00 -0.27500000000E+03  0.27500000000E+03  0.00000000000E+00 0.  1.
    9000005    2    1    2  501    0 -0.25736534703E+02 -0.16964519345E+02 -0.37707275050E+02  0.48911921645E+03  0.48668840666E+03 0.  0.
         13    1    3    3    0    0 -0.22677454060E+02  0.23108200181E+03 -0.60686770916E+02  0.23999175538E+03  0.00000000000E+00 0.  1.
          1    1    3    3  501    0 -0.30590806426E+01 -0.24804652116E+03  0.22979495866E+02  0.24912746108E+03  0.00000000000E+00 0.  1.
         21    1    1    2  502  501  0.25736534703E+02  0.16964519345E+02  0.89143307578E+01  0.32087839254E+02  0.00000000000E+00 0.  1.
<scales pt_clust_4="550.00000" pt_clust_5="550.00000" pt_clust_6="30.82473"></scales>
<mgrwt>
<rscale>  0 0.30000000E+03</rscale>
<asrwt>  1 0.30824733E+02</asrwt>
<pdfrwt beam="1">  1        1 0.89529838E+00 0.30000000E+03</pdfrwt>
<pdfrwt beam="2">0</pdfrwt>
<totfact> 0.12817086E-04</totfact>
</mgrwt>
<clustering>
<clus scale="   30.825">  1  6  2 -1</clus>
<clus scale="  486.688">  4  5 -1 -1</clus>
<clus scale="  300.000">  1  4  2 -1</clus>
</clustering>
</event>
<event>
 6    1  0.1033679E-011  0.3000000E+03  0.7818608E-02  0.1093470E+00
          1   -1    0    0  502    0  0.00000000000E+00  0.00000000000E+00  0.22800580166E+03  0.22800580166E+03  0.00000000000E+00 0.  1.
         13   -1    0    0    0    0 -0.00000000000E+00 -0.00000000000E+00 -0.27500000000E+03  0.27500000000E+03  0.00000000000E+00 0.  1.
    9000005    2    1    2  501    0 -0.23753470249E+02  0.21461374082E+02 -0.23548780581E+02  0.46332576209E+03  0.46161823927E+03 0.  0.
         13    1    3    3    0    0 -0.84626633772E+02 -0.20081549393E+03  0.45752907824E+02  0.22266984152E+03  0.00000000000E+00 0.  1.
          3    1    3    3  501    0  0.60873163523E+02  0.22227686801E+03 -0.69301688404E+02  0.24065592057E+03  0.00000000000E+00 0.  1.
         21    1    1    2  502  501  0.23753470249E+02 -0.21461374082E+02 -0.23445417759E+02  0.39680039570E+02  0.00000000000E+00 0.  1.
<scales pt_clust_4="550.00000" pt_clust_5="550.00000" pt_clust_6="32.01279"></scales>
<mgrwt>
<rscale>  0 0.30000000E+03</rscale>
<asrwt>  1 0.32012794E+02</asrwt>
<pdfrwt beam="1">  1        1 0.82911201E+00 0.30000000E+03</pdfrwt>
<pdfrwt beam="2">0</pdfrwt>
<totfact> 0.61140903E-04</totfact>
</mgrwt>
<clustering>
<clus scale="   32.013">  1  6  2 -1</clus>
<clus scale="  461.618">  4  5 -1 -1</clus>
<clus scale="  300.000">  1  4  2 -1</clus>
</clustering>
</event>
<event>
 6    1  0.1033679E-011  0.3000000E+03  0.7818608E-02  0.1093470E+00
          1   -1    0    0  502    0  0.00000000000E+00  0.00000000000E+00  0.24386795668E+03  0.24386795668E+03  0.00000000000E+00 0.  1.
         13   -1    0    0    0    0 -0.00000000000E+00 -0.00000000000E+00 -0.27500000000E+03  0.27500000000E+03  0.00000000000E+00 0.  1.
    9000005    2    1    2  501    0 -0.16807891381E+02 -0.33329554579E+02 -0.46978370747E+02  0.47831588504E+03  0.47453741069E+03 0.  0.
         13    1    3    3    0    0 -0.44334515369E+02  0.17930447419E+03  0.10781588173E+03  0.21386890393E+03  0.00000000000E+00 0.  1.
          1    1    3    3  501    0  0.27526623987E+02 -0.21263402877E+03 -0.15479425248E+03  0.26444698111E+03  0.00000000000E+00 0.  1.
         21    1    1    2  502  501  0.16807891381E+02  0.33329554579E+02  0.15846327430E+02  0.40552071638E+02  0.00000000000E+00 0. -1.
<scales pt_clust_4="550.00000" pt_clust_5="550.00000" pt_clust_6="37.32780"></scales>
<mgrwt>
<rscale>  0 0.30000000E+03</rscale>
<asrwt>  1 0.37327797E+02</asrwt>
<pdfrwt beam="1">  1        1 0.88679257E+00 0.30000000E+03</pdfrwt>
<pdfrwt beam="2">0</pdfrwt>
<totfact> 0.15841767E-04</totfact>
</mgrwt>
<clustering>
<clus scale="   37.328">  1  6  2 -1</clus>
<clus scale="  474.537">  4  5 -1 -1</clus>
<clus scale="  300.000">  1  4  2 -1</clus>
</clustering>
</event>
<event>
 6    1  0.1033679E-011  0.3000000E+03  0.7818608E-02  0.1093470E+00
          1   -1    0    0  502    0  0.00000000000E+00  0.00000000000E+00  0.22308032236E+03  0.22308032236E+03  0.00000000000E+00 0.  1.
         13   -1    0    0    0    0 -0.00000000000E+00 -0.00000000000E+00 -0.27500000000E+03  0.27500000000E+03  0.00000000000E+00 0.  1.
    9000005    2    1    2  501    0 -0.30653511428E+02 -0.90691553530E+01 -0.38301473318E+02  0.46333348321E+03  0.46063980122E+03 0.  0.
         13    1    3    3    0    0 -0.20862011944E+03 -0.11518860132E+03 -0.81149014227E+02  0.25174576584E+03  0.00000000000E+00 0.  1.
          3    1    3    3  501    0  0.17796660801E+03  0.10611944596E+03  0.42847540910E+02  0.21158771737E+03  0.00000000000E+00 0.  1.
         21    1    1    2  502  501  0.30653511428E+02  0.90691553530E+01 -0.13618204323E+02  0.34746839147E+02  0.00000000000E+00 0. -1.
<scales pt_clust_4="550.00000" pt_clust_5="550.00000" pt_clust_6="31.96699"></scales>
<mgrwt>
<rscale>  0 0.30000000E+03</rscale>
<asrwt>  1 0.31966989E+02</asrwt>
<pdfrwt beam="1">  1        1 0.81120117E+00 0.30000000E+03</pdfrwt>
<pdfrwt beam="2">0</pdfrwt>
<totfact> 0.86818730E-04</totfact>
</mgrwt>
<clustering>
<clus scale="   31.967">  1  6  2 -1</clus>
<clus scale="  460.640">  4  5 -1 -1</clus>
<clus scale="  300.000">  1  4  2 -1</clus>
</clustering>
</event>
<event>
 6    1  0.1033679E-011  0.3000000E+03  0.7818608E-02  0.1093470E+00
          1   -1    0    0  502    0  0.00000000000E+00  0.00000000000E+00  0.24364905188E+03  0.24364905188E+03  0.00000000000E+00 0.  1.
         13   -1    0    0    0    0 -0.00000000000E+00 -0.00000000000E+00 -0.27500000000E+03  0.27500000000E+03  0.00000000000E+00 0.  1.
    9000005    2    1    2  501    0  0.32550970819E+02  0.23978771115E+02 -0.67482119210E+02  0.46442720490E+03  0.45771633691E+03 0.  0.
         13    1    3    3    0    0  0.30764045482E+02  0.20292899767E+03 -0.16251800677E+03  0.26179898226E+03  0.00000000000E+00 0.  1.
          3    1    3    3  501    0  0.17869253371E+01 -0.17895022655E+03  0.95035887559E+02  0.20262822264E+03  0.00000000000E+00 0.  1.
         21    1    1    2  502  501 -0.32550970819E+02 -0.23978771115E+02  0.36131171094E+02  0.54221846981E+02  0.00000000000E+00 0. -1.
<scales pt_clust_4="550.00000" pt_clust_5="550.00000" pt_clust_6="40.42953"></scales>
<mgrwt>
<rscale>  0 0.30000000E+03</rscale>
<asrwt>  1 0.40429533E+02</asrwt>
<pdfrwt beam="1">  1        1 0.88599655E+00 0.30000000E+03</pdfrwt>
<pdfrwt beam="2">0</pdfrwt>
<totfact> 0.16011679E-04</totfact>
</mgrwt>
<clustering>
<clus scale="   40.430">  1  6  2 -1</clus>
<clus scale="  457.716">  4  5 -1 -1</clus>
<clus scale="  300.000">  1  4  2 -1</clus>
</clustering>
</event>
<event>
 6    1  0.1033679E-011  0.3000000E+03  0.7818608E-02  0.1093470E+00
          1   -1    0    0  502    0  0.00000000000E+00  0.00000000000E+00  0.21950981448E+03  0.21950981448E+03  0.00000000000E+00 0.  1.
         13   -1    0    0    0    0 -0.00000000000E+00 -0.00000000000E+00 -0.27500000000E+03  0.27500000000E+03  0.00000000000E+00 0.  1.
    9000005    2    1    2  501    0  0.11746696354E+02  0.27678153800E+02 -0.65098184862E+02  0.46294434720E+03  0.45735722347E+03 0.  0.
         13    1    3    3    0    0 -0.63110315654E+02 -0.18470946762E+03 -0.12262987480E+03  0.23051808077E+03  0.00000000000E+00 0.  1.
          3    1    3    3  501    0  0.74857012008E+02  0.21238762142E+03  0.57531689937E+02  0.23242626643E+03  0.00000000000E+00 0.  1.
         21    1    1    2  502  501 -0.11746696354E+02 -0.27678153800E+02  0.96079993397E+01  0.31565467276E+02  0.00000000000E+00 0. -1.
<scales pt_clust_4="550.00000" pt_clust_5="550.00000" pt_clust_6="30.06767"></scales>
<mgrwt>
<rscale>  0 0.30000000E+03</rscale>
<asrwt>  1 0.30067675E+02</asrwt>
<pdfrwt beam="1">  1        1 0.79821751E+00 0.30000000E+03</pdfrwt>
<pdfrwt beam="2">0</pdfrwt>
<totfact> 0.10995413E-03</totfact>
</mgrwt>
<clustering>
<clus scale="   30.068">  1  6  2 -1</clus>
<clus scale="  457.357">  4  5 -1 -1</clus>
<clus scale="  300.000">  1  4  2 -1</clus>
</clustering>
</event>
<event>
 6    1  0.1033679E-011  0.3000000E+03  0.7818608E-02  0.1093470E+00
          1   -1    0    0  502    0  0.00000000000E+00  0.00000000000E+00  0.25740150189E+03  0.25740150189E+03  0.00000000000E+00 0.  1.
         13   -1    0    0    0    0 -0.00000000000E+00 -0.00000000000E+00 -0.27500000000E+03  0.27500000000E+03  0.00000000000E+00 0.  1.
    9000005    2    1    2  501    0  0.57433963152E+01 -0.58476323179E+02 -0.27780021573E+01  0.47180353101E+03  0.46812219303E+03 0.  0.
         13    1    3    3    0    0  0.12718335327E+03 -0.15380566980E+03 -0.15673822066E+03  0.25376890910E+03  0.00000000000E+00 0.  1.
          1    1    3    3  501    0 -0.12143995695E+03  0.95329346620E+02  0.15396021850E+03  0.21803462191E+03  0.00000000000E+00 0.  1.
         21    1    1    2  502  501 -0.57433963152E+01  0.58476323179E+02 -0.14820495957E+02  0.60597970875E+02  0.00000000000E+00 0.  1.
<scales pt_clust_4="550.00000" pt_clust_5="550.00000" pt_clust_6="58.75773"></scales>
<mgrwt>
<rscale>  0 0.30000000E+03</rscale>
<asrwt>  1 0.58757727E+02</asrwt>
<pdfrwt beam="1">  1        1 0.93600546E+00 0.30000000E+03</pdfrwt>
<pdfrwt beam="2">0</pdfrwt>
<totfact> 0.19960958E-05</totfact>
</mgrwt>
<clustering>
<clus scale="   58.758">  1  6  2 -1</clus>
<clus scale="  468.122">  4  5 -1 -1</clus>
<clus scale="  300.000">  1  4  2 -1</clus>
</clustering>
</event>
<event>
 6    1  0.1033679E-011  0.3000000E+03  0.7818608E-02  0.1093470E+00
          1   -1    0    0  502    0  0.00000000000E+00  0.00000000000E+00  0.24615674309E+03  0.24615674309E+03  0.00000000000E+00 0.  1.
         13   -1    0    0    0    0 -0.00000000000E+00 -0.00000000000E+00 -0.27500000000E+03  0.27500000000E+03  0.00000000000E+00 0.  1.
    9000005    2    1    2  501    0  0.84149680115E+01  0.29325154044E+02 -0.37850974240E+02  0.48934612666E+03  0.48692520892E+03 0.  0.
         13    1    3    3    0    0 -0.10037096198E+03  0.34556276390E+02 -0.23849289666E+03  0.26105043192E+03  0.00000000000E+00 0.  1.
          1    1    3    3  501    0  0.10878592999E+03 -0.52311223459E+01  0.20064192242E+03  0.22829569474E+03  0.00000000000E+00 0.  1.
         21    1    1    2  502  501 -0.84149680115E+01 -0.29325154044E+02  0.90077173344E+01  0.31810616434E+02  0.00000000000E+00 0. -1.
<scales pt_clust_4="550.00000" pt_clust_5="550.00000" pt_clust_6="30.50863"></scales>
<mgrwt>
<rscale>  0 0.30000000E+03</rscale>
<asrwt>  1 0.30508627E+02</asrwt>
<pdfrwt beam="1">  1        1 0.89511543E+00 0.30000000E+03</pdfrwt>
<pdfrwt beam="2">0</pdfrwt>
<totfact> 0.12903141E-04</totfact>
</mgrwt>
<clustering>
<clus scale="   30.509">  1  6  2 -1</clus>
<clus scale="  486.925">  4  5 -1 -1</clus>
<clus scale="  300.000">  1  4  2 -1</clus>
</clustering>
</event>
<event>
 6    1  0.1033679E-011  0.3000000E+03  0.7818608E-02  0.1093470E+00
          1   -1    0    0  502    0  0.00000000000E+00  0.00000000000E+00  0.23634785838E+03  0.23634785838E+03  0.00000000000E+00 0.  1.
         13   -1    0    0    0    0 -0.00000000000E+00 -0.00000000000E+00 -0.27500000000E+03  0.27500000000E+03  0.00000000000E+00 0.  1.
    9000005    2    1    2  501    0 -0.34170507579E+02 -0.67781173573E+00 -0.50433635897E+02  0.47519697147E+03  0.47127542589E+03 0.  0.
         13    1    3    3    0    0 -0.19787050340E+03  0.10752126862E+03 -0.13385474590E+03  0.26197452609E+03  0.00000000000E+00 0.  1.
          1    1    3    3  501    0  0.16369999582E+03 -0.10819908035E+03  0.83421110006E+02  0.21322244538E+03  0.00000000000E+00 0.  1.
         21    1    1    2  502  501  0.34170507579E+02  0.67781173573E+00  0.11781494280E+02  0.36150886911E+02  0.00000000000E+00 0.  1.
<scales pt_clust_4="550.00000" pt_clust_5="550.00000" pt_clust_6="34.17723"></scales>
<mgrwt>
<rscale>  0 0.30000000E+03</rscale>
<asrwt>  1 0.34177230E+02</asrwt>
<pdfrwt beam="1">  1        1 0.85944676E+00 0.30000000E+03</pdfrwt>
<pdfrwt beam="2">0</pdfrwt>
<totfact> 0.32934365E-04</totfact>
</mgrwt>
<clustering>
<clus scale="   34.177">  1  6  2 -1</clus>
<clus scale="  471.275">  4  5 -1 -1</clus>
<clus scale="  300.000">  1  4  2 -1</clus>
</clustering>
</event>
<event>
 6    1  0.1033679E-011  0.3000000E+03  0.7818608E-02  0.1093470E+00
          1   -1    0    0  502    0  0.00000000000E+00  0.00000000000E+00  0.23730518773E+03  0.23730518773E+03  0.00000000000E+00 0.  1.
         13   -1    0    0    0    0 -0.00000000000E+00 -0.00000000000E+00 -0.27500000000E+03  0.27500000000E+03  0.00000000000E+00 0.  1.
    9000005    2    1    2  501    0  0.12681328903E+02 -0.39266179379E+02 -0.52995069058E+02  0.46829670214E+03  0.46345514880E+03 0.  0.
         13    1    3    3    0    0 -0.52207538160E+02  0.77895883040E+02  0.17805326204E+03  0.20123707352E+03  0.00000000000E+00 0.  1.
          3    1    3    3  501    0  0.64888867063E+02 -0.11716206242E+03 -0.23104833110E+03  0.26705962863E+03  0.00000000000E+00 0.  1.
         21    1    1    2  502  501 -0.12681328903E+02  0.39266179379E+02  0.15300256785E+02  0.44008485584E+02  0.00000000000E+00 0.  1.
<scales pt_clust_4="550.00000" pt_clust_5="550.00000" pt_clust_6="41.26317"></scales>
<mgrwt>
<rscale>  0 0.30000000E+03</rscale>
<asrwt>  1 0.41263167E+02</asrwt>
<pdfrwt beam="1">  1        1 0.86292796E+00 0.30000000E+03</pdfrwt>
<pdfrwt beam="2">0</pdfrwt>
<totfact> 0.29182975E-04</totfact>
</mgrwt>
<clustering>
<clus scale="   41.263">  1  6  2 -1</clus>
<clus scale="  463.455">  4  5 -1 -1</clus>
<clus scale="  300.000">  1  4  2 -1</clus>
</clustering>
</event>
<event>
 6    1  0.1033679E-011  0.3000000E+03  0.7818608E-02  0.1093470E+00
          1   -1    0    0  502    0  0.00000000000E+00  0.00000000000E+00  0.23328541761E+03  0.23328541761E+03  0.00000000000E+00 0.  1.
         13   -1    0    0    0    0 -0.00000000000E+00 -0.00000000000E+00 -0.27500000000E+03  0.27500000000E+03  0.00000000000E+00 0.  1.
    9000005    2    1    2  501    0 -0.31371725764E+02 -0.10890229850E+02 -0.32182809791E+02  0.47373636592E+03  0.47147388991E+03 0.  0.
         13    1    3    3    0    0  0.12700967912E+03 -0.14306770457E+03 -0.14366718888E+03  0.23924900802E+03  0.00000000000E+00 0.  1.
          3    1    3    3  501    0 -0.15838140488E+03  0.13217747472E+03  0.11148437909E+03  0.23448735790E+03  0.00000000000E+00 0.  1.
         21    1    1    2  502  501  0.31371725764E+02  0.10890229850E+02 -0.95317726011E+01  0.34549051687E+02  0.00000000000E+00 0. -1.
<scales pt_clust_4="550.00000" pt_clust_5="550.00000" pt_clust_6="33.20818"></scales>
<mgrwt>
<rscale>  0 0.30000000E+03</rscale>
<asrwt>  1 0.33208183E+02</asrwt>
<pdfrwt beam="1">  1        1 0.84831061E+00 0.30000000E+03</pdfrwt>
<pdfrwt beam="2">0</pdfrwt>
<totfact> 0.42614843E-04</totfact>
</mgrwt>
<clustering>
<clus scale="   33.208">  1  6  2 -1</clus>
<clus scale="  471.474">  4  5 -1 -1</clus>
<clus scale="  300.000">  1  4  2 -1</clus>
</clustering>
</event>
<event>
 6    1  0.1033679E-011  0.3000000E+03  0.7818608E-02  0.1093470E+00
          1   -1    0    0  502    0  0.00000000000E+00  0.00000000000E+00  0.25241409169E+03  0.25241409169E+03  0.00000000000E+00 0.  1.
         13   -1    0    0    0    0 -0.00000000000E+00 -0.00000000000E+00 -0.27500000000E+03  0.27500000000E+03  0.00000000000E+00 0.  1.
    9000005    2    1    2  501    0  0.20680252939E+02  0.30960070156E+02 -0.27873746416E+02  0.48980877242E+03  0.48759562036E+03 0.  0.
         13    1    3    3    0    0  0.80476542407E+02 -0.16956589521E+03 -0.15633300489E+03  0.24427254269E+03  0.00000000000E+00 0.  1.
          3    1    3    3  501    0 -0.59796289468E+02  0.20052596537E+03  0.12845925847E+03  0.24553622973E+03  0.00000000000E+00 0.  1.
         21    1    1    2  502  501 -0.20680252939E+02 -0.30960070156E+02  0.52878381081E+01  0.37605319272E+02  0.00000000000E+00 0. -1.
<scales pt_clust_4="550.00000" pt_clust_5="550.00000" pt_clust_6="37.23169"></scales>
<mgrwt>
<rscale>  0 0.30000000E+03</rscale>
<asrwt>  1 0.37231691E+02</asrwt>
<pdfrwt beam="1">  1        1 0.91786942E+00 0.30000000E+03</pdfrwt>
<pdfrwt beam="2">0</pdfrwt>
<totfact> 0.46039600E-05</totfact>
</mgrwt>
<clustering>
<clus scale="   37.232">  1  6  2 -1</clus>
<clus scale="  487.596">  4  5 -1 -1</clus>
<clus scale="  300.000">  1  4  2 -1</clus>
</clustering>
</event>
<event>
 6    1  0.1033679E-011  0.3000000E+03  0.7818608E-02  0.1093470E+00
          1   -1    0    0  502    0  0.00000000000E+00  0.00000000000E+00  0.23212574776E+03  0.23212574776E+03  0.00000000000E+00 0.  1.
         13   -1    0    0    0    0 -0.00000000000E+00 -0.00000000000E+00 -0.27500000000E+03  0.27500000000E+03  0.00000000000E+00 0.  1.
    9000005    2    1    2  501    0 -0.78200083177E+01 -0.29041938201E+02 -0.70367901953E+02  0.46637666827E+03  0.46005539708E+03 0.  0.
         13    1    3    3    0    0  0.45568873335E+02  0.13248708308E+03  0.13849050466E+03  0.19699992203E+03  0.00000000000E+00 0.  1.
          1    1    3    3  501    0 -0.53388881652E+02 -0.16152902128E+03 -0.20885840661E+03  0.26937674624E+03  0.00000000000E+00 0.  1.
         21    1    1    2  502  501  0.78200083177E+01  0.29041938201E+02  0.27493649714E+02  0.40749079488E+02  0.00000000000E+00 0.  1.
<scales pt_clust_4="550.00000" pt_clust_5="550.00000" pt_clust_6="30.07635"></scales>
<mgrwt>
<rscale>  0 0.30000000E+03</rscale>
<asrwt>  1 0.30076348E+02</asrwt>
<pdfrwt beam="1">  1        1 0.84409363E+00 0.30000000E+03</pdfrwt>
<pdfrwt beam="2">0</pdfrwt>
<totfact> 0.47350035E-04</totfact>
</mgrwt>
<clustering>
<clus scale="   30.076">  1  6  2 -1</clus>
<clus scale="  460.055">  4  5 -1 -1</clus>
<clus scale="  300.000">  1  4  2 -1</clus>
</clustering>
</event>
<event>
 6    1  0.1033679E-011  0.3000000E+03  0.7818608E-02  0.1093470E+00
          1   -1    0    0  502    0  0.00000000000E+00  0.00000000000E+00  0.22409859161E+03  0.22409859161E+03  0.00000000000E+00 0.  1.
         13   -1    0    0    0    0 -0.00000000000E+00 -0.00000000000E+00 -0.27500000000E+03  0.27500000000E+03  0.00000000000E+00 0.  1.
    9000005    2    1    2  501    0  0.21765304653E+02 -0.20802242865E+02 -0.55253149352E+02  0.46867821285E+03  0.46443502763E+03 0.  0.
         13    1    3    3    0    0 -0.47553812764E+01 -0.89712605494E+01  0.20578217374E+03  0.20603252218E+03  0.00000000000E+00 0.  1.
          3    1    3    3  501    0  0.26520685930E+02 -0.11830982315E+02 -0.26103532309E+03  0.26264569067E+03  0.00000000000E+00 0.  1.
         21    1    1    2  502  501 -0.21765304653E+02  0.20802242865E+02  0.43517409659E+01  0.30420378766E+02  0.00000000000E+00 0. -1.
<scales pt_clust_4="550.00000" pt_clust_5="550.00000" pt_clust_6="30.10750"></scales>
<mgrwt>
<rscale>  0 0.30000000E+03</rscale>
<asrwt>  1 0.30107504E+02</asrwt>
<pdfrwt beam="1">  1        1 0.81490397E+00 0.30000000E+03</pdfrwt>
<pdfrwt beam="2">0</pdfrwt>
<totfact> 0.82057474E-04</totfact>
</mgrwt>
<clustering>
<clus scale="   30.108">  1  6  2 -1</clus>
<clus scale="  464.435">  4  5 -1 -1</clus>
<clus scale="  300.000">  1  4  2 -1</clus>
</clustering>
</event>
<event>
 6    1  0.1033679E-011  0.3000000E+03  0.7818608E-02  0.1093470E+00
          1   -1    0    0  502    0  0.00000000000E+00  0.00000000000E+00  0.23465098333E+03  0.23465098333E+03  0.00000000000E+00 0.  1.
         13   -1    0    0    0    0 -0.00000000000E+00 -0.00000000000E+00 -0.27500000000E+03  0.27500000000E+03  0.00000000000E+00 0.  1.
    9000005    2    1    2  501    0  0.80297540985E+01  0.29331367253E+02 -0.49099659824E+02  0.47800639752E+03  0.47450451359E+03 0.  0.
         13    1    3    3    0    0  0.22017374761E+03  0.99564281712E+02  0.24142498216E+02  0.24284230593E+03  0.00000000000E+00 0.  1.
          1    1    3    3  501    0 -0.21214399351E+03 -0.70232914459E+02 -0.73242158040E+02  0.23516409159E+03  0.00000000000E+00 0.  1.
         21    1    1    2  502  501 -0.80297540985E+01 -0.29331367253E+02  0.87506431574E+01  0.31644585816E+02  0.00000000000E+00 0.  1.
<scales pt_clust_4="550.00000" pt_clust_5="550.00000" pt_clust_6="30.41062"></scales>
<mgrwt>
<rscale>  0 0.30000000E+03</rscale>
<asrwt>  1 0.30410624E+02</asrwt>
<pdfrwt beam="1">  1        1 0.85327630E+00 0.30000000E+03</pdfrwt>
<pdfrwt beam="2">0</pdfrwt>
<totfact> 0.38895673E-04</totfact>
</mgrwt>
<clustering>
<clus scale="   30.411">  1  6  2 -1</clus>
<clus scale="  474.505">  4  5 -1 -1</clus>
<clus scale="  300.000">  1  4  2 -1</clus>
</clustering>
</event>
<event>
 6    1  0.1033679E-011  0.3000000E+03  0.7818608E-02  0.1093470E+00
          1   -1    0    0  502    0  0.00000000000E+00  0.00000000000E+00  0.25197063578E+03  0.25197063578E+03  0.00000000000E+00 0.  1.
         13   -1    0    0    0    0 -0.00000000000E+00 -0.00000000000E+00 -0.27500000000E+03  0.27500000000E+03  0.00000000000E+00 0.  1.
    9000005    2    1    2  501    0  0.22888780613E+02 -0.23802815723E+02 -0.31313073944E+02  0.49292522256E+03  0.49082002417E+03 0.  0.
         13    1    3    3    0    0  0.14180666714E+03  0.10097445981E+03  0.15927558473E+03  0.23595271617E+03  0.00000000000E+00 0.  1.
          1    1    3    3  501    0 -0.11891788653E+03 -0.12477727554E+03 -0.19058865867E+03  0.25697250639E+03  0.00000000000E+00 0.  1.
         21    1    1    2  502  501 -0.22888780613E+02  0.23802815723E+02  0.82837097208E+01  0.34045413216E+02  0.00000000000E+00 0. -1.
<scales pt_clust_4="550.00000" pt_clust_5="550.00000" pt_clust_6="33.02227"></scales>
<mgrwt>
<rscale>  0 0.30000000E+03</rscale>
<asrwt>  1 0.33022270E+02</asrwt>
<pdfrwt beam="1">  1        1 0.91625686E+00 0.30000000E+03</pdfrwt>
<pdfrwt beam="2">0</pdfrwt>
<totfact> 0.51209192E-05</totfact>
</mgrwt>
<clustering>
<clus scale="   33.022">  1  6  2 -1</clus>
<clus scale="  490.820">  4  5 -1 -1</clus>
<clus scale="  300.000">  1  4  2 -1</clus>
</clustering>
</event>
<event>
 6    1  0.1033679E-011  0.3000000E+03  0.7818608E-02  0.1093470E+00
          1   -1    0    0  502    0  0.00000000000E+00  0.00000000000E+00  0.24326800728E+03  0.24326800728E+03  0.00000000000E+00 0.  1.
         13   -1    0    0    0    0 -0.00000000000E+00 -0.00000000000E+00 -0.27500000000E+03  0.27500000000E+03  0.00000000000E+00 0.  1.
    9000005    2    1    2  501    0 -0.25020573594E+02 -0.32587728730E+02 -0.62950186029E+02  0.46666796115E+03  0.46057384954E+03 0.  0.
         13    1    3    3    0    0 -0.18231890296E+03  0.96792585886E+02  0.76162106962E+02  0.22002193890E+03  0.00000000000E+00 0.  1.
          1    1    3    3  501    0  0.15729832937E+03 -0.12938031462E+03 -0.13911229299E+03  0.24664602225E+03  0.00000000000E+00 0.  1.
         21    1    1    2  502  501  0.25020573594E+02  0.32587728730E+02  0.31218193308E+02  0.51600046125E+02  0.00000000000E+00 0. -1.
<scales pt_clust_4="550.00000" pt_clust_5="550.00000" pt_clust_6="41.08515"></scales>
<mgrwt>
<rscale>  0 0.30000000E+03</rscale>
<asrwt>  1 0.41085145E+02</asrwt>
<pdfrwt beam="1">  1        1 0.88461094E+00 0.30000000E+03</pdfrwt>
<pdfrwt beam="2">0</pdfrwt>
<totfact> 0.16679827E-04</totfact>
</mgrwt>
<clustering>
<clus scale="   41.085">  1  6  2 -1</clus>
<clus scale="  460.574">  4  5 -1 -1</clus>
<clus scale="  300.000">  1  4  2 -1</clus>
</clustering>
</event>
<event>
 6    1  0.1033679E-011  0.3000000E+03  0.7818608E-02  0.1093470E+00
          1   -1    0    0  502    0  0.00000000000E+00  0.00000000000E+00  0.24767803140E+03  0.24767803140E+03  0.00000000000E+00 0.  1.
         13   -1    0    0    0    0 -0.00000000000E+00 -0.00000000000E+00 -0.27500000000E+03  0.27500000000E+03  0.00000000000E+00 0.  1.
    9000005    2    1    2  501    0 -0.32830681147E+02  0.17167257496E+02 -0.29975908094E+02  0.48553490620E+03  0.48319046112E+03 0.  0.
         13    1    3    3    0    0  0.21200503849E+03  0.38243971167E+00 -0.94000633126E+02  0.23191033102E+03  0.00000000000E+00 0.  1.
          3    1    3    3  501    0 -0.24483571964E+03  0.16784817785E+02  0.64024725033E+02  0.25362457518E+03  0.00000000000E+00 0.  1.
         21    1    1    2  502  501  0.32830681147E+02 -0.17167257496E+02  0.26539394906E+01  0.37143125196E+02  0.00000000000E+00 0. -1.
<scales pt_clust_4="550.00000" pt_clust_5="550.00000" pt_clust_6="37.04819"></scales>
<mgrwt>
<rscale>  0 0.30000000E+03</rscale>
<asrwt>  1 0.37048190E+02</asrwt>
<pdfrwt beam="1">  1        1 0.90064739E+00 0.30000000E+03</pdfrwt>
<pdfrwt beam="2">0</pdfrwt>
<totfact> 0.10721134E-04</totfact>
</mgrwt>
<clustering>
<clus scale="   37.048">  1  6  2 -1</clus>
<clus scale="  483.190">  4  5 -1 -1</clus>
<clus scale="  300.000">  1  4  2 -1</clus>
</clustering>
</event>
<event>
 6    1  0.1033679E-011  0.3000000E+03  0.7818608E-02  0.1093470E+00
          1   -1    0    0  502    0  0.00000000000E+00  0.00000000000E+00  0.22457938969E+03  0.22457938969E+03  0.00000000000E+00 0.  1.
         13   -1    0    0    0    0 -0.00000000000E+00 -0.00000000000E+00 -0.27500000000E+03  0.27500000000E+03  0.00000000000E+00 0.  1.
    9000005    2    1    2  501    0  0.26777817932E+02 -0.16425413021E+02 -0.45539619876E+02  0.46778835647E+03  0.46450537536E+03 0.  0.
         13    1    3    3    0    0  0.50875300854E+02  0.97769453882E+02  0.18159468804E+03  0.21242361704E+03  0.00000000000E+00 0.  1.
          1    1    3    3  501    0 -0.24097482922E+02 -0.11419486690E+03 -0.22713430792E+03  0.25536473943E+03  0.00000000000E+00 0.  1.
         21    1    1    2  502  501 -0.26777817932E+02  0.16425413021E+02 -0.48809904307E+01  0.31791033228E+02  0.00000000000E+00 0.  1.
<scales pt_clust_4="550.00000" pt_clust_5="550.00000" pt_clust_6="31.41412"></scales>
<mgrwt>
<rscale>  0 0.30000000E+03</rscale>
<asrwt>  1 0.31414116E+02</asrwt>
<pdfrwt beam="1">  1        1 0.81665233E+00 0.30000000E+03</pdfrwt>
<pdfrwt beam="2">0</pdfrwt>
<totfact> 0.78768234E-04</totfact>
</mgrwt>
<clustering>
<clus scale="   31.414">  1  6  2 -1</clus>
<clus scale="  464.505">  4  5 -1 -1</clus>
<clus scale="  300.000">  1  4  2 -1</clus>
</clustering>
</event>
<event>
 6    1  0.1033679E-011  0.3000000E+03  0.7818608E-02  0.1093470E+00
          1   -1    0    0  502    0  0.00000000000E+00  0.00000000000E+00  0.23307179139E+03  0.23307179139E+03  0.00000000000E+00 0.  1.
         13   -1    0    0    0    0 -0.00000000000E+00 -0.00000000000E+00 -0.27500000000E+03  0.27500000000E+03  0.00000000000E+00 0.  1.
    9000005    2    1    2  501    0  0.37322210766E+01  0.36024284375E+02 -0.34605909369E+02  0.47112189822E+03  0.46845127333E+03 0.  0.
         13    1    3    3    0    0 -0.14109247014E+03 -0.13410323655E+03 -0.12365110785E+03  0.23060867211E+03  0.00000000000E+00 0.  1.
          3    1    3    3  501    0  0.14482469122E+03  0.17012752092E+03  0.89045198481E+02  0.24051322611E+03  0.00000000000E+00 0.  1.
         21    1    1    2  502  501 -0.37322210766E+01 -0.36024284375E+02 -0.73222992411E+01  0.36949893167E+02  0.00000000000E+00 0.  1.
<scales pt_clust_4="550.00000" pt_clust_5="550.00000" pt_clust_6="36.21712"></scales>
<mgrwt>
<rscale>  0 0.30000000E+03</rscale>
<asrwt>  1 0.36217121E+02</asrwt>
<pdfrwt beam="1">  1        1 0.84753379E+00 0.30000000E+03</pdfrwt>
<pdfrwt beam="2">0</pdfrwt>
<totfact> 0.42619085E-04</totfact>
</mgrwt>
<clustering>
<clus scale="   36.217">  1  6  2 -1</clus>
<clus scale="  468.451">  4  5 -1 -1</clus>
<clus scale="  300.000">  1  4  2 -1</clus>
</clustering>
</event>
<event>
 6    1  0.1033679E-011  0.3000000E+03  0.7818608E-02  0.1093470E+00
          1   -1    0    0  502    0  0.00000000000E+00  0.00000000000E+00  0.23442447805E+03  0.23442447805E+03  0.00000000000E+00 0.  1.
         13   -1    0    0    0    0 -0.00000000000E+00 -0.00000000000E+00 -0.27500000000E+03  0.27500000000E+03  0.00000000000E+00 0.  1.
    9000005    2    1    2  501    0 -0.52448730168E+01  0.31396116611E+02 -0.48076745342E+02  0.47672137141E+03  0.47322158413E+03 0.  0.
         13    1    3    3    0    0 -0.79455113917E+02  0.75174214143E+02  0.19237588795E+03  0.22129789846E+03  0.00000000000E+00 0.  1.
          1    1    3    3  501    0  0.74210240900E+02 -0.43778097533E+02 -0.24045263329E+03  0.25542347295E+03  0.00000000000E+00 0.  1.
         21    1    1    2  502  501  0.52448730168E+01 -0.31396116611E+02  0.75012233879E+01  0.32703106634E+02  0.00000000000E+00 0.  1.
<scales pt_clust_4="550.00000" pt_clust_5="550.00000" pt_clust_6="31.83119"></scales>
<mgrwt>
<rscale>  0 0.30000000E+03</rscale>
<asrwt>  1 0.31831193E+02</asrwt>
<pdfrwt beam="1">  1        1 0.85245265E+00 0.30000000E+03</pdfrwt>
<pdfrwt beam="2">0</pdfrwt>
<totfact> 0.39269034E-04</totfact>
</mgrwt>
<clustering>
<clus scale="   31.831">  1  6  2 -1</clus>
<clus scale="  473.222">  4  5 -1 -1</clus>
<clus scale="  300.000">  1  4  2 -1</clus>
</clustering>
</event>
<event>
 6    1  0.1033679E-011  0.3000000E+03  0.7818608E-02  0.1093470E+00
          1   -1    0    0  502    0  0.00000000000E+00  0.00000000000E+00  0.23113280529E+03  0.23113280529E+03  0.00000000000E+00 0.  1.
         13   -1    0    0    0    0 -0.00000000000E+00 -0.00000000000E+00 -0.27500000000E+03  0.27500000000E+03  0.00000000000E+00 0.  1.
    9000005    2    1    2  501    0  0.25286954648E+02  0.19024115454E+02 -0.63655320294E+02  0.46881100257E+03  0.46339012644E+03 0.  0.
         13    1    3    3    0    0  0.39175132088E+02  0.23067008515E+03 -0.98509581525E+02  0.25386515477E+03  0.00000000000E+00 0.  1.
          1    1    3    3  501    0 -0.13888177439E+02 -0.21164596969E+03  0.34854261231E+02  0.21494584780E+03  0.00000000000E+00 0.  1.
         21    1    1    2  502  501 -0.25286954648E+02 -0.19024115454E+02  0.19788125588E+02  0.37321802723E+02  0.00000000000E+00 0.  1.
<scales pt_clust_4="550.00000" pt_clust_5="550.00000" pt_clust_6="31.64407"></scales>
<mgrwt>
<rscale>  0 0.30000000E+03</rscale>
<asrwt>  1 0.31644068E+02</asrwt>
<pdfrwt beam="1">  1        1 0.84048293E+00 0.30000000E+03</pdfrwt>
<pdfrwt beam="2">0</pdfrwt>
<totfact> 0.50225487E-04</totfact>
</mgrwt>
<clustering>
<clus scale="   31.644">  1  6  2 -1</clus>
<clus scale="  463.390">  4  5 -1 -1</clus>
<clus scale="  300.000">  1  4  2 -1</clus>
</clustering>
</event>
<event>
 6    1  0.1033679E-011  0.3000000E+03  0.7818608E-02  0.1093470E+00
          1   -1    0    0  502    0  0.00000000000E+00  0.00000000000E+00  0.22776034932E+03  0.22776034932E+03  0.00000000000E+00 0.  1.
         13   -1    0    0    0    0 -0.00000000000E+00 -0.00000000000E+00 -0.27500000000E+03  0.27500000000E+03  0.00000000000E+00 0.  1.
    9000005    2    1    2  501    0  0.24028351976E+02  0.29723993222E+02 -0.53034624373E+02  0.46410211357E+03  0.45947494269E+03 0.  0.
         13    1    3    3    0    0  0.11991112313E+03  0.15632787407E+03 -0.17526659114E+03  0.26369577098E+03  0.00000000000E+00 0.  1.
          3    1    3    3  501    0 -0.95882771152E+02 -0.12660388085E+03  0.12223196677E+03  0.20040634259E+03  0.00000000000E+00 0.  1.
         21    1    1    2  502  501 -0.24028351976E+02 -0.29723993222E+02  0.57949736962E+01  0.38658235758E+02  0.00000000000E+00 0. -1.
<scales pt_clust_4="550.00000" pt_clust_5="550.00000" pt_clust_6="38.22143"></scales>
<mgrwt>
<rscale>  0 0.30000000E+03</rscale>
<asrwt>  1 0.38221427E+02</asrwt>
<pdfrwt beam="1">  1        1 0.82821945E+00 0.30000000E+03</pdfrwt>
<pdfrwt beam="2">0</pdfrwt>
<totfact> 0.60195132E-04</totfact>
</mgrwt>
<clustering>
<clus scale="   38.221">  1  6  2 -1</clus>
<clus scale="  459.475">  4  5 -1 -1</clus>
<clus scale="  300.000">  1  4  2 -1</clus>
</clustering>
</event>
<event>
 6    1  0.1033679E-011  0.3000000E+03  0.7818608E-02  0.1093470E+00
          1   -1    0    0  502    0  0.00000000000E+00  0.00000000000E+00  0.24552089395E+03  0.24552089395E+03  0.00000000000E+00 0.  1.
         13   -1    0    0    0    0 -0.00000000000E+00 -0.00000000000E+00 -0.27500000000E+03  0.27500000000E+03  0.00000000000E+00 0.  1.
    9000005    2    1    2  501    0 -0.22308178451E+02 -0.37513729538E+02  0.62831654670E+01  0.46409505950E+03  0.46199546681E+03 0.  0.
         13    1    3    3    0    0  0.11049371642E+03  0.16004942206E+03  0.86553916589E+02  0.21287615965E+03  0.00000000000E+00 0.  1.
          3    1    3    3  501    0 -0.13280189487E+03 -0.19756315160E+03 -0.80270751122E+02  0.25121889984E+03  0.00000000000E+00 0.  1.
         21    1    1    2  502  501  0.22308178451E+02  0.37513729538E+02 -0.35762271518E+02  0.56425834454E+02  0.00000000000E+00 0.  1.
<scales pt_clust_4="550.00000" pt_clust_5="550.00000" pt_clust_6="43.64558"></scales>
<mgrwt>
<rscale>  0 0.30000000E+03</rscale>
<asrwt>  1 0.43645580E+02</asrwt>
<pdfrwt beam="1">  1        1 0.89280325E+00 0.30000000E+03</pdfrwt>
<pdfrwt beam="2">0</pdfrwt>
<totfact> 0.12834076E-04</totfact>
</mgrwt>
<clustering>
<clus scale="   43.646">  1  6  2 -1</clus>
<clus scale="  461.995">  4  5 -1 -1</clus>
<clus scale="  300.000">  1  4  2 -1</clus>
</clustering>
</event>
<event>
 6    1  0.1033679E-011  0.3000000E+03  0.7818608E-02  0.1093470E+00
          1   -1    0    0  502    0  0.00000000000E+00  0.00000000000E+00  0.22610970892E+03  0.22610970892E+03  0.00000000000E+00 0.  1.
         13   -1    0    0    0    0 -0.00000000000E+00 -0.00000000000E+00 -0.27500000000E+03  0.27500000000E+03  0.00000000000E+00 0.  1.
    9000005    2    1    2  501    0  0.20822853685E+02  0.28037226132E+02 -0.43564564326E+02  0.46578209012E+03  0.46242340655E+03 0.  0.
         13    1    3    3    0    0 -0.18621375615E+03  0.13528003444E+03 -0.11836478879E+02  0.23046985254E+03  0.00000000000E+00 0.  1.
          1    1    3    3  501    0  0.20703660984E+03 -0.10724280831E+03 -0.31728085447E+02  0.23531223758E+03  0.00000000000E+00 0.  1.
         21    1    1    2  502  501 -0.20822853685E+02 -0.28037226132E+02 -0.53257267536E+01  0.35327618802E+02  0.00000000000E+00 0. -1.
<scales pt_clust_4="550.00000" pt_clust_5="550.00000" pt_clust_6="34.92390"></scales>
<mgrwt>
<rscale>  0 0.30000000E+03</rscale>
<asrwt>  1 0.34923896E+02</asrwt>
<pdfrwt beam="1">  1        1 0.82221712E+00 0.30000000E+03</pdfrwt>
<pdfrwt beam="2">0</pdfrwt>
<totfact> 0.69187935E-04</totfact>
</mgrwt>
<clustering>
<clus scale="   34.924">  1  6  2 -1</clus>
<clus scale="  462.423">  4  5 -1 -1</clus>
<clus scale="  300.000">  1  4  2 -1</clus>
</clustering>
</event>
<event>
 6    1  0.1033679E-011  0.3000000E+03  0.7818608E-02  0.1093470E+00
          1   -1    0    0  502    0  0.00000000000E+00  0.00000000000E+00  0.23352327324E+03  0.23352327324E+03  0.00000000000E+00 0.  1.
         13   -1    0    0    0    0 -0.00000000000E+00 -0.00000000000E+00 -0.27500000000E+03  0.27500000000E+03  0.00000000000E+00 0.  1.
    9000005    2    1    2  501    0  0.30767877255E+02 -0.83499284353E+01 -0.63122802632E+02  0.46998840363E+03  0.46463773820E+03 0.  0.
         13    1    3    3    0    0 -0.21021044898E+03  0.25439658280E+02  0.20382896890E+02  0.21272299255E+03  0.00000000000E+00 0.  1.
          1    1    3    3  501    0  0.24097832623E+03 -0.33789586715E+02 -0.83505699521E+02  0.25726541108E+03  0.00000000000E+00 0.  1.
         21    1    1    2  502  501 -0.30767877255E+02  0.83499284353E+01  0.21646075875E+02  0.38534869618E+02  0.00000000000E+00 0.  1.
<scales pt_clust_4="550.00000" pt_clust_5="550.00000" pt_clust_6="31.88077"></scales>
<mgrwt>
<rscale>  0 0.30000000E+03</rscale>
<asrwt>  1 0.31880771E+02</asrwt>
<pdfrwt beam="1">  1        1 0.84917554E+00 0.30000000E+03</pdfrwt>
<pdfrwt beam="2">0</pdfrwt>
<totfact> 0.42162549E-04</totfact>
</mgrwt>
<clustering>
<clus scale="   31.881">  1  6  2 -1</clus>
<clus scale="  464.638">  4  5 -1 -1</clus>
<clus scale="  300.000">  1  4  2 -1</clus>
</clustering>
</event>
<event>
 6    1  0.1033679E-011  0.3000000E+03  0.7818608E-02  0.1093470E+00
          1   -1    0    0  502    0  0.00000000000E+00  0.00000000000E+00  0.24854542383E+03  0.24854542383E+03  0.00000000000E+00 0.  1.
         13   -1    0    0    0    0 -0.00000000000E+00 -0.00000000000E+00 -0.27500000000E+03  0.27500000000E+03  0.00000000000E+00 0.  1.
    9000005    2    1    2  501    0 -0.32431247213E+02  0.96022867331E+01 -0.53407343675E+02  0.48029682406E+03  0.47611837303E+03 0.  0.
         13    1    3    3    0    0 -0.21650305588E+03 -0.11352781741E+02 -0.15733659557E+03  0.26787546204E+03  0.00000000000E+00 0.  1.
          1    1    3    3  501    0  0.18407180867E+03  0.20955068474E+02  0.10392925189E+03  0.21242136201E+03  0.00000000000E+00 0.  1.
         21    1    1    2  502  501  0.32431247213E+02 -0.96022867331E+01  0.26952767505E+02  0.43248599775E+02  0.00000000000E+00 0. -1.
<scales pt_clust_4="550.00000" pt_clust_5="550.00000" pt_clust_6="33.82292"></scales>
<mgrwt>
<rscale>  0 0.30000000E+03</rscale>
<asrwt>  1 0.33822917E+02</asrwt>
<pdfrwt beam="1">  1        1 0.90380154E+00 0.30000000E+03</pdfrwt>
<pdfrwt beam="2">0</pdfrwt>
<totfact> 0.97815326E-05</totfact>
</mgrwt>
<clustering>
<clus scale="   33.823">  1  6  2 -1</clus>
<clus scale="  476.118">  4  5 -1 -1</clus>
<clus scale="  300.000">  1  4  2 -1</clus>
</clustering>
</event>
<event>
 6    1  0.1033679E-011  0.3000000E+03  0.7818608E-02  0.1093470E+00
          1   -1    0    0  502    0  0.00000000000E+00  0.00000000000E+00  0.23425052210E+03  0.23425052210E+03  0.00000000000E+00 0.  1.
         13   -1    0    0    0    0 -0.00000000000E+00 -0.00000000000E+00 -0.27500000000E+03  0.27500000000E+03  0.00000000000E+00 0.  1.
    9000005    2    1    2  501    0  0.33605521773E+02 -0.17031942180E+02 -0.50393971788E+02  0.47036049240E+03  0.46613305211E+03 0.  0.
         13    1    3    3    0    0  0.10224165055E+03  0.60125189173E+02 -0.23250291194E+03  0.26100957366E+03  0.00000000000E+00 0.  1.
          3    1    3    3  501    0 -0.68636128776E+02 -0.77157131353E+02  0.18210894015E+03  0.20935091874E+03  0.00000000000E+00 0.  1.
         21    1    1    2  502  501 -0.33605521773E+02  0.17031942180E+02  0.96444938877E+01  0.38890029704E+02  0.00000000000E+00 0.  1.
<scales pt_clust_4="550.00000" pt_clust_5="550.00000" pt_clust_6="37.67517"></scales>
<mgrwt>
<rscale>  0 0.30000000E+03</rscale>
<asrwt>  1 0.37675166E+02</asrwt>
<pdfrwt beam="1">  1        1 0.85182008E+00 0.30000000E+03</pdfrwt>
<pdfrwt beam="2">0</pdfrwt>
<totfact> 0.38582783E-04</totfact>
</mgrwt>
<clustering>
<clus scale="   37.675">  1  6  2 -1</clus>
<clus scale="  466.133">  4  5 -1 -1</clus>
<clus scale="  300.000">  1  4  2 -1</clus>
</clustering>
</event>
<event>
 6    1  0.1033679E-011  0.3000000E+03  0.7818608E-02  0.1093470E+00
          1   -1    0    0  502    0  0.00000000000E+00  0.00000000000E+00  0.22048114397E+03  0.22048114397E+03  0.00000000000E+00 0.  1.
         13   -1    0    0    0    0 -0.00000000000E+00 -0.00000000000E+00 -0.27500000000E+03  0.27500000000E+03  0.00000000000E+00 0.  1.
    9000005    2    1    2  501    0 -0.26994034994E+02  0.18580759771E+02 -0.53074157728E+02  0.46267855699E+03  0.45845464151E+03 0.  0.
         13    1    3    3    0    0 -0.11129596829E+03 -0.13651000859E+03 -0.17488565528E+03  0.24820710592E+03  0.00000000000E+00 0.  1.
          3    1    3    3  501    0  0.84301933295E+02  0.15509076837E+03  0.12181149756E+03  0.21447145108E+03  0.00000000000E+00 0.  1.
         21    1    1    2  502  501  0.26994034994E+02 -0.18580759771E+02 -0.14446983057E+01  0.32802586973E+02  0.00000000000E+00 0. -1.
<scales pt_clust_4="550.00000" pt_clust_5="550.00000" pt_clust_6="32.77076"></scales>
<mgrwt>
<rscale>  0 0.30000000E+03</rscale>
<asrwt>  1 0.32770758E+02</asrwt>
<pdfrwt beam="1">  1        1 0.80174961E+00 0.30000000E+03</pdfrwt>
<pdfrwt beam="2">0</pdfrwt>
<totfact> 0.10197367E-03</totfact>
</mgrwt>
<clustering>
<clus scale="   32.771">  1  6  2 -1</clus>
<clus scale="  458.455">  4  5 -1 -1</clus>
<clus scale="  300.000">  1  4  2 -1</clus>
</clustering>
</event>
<event>
 6    1  0.1033679E-011  0.3000000E+03  0.7818608E-02  0.1093470E+00
          1   -1    0    0  502    0  0.00000000000E+00  0.00000000000E+00  0.23770242358E+03  0.23770242358E+03  0.00000000000E+00 0.  1.
         13   -1    0    0    0    0 -0.00000000000E+00 -0.00000000000E+00 -0.27500000000E+03  0.27500000000E+03  0.00000000000E+00 0.  1.
    9000005    2    1    2  501    0 -0.40340988858E+02 -0.13394119105E+02 -0.32100426364E+02  0.46987943703E+03  0.46685056513E+03 0.  0.
         13    1    3    3    0    0  0.11042978163E+03  0.96280284632E+02 -0.17986516748E+03  0.23198299152E+03  0.00000000000E+00 0.  1.
          1    1    3    3  501    0 -0.15077077049E+03 -0.10967440374E+03  0.14776474112E+03  0.23789644551E+03  0.00000000000E+00 0.  1.
         21    1    1    2  502  501  0.40340988858E+02  0.13394119105E+02 -0.51971500546E+01  0.42822986553E+02  0.00000000000E+00 0.  1.
<scales pt_clust_4="550.00000" pt_clust_5="550.00000" pt_clust_6="42.50647"></scales>
<mgrwt>
<rscale>  0 0.30000000E+03</rscale>
<asrwt>  1 0.42506466E+02</asrwt>
<pdfrwt beam="1">  1        1 0.86437245E+00 0.30000000E+03</pdfrwt>
<pdfrwt beam="2">0</pdfrwt>
<totfact> 0.28001027E-04</totfact>
</mgrwt>
<clustering>
<clus scale="   42.506">  1  6  2 -1</clus>
<clus scale="  466.851">  4  5 -1 -1</clus>
<clus scale="  300.000">  1  4  2 -1</clus>
</clustering>
</event>
<event>
 6    1  0.1033679E-011  0.3000000E+03  0.7818608E-02  0.1093470E+00
          1   -1    0    0  502    0  0.00000000000E+00  0.00000000000E+00  0.22234051812E+03  0.22234051812E+03  0.00000000000E+00 0.  1.
         13   -1    0    0    0    0 -0.00000000000E+00 -0.00000000000E+00 -0.27500000000E+03  0.27500000000E+03  0.00000000000E+00 0.  1.
    9000005    2    1    2  501    0 -0.46898572655E+01  0.32444741671E+02 -0.34214393589E+02  0.45972566326E+03  0.45727716400E+03 0.  0.
         13    1    3    3    0    0 -0.93687706679E+02  0.18903602870E+02 -0.22735966636E+03  0.24663160883E+03  0.00000000000E+00 0.  1.
          3    1    3    3  501    0  0.88997849414E+02  0.13541138800E+02  0.19314527278E+03  0.21309405444E+03  0.00000000000E+00 0.  1.
         21    1    1    2  502  501  0.46898572655E+01 -0.32444741671E+02 -0.18445088295E+02  0.37614854851E+02  0.00000000000E+00 0.  1.
<scales pt_clust_4="550.00000" pt_clust_5="550.00000" pt_clust_6="32.78196"></scales>
<mgrwt>
<rscale>  0 0.30000000E+03</rscale>
<asrwt>  1 0.32781963E+02</asrwt>
<pdfrwt beam="1">  1        1 0.80851097E+00 0.30000000E+03</pdfrwt>
<pdfrwt beam="2">0</pdfrwt>
<totfact> 0.90677799E-04</totfact>
</mgrwt>
<clustering>
<clus scale="   32.782">  1  6  2 -1</clus>
<clus scale="  457.277">  4  5 -1 -1</clus>
<clus scale="  300.000">  1  4  2 -1</clus>
</clustering>
</event>
<event>
 6    1  0.1033679E-011  0.3000000E+03  0.7818608E-02  0.1093470E+00
          1   -1    0    0  502    0  0.00000000000E+00  0.00000000000E+00  0.23718307267E+03  0.23718307267E+03  0.00000000000E+00 0.  1.
         13   -1    0    0    0    0 -0.00000000000E+00 -0.00000000000E+00 -0.27500000000E+03  0.27500000000E+03  0.00000000000E+00 0.  1.
    9000005    2    1    2  501    0 -0.33755967486E+02  0.16328231151E+02 -0.55313984573E+02  0.47080405038E+03  0.46603727371E+03 0.  0.
         13    1    3    3    0    0 -0.54883575294E+02  0.11909925174E+03 -0.23131577208E+03  0.26590190864E+03  0.00000000000E+00 0.  1.
          1    1    3    3  501    0  0.21127607808E+02 -0.10277102059E+03  0.17600178751E+03  0.20490214174E+03  0.00000000000E+00 0.  1.
         21    1    1    2  502  501  0.33755967486E+02 -0.16328231151E+02  0.17497057240E+02  0.41379022288E+02  0.00000000000E+00 0.  1.
<scales pt_clust_4="550.00000" pt_clust_5="550.00000" pt_clust_6="37.49769"></scales>
<mgrwt>
<rscale>  0 0.30000000E+03</rscale>
<asrwt>  1 0.37497686E+02</asrwt>
<pdfrwt beam="1">  1        1 0.86248390E+00 0.30000000E+03</pdfrwt>
<pdfrwt beam="2">0</pdfrwt>
<totfact> 0.30028944E-04</totfact>
</mgrwt>
<clustering>
<clus scale="   37.498">  1  6  2 -1</clus>
<clus scale="  466.037">  4  5 -1 -1</clus>
<clus scale="  300.000">  1  4  2 -1</clus>
</clustering>
</event>
<event>
 6    1  0.1033679E-011  0.3000000E+03  0.7818608E-02  0.1093470E+00
          1   -1    0    0  502    0  0.00000000000E+00  0.00000000000E+00  0.23581008217E+03  0.23581008217E+03  0.00000000000E+00 0.  1.
         13   -1    0    0    0    0 -0.00000000000E+00 -0.00000000000E+00 -0.27500000000E+03  0.27500000000E+03  0.00000000000E+00 0.  1.
    9000005    2    1    2  501    0  0.32281843306E+02 -0.48472755195E+01 -0.71584861167E+01  0.46507578318E+03  0.46387350290E+03 0.  0.
         13    1    3    3    0    0 -0.19489703160E+03 -0.92495296103E+02 -0.39879183724E+02  0.21938683193E+03  0.00000000000E+00 0.  1.
          1    1    3    3  501    0  0.22717887491E+03  0.87648020583E+02  0.32720697607E+02  0.24568895125E+03  0.00000000000E+00 0.  1.
         21    1    1    2  502  501 -0.32281843306E+02  0.48472755195E+01 -0.32031431709E+02  0.45734298995E+02  0.00000000000E+00 0.  1.
<scales pt_clust_4="550.00000" pt_clust_5="550.00000" pt_clust_6="32.64375"></scales>
<mgrwt>
<rscale>  0 0.30000000E+03</rscale>
<asrwt>  1 0.32643752E+02</asrwt>
<pdfrwt beam="1">  1        1 0.85749121E+00 0.30000000E+03</pdfrwt>
<pdfrwt beam="2">0</pdfrwt>
<totfact> 0.34827845E-04</totfact>
</mgrwt>
<clustering>
<clus scale="   32.644">  1  6  2 -1</clus>
<clus scale="  463.874">  4  5 -1 -1</clus>
<clus scale="  300.000">  1  4  2 -1</clus>
</clustering>
</event>
<event>
 6    1  0.1033679E-011  0.3000000E+03  0.7818608E-02  0.1093470E+00
          1   -1    0    0  502    0  0.00000000000E+00  0.00000000000E+00  0.24436380208E+03  0.24436380208E+03  0.00000000000E+00 0.  1.
         13   -1    0    0    0    0 -0.00000000000E+00 -0.00000000000E+00 -0.27500000000E+03  0.27500000000E+03  0.00000000000E+00 0.  1.
    9000005    2    1    2  501    0 -0.54578593282E+01  0.29951844390E+02 -0.70569502531E+02  0.46914856507E+03  0.46281035015E+03 0.  0.
         13    1    3    3    0    0 -0.58161347243E+02  0.19231870362E+03 -0.17718180708E+03  0.26788545843E+03  0.00000000000E+00 0.  1.
          3    1    3    3  501    0  0.52703487914E+02 -0.16236685923E+03  0.10661230455E+03  0.20126310664E+03  0.00000000000E+00 0.  1.
         21    1    1    2  502  501  0.54578593282E+01 -0.29951844390E+02  0.39933304614E+02  0.50215237012E+02  0.00000000000E+00 0. -1.
<scales pt_clust_4="550.00000" pt_clust_5="550.00000" pt_clust_6="30.44505"></scales>
<mgrwt>
<rscale>  0 0.30000000E+03</rscale>
<asrwt>  1 0.30445052E+02</asrwt>
<pdfrwt beam="1">  1        1 0.88859564E+00 0.30000000E+03</pdfrwt>
<pdfrwt beam="2">0</pdfrwt>
<totfact> 0.15547687E-04</totfact>
</mgrwt>
<clustering>
<clus scale="   30.445">  1  6  2 -1</clus>
<clus scale="  462.810">  4  5 -1 -1</clus>
<clus scale="  300.000">  1  4  2 -1</clus>
</clustering>
</event>
<event>
 6    1  0.1033679E-011  0.3000000E+03  0.7818608E-02  0.1093470E+00
          1   -1    0    0  502    0  0.00000000000E+00  0.00000000000E+00  0.23383896132E+03  0.23383896132E+03  0.00000000000E+00 0.  1.
         13   -1    0    0    0    0 -0.00000000000E+00 -0.00000000000E+00 -0.27500000000E+03  0.27500000000E+03  0.00000000000E+00 0.  1.
    9000005    2    1    2  501    0 -0.40424437444E+02 -0.17761643598E+02 -0.21536098969E+02  0.46051971687E+03  0.45789190312E+03 0.  0.
         13    1    3    3    0    0 -0.64559422795E+02 -0.21761468439E+03  0.72565569185E+02  0.23830617232E+03  0.00000000000E+00 0.  1.
          3    1    3    3  501    0  0.24134985351E+02  0.19985304079E+03 -0.94101668154E+02  0.22221354455E+03  0.00000000000E+00 0.  1.
         21    1    1    2  502  501  0.40424437444E+02  0.17761643598E+02 -0.19624939707E+02  0.48319244453E+02  0.00000000000E+00 0.  1.
<scales pt_clust_4="550.00000" pt_clust_5="550.00000" pt_clust_6="44.15442"></scales>
<mgrwt>
<rscale>  0 0.30000000E+03</rscale>
<asrwt>  1 0.44154423E+02</asrwt>
<pdfrwt beam="1">  1        1 0.85032350E+00 0.30000000E+03</pdfrwt>
<pdfrwt beam="2">0</pdfrwt>
<totfact> 0.38731532E-04</totfact>
</mgrwt>
<clustering>
<clus scale="   44.154">  1  6  2 -1</clus>
<clus scale="  457.892">  4  5 -1 -1</clus>
<clus scale="  300.000">  1  4  2 -1</clus>
</clustering>
</event>
<event>
 6    1  0.1033679E-011  0.3000000E+03  0.7818608E-02  0.1093470E+00
          1   -1    0    0  502    0  0.00000000000E+00  0.00000000000E+00  0.23684305213E+03  0.23684305213E+03  0.00000000000E+00 0.  1.
         13   -1    0    0    0    0 -0.00000000000E+00 -0.00000000000E+00 -0.27500000000E+03  0.27500000000E+03  0.00000000000E+00 0.  1.
    9000005    2    1    2  501    0  0.37518147303E+01  0.37709462358E+02 -0.44060741024E+02  0.47349028901E+03  0.46991023102E+03 0.  0.
         13    1    3    3    0    0  0.91961306054E+02 -0.65957005953E+02  0.17923820607E+03  0.21197533574E+03  0.00000000000E+00 0.  1.
          3    1    3    3  501    0 -0.88209491324E+02  0.10366646831E+03 -0.22329894709E+03  0.26151495327E+03  0.00000000000E+00 0.  1.
         21    1    1    2  502  501 -0.37518147303E+01 -0.37709462358E+02  0.59037931496E+01  0.38352763116E+02  0.00000000000E+00 0.  1.
<scales pt_clust_4="550.00000" pt_clust_5="550.00000" pt_clust_6="37.89564"></scales>
<mgrwt>
<rscale>  0 0.30000000E+03</rscale>
<asrwt>  1 0.37895642E+02</asrwt>
<pdfrwt beam="1">  1        1 0.86124746E+00 0.30000000E+03</pdfrwt>
<pdfrwt beam="2">0</pdfrwt>
<totfact> 0.30905879E-04</totfact>
</mgrwt>
<clustering>
<clus scale="   37.896">  1  6  2 -1</clus>
<clus scale="  469.910">  4  5 -1 -1</clus>
<clus scale="  300.000">  1  4  2 -1</clus>
</clustering>
</event>
<event>
 6    1  0.1033679E-011  0.3000000E+03  0.7818608E-02  0.1093470E+00
          1   -1    0    0  502    0  0.00000000000E+00  0.00000000000E+00  0.23440377726E+03  0.23440377726E+03  0.00000000000E+00 0.  1.
         13   -1    0    0    0    0 -0.00000000000E+00 -0.00000000000E+00 -0.27500000000E+03  0.27500000000E+03  0.00000000000E+00 0.  1.
    9000005    2    1    2  501    0  0.24903264339E+02 -0.20299549742E+02 -0.58086532017E+02  0.47282297337E+03  0.46814022969E+03 0.  0.
         13    1    3    3    0    0 -0.18567883049E+03  0.56728895093E+02 -0.13421232703E+03  0.23602488080E+03  0.00000000000E+00 0.  1.
          1    1    3    3  501    0  0.21058209483E+03 -0.77028444834E+02  0.76125795017E+02  0.23679809257E+03  0.00000000000E+00 0.  1.
         21    1    1    2  502  501 -0.24903264339E+02  0.20299549742E+02  0.17490309273E+02  0.36580803885E+02  0.00000000000E+00 0. -1.
<scales pt_clust_4="550.00000" pt_clust_5="550.00000" pt_clust_6="32.12856"></scales>
<mgrwt>
<rscale>  0 0.30000000E+03</rscale>
<asrwt>  1 0.32128559E+02</asrwt>
<pdfrwt beam="1">  1        1 0.85237737E+00 0.30000000E+03</pdfrwt>
<pdfrwt beam="2">0</pdfrwt>
<totfact> 0.39264972E-04</totfact>
</mgrwt>
<clustering>
<clus scale="   32.129">  1  6  2 -1</clus>
<clus scale="  468.140">  4  5 -1 -1</clus>
<clus scale="  300.000">  1  4  2 -1</clus>
</clustering>
</event>
<event>
 6    1  0.1033679E-011  0.3000000E+03  0.7818608E-02  0.1093470E+00
          1   -1    0    0  502    0  0.00000000000E+00  0.00000000000E+00  0.23774769169E+03  0.23774769169E+03  0.00000000000E+00 0.  1.
         13   -1    0    0    0    0 -0.00000000000E+00 -0.00000000000E+00 -0.27500000000E+03  0.27500000000E+03  0.00000000000E+00 0.  1.
    9000005    2    1    2  501    0 -0.45092217241E+02  0.59315147931E+01 -0.56939948219E+02  0.46318869565E+03  0.45742006859E+03 0.  0.
         13    1    3    3    0    0 -0.23626762861E+03  0.57443766381E+02  0.33626108412E+02  0.24546464877E+03  0.00000000000E+00 0.  1.
          3    1    3    3  501    0  0.19117541137E+03 -0.51512251588E+02 -0.90566056631E+02  0.21772404688E+03  0.00000000000E+00 0.  1.
         21    1    1    2  502  501  0.45092217241E+02 -0.59315147931E+01  0.19687639911E+02  0.49558996043E+02  0.00000000000E+00 0. -1.
<scales pt_clust_4="550.00000" pt_clust_5="550.00000" pt_clust_6="45.48067"></scales>
<mgrwt>
<rscale>  0 0.30000000E+03</rscale>
<asrwt>  1 0.45480665E+02</asrwt>
<pdfrwt beam="1">  1        1 0.86453706E+00 0.30000000E+03</pdfrwt>
<pdfrwt beam="2">0</pdfrwt>
<totfact> 0.27550348E-04</totfact>
</mgrwt>
<clustering>
<clus scale="   45.481">  1  6  2 -1</clus>
<clus scale="  457.420">  4  5 -1 -1</clus>
<clus scale="  300.000">  1  4  2 -1</clus>
</clustering>
</event>
<event>
 6    1  0.1033679E-011  0.3000000E+03  0.7818608E-02  0.1093470E+00
          1   -1    0    0  502    0  0.00000000000E+00  0.00000000000E+00  0.24440549477E+03  0.24440549477E+03  0.00000000000E+00 0.  1.
         13   -1    0    0    0    0 -0.00000000000E+00 -0.00000000000E+00 -0.27500000000E+03  0.27500000000E+03  0.00000000000E+00 0.  1.
    9000005    2    1    2  501    0  0.10132844640E+02  0.37141894965E+02 -0.47490453493E+02  0.47736185114E+03  0.47343088075E+03 0.  0.
         13    1    3    3    0    0 -0.15368473661E+02 -0.21801906128E+03 -0.22449390506E+02  0.21970998202E+03  0.00000000000E+00 0.  1.
          1    1    3    3  501    0  0.25501318300E+02  0.25516095624E+03 -0.25041062987E+02  0.25765186912E+03  0.00000000000E+00 0.  1.
         21    1    1    2  502  501 -0.10132844640E+02 -0.37141894965E+02  0.16895948262E+02  0.42043643631E+02  0.00000000000E+00 0. -1.
<scales pt_clust_4="550.00000" pt_clust_5="550.00000" pt_clust_6="38.49928"></scales>
<mgrwt>
<rscale>  0 0.30000000E+03</rscale>
<asrwt>  1 0.38499284E+02</asrwt>
<pdfrwt beam="1">  1        1 0.88874725E+00 0.30000000E+03</pdfrwt>
<pdfrwt beam="2">0</pdfrwt>
<totfact> 0.14806378E-04</totfact>
</mgrwt>
<clustering>
<clus scale="   38.499">  1  6  2 -1</clus>
<clus scale="  473.431">  4  5 -1 -1</clus>
<clus scale="  300.000">  1  4  2 -1</clus>
</clustering>
</event>
<event>
 6    1  0.1033679E-011  0.3000000E+03  0.7818608E-02  0.1093470E+00
          1   -1    0    0  502    0  0.00000000000E+00  0.00000000000E+00  0.22852673159E+03  0.22852673159E+03  0.00000000000E+00 0.  1.
         13   -1    0    0    0    0 -0.00000000000E+00 -0.00000000000E+00 -0.27500000000E+03  0.27500000000E+03  0.00000000000E+00 0.  1.
    9000005    2    1    2  501    0  0.30888395055E+02  0.85551828291E+01 -0.71642954064E+02  0.46277385220E+03  0.45606977680E+03 0.  0.
         13    1    3    3    0    0 -0.12941766187E+03 -0.27121224046E+02 -0.20991348250E+03  0.24808902058E+03  0.00000000000E+00 0.  1.
          3    1    3    3  501    0  0.16030605692E+03  0.35676406876E+02  0.13827052844E+03  0.21468483162E+03  0.00000000000E+00 0.  1.
         21    1    1    2  502  501 -0.30888395055E+02 -0.85551828291E+01  0.25169685649E+02  0.40752879383E+02  0.00000000000E+00 0.  1.
<scales pt_clust_4="550.00000" pt_clust_5="550.00000" pt_clust_6="32.05127"></scales>
<mgrwt>
<rscale>  0 0.30000000E+03</rscale>
<asrwt>  1 0.32051273E+02</asrwt>
<pdfrwt beam="1">  1        1 0.83100630E+00 0.30000000E+03</pdfrwt>
<pdfrwt beam="2">0</pdfrwt>
<totfact> 0.58971664E-04</totfact>
</mgrwt>
<clustering>
<clus scale="   32.051">  1  6  2 -1</clus>
<clus scale="  456.070">  4  5 -1 -1</clus>
<clus scale="  300.000">  1  4  2 -1</clus>
</clustering>
</event>
<event>
 6    1  0.1033679E-011  0.3000000E+03  0.7818608E-02  0.1093470E+00
          1   -1    0    0  502    0  0.00000000000E+00  0.00000000000E+00  0.23509071907E+03  0.23509071907E+03  0.00000000000E+00 0.  1.
         13   -1    0    0    0    0 -0.00000000000E+00 -0.00000000000E+00 -0.27500000000E+03  0.27500000000E+03  0.00000000000E+00 0.  1.
    9000005    2    1    2  501    0 -0.10326713616E+02 -0.36222315615E+02 -0.57530309208E+02  0.46850709489E+03  0.46343334399E+03 0.  0.
         13    1    3    3    0    0 -0.84545785491E+02 -0.20740433401E+03 -0.14041106802E+03  0.26434790643E+03  0.00000000000E+00 0.  1.
          1    1    3    3  501    0  0.74219071875E+02  0.17118201839E+03  0.82880758815E+02  0.20415918846E+03  0.00000000000E+00 0.  1.
         21    1    1    2  502  501  0.10326713616E+02  0.36222315615E+02  0.17621028279E+02  0.41583624183E+02  0.00000000000E+00 0. -1.
<scales pt_clust_4="550.00000" pt_clust_5="550.00000" pt_clust_6="37.66560"></scales>
<mgrwt>
<rscale>  0 0.30000000E+03</rscale>
<asrwt>  1 0.37665597E+02</asrwt>
<pdfrwt beam="1">  1        1 0.85487534E+00 0.30000000E+03</pdfrwt>
<pdfrwt beam="2">0</pdfrwt>
<totfact> 0.36042449E-04</totfact>
</mgrwt>
<clustering>
<clus scale="   37.666">  1  6  2 -1</clus>
<clus scale="  463.433">  4  5 -1 -1</clus>
<clus scale="  300.000">  1  4  2 -1</clus>
</clustering>
</event>
<event>
 6    1  0.1033679E-011  0.3000000E+03  0.7818608E-02  0.1093470E+00
          1   -1    0    0  502    0  0.00000000000E+00  0.00000000000E+00  0.22937976066E+03  0.22937976066E+03  0.00000000000E+00 0.  1.
         13   -1    0    0    0    0 -0.00000000000E+00 -0.00000000000E+00 -0.27500000000E+03  0.27500000000E+03  0.00000000000E+00 0.  1.
    9000005    2    1    2  501    0 -0.61387266104E+00 -0.39176111403E+02 -0.55515390446E+02  0.46396864140E+03  0.45896600863E+03 0.  0.
         13    1    3    3    0    0  0.21097012388E+03  0.38154249779E+02  0.42047264179E+02  0.21847680054E+03  0.00000000000E+00 0.  1.
          1    1    3    3  501    0 -0.21158399654E+03 -0.77330361182E+02 -0.97562654625E+02  0.24549184086E+03  0.00000000000E+00 0.  1.
         21    1    1    2  502  501  0.61387266104E+00  0.39176111403E+02  0.98951511030E+01  0.40411119257E+02  0.00000000000E+00 0.  1.
<scales pt_clust_4="550.00000" pt_clust_5="550.00000" pt_clust_6="39.18092"></scales>
<mgrwt>
<rscale>  0 0.30000000E+03</rscale>
<asrwt>  1 0.39180921E+02</asrwt>
<pdfrwt beam="1">  1        1 0.83410822E+00 0.30000000E+03</pdfrwt>
<pdfrwt beam="2">0</pdfrwt>
<totfact> 0.53785016E-04</totfact>
</mgrwt>
<clustering>
<clus scale="   39.181">  1  6  2 -1</clus>
<clus scale="  458.966">  4  5 -1 -1</clus>
<clus scale="  300.000">  1  4  2 -1</clus>
</clustering>
</event>
<event>
 6    1  0.1033679E-011  0.3000000E+03  0.7818608E-02  0.1093470E+00
          1   -1    0    0  502    0  0.00000000000E+00  0.00000000000E+00  0.25819305005E+03  0.25819305005E+03  0.00000000000E+00 0.  1.
         13   -1    0    0    0    0 -0.00000000000E+00 -0.00000000000E+00 -0.27500000000E+03  0.27500000000E+03  0.00000000000E+00 0.  1.
    9000005    2    1    2  501    0  0.46698767206E+01 -0.30670429151E+02 -0.42393292956E+02  0.49297932203E+03  0.49017235508E+03 0.  0.
         13    1    3    3    0    0  0.13640022479E+03 -0.15074243745E+03  0.13298286386E+03  0.24292539153E+03  0.00000000000E+00 0.  1.
          1    1    3    3  501    0 -0.13173034807E+03  0.12007200830E+03 -0.17537615682E+03  0.25005393050E+03  0.00000000000E+00 0.  1.
         21    1    1    2  502  501 -0.46698767206E+01  0.30670429151E+02  0.25586343010E+02  0.40213728023E+02  0.00000000000E+00 0.  1.
<scales pt_clust_4="550.00000" pt_clust_5="550.00000" pt_clust_6="31.02391"></scales>
<mgrwt>
<rscale>  0 0.30000000E+03</rscale>
<asrwt>  1 0.31023910E+02</asrwt>
<pdfrwt beam="1">  1        1 0.93888382E+00 0.30000000E+03</pdfrwt>
<pdfrwt beam="2">0</pdfrwt>
<totfact> 0.20448533E-05</totfact>
</mgrwt>
<clustering>
<clus scale="   31.024">  1  6  2 -1</clus>
<clus scale="  490.172">  4  5 -1 -1</clus>
<clus scale="  300.000">  1  4  2 -1</clus>
</clustering>
</event>
<event>
 6    1  0.1033679E-011  0.3000000E+03  0.7818608E-02  0.1093470E+00
          1   -1    0    0  502    0  0.00000000000E+00  0.00000000000E+00  0.22563856986E+03  0.22563856986E+03  0.00000000000E+00 0.  1.
         13   -1    0    0    0    0 -0.00000000000E+00 -0.00000000000E+00 -0.27500000000E+03  0.27500000000E+03  0.00000000000E+00 0.  1.
    9000005    2    1    2  501    0 -0.10063944646E+02  0.31771227865E+02 -0.62155700149E+02  0.46494000901E+03  0.45955977524E+03 0.  0.
         13    1    3    3    0    0  0.61486581127E+02 -0.15092828382E+03 -0.17456106250E+03  0.23881271125E+03  0.00000000000E+00 0.  1.
          3    1    3    3  501    0 -0.71550525773E+02  0.18269951168E+03  0.11240536235E+03  0.22612729776E+03  0.00000000000E+00 0.  1.
         21    1    1    2  502  501  0.10063944646E+02 -0.31771227865E+02  0.12794270013E+02  0.35698560854E+02  0.00000000000E+00 0. -1.
<scales pt_clust_4="550.00000" pt_clust_5="550.00000" pt_clust_6="33.32707"></scales>
<mgrwt>
<rscale>  0 0.30000000E+03</rscale>
<asrwt>  1 0.33327075E+02</asrwt>
<pdfrwt beam="1">  1        1 0.82050389E+00 0.30000000E+03</pdfrwt>
<pdfrwt beam="2">0</pdfrwt>
<totfact> 0.72265439E-04</totfact>
</mgrwt>
<clustering>
<clus scale="   33.327">  1  6  2 -1</clus>
<clus scale="  459.560">  4  5 -1 -1</clus>
<clus scale="  300.000">  1  4  2 -1</clus>
</clustering>
</event>
<event>
 6    1  0.1033679E-011  0.3000000E+03  0.7818608E-02  0.1093470E+00
          1   -1    0    0  502    0  0.00000000000E+00  0.00000000000E+00  0.23116561580E+03  0.23116561580E+03  0.00000000000E+00 0.  1.
         13   -1    0    0    0    0 -0.00000000000E+00 -0.00000000000E+00 -0.27500000000E+03  0.27500000000E+03  0.00000000000E+00 0.  1.
    9000005    2    1    2  501    0  0.10217804620E+02 -0.29989782912E+02 -0.48197720275E+02  0.47418391303E+03  0.47066290754E+03 0.  0.
         13    1    3    3    0    0  0.17660871500E+03 -0.16523098024E+03  0.34638298255E+02  0.24431890379E+03  0.00000000000E+00 0.  1.
          1    1    3    3  501    0 -0.16639091038E+03  0.13524119732E+03 -0.82836018530E+02  0.22986500925E+03  0.00000000000E+00 0.  1.
         21    1    1    2  502  501 -0.10217804620E+02  0.29989782912E+02  0.43633360795E+01  0.31981702770E+02  0.00000000000E+00 0.  1.
<scales pt_clust_4="550.00000" pt_clust_5="550.00000" pt_clust_6="31.68265"></scales>
<mgrwt>
<rscale>  0 0.30000000E+03</rscale>
<asrwt>  1 0.31682655E+02</asrwt>
<pdfrwt beam="1">  1        1 0.84060224E+00 0.30000000E+03</pdfrwt>
<pdfrwt beam="2">0</pdfrwt>
<totfact> 0.50106202E-04</totfact>
</mgrwt>
<clustering>
<clus scale="   31.683">  1  6  2 -1</clus>
<clus scale="  470.663">  4  5 -1 -1</clus>
<clus scale="  300.000">  1  4  2 -1</clus>
</clustering>
</event>
<event>
 6    1  0.1033679E-011  0.3000000E+03  0.7818608E-02  0.1093470E+00
          1   -1    0    0  502    0  0.00000000000E+00  0.00000000000E+00  0.26137452966E+03  0.26137452966E+03  0.00000000000E+00 0.  1.
         13   -1    0    0    0    0 -0.00000000000E+00 -0.00000000000E+00 -0.27500000000E+03  0.27500000000E+03  0.00000000000E+00 0.  1.
    9000005    2    1    2  501    0 -0.26153124660E+02 -0.48333393840E+02 -0.30894051094E+02  0.47876978358E+03  0.47460084322E+03 0.  0.
         13    1    3    3    0    0  0.19433722943E+03  0.77627847922E+02  0.44364371570E+02  0.21391876725E+03  0.00000000000E+00 0.  1.
          1    1    3    3  501    0 -0.22049035409E+03 -0.12596124176E+03 -0.75258422664E+02  0.26485101634E+03  0.00000000000E+00 0.  1.
         21    1    1    2  502  501  0.26153124660E+02  0.48333393840E+02  0.17268580756E+02  0.57604746079E+02  0.00000000000E+00 0. -1.
<scales pt_clust_4="550.00000" pt_clust_5="550.00000" pt_clust_6="54.95546"></scales>
<mgrwt>
<rscale>  0 0.30000000E+03</rscale>
<asrwt>  1 0.54955463E+02</asrwt>
<pdfrwt beam="1">  1        1 0.95045284E+00 0.30000000E+03</pdfrwt>
<pdfrwt beam="2">0</pdfrwt>
<totfact> 0.11134326E-05</totfact>
</mgrwt>
<clustering>
<clus scale="   54.955">  1  6  2 -1</clus>
<clus scale="  474.601">  4  5 -1 -1</clus>
<clus scale="  300.000">  1  4  2 -1</clus>
</clustering>
</event>
<event>
 6    1  0.1033679E-011  0.3000000E+03  0.7818608E-02  0.1093470E+00
          1   -1    0    0  502    0  0.00000000000E+00  0.00000000000E+00  0.22699591110E+03  0.22699591110E+03  0.00000000000E+00 0.  1.
         13   -1    0    0    0    0 -0.00000000000E+00 -0.00000000000E+00 -0.27500000000E+03  0.27500000000E+03  0.00000000000E+00 0.  1.
    9000005    2    1    2  501    0  0.30331426301E+02  0.14881299121E+02 -0.44228294473E+02  0.46800024802E+03  0.46467907380E+03 0.  0.
         13    1    3    3    0    0  0.13255936509E+03 -0.18597249517E+03 -0.75348116250E+02  0.24048927805E+03  0.00000000000E+00 0.  1.
          3    1    3    3  501    0 -0.10222793879E+03  0.20085379429E+03  0.31119821777E+02  0.22751096997E+03  0.00000000000E+00 0.  1.
         21    1    1    2  502  501 -0.30331426301E+02 -0.14881299121E+02 -0.37757944242E+01  0.33995663084E+02  0.00000000000E+00 0.  1.
<scales pt_clust_4="550.00000" pt_clust_5="550.00000" pt_clust_6="33.78535"></scales>
<mgrwt>
<rscale>  0 0.30000000E+03</rscale>
<asrwt>  1 0.33785346E+02</asrwt>
<pdfrwt beam="1">  1        1 0.82543968E+00 0.30000000E+03</pdfrwt>
<pdfrwt beam="2">0</pdfrwt>
<totfact> 0.65160557E-04</totfact>
</mgrwt>
<clustering>
<clus scale="   33.785">  1  6  2 -1</clus>
<clus scale="  464.679">  4  5 -1 -1</clus>
<clus scale="  300.000">  1  4  2 -1</clus>
</clustering>
</event>
<event>
 6    1  0.1033679E-011  0.3000000E+03  0.7818608E-02  0.1093470E+00
          1   -1    0    0  502    0  0.00000000000E+00  0.00000000000E+00  0.22233178485E+03  0.22233178485E+03  0.00000000000E+00 0.  1.
         13   -1    0    0    0    0 -0.00000000000E+00 -0.00000000000E+00 -0.27500000000E+03  0.27500000000E+03  0.00000000000E+00 0.  1.
    9000005    2    1    2  501    0 -0.30097802499E+02  0.94432699377E+01 -0.49156898032E+02  0.46559249673E+03  0.46191440693E+03 0.  0.
         13    1    3    3    0    0  0.63341189697E+02 -0.20049178612E+03  0.48712592630E+02  0.21582858776E+03  0.00000000000E+00 0.  1.
          1    1    3    3  501    0 -0.93438992196E+02  0.20993505605E+03 -0.97869490661E+02  0.24976390897E+03  0.00000000000E+00 0.  1.
         21    1    1    2  502  501  0.30097802499E+02 -0.94432699377E+01 -0.35113171191E+01  0.31739288119E+02  0.00000000000E+00 0. -1.
<scales pt_clust_4="550.00000" pt_clust_5="550.00000" pt_clust_6="31.54448"></scales>
<mgrwt>
<rscale>  0 0.30000000E+03</rscale>
<asrwt>  1 0.31544477E+02</asrwt>
<pdfrwt beam="1">  1        1 0.80847922E+00 0.30000000E+03</pdfrwt>
<pdfrwt beam="2">0</pdfrwt>
<totfact> 0.91394915E-04</totfact>
</mgrwt>
<clustering>
<clus scale="   31.544">  1  6  2 -1</clus>
<clus scale="  461.914">  4  5 -1 -1</clus>
<clus scale="  300.000">  1  4  2 -1</clus>
</clustering>
</event>
<event>
 6    1  0.1033679E-011  0.3000000E+03  0.7818608E-02  0.1093470E+00
          1   -1    0    0  502    0  0.00000000000E+00  0.00000000000E+00  0.24450588679E+03  0.24450588679E+03  0.00000000000E+00 0.  1.
         13   -1    0    0    0    0 -0.00000000000E+00 -0.00000000000E+00 -0.27500000000E+03  0.27500000000E+03  0.00000000000E+00 0.  1.
    9000005    2    1    2  501    0  0.32788426368E+02 -0.16199416716E+02 -0.46864181649E+02  0.47943743104E+03  0.47573784457E+03 0.  0.
         13    1    3    3    0    0 -0.61611462395E+01 -0.56971997121E+02 -0.25625665477E+03  0.26258568371E+03  0.00000000000E+00 0.  1.
          1    1    3    3  501    0  0.38949572608E+02  0.40772580405E+02  0.20939247312E+03  0.21685174732E+03  0.00000000000E+00 0.  1.
         21    1    1    2  502  501 -0.32788426368E+02  0.16199416716E+02  0.16370068438E+02  0.40068455752E+02  0.00000000000E+00 0.  1.
<scales pt_clust_4="550.00000" pt_clust_5="550.00000" pt_clust_6="36.57187"></scales>
<mgrwt>
<rscale>  0 0.30000000E+03</rscale>
<asrwt>  1 0.36571875E+02</asrwt>
<pdfrwt beam="1">  1        1 0.88911232E+00 0.30000000E+03</pdfrwt>
<pdfrwt beam="2">0</pdfrwt>
<totfact> 0.14777698E-04</totfact>
</mgrwt>
<clustering>
<clus scale="   36.572">  1  6  2 -1</clus>
<clus scale="  475.738">  4  5 -1 -1</clus>
<clus scale="  300.000">  1  4  2 -1</clus>
</clustering>
</event>
<event>
 6    1  0.1033679E-011  0.3000000E+03  0.7818608E-02  0.1093470E+00
          1   -1    0    0  502    0  0.00000000000E+00  0.00000000000E+00  0.23517005129E+03  0.23517005129E+03  0.00000000000E+00 0.  1.
         13   -1    0    0    0    0 -0.00000000000E+00 -0.00000000000E+00 -0.27500000000E+03  0.27500000000E+03  0.00000000000E+00 0.  1.
    9000005    2    1    2  501    0 -0.50510942107E+01 -0.42877653884E+02 -0.33367303951E+02  0.46651489659E+03  0.46331281550E+03 0.  0.
         13    1    3    3    0    0 -0.89841915009E+02 -0.66479610910E+02 -0.22744008086E+03  0.25341684778E+03  0.00000000000E+00 0.  1.
          3    1    3    3  501    0  0.84790820798E+02  0.23601957027E+02  0.19407277691E+03  0.21309804880E+03  0.00000000000E+00 0.  1.
         21    1    1    2  502  501  0.50510942107E+01  0.42877653884E+02 -0.64626447541E+01  0.43655154707E+02  0.00000000000E+00 0. -1.
<scales pt_clust_4="550.00000" pt_clust_5="550.00000" pt_clust_6="43.17417"></scales>
<mgrwt>
<rscale>  0 0.30000000E+03</rscale>
<asrwt>  1 0.43174166E+02</asrwt>
<pdfrwt beam="1">  1        1 0.85516382E+00 0.30000000E+03</pdfrwt>
<pdfrwt beam="2">0</pdfrwt>
<totfact> 0.34926312E-04</totfact>
</mgrwt>
<clustering>
<clus scale="   43.174">  1  6  2 -1</clus>
<clus scale="  463.313">  4  5 -1 -1</clus>
<clus scale="  300.000">  1  4  2 -1</clus>
</clustering>
</event>
<event>
 6    1  0.1033679E-011  0.3000000E+03  0.7818608E-02  0.1093470E+00
          1   -1    0    0  502    0  0.00000000000E+00  0.00000000000E+00  0.22896106358E+03  0.22896106358E+03  0.00000000000E+00 0.  1.
         13   -1    0    0    0    0 -0.00000000000E+00 -0.00000000000E+00 -0.27500000000E+03  0.27500000000E+03  0.00000000000E+00 0.  1.
    9000005    2    1    2  501    0  0.12200290528E+02 -0.30431541984E+02 -0.31449227187E+02  0.46807533589E+03  0.46586536719E+03 0.  0.
         13    1    3    3    0    0  0.12511529434E+03 -0.73160529630E+02  0.17603463760E+03  0.22802301114E+03  0.00000000000E+00 0.  1.
          3    1    3    3  501    0 -0.11291500381E+03  0.42728987645E+02 -0.20748386479E+03  0.24005232475E+03  0.00000000000E+00 0.  1.
         21    1    1    2  502  501 -0.12200290528E+02  0.30431541984E+02 -0.14589709230E+02  0.35885727691E+02  0.00000000000E+00 0. -1.
<scales pt_clust_4="550.00000" pt_clust_5="550.00000" pt_clust_6="32.78608"></scales>
<mgrwt>
<rscale>  0 0.30000000E+03</rscale>
<asrwt>  1 0.32786078E+02</asrwt>
<pdfrwt beam="1">  1        1 0.83258569E+00 0.30000000E+03</pdfrwt>
<pdfrwt beam="2">0</pdfrwt>
<totfact> 0.57079333E-04</totfact>
</mgrwt>
<clustering>
<clus scale="   32.786">  1  6  2 -1</clus>
<clus scale="  465.865">  4  5 -1 -1</clus>
<clus scale="  300.000">  1  4  2 -1</clus>
</clustering>
</event>
<event>
 6    1  0.1033679E-011  0.3000000E+03  0.7818608E-02  0.1093470E+00
          1   -1    0    0  502    0  0.00000000000E+00  0.00000000000E+00  0.22602910207E+03  0.22602910207E+03  0.00000000000E+00 0.  1.
         13   -1    0    0    0    0 -0.00000000000E+00 -0.00000000000E+00 -0.27500000000E+03  0.27500000000E+03  0.00000000000E+00 0.  1.
    9000005    2    1    2  501    0 -0.36187131356E+02 -0.92550104541E+01 -0.50818973375E+02  0.46363152090E+03  0.45932173411E+03 0.  0.
         13    1    3    3    0    0 -0.11270983883E+03  0.18996025818E+03 -0.10333566839E+03  0.24385788447E+03  0.00000000000E+00 0.  1.
          3    1    3    3  501    0  0.76522707471E+02 -0.19921526864E+03  0.52516695011E+02  0.21977363643E+03  0.00000000000E+00 0.  1.
         21    1    1    2  502  501  0.36187131356E+02  0.92550104541E+01  0.18480754466E+01  0.37397581167E+02  0.00000000000E+00 0. -1.
<scales pt_clust_4="550.00000" pt_clust_5="550.00000" pt_clust_6="37.35189"></scales>
<mgrwt>
<rscale>  0 0.30000000E+03</rscale>
<asrwt>  1 0.37351890E+02</asrwt>
<pdfrwt beam="1">  1        1 0.82192401E+00 0.30000000E+03</pdfrwt>
<pdfrwt beam="2">0</pdfrwt>
<totfact> 0.68738288E-04</totfact>
</mgrwt>
<clustering>
<clus scale="   37.352">  1  6  2 -1</clus>
<clus scale="  459.322">  4  5 -1 -1</clus>
<clus scale="  300.000">  1  4  2 -1</clus>
</clustering>
</event>
<event>
 6    1  0.1033679E-011  0.3000000E+03  0.7818608E-02  0.1093470E+00
          1   -1    0    0  502    0  0.00000000000E+00  0.00000000000E+00  0.22743909794E+03  0.22743909794E+03  0.00000000000E+00 0.  1.
         13   -1    0    0    0    0 -0.00000000000E+00 -0.00000000000E+00 -0.27500000000E+03  0.27500000000E+03  0.00000000000E+00 0.  1.
    9000005    2    1    2  501    0 -0.22705047638E+02 -0.34152356746E+02 -0.41510064881E+02  0.46098411886E+03  0.45727603228E+03 0.  0.
         13    1    3    3    0    0 -0.19981773321E+03  0.11080946776E+03 -0.61826027109E+00  0.22848686373E+03  0.00000000000E+00 0.  1.
          1    1    3    3  501    0  0.17711268558E+03 -0.14496182451E+03 -0.40891804610E+02  0.23249725513E+03  0.00000000000E+00 0.  1.
         21    1    1    2  502  501  0.22705047638E+02  0.34152356746E+02 -0.60508371830E+01  0.41454979075E+02  0.00000000000E+00 0.  1.
<scales pt_clust_4="550.00000" pt_clust_5="550.00000" pt_clust_6="41.01103"></scales>
<mgrwt>
<rscale>  0 0.30000000E+03</rscale>
<asrwt>  1 0.41011027E+02</asrwt>
<pdfrwt beam="1">  1        1 0.82705127E+00 0.30000000E+03</pdfrwt>
<pdfrwt beam="2">0</pdfrwt>
<totfact> 0.60833966E-04</totfact>
</mgrwt>
<clustering>
<clus scale="   41.011">  1  6  2 -1</clus>
<clus scale="  457.276">  4  5 -1 -1</clus>
<clus scale="  300.000">  1  4  2 -1</clus>
</clustering>
</event>
<event>
 6    1  0.1033679E-011  0.3000000E+03  0.7818608E-02  0.1093470E+00
          1   -1    0    0  502    0  0.00000000000E+00  0.00000000000E+00  0.22667838969E+03  0.22667838969E+03  0.00000000000E+00 0.  1.
         13   -1    0    0    0    0 -0.00000000000E+00 -0.00000000000E+00 -0.27500000000E+03  0.27500000000E+03  0.00000000000E+00 0.  1.
    9000005    2    1    2  501    0 -0.16008941282E+02 -0.27712443744E+02 -0.55806854452E+02  0.46881055405E+03  0.46437556444E+03 0.  0.
         13    1    3    3    0    0  0.25873855914E+02 -0.12839039276E+03  0.17203687609E+03  0.21621802910E+03  0.00000000000E+00 0.  1.
          1    1    3    3  501    0 -0.41882797196E+02  0.10067794902E+03 -0.22784373054E+03  0.25259252496E+03  0.00000000000E+00 0.  1.
         21    1    1    2  502  501  0.16008941282E+02  0.27712443744E+02  0.74852441378E+01  0.32867835631E+02  0.00000000000E+00 0.  1.
<scales pt_clust_4="550.00000" pt_clust_5="550.00000" pt_clust_6="32.00415"></scales>
<mgrwt>
<rscale>  0 0.30000000E+03</rscale>
<asrwt>  1 0.32004152E+02</asrwt>
<pdfrwt beam="1">  1        1 0.82428505E+00 0.30000000E+03</pdfrwt>
<pdfrwt beam="2">0</pdfrwt>
<totfact> 0.67412923E-04</totfact>
</mgrwt>
<clustering>
<clus scale="   32.004">  1  6  2 -1</clus>
<clus scale="  464.376">  4  5 -1 -1</clus>
<clus scale="  300.000">  1  4  2 -1</clus>
</clustering>
</event>
<event>
 6    1  0.1033679E-011  0.3000000E+03  0.7818608E-02  0.1093470E+00
          1   -1    0    0  502    0  0.00000000000E+00  0.00000000000E+00  0.24090705541E+03  0.24090705541E+03  0.00000000000E+00 0.  1.
         13   -1    0    0    0    0 -0.00000000000E+00 -0.00000000000E+00 -0.27500000000E+03  0.27500000000E+03  0.00000000000E+00 0.  1.
    9000005    2    1    2  501    0 -0.30243124722E+02 -0.29808659249E+01 -0.76038343033E+02  0.46410986818E+03  0.45682886071E+03 0.  0.
         13    1    3    3    0    0 -0.16817704518E+03 -0.17072406816E+03 -0.55350047218E+02  0.24595498308E+03  0.00000000000E+00 0.  1.
          1    1    3    3  501    0  0.13793392046E+03  0.16774320224E+03 -0.20688295815E+02  0.21815488510E+03  0.00000000000E+00 0.  1.
         21    1    1    2  502  501  0.30243124722E+02  0.29808659249E+01  0.41945398439E+02  0.51797187229E+02  0.00000000000E+00 0. -1.
<scales pt_clust_4="550.00000" pt_clust_5="550.00000" pt_clust_6="30.38967"></scales>
<mgrwt>
<rscale>  0 0.30000000E+03</rscale>
<asrwt>  1 0.30389672E+02</asrwt>
<pdfrwt beam="1">  1        1 0.87602566E+00 0.30000000E+03</pdfrwt>
<pdfrwt beam="2">0</pdfrwt>
<totfact> 0.22526845E-04</totfact>
</mgrwt>
<clustering>
<clus scale="   30.390">  1  6  2 -1</clus>
<clus scale="  456.829">  4  5 -1 -1</clus>
<clus scale="  300.000">  1  4  2 -1</clus>
</clustering>
</event>
<event>
 6    1  0.1033679E-011  0.3000000E+03  0.7818608E-02  0.1093470E+00
          1   -1    0    0  502    0  0.00000000000E+00  0.00000000000E+00  0.24687549372E+03  0.24687549372E+03  0.00000000000E+00 0.  1.
         13   -1    0    0    0    0 -0.00000000000E+00 -0.00000000000E+00 -0.27500000000E+03  0.27500000000E+03  0.00000000000E+00 0.  1.
    9000005    2    1    2  501    0 -0.32628616659E+02  0.19455259459E+02 -0.50805929996E+02  0.47763093781E+03  0.47339934145E+03 0.  0.
         13    1    3    3    0    0 -0.22449234918E+03  0.41555865866E+02 -0.13687033060E+03  0.26619014300E+03  0.00000000000E+00 0.  1.
          1    1    3    3  501    0  0.19186373252E+03 -0.22100606407E+02  0.86064400604E+02  0.21144079482E+03  0.00000000000E+00 0.  1.
         21    1    1    2  502  501  0.32628616659E+02 -0.19455259459E+02  0.22681423715E+02  0.44244555908E+02  0.00000000000E+00 0. -1.
<scales pt_clust_4="550.00000" pt_clust_5="550.00000" pt_clust_6="37.98860"></scales>
<mgrwt>
<rscale>  0 0.30000000E+03</rscale>
<asrwt>  1 0.37988600E+02</asrwt>
<pdfrwt beam="1">  1        1 0.89772907E+00 0.30000000E+03</pdfrwt>
<pdfrwt beam="2">0</pdfrwt>
<totfact> 0.11574795E-04</totfact>
</mgrwt>
<clustering>
<clus scale="   37.989">  1  6  2 -1</clus>
<clus scale="  473.399">  4  5 -1 -1</clus>
<clus scale="  300.000">  1  4  2 -1</clus>
</clustering>
</event>
<event>
 6    1  0.1033679E-011  0.3000000E+03  0.7818608E-02  0.1093470E+00
          1   -1    0    0  502    0  0.00000000000E+00  0.00000000000E+00  0.24780033011E+03  0.24780033011E+03  0.00000000000E+00 0.  1.
         13   -1    0    0    0    0 -0.00000000000E+00 -0.00000000000E+00 -0.27500000000E+03  0.27500000000E+03  0.00000000000E+00 0.  1.
    9000005    2    1    2  501    0 -0.32205560385E+02  0.20508597652E+02 -0.46166486276E+02  0.48016770385E+03  0.47641565746E+03 0.  0.
         13    1    3    3    0    0 -0.24022381470E+03  0.89334561247E+02 -0.23782901036E+00  0.25629709625E+03  0.00000000000E+00 0.  1.
          1    1    3    3  501    0  0.20801825431E+03 -0.68825963595E+02 -0.45928657266E+02  0.22387060761E+03  0.00000000000E+00 0.  1.
         21    1    1    2  502  501  0.32205560385E+02 -0.20508597652E+02  0.18966816382E+02  0.42632626251E+02  0.00000000000E+00 0.  1.
<scales pt_clust_4="550.00000" pt_clust_5="550.00000" pt_clust_6="38.18116"></scales>
<mgrwt>
<rscale>  0 0.30000000E+03</rscale>
<asrwt>  1 0.38181156E+02</asrwt>
<pdfrwt beam="1">  1        1 0.90109211E+00 0.30000000E+03</pdfrwt>
<pdfrwt beam="2">0</pdfrwt>
<totfact> 0.10517387E-04</totfact>
</mgrwt>
<clustering>
<clus scale="   38.181">  1  6  2 -1</clus>
<clus scale="  476.416">  4  5 -1 -1</clus>
<clus scale="  300.000">  1  4  2 -1</clus>
</clustering>
</event>
<event>
 6    1  0.1033679E-011  0.3000000E+03  0.7818608E-02  0.1093470E+00
          1   -1    0    0  502    0  0.00000000000E+00  0.00000000000E+00  0.23318540827E+03  0.23318540827E+03  0.00000000000E+00 0.  1.
         13   -1    0    0    0    0 -0.00000000000E+00 -0.00000000000E+00 -0.27500000000E+03  0.27500000000E+03  0.00000000000E+00 0.  1.
    9000005    2    1    2  501    0  0.32742032999E+02 -0.59517210266E+00 -0.51328116999E+02  0.47408405759E+03  0.47015818946E+03 0.  0.
         13    1    3    3    0    0 -0.60826442601E+02 -0.13740105652E+02  0.19792846023E+03  0.20751944967E+03  0.00000000000E+00 0.  1.
          3    1    3    3  501    0  0.93568475600E+02  0.13144933550E+02 -0.24925657723E+03  0.26656460792E+03  0.00000000000E+00 0.  1.
         21    1    1    2  502  501 -0.32742032999E+02  0.59517210266E+00  0.95135252645E+01  0.34101350673E+02  0.00000000000E+00 0. -1.
<scales pt_clust_4="550.00000" pt_clust_5="550.00000" pt_clust_6="32.74744"></scales>
<mgrwt>
<rscale>  0 0.30000000E+03</rscale>
<asrwt>  1 0.32747442E+02</asrwt>
<pdfrwt beam="1">  1        1 0.84794694E+00 0.30000000E+03</pdfrwt>
<pdfrwt beam="2">0</pdfrwt>
<totfact> 0.43056805E-04</totfact>
</mgrwt>
<clustering>
<clus scale="   32.747">  1  6  2 -1</clus>
<clus scale="  470.158">  4  5 -1 -1</clus>
<clus scale="  300.000">  1  4  2 -1</clus>
</clustering>
</event>
<event>
 6    1  0.1033679E-011  0.3000000E+03  0.7818608E-02  0.1093470E+00
          1   -1    0    0  502    0  0.00000000000E+00  0.00000000000E+00  0.24267143093E+03  0.24267143093E+03  0.00000000000E+00 0.  1.
         13   -1    0    0    0    0 -0.00000000000E+00 -0.00000000000E+00 -0.27500000000E+03  0.27500000000E+03  0.00000000000E+00 0.  1.
    9000005    2    1    2  501    0  0.26273947751E+02  0.34989535265E+02 -0.23367091375E+02  0.47300717239E+03  0.47039895436E+03 0.  0.
         13    1    3    3    0    0  0.10265643333E+03 -0.11233253028E+03 -0.18622828408E+03  0.24049514434E+03  0.00000000000E+00 0.  1.
          1    1    3    3  501    0 -0.76382485581E+02  0.14732206554E+03  0.16286119270E+03  0.23251202805E+03  0.00000000000E+00 0.  1.
         21    1    1    2  502  501 -0.26273947751E+02 -0.34989535265E+02 -0.89614776921E+01  0.44664258540E+02  0.00000000000E+00 0. -1.
<scales pt_clust_4="550.00000" pt_clust_5="550.00000" pt_clust_6="43.75603"></scales>
<mgrwt>
<rscale>  0 0.30000000E+03</rscale>
<asrwt>  1 0.43756026E+02</asrwt>
<pdfrwt beam="1">  1        1 0.88244157E+00 0.30000000E+03</pdfrwt>
<pdfrwt beam="2">0</pdfrwt>
<totfact> 0.17634814E-04</totfact>
</mgrwt>
<clustering>
<clus scale="   43.756">  1  6  2 -1</clus>
<clus scale="  470.399">  4  5 -1 -1</clus>
<clus scale="  300.000">  1  4  2 -1</clus>
</clustering>
</event>
<event>
 6    1  0.1033679E-011  0.3000000E+03  0.7818608E-02  0.1093470E+00
          1   -1    0    0  502    0  0.00000000000E+00  0.00000000000E+00  0.22613281837E+03  0.22613281837E+03  0.00000000000E+00 0.  1.
         13   -1    0    0    0    0 -0.00000000000E+00 -0.00000000000E+00 -0.27500000000E+03  0.27500000000E+03  0.00000000000E+00 0.  1.
    9000005    2    1    2  501    0 -0.30965605808E+02  0.21418251498E+02 -0.57191013139E+02  0.46257252258E+03  0.45747668402E+03 0.  0.
         13    1    3    3    0    0 -0.20790841238E+02 -0.12470616317E+03 -0.21364560850E+03  0.24825054329E+03  0.00000000000E+00 0.  1.
          1    1    3    3  501    0 -0.10174764570E+02  0.14612441467E+03  0.15645459537E+03  0.21432197929E+03  0.00000000000E+00 0.  1.
         21    1    1    2  502  501  0.30965605808E+02 -0.21418251498E+02  0.83238315119E+01  0.38560295789E+02  0.00000000000E+00 0. -1.
<scales pt_clust_4="550.00000" pt_clust_5="550.00000" pt_clust_6="37.65117"></scales>
<mgrwt>
<rscale>  0 0.30000000E+03</rscale>
<asrwt>  1 0.37651165E+02</asrwt>
<pdfrwt beam="1">  1        1 0.82230116E+00 0.30000000E+03</pdfrwt>
<pdfrwt beam="2">0</pdfrwt>
<totfact> 0.68110650E-04</totfact>
</mgrwt>
<clustering>
<clus scale="   37.651">  1  6  2 -1</clus>
<clus scale="  457.477">  4  5 -1 -1</clus>
<clus scale="  300.000">  1  4  2 -1</clus>
</clustering>
</event>
<event>
 6    1  0.1033679E-011  0.3000000E+03  0.7818608E-02  0.1093470E+00
          1   -1    0    0  502    0  0.00000000000E+00  0.00000000000E+00  0.22348765220E+03  0.22348765220E+03  0.00000000000E+00 0.  1.
         13   -1    0    0    0    0 -0.00000000000E+00 -0.00000000000E+00 -0.27500000000E+03  0.27500000000E+03  0.00000000000E+00 0.  1.
    9000005    2    1    2  501    0  0.23231160183E+02  0.20219852153E+02 -0.63660440861E+02  0.46538016982E+03  0.45997556620E+03 0.  0.
         13    1    3    3    0    0 -0.17807014570E+03  0.13519563795E+02 -0.16211588097E+03  0.24119144731E+03  0.00000000000E+00 0.  1.
          1    1    3    3  501    0  0.20130130588E+03  0.67002883576E+01  0.98455440104E+02  0.22418872251E+03  0.00000000000E+00 0.  1.
         21    1    1    2  502  501 -0.23231160183E+02 -0.20219852153E+02  0.12148093057E+02  0.33107482378E+02  0.00000000000E+00 0.  1.
<scales pt_clust_4="550.00000" pt_clust_5="550.00000" pt_clust_6="30.79820"></scales>
<mgrwt>
<rscale>  0 0.30000000E+03</rscale>
<asrwt>  1 0.30798202E+02</asrwt>
<pdfrwt beam="1">  1        1 0.81268237E+00 0.30000000E+03</pdfrwt>
<pdfrwt beam="2">0</pdfrwt>
<totfact> 0.85115336E-04</totfact>
</mgrwt>
<clustering>
<clus scale="   30.798">  1  6  2 -1</clus>
<clus scale="  459.976">  4  5 -1 -1</clus>
<clus scale="  300.000">  1  4  2 -1</clus>
</clustering>
</event>
<event>
 6    1  0.1033679E-011  0.3000000E+03  0.7818608E-02  0.1093470E+00
          1   -1    0    0  502    0  0.00000000000E+00  0.00000000000E+00  0.23154966471E+03  0.23154966471E+03  0.00000000000E+00 0.  1.
         13   -1    0    0    0    0 -0.00000000000E+00 -0.00000000000E+00 -0.27500000000E+03  0.27500000000E+03  0.00000000000E+00 0.  1.
    9000005    2    1    2  501    0  0.27433867852E+02 -0.24851671678E+02 -0.53798709823E+02  0.46811385399E+03  0.46353646720E+03 0.  0.
         13    1    3    3    0    0 -0.12177492099E+03  0.10277879033E+03 -0.17554499566E+03  0.23708364900E+03  0.00000000000E+00 0.  1.
          3    1    3    3  501    0  0.14920878884E+03 -0.12763046201E+03  0.12174628584E+03  0.23103020498E+03  0.00000000000E+00 0.  1.
         21    1    1    2  502  501 -0.27433867852E+02  0.24851671678E+02  0.10348374534E+02  0.38435810724E+02  0.00000000000E+00 0. -1.
<scales pt_clust_4="550.00000" pt_clust_5="550.00000" pt_clust_6="37.01652"></scales>
<mgrwt>
<rscale>  0 0.30000000E+03</rscale>
<asrwt>  1 0.37016519E+02</asrwt>
<pdfrwt beam="1">  1        1 0.84199878E+00 0.30000000E+03</pdfrwt>
<pdfrwt beam="2">0</pdfrwt>
<totfact> 0.47420723E-04</totfact>
</mgrwt>
<clustering>
<clus scale="   37.017">  1  6  2 -1</clus>
<clus scale="  463.536">  4  5 -1 -1</clus>
<clus scale="  300.000">  1  4  2 -1</clus>
</clustering>
</event>
<event>
 6    1  0.1033679E-011  0.3000000E+03  0.7818608E-02  0.1093470E+00
          1   -1    0    0  502    0  0.00000000000E+00  0.00000000000E+00  0.23485334270E+03  0.23485334270E+03  0.00000000000E+00 0.  1.
         13   -1    0    0    0    0 -0.00000000000E+00 -0.00000000000E+00 -0.27500000000E+03  0.27500000000E+03  0.00000000000E+00 0.  1.
    9000005    2    1    2  501    0  0.31915355585E+02  0.35417856686E+01 -0.72251652767E+02  0.46444558013E+03  0.45766610253E+03 0.  0.
         13    1    3    3    0    0  0.48008587602E+00  0.12304932523E+03  0.15971388662E+03  0.20161818495E+03  0.00000000000E+00 0.  1.
          1    1    3    3  501    0  0.31435269709E+02 -0.11950753956E+03 -0.23196553939E+03  0.26282739518E+03  0.00000000000E+00 0.  1.
         21    1    1    2  502  501 -0.31915355585E+02 -0.35417856686E+01  0.32104995468E+02  0.45407762572E+02  0.00000000000E+00 0.  1.
<scales pt_clust_4="550.00000" pt_clust_5="550.00000" pt_clust_6="32.11128"></scales>
<mgrwt>
<rscale>  0 0.30000000E+03</rscale>
<asrwt>  1 0.32111278E+02</asrwt>
<pdfrwt beam="1">  1        1 0.85401216E+00 0.30000000E+03</pdfrwt>
<pdfrwt beam="2">0</pdfrwt>
<totfact> 0.37866126E-04</totfact>
</mgrwt>
<clustering>
<clus scale="   32.111">  1  6  2 -1</clus>
<clus scale="  457.666">  4  5 -1 -1</clus>
<clus scale="  300.000">  1  4  2 -1</clus>
</clustering>
</event>
<event>
 6    1  0.1033679E-011  0.3000000E+03  0.7818608E-02  0.1093470E+00
          1   -1    0    0  502    0  0.00000000000E+00  0.00000000000E+00  0.23785506963E+03  0.23785506963E+03  0.00000000000E+00 0.  1.
         13   -1    0    0    0    0 -0.00000000000E+00 -0.00000000000E+00 -0.27500000000E+03  0.27500000000E+03  0.00000000000E+00 0.  1.
    9000005    2    1    2  501    0 -0.19176087446E+02 -0.24095644030E+02 -0.50057786036E+02  0.47946249213E+03  0.47584679995E+03 0.  0.
         13    1    3    3    0    0 -0.24551101827E+03 -0.12653918168E+02 -0.58425063398E+02  0.25268413043E+03  0.00000000000E+00 0.  1.
          3    1    3    3  501    0  0.22633493083E+03 -0.11441725862E+02  0.83672773616E+01  0.22677836170E+03  0.00000000000E+00 0.  1.
         21    1    1    2  502  501  0.19176087446E+02  0.24095644030E+02  0.12912855669E+02  0.33392577506E+02  0.00000000000E+00 0. -1.
<scales pt_clust_4="550.00000" pt_clust_5="550.00000" pt_clust_6="30.79484"></scales>
<mgrwt>
<rscale>  0 0.30000000E+03</rscale>
<asrwt>  1 0.30794844E+02</asrwt>
<pdfrwt beam="1">  1        1 0.86492753E+00 0.30000000E+03</pdfrwt>
<pdfrwt beam="2">0</pdfrwt>
<totfact> 0.29323466E-04</totfact>
</mgrwt>
<clustering>
<clus scale="   30.795">  1  6  2 -1</clus>
<clus scale="  475.847">  4  5 -1 -1</clus>
<clus scale="  300.000">  1  4  2 -1</clus>
</clustering>
</event>
<event>
 6    1  0.1033679E-011  0.3000000E+03  0.7818608E-02  0.1093470E+00
          1   -1    0    0  502    0  0.00000000000E+00  0.00000000000E+00  0.26627835267E+03  0.26627835267E+03  0.00000000000E+00 0.  1.
         13   -1    0    0    0    0 -0.00000000000E+00 -0.00000000000E+00 -0.27500000000E+03  0.27500000000E+03  0.00000000000E+00 0.  1.
    9000005    2    1    2  501    0  0.23982465541E+02 -0.40560972471E+02 -0.21396393502E+02  0.49248285768E+03  0.48975627439E+03 0.  0.
         13    1    3    3    0    0 -0.18894976321E+03  0.34288942354E+02  0.11971661003E+03  0.22629584906E+03  0.00000000000E+00 0.  1.
          1    1    3    3  501    0  0.21293222875E+03 -0.74849914826E+02 -0.14111300353E+03  0.26618700862E+03  0.00000000000E+00 0.  1.
         21    1    1    2  502  501 -0.23982465541E+02  0.40560972471E+02  0.12674746173E+02  0.48795494994E+02  0.00000000000E+00 0. -1.
<scales pt_clust_4="550.00000" pt_clust_5="550.00000" pt_clust_6="47.12060"></scales>
<mgrwt>
<rscale>  0 0.30000000E+03</rscale>
<asrwt>  1 0.47120602E+02</asrwt>
<pdfrwt beam="1">  1        1 0.96828492E+00 0.30000000E+03</pdfrwt>
<pdfrwt beam="2">0</pdfrwt>
<totfact> 0.49718394E-06</totfact>
</mgrwt>
<clustering>
<clus scale="   47.121">  1  6  2 -1</clus>
<clus scale="  489.756">  4  5 -1 -1</clus>
<clus scale="  300.000">  1  4  2 -1</clus>
</clustering>
</event>
<event>
 6    1  0.1033679E-011  0.3000000E+03  0.7818608E-02  0.1093470E+00
          1   -1    0    0  502    0  0.00000000000E+00  0.00000000000E+00  0.25028773734E+03  0.25028773734E+03  0.00000000000E+00 0.  1.
         13   -1    0    0    0    0 -0.00000000000E+00 -0.00000000000E+00 -0.27500000000E+03  0.27500000000E+03  0.00000000000E+00 0.  1.
    9000005    2    1    2  501    0 -0.19857752573E+02  0.39975564183E+02 -0.45340460754E+02  0.47611560473E+03  0.47184524541E+03 0.  0.
         13    1    3    3    0    0 -0.17354322151E+03 -0.13709418915E+02 -0.19045956507E+03  0.25803109081E+03  0.00000000000E+00 0.  1.
          1    1    3    3  501    0  0.15368546894E+03  0.53684983098E+02  0.14511910432E+03  0.21808451392E+03  0.00000000000E+00 0.  1.
         21    1    1    2  502  501  0.19857752573E+02 -0.39975564183E+02  0.20628198098E+02  0.49172132614E+02  0.00000000000E+00 0.  1.
<scales pt_clust_4="550.00000" pt_clust_5="550.00000" pt_clust_6="44.63604"></scales>
<mgrwt>
<rscale>  0 0.30000000E+03</rscale>
<asrwt>  1 0.44636040E+02</asrwt>
<pdfrwt beam="1">  1        1 0.91013723E+00 0.30000000E+03</pdfrwt>
<pdfrwt beam="2">0</pdfrwt>
<totfact> 0.68205057E-05</totfact>
</mgrwt>
<clustering>
<clus scale="   44.636">  1  6  2 -1</clus>
<clus scale="  471.845">  4  5 -1 -1</clus>
<clus scale="  300.000">  1  4  2 -1</clus>
</clustering>
</event>
<event>
 6    1  0.1033679E-011  0.3000000E+03  0.7818608E-02  0.1093470E+00
          1   -1    0    0  502    0  0.00000000000E+00  0.00000000000E+00  0.24294404473E+03  0.24294404473E+03  0.00000000000E+00 0.  1.
         13   -1    0    0    0    0 -0.00000000000E+00 -0.00000000000E+00 -0.27500000000E+03  0.27500000000E+03  0.00000000000E+00 0.  1.
    9000005    2    1    2  501    0 -0.37639998514E+02 -0.16170173903E+01 -0.42549862663E+02  0.47883514132E+03  0.47545054161E+03 0.  0.
         13    1    3    3    0    0 -0.39830840068E+02  0.66335403978E+02  0.20657992122E+03  0.22059498066E+03  0.00000000000E+00 0.  1.
          3    1    3    3  501    0  0.21908415540E+01 -0.67952421368E+02 -0.24912978389E+03  0.25824016066E+03  0.00000000000E+00 0.  1.
         21    1    1    2  502  501  0.37639998514E+02  0.16170173903E+01  0.10493907389E+02  0.39108903407E+02  0.00000000000E+00 0.  1.
<scales pt_clust_4="550.00000" pt_clust_5="550.00000" pt_clust_6="37.67472"></scales>
<mgrwt>
<rscale>  0 0.30000000E+03</rscale>
<asrwt>  1 0.37674716E+02</asrwt>
<pdfrwt beam="1">  1        1 0.88343289E+00 0.30000000E+03</pdfrwt>
<pdfrwt beam="2">0</pdfrwt>
<totfact> 0.17580184E-04</totfact>
</mgrwt>
<clustering>
<clus scale="   37.675">  1  6  2 -1</clus>
<clus scale="  475.451">  4  5 -1 -1</clus>
<clus scale="  300.000">  1  4  2 -1</clus>
</clustering>
</event>
<event>
 6    1  0.1033679E-011  0.3000000E+03  0.7818608E-02  0.1093470E+00
          1   -1    0    0  502    0  0.00000000000E+00  0.00000000000E+00  0.22997477117E+03  0.22997477117E+03  0.00000000000E+00 0.  1.
         13   -1    0    0    0    0 -0.00000000000E+00 -0.00000000000E+00 -0.27500000000E+03  0.27500000000E+03  0.00000000000E+00 0.  1.
    9000005    2    1    2  501    0 -0.15749992997E+01 -0.37160043618E+02 -0.59933557220E+02  0.46490473598E+03  0.45952261402E+03 0.  0.
         13    1    3    3    0    0  0.79893264925E+02  0.12631759021E+03  0.13239225792E+03  0.19966666555E+03  0.00000000000E+00 0.  1.
          3    1    3    3  501    0 -0.81468264225E+02 -0.16347763382E+03 -0.19232581514E+03  0.26523807043E+03  0.00000000000E+00 0.  1.
         21    1    1    2  502  501  0.15749992997E+01  0.37160043618E+02  0.14908328389E+02  0.40070035186E+02  0.00000000000E+00 0.  1.
<scales pt_clust_4="550.00000" pt_clust_5="550.00000" pt_clust_6="37.19341"></scales>
<mgrwt>
<rscale>  0 0.30000000E+03</rscale>
<asrwt>  1 0.37193406E+02</asrwt>
<pdfrwt beam="1">  1        1 0.83627190E+00 0.30000000E+03</pdfrwt>
<pdfrwt beam="2">0</pdfrwt>
<totfact> 0.52364029E-04</totfact>
</mgrwt>
<clustering>
<clus scale="   37.193">  1  6  2 -1</clus>
<clus scale="  459.523">  4  5 -1 -1</clus>
<clus scale="  300.000">  1  4  2 -1</clus>
</clustering>
</event>
<event>
 6    1  0.1033679E-011  0.3000000E+03  0.7818608E-02  0.1093470E+00
          1   -1    0    0  502    0  0.00000000000E+00  0.00000000000E+00  0.22391897931E+03  0.22391897931E+03  0.00000000000E+00 0.  1.
         13   -1    0    0    0    0 -0.00000000000E+00 -0.00000000000E+00 -0.27500000000E+03  0.27500000000E+03  0.00000000000E+00 0.  1.
    9000005    2    1    2  501    0  0.30953983162E+02  0.22987873160E+01 -0.68038035566E+02  0.46354987061E+03  0.45747773144E+03 0.  0.
         13    1    3    3    0    0  0.84638892731E+02 -0.21642395317E+03 -0.19804581020E+02  0.23322798095E+03  0.00000000000E+00 0.  1.
          1    1    3    3  501    0 -0.53684909569E+02  0.21872274048E+03 -0.48233454546E+02  0.23032188966E+03  0.00000000000E+00 0.  1.
         21    1    1    2  502  501 -0.30953983162E+02 -0.22987873160E+01  0.16957014873E+02  0.35369108698E+02  0.00000000000E+00 0.  1.
<scales pt_clust_4="550.00000" pt_clust_5="550.00000" pt_clust_6="31.03923"></scales>
<mgrwt>
<rscale>  0 0.30000000E+03</rscale>
<asrwt>  1 0.31039225E+02</asrwt>
<pdfrwt beam="1">  1        1 0.81425083E+00 0.30000000E+03</pdfrwt>
<pdfrwt beam="2">0</pdfrwt>
<totfact> 0.82572927E-04</totfact>
</mgrwt>
<clustering>
<clus scale="   31.039">  1  6  2 -1</clus>
<clus scale="  457.478">  4  5 -1 -1</clus>
<clus scale="  300.000">  1  4  2 -1</clus>
</clustering>
</event>
<event>
 6    1  0.1033679E-011  0.3000000E+03  0.7818608E-02  0.1093470E+00
          1   -1    0    0  502    0  0.00000000000E+00  0.00000000000E+00  0.24006051561E+03  0.24006051561E+03  0.00000000000E+00 0.  1.
         13   -1    0    0    0    0 -0.00000000000E+00 -0.00000000000E+00 -0.27500000000E+03  0.27500000000E+03  0.00000000000E+00 0.  1.
    9000005    2    1    2  501    0 -0.20963977165E+02  0.27116042987E+02 -0.60180248536E+02  0.47249451626E+03  0.46739131085E+03 0.  0.
         13    1    3    3    0    0 -0.10498481493E+02 -0.22049736741E+03 -0.32270788824E+02  0.22309350273E+03  0.00000000000E+00 0.  1.
          1    1    3    3  501    0 -0.10465495672E+02  0.24761341040E+03 -0.27909459711E+02  0.24940101353E+03  0.00000000000E+00 0.  1.
         21    1    1    2  502  501  0.20963977165E+02 -0.27116042987E+02  0.25240764148E+02  0.42565999349E+02  0.00000000000E+00 0. -1.
<scales pt_clust_4="550.00000" pt_clust_5="550.00000" pt_clust_6="34.27489"></scales>
<mgrwt>
<rscale>  0 0.30000000E+03</rscale>
<asrwt>  1 0.34274891E+02</asrwt>
<pdfrwt beam="1">  1        1 0.87294733E+00 0.30000000E+03</pdfrwt>
<pdfrwt beam="2">0</pdfrwt>
<totfact> 0.23720376E-04</totfact>
</mgrwt>
<clustering>
<clus scale="   34.275">  1  6  2 -1</clus>
<clus scale="  467.391">  4  5 -1 -1</clus>
<clus scale="  300.000">  1  4  2 -1</clus>
</clustering>
</event>
<event>
 6    1  0.1033679E-011  0.3000000E+03  0.7818608E-02  0.1093470E+00
          1   -1    0    0  502    0  0.00000000000E+00  0.00000000000E+00  0.22647941766E+03  0.22647941766E+03  0.00000000000E+00 0.  1.
         13   -1    0    0    0    0 -0.00000000000E+00 -0.00000000000E+00 -0.27500000000E+03  0.27500000000E+03  0.00000000000E+00 0.  1.
    9000005    2    1    2  501    0 -0.32042959855E+02 -0.81818479960E+01 -0.55780381969E+02  0.46762090908E+03  0.46310276363E+03 0.  0.
         13    1    3    3    0    0 -0.15856817245E+03 -0.18538788134E+03 -0.54080835748E+02  0.24987450582E+03  0.00000000000E+00 0.  1.
          3    1    3    3  501    0  0.12652521259E+03  0.17720603335E+03 -0.16995462217E+01  0.21774640326E+03  0.00000000000E+00 0.  1.
         21    1    1    2  502  501  0.32042959855E+02  0.81818479960E+01  0.72597996296E+01  0.33858508584E+02  0.00000000000E+00 0. -1.
<scales pt_clust_4="550.00000" pt_clust_5="550.00000" pt_clust_6="33.07104"></scales>
<mgrwt>
<rscale>  0 0.30000000E+03</rscale>
<asrwt>  1 0.33071043E+02</asrwt>
<pdfrwt beam="1">  1        1 0.82356152E+00 0.30000000E+03</pdfrwt>
<pdfrwt beam="2">0</pdfrwt>
<totfact> 0.67999908E-04</totfact>
</mgrwt>
<clustering>
<clus scale="   33.071">  1  6  2 -1</clus>
<clus scale="  463.103">  4  5 -1 -1</clus>
<clus scale="  300.000">  1  4  2 -1</clus>
</clustering>
</event>
<event>
 6    1  0.1033679E-011  0.3000000E+03  0.7818608E-02  0.1093470E+00
          1   -1    0    0  502    0  0.00000000000E+00  0.00000000000E+00  0.22523616834E+03  0.22523616834E+03  0.00000000000E+00 0.  1.
         13   -1    0    0    0    0 -0.00000000000E+00 -0.00000000000E+00 -0.27500000000E+03  0.27500000000E+03  0.00000000000E+00 0.  1.
    9000005    2    1    2  501    0 -0.30467067210E+02 -0.21076988453E+01 -0.58118881975E+02  0.46857402305E+03  0.46395164194E+03 0.  0.
         13    1    3    3    0    0 -0.29695502104E+01 -0.11188928988E+03  0.17597696333E+03  0.20855676216E+03  0.00000000000E+00 0.  1.
          3    1    3    3  501    0 -0.27497517000E+02  0.10978159104E+03 -0.23409584531E+03  0.26001726089E+03  0.00000000000E+00 0.  1.
         21    1    1    2  502  501  0.30467067210E+02  0.21076988453E+01  0.83550503194E+01  0.31662145295E+02  0.00000000000E+00 0.  1.
<scales pt_clust_4="550.00000" pt_clust_5="550.00000" pt_clust_6="30.53989"></scales>
<mgrwt>
<rscale>  0 0.30000000E+03</rscale>
<asrwt>  1 0.30539885E+02</asrwt>
<pdfrwt beam="1">  1        1 0.81904061E+00 0.30000000E+03</pdfrwt>
<pdfrwt beam="2">0</pdfrwt>
<totfact> 0.75643798E-04</totfact>
</mgrwt>
<clustering>
<clus scale="   30.540">  1  6  2 -1</clus>
<clus scale="  463.952">  4  5 -1 -1</clus>
<clus scale="  300.000">  1  4  2 -1</clus>
</clustering>
</event>
<event>
 6    1  0.1033679E-011  0.3000000E+03  0.7818608E-02  0.1093470E+00
          1   -1    0    0  502    0  0.00000000000E+00  0.00000000000E+00  0.25329282673E+03  0.25329282673E+03  0.00000000000E+00 0.  1.
         13   -1    0    0    0    0 -0.00000000000E+00 -0.00000000000E+00 -0.27500000000E+03  0.27500000000E+03  0.00000000000E+00 0.  1.
    9000005    2    1    2  501    0 -0.35507664810E+02  0.11108638506E+02 -0.30909051567E+02  0.48996697809E+03  0.48757366012E+03 0.  0.
         13    1    3    3    0    0  0.69446195385E+02  0.20853615141E+03 -0.11865103697E+03  0.24977623800E+03  0.00000000000E+00 0.  1.
          1    1    3    3  501    0 -0.10495386020E+03 -0.19742751290E+03  0.87741985399E+02  0.24019074009E+03  0.00000000000E+00 0.  1.
         21    1    1    2  502  501  0.35507664810E+02 -0.11108638506E+02  0.92018782972E+01  0.38325848639E+02  0.00000000000E+00 0. -1.
<scales pt_clust_4="550.00000" pt_clust_5="550.00000" pt_clust_6="37.20479"></scales>
<mgrwt>
<rscale>  0 0.30000000E+03</rscale>
<asrwt>  1 0.37204786E+02</asrwt>
<pdfrwt beam="1">  1        1 0.92106482E+00 0.30000000E+03</pdfrwt>
<pdfrwt beam="2">0</pdfrwt>
<totfact> 0.39200894E-05</totfact>
</mgrwt>
<clustering>
<clus scale="   37.205">  1  6  2 -1</clus>
<clus scale="  487.574">  4  5 -1 -1</clus>
<clus scale="  300.000">  1  4  2 -1</clus>
</clustering>
</event>
<event>
 6    1  0.1033679E-011  0.3000000E+03  0.7818608E-02  0.1093470E+00
          1   -1    0    0  502    0  0.00000000000E+00  0.00000000000E+00  0.21997850817E+03  0.21997850817E+03  0.00000000000E+00 0.  1.
         13   -1    0    0    0    0 -0.00000000000E+00 -0.00000000000E+00 -0.27500000000E+03  0.27500000000E+03  0.00000000000E+00 0.  1.
    9000005    2    1    2  501    0 -0.31707614969E+02  0.42256746521E+01 -0.58022727583E+02  0.46285006922E+03  0.45808331173E+03 0.  0.
         13    1    3    3    0    0 -0.15778441209E+03  0.15078590644E+03  0.72056081584E+02  0.22983556986E+03  0.00000000000E+00 0.  1.
          1    1    3    3  501    0  0.12607679713E+03 -0.14656023179E+03 -0.13007880917E+03  0.23301449936E+03  0.00000000000E+00 0.  1.
         21    1    1    2  502  501  0.31707614969E+02 -0.42256746521E+01  0.30012357547E+01  0.32128438949E+02  0.00000000000E+00 0.  1.
<scales pt_clust_4="550.00000" pt_clust_5="550.00000" pt_clust_6="31.98795"></scales>
<mgrwt>
<rscale>  0 0.30000000E+03</rscale>
<asrwt>  1 0.31987954E+02</asrwt>
<pdfrwt beam="1">  1        1 0.79992185E+00 0.30000000E+03</pdfrwt>
<pdfrwt beam="2">0</pdfrwt>
<totfact> 0.10561489E-03</totfact>
</mgrwt>
<clustering>
<clus scale="   31.988">  1  6  2 -1</clus>
<clus scale="  458.083">  4  5 -1 -1</clus>
<clus scale="  300.000">  1  4  2 -1</clus>
</clustering>
</event>
<event>
 6    1  0.1033679E-011  0.3000000E+03  0.7818608E-02  0.1093470E+00
          1   -1    0    0  502    0  0.00000000000E+00  0.00000000000E+00  0.23589704110E+03  0.23589704110E+03  0.00000000000E+00 0.  1.
         13   -1    0    0    0    0 -0.00000000000E+00 -0.00000000000E+00 -0.27500000000E+03  0.27500000000E+03  0.00000000000E+00 0.  1.
    9000005    2    1    2  501    0  0.31097143882E+02  0.17015895464E+02 -0.41828932026E+02  0.47534420738E+03  0.47217145496E+03 0.  0.
         13    1    3    3    0    0  0.10412758886E+03  0.19568460074E+02 -0.24096200262E+03  0.26322645403E+03  0.00000000000E+00 0.  1.
          1    1    3    3  501    0 -0.73030444979E+02 -0.25525646103E+01  0.19913307060E+03  0.21211775335E+03  0.00000000000E+00 0.  1.
         21    1    1    2  502  501 -0.31097143882E+02 -0.17015895464E+02  0.27259731226E+01  0.35552833720E+02  0.00000000000E+00 0. -1.
<scales pt_clust_4="550.00000" pt_clust_5="550.00000" pt_clust_6="35.44817"></scales>
<mgrwt>
<rscale>  0 0.30000000E+03</rscale>
<asrwt>  1 0.35448174E+02</asrwt>
<pdfrwt beam="1">  1        1 0.85780742E+00 0.30000000E+03</pdfrwt>
<pdfrwt beam="2">0</pdfrwt>
<totfact> 0.34034156E-04</totfact>
</mgrwt>
<clustering>
<clus scale="   35.448">  1  6  2 -1</clus>
<clus scale="  472.171">  4  5 -1 -1</clus>
<clus scale="  300.000">  1  4  2 -1</clus>
</clustering>
</event>
<event>
 6    1  0.1033679E-011  0.3000000E+03  0.7818608E-02  0.1093470E+00
          1   -1    0    0  502    0  0.00000000000E+00  0.00000000000E+00  0.25231922527E+03  0.25231922527E+03  0.00000000000E+00 0.  1.
         13   -1    0    0    0    0 -0.00000000000E+00 -0.00000000000E+00 -0.27500000000E+03  0.27500000000E+03  0.00000000000E+00 0.  1.
    9000005    2    1    2  501    0  0.38937147032E+02 -0.10419187449E+01 -0.51513714208E+02  0.47885763829E+03  0.47448265298E+03 0.  0.
         13    1    3    3    0    0  0.11219061346E+03 -0.10576379807E+02  0.19296657353E+03  0.22346071704E+03  0.00000000000E+00 0.  1.
          1    1    3    3  501    0 -0.73253466432E+02  0.95344610617E+01 -0.24448028774E+03  0.25539692125E+03  0.00000000000E+00 0.  1.
         21    1    1    2  502  501 -0.38937147032E+02  0.10419187449E+01  0.28832939478E+02  0.48461586980E+02  0.00000000000E+00 0.  1.
<scales pt_clust_4="550.00000" pt_clust_5="550.00000" pt_clust_6="38.95108"></scales>
<mgrwt>
<rscale>  0 0.30000000E+03</rscale>
<asrwt>  1 0.38951085E+02</asrwt>
<pdfrwt beam="1">  1        1 0.91752446E+00 0.30000000E+03</pdfrwt>
<pdfrwt beam="2">0</pdfrwt>
<totfact> 0.46478894E-05</totfact>
</mgrwt>
<clustering>
<clus scale="   38.951">  1  6  2 -1</clus>
<clus scale="  474.483">  4  5 -1 -1</clus>
<clus scale="  300.000">  1  4  2 -1</clus>
</clustering>
</event>
<event>
 6    1  0.1033679E-011  0.3000000E+03  0.7818608E-02  0.1093470E+00
          1   -1    0    0  502    0  0.00000000000E+00  0.00000000000E+00  0.23042719309E+03  0.23042719309E+03  0.00000000000E+00 0.  1.
         13   -1    0    0    0    0 -0.00000000000E+00 -0.00000000000E+00 -0.27500000000E+03  0.27500000000E+03  0.00000000000E+00 0.  1.
    9000005    2    1    2  501    0 -0.25206941268E+02 -0.18078187293E+02 -0.67666748142E+02  0.46675496965E+03  0.46078107833E+03 0.  0.
         13    1    3    3    0    0  0.63574292990E+02  0.12272740197E+03 -0.20752610286E+03  0.24934070925E+03  0.00000000000E+00 0.  1.
          1    1    3    3  501    0 -0.88781234258E+02 -0.14080558927E+03  0.13985935471E+03  0.21741426040E+03  0.00000000000E+00 0.  1.
         21    1    1    2  502  501  0.25206941268E+02  0.18078187293E+02  0.23093941233E+02  0.38672223436E+02  0.00000000000E+00 0. -1.
<scales pt_clust_4="550.00000" pt_clust_5="550.00000" pt_clust_6="31.01952"></scales>
<mgrwt>
<rscale>  0 0.30000000E+03</rscale>
<asrwt>  1 0.31019522E+02</asrwt>
<pdfrwt beam="1">  1        1 0.83791707E+00 0.30000000E+03</pdfrwt>
<pdfrwt beam="2">0</pdfrwt>
<totfact> 0.52709289E-04</totfact>
</mgrwt>
<clustering>
<clus scale="   31.020">  1  6  2 -1</clus>
<clus scale="  460.781">  4  5 -1 -1</clus>
<clus scale="  300.000">  1  4  2 -1</clus>
</clustering>
</event>
<event>
 6    1  0.1033679E-011  0.3000000E+03  0.7818608E-02  0.1093470E+00
          1   -1    0    0  502    0  0.00000000000E+00  0.00000000000E+00  0.22819651825E+03  0.22819651825E+03  0.00000000000E+00 0.  1.
         13   -1    0    0    0    0 -0.00000000000E+00 -0.00000000000E+00 -0.27500000000E+03  0.27500000000E+03  0.00000000000E+00 0.  1.
    9000005    2    1    2  501    0 -0.32408718761E+02  0.12977803063E+02 -0.56880761567E+02  0.46686058572E+03  0.46206561984E+03 0.  0.
         13    1    3    3    0    0  0.12196968928E+03  0.12966310294E+03 -0.16710278455E+03  0.24415664228E+03  0.00000000000E+00 0.  1.
          3    1    3    3  501    0 -0.15437840804E+03 -0.11668529987E+03  0.11022202298E+03  0.22270394344E+03  0.00000000000E+00 0.  1.
         21    1    1    2  502  501  0.32408718761E+02 -0.12977803063E+02  0.10077279812E+02  0.36335932526E+02  0.00000000000E+00 0. -1.
<scales pt_clust_4="550.00000" pt_clust_5="550.00000" pt_clust_6="34.91058"></scales>
<mgrwt>
<rscale>  0 0.30000000E+03</rscale>
<asrwt>  1 0.34910578E+02</asrwt>
<pdfrwt beam="1">  1        1 0.82980552E+00 0.30000000E+03</pdfrwt>
<pdfrwt beam="2">0</pdfrwt>
<totfact> 0.59349034E-04</totfact>
</mgrwt>
<clustering>
<clus scale="   34.911">  1  6  2 -1</clus>
<clus scale="  462.066">  4  5 -1 -1</clus>
<clus scale="  300.000">  1  4  2 -1</clus>
</clustering>
</event>
<event>
 6    1  0.1033679E-011  0.3000000E+03  0.7818608E-02  0.1093470E+00
          1   -1    0    0  502    0  0.00000000000E+00  0.00000000000E+00  0.23279601829E+03  0.23279601829E+03  0.00000000000E+00 0.  1.
         13   -1    0    0    0    0 -0.00000000000E+00 -0.00000000000E+00 -0.27500000000E+03  0.27500000000E+03  0.00000000000E+00 0.  1.
    9000005    2    1    2  501    0  0.43385264607E+01  0.37507915921E+02 -0.28370861281E+02  0.46758380883E+03  0.46519248268E+03 0.  0.
         13    1    3    3    0    0  0.15972235403E+03 -0.15169495504E+03 -0.32838854743E+02  0.22271277499E+03  0.00000000000E+00 0.  1.
          1    1    3    3  501    0 -0.15538382757E+03  0.18920287096E+03  0.44679934621E+01  0.24487103384E+03  0.00000000000E+00 0.  1.
         21    1    1    2  502  501 -0.43385264607E+01 -0.37507915921E+02 -0.13833120433E+02  0.40212209458E+02  0.00000000000E+00 0.  1.
<scales pt_clust_4="550.00000" pt_clust_5="550.00000" pt_clust_6="37.75802"></scales>
<mgrwt>
<rscale>  0 0.30000000E+03</rscale>
<asrwt>  1 0.37758019E+02</asrwt>
<pdfrwt beam="1">  1        1 0.84653098E+00 0.30000000E+03</pdfrwt>
<pdfrwt beam="2">0</pdfrwt>
<totfact> 0.43182002E-04</totfact>
</mgrwt>
<clustering>
<clus scale="   37.758">  1  6  2 -1</clus>
<clus scale="  465.192">  4  5 -1 -1</clus>
<clus scale="  300.000">  1  4  2 -1</clus>
</clustering>
</event>
<event>
 6    1  0.1033679E-011  0.3000000E+03  0.7818608E-02  0.1093470E+00
          1   -1    0    0  502    0  0.00000000000E+00  0.00000000000E+00  0.24370880766E+03  0.24370880766E+03  0.00000000000E+00 0.  1.
         13   -1    0    0    0    0 -0.00000000000E+00 -0.00000000000E+00 -0.27500000000E+03  0.27500000000E+03  0.00000000000E+00 0.  1.
    9000005    2    1    2  501    0  0.27325402803E+02 -0.29822216209E+02 -0.57182299786E+02  0.47068390097E+03  0.46544331234E+03 0.  0.
         13    1    3    3    0    0  0.44511080864E+02  0.18312612310E+03  0.92392062388E+02  0.20988736616E+03  0.00000000000E+00 0.  1.
          1    1    3    3  501    0 -0.17185678061E+02 -0.21294833931E+03 -0.14957436217E+03  0.26079653481E+03  0.00000000000E+00 0.  1.
         21    1    1    2  502  501 -0.27325402803E+02  0.29822216209E+02  0.25891107450E+02  0.48024906694E+02  0.00000000000E+00 0. -1.
<scales pt_clust_4="550.00000" pt_clust_5="550.00000" pt_clust_6="40.44802"></scales>
<mgrwt>
<rscale>  0 0.30000000E+03</rscale>
<asrwt>  1 0.40448019E+02</asrwt>
<pdfrwt beam="1">  1        1 0.88621385E+00 0.30000000E+03</pdfrwt>
<pdfrwt beam="2">0</pdfrwt>
<totfact> 0.15900178E-04</totfact>
</mgrwt>
<clustering>
<clus scale="   40.448">  1  6  2 -1</clus>
<clus scale="  465.443">  4  5 -1 -1</clus>
<clus scale="  300.000">  1  4  2 -1</clus>
</clustering>
</event>
<event>
 6    1  0.1033679E-011  0.3000000E+03  0.7818608E-02  0.1093470E+00
          1   -1    0    0  502    0  0.00000000000E+00  0.00000000000E+00  0.21827589454E+03  0.21827589454E+03  0.00000000000E+00 0.  1.
         13   -1    0    0    0    0 -0.00000000000E+00 -0.00000000000E+00 -0.27500000000E+03  0.27500000000E+03  0.00000000000E+00 0.  1.
    9000005    2    1    2  501    0 -0.27604627294E+02 -0.14309015890E+02 -0.45024989310E+02  0.46005492673E+03  0.45678936345E+03 0.  0.
         13    1    3    3    0    0  0.20927928576E+03 -0.55419538878E+02 -0.67138473031E+01  0.21659690783E+03  0.00000000000E+00 0.  1.
          3    1    3    3  501    0 -0.23688391305E+03  0.41110522988E+02 -0.38311142007E+02  0.24345801890E+03  0.00000000000E+00 0.  1.
         21    1    1    2  502  501  0.27604627294E+02  0.14309015890E+02 -0.11699116148E+02  0.33220967813E+02  0.00000000000E+00 0. -1.
<scales pt_clust_4="550.00000" pt_clust_5="550.00000" pt_clust_6="31.09283"></scales>
<mgrwt>
<rscale>  0 0.30000000E+03</rscale>
<asrwt>  1 0.31092834E+02</asrwt>
<pdfrwt beam="1">  1        1 0.79373053E+00 0.30000000E+03</pdfrwt>
<pdfrwt beam="2">0</pdfrwt>
<totfact> 0.11793468E-03</totfact>
</mgrwt>
<clustering>
<clus scale="   31.093">  1  6  2 -1</clus>
<clus scale="  456.789">  4  5 -1 -1</clus>
<clus scale="  300.000">  1  4  2 -1</clus>
</clustering>
</event>
<event>
 6    1  0.1033679E-011  0.3000000E+03  0.7818608E-02  0.1093470E+00
          1   -1    0    0  502    0  0.00000000000E+00  0.00000000000E+00  0.23225743018E+03  0.23225743018E+03  0.00000000000E+00 0.  1.
         13   -1    0    0    0    0 -0.00000000000E+00 -0.00000000000E+00 -0.27500000000E+03  0.27500000000E+03  0.00000000000E+00 0.  1.
    9000005    2    1    2  501    0  0.18929741167E+02  0.24701238120E+02 -0.53763594645E+02  0.47424305069E+03  0.47015684697E+03 0.  0.
         13    1    3    3    0    0 -0.62588175190E+02  0.21991618623E+03  0.56719269477E+02  0.23557904017E+03  0.00000000000E+00 0.  1.
          3    1    3    3  501    0  0.81517916357E+02 -0.19521494811E+03 -0.11048286412E+03  0.23866401052E+03  0.00000000000E+00 0.  1.
         21    1    1    2  502  501 -0.18929741167E+02 -0.24701238120E+02  0.11021024830E+02  0.33014379498E+02  0.00000000000E+00 0. -1.
<scales pt_clust_4="550.00000" pt_clust_5="550.00000" pt_clust_6="31.12051"></scales>
<mgrwt>
<rscale>  0 0.30000000E+03</rscale>
<asrwt>  1 0.31120512E+02</asrwt>
<pdfrwt beam="1">  1        1 0.84457247E+00 0.30000000E+03</pdfrwt>
<pdfrwt beam="2">0</pdfrwt>
<totfact> 0.46595026E-04</totfact>
</mgrwt>
<clustering>
<clus scale="   31.121">  1  6  2 -1</clus>
<clus scale="  470.157">  4  5 -1 -1</clus>
<clus scale="  300.000">  1  4  2 -1</clus>
</clustering>
</event>
<event>
 6    1  0.1033679E-011  0.3000000E+03  0.7818608E-02  0.1093470E+00
          1   -1    0    0  502    0  0.00000000000E+00  0.00000000000E+00  0.24562467953E+03  0.24562467953E+03  0.00000000000E+00 0.  1.
         13   -1    0    0    0    0 -0.00000000000E+00 -0.00000000000E+00 -0.27500000000E+03  0.27500000000E+03  0.00000000000E+00 0.  1.
    9000005    2    1    2  501    0 -0.25314023169E+02  0.22433872367E+02 -0.28092116442E+02  0.48677611958E+03  0.48478628816E+03 0.  0.
         13    1    3    3    0    0 -0.87705052466E+02 -0.20973058819E+03 -0.79701402600E+02  0.24089709302E+03  0.00000000000E+00 0.  1.
          1    1    3    3  501    0  0.62391029297E+02  0.23216446056E+03  0.51609286158E+02  0.24587902655E+03  0.00000000000E+00 0.  1.
         21    1    1    2  502  501  0.25314023169E+02 -0.22433872367E+02 -0.12832040273E+01  0.33848559954E+02  0.00000000000E+00 0. -1.
<scales pt_clust_4="550.00000" pt_clust_5="550.00000" pt_clust_6="33.82423"></scales>
<mgrwt>
<rscale>  0 0.30000000E+03</rscale>
<asrwt>  1 0.33824228E+02</asrwt>
<pdfrwt beam="1">  1        1 0.89318065E+00 0.30000000E+03</pdfrwt>
<pdfrwt beam="2">0</pdfrwt>
<totfact> 0.13312823E-04</totfact>
</mgrwt>
<clustering>
<clus scale="   33.824">  1  6  2 -1</clus>
<clus scale="  484.786">  4  5 -1 -1</clus>
<clus scale="  300.000">  1  4  2 -1</clus>
</clustering>
</event>
<event>
 6    1  0.1033679E-011  0.3000000E+03  0.7818608E-02  0.1093470E+00
          1   -1    0    0  502    0  0.00000000000E+00  0.00000000000E+00  0.22652948132E+03  0.22652948132E+03  0.00000000000E+00 0.  1.
         13   -1    0    0    0    0 -0.00000000000E+00 -0.00000000000E+00 -0.27500000000E+03  0.27500000000E+03  0.00000000000E+00 0.  1.
    9000005    2    1    2  501    0  0.32475941459E+02  0.19436272463E+02 -0.55600663884E+02  0.46301591966E+03  0.45810463060E+03 0.  0.
         13    1    3    3    0    0 -0.62811449803E+02  0.14784449583E+03  0.13810361023E+03  0.21183927948E+03  0.00000000000E+00 0.  1.
          1    1    3    3  501    0  0.95287391262E+02 -0.12840822337E+03 -0.19370427411E+03  0.25117664018E+03  0.00000000000E+00 0.  1.
         21    1    1    2  502  501 -0.32475941459E+02 -0.19436272463E+02  0.71301452035E+01  0.38513561657E+02  0.00000000000E+00 0. -1.
<scales pt_clust_4="550.00000" pt_clust_5="550.00000" pt_clust_6="37.84779"></scales>
<mgrwt>
<rscale>  0 0.30000000E+03</rscale>
<asrwt>  1 0.37847793E+02</asrwt>
<pdfrwt beam="1">  1        1 0.82374357E+00 0.30000000E+03</pdfrwt>
<pdfrwt beam="2">0</pdfrwt>
<totfact> 0.66060797E-04</totfact>
</mgrwt>
<clustering>
<clus scale="   37.848">  1  6  2 -1</clus>
<clus scale="  458.105">  4  5 -1 -1</clus>
<clus scale="  300.000">  1  4  2 -1</clus>
</clustering>
</event>
<event>
 6    1  0.1033679E-011  0.3000000E+03  0.7818608E-02  0.1093470E+00
          1   -1    0    0  502    0  0.00000000000E+00  0.00000000000E+00  0.24737734466E+03  0.24737734466E+03  0.00000000000E+00 0.  1.
         13   -1    0    0    0    0 -0.00000000000E+00 -0.00000000000E+00 -0.27500000000E+03  0.27500000000E+03  0.00000000000E+00 0.  1.
    9000005    2    1    2  501    0 -0.27524242154E+02 -0.14411826738E+02 -0.44829862378E+02  0.48686153649E+03  0.48379660447E+03 0.  0.
         13    1    3    3    0    0  0.91770588732E+02 -0.84355916864E+02 -0.22650763858E+03  0.25854104510E+03  0.00000000000E+00 0.  1.
          3    1    3    3  501    0 -0.11929483089E+03  0.69944090127E+02  0.18167777620E+03  0.22832049139E+03  0.00000000000E+00 0.  1.
         21    1    1    2  502  501  0.27524242154E+02  0.14411826738E+02  0.17207207037E+02  0.35515808172E+02  0.00000000000E+00 0. -1.
<scales pt_clust_4="550.00000" pt_clust_5="550.00000" pt_clust_6="31.06903"></scales>
<mgrwt>
<rscale>  0 0.30000000E+03</rscale>
<asrwt>  1 0.31069030E+02</asrwt>
<pdfrwt beam="1">  1        1 0.89955398E+00 0.30000000E+03</pdfrwt>
<pdfrwt beam="2">0</pdfrwt>
<totfact> 0.11440609E-04</totfact>
</mgrwt>
<clustering>
<clus scale="   31.069">  1  6  2 -1</clus>
<clus scale="  483.797">  4  5 -1 -1</clus>
<clus scale="  300.000">  1  4  2 -1</clus>
</clustering>
</event>
<event>
 6    1  0.1033679E-011  0.3000000E+03  0.7818608E-02  0.1093470E+00
          1   -1    0    0  502    0  0.00000000000E+00  0.00000000000E+00  0.24530257094E+03  0.24530257094E+03  0.00000000000E+00 0.  1.
         13   -1    0    0    0    0 -0.00000000000E+00 -0.00000000000E+00 -0.27500000000E+03  0.27500000000E+03  0.00000000000E+00 0.  1.
    9000005    2    1    2  501    0  0.28738093601E+02 -0.42154024155E+02 -0.55029136440E+02  0.46334174954E+03  0.45722481476E+03 0.  0.
         13    1    3    3    0    0  0.86928949401E+02  0.11069365670E+03 -0.20015464905E+03  0.24468676183E+03  0.00000000000E+00 0.  1.
          3    1    3    3  501    0 -0.58190855800E+02 -0.15284768086E+03  0.14512551261E+03  0.21865498771E+03  0.00000000000E+00 0.  1.
         21    1    1    2  502  501 -0.28738093601E+02  0.42154024155E+02  0.25331707380E+02  0.56960821404E+02  0.00000000000E+00 0.  1.
<scales pt_clust_4="550.00000" pt_clust_5="550.00000" pt_clust_6="51.01803"></scales>
<mgrwt>
<rscale>  0 0.30000000E+03</rscale>
<asrwt>  1 0.51018034E+02</asrwt>
<pdfrwt beam="1">  1        1 0.89200935E+00 0.30000000E+03</pdfrwt>
<pdfrwt beam="2">0</pdfrwt>
<totfact> 0.12762181E-04</totfact>
</mgrwt>
<clustering>
<clus scale="   51.018">  1  6  2 -1</clus>
<clus scale="  457.225">  4  5 -1 -1</clus>
<clus scale="  300.000">  1  4  2 -1</clus>
</clustering>
</event>
<event>
 6    1  0.1033679E-011  0.3000000E+03  0.7818608E-02  0.1093470E+00
          1   -1    0    0  502    0  0.00000000000E+00  0.00000000000E+00  0.24157759522E+03  0.24157759522E+03  0.00000000000E+00 0.  1.
         13   -1    0    0    0    0 -0.00000000000E+00 -0.00000000000E+00 -0.27500000000E+03  0.27500000000E+03  0.00000000000E+00 0.  1.
    9000005    2    1    2  501    0 -0.23825145423E+02  0.42670182267E+02 -0.13856510187E+02  0.46393534755E+03  0.46114598754E+03 0.  0.
         13    1    3    3    0    0 -0.47423451411E+02  0.15004625674E+03  0.18122326803E+03  0.24000986601E+03  0.00000000000E+00 0.  1.
          1    1    3    3  501    0  0.23598305988E+02 -0.10737607447E+03 -0.19507977822E+03  0.22392548154E+03  0.00000000000E+00 0.  1.
         21    1    1    2  502  501  0.23825145423E+02 -0.42670182267E+02 -0.19565894589E+02  0.52642247674E+02  0.00000000000E+00 0.  1.
<scales pt_clust_4="550.00000" pt_clust_5="550.00000" pt_clust_6="48.87110"></scales>
<mgrwt>
<rscale>  0 0.30000000E+03</rscale>
<asrwt>  1 0.48871100E+02</asrwt>
<pdfrwt beam="1">  1        1 0.87846398E+00 0.30000000E+03</pdfrwt>
<pdfrwt beam="2">0</pdfrwt>
<totfact> 0.19383506E-04</totfact>
</mgrwt>
<clustering>
<clus scale="   48.871">  1  6  2 -1</clus>
<clus scale="  461.146">  4  5 -1 -1</clus>
<clus scale="  300.000">  1  4  2 -1</clus>
</clustering>
</event>
<event>
 6    1  0.1033679E-011  0.3000000E+03  0.7818608E-02  0.1093470E+00
          1   -1    0    0  502    0  0.00000000000E+00  0.00000000000E+00  0.22715368426E+03  0.22715368426E+03  0.00000000000E+00 0.  1.
         13   -1    0    0    0    0 -0.00000000000E+00 -0.00000000000E+00 -0.27500000000E+03  0.27500000000E+03  0.00000000000E+00 0.  1.
    9000005    2    1    2  501    0 -0.10533722647E+02 -0.28265153328E+02 -0.34603568186E+02  0.46921057318E+03  0.46695960943E+03 0.  0.
         13    1    3    3    0    0  0.20578455794E+03 -0.11237258368E+03 -0.35338386219E+02  0.23711533774E+03  0.00000000000E+00 0.  1.
          1    1    3    3  501    0 -0.21631828059E+03  0.84107430350E+02  0.73481803305E+00  0.23209523544E+03  0.00000000000E+00 0.  1.
         21    1    1    2  502  501  0.10533722647E+02  0.28265153328E+02 -0.13242747551E+02  0.32943111088E+02  0.00000000000E+00 0. -1.
<scales pt_clust_4="550.00000" pt_clust_5="550.00000" pt_clust_6="30.16420"></scales>
<mgrwt>
<rscale>  0 0.30000000E+03</rscale>
<asrwt>  1 0.30164203E+02</asrwt>
<pdfrwt beam="1">  1        1 0.82601340E+00 0.30000000E+03</pdfrwt>
<pdfrwt beam="2">0</pdfrwt>
<totfact> 0.65803985E-04</totfact>
</mgrwt>
<clustering>
<clus scale="   30.164">  1  6  2 -1</clus>
<clus scale="  466.960">  4  5 -1 -1</clus>
<clus scale="  300.000">  1  4  2 -1</clus>
</clustering>
</event>
<event>
 6    1  0.1033679E-011  0.3000000E+03  0.7818608E-02  0.1093470E+00
          1   -1    0    0  502    0  0.00000000000E+00  0.00000000000E+00  0.23658150352E+03  0.23658150352E+03  0.00000000000E+00 0.  1.
         13   -1    0    0    0    0 -0.00000000000E+00 -0.00000000000E+00 -0.27500000000E+03  0.27500000000E+03  0.00000000000E+00 0.  1.
    9000005    2    1    2  501    0  0.41216332875E+02 -0.28574022869E+01 -0.16026681573E+02  0.46458848044E+03  0.46247016205E+03 0.  0.
         13    1    3    3    0    0 -0.54117036360E+00 -0.28665099867E+02  0.22083763846E+03  0.22269091444E+03  0.00000000000E+00 0.  1.
          3    1    3    3  501    0  0.41757503238E+02  0.25807697580E+02 -0.23686432003E+03  0.24189756599E+03  0.00000000000E+00 0.  1.
         21    1    1    2  502  501 -0.41216332875E+02  0.28574022869E+01 -0.22391814909E+02  0.46993023082E+02  0.00000000000E+00 0.  1.
<scales pt_clust_4="550.00000" pt_clust_5="550.00000" pt_clust_6="41.31528"></scales>
<mgrwt>
<rscale>  0 0.30000000E+03</rscale>
<asrwt>  1 0.41315282E+02</asrwt>
<pdfrwt beam="1">  1        1 0.86029638E+00 0.30000000E+03</pdfrwt>
<pdfrwt beam="2">0</pdfrwt>
<totfact> 0.31145072E-04</totfact>
</mgrwt>
<clustering>
<clus scale="   41.315">  1  6  2 -1</clus>
<clus scale="  462.470">  4  5 -1 -1</clus>
<clus scale="  300.000">  1  4  2 -1</clus>
</clustering>
</event>
<event>
 6    1  0.1033679E-011  0.3000000E+03  0.7818608E-02  0.1093470E+00
          1   -1    0    0  502    0  0.00000000000E+00  0.00000000000E+00  0.23760683842E+03  0.23760683842E+03  0.00000000000E+00 0.  1.
         13   -1    0    0    0    0 -0.00000000000E+00 -0.00000000000E+00 -0.27500000000E+03  0.27500000000E+03  0.00000000000E+00 0.  1.
    9000005    2    1    2  501    0  0.37834315450E+02  0.69848782365E+01 -0.66845277368E+02  0.46415427323E+03  0.45770151223E+03 0.  0.
         13    1    3    3    0    0 -0.11061290356E+03 -0.81151923285E+02  0.13913341018E+03  0.19539435743E+03  0.00000000000E+00 0.  1.
          3    1    3    3  501    0  0.14844721901E+03  0.88136801521E+02 -0.20597868755E+03  0.26875991580E+03  0.00000000000E+00 0.  1.
         21    1    1    2  502  501 -0.37834315450E+02 -0.69848782365E+01  0.29452115787E+02  0.48452565194E+02  0.00000000000E+00 0. -1.
<scales pt_clust_4="550.00000" pt_clust_5="550.00000" pt_clust_6="38.47368"></scales>
<mgrwt>
<rscale>  0 0.30000000E+03</rscale>
<asrwt>  1 0.38473679E+02</asrwt>
<pdfrwt beam="1">  1        1 0.86402487E+00 0.30000000E+03</pdfrwt>
<pdfrwt beam="2">0</pdfrwt>
<totfact> 0.28761490E-04</totfact>
</mgrwt>
<clustering>
<clus scale="   38.474">  1  6  2 -1</clus>
<clus scale="  457.702">  4  5 -1 -1</clus>
<clus scale="  300.000">  1  4  2 -1</clus>
</clustering>
</event>
<event>
 6    1  0.1033679E-011  0.3000000E+03  0.7818608E-02  0.1093470E+00
          1   -1    0    0  502    0  0.00000000000E+00  0.00000000000E+00  0.24218248869E+03  0.24218248869E+03  0.00000000000E+00 0.  1.
         13   -1    0    0    0    0 -0.00000000000E+00 -0.00000000000E+00 -0.27500000000E+03  0.27500000000E+03  0.00000000000E+00 0.  1.
    9000005    2    1    2  501    0  0.26885948841E+02 -0.14140346679E+02 -0.34865399009E+02  0.48673585516E+03  0.48453420209E+03 0.  0.
         13    1    3    3    0    0 -0.97661276685E+02  0.67544409442E+02  0.18580253567E+03  0.22050522550E+03  0.00000000000E+00 0.  1.
          3    1    3    3  501    0  0.12454722553E+03 -0.81684756121E+02 -0.22066793468E+03  0.26623062965E+03  0.00000000000E+00 0.  1.
         21    1    1    2  502  501 -0.26885948841E+02  0.14140346679E+02  0.20478876964E+01  0.30446633530E+02  0.00000000000E+00 0.  1.
<scales pt_clust_4="550.00000" pt_clust_5="550.00000" pt_clust_6="30.37768"></scales>
<mgrwt>
<rscale>  0 0.30000000E+03</rscale>
<asrwt>  1 0.30377683E+02</asrwt>
<pdfrwt beam="1">  1        1 0.88066360E+00 0.30000000E+03</pdfrwt>
<pdfrwt beam="2">0</pdfrwt>
<totfact> 0.19892747E-04</totfact>
</mgrwt>
<clustering>
<clus scale="   30.378">  1  6  2 -1</clus>
<clus scale="  484.534">  4  5 -1 -1</clus>
<clus scale="  300.000">  1  4  2 -1</clus>
</clustering>
</event>
<event>
 6    1  0.1033679E-011  0.3000000E+03  0.7818608E-02  0.1093470E+00
          1   -1    0    0  502    0  0.00000000000E+00  0.00000000000E+00  0.23181179907E+03  0.23181179907E+03  0.00000000000E+00 0.  1.
         13   -1    0    0    0    0 -0.00000000000E+00 -0.00000000000E+00 -0.27500000000E+03  0.27500000000E+03  0.00000000000E+00 0.  1.
    9000005    2    1    2  501    0 -0.22124146980E+02 -0.27040862939E+02 -0.56099053341E+02  0.46956429905E+03  0.46489013864E+03 0.  0.
         13    1    3    3    0    0  0.79060628511E+02 -0.28397866068E+02  0.18767649275E+03  0.20561976488E+03  0.00000000000E+00 0.  1.
          1    1    3    3  501    0 -0.10118477549E+03  0.13570031287E+01 -0.24377554609E+03  0.26394453417E+03  0.00000000000E+00 0.  1.
         21    1    1    2  502  501  0.22124146980E+02  0.27040862939E+02  0.12910852415E+02  0.37247500026E+02  0.00000000000E+00 0. -1.
<scales pt_clust_4="550.00000" pt_clust_5="550.00000" pt_clust_6="34.93832"></scales>
<mgrwt>
<rscale>  0 0.30000000E+03</rscale>
<asrwt>  1 0.34938319E+02</asrwt>
<pdfrwt beam="1">  1        1 0.84295200E+00 0.30000000E+03</pdfrwt>
<pdfrwt beam="2">0</pdfrwt>
<totfact> 0.47063853E-04</totfact>
</mgrwt>
<clustering>
<clus scale="   34.938">  1  6  2 -1</clus>
<clus scale="  464.890">  4  5 -1 -1</clus>
<clus scale="  300.000">  1  4  2 -1</clus>
</clustering>
</event>
<event>
 6    1  0.1033679E-011  0.3000000E+03  0.7818608E-02  0.1093470E+00
          1   -1    0    0  502    0  0.00000000000E+00  0.00000000000E+00  0.23280046027E+03  0.23280046027E+03  0.00000000000E+00 0.  1.
         13   -1    0    0    0    0 -0.00000000000E+00 -0.00000000000E+00 -0.27500000000E+03  0.27500000000E+03  0.00000000000E+00 0.  1.
    9000005    2    1    2  501    0 -0.28490468117E+02 -0.17590763008E+02 -0.64209660152E+02  0.46773068216E+03  0.46209086646E+03 0.  0.
         13    1    3    3    0    0 -0.19970140590E+03  0.11803333941E+03 -0.87812857388E+02  0.24803955058E+03  0.00000000000E+00 0.  1.
          1    1    3    3  501    0  0.17121093779E+03 -0.13562410241E+03  0.23603197236E+02  0.21969113158E+03  0.00000000000E+00 0.  1.
         21    1    1    2  502  501  0.28490468117E+02  0.17590763008E+02  0.22010120423E+02  0.40069778109E+02  0.00000000000E+00 0.  1.
<scales pt_clust_4="550.00000" pt_clust_5="550.00000" pt_clust_6="33.48345"></scales>
<mgrwt>
<rscale>  0 0.30000000E+03</rscale>
<asrwt>  1 0.33483454E+02</asrwt>
<pdfrwt beam="1">  1        1 0.84654713E+00 0.30000000E+03</pdfrwt>
<pdfrwt beam="2">0</pdfrwt>
<totfact> 0.44145888E-04</totfact>
</mgrwt>
<clustering>
<clus scale="   33.483">  1  6  2 -1</clus>
<clus scale="  462.091">  4  5 -1 -1</clus>
<clus scale="  300.000">  1  4  2 -1</clus>
</clustering>
</event>
<event>
 6    1  0.1033679E-011  0.3000000E+03  0.7818608E-02  0.1093470E+00
          1   -1    0    0  502    0  0.00000000000E+00  0.00000000000E+00  0.23063116004E+03  0.23063116004E+03  0.00000000000E+00 0.  1.
         13   -1    0    0    0    0 -0.00000000000E+00 -0.00000000000E+00 -0.27500000000E+03  0.27500000000E+03  0.00000000000E+00 0.  1.
    9000005    2    1    2  501    0 -0.25335451784E+02  0.17668361682E+02 -0.71207718723E+02  0.46471195263E+03  0.45818402809E+03 0.  0.
         13    1    3    3    0    0  0.13803247131E+03 -0.16421312617E+03 -0.40536843038E+02  0.21831662691E+03  0.00000000000E+00 0.  1.
          1    1    3    3  501    0 -0.16336792309E+03  0.18188148786E+03 -0.30670875685E+02  0.24639532572E+03  0.00000000000E+00 0.  1.
         21    1    1    2  502  501  0.25335451784E+02 -0.17668361682E+02  0.26838878766E+02  0.40919207410E+02  0.00000000000E+00 0.  1.
<scales pt_clust_4="550.00000" pt_clust_5="550.00000" pt_clust_6="30.88780"></scales>
<mgrwt>
<rscale>  0 0.30000000E+03</rscale>
<asrwt>  1 0.30887799E+02</asrwt>
<pdfrwt beam="1">  1        1 0.83865876E+00 0.30000000E+03</pdfrwt>
<pdfrwt beam="2">0</pdfrwt>
<totfact> 0.52092232E-04</totfact>
</mgrwt>
<clustering>
<clus scale="   30.888">  1  6  2 -1</clus>
<clus scale="  458.184">  4  5 -1 -1</clus>
<clus scale="  300.000">  1  4  2 -1</clus>
</clustering>
</event>
<event>
 6    1  0.1033679E-011  0.3000000E+03  0.7818608E-02  0.1093470E+00
          1   -1    0    0  502    0  0.00000000000E+00  0.00000000000E+00  0.23239244735E+03  0.23239244735E+03  0.00000000000E+00 0.  1.
         13   -1    0    0    0    0 -0.00000000000E+00 -0.00000000000E+00 -0.27500000000E+03  0.27500000000E+03  0.00000000000E+00 0.  1.
    9000005    2    1    2  501    0  0.23958317980E+02  0.23461326423E+02 -0.49581093675E+02  0.47314240922E+03  0.46934104840E+03 0.  0.
         13    1    3    3    0    0 -0.10102400030E+03 -0.19453387066E+03 -0.19515865688E+02  0.22006849952E+03  0.00000000000E+00 0.  1.
          1    1    3    3  501    0  0.12498231828E+03  0.21799519708E+03 -0.30065227987E+02  0.25307390969E+03  0.00000000000E+00 0.  1.
         21    1    1    2  502  501 -0.23958317980E+02 -0.23461326423E+02  0.69735410285E+01  0.34250038138E+02  0.00000000000E+00 0.  1.
<scales pt_clust_4="550.00000" pt_clust_5="550.00000" pt_clust_6="33.53259"></scales>
<mgrwt>
<rscale>  0 0.30000000E+03</rscale>
<asrwt>  1 0.33532594E+02</asrwt>
<pdfrwt beam="1">  1        1 0.84506344E+00 0.30000000E+03</pdfrwt>
<pdfrwt beam="2">0</pdfrwt>
<totfact> 0.45489134E-04</totfact>
</mgrwt>
<clustering>
<clus scale="   33.533">  1  6  2 -1</clus>
<clus scale="  469.341">  4  5 -1 -1</clus>
<clus scale="  300.000">  1  4  2 -1</clus>
</clustering>
</event>
<event>
 6    1  0.1033679E-011  0.3000000E+03  0.7818608E-02  0.1093470E+00
          1   -1    0    0  502    0  0.00000000000E+00  0.00000000000E+00  0.23699654790E+03  0.23699654790E+03  0.00000000000E+00 0.  1.
         13   -1    0    0    0    0 -0.00000000000E+00 -0.00000000000E+00 -0.27500000000E+03  0.27500000000E+03  0.00000000000E+00 0.  1.
    9000005    2    1    2  501    0  0.97052689435E+01  0.37176026190E+02 -0.47042009430E+02  0.47252573986E+03  0.46860577782E+03 0.  0.
         13    1    3    3    0    0  0.13533409237E+02 -0.21562417738E+03 -0.41786161749E+01  0.21608887031E+03  0.00000000000E+00 0.  1.
          1    1    3    3  501    0 -0.38281402934E+01  0.25280020357E+03 -0.42863393255E+02  0.25643686955E+03  0.00000000000E+00 0.  1.
         21    1    1    2  502  501 -0.97052689435E+01 -0.37176026190E+02  0.90385573275E+01  0.39470808037E+02  0.00000000000E+00 0. -1.
<scales pt_clust_4="550.00000" pt_clust_5="550.00000" pt_clust_6="38.42199"></scales>
<mgrwt>
<rscale>  0 0.30000000E+03</rscale>
<asrwt>  1 0.38421988E+02</asrwt>
<pdfrwt beam="1">  1        1 0.86180563E+00 0.30000000E+03</pdfrwt>
<pdfrwt beam="2">0</pdfrwt>
<totfact> 0.30403327E-04</totfact>
</mgrwt>
<clustering>
<clus scale="   38.422">  1  6  2 -1</clus>
<clus scale="  468.606">  4  5 -1 -1</clus>
<clus scale="  300.000">  1  4  2 -1</clus>
</clustering>
</event>
<event>
 6    1  0.1033679E-011  0.3000000E+03  0.7818608E-02  0.1093470E+00
          1   -1    0    0  502    0  0.00000000000E+00  0.00000000000E+00  0.23594639042E+03  0.23594639042E+03  0.00000000000E+00 0.  1.
         13   -1    0    0    0    0 -0.00000000000E+00 -0.00000000000E+00 -0.27500000000E+03  0.27500000000E+03  0.00000000000E+00 0.  1.
    9000005    2    1    2  501    0 -0.25251486827E+02 -0.22013738823E+02 -0.70265534456E+02  0.46515963973E+03  0.45860004669E+03 0.  0.
         13    1    3    3    0    0 -0.19692108899E+03  0.11362645662E+03 -0.92068920577E+02  0.24528671604E+03  0.00000000000E+00 0.  1.
          3    1    3    3  501    0  0.17166960216E+03 -0.13564019544E+03  0.21803386121E+02  0.21987292369E+03  0.00000000000E+00 0.  1.
         21    1    1    2  502  501  0.25251486827E+02  0.22013738823E+02  0.31211924875E+02  0.45786750686E+02  0.00000000000E+00 0. -1.
<scales pt_clust_4="550.00000" pt_clust_5="550.00000" pt_clust_6="33.49988"></scales>
<mgrwt>
<rscale>  0 0.30000000E+03</rscale>
<asrwt>  1 0.33499885E+02</asrwt>
<pdfrwt beam="1">  1        1 0.85798687E+00 0.30000000E+03</pdfrwt>
<pdfrwt beam="2">0</pdfrwt>
<totfact> 0.34249194E-04</totfact>
</mgrwt>
<clustering>
<clus scale="   33.500">  1  6  2 -1</clus>
<clus scale="  458.600">  4  5 -1 -1</clus>
<clus scale="  300.000">  1  4  2 -1</clus>
</clustering>
</event>
<event>
 6    1  0.1033679E-011  0.3000000E+03  0.7818608E-02  0.1093470E+00
          1   -1    0    0  502    0  0.00000000000E+00  0.00000000000E+00  0.22502961866E+03  0.22502961866E+03  0.00000000000E+00 0.  1.
         13   -1    0    0    0    0 -0.00000000000E+00 -0.00000000000E+00 -0.27500000000E+03  0.27500000000E+03  0.00000000000E+00 0.  1.
    9000005    2    1    2  501    0  0.31115775900E+02 -0.17367374225E+02 -0.44234571655E+02  0.46393645158E+03  0.46044599746E+03 0.  0.
         13    1    3    3    0    0  0.13768742970E+03  0.44793909064E+02  0.16593857597E+03  0.22022700466E+03  0.00000000000E+00 0.  1.
          3    1    3    3  501    0 -0.10657165379E+03 -0.62161283289E+02 -0.21017314763E+03  0.24370944692E+03  0.00000000000E+00 0.  1.
         21    1    1    2  502  501 -0.31115775900E+02  0.17367374225E+02 -0.57358096837E+01  0.36093167083E+02  0.00000000000E+00 0.  1.
<scales pt_clust_4="550.00000" pt_clust_5="550.00000" pt_clust_6="35.63451"></scales>
<mgrwt>
<rscale>  0 0.30000000E+03</rscale>
<asrwt>  1 0.35634512E+02</asrwt>
<pdfrwt beam="1">  1        1 0.81828952E+00 0.30000000E+03</pdfrwt>
<pdfrwt beam="2">0</pdfrwt>
<totfact> 0.74552204E-04</totfact>
</mgrwt>
<clustering>
<clus scale="   35.635">  1  6  2 -1</clus>
<clus scale="  460.446">  4  5 -1 -1</clus>
<clus scale="  300.000">  1  4  2 -1</clus>
</clustering>
</event>
<event>
 6    1  0.1033679E-011  0.3000000E+03  0.7818608E-02  0.1093470E+00
          1   -1    0    0  502    0  0.00000000000E+00  0.00000000000E+00  0.24964677876E+03  0.24964677876E+03  0.00000000000E+00 0.  1.
         13   -1    0    0    0    0 -0.00000000000E+00 -0.00000000000E+00 -0.27500000000E+03  0.27500000000E+03  0.00000000000E+00 0.  1.
    9000005    2    1    2  501    0  0.29386367916E+02 -0.34947774969E+02 -0.27146009278E+02  0.47895083055E+03  0.47599588934E+03 0.  0.
         13    1    3    3    0    0 -0.15461806785E+03 -0.18462919546E+03 -0.19939435862E+02  0.24164492096E+03  0.00000000000E+00 0.  1.
          1    1    3    3  501    0  0.18400443577E+03  0.14968142049E+03 -0.72065734160E+01  0.23730590958E+03  0.00000000000E+00 0.  1.
         21    1    1    2  502  501 -0.29386367916E+02  0.34947774969E+02  0.17927880424E+01  0.45695948218E+02  0.00000000000E+00 0.  1.
<scales pt_clust_4="550.00000" pt_clust_5="550.00000" pt_clust_6="45.66077"></scales>
<mgrwt>
<rscale>  0 0.30000000E+03</rscale>
<asrwt>  1 0.45660766E+02</asrwt>
<pdfrwt beam="1">  1        1 0.90780647E+00 0.30000000E+03</pdfrwt>
<pdfrwt beam="2">0</pdfrwt>
<totfact> 0.77049463E-05</totfact>
</mgrwt>
<clustering>
<clus scale="   45.661">  1  6  2 -1</clus>
<clus scale="  475.996">  4  5 -1 -1</clus>
<clus scale="  300.000">  1  4  2 -1</clus>
</clustering>
</event>
<event>
 6    1  0.1033679E-011  0.3000000E+03  0.7818608E-02  0.1093470E+00
          1   -1    0    0  502    0  0.00000000000E+00  0.00000000000E+00  0.22309927917E+03  0.22309927917E+03  0.00000000000E+00 0.  1.
         13   -1    0    0    0    0 -0.00000000000E+00 -0.00000000000E+00 -0.27500000000E+03  0.27500000000E+03  0.00000000000E+00 0.  1.
    9000005    2    1    2  501    0  0.29200661740E+02 -0.18817306292E+02 -0.52437471423E+02  0.46335654233E+03  0.45906734500E+03 0.  0.
         13    1    3    3    0    0  0.11926460537E+03 -0.87047802821E+02  0.16309469437E+03  0.22000283044E+03  0.00000000000E+00 0.  1.
          1    1    3    3  501    0 -0.90063943629E+02  0.68230496529E+02 -0.21553216579E+03  0.24335371189E+03  0.00000000000E+00 0.  1.
         21    1    1    2  502  501 -0.29200661740E+02  0.18817306292E+02  0.53675059580E+00  0.34742736844E+02  0.00000000000E+00 0.  1.
<scales pt_clust_4="550.00000" pt_clust_5="550.00000" pt_clust_6="34.73859"></scales>
<mgrwt>
<rscale>  0 0.30000000E+03</rscale>
<asrwt>  1 0.34738590E+02</asrwt>
<pdfrwt beam="1">  1        1 0.81127011E+00 0.30000000E+03</pdfrwt>
<pdfrwt beam="2">0</pdfrwt>
<totfact> 0.85360456E-04</totfact>
</mgrwt>
<clustering>
<clus scale="   34.739">  1  6  2 -1</clus>
<clus scale="  459.067">  4  5 -1 -1</clus>
<clus scale="  300.000">  1  4  2 -1</clus>
</clustering>
</event>
<event>
 6    1  0.1033679E-011  0.3000000E+03  0.7818608E-02  0.1093470E+00
          1   -1    0    0  502    0  0.00000000000E+00  0.00000000000E+00  0.24140812484E+03  0.24140812484E+03  0.00000000000E+00 0.  1.
         13   -1    0    0    0    0 -0.00000000000E+00 -0.00000000000E+00 -0.27500000000E+03  0.27500000000E+03  0.00000000000E+00 0.  1.
    9000005    2    1    2  501    0  0.32848932161E+02 -0.24321225004E+02 -0.21259481465E+02  0.47371547601E+03  0.47146984243E+03 0.  0.
         13    1    3    3    0    0  0.14417203183E+03  0.18577980322E+03 -0.19112492329E+02  0.23593430740E+03  0.00000000000E+00 0.  1.
          3    1    3    3  501    0 -0.11132309966E+03 -0.21010102823E+03 -0.21469891357E+01  0.23778116860E+03  0.00000000000E+00 0.  1.
         21    1    1    2  502  501 -0.32848932161E+02  0.24321225004E+02 -0.12332393699E+02  0.42692648831E+02  0.00000000000E+00 0.  1.
<scales pt_clust_4="550.00000" pt_clust_5="550.00000" pt_clust_6="40.87268"></scales>
<mgrwt>
<rscale>  0 0.30000000E+03</rscale>
<asrwt>  1 0.40872680E+02</asrwt>
<pdfrwt beam="1">  1        1 0.87784773E+00 0.30000000E+03</pdfrwt>
<pdfrwt beam="2">0</pdfrwt>
<totfact> 0.20343733E-04</totfact>
</mgrwt>
<clustering>
<clus scale="   40.873">  1  6  2 -1</clus>
<clus scale="  471.470">  4  5 -1 -1</clus>
<clus scale="  300.000">  1  4  2 -1</clus>
</clustering>
</event>
<event>
 6    1  0.1033679E-011  0.3000000E+03  0.7818608E-02  0.1093470E+00
          1   -1    0    0  502    0  0.00000000000E+00  0.00000000000E+00  0.24517140511E+03  0.24517140511E+03  0.00000000000E+00 0.  1.
         13   -1    0    0    0    0 -0.00000000000E+00 -0.00000000000E+00 -0.27500000000E+03  0.27500000000E+03  0.00000000000E+00 0.  1.
    9000005    2    1    2  501    0  0.67827672348E+00  0.52190231583E+02 -0.48228176751E+02  0.46482861024E+03  0.45936412521E+03 0.  0.
         13    1    3    3    0    0 -0.17771398441E+03  0.15859785207E+03  0.35592688002E+02  0.24083682936E+03  0.00000000000E+00 0.  1.
          1    1    3    3  501    0  0.17839226114E+03 -0.10640762049E+03 -0.83820864753E+02  0.22399178087E+03  0.00000000000E+00 0.  1.
         21    1    1    2  502  501 -0.67827672348E+00 -0.52190231583E+02  0.18399581864E+02  0.55342794877E+02  0.00000000000E+00 0. -1.
<scales pt_clust_4="550.00000" pt_clust_5="550.00000" pt_clust_6="52.19464"></scales>
<mgrwt>
<rscale>  0 0.30000000E+03</rscale>
<asrwt>  1 0.52194639E+02</asrwt>
<pdfrwt beam="1">  1        1 0.89153238E+00 0.30000000E+03</pdfrwt>
<pdfrwt beam="2">0</pdfrwt>
<totfact> 0.12885461E-04</totfact>
</mgrwt>
<clustering>
<clus scale="   52.195">  1  6  2 -1</clus>
<clus scale="  459.364">  4  5 -1 -1</clus>
<clus scale="  300.000">  1  4  2 -1</clus>
</clustering>
</event>
<event>
 6    1  0.1033679E-011  0.3000000E+03  0.7818608E-02  0.1093470E+00
          1   -1    0    0  502    0  0.00000000000E+00  0.00000000000E+00  0.22778336013E+03  0.22778336013E+03  0.00000000000E+00 0.  1.
         13   -1    0    0    0    0 -0.00000000000E+00 -0.00000000000E+00 -0.27500000000E+03  0.27500000000E+03  0.00000000000E+00 0.  1.
    9000005    2    1    2  501    0 -0.26898894830E+02 -0.14801873010E+02 -0.64822594767E+02  0.46739104973E+03  0.46185471589E+03 0.  0.
         13    1    3    3    0    0  0.87185309944E+02  0.32237375979E+01 -0.24123802804E+03  0.25652964142E+03  0.00000000000E+00 0.  1.
          1    1    3    3  501    0 -0.11408420477E+03 -0.18025610608E+02  0.17641543327E+03  0.21086140831E+03  0.00000000000E+00 0.  1.
         21    1    1    2  502  501  0.26898894830E+02  0.14801873010E+02  0.17605954896E+02  0.35392310400E+02  0.00000000000E+00 0.  1.
<scales pt_clust_4="550.00000" pt_clust_5="550.00000" pt_clust_6="30.70254"></scales>
<mgrwt>
<rscale>  0 0.30000000E+03</rscale>
<asrwt>  1 0.30702540E+02</asrwt>
<pdfrwt beam="1">  1        1 0.82830313E+00 0.30000000E+03</pdfrwt>
<pdfrwt beam="2">0</pdfrwt>
<totfact> 0.62619280E-04</totfact>
</mgrwt>
<clustering>
<clus scale="   30.703">  1  6  2 -1</clus>
<clus scale="  461.855">  4  5 -1 -1</clus>
<clus scale="  300.000">  1  4  2 -1</clus>
</clustering>
</event>
<event>
 6    1  0.1033679E-011  0.3000000E+03  0.7818608E-02  0.1093470E+00
          1   -1    0    0  502    0  0.00000000000E+00  0.00000000000E+00  0.24241624281E+03  0.24241624281E+03  0.00000000000E+00 0.  1.
         13   -1    0    0    0    0 -0.00000000000E+00 -0.00000000000E+00 -0.27500000000E+03  0.27500000000E+03  0.00000000000E+00 0.  1.
    9000005    2    1    2  501    0 -0.34085101392E+02  0.73419245871E+01 -0.89576292201E+01  0.47529864652E+03  0.47393339856E+03 0.  0.
         13    1    3    3    0    0 -0.58232526329E+02  0.17698772545E+03  0.15180654914E+03  0.24033499630E+03  0.00000000000E+00 0.  1.
          3    1    3    3  501    0  0.24147424937E+02 -0.16964580087E+03 -0.16076417836E+03  0.23496365023E+03  0.00000000000E+00 0.  1.
         21    1    1    2  502  501  0.34085101392E+02 -0.73419245871E+01 -0.23626127973E+02  0.42117596282E+02  0.00000000000E+00 0.  1.
<scales pt_clust_4="550.00000" pt_clust_5="550.00000" pt_clust_6="34.86688"></scales>
<mgrwt>
<rscale>  0 0.30000000E+03</rscale>
<asrwt>  1 0.34866878E+02</asrwt>
<pdfrwt beam="1">  1        1 0.88151361E+00 0.30000000E+03</pdfrwt>
<pdfrwt beam="2">0</pdfrwt>
<totfact> 0.18902898E-04</totfact>
</mgrwt>
<clustering>
<clus scale="   34.867">  1  6  2 -1</clus>
<clus scale="  473.933">  4  5 -1 -1</clus>
<clus scale="  300.000">  1  4  2 -1</clus>
</clustering>
</event>
<event>
 6    1  0.1033679E-011  0.3000000E+03  0.7818608E-02  0.1093470E+00
          1   -1    0    0  502    0  0.00000000000E+00  0.00000000000E+00  0.23918966099E+03  0.23918966099E+03  0.00000000000E+00 0.  1.
         13   -1    0    0    0    0 -0.00000000000E+00 -0.00000000000E+00 -0.27500000000E+03  0.27500000000E+03  0.00000000000E+00 0.  1.
    9000005    2    1    2  501    0  0.40978014884E+02 -0.30670472519E+02 -0.43811905085E+02  0.46238328447E+03  0.45744829559E+03 0.  0.
         13    1    3    3    0    0  0.32375569562E+02 -0.13823743769E+02 -0.25144146325E+03  0.25389384167E+03  0.00000000000E+00 0.  1.
          1    1    3    3  501    0  0.86024453220E+01 -0.16846728751E+02  0.20762955817E+03  0.20848944280E+03  0.00000000000E+00 0.  1.
         21    1    1    2  502  501 -0.40978014884E+02  0.30670472519E+02  0.80015660756E+01  0.51806376519E+02  0.00000000000E+00 0.  1.
<scales pt_clust_4="550.00000" pt_clust_5="550.00000" pt_clust_6="51.18472"></scales>
<mgrwt>
<rscale>  0 0.30000000E+03</rscale>
<asrwt>  1 0.51184720E+02</asrwt>
<pdfrwt beam="1">  1        1 0.86978059E+00 0.30000000E+03</pdfrwt>
<pdfrwt beam="2">0</pdfrwt>
<totfact> 0.23766744E-04</totfact>
</mgrwt>
<clustering>
<clus scale="   51.185">  1  6  2 -1</clus>
<clus scale="  457.448">  4  5 -1 -1</clus>
<clus scale="  300.000">  1  4  2 -1</clus>
</clustering>
</event>
<event>
 6    1  0.1033679E-011  0.3000000E+03  0.7818608E-02  0.1093470E+00
          1   -1    0    0  502    0  0.00000000000E+00  0.00000000000E+00  0.24523440472E+03  0.24523440472E+03  0.00000000000E+00 0.  1.
         13   -1    0    0    0    0 -0.00000000000E+00 -0.00000000000E+00 -0.27500000000E+03  0.27500000000E+03  0.00000000000E+00 0.  1.
    9000005    2    1    2  501    0 -0.26873818326E+02 -0.13859413064E+02 -0.29161581175E+02  0.48999121912E+03  0.48818716857E+03 0.  0.
         13    1    3    3    0    0 -0.14740117832E+03 -0.15132799441E+03 -0.16014240246E+03  0.26509028335E+03  0.00000000000E+00 0.  1.
          3    1    3    3  501    0  0.12052735999E+03  0.13746858135E+03  0.13098082129E+03  0.22490093577E+03  0.00000000000E+00 0.  1.
         21    1    1    2  502  501  0.26873818326E+02  0.13859413064E+02 -0.60401410814E+00  0.30243185595E+02  0.00000000000E+00 0.  1.
<scales pt_clust_4="550.00000" pt_clust_5="550.00000" pt_clust_6="30.23715"></scales>
<mgrwt>
<rscale>  0 0.30000000E+03</rscale>
<asrwt>  1 0.30237153E+02</asrwt>
<pdfrwt beam="1">  1        1 0.89176147E+00 0.30000000E+03</pdfrwt>
<pdfrwt beam="2">0</pdfrwt>
<totfact> 0.14144996E-04</totfact>
</mgrwt>
<clustering>
<clus scale="   30.237">  1  6  2 -1</clus>
<clus scale="  488.187">  4  5 -1 -1</clus>
<clus scale="  300.000">  1  4  2 -1</clus>
</clustering>
</event>
<event>
 6    1  0.1033679E-011  0.3000000E+03  0.7818608E-02  0.1093470E+00
          1   -1    0    0  502    0  0.00000000000E+00  0.00000000000E+00  0.22266626564E+03  0.22266626564E+03  0.00000000000E+00 0.  1.
         13   -1    0    0    0    0 -0.00000000000E+00 -0.00000000000E+00 -0.27500000000E+03  0.27500000000E+03  0.00000000000E+00 0.  1.
    9000005    2    1    2  501    0 -0.12094011965E+02  0.28116374365E+02 -0.61625763745E+02  0.46567974594E+03  0.46056823098E+03 0.  0.
         13    1    3    3    0    0  0.92757751040E+02 -0.16726667340E+03 -0.13274270772E+03  0.23281487680E+03  0.00000000000E+00 0.  1.
          1    1    3    3  501    0 -0.10485176301E+03  0.19538304776E+03  0.71116943973E+02  0.23286486914E+03  0.00000000000E+00 0.  1.
         21    1    1    2  502  501  0.12094011965E+02 -0.28116374365E+02  0.92920293883E+01  0.31986519708E+02  0.00000000000E+00 0. -1.
<scales pt_clust_4="550.00000" pt_clust_5="550.00000" pt_clust_6="30.60712"></scales>
<mgrwt>
<rscale>  0 0.30000000E+03</rscale>
<asrwt>  1 0.30607117E+02</asrwt>
<pdfrwt beam="1">  1        1 0.80969551E+00 0.30000000E+03</pdfrwt>
<pdfrwt beam="2">0</pdfrwt>
<totfact> 0.89948404E-04</totfact>
</mgrwt>
<clustering>
<clus scale="   30.607">  1  6  2 -1</clus>
<clus scale="  460.568">  4  5 -1 -1</clus>
<clus scale="  300.000">  1  4  2 -1</clus>
</clustering>
</event>
<event>
 6    1  0.1033679E-011  0.3000000E+03  0.7818608E-02  0.1093470E+00
          1   -1    0    0  502    0  0.00000000000E+00  0.00000000000E+00  0.23075558032E+03  0.23075558032E+03  0.00000000000E+00 0.  1.
         13   -1    0    0    0    0 -0.00000000000E+00 -0.00000000000E+00 -0.27500000000E+03  0.27500000000E+03  0.00000000000E+00 0.  1.
    9000005    2    1    2  501    0  0.31901933159E+02  0.20814765160E+01 -0.64563011323E+02  0.46787536055E+03  0.46229525705E+03 0.  0.
         13    1    3    3    0    0 -0.14206293354E+03 -0.10066264060E+03 -0.16708375867E+03  0.24131271560E+03  0.00000000000E+00 0.  1.
          3    1    3    3  501    0  0.17396486670E+03  0.10274411712E+03  0.10252074735E+03  0.22656264495E+03  0.00000000000E+00 0.  1.
         21    1    1    2  502  501 -0.31901933159E+02 -0.20814765160E+01  0.20318591647E+02  0.37880219776E+02  0.00000000000E+00 0. -1.
<scales pt_clust_4="550.00000" pt_clust_5="550.00000" pt_clust_6="31.96977"></scales>
<mgrwt>
<rscale>  0 0.30000000E+03</rscale>
<asrwt>  1 0.31969765E+02</asrwt>
<pdfrwt beam="1">  1        1 0.83911120E+00 0.30000000E+03</pdfrwt>
<pdfrwt beam="2">0</pdfrwt>
<totfact> 0.51350651E-04</totfact>
</mgrwt>
<clustering>
<clus scale="   31.970">  1  6  2 -1</clus>
<clus scale="  462.295">  4  5 -1 -1</clus>
<clus scale="  300.000">  1  4  2 -1</clus>
</clustering>
</event>
<event>
 6    1  0.1033679E-011  0.3000000E+03  0.7818608E-02  0.1093470E+00
          1   -1    0    0  502    0  0.00000000000E+00  0.00000000000E+00  0.25808528889E+03  0.25808528889E+03  0.00000000000E+00 0.  1.
         13   -1    0    0    0    0 -0.00000000000E+00 -0.00000000000E+00 -0.27500000000E+03  0.27500000000E+03  0.00000000000E+00 0.  1.
    9000005    2    1    2  501    0 -0.17147309794E+02  0.31897273922E+02 -0.46767694121E+02  0.48615271053E+03  0.48254095621E+03 0.  0.
         13    1    3    3    0    0  0.61473393024E+02 -0.19164545890E+03  0.80982764248E+02  0.21694508077E+03  0.00000000000E+00 0.  1.
          3    1    3    3  501    0 -0.78620702818E+02  0.22354273282E+03 -0.12775045837E+03  0.26920762976E+03  0.00000000000E+00 0.  1.
         21    1    1    2  502  501  0.17147309794E+02 -0.31897273922E+02  0.29852983006E+02  0.46932578356E+02  0.00000000000E+00 0.  1.
<scales pt_clust_4="550.00000" pt_clust_5="550.00000" pt_clust_6="36.21417"></scales>
<mgrwt>
<rscale>  0 0.30000000E+03</rscale>
<asrwt>  1 0.36214173E+02</asrwt>
<pdfrwt beam="1">  1        1 0.93849196E+00 0.30000000E+03</pdfrwt>
<pdfrwt beam="2">0</pdfrwt>
<totfact> 0.20139138E-05</totfact>
</mgrwt>
<clustering>
<clus scale="   36.214">  1  6  2 -1</clus>
<clus scale="  482.541">  4  5 -1 -1</clus>
<clus scale="  300.000">  1  4  2 -1</clus>
</clustering>
</event>
<event>
 6    1  0.1033679E-011  0.3000000E+03  0.7818608E-02  0.1093470E+00
          1   -1    0    0  502    0  0.00000000000E+00  0.00000000000E+00  0.22558175708E+03  0.22558175708E+03  0.00000000000E+00 0.  1.
         13   -1    0    0    0    0 -0.00000000000E+00 -0.00000000000E+00 -0.27500000000E+03  0.27500000000E+03  0.00000000000E+00 0.  1.
    9000005    2    1    2  501    0 -0.36216465253E+02  0.10068325545E+01 -0.51563216483E+02  0.46428785981E+03  0.45999109275E+03 0.  0.
         13    1    3    3    0    0 -0.15340544402E+03 -0.14187684070E+03 -0.14779267146E+03  0.25593933250E+03  0.00000000000E+00 0.  1.
          1    1    3    3  501    0  0.11718897877E+03  0.14288367326E+03  0.96229454976E+02  0.20834852731E+03  0.00000000000E+00 0.  1.
         21    1    1    2  502  501  0.36216465253E+02 -0.10068325545E+01  0.21449735645E+01  0.36293897267E+02  0.00000000000E+00 0.  1.
<scales pt_clust_4="550.00000" pt_clust_5="550.00000" pt_clust_6="36.23046"></scales>
<mgrwt>
<rscale>  0 0.30000000E+03</rscale>
<asrwt>  1 0.36230458E+02</asrwt>
<pdfrwt beam="1">  1        1 0.82029730E+00 0.30000000E+03</pdfrwt>
<pdfrwt beam="2">0</pdfrwt>
<totfact> 0.71439026E-04</totfact>
</mgrwt>
<clustering>
<clus scale="   36.230">  1  6  2 -1</clus>
<clus scale="  459.991">  4  5 -1 -1</clus>
<clus scale="  300.000">  1  4  2 -1</clus>
</clustering>
</event>
<event>
 6    1  0.1033679E-011  0.3000000E+03  0.7818608E-02  0.1093470E+00
          1   -1    0    0  502    0  0.00000000000E+00  0.00000000000E+00  0.24465928513E+03  0.24465928513E+03  0.00000000000E+00 0.  1.
         13   -1    0    0    0    0 -0.00000000000E+00 -0.00000000000E+00 -0.27500000000E+03  0.27500000000E+03  0.00000000000E+00 0.  1.
    9000005    2    1    2  501    0  0.12319918036E+02  0.29261921899E+02 -0.76369074014E+02  0.46374282692E+03  0.45630815640E+03 0.  0.
         13    1    3    3    0    0 -0.17222874685E+03  0.11895480359E+03  0.59546578280E+02  0.21762072861E+03  0.00000000000E+00 0.  1.
          1    1    3    3  501    0  0.18454866488E+03 -0.89692881687E+02 -0.13591565229E+03  0.24612209830E+03  0.00000000000E+00 0.  1.
         21    1    1    2  502  501 -0.12319918036E+02 -0.29261921899E+02  0.46028359141E+02  0.55916458211E+02  0.00000000000E+00 0.  1.
<scales pt_clust_4="550.00000" pt_clust_5="550.00000" pt_clust_6="31.74965"></scales>
<mgrwt>
<rscale>  0 0.30000000E+03</rscale>
<asrwt>  1 0.31749653E+02</asrwt>
<pdfrwt beam="1">  1        1 0.88967013E+00 0.30000000E+03</pdfrwt>
<pdfrwt beam="2">0</pdfrwt>
<totfact> 0.14915240E-04</totfact>
</mgrwt>
<clustering>
<clus scale="   31.750">  1  6  2 -1</clus>
<clus scale="  456.308">  4  5 -1 -1</clus>
<clus scale="  300.000">  1  4  2 -1</clus>
</clustering>
</event>
<event>
 6    1  0.1033679E-011  0.3000000E+03  0.7818608E-02  0.1093470E+00
          1   -1    0    0  502    0  0.00000000000E+00  0.00000000000E+00  0.23054004358E+03  0.23054004358E+03  0.00000000000E+00 0.  1.
         13   -1    0    0    0    0 -0.00000000000E+00 -0.00000000000E+00 -0.27500000000E+03  0.27500000000E+03  0.00000000000E+00 0.  1.
    9000005    2    1    2  501    0 -0.22225413287E+02  0.35361361775E+02 -0.57373249178E+02  0.46182336447E+03  0.45633840004E+03 0.  0.
         13    1    3    3    0    0  0.12713071795E+02 -0.78497984377E+02  0.17970367827E+03  0.19651200404E+03  0.00000000000E+00 0.  1.
          3    1    3    3  501    0 -0.34938485082E+02  0.11385934615E+03 -0.23707692745E+03  0.26531136043E+03  0.00000000000E+00 0.  1.
         21    1    1    2  502  501  0.22225413287E+02 -0.35361361775E+02  0.12913292757E+02  0.43716679108E+02  0.00000000000E+00 0.  1.
<scales pt_clust_4="550.00000" pt_clust_5="550.00000" pt_clust_6="41.76595"></scales>
<mgrwt>
<rscale>  0 0.30000000E+03</rscale>
<asrwt>  1 0.41765954E+02</asrwt>
<pdfrwt beam="1">  1        1 0.83832743E+00 0.30000000E+03</pdfrwt>
<pdfrwt beam="2">0</pdfrwt>
<totfact> 0.49525430E-04</totfact>
</mgrwt>
<clustering>
<clus scale="   41.766">  1  6  2 -1</clus>
<clus scale="  456.338">  4  5 -1 -1</clus>
<clus scale="  300.000">  1  4  2 -1</clus>
</clustering>
</event>
<event>
 6    1  0.1033679E-011  0.3000000E+03  0.7818608E-02  0.1093470E+00
          1   -1    0    0  502    0  0.00000000000E+00  0.00000000000E+00  0.23327787132E+03  0.23327787132E+03  0.00000000000E+00 0.  1.
         13   -1    0    0    0    0 -0.00000000000E+00 -0.00000000000E+00 -0.27500000000E+03  0.27500000000E+03  0.00000000000E+00 0.  1.
    9000005    2    1    2  501    0 -0.25758375397E+02 -0.27631063191E+02 -0.44287947675E+02  0.47041558160E+03  0.46680020088E+03 0.  0.
         13    1    3    3    0    0 -0.10665031256E+03 -0.13946997819E+03  0.15079453610E+03  0.23144147446E+03  0.00000000000E+00 0.  1.
          1    1    3    3  501    0  0.80891937168E+02  0.11183891500E+03 -0.19508248377E+03  0.23897410713E+03  0.00000000000E+00 0.  1.
         21    1    1    2  502  501  0.25758375397E+02  0.27631063191E+02  0.25658189970E+01  0.37862289726E+02  0.00000000000E+00 0. -1.
<scales pt_clust_4="550.00000" pt_clust_5="550.00000" pt_clust_6="37.77525"></scales>
<mgrwt>
<rscale>  0 0.30000000E+03</rscale>
<asrwt>  1 0.37775251E+02</asrwt>
<pdfrwt beam="1">  1        1 0.84828317E+00 0.30000000E+03</pdfrwt>
<pdfrwt beam="2">0</pdfrwt>
<totfact> 0.41626298E-04</totfact>
</mgrwt>
<clustering>
<clus scale="   37.775">  1  6  2 -1</clus>
<clus scale="  466.800">  4  5 -1 -1</clus>
<clus scale="  300.000">  1  4  2 -1</clus>
</clustering>
</event>
<event>
 6    1  0.1033679E-011  0.3000000E+03  0.7818608E-02  0.1093470E+00
          1   -1    0    0  502    0  0.00000000000E+00  0.00000000000E+00  0.22575392260E+03  0.22575392260E+03  0.00000000000E+00 0.  1.
         13   -1    0    0    0    0 -0.00000000000E+00 -0.00000000000E+00 -0.27500000000E+03  0.27500000000E+03  0.00000000000E+00 0.  1.
    9000005    2    1    2  501    0 -0.31426853187E+02  0.16353723657E+02 -0.53589341249E+02  0.46506141191E+03  0.46060309158E+03 0.  0.
         13    1    3    3    0    0  0.87489580604E+02  0.21403423684E+03 -0.23524351414E+02  0.23241875217E+03  0.00000000000E+00 0.  1.
          3    1    3    3  501    0 -0.11891643379E+03 -0.19768051318E+03 -0.30064989835E+02  0.23264265974E+03  0.00000000000E+00 0.  1.
         21    1    1    2  502  501  0.31426853187E+02 -0.16353723657E+02  0.43432638538E+01  0.35692510693E+02  0.00000000000E+00 0.  1.
<scales pt_clust_4="550.00000" pt_clust_5="550.00000" pt_clust_6="35.42727"></scales>
<mgrwt>
<rscale>  0 0.30000000E+03</rscale>
<asrwt>  1 0.35427269E+02</asrwt>
<pdfrwt beam="1">  1        1 0.82092335E+00 0.30000000E+03</pdfrwt>
<pdfrwt beam="2">0</pdfrwt>
<totfact> 0.70840756E-04</totfact>
</mgrwt>
<clustering>
<clus scale="   35.427">  1  6  2 -1</clus>
<clus scale="  460.603">  4  5 -1 -1</clus>
<clus scale="  300.000">  1  4  2 -1</clus>
</clustering>
</event>
<event>
 6    1  0.1033679E-011  0.3000000E+03  0.7818608E-02  0.1093470E+00
          1   -1    0    0  502    0  0.00000000000E+00  0.00000000000E+00  0.23260846045E+03  0.23260846045E+03  0.00000000000E+00 0.  1.
         13   -1    0    0    0    0 -0.00000000000E+00 -0.00000000000E+00 -0.27500000000E+03  0.27500000000E+03  0.00000000000E+00 0.  1.
    9000005    2    1    2  501    0  0.17934872792E+02  0.26211897523E+02 -0.40032416909E+02  0.47576056109E+03  0.47300823867E+03 0.  0.
         13    1    3    3    0    0 -0.18611425741E+03  0.72193978039E+02 -0.14010789320E+03  0.24388667248E+03  0.00000000000E+00 0.  1.
          1    1    3    3  501    0  0.20404913020E+03 -0.45982080516E+02  0.10007547629E+03  0.23187388861E+03  0.00000000000E+00 0.  1.
         21    1    1    2  502  501 -0.17934872792E+02 -0.26211897523E+02 -0.23591226452E+01  0.31847899357E+02  0.00000000000E+00 0.  1.
<scales pt_clust_4="550.00000" pt_clust_5="550.00000" pt_clust_6="31.76040"></scales>
<mgrwt>
<rscale>  0 0.30000000E+03</rscale>
<asrwt>  1 0.31760404E+02</asrwt>
<pdfrwt beam="1">  1        1 0.84584895E+00 0.30000000E+03</pdfrwt>
<pdfrwt beam="2">0</pdfrwt>
<totfact> 0.45233430E-04</totfact>
</mgrwt>
<clustering>
<clus scale="   31.760">  1  6  2 -1</clus>
<clus scale="  473.008">  4  5 -1 -1</clus>
<clus scale="  300.000">  1  4  2 -1</clus>
</clustering>
</event>
<event>
 6    1  0.1033679E-011  0.3000000E+03  0.7818608E-02  0.1093470E+00
          1   -1    0    0  502    0  0.00000000000E+00  0.00000000000E+00  0.25106391475E+03  0.25106391475E+03  0.00000000000E+00 0.  1.
         13   -1    0    0    0    0 -0.00000000000E+00 -0.00000000000E+00 -0.27500000000E+03  0.27500000000E+03  0.00000000000E+00 0.  1.
    9000005    2    1    2  501    0 -0.30544748054E+02  0.25140638557E+02 -0.63131891804E+02  0.47037419764E+03  0.46443645066E+03 0.  0.
         13    1    3    3    0    0 -0.29734365882E+01 -0.17756849427E+02 -0.26324808228E+03  0.26386303237E+03  0.00000000000E+00 0.  1.
          3    1    3    3  501    0 -0.27571311465E+02  0.42897487984E+02  0.20011619047E+03  0.20651116527E+03  0.00000000000E+00 0.  1.
         21    1    1    2  502  501  0.30544748054E+02 -0.25140638557E+02  0.39195806551E+02  0.55689717111E+02  0.00000000000E+00 0. -1.
<scales pt_clust_4="550.00000" pt_clust_5="550.00000" pt_clust_6="39.56050"></scales>
<mgrwt>
<rscale>  0 0.30000000E+03</rscale>
<asrwt>  1 0.39560502E+02</asrwt>
<pdfrwt beam="1">  1        1 0.91295969E+00 0.30000000E+03</pdfrwt>
<pdfrwt beam="2">0</pdfrwt>
<totfact> 0.59303007E-05</totfact>
</mgrwt>
<clustering>
<clus scale="   39.561">  1  6  2 -1</clus>
<clus scale="  464.436">  4  5 -1 -1</clus>
<clus scale="  300.000">  1  4  2 -1</clus>
</clustering>
</event>
<event>
 6    1  0.1033679E-011  0.3000000E+03  0.7818608E-02  0.1093470E+00
          1   -1    0    0  502    0  0.00000000000E+00  0.00000000000E+00  0.23523201524E+03  0.23523201524E+03  0.00000000000E+00 0.  1.
         13   -1    0    0    0    0 -0.00000000000E+00 -0.00000000000E+00 -0.27500000000E+03  0.27500000000E+03  0.00000000000E+00 0.  1.
    9000005    2    1    2  501    0  0.40119624324E+02  0.27900174448E+02 -0.37151160295E+02  0.46129479259E+03  0.45719216197E+03 0.  0.
         13    1    3    3    0    0 -0.14869854820E+03 -0.80262174237E+02 -0.14109599426E+03  0.22013939776E+03  0.00000000000E+00 0.  1.
          3    1    3    3  501    0  0.18881817252E+03  0.10816234869E+03  0.10394483397E+03  0.24115539483E+03  0.00000000000E+00 0.  1.
         21    1    1    2  502  501 -0.40119624324E+02 -0.27900174448E+02 -0.26168244695E+01  0.48937222647E+02  0.00000000000E+00 0.  1.
<scales pt_clust_4="550.00000" pt_clust_5="550.00000" pt_clust_6="48.86721"></scales>
<mgrwt>
<rscale>  0 0.30000000E+03</rscale>
<asrwt>  1 0.48867208E+02</asrwt>
<pdfrwt beam="1">  1        1 0.85538915E+00 0.30000000E+03</pdfrwt>
<pdfrwt beam="2">0</pdfrwt>
<totfact> 0.33988334E-04</totfact>
</mgrwt>
<clustering>
<clus scale="   48.867">  1  6  2 -1</clus>
<clus scale="  457.192">  4  5 -1 -1</clus>
<clus scale="  300.000">  1  4  2 -1</clus>
</clustering>
</event>
<event>
 6    1  0.1033679E-011  0.3000000E+03  0.7818608E-02  0.1093470E+00
          1   -1    0    0  502    0  0.00000000000E+00  0.00000000000E+00  0.24200790200E+03  0.24200790200E+03  0.00000000000E+00 0.  1.
         13   -1    0    0    0    0 -0.00000000000E+00 -0.00000000000E+00 -0.27500000000E+03  0.27500000000E+03  0.00000000000E+00 0.  1.
    9000005    2    1    2  501    0 -0.34209526086E+02  0.15129721107E+02 -0.67507567706E+02  0.46611077256E+03  0.45967682176E+03 0.  0.
         13    1    3    3    0    0 -0.23217970631E+03  0.66433066051E+02 -0.95500225104E+02  0.25969416875E+03  0.00000000000E+00 0.  1.
          1    1    3    3  501    0  0.19797018023E+03 -0.51303344944E+02  0.27992657398E+02  0.20641660381E+03  0.00000000000E+00 0.  1.
         21    1    1    2  502  501  0.34209526086E+02 -0.15129721107E+02  0.34515469703E+02  0.50897129434E+02  0.00000000000E+00 0.  1.
<scales pt_clust_4="550.00000" pt_clust_5="550.00000" pt_clust_6="37.40588"></scales>
<mgrwt>
<rscale>  0 0.30000000E+03</rscale>
<asrwt>  1 0.37405884E+02</asrwt>
<pdfrwt beam="1">  1        1 0.88002873E+00 0.30000000E+03</pdfrwt>
<pdfrwt beam="2">0</pdfrwt>
<totfact> 0.19479348E-04</totfact>
</mgrwt>
<clustering>
<clus scale="   37.406">  1  6  2 -1</clus>
<clus scale="  459.677">  4  5 -1 -1</clus>
<clus scale="  300.000">  1  4  2 -1</clus>
</clustering>
</event>
<event>
 6    1  0.1033679E-011  0.3000000E+03  0.7818608E-02  0.1093470E+00
          1   -1    0    0  502    0  0.00000000000E+00  0.00000000000E+00  0.21915805077E+03  0.21915805077E+03  0.00000000000E+00 0.  1.
         13   -1    0    0    0    0 -0.00000000000E+00 -0.00000000000E+00 -0.27500000000E+03  0.27500000000E+03  0.00000000000E+00 0.  1.
    9000005    2    1    2  501    0  0.21059544146E+02 -0.23355148896E+02 -0.44878271783E+02  0.46085385280E+03  0.45758414197E+03 0.  0.
         13    1    3    3    0    0 -0.85026414086E+02 -0.82052473202E+01  0.18690316564E+03  0.20549844404E+03  0.00000000000E+00 0.  1.
          1    1    3    3  501    0  0.10608595823E+03 -0.15149901576E+02 -0.23178143742E+03  0.25535540876E+03  0.00000000000E+00 0.  1.
         21    1    1    2  502  501 -0.21059544146E+02  0.23355148896E+02 -0.10963677445E+02  0.33304197974E+02  0.00000000000E+00 0. -1.
<scales pt_clust_4="550.00000" pt_clust_5="550.00000" pt_clust_6="31.44787"></scales>
<mgrwt>
<rscale>  0 0.30000000E+03</rscale>
<asrwt>  1 0.31447867E+02</asrwt>
<pdfrwt beam="1">  1        1 0.79693837E+00 0.30000000E+03</pdfrwt>
<pdfrwt beam="2">0</pdfrwt>
<totfact> 0.11137737E-03</totfact>
</mgrwt>
<clustering>
<clus scale="   31.448">  1  6  2 -1</clus>
<clus scale="  457.584">  4  5 -1 -1</clus>
<clus scale="  300.000">  1  4  2 -1</clus>
</clustering>
</event>
<event>
 6    1  0.1033679E-011  0.3000000E+03  0.7818608E-02  0.1093470E+00
          1   -1    0    0  502    0  0.00000000000E+00  0.00000000000E+00  0.22256908565E+03  0.22256908565E+03  0.00000000000E+00 0.  1.
         13   -1    0    0    0    0 -0.00000000000E+00 -0.00000000000E+00 -0.27500000000E+03  0.27500000000E+03  0.00000000000E+00 0.  1.
    9000005    2    1    2  501    0 -0.34306714099E+02  0.11181058742E+02 -0.41291924325E+02  0.45980609046E+03  0.45652453505E+03 0.  0.
         13    1    3    3    0    0 -0.18448000227E+03 -0.12987289646E+03 -0.98209666778E+02  0.24605889360E+03  0.00000000000E+00 0.  1.
          1    1    3    3  501    0  0.15017328817E+03  0.14105395520E+03  0.56917742453E+02  0.21374719686E+03  0.00000000000E+00 0.  1.
         21    1    1    2  502  501  0.34306714099E+02 -0.11181058742E+02 -0.11138990025E+02  0.37762995189E+02  0.00000000000E+00 0.  1.
<scales pt_clust_4="550.00000" pt_clust_5="550.00000" pt_clust_6="36.08279"></scales>
<mgrwt>
<rscale>  0 0.30000000E+03</rscale>
<asrwt>  1 0.36082794E+02</asrwt>
<pdfrwt beam="1">  1        1 0.80934213E+00 0.30000000E+03</pdfrwt>
<pdfrwt beam="2">0</pdfrwt>
<totfact> 0.87748843E-04</totfact>
</mgrwt>
<clustering>
<clus scale="   36.083">  1  6  2 -1</clus>
<clus scale="  456.525">  4  5 -1 -1</clus>
<clus scale="  300.000">  1  4  2 -1</clus>
</clustering>
</event>
<event>
 6    1  0.1033679E-011  0.3000000E+03  0.7818608E-02  0.1093470E+00
          1   -1    0    0  502    0  0.00000000000E+00  0.00000000000E+00  0.23563682320E+03  0.23563682320E+03  0.00000000000E+00 0.  1.
         13   -1    0    0    0    0 -0.00000000000E+00 -0.00000000000E+00 -0.27500000000E+03  0.27500000000E+03  0.00000000000E+00 0.  1.
    9000005    2    1    2  501    0  0.39070557880E+02  0.10673905234E+02 -0.25781626944E+02  0.46791798377E+03  0.46544828553E+03 0.  0.
         13    1    3    3    0    0  0.19412626273E+03  0.13833646448E+03  0.65634008171E+02  0.24724442626E+03  0.00000000000E+00 0.  1.
          1    1    3    3  501    0 -0.15505570485E+03 -0.12766255925E+03 -0.91415635115E+02  0.22067355751E+03  0.00000000000E+00 0.  1.
         21    1    1    2  502  501 -0.39070557880E+02 -0.10673905234E+02 -0.13581549854E+02  0.42718839432E+02  0.00000000000E+00 0. -1.
<scales pt_clust_4="550.00000" pt_clust_5="550.00000" pt_clust_6="40.50238"></scales>
<mgrwt>
<rscale>  0 0.30000000E+03</rscale>
<asrwt>  1 0.40502375E+02</asrwt>
<pdfrwt beam="1">  1        1 0.85686118E+00 0.30000000E+03</pdfrwt>
<pdfrwt beam="2">0</pdfrwt>
<totfact> 0.33964119E-04</totfact>
</mgrwt>
<clustering>
<clus scale="   40.502">  1  6  2 -1</clus>
<clus scale="  465.448">  4  5 -1 -1</clus>
<clus scale="  300.000">  1  4  2 -1</clus>
</clustering>
</event>
<event>
 6    1  0.1033679E-011  0.3000000E+03  0.7818608E-02  0.1093470E+00
          1   -1    0    0  502    0  0.00000000000E+00  0.00000000000E+00  0.24595014706E+03  0.24595014706E+03  0.00000000000E+00 0.  1.
         13   -1    0    0    0    0 -0.00000000000E+00 -0.00000000000E+00 -0.27500000000E+03  0.27500000000E+03  0.00000000000E+00 0.  1.
    9000005    2    1    2  501    0  0.35650328164E+02 -0.52027378479E+01 -0.42086652461E+02  0.48263601754E+03  0.47944574743E+03 0.  0.
         13    1    3    3    0    0  0.24909434776E+03 -0.66332446013E+02 -0.38096207266E+02  0.26057495752E+03  0.00000000000E+00 0.  1.
          3    1    3    3  501    0 -0.21344401960E+03  0.61129708165E+02 -0.39904451953E+01  0.22206106002E+03  0.00000000000E+00 0.  1.
         21    1    1    2  502  501 -0.35650328164E+02  0.52027378479E+01  0.13036799526E+02  0.38314129524E+02  0.00000000000E+00 0. -1.
<scales pt_clust_4="550.00000" pt_clust_5="550.00000" pt_clust_6="36.02797"></scales>
<mgrwt>
<rscale>  0 0.30000000E+03</rscale>
<asrwt>  1 0.36027967E+02</asrwt>
<pdfrwt beam="1">  1        1 0.89436417E+00 0.30000000E+03</pdfrwt>
<pdfrwt beam="2">0</pdfrwt>
<totfact> 0.12750090E-04</totfact>
</mgrwt>
<clustering>
<clus scale="   36.028">  1  6  2 -1</clus>
<clus scale="  479.446">  4  5 -1 -1</clus>
<clus scale="  300.000">  1  4  2 -1</clus>
</clustering>
</event>
<event>
 6    1  0.1033679E-011  0.3000000E+03  0.7818608E-02  0.1093470E+00
          1   -1    0    0  502    0  0.00000000000E+00  0.00000000000E+00  0.23958339225E+03  0.23958339225E+03  0.00000000000E+00 0.  1.
         13   -1    0    0    0    0 -0.00000000000E+00 -0.00000000000E+00 -0.27500000000E+03  0.27500000000E+03  0.00000000000E+00 0.  1.
    9000005    2    1    2  501    0  0.25800355954E+02 -0.41351779678E+02 -0.32565911327E+02  0.46575968367E+03  0.46205618306E+03 0.  0.
         13    1    3    3    0    0  0.17941379266E+02 -0.36712454169E+01 -0.24711121783E+03  0.24778887205E+03  0.00000000000E+00 0.  1.
          1    1    3    3  501    0  0.78589766875E+01 -0.37680534261E+02  0.21454530650E+03  0.21797081162E+03  0.00000000000E+00 0.  1.
         21    1    1    2  502  501 -0.25800355954E+02  0.41351779678E+02 -0.28506964201E+01  0.48823708585E+02  0.00000000000E+00 0. -1.
<scales pt_clust_4="550.00000" pt_clust_5="550.00000" pt_clust_6="48.74041"></scales>
<mgrwt>
<rscale>  0 0.30000000E+03</rscale>
<asrwt>  1 0.48740415E+02</asrwt>
<pdfrwt beam="1">  1        1 0.87121234E+00 0.30000000E+03</pdfrwt>
<pdfrwt beam="2">0</pdfrwt>
<totfact> 0.23177752E-04</totfact>
</mgrwt>
<clustering>
<clus scale="   48.740">  1  6  2 -1</clus>
<clus scale="  462.056">  4  5 -1 -1</clus>
<clus scale="  300.000">  1  4  2 -1</clus>
</clustering>
</event>
<event>
 6    1  0.1033679E-011  0.3000000E+03  0.7818608E-02  0.1093470E+00
          1   -1    0    0  502    0  0.00000000000E+00  0.00000000000E+00  0.23737982306E+03  0.23737982306E+03  0.00000000000E+00 0.  1.
         13   -1    0    0    0    0 -0.00000000000E+00 -0.00000000000E+00 -0.27500000000E+03  0.27500000000E+03  0.00000000000E+00 0.  1.
    9000005    2    1    2  501    0 -0.36026368661E+02 -0.38186015719E+01 -0.39163405501E+02  0.47611879010E+03  0.47312033247E+03 0.  0.
         13    1    3    3    0    0 -0.29756277041E+02 -0.13729511448E+03 -0.21404614800E+03  0.25602956462E+03  0.00000000000E+00 0.  1.
          3    1    3    3  501    0 -0.62700916207E+01  0.13347651291E+03  0.17488274250E+03  0.22008922548E+03  0.00000000000E+00 0.  1.
         21    1    1    2  502  501  0.36026368661E+02  0.38186015719E+01  0.15432285607E+01  0.36261032959E+02  0.00000000000E+00 0.  1.
<scales pt_clust_4="550.00000" pt_clust_5="550.00000" pt_clust_6="36.22818"></scales>
<mgrwt>
<rscale>  0 0.30000000E+03</rscale>
<asrwt>  1 0.36228179E+02</asrwt>
<pdfrwt beam="1">  1        1 0.86319936E+00 0.30000000E+03</pdfrwt>
<pdfrwt beam="2">0</pdfrwt>
<totfact> 0.29687262E-04</totfact>
</mgrwt>
<clustering>
<clus scale="   36.228">  1  6  2 -1</clus>
<clus scale="  473.120">  4  5 -1 -1</clus>
<clus scale="  300.000">  1  4  2 -1</clus>
</clustering>
</event>
<event>
 6    1  0.1033679E-011  0.3000000E+03  0.7818608E-02  0.1093470E+00
          1   -1    0    0  502    0  0.00000000000E+00  0.00000000000E+00  0.22106560214E+03  0.22106560214E+03  0.00000000000E+00 0.  1.
         13   -1    0    0    0    0 -0.00000000000E+00 -0.00000000000E+00 -0.27500000000E+03  0.27500000000E+03  0.00000000000E+00 0.  1.
    9000005    2    1    2  501    0 -0.17272284207E+02 -0.25305750861E+02 -0.53872424883E+02  0.46542711867E+03  0.46128239919E+03 0.  0.
         13    1    3    3    0    0 -0.37884418338E+02  0.20824726187E+03 -0.86595149702E+02  0.22869383722E+03  0.00000000000E+00 0.  1.
          3    1    3    3  501    0  0.20612134131E+02 -0.23355301273E+03  0.32722724819E+02  0.23673328146E+03  0.00000000000E+00 0.  1.
         21    1    1    2  502  501  0.17272284207E+02  0.25305750861E+02 -0.61972978888E-01  0.30638483465E+02  0.00000000000E+00 0. -1.
<scales pt_clust_4="550.00000" pt_clust_5="550.00000" pt_clust_6="30.63842"></scales>
<mgrwt>
<rscale>  0 0.30000000E+03</rscale>
<asrwt>  1 0.30638421E+02</asrwt>
<pdfrwt beam="1">  1        1 0.80387492E+00 0.30000000E+03</pdfrwt>
<pdfrwt beam="2">0</pdfrwt>
<totfact> 0.99643693E-04</totfact>
</mgrwt>
<clustering>
<clus scale="   30.638">  1  6  2 -1</clus>
<clus scale="  461.282">  4  5 -1 -1</clus>
<clus scale="  300.000">  1  4  2 -1</clus>
</clustering>
</event>
<event>
 6    1  0.1033679E-011  0.3000000E+03  0.7818608E-02  0.1093470E+00
          1   -1    0    0  502    0  0.00000000000E+00  0.00000000000E+00  0.24299071916E+03  0.24299071916E+03  0.00000000000E+00 0.  1.
         13   -1    0    0    0    0 -0.00000000000E+00 -0.00000000000E+00 -0.27500000000E+03  0.27500000000E+03  0.00000000000E+00 0.  1.
    9000005    2    1    2  501    0  0.34329589058E+02  0.54362743168E+01 -0.53427301090E+02  0.47716419157E+03  0.47288805806E+03 0.  0.
         13    1    3    3    0    0  0.67311538122E+02 -0.98507283653E+02 -0.23603369671E+03  0.26447388166E+03  0.00000000000E+00 0.  1.
          1    1    3    3  501    0 -0.32981949064E+02  0.10394355797E+03  0.18260639562E+03  0.21269030991E+03  0.00000000000E+00 0.  1.
         21    1    1    2  502  501 -0.34329589058E+02 -0.54362743168E+01  0.21418020249E+02  0.40826527586E+02  0.00000000000E+00 0. -1.
<scales pt_clust_4="550.00000" pt_clust_5="550.00000" pt_clust_6="34.75736"></scales>
<mgrwt>
<rscale>  0 0.30000000E+03</rscale>
<asrwt>  1 0.34757356E+02</asrwt>
<pdfrwt beam="1">  1        1 0.88360262E+00 0.30000000E+03</pdfrwt>
<pdfrwt beam="2">0</pdfrwt>
<totfact> 0.17752190E-04</totfact>
</mgrwt>
<clustering>
<clus scale="   34.757">  1  6  2 -1</clus>
<clus scale="  472.888">  4  5 -1 -1</clus>
<clus scale="  300.000">  1  4  2 -1</clus>
</clustering>
</event>
<event>
 6    1  0.1033679E-011  0.3000000E+03  0.7818608E-02  0.1093470E+00
          1   -1    0    0  502    0  0.00000000000E+00  0.00000000000E+00  0.22725391632E+03  0.22725391632E+03  0.00000000000E+00 0.  1.
         13   -1    0    0    0    0 -0.00000000000E+00 -0.00000000000E+00 -0.27500000000E+03  0.27500000000E+03  0.00000000000E+00 0.  1.
    9000005    2    1    2  501    0 -0.26978655015E+02  0.18739946732E+02 -0.69098805796E+02  0.46307519541E+03  0.45671102266E+03 0.  0.
         13    1    3    3    0    0 -0.21681151703E+03  0.10461763639E+03 -0.82018163384E+02  0.25432078736E+03  0.00000000000E+00 0.  1.
          1    1    3    3  501    0  0.18983286201E+03 -0.85877689660E+02  0.12919357588E+02  0.20875440805E+03  0.00000000000E+00 0.  1.
         21    1    1    2  502  501  0.26978655015E+02 -0.18739946732E+02  0.21352722114E+02  0.39178720903E+02  0.00000000000E+00 0. -1.
<scales pt_clust_4="550.00000" pt_clust_5="550.00000" pt_clust_6="32.84864"></scales>
<mgrwt>
<rscale>  0 0.30000000E+03</rscale>
<asrwt>  1 0.32848644E+02</asrwt>
<pdfrwt beam="1">  1        1 0.82637788E+00 0.30000000E+03</pdfrwt>
<pdfrwt beam="2">0</pdfrwt>
<totfact> 0.64262181E-04</totfact>
</mgrwt>
<clustering>
<clus scale="   32.849">  1  6  2 -1</clus>
<clus scale="  456.711">  4  5 -1 -1</clus>
<clus scale="  300.000">  1  4  2 -1</clus>
</clustering>
</event>
<event>
 6    1  0.1033679E-011  0.3000000E+03  0.7818608E-02  0.1093470E+00
          1   -1    0    0  502    0  0.00000000000E+00  0.00000000000E+00  0.24856043378E+03  0.24856043378E+03  0.00000000000E+00 0.  1.
         13   -1    0    0    0    0 -0.00000000000E+00 -0.00000000000E+00 -0.27500000000E+03  0.27500000000E+03  0.00000000000E+00 0.  1.
    9000005    2    1    2  501    0 -0.50938916037E+02  0.20418770139E+02 -0.28594574910E+02  0.46863918649E+03  0.46453561549E+03 0.  0.
         13    1    3    3    0    0 -0.10068358774E+03  0.23064251481E+03 -0.11170461166E+02  0.25190858199E+03  0.00000000000E+00 0.  1.
          3    1    3    3  501    0  0.49744671703E+02 -0.21022374467E+03 -0.17424113745E+02  0.21673060450E+03  0.00000000000E+00 0.  1.
         21    1    1    2  502  501  0.50938916037E+02 -0.20418770139E+02  0.21550086902E+01  0.54921247286E+02  0.00000000000E+00 0.  1.
<scales pt_clust_4="550.00000" pt_clust_5="550.00000" pt_clust_6="54.87895"></scales>
<mgrwt>
<rscale>  0 0.30000000E+03</rscale>
<asrwt>  1 0.54878952E+02</asrwt>
<pdfrwt beam="1">  1        1 0.90385612E+00 0.30000000E+03</pdfrwt>
<pdfrwt beam="2">0</pdfrwt>
<totfact> 0.89453709E-05</totfact>
</mgrwt>
<clustering>
<clus scale="   54.879">  1  6  2 -1</clus>
<clus scale="  464.536">  4  5 -1 -1</clus>
<clus scale="  300.000">  1  4  2 -1</clus>
</clustering>
</event>
<event>
 6    1  0.1033679E-011  0.3000000E+03  0.7818608E-02  0.1093470E+00
          1   -1    0    0  502    0  0.00000000000E+00  0.00000000000E+00  0.25564874032E+03  0.25564874032E+03  0.00000000000E+00 0.  1.
         13   -1    0    0    0    0 -0.00000000000E+00 -0.00000000000E+00 -0.27500000000E+03  0.27500000000E+03  0.00000000000E+00 0.  1.
    9000005    2    1    2  501    0  0.36584586536E+01 -0.30940557400E+02 -0.40094911940E+02  0.49321878546E+03  0.49059806966E+03 0.  0.
         13    1    3    3    0    0 -0.58794639834E+02  0.18288143464E+03 -0.15103599613E+03  0.24436509762E+03  0.00000000000E+00 0.  1.
          3    1    3    3  501    0  0.62453098488E+02 -0.21382199204E+03  0.11094108419E+03  0.24885368784E+03  0.00000000000E+00 0.  1.
         21    1    1    2  502  501 -0.36584586536E+01  0.30940557400E+02  0.20743652259E+02  0.37429954862E+02  0.00000000000E+00 0.  1.
<scales pt_clust_4="550.00000" pt_clust_5="550.00000" pt_clust_6="31.15610"></scales>
<mgrwt>
<rscale>  0 0.30000000E+03</rscale>
<asrwt>  1 0.31156098E+02</asrwt>
<pdfrwt beam="1">  1        1 0.92963178E+00 0.30000000E+03</pdfrwt>
<pdfrwt beam="2">0</pdfrwt>
<totfact> 0.27248623E-05</totfact>
</mgrwt>
<clustering>
<clus scale="   31.156">  1  6  2 -1</clus>
<clus scale="  490.598">  4  5 -1 -1</clus>
<clus scale="  300.000">  1  4  2 -1</clus>
</clustering>
</event>
<event>
 6    1  0.1033679E-011  0.3000000E+03  0.7818608E-02  0.1093470E+00
          1   -1    0    0  502    0  0.00000000000E+00  0.00000000000E+00  0.24755361017E+03  0.24755361017E+03  0.00000000000E+00 0.  1.
         13   -1    0    0    0    0 -0.00000000000E+00 -0.00000000000E+00 -0.27500000000E+03  0.27500000000E+03  0.00000000000E+00 0.  1.
    9000005    2    1    2  501    0  0.34955533132E+02  0.13479687713E+01 -0.64842913696E+02  0.47134612719E+03  0.46555221172E+03 0.  0.
         13    1    3    3    0    0 -0.18795908387E+03  0.10281869497E+03 -0.72855040804E+02  0.22629219654E+03  0.00000000000E+00 0.  1.
          3    1    3    3  501    0  0.22291461700E+03 -0.10147072620E+03  0.80121271082E+01  0.24505393065E+03  0.00000000000E+00 0.  1.
         21    1    1    2  502  501 -0.34955533132E+02 -0.13479687713E+01  0.37396523867E+02  0.51207482985E+02  0.00000000000E+00 0.  1.
<scales pt_clust_4="550.00000" pt_clust_5="550.00000" pt_clust_6="34.98151"></scales>
<mgrwt>
<rscale>  0 0.30000000E+03</rscale>
<asrwt>  1 0.34981514E+02</asrwt>
<pdfrwt beam="1">  1        1 0.90019495E+00 0.30000000E+03</pdfrwt>
<pdfrwt beam="2">0</pdfrwt>
<totfact> 0.10982874E-04</totfact>
</mgrwt>
<clustering>
<clus scale="   34.982">  1  6  2 -1</clus>
<clus scale="  465.552">  4  5 -1 -1</clus>
<clus scale="  300.000">  1  4  2 -1</clus>
</clustering>
</event>
<event>
 6    1  0.1033679E-011  0.3000000E+03  0.7818608E-02  0.1093470E+00
          1   -1    0    0  502    0  0.00000000000E+00  0.00000000000E+00  0.24699225427E+03  0.24699225427E+03  0.00000000000E+00 0.  1.
         13   -1    0    0    0    0 -0.00000000000E+00 -0.00000000000E+00 -0.27500000000E+03  0.27500000000E+03  0.00000000000E+00 0.  1.
    9000005    2    1    2  501    0  0.16386175238E+02 -0.29171373962E+02 -0.24965034597E+02  0.48839561919E+03  0.48660821211E+03 0.  0.
         13    1    3    3    0    0 -0.19773983137E+03  0.33161582543E+02  0.10902397723E+03  0.22822567576E+03  0.00000000000E+00 0.  1.
          1    1    3    3  501    0  0.21412600661E+03 -0.62332956505E+02 -0.13398901183E+03  0.26016994343E+03  0.00000000000E+00 0.  1.
         21    1    1    2  502  501 -0.16386175238E+02  0.29171373962E+02 -0.30427111302E+01  0.33596635081E+02  0.00000000000E+00 0.  1.
<scales pt_clust_4="550.00000" pt_clust_5="550.00000" pt_clust_6="33.45859"></scales>
<mgrwt>
<rscale>  0 0.30000000E+03</rscale>
<asrwt>  1 0.33458585E+02</asrwt>
<pdfrwt beam="1">  1        1 0.89815365E+00 0.30000000E+03</pdfrwt>
<pdfrwt beam="2">0</pdfrwt>
<totfact> 0.11720097E-04</totfact>
</mgrwt>
<clustering>
<clus scale="   33.459">  1  6  2 -1</clus>
<clus scale="  486.608">  4  5 -1 -1</clus>
<clus scale="  300.000">  1  4  2 -1</clus>
</clustering>
</event>
<event>
 6    1  0.1033679E-011  0.3000000E+03  0.7818608E-02  0.1093470E+00
          1   -1    0    0  502    0  0.00000000000E+00  0.00000000000E+00  0.24906542602E+03  0.24906542602E+03  0.00000000000E+00 0.  1.
         13   -1    0    0    0    0 -0.00000000000E+00 -0.00000000000E+00 -0.27500000000E+03  0.27500000000E+03  0.00000000000E+00 0.  1.
    9000005    2    1    2  501    0 -0.85245973168E+01 -0.29178928684E+02 -0.66342454157E+02  0.47349987036E+03  0.46784263099E+03 0.  0.
         13    1    3    3    0    0  0.22666171382E+03 -0.22821683658E+02 -0.69607885390E+02  0.23820499462E+03  0.00000000000E+00 0.  1.
          1    1    3    3  501    0 -0.23518631113E+03 -0.63572450262E+01  0.32654312329E+01  0.23529487574E+03  0.00000000000E+00 0.  1.
         21    1    1    2  502  501  0.85245973168E+01  0.29178928684E+02  0.40407880178E+02  0.50565555658E+02  0.00000000000E+00 0.  1.
<scales pt_clust_4="550.00000" pt_clust_5="550.00000" pt_clust_6="30.39866"></scales>
<mgrwt>
<rscale>  0 0.30000000E+03</rscale>
<asrwt>  1 0.30398662E+02</asrwt>
<pdfrwt beam="1">  1        1 0.90569246E+00 0.30000000E+03</pdfrwt>
<pdfrwt beam="2">0</pdfrwt>
<totfact> 0.92079689E-05</totfact>
</mgrwt>
<clustering>
<clus scale="   30.399">  1  6  2 -1</clus>
<clus scale="  467.843">  4  5 -1 -1</clus>
<clus scale="  300.000">  1  4  2 -1</clus>
</clustering>
</event>
<event>
 6    1  0.1033679E-011  0.3000000E+03  0.7818608E-02  0.1093470E+00
          1   -1    0    0  502    0  0.00000000000E+00  0.00000000000E+00  0.22713969067E+03  0.22713969067E+03  0.00000000000E+00 0.  1.
         13   -1    0    0    0    0 -0.00000000000E+00 -0.00000000000E+00 -0.27500000000E+03  0.27500000000E+03  0.00000000000E+00 0.  1.
    9000005    2    1    2  501    0  0.24046933396E+02  0.22575361897E+02 -0.37883722152E+02  0.46768052262E+03  0.46497526049E+03 0.  0.
         13    1    3    3    0    0 -0.74371416595E+02  0.16143751129E+03 -0.17476053415E+03  0.24926777159E+03  0.00000000000E+00 0.  1.
          3    1    3    3  501    0  0.98418349991E+02 -0.13886214939E+03  0.13687681200E+03  0.21841275103E+03  0.00000000000E+00 0.  1.
         21    1    1    2  502  501 -0.24046933396E+02 -0.22575361897E+02 -0.99765871818E+01  0.34459168044E+02  0.00000000000E+00 0.  1.
<scales pt_clust_4="550.00000" pt_clust_5="550.00000" pt_clust_6="32.98338"></scales>
<mgrwt>
<rscale>  0 0.30000000E+03</rscale>
<asrwt>  1 0.32983375E+02</asrwt>
<pdfrwt beam="1">  1        1 0.82596251E+00 0.30000000E+03</pdfrwt>
<pdfrwt beam="2">0</pdfrwt>
<totfact> 0.64759256E-04</totfact>
</mgrwt>
<clustering>
<clus scale="   32.983">  1  6  2 -1</clus>
<clus scale="  464.975">  4  5 -1 -1</clus>
<clus scale="  300.000">  1  4  2 -1</clus>
</clustering>
</event>
<event>
 6    1  0.1033679E-011  0.3000000E+03  0.7818608E-02  0.1093470E+00
          1   -1    0    0  502    0  0.00000000000E+00  0.00000000000E+00  0.23289220833E+03  0.23289220833E+03  0.00000000000E+00 0.  1.
         13   -1    0    0    0    0 -0.00000000000E+00 -0.00000000000E+00 -0.27500000000E+03  0.27500000000E+03  0.00000000000E+00 0.  1.
    9000005    2    1    2  501    0 -0.35867873665E+02 -0.20647999583E+02 -0.41965070537E+02  0.46650543970E+03  0.46276712705E+03 0.  0.
         13    1    3    3    0    0 -0.92896674903E+02 -0.12991870758E+03 -0.20641563819E+03  0.26099057163E+03  0.00000000000E+00 0.  1.
          3    1    3    3  501    0  0.57028801238E+02  0.10927070799E+03  0.16445056766E+03  0.20551486807E+03  0.00000000000E+00 0.  1.
         21    1    1    2  502  501  0.35867873665E+02  0.20647999583E+02 -0.14272113712E+00  0.41386768626E+02  0.00000000000E+00 0.  1.
<scales pt_clust_4="550.00000" pt_clust_5="550.00000" pt_clust_6="41.38652"></scales>
<mgrwt>
<rscale>  0 0.30000000E+03</rscale>
<asrwt>  1 0.41386523E+02</asrwt>
<pdfrwt beam="1">  1        1 0.84688076E+00 0.30000000E+03</pdfrwt>
<pdfrwt beam="2">0</pdfrwt>
<totfact> 0.42157520E-04</totfact>
</mgrwt>
<clustering>
<clus scale="   41.387">  1  6  2 -1</clus>
<clus scale="  462.767">  4  5 -1 -1</clus>
<clus scale="  300.000">  1  4  2 -1</clus>
</clustering>
</event>
<event>
 6    1  0.1033679E-011  0.3000000E+03  0.7818608E-02  0.1093470E+00
          1   -1    0    0  502    0  0.00000000000E+00  0.00000000000E+00  0.26087700403E+03  0.26087700403E+03  0.00000000000E+00 0.  1.
         13   -1    0    0    0    0 -0.00000000000E+00 -0.00000000000E+00 -0.27500000000E+03  0.27500000000E+03  0.00000000000E+00 0.  1.
    9000005    2    1    2  501    0 -0.35590768449E+02 -0.54786937743E+01 -0.30108121974E+02  0.49647848708E+03  0.49425466133E+03 0.  0.
         13    1    3    3    0    0 -0.59199903885E+02  0.16947515991E+03  0.15753819000E+03  0.23884040645E+03  0.00000000000E+00 0.  1.
          3    1    3    3  501    0  0.23609135436E+02 -0.17495385368E+03 -0.18764631198E+03  0.25763808063E+03  0.00000000000E+00 0.  1.
         21    1    1    2  502  501  0.35590768449E+02  0.54786937743E+01  0.15985126005E+02  0.39398516948E+02  0.00000000000E+00 0. -1.
<scales pt_clust_4="550.00000" pt_clust_5="550.00000" pt_clust_6="36.00998"></scales>
<mgrwt>
<rscale>  0 0.30000000E+03</rscale>
<asrwt>  1 0.36009983E+02</asrwt>
<pdfrwt beam="1">  1        1 0.94864365E+00 0.30000000E+03</pdfrwt>
<pdfrwt beam="2">0</pdfrwt>
<totfact> 0.13083630E-05</totfact>
</mgrwt>
<clustering>
<clus scale="   36.010">  1  6  2 -1</clus>
<clus scale="  494.255">  4  5 -1 -1</clus>
<clus scale="  300.000">  1  4  2 -1</clus>
</clustering>
</event>
<event>
 6    1  0.1033679E-011  0.3000000E+03  0.7818608E-02  0.1093470E+00
          1   -1    0    0  502    0  0.00000000000E+00  0.00000000000E+00  0.24474004836E+03  0.24474004836E+03  0.00000000000E+00 0.  1.
         13   -1    0    0    0    0 -0.00000000000E+00 -0.00000000000E+00 -0.27500000000E+03  0.27500000000E+03  0.00000000000E+00 0.  1.
    9000005    2    1    2  501    0 -0.39100462854E+02 -0.26700426614E+02 -0.61654280920E+02  0.46293016465E+03  0.45635657989E+03 0.  0.
         13    1    3    3    0    0 -0.49660994233E+02  0.11670111206E+03  0.15663157872E+03  0.20154110092E+03  0.00000000000E+00 0.  1.
          3    1    3    3  501    0  0.10560531378E+02 -0.14340153868E+03 -0.21828585964E+03  0.26138906373E+03  0.00000000000E+00 0.  1.
         21    1    1    2  502  501  0.39100462854E+02  0.26700426614E+02  0.31394329284E+02  0.56809883717E+02  0.00000000000E+00 0.  1.
<scales pt_clust_4="550.00000" pt_clust_5="550.00000" pt_clust_6="47.34722"></scales>
<mgrwt>
<rscale>  0 0.30000000E+03</rscale>
<asrwt>  1 0.47347217E+02</asrwt>
<pdfrwt beam="1">  1        1 0.88996381E+00 0.30000000E+03</pdfrwt>
<pdfrwt beam="2">0</pdfrwt>
<totfact> 0.13735375E-04</totfact>
</mgrwt>
<clustering>
<clus scale="   47.347">  1  6  2 -1</clus>
<clus scale="  456.357">  4  5 -1 -1</clus>
<clus scale="  300.000">  1  4  2 -1</clus>
</clustering>
</event>
<event>
 6    1  0.1033679E-011  0.3000000E+03  0.7818608E-02  0.1093470E+00
          1   -1    0    0  502    0  0.00000000000E+00  0.00000000000E+00  0.22069046072E+03  0.22069046072E+03  0.00000000000E+00 0.  1.
         13   -1    0    0    0    0 -0.00000000000E+00 -0.00000000000E+00 -0.27500000000E+03  0.27500000000E+03  0.00000000000E+00 0.  1.
    9000005    2    1    2  501    0  0.85376025305E+01  0.30104054801E+02 -0.49467666606E+02  0.46402678274E+03  0.46032017150E+03 0.  0.
         13    1    3    3    0    0 -0.22138905308E+03  0.55843972077E+02 -0.46969780034E+01  0.22837189767E+03  0.00000000000E+00 0.  1.
          1    1    3    3  501    0  0.22992665561E+03 -0.25739917277E+02 -0.44770688603E+02  0.23565488508E+03  0.00000000000E+00 0.  1.
         21    1    1    2  502  501 -0.85376025305E+01 -0.30104054801E+02 -0.48418726698E+01  0.31663677982E+02  0.00000000000E+00 0. -1.
<scales pt_clust_4="550.00000" pt_clust_5="550.00000" pt_clust_6="31.29130"></scales>
<mgrwt>
<rscale>  0 0.30000000E+03</rscale>
<asrwt>  1 0.31291305E+02</asrwt>
<pdfrwt beam="1">  1        1 0.80251077E+00 0.30000000E+03</pdfrwt>
<pdfrwt beam="2">0</pdfrwt>
<totfact> 0.10156664E-03</totfact>
</mgrwt>
<clustering>
<clus scale="   31.291">  1  6  2 -1</clus>
<clus scale="  460.320">  4  5 -1 -1</clus>
<clus scale="  300.000">  1  4  2 -1</clus>
</clustering>
</event>
<event>
 6    1  0.1033679E-011  0.3000000E+03  0.7818608E-02  0.1093470E+00
          1   -1    0    0  502    0  0.00000000000E+00  0.00000000000E+00  0.23516705026E+03  0.23516705026E+03  0.00000000000E+00 0.  1.
         13   -1    0    0    0    0 -0.00000000000E+00 -0.00000000000E+00 -0.27500000000E+03  0.27500000000E+03  0.00000000000E+00 0.  1.
    9000005    2    1    2  501    0 -0.25288232746E+02 -0.31479468896E+02 -0.44610085846E+02  0.46950659396E+03  0.46563497542E+03 0.  0.
         13    1    3    3    0    0  0.17798069940E+03 -0.87130282217E+02  0.91871103832E+02  0.21842416340E+03  0.00000000000E+00 0.  1.
          1    1    3    3  501    0 -0.20326893215E+03  0.55650813322E+02 -0.13648118968E+03  0.25108243056E+03  0.00000000000E+00 0.  1.
         21    1    1    2  502  501  0.25288232746E+02  0.31479468896E+02  0.47771361093E+01  0.40660456303E+02  0.00000000000E+00 0.  1.
<scales pt_clust_4="550.00000" pt_clust_5="550.00000" pt_clust_6="40.37885"></scales>
<mgrwt>
<rscale>  0 0.30000000E+03</rscale>
<asrwt>  1 0.40378852E+02</asrwt>
<pdfrwt beam="1">  1        1 0.85515291E+00 0.30000000E+03</pdfrwt>
<pdfrwt beam="2">0</pdfrwt>
<totfact> 0.35360939E-04</totfact>
</mgrwt>
<clustering>
<clus scale="   40.379">  1  6  2 -1</clus>
<clus scale="  465.635">  4  5 -1 -1</clus>
<clus scale="  300.000">  1  4  2 -1</clus>
</clustering>
</event>
<event>
 6    1  0.1033679E-011  0.3000000E+03  0.7818608E-02  0.1093470E+00
          1   -1    0    0  502    0  0.00000000000E+00  0.00000000000E+00  0.23263067698E+03  0.23263067698E+03  0.00000000000E+00 0.  1.
         13   -1    0    0    0    0 -0.00000000000E+00 -0.00000000000E+00 -0.27500000000E+03  0.27500000000E+03  0.00000000000E+00 0.  1.
    9000005    2    1    2  501    0  0.44056916108E+01 -0.31499734629E+02 -0.45164563467E+02  0.47570174387E+03  0.47248351075E+03 0.  0.
         13    1    3    3    0    0  0.92566973350E+02  0.20221333745E+03 -0.32240638410E+01  0.22241689007E+03  0.00000000000E+00 0.  1.
          3    1    3    3  501    0 -0.88161281739E+02 -0.23371307208E+03 -0.41940499626E+02  0.25328485381E+03  0.00000000000E+00 0.  1.
         21    1    1    2  502  501 -0.44056916108E+01  0.31499734629E+02  0.27952404487E+01  0.31928933108E+02  0.00000000000E+00 0.  1.
<scales pt_clust_4="550.00000" pt_clust_5="550.00000" pt_clust_6="31.80634"></scales>
<mgrwt>
<rscale>  0 0.30000000E+03</rscale>
<asrwt>  1 0.31806342E+02</asrwt>
<pdfrwt beam="1">  1        1 0.84592973E+00 0.30000000E+03</pdfrwt>
<pdfrwt beam="2">0</pdfrwt>
<totfact> 0.45146450E-04</totfact>
</mgrwt>
<clustering>
<clus scale="   31.806">  1  6  2 -1</clus>
<clus scale="  472.484">  4  5 -1 -1</clus>
<clus scale="  300.000">  1  4  2 -1</clus>
</clustering>
</event>
<event>
 6    1  0.1033679E-011  0.3000000E+03  0.7818608E-02  0.1093470E+00
          1   -1    0    0  502    0  0.00000000000E+00  0.00000000000E+00  0.23436555036E+03  0.23436555036E+03  0.00000000000E+00 0.  1.
         13   -1    0    0    0    0 -0.00000000000E+00 -0.00000000000E+00 -0.27500000000E+03  0.27500000000E+03  0.00000000000E+00 0.  1.
    9000005    2    1    2  501    0  0.27843094729E+02 -0.20542774105E+02 -0.64658561108E+02  0.46724190589E+03  0.46145100021E+03 0.  0.
         13    1    3    3    0    0  0.11409083276E+03 -0.20950445789E+03  0.27240932964E+02  0.24010602747E+03  0.00000000000E+00 0.  1.
          3    1    3    3  501    0 -0.86247738030E+02  0.18896168379E+03 -0.91899494072E+02  0.22713587842E+03  0.00000000000E+00 0.  1.
         21    1    1    2  502  501 -0.27843094729E+02  0.20542774105E+02  0.24024111469E+02  0.42123644476E+02  0.00000000000E+00 0. -1.
<scales pt_clust_4="550.00000" pt_clust_5="550.00000" pt_clust_6="34.60121"></scales>
<mgrwt>
<rscale>  0 0.30000000E+03</rscale>
<asrwt>  1 0.34601207E+02</asrwt>
<pdfrwt beam="1">  1        1 0.85223836E+00 0.30000000E+03</pdfrwt>
<pdfrwt beam="2">0</pdfrwt>
<totfact> 0.38838581E-04</totfact>
</mgrwt>
<clustering>
<clus scale="   34.601">  1  6  2 -1</clus>
<clus scale="  461.451">  4  5 -1 -1</clus>
<clus scale="  300.000">  1  4  2 -1</clus>
</clustering>
</event>
<event>
 6    1  0.1033679E-011  0.3000000E+03  0.7818608E-02  0.1093470E+00
          1   -1    0    0  502    0  0.00000000000E+00  0.00000000000E+00  0.23766766173E+03  0.23766766173E+03  0.00000000000E+00 0.  1.
         13   -1    0    0    0    0 -0.00000000000E+00 -0.00000000000E+00 -0.27500000000E+03  0.27500000000E+03  0.00000000000E+00 0.  1.
    9000005    2    1    2  501    0  0.11546712286E+02  0.27860560300E+02 -0.49816004931E+02  0.48002751286E+03  0.47648215221E+03 0.  0.
         13    1    3    3    0    0  0.24021073944E+02 -0.20577432326E+03  0.68032078035E+02  0.21805606561E+03  0.00000000000E+00 0.  1.
          1    1    3    3  501    0 -0.12474361658E+02  0.23363488356E+03 -0.11784808297E+03  0.26197144725E+03  0.00000000000E+00 0.  1.
         21    1    1    2  502  501 -0.11546712286E+02 -0.27860560300E+02  0.12483666658E+02  0.32640148867E+02  0.00000000000E+00 0.  1.
<scales pt_clust_4="550.00000" pt_clust_5="550.00000" pt_clust_6="30.15854"></scales>
<mgrwt>
<rscale>  0 0.30000000E+03</rscale>
<asrwt>  1 0.30158538E+02</asrwt>
<pdfrwt beam="1">  1        1 0.86424604E+00 0.30000000E+03</pdfrwt>
<pdfrwt beam="2">0</pdfrwt>
<totfact> 0.29943790E-04</totfact>
</mgrwt>
<clustering>
<clus scale="   30.159">  1  6  2 -1</clus>
<clus scale="  476.482">  4  5 -1 -1</clus>
<clus scale="  300.000">  1  4  2 -1</clus>
</clustering>
</event>
<event>
 6    1  0.1033679E-011  0.3000000E+03  0.7818608E-02  0.1093470E+00
          1   -1    0    0  502    0  0.00000000000E+00  0.00000000000E+00  0.22997757778E+03  0.22997757778E+03  0.00000000000E+00 0.  1.
         13   -1    0    0    0    0 -0.00000000000E+00 -0.00000000000E+00 -0.27500000000E+03  0.27500000000E+03  0.00000000000E+00 0.  1.
    9000005    2    1    2  501    0 -0.30497028878E+02 -0.47479978651E+01 -0.52508764361E+02  0.47321820794E+03  0.46928210038E+03 0.  0.
         13    1    3    3    0    0 -0.73814578898E+02  0.63221872959E+02  0.19230990337E+03  0.21547319140E+03  0.00000000000E+00 0.  1.
          3    1    3    3  501    0  0.43317550020E+02 -0.67969870824E+02 -0.24481866773E+03  0.25774501654E+03  0.00000000000E+00 0.  1.
         21    1    1    2  502  501  0.30497028878E+02  0.47479978651E+01  0.74863421412E+01  0.31759369842E+02  0.00000000000E+00 0.  1.
<scales pt_clust_4="550.00000" pt_clust_5="550.00000" pt_clust_6="30.86442"></scales>
<mgrwt>
<rscale>  0 0.30000000E+03</rscale>
<asrwt>  1 0.30864417E+02</asrwt>
<pdfrwt beam="1">  1        1 0.83628210E+00 0.30000000E+03</pdfrwt>
<pdfrwt beam="2">0</pdfrwt>
<totfact> 0.54225632E-04</totfact>
</mgrwt>
<clustering>
<clus scale="   30.864">  1  6  2 -1</clus>
<clus scale="  469.282">  4  5 -1 -1</clus>
<clus scale="  300.000">  1  4  2 -1</clus>
</clustering>
</event>
<event>
 6    1  0.1033679E-011  0.3000000E+03  0.7818608E-02  0.1093470E+00
          1   -1    0    0  502    0  0.00000000000E+00  0.00000000000E+00  0.23455400834E+03  0.23455400834E+03  0.00000000000E+00 0.  1.
         13   -1    0    0    0    0 -0.00000000000E+00 -0.00000000000E+00 -0.27500000000E+03  0.27500000000E+03  0.00000000000E+00 0.  1.
    9000005    2    1    2  501    0  0.31444323518E+02  0.51349117043E+01 -0.60695645858E+02  0.47180269982E+03  0.46679622249E+03 0.  0.
         13    1    3    3    0    0 -0.13792022370E+03 -0.70839253483E+02  0.13244960216E+03  0.20391931015E+03  0.00000000000E+00 0.  1.
          1    1    3    3  501    0  0.16936454722E+03  0.75974165187E+02 -0.19314524802E+03  0.26788338967E+03  0.00000000000E+00 0.  1.
         21    1    1    2  502  501 -0.31444323518E+02 -0.51349117043E+01  0.20249654197E+02  0.37751308518E+02  0.00000000000E+00 0.  1.
<scales pt_clust_4="550.00000" pt_clust_5="550.00000" pt_clust_6="31.86083"></scales>
<mgrwt>
<rscale>  0 0.30000000E+03</rscale>
<asrwt>  1 0.31860835E+02</asrwt>
<pdfrwt beam="1">  1        1 0.85292367E+00 0.30000000E+03</pdfrwt>
<pdfrwt beam="2">0</pdfrwt>
<totfact> 0.38854188E-04</totfact>
</mgrwt>
<clustering>
<clus scale="   31.861">  1  6  2 -1</clus>
<clus scale="  466.796">  4  5 -1 -1</clus>
<clus scale="  300.000">  1  4  2 -1</clus>
</clustering>
</event>
<event>
 6    1  0.1033679E-011  0.3000000E+03  0.7818608E-02  0.1093470E+00
          1   -1    0    0  502    0  0.00000000000E+00  0.00000000000E+00  0.23844188019E+03  0.23844188019E+03  0.00000000000E+00 0.  1.
         13   -1    0    0    0    0 -0.00000000000E+00 -0.00000000000E+00 -0.27500000000E+03  0.27500000000E+03  0.00000000000E+00 0.  1.
    9000005    2    1    2  501    0  0.29262345763E+02 -0.37758806151E+02 -0.48554883957E+02  0.46418810194E+03  0.45916337496E+03 0.  0.
         13    1    3    3    0    0  0.12318939675E+02  0.19034101000E+03  0.74125539303E+02  0.20463638958E+03  0.00000000000E+00 0.  1.
          3    1    3    3  501    0  0.16943406088E+02 -0.22809981615E+03 -0.12268042326E+03  0.25955171236E+03  0.00000000000E+00 0.  1.
         21    1    1    2  502  501 -0.29262345763E+02  0.37758806151E+02  0.11996764143E+02  0.49253778245E+02  0.00000000000E+00 0.  1.
<scales pt_clust_4="550.00000" pt_clust_5="550.00000" pt_clust_6="47.77041"></scales>
<mgrwt>
<rscale>  0 0.30000000E+03</rscale>
<asrwt>  1 0.47770413E+02</asrwt>
<pdfrwt beam="1">  1        1 0.86706138E+00 0.30000000E+03</pdfrwt>
<pdfrwt beam="2">0</pdfrwt>
<totfact> 0.25667862E-04</totfact>
</mgrwt>
<clustering>
<clus scale="   47.770">  1  6  2 -1</clus>
<clus scale="  459.163">  4  5 -1 -1</clus>
<clus scale="  300.000">  1  4  2 -1</clus>
</clustering>
</event>
<event>
 6    1  0.1033679E-011  0.3000000E+03  0.7818608E-02  0.1093470E+00
          1   -1    0    0  502    0  0.00000000000E+00  0.00000000000E+00  0.24623241078E+03  0.24623241078E+03  0.00000000000E+00 0.  1.
         13   -1    0    0    0    0 -0.00000000000E+00 -0.00000000000E+00 -0.27500000000E+03  0.27500000000E+03  0.00000000000E+00 0.  1.
    9000005    2    1    2  501    0 -0.52016726410E+02  0.33054752778E+01 -0.18596738286E+02  0.46812768216E+03  0.46484515931E+03 0.  0.
         13    1    3    3    0    0 -0.10416566655E+03  0.72870321680E+02  0.19768152945E+03  0.23502884281E+03  0.00000000000E+00 0.  1.
          1    1    3    3  501    0  0.52148940138E+02 -0.69564846402E+02 -0.21627826773E+03  0.23309883935E+03  0.00000000000E+00 0.  1.
         21    1    1    2  502  501  0.52016726410E+02 -0.33054752778E+01 -0.10170850933E+02  0.53104728621E+02  0.00000000000E+00 0. -1.
<scales pt_clust_4="550.00000" pt_clust_5="550.00000" pt_clust_6="52.12167"></scales>
<mgrwt>
<rscale>  0 0.30000000E+03</rscale>
<asrwt>  1 0.52121672E+02</asrwt>
<pdfrwt beam="1">  1        1 0.89539058E+00 0.30000000E+03</pdfrwt>
<pdfrwt beam="2">0</pdfrwt>
<totfact> 0.11617616E-04</totfact>
</mgrwt>
<clustering>
<clus scale="   52.122">  1  6  2 -1</clus>
<clus scale="  464.845">  4  5 -1 -1</clus>
<clus scale="  300.000">  1  4  2 -1</clus>
</clustering>
</event>
<event>
 6    1  0.1033679E-011  0.3000000E+03  0.7818608E-02  0.1093470E+00
          1   -1    0    0  502    0  0.00000000000E+00  0.00000000000E+00  0.23452028422E+03  0.23452028422E+03  0.00000000000E+00 0.  1.
         13   -1    0    0    0    0 -0.00000000000E+00 -0.00000000000E+00 -0.27500000000E+03  0.27500000000E+03  0.00000000000E+00 0.  1.
    9000005    2    1    2  501    0  0.15681504691E+02  0.26463820795E+02 -0.44310556105E+02  0.47852159493E+03  0.47547160591E+03 0.  0.
         13    1    3    3    0    0  0.20952172293E+03  0.12931214178E+03 -0.73985035595E+02  0.25708902716E+03  0.00000000000E+00 0.  1.
          3    1    3    3  501    0 -0.19384021824E+03 -0.10284832099E+03  0.29674479490E+02  0.22143256777E+03  0.00000000000E+00 0.  1.
         21    1    1    2  502  501 -0.15681504691E+02 -0.26463820795E+02  0.38308403292E+01  0.30998689296E+02  0.00000000000E+00 0.  1.
<scales pt_clust_4="550.00000" pt_clust_5="550.00000" pt_clust_6="30.76107"></scales>
<mgrwt>
<rscale>  0 0.30000000E+03</rscale>
<asrwt>  1 0.30761070E+02</asrwt>
<pdfrwt beam="1">  1        1 0.85280103E+00 0.30000000E+03</pdfrwt>
<pdfrwt beam="2">0</pdfrwt>
<totfact> 0.39222447E-04</totfact>
</mgrwt>
<clustering>
<clus scale="   30.761">  1  6  2 -1</clus>
<clus scale="  475.472">  4  5 -1 -1</clus>
<clus scale="  300.000">  1  4  2 -1</clus>
</clustering>
</event>
<event>
 6    1  0.1033679E-011  0.3000000E+03  0.7818608E-02  0.1093470E+00
          1   -1    0    0  502    0  0.00000000000E+00  0.00000000000E+00  0.23550182834E+03  0.23550182834E+03  0.00000000000E+00 0.  1.
         13   -1    0    0    0    0 -0.00000000000E+00 -0.00000000000E+00 -0.27500000000E+03  0.27500000000E+03  0.00000000000E+00 0.  1.
    9000005    2    1    2  501    0  0.42316591500E+02  0.11215920121E+02 -0.46929883853E+02  0.46609776179E+03  0.46165811892E+03 0.  0.
         13    1    3    3    0    0  0.62591806830E+02  0.13357131692E+02 -0.25200833569E+03  0.26000836237E+03  0.00000000000E+00 0.  1.
          3    1    3    3  501    0 -0.20275215330E+02 -0.21412115711E+01  0.20507845183E+03  0.20608939941E+03  0.00000000000E+00 0.  1.
         21    1    1    2  502  501 -0.42316591500E+02 -0.11215920121E+02  0.74317121910E+01  0.44404066552E+02  0.00000000000E+00 0.  1.
<scales pt_clust_4="550.00000" pt_clust_5="550.00000" pt_clust_6="43.77774"></scales>
<mgrwt>
<rscale>  0 0.30000000E+03</rscale>
<asrwt>  1 0.43777743E+02</asrwt>
<pdfrwt beam="1">  1        1 0.85637028E+00 0.30000000E+03</pdfrwt>
<pdfrwt beam="2">0</pdfrwt>
<totfact> 0.33878909E-04</totfact>
</mgrwt>
<clustering>
<clus scale="   43.778">  1  6  2 -1</clus>
<clus scale="  461.658">  4  5 -1 -1</clus>
<clus scale="  300.000">  1  4  2 -1</clus>
</clustering>
</event>
<event>
 6    1  0.1033679E-011  0.3000000E+03  0.7818608E-02  0.1093470E+00
          1   -1    0    0  502    0  0.00000000000E+00  0.00000000000E+00  0.22822404025E+03  0.22822404025E+03  0.00000000000E+00 0.  1.
         13   -1    0    0    0    0 -0.00000000000E+00 -0.00000000000E+00 -0.27500000000E+03  0.27500000000E+03  0.00000000000E+00 0.  1.
    9000005    2    1    2  501    0 -0.15174929974E+02  0.30639794271E+02 -0.60023834639E+02  0.46655550221E+03  0.46141315589E+03 0.  0.
         13    1    3    3    0    0  0.21127641110E+03 -0.58549758956E+02 -0.24797540865E+02  0.22063706441E+03  0.00000000000E+00 0.  1.
          3    1    3    3  501    0 -0.22645134107E+03  0.89189553227E+02 -0.35226293774E+02  0.24591843780E+03  0.00000000000E+00 0.  1.
         21    1    1    2  502  501  0.15174929974E+02 -0.30639794271E+02  0.13247874891E+02  0.36668538038E+02  0.00000000000E+00 0.  1.
<scales pt_clust_4="550.00000" pt_clust_5="550.00000" pt_clust_6="34.19175"></scales>
<mgrwt>
<rscale>  0 0.30000000E+03</rscale>
<asrwt>  1 0.34191746E+02</asrwt>
<pdfrwt beam="1">  1        1 0.82990560E+00 0.30000000E+03</pdfrwt>
<pdfrwt beam="2">0</pdfrwt>
<totfact> 0.59467195E-04</totfact>
</mgrwt>
<clustering>
<clus scale="   34.192">  1  6  2 -1</clus>
<clus scale="  461.413">  4  5 -1 -1</clus>
<clus scale="  300.000">  1  4  2 -1</clus>
</clustering>
</event>
<event>
 6    1  0.1033679E-011  0.3000000E+03  0.7818608E-02  0.1093470E+00
          1   -1    0    0  502    0  0.00000000000E+00  0.00000000000E+00  0.23066927075E+03  0.23066927075E+03  0.00000000000E+00 0.  1.
         13   -1    0    0    0    0 -0.00000000000E+00 -0.00000000000E+00 -0.27500000000E+03  0.27500000000E+03  0.00000000000E+00 0.  1.
    9000005    2    1    2  501    0 -0.15451696554E+01  0.30980048962E+02 -0.69714002667E+02  0.46558858273E+03  0.45929351750E+03 0.  0.
         13    1    3    3    0    0  0.46342467877E+02  0.35446317847E+02  0.19139332563E+03  0.20008865753E+03  0.00000000000E+00 0.  1.
          3    1    3    3  501    0 -0.47887637533E+02 -0.44662688844E+01 -0.26110732830E+03  0.26549992519E+03  0.00000000000E+00 0.  1.
         21    1    1    2  502  501  0.15451696554E+01 -0.30980048962E+02  0.25383273417E+02  0.40080688022E+02  0.00000000000E+00 0. -1.
<scales pt_clust_4="550.00000" pt_clust_5="550.00000" pt_clust_6="31.01856"></scales>
<mgrwt>
<rscale>  0 0.30000000E+03</rscale>
<asrwt>  1 0.31018559E+02</asrwt>
<pdfrwt beam="1">  1        1 0.83879735E+00 0.30000000E+03</pdfrwt>
<pdfrwt beam="2">0</pdfrwt>
<totfact> 0.51926853E-04</totfact>
</mgrwt>
<clustering>
<clus scale="   31.019">  1  6  2 -1</clus>
<clus scale="  459.294">  4  5 -1 -1</clus>
<clus scale="  300.000">  1  4  2 -1</clus>
</clustering>
</event>
<event>
 6    1  0.1033679E-011  0.3000000E+03  0.7818608E-02  0.1093470E+00
          1   -1    0    0  502    0  0.00000000000E+00  0.00000000000E+00  0.22582417387E+03  0.22582417387E+03  0.00000000000E+00 0.  1.
         13   -1    0    0    0    0 -0.00000000000E+00 -0.00000000000E+00 -0.27500000000E+03  0.27500000000E+03  0.00000000000E+00 0.  1.
    9000005    2    1    2  501    0 -0.19445861911E+02 -0.23165740480E+02 -0.51714715346E+02  0.47047225406E+03  0.46664219374E+03 0.  0.
         13    1    3    3    0    0 -0.11461423063E+03 -0.46271139800E+02 -0.23338051443E+03  0.26409071312E+03  0.00000000000E+00 0.  1.
          1    1    3    3  501    0  0.95168368720E+02  0.23105399320E+02  0.18166579908E+03  0.20638154094E+03  0.00000000000E+00 0.  1.
         21    1    1    2  502  501  0.19445861911E+02  0.23165740480E+02  0.25388892125E+01  0.30351919806E+02  0.00000000000E+00 0. -1.
<scales pt_clust_4="550.00000" pt_clust_5="550.00000" pt_clust_6="30.24555"></scales>
<mgrwt>
<rscale>  0 0.30000000E+03</rscale>
<asrwt>  1 0.30245546E+02</asrwt>
<pdfrwt beam="1">  1        1 0.82117881E+00 0.30000000E+03</pdfrwt>
<pdfrwt beam="2">0</pdfrwt>
<totfact> 0.72618774E-04</totfact>
</mgrwt>
<clustering>
<clus scale="   30.246">  1  6  2 -1</clus>
<clus scale="  466.642">  4  5 -1 -1</clus>
<clus scale="  300.000">  1  4  2 -1</clus>
</clustering>
</event>
<event>
 6    1  0.1033679E-011  0.3000000E+03  0.7818608E-02  0.1093470E+00
          1   -1    0    0  502    0  0.00000000000E+00  0.00000000000E+00  0.22584522743E+03  0.22584522743E+03  0.00000000000E+00 0.  1.
         13   -1    0    0    0    0 -0.00000000000E+00 -0.00000000000E+00 -0.27500000000E+03  0.27500000000E+03  0.00000000000E+00 0.  1.
    9000005    2    1    2  501    0  0.29089934965E+02 -0.23711625420E+02 -0.38194456987E+02  0.46174798949E+03  0.45863266757E+03 0.  0.
         13    1    3    3    0    0 -0.69723079702E+02  0.55872895596E+02  0.18475459108E+03  0.20522511354E+03  0.00000000000E+00 0.  1.
          3    1    3    3  501    0  0.98813014667E+02 -0.79584521016E+02 -0.22294904806E+03  0.25652287595E+03  0.00000000000E+00 0.  1.
         21    1    1    2  502  501 -0.29089934965E+02  0.23711625420E+02 -0.10960315585E+02  0.39097237934E+02  0.00000000000E+00 0. -1.
<scales pt_clust_4="550.00000" pt_clust_5="550.00000" pt_clust_6="37.52955"></scales>
<mgrwt>
<rscale>  0 0.30000000E+03</rscale>
<asrwt>  1 0.37529547E+02</asrwt>
<pdfrwt beam="1">  1        1 0.82125537E+00 0.30000000E+03</pdfrwt>
<pdfrwt beam="2">0</pdfrwt>
<totfact> 0.69617597E-04</totfact>
</mgrwt>
<clustering>
<clus scale="   37.530">  1  6  2 -1</clus>
<clus scale="  458.633">  4  5 -1 -1</clus>
<clus scale="  300.000">  1  4  2 -1</clus>
</clustering>
</event>
<event>
 6    1  0.1033679E-011  0.3000000E+03  0.7818608E-02  0.1093470E+00
          1   -1    0    0  502    0  0.00000000000E+00  0.00000000000E+00  0.23389129156E+03  0.23389129156E+03  0.00000000000E+00 0.  1.
         13   -1    0    0    0    0 -0.00000000000E+00 -0.00000000000E+00 -0.27500000000E+03  0.27500000000E+03  0.00000000000E+00 0.  1.
    9000005    2    1    2  501    0  0.13217998403E+02  0.34549767735E+02 -0.45651624021E+02  0.47162146443E+03  0.46794693396E+03 0.  0.
         13    1    3    3    0    0 -0.54615104214E+02  0.15705845406E+03 -0.20206083956E+03  0.26168444830E+03  0.00000000000E+00 0.  1.
          3    1    3    3  501    0  0.67833102617E+02 -0.12250868632E+03  0.15640921554E+03  0.20993701613E+03  0.00000000000E+00 0.  1.
         21    1    1    2  502  501 -0.13217998403E+02 -0.34549767735E+02  0.45429155853E+01  0.37269827131E+02  0.00000000000E+00 0. -1.
<scales pt_clust_4="550.00000" pt_clust_5="550.00000" pt_clust_6="36.99192"></scales>
<mgrwt>
<rscale>  0 0.30000000E+03</rscale>
<asrwt>  1 0.36991917E+02</asrwt>
<pdfrwt beam="1">  1        1 0.85051379E+00 0.30000000E+03</pdfrwt>
<pdfrwt beam="2">0</pdfrwt>
<totfact> 0.39835620E-04</totfact>
</mgrwt>
<clustering>
<clus scale="   36.992">  1  6  2 -1</clus>
<clus scale="  467.947">  4  5 -1 -1</clus>
<clus scale="  300.000">  1  4  2 -1</clus>
</clustering>
</event>
<event>
 6    1  0.1033679E-011  0.3000000E+03  0.7818608E-02  0.1093470E+00
          1   -1    0    0  502    0  0.00000000000E+00  0.00000000000E+00  0.22357809400E+03  0.22357809400E+03  0.00000000000E+00 0.  1.
         13   -1    0    0    0    0 -0.00000000000E+00 -0.00000000000E+00 -0.27500000000E+03  0.27500000000E+03  0.00000000000E+00 0.  1.
    9000005    2    1    2  501    0 -0.25975261130E+02  0.18807301567E+02 -0.48290792078E+02  0.46635647614E+03  0.46273959573E+03 0.  0.
         13    1    3    3    0    0  0.10082457544E+03  0.90799850594E+02 -0.20911166654E+03  0.24927474193E+03  0.00000000000E+00 0.  1.
          1    1    3    3  501    0 -0.12679983657E+03 -0.71992549027E+02  0.16082087446E+03  0.21708173422E+03  0.00000000000E+00 0.  1.
         21    1    1    2  502  501  0.25975261130E+02 -0.18807301567E+02 -0.31311139197E+01  0.32221617858E+02  0.00000000000E+00 0.  1.
<scales pt_clust_4="550.00000" pt_clust_5="550.00000" pt_clust_6="32.06913"></scales>
<mgrwt>
<rscale>  0 0.30000000E+03</rscale>
<asrwt>  1 0.32069125E+02</asrwt>
<pdfrwt beam="1">  1        1 0.81301125E+00 0.30000000E+03</pdfrwt>
<pdfrwt beam="2">0</pdfrwt>
<totfact> 0.83954163E-04</totfact>
</mgrwt>
<clustering>
<clus scale="   32.069">  1  6  2 -1</clus>
<clus scale="  462.740">  4  5 -1 -1</clus>
<clus scale="  300.000">  1  4  2 -1</clus>
</clustering>
</event>
<event>
 6    1  0.1033679E-011  0.3000000E+03  0.7818608E-02  0.1093470E+00
          1   -1    0    0  502    0  0.00000000000E+00  0.00000000000E+00  0.24486936004E+03  0.24486936004E+03  0.00000000000E+00 0.  1.
         13   -1    0    0    0    0 -0.00000000000E+00 -0.00000000000E+00 -0.27500000000E+03  0.27500000000E+03  0.00000000000E+00 0.  1.
    9000005    2    1    2  501    0  0.15326648673E+02  0.35048375273E+02 -0.49142329049E+02  0.47715239514E+03  0.47307097238E+03 0.  0.
         13    1    3    3    0    0 -0.76882974069E+02  0.10414117004E+03 -0.22929065807E+03  0.26330700879E+03  0.00000000000E+00 0.  1.
          1    1    3    3  501    0  0.92209622741E+02 -0.69092794763E+02  0.18014832902E+03  0.21384538635E+03  0.00000000000E+00 0.  1.
         21    1    1    2  502  501 -0.15326648673E+02 -0.35048375273E+02  0.19011689093E+02  0.42716964908E+02  0.00000000000E+00 0.  1.
<scales pt_clust_4="550.00000" pt_clust_5="550.00000" pt_clust_6="38.25304"></scales>
<mgrwt>
<rscale>  0 0.30000000E+03</rscale>
<asrwt>  1 0.38253036E+02</asrwt>
<pdfrwt beam="1">  1        1 0.89043404E+00 0.30000000E+03</pdfrwt>
<pdfrwt beam="2">0</pdfrwt>
<totfact> 0.14071306E-04</totfact>
</mgrwt>
<clustering>
<clus scale="   38.253">  1  6  2 -1</clus>
<clus scale="  473.071">  4  5 -1 -1</clus>
<clus scale="  300.000">  1  4  2 -1</clus>
</clustering>
</event>
<event>
 6    1  0.1033679E-011  0.3000000E+03  0.7818608E-02  0.1093470E+00
          1   -1    0    0  502    0  0.00000000000E+00  0.00000000000E+00  0.24686335696E+03  0.24686335696E+03  0.00000000000E+00 0.  1.
         13   -1    0    0    0    0 -0.00000000000E+00 -0.00000000000E+00 -0.27500000000E+03  0.27500000000E+03  0.00000000000E+00 0.  1.
    9000005    2    1    2  501    0  0.20151470247E+02 -0.31498695627E+02 -0.43136734780E+02  0.48157375121E+03  0.47817805302E+03 0.  0.
         13    1    3    3    0    0 -0.46677323739E+02 -0.20186790585E+02 -0.25454001933E+03  0.25957060794E+03  0.00000000000E+00 0.  1.
          1    1    3    3  501    0  0.66828793986E+02 -0.11311905042E+02  0.21140328455E+03  0.22200314327E+03  0.00000000000E+00 0.  1.
         21    1    1    2  502  501 -0.20151470247E+02  0.31498695627E+02  0.15000091739E+02  0.40289605750E+02  0.00000000000E+00 0.  1.
<scales pt_clust_4="550.00000" pt_clust_5="550.00000" pt_clust_6="37.39318"></scales>
<mgrwt>
<rscale>  0 0.30000000E+03</rscale>
<asrwt>  1 0.37393176E+02</asrwt>
<pdfrwt beam="1">  1        1 0.89768493E+00 0.30000000E+03</pdfrwt>
<pdfrwt beam="2">0</pdfrwt>
<totfact> 0.11622015E-04</totfact>
</mgrwt>
<clustering>
<clus scale="   37.393">  1  6  2 -1</clus>
<clus scale="  478.178">  4  5 -1 -1</clus>
<clus scale="  300.000">  1  4  2 -1</clus>
</clustering>
</event>
<event>
 6    1  0.1033679E-011  0.3000000E+03  0.7818608E-02  0.1093470E+00
          1   -1    0    0  502    0  0.00000000000E+00  0.00000000000E+00  0.23156386303E+03  0.23156386303E+03  0.00000000000E+00 0.  1.
         13   -1    0    0    0    0 -0.00000000000E+00 -0.00000000000E+00 -0.27500000000E+03  0.27500000000E+03  0.00000000000E+00 0.  1.
    9000005    2    1    2  501    0  0.26091925111E+02  0.21356007642E+02 -0.18089774140E+02  0.46438204553E+03  0.46280295663E+03 0.  0.
         13    1    3    3    0    0 -0.14691794131E+03 -0.10776260373E+03  0.11051481120E+03  0.21309899984E+03  0.00000000000E+00 0.  1.
          3    1    3    3  501    0  0.17300986642E+03  0.12911861137E+03 -0.12860458534E+03  0.25128304569E+03  0.00000000000E+00 0.  1.
         21    1    1    2  502  501 -0.26091925111E+02 -0.21356007642E+02 -0.25346362834E+02  0.42181817497E+02  0.00000000000E+00 0.  1.
<scales pt_clust_4="550.00000" pt_clust_5="550.00000" pt_clust_6="33.71748"></scales>
<mgrwt>
<rscale>  0 0.30000000E+03</rscale>
<asrwt>  1 0.33717484E+02</asrwt>
<pdfrwt beam="1">  1        1 0.84205041E+00 0.30000000E+03</pdfrwt>
<pdfrwt beam="2">0</pdfrwt>
<totfact> 0.48207169E-04</totfact>
</mgrwt>
<clustering>
<clus scale="   33.717">  1  6  2 -1</clus>
<clus scale="  462.803">  4  5 -1 -1</clus>
<clus scale="  300.000">  1  4  2 -1</clus>
</clustering>
</event>
<event>
 6    1  0.1033679E-011  0.3000000E+03  0.7818608E-02  0.1093470E+00
          1   -1    0    0  502    0  0.00000000000E+00  0.00000000000E+00  0.23975472009E+03  0.23975472009E+03  0.00000000000E+00 0.  1.
         13   -1    0    0    0    0 -0.00000000000E+00 -0.00000000000E+00 -0.27500000000E+03  0.27500000000E+03  0.00000000000E+00 0.  1.
    9000005    2    1    2  501    0  0.23838654349E+02 -0.19555408549E+02 -0.34597057446E+02  0.48391455737E+03  0.48169040576E+03 0.  0.
         13    1    3    3    0    0  0.19134610395E+03  0.59091046255E+02  0.12791943134E+03  0.23763094108E+03  0.00000000000E+00 0.  1.
          3    1    3    3  501    0 -0.16750744960E+03 -0.78646454804E+02 -0.16251648879E+03  0.24628361629E+03  0.00000000000E+00 0.  1.
         21    1    1    2  502  501 -0.23838654349E+02  0.19555408549E+02 -0.64822246118E+00  0.30840162727E+02  0.00000000000E+00 0.  1.
<scales pt_clust_4="550.00000" pt_clust_5="550.00000" pt_clust_6="30.83335"></scales>
<mgrwt>
<rscale>  0 0.30000000E+03</rscale>
<asrwt>  1 0.30833350E+02</asrwt>
<pdfrwt beam="1">  1        1 0.87183535E+00 0.30000000E+03</pdfrwt>
<pdfrwt beam="2">0</pdfrwt>
<totfact> 0.24844501E-04</totfact>
</mgrwt>
<clustering>
<clus scale="   30.833">  1  6  2 -1</clus>
<clus scale="  481.690">  4  5 -1 -1</clus>
<clus scale="  300.000">  1  4  2 -1</clus>
</clustering>
</event>
<event>
 6    1  0.1033679E-011  0.3000000E+03  0.7818608E-02  0.1093470E+00
          1   -1    0    0  502    0  0.00000000000E+00  0.00000000000E+00  0.22633942095E+03  0.22633942095E+03  0.00000000000E+00 0.  1.
         13   -1    0    0    0    0 -0.00000000000E+00 -0.00000000000E+00 -0.27500000000E+03  0.27500000000E+03  0.00000000000E+00 0.  1.
    9000005    2    1    2  501    0  0.18434566800E+02  0.27274277051E+02 -0.65748148851E+02  0.46424893048E+03  0.45838906066E+03 0.  0.
         13    1    3    3    0    0 -0.13342403000E+03 -0.51327692226E+02 -0.20070525816E+03  0.24641246808E+03  0.00000000000E+00 0.  1.
          3    1    3    3  501    0  0.15185859680E+03  0.78601969277E+02  0.13495710931E+03  0.21783646240E+03  0.00000000000E+00 0.  1.
         21    1    1    2  502  501 -0.18434566800E+02 -0.27274277051E+02  0.17087569805E+02  0.37090490474E+02  0.00000000000E+00 0. -1.
<scales pt_clust_4="550.00000" pt_clust_5="550.00000" pt_clust_6="32.91989"></scales>
<mgrwt>
<rscale>  0 0.30000000E+03</rscale>
<asrwt>  1 0.32919894E+02</asrwt>
<pdfrwt beam="1">  1        1 0.82305244E+00 0.30000000E+03</pdfrwt>
<pdfrwt beam="2">0</pdfrwt>
<totfact> 0.68774486E-04</totfact>
</mgrwt>
<clustering>
<clus scale="   32.920">  1  6  2 -1</clus>
<clus scale="  458.389">  4  5 -1 -1</clus>
<clus scale="  300.000">  1  4  2 -1</clus>
</clustering>
</event>
<event>
 6    1  0.1033679E-011  0.3000000E+03  0.7818608E-02  0.1093470E+00
          1   -1    0    0  502    0  0.00000000000E+00  0.00000000000E+00  0.23020749500E+03  0.23020749500E+03  0.00000000000E+00 0.  1.
         13   -1    0    0    0    0 -0.00000000000E+00 -0.00000000000E+00 -0.27500000000E+03  0.27500000000E+03  0.00000000000E+00 0.  1.
    9000005    2    1    2  501    0 -0.35010152517E+02 -0.82269789662E+01 -0.60761127772E+02  0.46585789684E+03  0.46047613558E+03 0.  0.
         13    1    3    3    0    0  0.60905131698E+01  0.17871961939E+03  0.10949523694E+03  0.20968310284E+03  0.00000000000E+00 0.  1.
          3    1    3    3  501    0 -0.41100665687E+02 -0.18694659835E+03 -0.17025636471E+03  0.25617479400E+03  0.00000000000E+00 0.  1.
         21    1    1    2  502  501  0.35010152517E+02  0.82269789662E+01  0.15968622774E+02  0.39349598161E+02  0.00000000000E+00 0.  1.
<scales pt_clust_4="550.00000" pt_clust_5="550.00000" pt_clust_6="35.96379"></scales>
<mgrwt>
<rscale>  0 0.30000000E+03</rscale>
<asrwt>  1 0.35963787E+02</asrwt>
<pdfrwt beam="1">  1        1 0.83711816E+00 0.30000000E+03</pdfrwt>
<pdfrwt beam="2">0</pdfrwt>
<totfact> 0.51951636E-04</totfact>
</mgrwt>
<clustering>
<clus scale="   35.964">  1  6  2 -1</clus>
<clus scale="  460.476">  4  5 -1 -1</clus>
<clus scale="  300.000">  1  4  2 -1</clus>
</clustering>
</event>
<event>
 6    1  0.1033679E-011  0.3000000E+03  0.7818608E-02  0.1093470E+00
          1   -1    0    0  502    0  0.00000000000E+00  0.00000000000E+00  0.23961283005E+03  0.23961283005E+03  0.00000000000E+00 0.  1.
         13   -1    0    0    0    0 -0.00000000000E+00 -0.00000000000E+00 -0.27500000000E+03  0.27500000000E+03  0.00000000000E+00 0.  1.
    9000005    2    1    2  501    0  0.11877298043E+02  0.32548004211E+02 -0.68264199167E+02  0.46684943573E+03  0.46053007716E+03 0.  0.
         13    1    3    3    0    0  0.21216600583E+03  0.23411210339E+02  0.68469281462E+02  0.22416632508E+03  0.00000000000E+00 0.  1.
          3    1    3    3  501    0 -0.20028870778E+03  0.91367938721E+01 -0.13673348063E+03  0.24268311065E+03  0.00000000000E+00 0.  1.
         21    1    1    2  502  501 -0.11877298043E+02 -0.32548004211E+02  0.32877029217E+02  0.47763394321E+02  0.00000000000E+00 0.  1.
<scales pt_clust_4="550.00000" pt_clust_5="550.00000" pt_clust_6="34.64741"></scales>
<mgrwt>
<rscale>  0 0.30000000E+03</rscale>
<asrwt>  1 0.34647407E+02</asrwt>
<pdfrwt beam="1">  1        1 0.87131938E+00 0.30000000E+03</pdfrwt>
<pdfrwt beam="2">0</pdfrwt>
<totfact> 0.24598202E-04</totfact>
</mgrwt>
<clustering>
<clus scale="   34.647">  1  6  2 -1</clus>
<clus scale="  460.530">  4  5 -1 -1</clus>
<clus scale="  300.000">  1  4  2 -1</clus>
</clustering>
</event>
<event>
 6    1  0.1033679E-011  0.3000000E+03  0.7818608E-02  0.1093470E+00
          1   -1    0    0  502    0  0.00000000000E+00  0.00000000000E+00  0.24439244100E+03  0.24439244100E+03  0.00000000000E+00 0.  1.
         13   -1    0    0    0    0 -0.00000000000E+00 -0.00000000000E+00 -0.27500000000E+03  0.27500000000E+03  0.00000000000E+00 0.  1.
    9000005    2    1    2  501    0 -0.21648648351E+02 -0.27528488034E+02 -0.49892351759E+02  0.47941263534E+03  0.47552155212E+03 0.  0.
         13    1    3    3    0    0 -0.22587583227E+03  0.73374447344E+02 -0.77805384378E+02  0.24991474339E+03  0.00000000000E+00 0.  1.
          1    1    3    3  501    0  0.20422718392E+03 -0.10090293538E+03  0.27913032619E+02  0.22949789195E+03  0.00000000000E+00 0.  1.
         21    1    1    2  502  501  0.21648648351E+02  0.27528488034E+02  0.19284792761E+02  0.39979805662E+02  0.00000000000E+00 0.  1.
<scales pt_clust_4="550.00000" pt_clust_5="550.00000" pt_clust_6="35.02116"></scales>
<mgrwt>
<rscale>  0 0.30000000E+03</rscale>
<asrwt>  1 0.35021160E+02</asrwt>
<pdfrwt beam="1">  1        1 0.88869979E+00 0.30000000E+03</pdfrwt>
<pdfrwt beam="2">0</pdfrwt>
<totfact> 0.15091106E-04</totfact>
</mgrwt>
<clustering>
<clus scale="   35.021">  1  6  2 -1</clus>
<clus scale="  475.522">  4  5 -1 -1</clus>
<clus scale="  300.000">  1  4  2 -1</clus>
</clustering>
</event>
<event>
 6    1  0.1033679E-011  0.3000000E+03  0.7818608E-02  0.1093470E+00
          1   -1    0    0  502    0  0.00000000000E+00  0.00000000000E+00  0.23192096820E+03  0.23192096820E+03  0.00000000000E+00 0.  1.
         13   -1    0    0    0    0 -0.00000000000E+00 -0.00000000000E+00 -0.27500000000E+03  0.27500000000E+03  0.00000000000E+00 0.  1.
    9000005    2    1    2  501    0 -0.29556001511E+02  0.98874612478E+01 -0.39756408927E+02  0.47557836241E+03  0.47288781716E+03 0.  0.
         13    1    3    3    0    0 -0.15505425114E+03 -0.50131732753E+02  0.16247815071E+03  0.23011771093E+03  0.00000000000E+00 0.  1.
          1    1    3    3  501    0  0.12549824963E+03  0.60019194001E+02 -0.20223455964E+03  0.24546065147E+03  0.00000000000E+00 0.  1.
         21    1    1    2  502  501  0.29556001511E+02 -0.98874612478E+01 -0.33226228728E+01  0.31342605795E+02  0.00000000000E+00 0. -1.
<scales pt_clust_4="550.00000" pt_clust_5="550.00000" pt_clust_6="31.16601"></scales>
<mgrwt>
<rscale>  0 0.30000000E+03</rscale>
<asrwt>  1 0.31166009E+02</asrwt>
<pdfrwt beam="1">  1        1 0.84334898E+00 0.30000000E+03</pdfrwt>
<pdfrwt beam="2">0</pdfrwt>
<totfact> 0.47721622E-04</totfact>
</mgrwt>
<clustering>
<clus scale="   31.166">  1  6  2 -1</clus>
<clus scale="  472.888">  4  5 -1 -1</clus>
<clus scale="  300.000">  1  4  2 -1</clus>
</clustering>
</event>
<event>
 6    1  0.1033679E-011  0.3000000E+03  0.7818608E-02  0.1093470E+00
          1   -1    0    0  502    0  0.00000000000E+00  0.00000000000E+00  0.22176085654E+03  0.22176085654E+03  0.00000000000E+00 0.  1.
         13   -1    0    0    0    0 -0.00000000000E+00 -0.00000000000E+00 -0.27500000000E+03  0.27500000000E+03  0.00000000000E+00 0.  1.
    9000005    2    1    2  501    0  0.14719758056E+02 -0.31060177338E+02 -0.61345391936E+02  0.46144631056E+03  0.45605705183E+03 0.  0.
         13    1    3    3    0    0 -0.21356363802E+03  0.38758165073E+02 -0.48346075310E+02  0.22237123429E+03  0.00000000000E+00 0.  1.
          1    1    3    3  501    0  0.22828339607E+03 -0.69818342410E+02 -0.12999316625E+02  0.23907507627E+03  0.00000000000E+00 0.  1.
         21    1    1    2  502  501 -0.14719758056E+02  0.31060177338E+02  0.81062484780E+01  0.35314545981E+02  0.00000000000E+00 0. -1.
<scales pt_clust_4="550.00000" pt_clust_5="550.00000" pt_clust_6="34.37159"></scales>
<mgrwt>
<rscale>  0 0.30000000E+03</rscale>
<asrwt>  1 0.34371586E+02</asrwt>
<pdfrwt beam="1">  1        1 0.80640311E+00 0.30000000E+03</pdfrwt>
<pdfrwt beam="2">0</pdfrwt>
<totfact> 0.93291396E-04</totfact>
</mgrwt>
<clustering>
<clus scale="   34.372">  1  6  2 -1</clus>
<clus scale="  456.057">  4  5 -1 -1</clus>
<clus scale="  300.000">  1  4  2 -1</clus>
</clustering>
</event>
<event>
 6    1  0.1033679E-011  0.3000000E+03  0.7818608E-02  0.1093470E+00
          1   -1    0    0  502    0  0.00000000000E+00  0.00000000000E+00  0.23858201514E+03  0.23858201514E+03  0.00000000000E+00 0.  1.
         13   -1    0    0    0    0 -0.00000000000E+00 -0.00000000000E+00 -0.27500000000E+03  0.27500000000E+03  0.00000000000E+00 0.  1.
    9000005    2    1    2  501    0  0.14111866123E+02 -0.30119682162E+02 -0.63450949257E+02  0.47072036348E+03  0.46523681885E+03 0.  0.
         13    1    3    3    0    0 -0.87996723266E+02  0.19756557548E+03 -0.41514461921E+02  0.22022495424E+03  0.00000000000E+00 0.  1.
          1    1    3    3  501    0  0.10210858939E+03 -0.22768525764E+03 -0.21936487336E+02  0.25049540924E+03  0.00000000000E+00 0.  1.
         21    1    1    2  502  501 -0.14111866123E+02  0.30119682162E+02  0.27032964393E+02  0.42861651659E+02  0.00000000000E+00 0.  1.
<scales pt_clust_4="550.00000" pt_clust_5="550.00000" pt_clust_6="33.26169"></scales>
<mgrwt>
<rscale>  0 0.30000000E+03</rscale>
<asrwt>  1 0.33261690E+02</asrwt>
<pdfrwt beam="1">  1        1 0.86757096E+00 0.30000000E+03</pdfrwt>
<pdfrwt beam="2">0</pdfrwt>
<totfact> 0.27087528E-04</totfact>
</mgrwt>
<clustering>
<clus scale="   33.262">  1  6  2 -1</clus>
<clus scale="  465.237">  4  5 -1 -1</clus>
<clus scale="  300.000">  1  4  2 -1</clus>
</clustering>
</event>
<event>
 6    1  0.1033679E-011  0.3000000E+03  0.7818608E-02  0.1093470E+00
          1   -1    0    0  502    0  0.00000000000E+00  0.00000000000E+00  0.25182112785E+03  0.25182112785E+03  0.00000000000E+00 0.  1.
         13   -1    0    0    0    0 -0.00000000000E+00 -0.00000000000E+00 -0.27500000000E+03  0.27500000000E+03  0.00000000000E+00 0.  1.
    9000005    2    1    2  501    0 -0.39923864951E+02  0.16227646719E+02 -0.18313853485E+02  0.48345155421E+03  0.48117850797E+03 0.  0.
         13    1    3    3    0    0 -0.14800680487E+03  0.19001447363E+03  0.83435520002E+02  0.25489801975E+03  0.00000000000E+00 0.  1.
          3    1    3    3  501    0  0.10808293992E+03 -0.17378682691E+03 -0.10174937349E+03  0.22855353446E+03  0.00000000000E+00 0.  1.
         21    1    1    2  502  501  0.39923864951E+02 -0.16227646719E+02 -0.48650186671E+01  0.43369573635E+02  0.00000000000E+00 0.  1.
<scales pt_clust_4="550.00000" pt_clust_5="550.00000" pt_clust_6="43.09586"></scales>
<mgrwt>
<rscale>  0 0.30000000E+03</rscale>
<asrwt>  1 0.43095863E+02</asrwt>
<pdfrwt beam="1">  1        1 0.91571319E+00 0.30000000E+03</pdfrwt>
<pdfrwt beam="2">0</pdfrwt>
<totfact> 0.50175520E-05</totfact>
</mgrwt>
<clustering>
<clus scale="   43.096">  1  6  2 -1</clus>
<clus scale="  481.179">  4  5 -1 -1</clus>
<clus scale="  300.000">  1  4  2 -1</clus>
</clustering>
</event>
<event>
 6    1  0.1033679E-011  0.3000000E+03  0.7818608E-02  0.1093470E+00
          1   -1    0    0  502    0  0.00000000000E+00  0.00000000000E+00  0.22419422103E+03  0.22419422103E+03  0.00000000000E+00 0.  1.
         13   -1    0    0    0    0 -0.00000000000E+00 -0.00000000000E+00 -0.27500000000E+03  0.27500000000E+03  0.00000000000E+00 0.  1.
    9000005    2    1    2  501    0  0.34000480979E+02  0.12646674690E+02 -0.46263585728E+02  0.46263464490E+03  0.45888399864E+03 0.  0.
         13    1    3    3    0    0  0.36551077363E+02  0.20671379268E+03 -0.13462790972E+03  0.24938173031E+03  0.00000000000E+00 0.  1.
          1    1    3    3  501    0 -0.25505963835E+01 -0.19406711799E+03  0.88364323988E+02  0.21325291459E+03  0.00000000000E+00 0.  1.
         21    1    1    2  502  501 -0.34000480979E+02 -0.12646674690E+02 -0.45421932409E+01  0.36559576132E+02  0.00000000000E+00 0. -1.
<scales pt_clust_4="550.00000" pt_clust_5="550.00000" pt_clust_6="36.27633"></scales>
<mgrwt>
<rscale>  0 0.30000000E+03</rscale>
<asrwt>  1 0.36276334E+02</asrwt>
<pdfrwt beam="1">  1        1 0.81525171E+00 0.30000000E+03</pdfrwt>
<pdfrwt beam="2">0</pdfrwt>
<totfact> 0.78704481E-04</totfact>
</mgrwt>
<clustering>
<clus scale="   36.276">  1  6  2 -1</clus>
<clus scale="  458.884">  4  5 -1 -1</clus>
<clus scale="  300.000">  1  4  2 -1</clus>
</clustering>
</event>
<event>
 6    1  0.1033679E-011  0.3000000E+03  0.7818608E-02  0.1093470E+00
          1   -1    0    0  502    0  0.00000000000E+00  0.00000000000E+00  0.23800427106E+03  0.23800427106E+03  0.00000000000E+00 0.  1.
         13   -1    0    0    0    0 -0.00000000000E+00 -0.00000000000E+00 -0.27500000000E+03  0.27500000000E+03  0.00000000000E+00 0.  1.
    9000005    2    1    2  501    0 -0.32566549622E+02  0.14829185005E+02 -0.63450224025E+02  0.46850342621E+03  0.46280562287E+03 0.  0.
         13    1    3    3    0    0  0.10986301388E+03  0.12004912771E+03  0.12849848719E+03  0.20734882709E+03  0.00000000000E+00 0.  1.
          3    1    3    3  501    0 -0.14242956351E+03 -0.10521994271E+03 -0.19194871122E+03  0.26115459912E+03  0.00000000000E+00 0.  1.
         21    1    1    2  502  501  0.32566549622E+02 -0.14829185005E+02  0.26454495086E+02  0.44500844851E+02  0.00000000000E+00 0.  1.
<scales pt_clust_4="550.00000" pt_clust_5="550.00000" pt_clust_6="35.78386"></scales>
<mgrwt>
<rscale>  0 0.30000000E+03</rscale>
<asrwt>  1 0.35783863E+02</asrwt>
<pdfrwt beam="1">  1        1 0.86547008E+00 0.30000000E+03</pdfrwt>
<pdfrwt beam="2">0</pdfrwt>
<totfact> 0.28123390E-04</totfact>
</mgrwt>
<clustering>
<clus scale="   35.784">  1  6  2 -1</clus>
<clus scale="  462.806">  4  5 -1 -1</clus>
<clus scale="  300.000">  1  4  2 -1</clus>
</clustering>
</event>
<event>
 6    1  0.1033679E-011  0.3000000E+03  0.7818608E-02  0.1093470E+00
          1   -1    0    0  502    0  0.00000000000E+00  0.00000000000E+00  0.22880648838E+03  0.22880648838E+03  0.00000000000E+00 0.  1.
         13   -1    0    0    0    0 -0.00000000000E+00 -0.00000000000E+00 -0.27500000000E+03  0.27500000000E+03  0.00000000000E+00 0.  1.
    9000005    2    1    2  501    0 -0.29740720720E+02  0.11077285591E+02 -0.49140955367E+02  0.47193323706E+03  0.46829363654E+03 0.  0.
         13    1    3    3    0    0 -0.16901342537E+03  0.15555464014E+03  0.68018755325E+02  0.23956071277E+03  0.00000000000E+00 0.  1.
          3    1    3    3  501    0  0.13927270465E+03 -0.14447735455E+03 -0.11715971069E+03  0.23237252430E+03  0.00000000000E+00 0.  1.
         21    1    1    2  502  501  0.29740720720E+02 -0.11077285591E+02  0.29474437468E+01  0.31873251319E+02  0.00000000000E+00 0.  1.
<scales pt_clust_4="550.00000" pt_clust_5="550.00000" pt_clust_6="31.73668"></scales>
<mgrwt>
<rscale>  0 0.30000000E+03</rscale>
<asrwt>  1 0.31736678E+02</asrwt>
<pdfrwt beam="1">  1        1 0.83202359E+00 0.30000000E+03</pdfrwt>
<pdfrwt beam="2">0</pdfrwt>
<totfact> 0.58006273E-04</totfact>
</mgrwt>
<clustering>
<clus scale="   31.737">  1  6  2 -1</clus>
<clus scale="  468.294">  4  5 -1 -1</clus>
<clus scale="  300.000">  1  4  2 -1</clus>
</clustering>
</event>
<event>
 6    1  0.1033679E-011  0.3000000E+03  0.7818608E-02  0.1093470E+00
          1   -1    0    0  502    0  0.00000000000E+00  0.00000000000E+00  0.22313715634E+03  0.22313715634E+03  0.00000000000E+00 0.  1.
         13   -1    0    0    0    0 -0.00000000000E+00 -0.00000000000E+00 -0.27500000000E+03  0.27500000000E+03  0.00000000000E+00 0.  1.
    9000005    2    1    2  501    0  0.28870317062E+02  0.82490328156E+01 -0.67961254190E+02  0.46406810042E+03  0.45808179183E+03 0.  0.
         13    1    3    3    0    0  0.16037327864E+02  0.20294023356E+03 -0.14953154847E+03  0.25258982218E+03  0.00000000000E+00 0.  1.
          3    1    3    3  501    0  0.12832989198E+02 -0.19469120074E+03  0.81570294279E+02  0.21147827824E+03  0.00000000000E+00 0.  1.
         21    1    1    2  502  501 -0.28870317062E+02 -0.82490328156E+01  0.16098410529E+02  0.34069055919E+02  0.00000000000E+00 0.  1.
<scales pt_clust_4="550.00000" pt_clust_5="550.00000" pt_clust_6="30.02568"></scales>
<mgrwt>
<rscale>  0 0.30000000E+03</rscale>
<asrwt>  1 0.30025685E+02</asrwt>
<pdfrwt beam="1">  1        1 0.81140784E+00 0.30000000E+03</pdfrwt>
<pdfrwt beam="2">0</pdfrwt>
<totfact> 0.87538245E-04</totfact>
</mgrwt>
<clustering>
<clus scale="   30.026">  1  6  2 -1</clus>
<clus scale="  458.082">  4  5 -1 -1</clus>
<clus scale="  300.000">  1  4  2 -1</clus>
</clustering>
</event>
<event>
 6    1  0.1033679E-011  0.3000000E+03  0.7818608E-02  0.1093470E+00
          1   -1    0    0  502    0  0.00000000000E+00  0.00000000000E+00  0.25031667279E+03  0.25031667279E+03  0.00000000000E+00 0.  1.
         13   -1    0    0    0    0 -0.00000000000E+00 -0.00000000000E+00 -0.27500000000E+03  0.27500000000E+03  0.00000000000E+00 0.  1.
    9000005    2    1    2  501    0  0.19662661931E+02  0.22930770960E+02 -0.52066132261E+02  0.48454586775E+03  0.48079244513E+03 0.  0.
         13    1    3    3    0    0 -0.22382064528E+02 -0.17554569664E+03 -0.17372235893E+03  0.24798529475E+03  0.00000000000E+00 0.  1.
          1    1    3    3  501    0  0.42044726459E+02  0.19847646760E+03  0.12165622667E+03  0.23656057300E+03  0.00000000000E+00 0.  1.
         21    1    1    2  502  501 -0.19662661931E+02 -0.22930770960E+02  0.27382805046E+02  0.40770805035E+02  0.00000000000E+00 0.  1.
<scales pt_clust_4="550.00000" pt_clust_5="550.00000" pt_clust_6="30.20663"></scales>
<mgrwt>
<rscale>  0 0.30000000E+03</rscale>
<asrwt>  1 0.30206631E+02</asrwt>
<pdfrwt beam="1">  1        1 0.91024245E+00 0.30000000E+03</pdfrwt>
<pdfrwt beam="2">0</pdfrwt>
<totfact> 0.72894768E-05</totfact>
</mgrwt>
<clustering>
<clus scale="   30.207">  1  6  2 -1</clus>
<clus scale="  480.792">  4  5 -1 -1</clus>
<clus scale="  300.000">  1  4  2 -1</clus>
</clustering>
</event>
<event>
 6    1  0.1033679E-011  0.3000000E+03  0.7818608E-02  0.1093470E+00
          1   -1    0    0  502    0  0.00000000000E+00  0.00000000000E+00  0.24469279508E+03  0.24469279508E+03  0.00000000000E+00 0.  1.
         13   -1    0    0    0    0 -0.00000000000E+00 -0.00000000000E+00 -0.27500000000E+03  0.27500000000E+03  0.00000000000E+00 0.  1.
    9000005    2    1    2  501    0 -0.41567792034E+02 -0.76283622016E+01 -0.65094490001E+02  0.46495497956E+03  0.45843185660E+03 0.  0.
         13    1    3    3    0    0 -0.12466540282E+03 -0.12511918773E+03  0.13229488580E+03  0.22067671061E+03  0.00000000000E+00 0.  1.
          3    1    3    3  501    0  0.83097610790E+02  0.11749082553E+03 -0.19738937580E+03  0.24427826895E+03  0.00000000000E+00 0.  1.
         21    1    1    2  502  501  0.41567792034E+02  0.76283622016E+01  0.34787285086E+02  0.54737815522E+02  0.00000000000E+00 0. -1.
<scales pt_clust_4="550.00000" pt_clust_5="550.00000" pt_clust_6="42.26196"></scales>
<mgrwt>
<rscale>  0 0.30000000E+03</rscale>
<asrwt>  1 0.42261960E+02</asrwt>
<pdfrwt beam="1">  1        1 0.88979198E+00 0.30000000E+03</pdfrwt>
<pdfrwt beam="2">0</pdfrwt>
<totfact> 0.14091571E-04</totfact>
</mgrwt>
<clustering>
<clus scale="   42.262">  1  6  2 -1</clus>
<clus scale="  458.432">  4  5 -1 -1</clus>
<clus scale="  300.000">  1  4  2 -1</clus>
</clustering>
</event>
<event>
 6    1  0.1033679E-011  0.3000000E+03  0.7818608E-02  0.1093470E+00
          1   -1    0    0  502    0  0.00000000000E+00  0.00000000000E+00  0.22693863403E+03  0.22693863403E+03  0.00000000000E+00 0.  1.
         13   -1    0    0    0    0 -0.00000000000E+00 -0.00000000000E+00 -0.27500000000E+03  0.27500000000E+03  0.00000000000E+00 0.  1.
    9000005    2    1    2  501    0 -0.34818836435E+02  0.18840178449E+01 -0.51960086211E+02  0.46685158637E+03  0.46263879241E+03 0.  0.
         13    1    3    3    0    0  0.21346588164E+02 -0.21428714751E+03  0.50396296529E+02  0.22116610300E+03  0.00000000000E+00 0.  1.
          1    1    3    3  501    0 -0.56165424599E+02  0.21617116535E+03 -0.10235638274E+03  0.24568548337E+03  0.00000000000E+00 0.  1.
         21    1    1    2  502  501  0.34818836435E+02 -0.18840178449E+01  0.38987202400E+01  0.35087047659E+02  0.00000000000E+00 0.  1.
<scales pt_clust_4="550.00000" pt_clust_5="550.00000" pt_clust_6="34.86977"></scales>
<mgrwt>
<rscale>  0 0.30000000E+03</rscale>
<asrwt>  1 0.34869770E+02</asrwt>
<pdfrwt beam="1">  1        1 0.82523140E+00 0.30000000E+03</pdfrwt>
<pdfrwt beam="2">0</pdfrwt>
<totfact> 0.65052839E-04</totfact>
</mgrwt>
<clustering>
<clus scale="   34.870">  1  6  2 -1</clus>
<clus scale="  462.639">  4  5 -1 -1</clus>
<clus scale="  300.000">  1  4  2 -1</clus>
</clustering>
</event>
<event>
 6    1  0.1033679E-011  0.3000000E+03  0.7818608E-02  0.1093470E+00
          1   -1    0    0  502    0  0.00000000000E+00  0.00000000000E+00  0.23536699073E+03  0.23536699073E+03  0.00000000000E+00 0.  1.
         13   -1    0    0    0    0 -0.00000000000E+00 -0.00000000000E+00 -0.27500000000E+03  0.27500000000E+03  0.00000000000E+00 0.  1.
    9000005    2    1    2  501    0  0.20205796866E+02 -0.27060769004E+02 -0.43158130801E+02  0.47641134425E+03  0.47324896749E+03 0.  0.
         13    1    3    3    0    0 -0.45055296300E+02 -0.14799976114E+03 -0.20963636497E+03  0.26054042784E+03  0.00000000000E+00 0.  1.
          1    1    3    3  501    0  0.65261093166E+02  0.12093899213E+03  0.16647823417E+03  0.21587091641E+03  0.00000000000E+00 0.  1.
         21    1    1    2  502  501 -0.20205796866E+02  0.27060769004E+02  0.35251215321E+01  0.33955646481E+02  0.00000000000E+00 0.  1.
<scales pt_clust_4="550.00000" pt_clust_5="550.00000" pt_clust_6="33.77217"></scales>
<mgrwt>
<rscale>  0 0.30000000E+03</rscale>
<asrwt>  1 0.33772170E+02</asrwt>
<pdfrwt beam="1">  1        1 0.85587997E+00 0.30000000E+03</pdfrwt>
<pdfrwt beam="2">0</pdfrwt>
<totfact> 0.35942880E-04</totfact>
</mgrwt>
<clustering>
<clus scale="   33.772">  1  6  2 -1</clus>
<clus scale="  473.249">  4  5 -1 -1</clus>
<clus scale="  300.000">  1  4  2 -1</clus>
</clustering>
</event>
<event>
 6    1  0.1033679E-011  0.3000000E+03  0.7818608E-02  0.1093470E+00
          1   -1    0    0  502    0  0.00000000000E+00  0.00000000000E+00  0.24184252157E+03  0.24184252157E+03  0.00000000000E+00 0.  1.
         13   -1    0    0    0    0 -0.00000000000E+00 -0.00000000000E+00 -0.27500000000E+03  0.27500000000E+03  0.00000000000E+00 0.  1.
    9000005    2    1    2  501    0  0.13278002364E+02  0.29648868509E+02 -0.39711580301E+02  0.48370165552E+03  0.48097289029E+03 0.  0.
         13    1    3    3    0    0 -0.16035383382E+03 -0.15798187919E+03 -0.73692600306E+00  0.22510479611E+03  0.00000000000E+00 0.  1.
          3    1    3    3  501    0  0.17363183619E+03  0.18763074770E+03 -0.38974654298E+02  0.25859685941E+03  0.00000000000E+00 0.  1.
         21    1    1    2  502  501 -0.13278002364E+02 -0.29648868509E+02  0.65541018656E+01  0.33140866041E+02  0.00000000000E+00 0. -1.
<scales pt_clust_4="550.00000" pt_clust_5="550.00000" pt_clust_6="32.48632"></scales>
<mgrwt>
<rscale>  0 0.30000000E+03</rscale>
<asrwt>  1 0.32486316E+02</asrwt>
<pdfrwt beam="1">  1        1 0.87942735E+00 0.30000000E+03</pdfrwt>
<pdfrwt beam="2">0</pdfrwt>
<totfact> 0.20341500E-04</totfact>
</mgrwt>
<clustering>
<clus scale="   32.486">  1  6  2 -1</clus>
<clus scale="  480.973">  4  5 -1 -1</clus>
<clus scale="  300.000">  1  4  2 -1</clus>
</clustering>
</event>
<event>
 6    1  0.1033679E-011  0.3000000E+03  0.7818608E-02  0.1093470E+00
          1   -1    0    0  502    0  0.00000000000E+00  0.00000000000E+00  0.22469065539E+03  0.22469065539E+03  0.00000000000E+00 0.  1.
         13   -1    0    0    0    0 -0.00000000000E+00 -0.00000000000E+00 -0.27500000000E+03  0.27500000000E+03  0.00000000000E+00 0.  1.
    9000005    2    1    2  501    0  0.30712591966E+02 -0.96725925993E+01 -0.37445845842E+02  0.46501657352E+03  0.46238663467E+03 0.  0.
         13    1    3    3    0    0  0.12409259607E+03 -0.25737414293E+02  0.18441823043E+03  0.22376655382E+03  0.00000000000E+00 0.  1.
          1    1    3    3  501    0 -0.93380004106E+02  0.16064821694E+02 -0.22186407627E+03  0.24125001970E+03  0.00000000000E+00 0.  1.
         21    1    1    2  502  501 -0.30712591966E+02  0.96725925993E+01 -0.12863498771E+02  0.34674081869E+02  0.00000000000E+00 0. -1.
<scales pt_clust_4="550.00000" pt_clust_5="550.00000" pt_clust_6="32.19974"></scales>
<mgrwt>
<rscale>  0 0.30000000E+03</rscale>
<asrwt>  1 0.32199742E+02</asrwt>
<pdfrwt beam="1">  1        1 0.81705693E+00 0.30000000E+03</pdfrwt>
<pdfrwt beam="2">0</pdfrwt>
<totfact> 0.77800498E-04</totfact>
</mgrwt>
<clustering>
<clus scale="   32.200">  1  6  2 -1</clus>
<clus scale="  462.387">  4  5 -1 -1</clus>
<clus scale="  300.000">  1  4  2 -1</clus>
</clustering>
</event>
<event>
 6    1  0.1033679E-011  0.3000000E+03  0.7818608E-02  0.1093470E+00
          1   -1    0    0  502    0  0.00000000000E+00  0.00000000000E+00  0.24102947070E+03  0.24102947070E+03  0.00000000000E+00 0.  1.
         13   -1    0    0    0    0 -0.00000000000E+00 -0.00000000000E+00 -0.27500000000E+03  0.27500000000E+03  0.00000000000E+00 0.  1.
    9000005    2    1    2  501    0  0.31393868291E+02 -0.23363234615E+02 -0.69668448228E+02  0.46306007280E+03  0.45611349755E+03 0.  0.
         13    1    3    3    0    0  0.16422187523E+03  0.13044013709E+03 -0.13521182128E+03  0.24953094053E+03  0.00000000000E+00 0.  1.
          1    1    3    3  501    0 -0.13282800694E+03 -0.15380337170E+03  0.65543373054E+02  0.21352913227E+03  0.00000000000E+00 0.  1.
         21    1    1    2  502  501 -0.31393868291E+02  0.23363234615E+02  0.35697918932E+02  0.52969397902E+02  0.00000000000E+00 0.  1.
<scales pt_clust_4="550.00000" pt_clust_5="550.00000" pt_clust_6="39.13331"></scales>
<mgrwt>
<rscale>  0 0.30000000E+03</rscale>
<asrwt>  1 0.39133307E+02</asrwt>
<pdfrwt beam="1">  1        1 0.87647080E+00 0.30000000E+03</pdfrwt>
<pdfrwt beam="2">0</pdfrwt>
<totfact> 0.21244914E-04</totfact>
</mgrwt>
<clustering>
<clus scale="   39.133">  1  6  2 -1</clus>
<clus scale="  456.113">  4  5 -1 -1</clus>
<clus scale="  300.000">  1  4  2 -1</clus>
</clustering>
</event>
<event>
 6    1  0.1033679E-011  0.3000000E+03  0.7818608E-02  0.1093470E+00
          1   -1    0    0  502    0  0.00000000000E+00  0.00000000000E+00  0.23507828168E+03  0.23507828168E+03  0.00000000000E+00 0.  1.
         13   -1    0    0    0    0 -0.00000000000E+00 -0.00000000000E+00 -0.27500000000E+03  0.27500000000E+03  0.00000000000E+00 0.  1.
    9000005    2    1    2  501    0  0.26677842377E+02 -0.17921597742E+02 -0.60853208075E+02  0.47172442656E+03  0.46667754471E+03 0.  0.
         13    1    3    3    0    0  0.13885420542E+03  0.97290355860E+02 -0.19779242496E+03  0.26051438939E+03  0.00000000000E+00 0.  1.
          3    1    3    3  501    0 -0.11217636304E+03 -0.11521195360E+03  0.13693921689E+03  0.21121003717E+03  0.00000000000E+00 0.  1.
         21    1    1    2  502  501 -0.26677842377E+02  0.17921597742E+02  0.20931489760E+02  0.38353855127E+02  0.00000000000E+00 0. -1.
<scales pt_clust_4="550.00000" pt_clust_5="550.00000" pt_clust_6="32.13862"></scales>
<mgrwt>
<rscale>  0 0.30000000E+03</rscale>
<asrwt>  1 0.32138621E+02</asrwt>
<pdfrwt beam="1">  1        1 0.85483012E+00 0.30000000E+03</pdfrwt>
<pdfrwt beam="2">0</pdfrwt>
<totfact> 0.37167814E-04</totfact>
</mgrwt>
<clustering>
<clus scale="   32.139">  1  6  2 -1</clus>
<clus scale="  466.678">  4  5 -1 -1</clus>
<clus scale="  300.000">  1  4  2 -1</clus>
</clustering>
</event>
<event>
 6    1  0.1033679E-011  0.3000000E+03  0.7818608E-02  0.1093470E+00
          1   -1    0    0  502    0  0.00000000000E+00  0.00000000000E+00  0.26415793063E+03  0.26415793063E+03  0.00000000000E+00 0.  1.
         13   -1    0    0    0    0 -0.00000000000E+00 -0.00000000000E+00 -0.27500000000E+03  0.27500000000E+03  0.00000000000E+00 0.  1.
    9000005    2    1    2  501    0  0.17882529816E+02  0.56981580862E+02 -0.52555614949E+02  0.46631079400E+03  0.45947467668E+03 0.  0.
         13    1    3    3    0    0  0.21686261425E+03  0.55109722022E+02 -0.12286102683E+03  0.25526712839E+03  0.00000000000E+00 0.  1.
          1    1    3    3  501    0 -0.19898008443E+03  0.18718588400E+01  0.70305411883E+02  0.21104366562E+03  0.00000000000E+00 0.  1.
         21    1    1    2  502  501 -0.17882529816E+02 -0.56981580862E+02  0.41713545580E+02  0.72847136629E+02  0.00000000000E+00 0. -1.
<scales pt_clust_4="550.00000" pt_clust_5="550.00000" pt_clust_6="59.72173"></scales>
<mgrwt>
<rscale>  0 0.30000000E+03</rscale>
<asrwt>  1 0.59721733E+02</asrwt>
<pdfrwt beam="1">  1        1 0.96057429E+00 0.30000000E+03</pdfrwt>
<pdfrwt beam="2">0</pdfrwt>
<totfact> 0.67016968E-06</totfact>
</mgrwt>
<clustering>
<clus scale="   59.722">  1  6  2 -1</clus>
<clus scale="  459.475">  4  5 -1 -1</clus>
<clus scale="  300.000">  1  4  2 -1</clus>
</clustering>
</event>
<event>
 6    1  0.1033679E-011  0.3000000E+03  0.7818608E-02  0.1093470E+00
          1   -1    0    0  502    0  0.00000000000E+00  0.00000000000E+00  0.24975350503E+03  0.24975350503E+03  0.00000000000E+00 0.  1.
         13   -1    0    0    0    0 -0.00000000000E+00 -0.00000000000E+00 -0.27500000000E+03  0.27500000000E+03  0.00000000000E+00 0.  1.
    9000005    2    1    2  501    0  0.27803124473E+02  0.31669640722E+02 -0.37556723302E+02  0.48084995625E+03  0.47752507063E+03 0.  0.
         13    1    3    3    0    0 -0.15076054903E+02  0.21939801443E+03  0.10260918738E+03  0.24267554780E+03  0.00000000000E+00 0.  1.
          1    1    3    3  501    0  0.42879179376E+02 -0.18772837371E+03 -0.14016591068E+03  0.23817440844E+03  0.00000000000E+00 0.  1.
         21    1    1    2  502  501 -0.27803124473E+02 -0.31669640722E+02  0.12310228327E+02  0.43903548779E+02  0.00000000000E+00 0.  1.
<scales pt_clust_4="550.00000" pt_clust_5="550.00000" pt_clust_6="42.14238"></scales>
<mgrwt>
<rscale>  0 0.30000000E+03</rscale>
<asrwt>  1 0.42142376E+02</asrwt>
<pdfrwt beam="1">  1        1 0.90819456E+00 0.30000000E+03</pdfrwt>
<pdfrwt beam="2">0</pdfrwt>
<totfact> 0.76604883E-05</totfact>
</mgrwt>
<clustering>
<clus scale="   42.142">  1  6  2 -1</clus>
<clus scale="  477.525">  4  5 -1 -1</clus>
<clus scale="  300.000">  1  4  2 -1</clus>
</clustering>
</event>
<event>
 6    1  0.1033679E-011  0.3000000E+03  0.7818608E-02  0.1093470E+00
          1   -1    0    0  502    0  0.00000000000E+00  0.00000000000E+00  0.21954606075E+03  0.21954606075E+03  0.00000000000E+00 0.  1.
         13   -1    0    0    0    0 -0.00000000000E+00 -0.00000000000E+00 -0.27500000000E+03  0.27500000000E+03  0.00000000000E+00 0.  1.
    9000005    2    1    2  501    0 -0.30480959471E+02 -0.13479320783E+02 -0.50522078992E+02  0.46085475290E+03  0.45686304494E+03 0.  0.
         13    1    3    3    0    0 -0.13007612583E+03  0.68154609900E+02 -0.20976454471E+03  0.25605861356E+03  0.00000000000E+00 0.  1.
          1    1    3    3  501    0  0.99595166355E+02 -0.81633930682E+02  0.15924246572E+03  0.20479613934E+03  0.00000000000E+00 0.  1.
         21    1    1    2  502  501  0.30480959471E+02  0.13479320783E+02 -0.49318602557E+01  0.33691307849E+02  0.00000000000E+00 0.  1.
<scales pt_clust_4="550.00000" pt_clust_5="550.00000" pt_clust_6="33.32840"></scales>
<mgrwt>
<rscale>  0 0.30000000E+03</rscale>
<asrwt>  1 0.33328398E+02</asrwt>
<pdfrwt beam="1">  1        1 0.79834931E+00 0.30000000E+03</pdfrwt>
<pdfrwt beam="2">0</pdfrwt>
<totfact> 0.10757988E-03</totfact>
</mgrwt>
<clustering>
<clus scale="   33.328">  1  6  2 -1</clus>
<clus scale="  456.863">  4  5 -1 -1</clus>
<clus scale="  300.000">  1  4  2 -1</clus>
</clustering>
</event>
<event>
 6    1  0.1033679E-011  0.3000000E+03  0.7818608E-02  0.1093470E+00
          1   -1    0    0  502    0  0.00000000000E+00  0.00000000000E+00  0.22102097425E+03  0.22102097425E+03  0.00000000000E+00 0.  1.
         13   -1    0    0    0    0 -0.00000000000E+00 -0.00000000000E+00 -0.27500000000E+03  0.27500000000E+03  0.00000000000E+00 0.  1.
    9000005    2    1    2  501    0 -0.32171841235E+02 -0.43071786738E+01 -0.52259148447E+02  0.46351655710E+03  0.45941593459E+03 0.  0.
         13    1    3    3    0    0 -0.24267260000E+03  0.37435386378E+02 -0.37738143056E+02  0.24842617894E+03  0.00000000000E+00 0.  1.
          3    1    3    3  501    0  0.21050075876E+03 -0.41742565052E+02 -0.14521005391E+02  0.21509037815E+03  0.00000000000E+00 0.  1.
         21    1    1    2  502  501  0.32171841235E+02  0.43071786738E+01 -0.17198773010E+01  0.32504417154E+02  0.00000000000E+00 0. -1.
<scales pt_clust_4="550.00000" pt_clust_5="550.00000" pt_clust_6="32.45888"></scales>
<mgrwt>
<rscale>  0 0.30000000E+03</rscale>
<asrwt>  1 0.32458884E+02</asrwt>
<pdfrwt beam="1">  1        1 0.80371263E+00 0.30000000E+03</pdfrwt>
<pdfrwt beam="2">0</pdfrwt>
<totfact> 0.98826357E-04</totfact>
</mgrwt>
<clustering>
<clus scale="   32.459">  1  6  2 -1</clus>
<clus scale="  459.416">  4  5 -1 -1</clus>
<clus scale="  300.000">  1  4  2 -1</clus>
</clustering>
</event>
<event>
 6    1  0.1033679E-011  0.3000000E+03  0.7818608E-02  0.1093470E+00
          1   -1    0    0  502    0  0.00000000000E+00  0.00000000000E+00  0.23417046010E+03  0.23417046010E+03  0.00000000000E+00 0.  1.
         13   -1    0    0    0    0 -0.00000000000E+00 -0.00000000000E+00 -0.27500000000E+03  0.27500000000E+03  0.00000000000E+00 0.  1.
    9000005    2    1    2  501    0 -0.42313229839E+02 -0.19027154240E+02 -0.47022064250E+02  0.46236459107E+03  0.45762156694E+03 0.  0.
         13    1    3    3    0    0 -0.24546081537E+03  0.37676912518E+02 -0.12544863526E+02  0.24865223751E+03  0.00000000000E+00 0.  1.
          3    1    3    3  501    0  0.20314758553E+03 -0.56704066758E+02 -0.34477200723E+02  0.21371235356E+03  0.00000000000E+00 0.  1.
         21    1    1    2  502  501  0.42313229839E+02  0.19027154240E+02  0.61925243463E+01  0.46805869030E+02  0.00000000000E+00 0. -1.
<scales pt_clust_4="550.00000" pt_clust_5="550.00000" pt_clust_6="46.39442"></scales>
<mgrwt>
<rscale>  0 0.30000000E+03</rscale>
<asrwt>  1 0.46394418E+02</asrwt>
<pdfrwt beam="1">  1        1 0.85152895E+00 0.30000000E+03</pdfrwt>
<pdfrwt beam="2">0</pdfrwt>
<totfact> 0.37394228E-04</totfact>
</mgrwt>
<clustering>
<clus scale="   46.394">  1  6  2 -1</clus>
<clus scale="  457.622">  4  5 -1 -1</clus>
<clus scale="  300.000">  1  4  2 -1</clus>
</clustering>
</event>
<event>
 6    1  0.1033679E-011  0.3000000E+03  0.7818608E-02  0.1093470E+00
          1   -1    0    0  502    0  0.00000000000E+00  0.00000000000E+00  0.23059023311E+03  0.23059023311E+03  0.00000000000E+00 0.  1.
         13   -1    0    0    0    0 -0.00000000000E+00 -0.00000000000E+00 -0.27500000000E+03  0.27500000000E+03  0.00000000000E+00 0.  1.
    9000005    2    1    2  501    0  0.31346162378E+02  0.10468989823E+02 -0.17609758409E+02  0.46304117791E+03  0.46152448169E+03 0.  0.
         13    1    3    3    0    0 -0.11956974950E+03 -0.15567523333E+03 -0.10447339277E+03  0.22236544935E+03  0.00000000000E+00 0.  1.
          1    1    3    3  501    0  0.15091591188E+03  0.16614422315E+03  0.86863634359E+02  0.24067572856E+03  0.00000000000E+00 0.  1.
         21    1    1    2  502  501 -0.31346162378E+02 -0.10468989823E+02 -0.26800008484E+02  0.42549055200E+02  0.00000000000E+00 0.  1.
<scales pt_clust_4="550.00000" pt_clust_5="550.00000" pt_clust_6="33.04819"></scales>
<mgrwt>
<rscale>  0 0.30000000E+03</rscale>
<asrwt>  1 0.33048188E+02</asrwt>
<pdfrwt beam="1">  1        1 0.83850994E+00 0.30000000E+03</pdfrwt>
<pdfrwt beam="2">0</pdfrwt>
<totfact> 0.51557197E-04</totfact>
</mgrwt>
<clustering>
<clus scale="   33.048">  1  6  2 -1</clus>
<clus scale="  461.524">  4  5 -1 -1</clus>
<clus scale="  300.000">  1  4  2 -1</clus>
</clustering>
</event>
<event>
 6    1  0.1033679E-011  0.3000000E+03  0.7818608E-02  0.1093470E+00
          1   -1    0    0  502    0  0.00000000000E+00  0.00000000000E+00  0.24852160518E+03  0.24852160518E+03  0.00000000000E+00 0.  1.
         13   -1    0    0    0    0 -0.00000000000E+00 -0.00000000000E+00 -0.27500000000E+03  0.27500000000E+03  0.00000000000E+00 0.  1.
    9000005    2    1    2  501    0 -0.27996200128E+02 -0.14456871750E+02 -0.39447223109E+02  0.48944846518E+03  0.48683768167E+03 0.  0.
         13    1    3    3    0    0 -0.88692732226E+02  0.15734352856E+03  0.14392029850E+03  0.23094683165E+03  0.00000000000E+00 0.  1.
          3    1    3    3  501    0  0.60696532098E+02 -0.17180040031E+03 -0.18336752161E+03  0.25850163353E+03  0.00000000000E+00 0.  1.
         21    1    1    2  502  501  0.27996200128E+02  0.14456871750E+02  0.12968828291E+02  0.34073140003E+02  0.00000000000E+00 0.  1.
<scales pt_clust_4="550.00000" pt_clust_5="550.00000" pt_clust_6="31.50854"></scales>
<mgrwt>
<rscale>  0 0.30000000E+03</rscale>
<asrwt>  1 0.31508544E+02</asrwt>
<pdfrwt beam="1">  1        1 0.90371493E+00 0.30000000E+03</pdfrwt>
<pdfrwt beam="2">0</pdfrwt>
<totfact> 0.99477097E-05</totfact>
</mgrwt>
<clustering>
<clus scale="   31.509">  1  6  2 -1</clus>
<clus scale="  486.838">  4  5 -1 -1</clus>
<clus scale="  300.000">  1  4  2 -1</clus>
</clustering>
</event>
<event>
 6    1  0.1033679E-011  0.3000000E+03  0.7818608E-02  0.1093470E+00
          1   -1    0    0  502    0  0.00000000000E+00  0.00000000000E+00  0.23330455486E+03  0.23330455486E+03  0.00000000000E+00 0.  1.
         13   -1    0    0    0    0 -0.00000000000E+00 -0.00000000000E+00 -0.27500000000E+03  0.27500000000E+03  0.00000000000E+00 0.  1.
    9000005    2    1    2  501    0 -0.20800085465E+02 -0.23280386145E+02 -0.35282470113E+02  0.47643378168E+03  0.47409880373E+03 0.  0.
         13    1    3    3    0    0 -0.91020097992E+02 -0.75418291325E+02  0.19615717567E+03  0.22902011805E+03  0.00000000000E+00 0.  1.
          3    1    3    3  501    0  0.70220012527E+02  0.52137905180E+02 -0.23143964578E+03  0.24741366364E+03  0.00000000000E+00 0.  1.
         21    1    1    2  502  501  0.20800085465E+02  0.23280386145E+02 -0.64129750240E+01  0.31870773180E+02  0.00000000000E+00 0.  1.
<scales pt_clust_4="550.00000" pt_clust_5="550.00000" pt_clust_6="31.21892"></scales>
<mgrwt>
<rscale>  0 0.30000000E+03</rscale>
<asrwt>  1 0.31218919E+02</asrwt>
<pdfrwt beam="1">  1        1 0.84838020E+00 0.30000000E+03</pdfrwt>
<pdfrwt beam="2">0</pdfrwt>
<totfact> 0.43054410E-04</totfact>
</mgrwt>
<clustering>
<clus scale="   31.219">  1  6  2 -1</clus>
<clus scale="  474.099">  4  5 -1 -1</clus>
<clus scale="  300.000">  1  4  2 -1</clus>
</clustering>
</event>
<event>
 6    1  0.1033679E-011  0.3000000E+03  0.7818608E-02  0.1093470E+00
          1   -1    0    0  502    0  0.00000000000E+00  0.00000000000E+00  0.25980521459E+03  0.25980521459E+03  0.00000000000E+00 0.  1.
         13   -1    0    0    0    0 -0.00000000000E+00 -0.00000000000E+00 -0.27500000000E+03  0.27500000000E+03  0.00000000000E+00 0.  1.
    9000005    2    1    2  501    0  0.33025093949E+02  0.43734522521E+01 -0.34663154412E+02  0.49622022649E+03  0.49388581169E+03 0.  0.
         13    1    3    3    0    0 -0.11880248663E+03  0.10569264478E+02 -0.22380318870E+03  0.25360127652E+03  0.00000000000E+00 0.  1.
          3    1    3    3  501    0  0.15182758058E+03 -0.61958122256E+01  0.18914003429E+03  0.24261894997E+03  0.00000000000E+00 0.  1.
         21    1    1    2  502  501 -0.33025093949E+02 -0.43734522521E+01  0.19468369000E+02  0.38584988097E+02  0.00000000000E+00 0. -1.
<scales pt_clust_4="550.00000" pt_clust_5="550.00000" pt_clust_6="33.31342"></scales>
<mgrwt>
<rscale>  0 0.30000000E+03</rscale>
<asrwt>  1 0.33313419E+02</asrwt>
<pdfrwt beam="1">  1        1 0.94474623E+00 0.30000000E+03</pdfrwt>
<pdfrwt beam="2">0</pdfrwt>
<totfact> 0.15870248E-05</totfact>
</mgrwt>
<clustering>
<clus scale="   33.313">  1  6  2 -1</clus>
<clus scale="  493.886">  4  5 -1 -1</clus>
<clus scale="  300.000">  1  4  2 -1</clus>
</clustering>
</event>
<event>
 6    1  0.1033679E-011  0.3000000E+03  0.7818608E-02  0.1093470E+00
          1   -1    0    0  502    0  0.00000000000E+00  0.00000000000E+00  0.21814815599E+03  0.21814815599E+03  0.00000000000E+00 0.  1.
         13   -1    0    0    0    0 -0.00000000000E+00 -0.00000000000E+00 -0.27500000000E+03  0.27500000000E+03  0.00000000000E+00 0.  1.
    9000005    2    1    2  501    0  0.29937184947E+02  0.12304766220E+02 -0.52719756166E+02  0.46051816267E+03  0.45634412798E+03 0.  0.
         13    1    3    3    0    0  0.18633720241E+03 -0.14466619945E+03 -0.27713362245E+02  0.23752450971E+03  0.00000000000E+00 0.  1.
          3    1    3    3  501    0 -0.15640001746E+03  0.15697096567E+03 -0.25006393920E+02  0.22299365296E+03  0.00000000000E+00 0.  1.
         21    1    1    2  502  501 -0.29937184947E+02 -0.12304766220E+02 -0.41320878441E+01  0.32629993323E+02  0.00000000000E+00 0.  1.
<scales pt_clust_4="550.00000" pt_clust_5="550.00000" pt_clust_6="32.36732"></scales>
<mgrwt>
<rscale>  0 0.30000000E+03</rscale>
<asrwt>  1 0.32367319E+02</asrwt>
<pdfrwt beam="1">  1        1 0.79326602E+00 0.30000000E+03</pdfrwt>
<pdfrwt beam="2">0</pdfrwt>
<totfact> 0.11799553E-03</totfact>
</mgrwt>
<clustering>
<clus scale="   32.367">  1  6  2 -1</clus>
<clus scale="  456.344">  4  5 -1 -1</clus>
<clus scale="  300.000">  1  4  2 -1</clus>
</clustering>
</event>
<event>
 6    1  0.1033679E-011  0.3000000E+03  0.7818608E-02  0.1093470E+00
          1   -1    0    0  502    0  0.00000000000E+00  0.00000000000E+00  0.23339991255E+03  0.23339991255E+03  0.00000000000E+00 0.  1.
         13   -1    0    0    0    0 -0.00000000000E+00 -0.00000000000E+00 -0.27500000000E+03  0.27500000000E+03  0.00000000000E+00 0.  1.
    9000005    2    1    2  501    0  0.17009919438E+02  0.26717768948E+02 -0.72855257028E+02  0.46390202314E+03  0.45704925561E+03 0.  0.
         13    1    3    3    0    0 -0.20294792618E+02 -0.21376861241E+03 -0.30630361323E+02  0.21690347460E+03  0.00000000000E+00 0.  1.
          1    1    3    3  501    0  0.37304712056E+02  0.24048638136E+03 -0.42224895705E+02  0.24699854853E+03  0.00000000000E+00 0.  1.
         21    1    1    2  502  501 -0.17009919438E+02 -0.26717768948E+02  0.31255169575E+02  0.44497889410E+02  0.00000000000E+00 0.  1.
<scales pt_clust_4="550.00000" pt_clust_5="550.00000" pt_clust_6="31.67296"></scales>
<mgrwt>
<rscale>  0 0.30000000E+03</rscale>
<asrwt>  1 0.31672962E+02</asrwt>
<pdfrwt beam="1">  1        1 0.84872695E+00 0.30000000E+03</pdfrwt>
<pdfrwt beam="2">0</pdfrwt>
<totfact> 0.42621057E-04</totfact>
</mgrwt>
<clustering>
<clus scale="   31.673">  1  6  2 -1</clus>
<clus scale="  457.049">  4  5 -1 -1</clus>
<clus scale="  300.000">  1  4  2 -1</clus>
</clustering>
</event>
<event>
 6    1  0.1033679E-011  0.3000000E+03  0.7818608E-02  0.1093470E+00
          1   -1    0    0  502    0  0.00000000000E+00  0.00000000000E+00  0.24913762045E+03  0.24913762045E+03  0.00000000000E+00 0.  1.
         13   -1    0    0    0    0 -0.00000000000E+00 -0.00000000000E+00 -0.27500000000E+03  0.27500000000E+03  0.00000000000E+00 0.  1.
    9000005    2    1    2  501    0 -0.36020889945E+02  0.10124222364E+02 -0.30606915726E+02  0.48642137708E+03  0.48401339692E+03 0.  0.
         13    1    3    3    0    0 -0.15918160169E+03  0.14422533614E+03  0.12359507553E+03  0.24782145306E+03  0.00000000000E+00 0.  1.
          3    1    3    3  501    0  0.12316071174E+03 -0.13410111378E+03 -0.15420199126E+03  0.23859992402E+03  0.00000000000E+00 0.  1.
         21    1    1    2  502  501  0.36020889945E+02 -0.10124222364E+02  0.47445361791E+01  0.37716243376E+02  0.00000000000E+00 0.  1.
<scales pt_clust_4="550.00000" pt_clust_5="550.00000" pt_clust_6="37.41663"></scales>
<mgrwt>
<rscale>  0 0.30000000E+03</rscale>
<asrwt>  1 0.37416633E+02</asrwt>
<pdfrwt beam="1">  1        1 0.90595498E+00 0.30000000E+03</pdfrwt>
<pdfrwt beam="2">0</pdfrwt>
<totfact> 0.87481862E-05</totfact>
</mgrwt>
<clustering>
<clus scale="   37.417">  1  6  2 -1</clus>
<clus scale="  484.013">  4  5 -1 -1</clus>
<clus scale="  300.000">  1  4  2 -1</clus>
</clustering>
</event>
<event>
 6    1  0.1033679E-011  0.3000000E+03  0.7818608E-02  0.1093470E+00
          1   -1    0    0  502    0  0.00000000000E+00  0.00000000000E+00  0.23180813616E+03  0.23180813616E+03  0.00000000000E+00 0.  1.
         13   -1    0    0    0    0 -0.00000000000E+00 -0.00000000000E+00 -0.27500000000E+03  0.27500000000E+03  0.00000000000E+00 0.  1.
    9000005    2    1    2  501    0  0.23714100380E+02  0.25121282774E+02 -0.59618888553E+02  0.46855523371E+03  0.46346106391E+03 0.  0.
         13    1    3    3    0    0  0.10651124704E+03  0.21701412149E+03  0.25101644765E+02  0.24304293292E+03  0.00000000000E+00 0.  1.
          3    1    3    3  501    0 -0.82797146657E+02 -0.19189283871E+03 -0.84720533317E+02  0.22551230079E+03  0.00000000000E+00 0.  1.
         21    1    1    2  502  501 -0.23714100380E+02 -0.25121282774E+02  0.16427024716E+02  0.38252902452E+02  0.00000000000E+00 0.  1.
<scales pt_clust_4="550.00000" pt_clust_5="550.00000" pt_clust_6="34.54616"></scales>
<mgrwt>
<rscale>  0 0.30000000E+03</rscale>
<asrwt>  1 0.34546163E+02</asrwt>
<pdfrwt beam="1">  1        1 0.84293868E+00 0.30000000E+03</pdfrwt>
<pdfrwt beam="2">0</pdfrwt>
<totfact> 0.47175625E-04</totfact>
</mgrwt>
<clustering>
<clus scale="   34.546">  1  6  2 -1</clus>
<clus scale="  463.461">  4  5 -1 -1</clus>
<clus scale="  300.000">  1  4  2 -1</clus>
</clustering>
</event>
<event>
 6    1  0.1033679E-011  0.3000000E+03  0.7818608E-02  0.1093470E+00
          1   -1    0    0  502    0  0.00000000000E+00  0.00000000000E+00  0.23901058765E+03  0.23901058765E+03  0.00000000000E+00 0.  1.
         13   -1    0    0    0    0 -0.00000000000E+00 -0.00000000000E+00 -0.27500000000E+03  0.27500000000E+03  0.00000000000E+00 0.  1.
    9000005    2    1    2  501    0  0.12294910967E+02 -0.31178906755E+02 -0.56591646841E+02  0.47466924644E+03  0.47009040616E+03 0.  0.
         13    1    3    3    0    0  0.47350074052E+02 -0.22314892286E+03 -0.13419384349E+03  0.26466102644E+03  0.00000000000E+00 0.  1.
          3    1    3    3  501    0 -0.35055163085E+02  0.19197001611E+03  0.77602196648E+02  0.21000822000E+03  0.00000000000E+00 0.  1.
         21    1    1    2  502  501 -0.12294910967E+02  0.31178906755E+02  0.20602234495E+02  0.39341341211E+02  0.00000000000E+00 0. -1.
<scales pt_clust_4="550.00000" pt_clust_5="550.00000" pt_clust_6="33.51550"></scales>
<mgrwt>
<rscale>  0 0.30000000E+03</rscale>
<asrwt>  1 0.33515505E+02</asrwt>
<pdfrwt beam="1">  1        1 0.86912941E+00 0.30000000E+03</pdfrwt>
<pdfrwt beam="2">0</pdfrwt>
<totfact> 0.26062159E-04</totfact>
</mgrwt>
<clustering>
<clus scale="   33.516">  1  6  2 -1</clus>
<clus scale="  470.090">  4  5 -1 -1</clus>
<clus scale="  300.000">  1  4  2 -1</clus>
</clustering>
</event>
<event>
 6    1  0.1033679E-011  0.3000000E+03  0.7818608E-02  0.1093470E+00
          1   -1    0    0  502    0  0.00000000000E+00  0.00000000000E+00  0.22543783205E+03  0.22543783205E+03  0.00000000000E+00 0.  1.
         13   -1    0    0    0    0 -0.00000000000E+00 -0.00000000000E+00 -0.27500000000E+03  0.27500000000E+03  0.00000000000E+00 0.  1.
    9000005    2    1    2  501    0  0.14312198132E+02  0.28540868423E+02 -0.50352983254E+02  0.46849967972E+03  0.46469033430E+03 0.  0.
         13    1    3    3    0    0 -0.80908789562E+01  0.24593695765E+03 -0.43213902011E+02  0.24983572760E+03  0.00000000000E+00 0.  1.
          1    1    3    3  501    0  0.22403077089E+02 -0.21739608923E+03 -0.71390812425E+01  0.21866395212E+03  0.00000000000E+00 0.  1.
         21    1    1    2  502  501 -0.14312198132E+02 -0.28540868423E+02  0.79081530756E+00  0.31938152335E+02  0.00000000000E+00 0.  1.
<scales pt_clust_4="550.00000" pt_clust_5="550.00000" pt_clust_6="31.92836"></scales>
<mgrwt>
<rscale>  0 0.30000000E+03</rscale>
<asrwt>  1 0.31928360E+02</asrwt>
<pdfrwt beam="1">  1        1 0.81977393E+00 0.30000000E+03</pdfrwt>
<pdfrwt beam="2">0</pdfrwt>
<totfact> 0.73925070E-04</totfact>
</mgrwt>
<clustering>
<clus scale="   31.928">  1  6  2 -1</clus>
<clus scale="  464.690">  4  5 -1 -1</clus>
<clus scale="  300.000">  1  4  2 -1</clus>
</clustering>
</event>
<event>
 6    1  0.1033679E-011  0.3000000E+03  0.7818608E-02  0.1093470E+00
          1   -1    0    0  502    0  0.00000000000E+00  0.00000000000E+00  0.22888343766E+03  0.22888343766E+03  0.00000000000E+00 0.  1.
         13   -1    0    0    0    0 -0.00000000000E+00 -0.00000000000E+00 -0.27500000000E+03  0.27500000000E+03  0.00000000000E+00 0.  1.
    9000005    2    1    2  501    0  0.20126471423E+02  0.24822873067E+02 -0.55826328674E+02  0.47048389512E+03  0.46606573219E+03 0.  0.
         13    1    3    3    0    0  0.17229422265E+02 -0.20465368931E+03 -0.11239364537E+03  0.23412030467E+03  0.00000000000E+00 0.  1.
          3    1    3    3  501    0  0.28970491574E+01  0.22947656238E+03  0.56567316693E+02  0.23636359045E+03  0.00000000000E+00 0.  1.
         21    1    1    2  502  501 -0.20126471423E+02 -0.24822873067E+02  0.97097663310E+01  0.33399542533E+02  0.00000000000E+00 0.  1.
<scales pt_clust_4="550.00000" pt_clust_5="550.00000" pt_clust_6="31.95700"></scales>
<mgrwt>
<rscale>  0 0.30000000E+03</rscale>
<asrwt>  1 0.31957000E+02</asrwt>
<pdfrwt beam="1">  1        1 0.83230341E+00 0.30000000E+03</pdfrwt>
<pdfrwt beam="2">0</pdfrwt>
<totfact> 0.57643167E-04</totfact>
</mgrwt>
<clustering>
<clus scale="   31.957">  1  6  2 -1</clus>
<clus scale="  466.066">  4  5 -1 -1</clus>
<clus scale="  300.000">  1  4  2 -1</clus>
</clustering>
</event>
<event>
 6    1  0.1033679E-011  0.3000000E+03  0.7818608E-02  0.1093470E+00
          1   -1    0    0  502    0  0.00000000000E+00  0.00000000000E+00  0.24131967360E+03  0.24131967360E+03  0.00000000000E+00 0.  1.
         13   -1    0    0    0    0 -0.00000000000E+00 -0.00000000000E+00 -0.27500000000E+03  0.27500000000E+03  0.00000000000E+00 0.  1.
    9000005    2    1    2  501    0 -0.19862113643E+02 -0.30098931554E+02 -0.44457492273E+02  0.47868197251E+03  0.47524679162E+03 0.  0.
         13    1    3    3    0    0 -0.20303641892E+03 -0.96344846518E+02 -0.13681987667E+03  0.26310795410E+03  0.00000000000E+00 0.  1.
          3    1    3    3  501    0  0.18317430527E+03  0.66245914964E+02  0.92362384401E+02  0.21557401841E+03  0.00000000000E+00 0.  1.
         21    1    1    2  502  501  0.19862113643E+02  0.30098931554E+02  0.10777165873E+02  0.37637701089E+02  0.00000000000E+00 0.  1.
<scales pt_clust_4="550.00000" pt_clust_5="550.00000" pt_clust_6="36.06174"></scales>
<mgrwt>
<rscale>  0 0.30000000E+03</rscale>
<asrwt>  1 0.36061742E+02</asrwt>
<pdfrwt beam="1">  1        1 0.87752609E+00 0.30000000E+03</pdfrwt>
<pdfrwt beam="2">0</pdfrwt>
<totfact> 0.20993412E-04</totfact>
</mgrwt>
<clustering>
<clus scale="   36.062">  1  6  2 -1</clus>
<clus scale="  475.247">  4  5 -1 -1</clus>
<clus scale="  300.000">  1  4  2 -1</clus>
</clustering>
</event>
<event>
 6    1  0.1033679E-011  0.3000000E+03  0.7818608E-02  0.1093470E+00
          1   -1    0    0  502    0  0.00000000000E+00  0.00000000000E+00  0.23162250318E+03  0.23162250318E+03  0.00000000000E+00 0.  1.
         13   -1    0    0    0    0 -0.00000000000E+00 -0.00000000000E+00 -0.27500000000E+03  0.27500000000E+03  0.00000000000E+00 0.  1.
    9000005    2    1    2  501    0  0.30029520229E+02 -0.88939662425E+01 -0.55136842513E+02  0.47316870023E+03  0.46890049345E+03 0.  0.
         13    1    3    3    0    0  0.19323263892E+02  0.22679656855E+03  0.11798810814E+02  0.22792385564E+03  0.00000000000E+00 0.  1.
          1    1    3    3  501    0  0.10706256338E+02 -0.23569053479E+03 -0.66935653327E+02  0.24524484459E+03  0.00000000000E+00 0.  1.
         21    1    1    2  502  501 -0.30029520229E+02  0.88939662425E+01  0.11759345696E+02  0.33453802951E+02  0.00000000000E+00 0. -1.
<scales pt_clust_4="550.00000" pt_clust_5="550.00000" pt_clust_6="31.31892"></scales>
<mgrwt>
<rscale>  0 0.30000000E+03</rscale>
<asrwt>  1 0.31318920E+02</asrwt>
<pdfrwt beam="1">  1        1 0.84226365E+00 0.30000000E+03</pdfrwt>
<pdfrwt beam="2">0</pdfrwt>
<totfact> 0.48687950E-04</totfact>
</mgrwt>
<clustering>
<clus scale="   31.319">  1  6  2 -1</clus>
<clus scale="  468.900">  4  5 -1 -1</clus>
<clus scale="  300.000">  1  4  2 -1</clus>
</clustering>
</event>
<event>
 6    1  0.1033679E-011  0.3000000E+03  0.7818608E-02  0.1093470E+00
          1   -1    0    0  502    0  0.00000000000E+00  0.00000000000E+00  0.22666111338E+03  0.22666111338E+03  0.00000000000E+00 0.  1.
         13   -1    0    0    0    0 -0.00000000000E+00 -0.00000000000E+00 -0.27500000000E+03  0.27500000000E+03  0.00000000000E+00 0.  1.
    9000005    2    1    2  501    0 -0.62301595159E+01  0.36424908943E+02 -0.49065788007E+02  0.46470008979E+03  0.46062254940E+03 0.  0.
         13    1    3    3    0    0 -0.60417034050E+02  0.22544858335E+03  0.58419367923E+02  0.24060362484E+03  0.00000000000E+00 0.  1.
          1    1    3    3  501    0  0.54186874534E+02 -0.18902367441E+03 -0.10748515593E+03  0.22409646495E+03  0.00000000000E+00 0.  1.
         21    1    1    2  502  501  0.62301595159E+01 -0.36424908943E+02  0.72690138490E+00  0.36961023589E+02  0.00000000000E+00 0.  1.
<scales pt_clust_4="550.00000" pt_clust_5="550.00000" pt_clust_6="36.95388"></scales>
<mgrwt>
<rscale>  0 0.30000000E+03</rscale>
<asrwt>  1 0.36953875E+02</asrwt>
<pdfrwt beam="1">  1        1 0.82422223E+00 0.30000000E+03</pdfrwt>
<pdfrwt beam="2">0</pdfrwt>
<totfact> 0.65702911E-04</totfact>
</mgrwt>
<clustering>
<clus scale="   36.954">  1  6  2 -1</clus>
<clus scale="  460.623">  4  5 -1 -1</clus>
<clus scale="  300.000">  1  4  2 -1</clus>
</clustering>
</event>
<event>
 6    1  0.1033679E-011  0.3000000E+03  0.7818608E-02  0.1093470E+00
          1   -1    0    0  502    0  0.00000000000E+00  0.00000000000E+00  0.24741626462E+03  0.24741626462E+03  0.00000000000E+00 0.  1.
         13   -1    0    0    0    0 -0.00000000000E+00 -0.00000000000E+00 -0.27500000000E+03  0.27500000000E+03  0.00000000000E+00 0.  1.
    9000005    2    1    2  501    0 -0.17718700584E+02  0.29735366693E+02 -0.29968243051E+02  0.48772000748E+03  0.48556623206E+03 0.  0.
         13    1    3    3    0    0 -0.12449132417E+03 -0.53827765805E+01  0.19777149278E+03  0.23375334743E+03  0.00000000000E+00 0.  1.
          1    1    3    3  501    0  0.10677262359E+03  0.35118143274E+02 -0.22773973583E+03  0.25396666004E+03  0.00000000000E+00 0.  1.
         21    1    1    2  502  501  0.17718700584E+02 -0.29735366693E+02  0.23845076681E+01  0.34696257141E+02  0.00000000000E+00 0.  1.
<scales pt_clust_4="550.00000" pt_clust_5="550.00000" pt_clust_6="34.61422"></scales>
<mgrwt>
<rscale>  0 0.30000000E+03</rscale>
<asrwt>  1 0.34614222E+02</asrwt>
<pdfrwt beam="1">  1        1 0.89969551E+00 0.30000000E+03</pdfrwt>
<pdfrwt beam="2">0</pdfrwt>
<totfact> 0.11164160E-04</totfact>
</mgrwt>
<clustering>
<clus scale="   34.614">  1  6  2 -1</clus>
<clus scale="  485.566">  4  5 -1 -1</clus>
<clus scale="  300.000">  1  4  2 -1</clus>
</clustering>
</event>
<event>
 6    1  0.1033679E-011  0.3000000E+03  0.7818608E-02  0.1093470E+00
          1   -1    0    0  502    0  0.00000000000E+00  0.00000000000E+00  0.23383761318E+03  0.23383761318E+03  0.00000000000E+00 0.  1.
         13   -1    0    0    0    0 -0.00000000000E+00 -0.00000000000E+00 -0.27500000000E+03  0.27500000000E+03  0.00000000000E+00 0.  1.
    9000005    2    1    2  501    0 -0.15458585692E+02 -0.25820213490E+02 -0.35765020086E+02  0.47826339424E+03  0.47597382944E+03 0.  0.
         13    1    3    3    0    0  0.53125462924E+02 -0.24077649014E+03  0.14882575701E+02  0.24701644495E+03  0.00000000000E+00 0.  1.
          3    1    3    3  501    0 -0.68584048616E+02  0.21495627665E+03 -0.50647595788E+02  0.23124694929E+03  0.00000000000E+00 0.  1.
         21    1    1    2  502  501  0.15458585692E+02  0.25820213490E+02 -0.53973667355E+01  0.30574218943E+02  0.00000000000E+00 0. -1.
<scales pt_clust_4="550.00000" pt_clust_5="550.00000" pt_clust_6="30.09406"></scales>
<mgrwt>
<rscale>  0 0.30000000E+03</rscale>
<asrwt>  1 0.30094056E+02</asrwt>
<pdfrwt beam="1">  1        1 0.85031859E+00 0.30000000E+03</pdfrwt>
<pdfrwt beam="2">0</pdfrwt>
<totfact> 0.41593849E-04</totfact>
</mgrwt>
<clustering>
<clus scale="   30.094">  1  6  2 -1</clus>
<clus scale="  475.974">  4  5 -1 -1</clus>
<clus scale="  300.000">  1  4  2 -1</clus>
</clustering>
</event>
<event>
 6    1  0.1033679E-011  0.3000000E+03  0.7818608E-02  0.1093470E+00
          1   -1    0    0  502    0  0.00000000000E+00  0.00000000000E+00  0.23417760814E+03  0.23417760814E+03  0.00000000000E+00 0.  1.
         13   -1    0    0    0    0 -0.00000000000E+00 -0.00000000000E+00 -0.27500000000E+03  0.27500000000E+03  0.00000000000E+00 0.  1.
    9000005    2    1    2  501    0 -0.29545157160E+02 -0.21879330255E+02 -0.42528978018E+02  0.47237361597E+03  0.46901652176E+03 0.  0.
         13    1    3    3    0    0  0.10558914848E+03 -0.20867708905E+03  0.16287525409E+02  0.23443651434E+03  0.00000000000E+00 0.  1.
          1    1    3    3  501    0 -0.13513430564E+03  0.18679775880E+03 -0.58816503427E+02  0.23793710162E+03  0.00000000000E+00 0.  1.
         21    1    1    2  502  501  0.29545157160E+02  0.21879330255E+02  0.17065861624E+01  0.36803992179E+02  0.00000000000E+00 0.  1.
<scales pt_clust_4="550.00000" pt_clust_5="550.00000" pt_clust_6="36.76440"></scales>
<mgrwt>
<rscale>  0 0.30000000E+03</rscale>
<asrwt>  1 0.36764404E+02</asrwt>
<pdfrwt beam="1">  1        1 0.85155494E+00 0.30000000E+03</pdfrwt>
<pdfrwt beam="2">0</pdfrwt>
<totfact> 0.38984397E-04</totfact>
</mgrwt>
<clustering>
<clus scale="   36.764">  1  6  2 -1</clus>
<clus scale="  469.017">  4  5 -1 -1</clus>
<clus scale="  300.000">  1  4  2 -1</clus>
</clustering>
</event>
<event>
 6    1  0.1033679E-011  0.3000000E+03  0.7818608E-02  0.1093470E+00
          1   -1    0    0  502    0  0.00000000000E+00  0.00000000000E+00  0.25763392352E+03  0.25763392352E+03  0.00000000000E+00 0.  1.
         13   -1    0    0    0    0 -0.00000000000E+00 -0.00000000000E+00 -0.27500000000E+03  0.27500000000E+03  0.00000000000E+00 0.  1.
    9000005    2    1    2  501    0 -0.14424579547E+02  0.38972714007E+02 -0.29265277740E+02  0.48940740478E+03  0.48676093766E+03 0.  0.
         13    1    3    3    0    0 -0.11051680820E+03 -0.14569209719E+03  0.13245810092E+03  0.22579924840E+03  0.00000000000E+00 0.  1.
          1    1    3    3  501    0  0.96092228652E+02  0.18466481120E+03 -0.16172337866E+03  0.26360815638E+03  0.00000000000E+00 0.  1.
         21    1    1    2  502  501  0.14424579547E+02 -0.38972714007E+02  0.11899201261E+02  0.43226518745E+02  0.00000000000E+00 0.  1.
<scales pt_clust_4="550.00000" pt_clust_5="550.00000" pt_clust_6="41.55648"></scales>
<mgrwt>
<rscale>  0 0.30000000E+03</rscale>
<asrwt>  1 0.41556479E+02</asrwt>
<pdfrwt beam="1">  1        1 0.93685063E+00 0.30000000E+03</pdfrwt>
<pdfrwt beam="2">0</pdfrwt>
<totfact> 0.20697064E-05</totfact>
</mgrwt>
<clustering>
<clus scale="   41.556">  1  6  2 -1</clus>
<clus scale="  486.761">  4  5 -1 -1</clus>
<clus scale="  300.000">  1  4  2 -1</clus>
</clustering>
</event>
<event>
 6    1  0.1033679E-011  0.3000000E+03  0.7818608E-02  0.1093470E+00
          1   -1    0    0  502    0  0.00000000000E+00  0.00000000000E+00  0.25271626442E+03  0.25271626442E+03  0.00000000000E+00 0.  1.
         13   -1    0    0    0    0 -0.00000000000E+00 -0.00000000000E+00 -0.27500000000E+03  0.27500000000E+03  0.00000000000E+00 0.  1.
    9000005    2    1    2  501    0  0.35419080755E+02 -0.58698039125E+01 -0.74732908051E+02  0.46415620171E+03  0.45669136860E+03 0.  0.
         13    1    3    3    0    0 -0.66720073878E+02  0.81366150626E+02 -0.23354611993E+03  0.25615582925E+03  0.00000000000E+00 0.  1.
          1    1    3    3  501    0  0.10213915463E+03 -0.87235954539E+02  0.15881321188E+03  0.20800037245E+03  0.00000000000E+00 0.  1.
         21    1    1    2  502  501 -0.35419080755E+02  0.58698039125E+01  0.52449172475E+02  0.63560062719E+02  0.00000000000E+00 0.  1.
<scales pt_clust_4="550.00000" pt_clust_5="550.00000" pt_clust_6="35.90217"></scales>
<mgrwt>
<rscale>  0 0.30000000E+03</rscale>
<asrwt>  1 0.35902171E+02</asrwt>
<pdfrwt beam="1">  1        1 0.91896823E+00 0.30000000E+03</pdfrwt>
<pdfrwt beam="2">0</pdfrwt>
<totfact> 0.43820196E-05</totfact>
</mgrwt>
<clustering>
<clus scale="   35.902">  1  6  2 -1</clus>
<clus scale="  456.691">  4  5 -1 -1</clus>
<clus scale="  300.000">  1  4  2 -1</clus>
</clustering>
</event>
<event>
 6    1  0.1033679E-011  0.3000000E+03  0.7818608E-02  0.1093470E+00
          1   -1    0    0  502    0  0.00000000000E+00  0.00000000000E+00  0.24677728418E+03  0.24677728418E+03  0.00000000000E+00 0.  1.
         13   -1    0    0    0    0 -0.00000000000E+00 -0.00000000000E+00 -0.27500000000E+03  0.27500000000E+03  0.00000000000E+00 0.  1.
    9000005    2    1    2  501    0 -0.37978018386E+02  0.26095117126E+02 -0.37648306934E+02  0.47474403226E+03  0.47100022944E+03 0.  0.
         13    1    3    3    0    0 -0.21177252206E+03  0.12726117451E+03 -0.96451669109E+02  0.26522807565E+03  0.00000000000E+00 0.  1.
          1    1    3    3  501    0  0.17379450367E+03 -0.10116605738E+03  0.58803362176E+02  0.20951595662E+03  0.00000000000E+00 0.  1.
         21    1    1    2  502  501  0.37978018386E+02 -0.26095117126E+02  0.94255911168E+01  0.47033251921E+02  0.00000000000E+00 0.  1.
<scales pt_clust_4="550.00000" pt_clust_5="550.00000" pt_clust_6="46.07912"></scales>
<mgrwt>
<rscale>  0 0.30000000E+03</rscale>
<asrwt>  1 0.46079117E+02</asrwt>
<pdfrwt beam="1">  1        1 0.89737194E+00 0.30000000E+03</pdfrwt>
<pdfrwt beam="2">0</pdfrwt>
<totfact> 0.11281940E-04</totfact>
</mgrwt>
<clustering>
<clus scale="   46.079">  1  6  2 -1</clus>
<clus scale="  471.000">  4  5 -1 -1</clus>
<clus scale="  300.000">  1  4  2 -1</clus>
</clustering>
</event>
<event>
 6    1  0.1033679E-011  0.3000000E+03  0.7818608E-02  0.1093470E+00
          1   -1    0    0  502    0  0.00000000000E+00  0.00000000000E+00  0.23566543180E+03  0.23566543180E+03  0.00000000000E+00 0.  1.
         13   -1    0    0    0    0 -0.00000000000E+00 -0.00000000000E+00 -0.27500000000E+03  0.27500000000E+03  0.00000000000E+00 0.  1.
    9000005    2    1    2  501    0  0.11163670304E+02 -0.41876879880E+02 -0.35051700735E+02  0.46711496043E+03  0.46377738618E+03 0.  0.
         13    1    3    3    0    0 -0.16068507208E+03  0.81329103019E+02  0.10968962602E+03  0.21086946067E+03  0.00000000000E+00 0.  1.
          1    1    3    3  501    0  0.17184874238E+03 -0.12320598290E+03 -0.14474132675E+03  0.25624549976E+03  0.00000000000E+00 0.  1.
         21    1    1    2  502  501 -0.11163670304E+02  0.41876879880E+02 -0.42828674627E+01  0.43550471373E+02  0.00000000000E+00 0. -1.
<scales pt_clust_4="550.00000" pt_clust_5="550.00000" pt_clust_6="43.33939"></scales>
<mgrwt>
<rscale>  0 0.30000000E+03</rscale>
<asrwt>  1 0.43339387E+02</asrwt>
<pdfrwt beam="1">  1        1 0.85696521E+00 0.30000000E+03</pdfrwt>
<pdfrwt beam="2">0</pdfrwt>
<totfact> 0.33468257E-04</totfact>
</mgrwt>
<clustering>
<clus scale="   43.339">  1  6  2 -1</clus>
<clus scale="  463.777">  4  5 -1 -1</clus>
<clus scale="  300.000">  1  4  2 -1</clus>
</clustering>
</event>
<event>
 6    1  0.1033679E-011  0.3000000E+03  0.7818608E-02  0.1093470E+00
          1   -1    0    0  502    0  0.00000000000E+00  0.00000000000E+00  0.24414972683E+03  0.24414972683E+03  0.00000000000E+00 0.  1.
         13   -1    0    0    0    0 -0.00000000000E+00 -0.00000000000E+00 -0.27500000000E+03  0.27500000000E+03  0.00000000000E+00 0.  1.
    9000005    2    1    2  501    0  0.24666277863E+02  0.27768063237E+02 -0.62767205745E+02  0.47017849870E+03  0.46448746799E+03 0.  0.
         13    1    3    3    0    0 -0.52414713674E+02  0.21276852724E+03  0.69692050264E+02  0.22994505923E+03  0.00000000000E+00 0.  1.
          3    1    3    3  501    0  0.77080991537E+02 -0.18500046400E+03 -0.13245925601E+03  0.24023343947E+03  0.00000000000E+00 0.  1.
         21    1    1    2  502  501 -0.24666277863E+02 -0.27768063237E+02  0.31916932577E+02  0.48971228131E+02  0.00000000000E+00 0.  1.
<scales pt_clust_4="550.00000" pt_clust_5="550.00000" pt_clust_6="37.14149"></scales>
<mgrwt>
<rscale>  0 0.30000000E+03</rscale>
<asrwt>  1 0.37141494E+02</asrwt>
<pdfrwt beam="1">  1        1 0.88781719E+00 0.30000000E+03</pdfrwt>
<pdfrwt beam="2">0</pdfrwt>
<totfact> 0.15348595E-04</totfact>
</mgrwt>
<clustering>
<clus scale="   37.141">  1  6  2 -1</clus>
<clus scale="  464.487">  4  5 -1 -1</clus>
<clus scale="  300.000">  1  4  2 -1</clus>
</clustering>
</event>
<event>
 6    1  0.1033679E-011  0.3000000E+03  0.7818608E-02  0.1093470E+00
          1   -1    0    0  502    0  0.00000000000E+00  0.00000000000E+00  0.24975470366E+03  0.24975470366E+03  0.00000000000E+00 0.  1.
         13   -1    0    0    0    0 -0.00000000000E+00 -0.00000000000E+00 -0.27500000000E+03  0.27500000000E+03  0.00000000000E+00 0.  1.
    9000005    2    1    2  501    0 -0.32464110259E+02  0.14453237659E+02 -0.38824126550E+02  0.48671263269E+03  0.48385851185E+03 0.  0.
         13    1    3    3    0    0 -0.25462043133E+03  0.21781086814E+02 -0.62778449949E+02  0.26314846299E+03  0.00000000000E+00 0.  1.
          1    1    3    3  501    0  0.22215632107E+03 -0.73278491557E+01  0.23954323399E+02  0.22356416970E+03  0.00000000000E+00 0.  1.
         21    1    1    2  502  501  0.32464110259E+02 -0.14453237659E+02  0.13578830214E+02  0.38042070971E+02  0.00000000000E+00 0. -1.
<scales pt_clust_4="550.00000" pt_clust_5="550.00000" pt_clust_6="35.53610"></scales>
<mgrwt>
<rscale>  0 0.30000000E+03</rscale>
<asrwt>  1 0.35536102E+02</asrwt>
<pdfrwt beam="1">  1        1 0.90819892E+00 0.30000000E+03</pdfrwt>
<pdfrwt beam="2">0</pdfrwt>
<totfact> 0.79022902E-05</totfact>
</mgrwt>
<clustering>
<clus scale="   35.536">  1  6  2 -1</clus>
<clus scale="  483.859">  4  5 -1 -1</clus>
<clus scale="  300.000">  1  4  2 -1</clus>
</clustering>
</event>
<event>
 6    1  0.1033679E-011  0.3000000E+03  0.7818608E-02  0.1093470E+00
          1   -1    0    0  502    0  0.00000000000E+00  0.00000000000E+00  0.24271547268E+03  0.24271547268E+03  0.00000000000E+00 0.  1.
         13   -1    0    0    0    0 -0.00000000000E+00 -0.00000000000E+00 -0.27500000000E+03  0.27500000000E+03  0.00000000000E+00 0.  1.
    9000005    2    1    2  501    0  0.37978623790E+02  0.19757380661E+02 -0.39492459911E+02  0.47430252245E+03  0.47071275578E+03 0.  0.
         13    1    3    3    0    0  0.10758298743E+03  0.26870107087E+02 -0.23868161064E+03  0.26318247110E+03  0.00000000000E+00 0.  1.
          3    1    3    3  501    0 -0.69604363636E+02 -0.71127264261E+01  0.19918915073E+03  0.21112005135E+03  0.00000000000E+00 0.  1.
         21    1    1    2  502  501 -0.37978623790E+02 -0.19757380661E+02  0.72079325944E+01  0.43412950232E+02  0.00000000000E+00 0. -1.
<scales pt_clust_4="550.00000" pt_clust_5="550.00000" pt_clust_6="42.81040"></scales>
<mgrwt>
<rscale>  0 0.30000000E+03</rscale>
<asrwt>  1 0.42810395E+02</asrwt>
<pdfrwt beam="1">  1        1 0.88260172E+00 0.30000000E+03</pdfrwt>
<pdfrwt beam="2">0</pdfrwt>
<totfact> 0.17618437E-04</totfact>
</mgrwt>
<clustering>
<clus scale="   42.810">  1  6  2 -1</clus>
<clus scale="  470.713">  4  5 -1 -1</clus>
<clus scale="  300.000">  1  4  2 -1</clus>
</clustering>
</event>
<event>
 6    1  0.1033679E-011  0.3000000E+03  0.7818608E-02  0.1093470E+00
          1   -1    0    0  502    0  0.00000000000E+00  0.00000000000E+00  0.22326103351E+03  0.22326103351E+03  0.00000000000E+00 0.  1.
         13   -1    0    0    0    0 -0.00000000000E+00 -0.00000000000E+00 -0.27500000000E+03  0.27500000000E+03  0.00000000000E+00 0.  1.
    9000005    2    1    2  501    0  0.20704613683E+02 -0.22379571169E+02 -0.46175134574E+02  0.46726938207E+03  0.46398168728E+03 0.  0.
         13    1    3    3    0    0  0.13166714209E+03  0.51764135424E+02 -0.21171491928E+03  0.25463497220E+03  0.00000000000E+00 0.  1.
          1    1    3    3  501    0 -0.11096252841E+03 -0.74143706593E+02  0.16553978471E+03  0.21263440987E+03  0.00000000000E+00 0.  1.
         21    1    1    2  502  501 -0.20704613683E+02  0.22379571169E+02 -0.55638319149E+01  0.30991651441E+02  0.00000000000E+00 0.  1.
<scales pt_clust_4="550.00000" pt_clust_5="550.00000" pt_clust_6="30.48815"></scales>
<mgrwt>
<rscale>  0 0.30000000E+03</rscale>
<asrwt>  1 0.30488148E+02</asrwt>
<pdfrwt beam="1">  1        1 0.81185830E+00 0.30000000E+03</pdfrwt>
<pdfrwt beam="2">0</pdfrwt>
<totfact> 0.86570893E-04</totfact>
</mgrwt>
<clustering>
<clus scale="   30.488">  1  6  2 -1</clus>
<clus scale="  463.982">  4  5 -1 -1</clus>
<clus scale="  300.000">  1  4  2 -1</clus>
</clustering>
</event>
<event>
 6    1  0.1033679E-011  0.3000000E+03  0.7818608E-02  0.1093470E+00
          1   -1    0    0  502    0  0.00000000000E+00  0.00000000000E+00  0.23588050057E+03  0.23588050057E+03  0.00000000000E+00 0.  1.
         13   -1    0    0    0    0 -0.00000000000E+00 -0.00000000000E+00 -0.27500000000E+03  0.27500000000E+03  0.00000000000E+00 0.  1.
    9000005    2    1    2  501    0 -0.37351844925E+02  0.24361839853E+02 -0.53444871687E+02  0.46404167212E+03  0.45879152084E+03 0.  0.
         13    1    3    3    0    0  0.93627822239E+02  0.20784114647E+03 -0.68724861375E+02  0.23809077645E+03  0.00000000000E+00 0.  1.
          1    1    3    3  501    0 -0.13097966716E+03 -0.18347930661E+03  0.15279989688E+02  0.22595089566E+03  0.00000000000E+00 0.  1.
         21    1    1    2  502  501  0.37351844925E+02 -0.24361839853E+02  0.14325372254E+02  0.46838828450E+02  0.00000000000E+00 0. -1.
<scales pt_clust_4="550.00000" pt_clust_5="550.00000" pt_clust_6="44.59439"></scales>
<mgrwt>
<rscale>  0 0.30000000E+03</rscale>
<asrwt>  1 0.44594389E+02</asrwt>
<pdfrwt beam="1">  1        1 0.85774727E+00 0.30000000E+03</pdfrwt>
<pdfrwt beam="2">0</pdfrwt>
<totfact> 0.32683320E-04</totfact>
</mgrwt>
<clustering>
<clus scale="   44.594">  1  6  2 -1</clus>
<clus scale="  458.792">  4  5 -1 -1</clus>
<clus scale="  300.000">  1  4  2 -1</clus>
</clustering>
</event>
<event>
 6    1  0.1033679E-011  0.3000000E+03  0.7818608E-02  0.1093470E+00
          1   -1    0    0  502    0  0.00000000000E+00  0.00000000000E+00  0.22191403394E+03  0.22191403394E+03  0.00000000000E+00 0.  1.
         13   -1    0    0    0    0 -0.00000000000E+00 -0.00000000000E+00 -0.27500000000E+03  0.27500000000E+03  0.00000000000E+00 0.  1.
    9000005    2    1    2  501    0  0.32287449870E+02 -0.74748283521E+01 -0.61053329221E+02  0.46282838661E+03  0.45758524229E+03 0.  0.
         13    1    3    3    0    0 -0.69999728187E+02  0.16301539312E+03 -0.16164770835E+03  0.24000825393E+03  0.00000000000E+00 0.  1.
          1    1    3    3  501    0  0.10228717806E+03 -0.17049022147E+03  0.10059437913E+03  0.22282013268E+03  0.00000000000E+00 0.  1.
         21    1    1    2  502  501 -0.32287449870E+02  0.74748283521E+01  0.79673631579E+01  0.34085647327E+02  0.00000000000E+00 0.  1.
<scales pt_clust_4="550.00000" pt_clust_5="550.00000" pt_clust_6="33.14140"></scales>
<mgrwt>
<rscale>  0 0.30000000E+03</rscale>
<asrwt>  1 0.33141401E+02</asrwt>
<pdfrwt beam="1">  1        1 0.80696012E+00 0.30000000E+03</pdfrwt>
<pdfrwt beam="2">0</pdfrwt>
<totfact> 0.93014787E-04</totfact>
</mgrwt>
<clustering>
<clus scale="   33.141">  1  6  2 -1</clus>
<clus scale="  457.585">  4  5 -1 -1</clus>
<clus scale="  300.000">  1  4  2 -1</clus>
</clustering>
</event>
<event>
 6    1  0.1033679E-011  0.3000000E+03  0.7818608E-02  0.1093470E+00
          1   -1    0    0  502    0  0.00000000000E+00  0.00000000000E+00  0.24371752131E+03  0.24371752131E+03  0.00000000000E+00 0.  1.
         13   -1    0    0    0    0 -0.00000000000E+00 -0.00000000000E+00 -0.27500000000E+03  0.27500000000E+03  0.00000000000E+00 0.  1.
    9000005    2    1    2  501    0 -0.46752820846E+01 -0.30787120547E+02 -0.58020044670E+02  0.47767361203E+03  0.47311314608E+03 0.  0.
         13    1    3    3    0    0 -0.95746378471E+02 -0.22392654974E+03 -0.94153254494E+02  0.26110400993E+03  0.00000000000E+00 0.  1.
          1    1    3    3  501    0  0.91071096386E+02  0.19313942919E+03  0.36133209824E+02  0.21656960211E+03  0.00000000000E+00 0.  1.
         21    1    1    2  502  501  0.46752820846E+01  0.30787120547E+02  0.26737565983E+02  0.41043909278E+02  0.00000000000E+00 0.  1.
<scales pt_clust_4="550.00000" pt_clust_5="550.00000" pt_clust_6="31.14009"></scales>
<mgrwt>
<rscale>  0 0.30000000E+03</rscale>
<asrwt>  1 0.31140088E+02</asrwt>
<pdfrwt beam="1">  1        1 0.88624553E+00 0.30000000E+03</pdfrwt>
<pdfrwt beam="2">0</pdfrwt>
<totfact> 0.16678468E-04</totfact>
</mgrwt>
<clustering>
<clus scale="   31.140">  1  6  2 -1</clus>
<clus scale="  473.113">  4  5 -1 -1</clus>
<clus scale="  300.000">  1  4  2 -1</clus>
</clustering>
</event>
<event>
 6    1  0.1033679E-011  0.3000000E+03  0.7818608E-02  0.1093470E+00
          1   -1    0    0  502    0  0.00000000000E+00  0.00000000000E+00  0.22232131170E+03  0.22232131170E+03  0.00000000000E+00 0.  1.
         13   -1    0    0    0    0 -0.00000000000E+00 -0.00000000000E+00 -0.27500000000E+03  0.27500000000E+03  0.00000000000E+00 0.  1.
    9000005    2    1    2  501    0 -0.15518828830E+02 -0.27585358449E+02 -0.53177013540E+02  0.46566638512E+03  0.46153613229E+03 0.  0.
         13    1    3    3    0    0 -0.10989689368E+03  0.19332849687E+03 -0.24038386335E+02  0.22367628162E+03  0.00000000000E+00 0.  1.
          1    1    3    3  501    0  0.94378064851E+02 -0.22091385532E+03 -0.29138627205E+02  0.24199010350E+03  0.00000000000E+00 0.  1.
         21    1    1    2  502  501  0.15518828830E+02  0.27585358449E+02  0.49832524330E+00  0.31654926584E+02  0.00000000000E+00 0.  1.
<scales pt_clust_4="550.00000" pt_clust_5="550.00000" pt_clust_6="31.65100"></scales>
<mgrwt>
<rscale>  0 0.30000000E+03</rscale>
<asrwt>  1 0.31651004E+02</asrwt>
<pdfrwt beam="1">  1        1 0.80844113E+00 0.30000000E+03</pdfrwt>
<pdfrwt beam="2">0</pdfrwt>
<totfact> 0.91398124E-04</totfact>
</mgrwt>
<clustering>
<clus scale="   31.651">  1  6  2 -1</clus>
<clus scale="  461.536">  4  5 -1 -1</clus>
<clus scale="  300.000">  1  4  2 -1</clus>
</clustering>
</event>
<event>
 6    1  0.1033679E-011  0.3000000E+03  0.7818608E-02  0.1093470E+00
          1   -1    0    0  502    0  0.00000000000E+00  0.00000000000E+00  0.26324615039E+03  0.26324615039E+03  0.00000000000E+00 0.  1.
         13   -1    0    0    0    0 -0.00000000000E+00 -0.00000000000E+00 -0.27500000000E+03  0.27500000000E+03  0.00000000000E+00 0.  1.
    9000005    2    1    2  501    0 -0.30283399105E+02  0.64308012462E+01 -0.48594507965E+02  0.49012470430E+03  0.48672616541E+03 0.  0.
         13    1    3    3    0    0 -0.14215349216E+03 -0.18526361187E+03 -0.11243603770E+03  0.25917577778E+03  0.00000000000E+00 0.  1.
          3    1    3    3  501    0  0.11187009305E+03  0.19169441311E+03  0.63841529733E+02  0.23094892651E+03  0.00000000000E+00 0.  1.
         21    1    1    2  502  501  0.30283399105E+02 -0.64308012462E+01  0.36840658352E+02  0.48121446090E+02  0.00000000000E+00 0. -1.
<scales pt_clust_4="550.00000" pt_clust_5="550.00000" pt_clust_6="30.95867"></scales>
<mgrwt>
<rscale>  0 0.30000000E+03</rscale>
<asrwt>  1 0.30958674E+02</asrwt>
<pdfrwt beam="1">  1        1 0.95725873E+00 0.30000000E+03</pdfrwt>
<pdfrwt beam="2">0</pdfrwt>
<totfact> 0.88924020E-06</totfact>
</mgrwt>
<clustering>
<clus scale="   30.959">  1  6  2 -1</clus>
<clus scale="  486.726">  4  5 -1 -1</clus>
<clus scale="  300.000">  1  4  2 -1</clus>
</clustering>
</event>
<event>
 6    1  0.1033679E-011  0.3000000E+03  0.7818608E-02  0.1093470E+00
          1   -1    0    0  502    0  0.00000000000E+00  0.00000000000E+00  0.22952010773E+03  0.22952010773E+03  0.00000000000E+00 0.  1.
         13   -1    0    0    0    0 -0.00000000000E+00 -0.00000000000E+00 -0.27500000000E+03  0.27500000000E+03  0.00000000000E+00 0.  1.
    9000005    2    1    2  501    0 -0.35475580642E+02  0.10211354947E+02 -0.38027281299E+02  0.46685938546E+03  0.46384137707E+03 0.  0.
         13    1    3    3    0    0  0.12673356350E+03 -0.17656104896E+03 -0.60235489116E+01  0.21742006179E+03  0.00000000000E+00 0.  1.
          3    1    3    3  501    0 -0.16220914414E+03  0.18677240391E+03 -0.32003732387E+02  0.24943932367E+03  0.00000000000E+00 0.  1.
         21    1    1    2  502  501  0.35475580642E+02 -0.10211354947E+02 -0.74526109684E+01  0.37660722272E+02  0.00000000000E+00 0. -1.
<scales pt_clust_4="550.00000" pt_clust_5="550.00000" pt_clust_6="36.91599"></scales>
<mgrwt>
<rscale>  0 0.30000000E+03</rscale>
<asrwt>  1 0.36915985E+02</asrwt>
<pdfrwt beam="1">  1        1 0.83461857E+00 0.30000000E+03</pdfrwt>
<pdfrwt beam="2">0</pdfrwt>
<totfact> 0.53910147E-04</totfact>
</mgrwt>
<clustering>
<clus scale="   36.916">  1  6  2 -1</clus>
<clus scale="  463.841">  4  5 -1 -1</clus>
<clus scale="  300.000">  1  4  2 -1</clus>
</clustering>
</event>
<event>
 6    1  0.1033679E-011  0.3000000E+03  0.7818608E-02  0.1093470E+00
          1   -1    0    0  502    0  0.00000000000E+00  0.00000000000E+00  0.24601291140E+03  0.24601291140E+03  0.00000000000E+00 0.  1.
         13   -1    0    0    0    0 -0.00000000000E+00 -0.00000000000E+00 -0.27500000000E+03  0.27500000000E+03  0.00000000000E+00 0.  1.
    9000005    2    1    2  501    0  0.29074613850E+02  0.16480017190E+02 -0.35297750895E+02  0.48700190442E+03  0.48456991194E+03 0.  0.
         13    1    3    3    0    0 -0.23098287086E+02 -0.11405458424E+03  0.18920034405E+03  0.22212327487E+03  0.00000000000E+00 0.  1.
          3    1    3    3  501    0  0.52172900936E+02  0.13053460143E+03 -0.22449809494E+03  0.26487862955E+03  0.00000000000E+00 0.  1.
         21    1    1    2  502  501 -0.29074613850E+02 -0.16480017190E+02  0.63106622983E+01  0.34011006979E+02  0.00000000000E+00 0. -1.
<scales pt_clust_4="550.00000" pt_clust_5="550.00000" pt_clust_6="33.42041"></scales>
<mgrwt>
<rscale>  0 0.30000000E+03</rscale>
<asrwt>  1 0.33420415E+02</asrwt>
<pdfrwt beam="1">  1        1 0.89459241E+00 0.30000000E+03</pdfrwt>
<pdfrwt beam="2">0</pdfrwt>
<totfact> 0.12854124E-04</totfact>
</mgrwt>
<clustering>
<clus scale="   33.420">  1  6  2 -1</clus>
<clus scale="  484.570">  4  5 -1 -1</clus>
<clus scale="  300.000">  1  4  2 -1</clus>
</clustering>
</event>
<event>
 6    1  0.1033679E-011  0.3000000E+03  0.7818608E-02  0.1093470E+00
          1   -1    0    0  502    0  0.00000000000E+00  0.00000000000E+00  0.22255296255E+03  0.22255296255E+03  0.00000000000E+00 0.  1.
         13   -1    0    0    0    0 -0.00000000000E+00 -0.00000000000E+00 -0.27500000000E+03  0.27500000000E+03  0.00000000000E+00 0.  1.
    9000005    2    1    2  501    0  0.30722620816E+02  0.17002280583E+01 -0.62120935397E+02  0.46529843563E+03  0.46010526337E+03 0.  0.
         13    1    3    3    0    0  0.22781371176E+03 -0.73517204064E+02 -0.82878535255E+02  0.25332334706E+03  0.00000000000E+00 0.  1.
          1    1    3    3  501    0 -0.19709109094E+03  0.75217432122E+02  0.20757599858E+02  0.21197508857E+03  0.00000000000E+00 0.  1.
         21    1    1    2  502  501 -0.30722620816E+02 -0.17002280583E+01  0.96738979424E+01  0.32254526917E+02  0.00000000000E+00 0. -1.
<scales pt_clust_4="550.00000" pt_clust_5="550.00000" pt_clust_6="30.76963"></scales>
<mgrwt>
<rscale>  0 0.30000000E+03</rscale>
<asrwt>  1 0.30769631E+02</asrwt>
<pdfrwt beam="1">  1        1 0.80928350E+00 0.30000000E+03</pdfrwt>
<pdfrwt beam="2">0</pdfrwt>
<totfact> 0.90522283E-04</totfact>
</mgrwt>
<clustering>
<clus scale="   30.770">  1  6  2 -1</clus>
<clus scale="  460.105">  4  5 -1 -1</clus>
<clus scale="  300.000">  1  4  2 -1</clus>
</clustering>
</event>
<event>
 6    1  0.1033679E-011  0.3000000E+03  0.7818608E-02  0.1093470E+00
          1   -1    0    0  502    0  0.00000000000E+00  0.00000000000E+00  0.22868658026E+03  0.22868658026E+03  0.00000000000E+00 0.  1.
         13   -1    0    0    0    0 -0.00000000000E+00 -0.00000000000E+00 -0.27500000000E+03  0.27500000000E+03  0.00000000000E+00 0.  1.
    9000005    2    1    2  501    0  0.37089003828E+02  0.71717867979E+01 -0.45663691648E+02  0.46590495937E+03  0.46212036278E+03 0.  0.
         13    1    3    3    0    0  0.24610186170E+03  0.45258946082E+02 -0.39761610187E+02  0.25336827777E+03  0.00000000000E+00 0.  1.
          3    1    3    3  501    0 -0.20901285788E+03 -0.38087159284E+02 -0.59020814613E+01  0.21253668160E+03  0.00000000000E+00 0.  1.
         21    1    1    2  502  501 -0.37089003828E+02 -0.71717867979E+01 -0.64972808938E+00  0.37781620894E+02  0.00000000000E+00 0. -1.
<scales pt_clust_4="550.00000" pt_clust_5="550.00000" pt_clust_6="37.77603"></scales>
<mgrwt>
<rscale>  0 0.30000000E+03</rscale>
<asrwt>  1 0.37776034E+02</asrwt>
<pdfrwt beam="1">  1        1 0.83158756E+00 0.30000000E+03</pdfrwt>
<pdfrwt beam="2">0</pdfrwt>
<totfact> 0.56583121E-04</totfact>
</mgrwt>
<clustering>
<clus scale="   37.776">  1  6  2 -1</clus>
<clus scale="  462.120">  4  5 -1 -1</clus>
<clus scale="  300.000">  1  4  2 -1</clus>
</clustering>
</event>
<event>
 6    1  0.1033679E-011  0.3000000E+03  0.7818608E-02  0.1093470E+00
          1   -1    0    0  502    0  0.00000000000E+00  0.00000000000E+00  0.23029496829E+03  0.23029496829E+03  0.00000000000E+00 0.  1.
         13   -1    0    0    0    0 -0.00000000000E+00 -0.00000000000E+00 -0.27500000000E+03  0.27500000000E+03  0.00000000000E+00 0.  1.
    9000005    2    1    2  501    0  0.22405094762E+02 -0.23649759970E+02 -0.70743017829E+02  0.46359033858E+03  0.45700123418E+03 0.  0.
         13    1    3    3    0    0  0.16043749079E+03  0.50197442227E+02 -0.19950939829E+03  0.26089072743E+03  0.00000000000E+00 0.  1.
          1    1    3    3  501    0 -0.13803239602E+03 -0.73847202197E+02  0.12876638046E+03  0.20269961115E+03  0.00000000000E+00 0.  1.
         21    1    1    2  502  501 -0.22405094762E+02  0.23649759970E+02  0.26037986123E+02  0.41704629710E+02  0.00000000000E+00 0.  1.
<scales pt_clust_4="550.00000" pt_clust_5="550.00000" pt_clust_6="32.57759"></scales>
<mgrwt>
<rscale>  0 0.30000000E+03</rscale>
<asrwt>  1 0.32577591E+02</asrwt>
<pdfrwt beam="1">  1        1 0.83743625E+00 0.30000000E+03</pdfrwt>
<pdfrwt beam="2">0</pdfrwt>
<totfact> 0.52643930E-04</totfact>
</mgrwt>
<clustering>
<clus scale="   32.578">  1  6  2 -1</clus>
<clus scale="  457.001">  4  5 -1 -1</clus>
<clus scale="  300.000">  1  4  2 -1</clus>
</clustering>
</event>
<event>
 6    1  0.1033679E-011  0.3000000E+03  0.7818608E-02  0.1093470E+00
          1   -1    0    0  502    0  0.00000000000E+00  0.00000000000E+00  0.24230204537E+03  0.24230204537E+03  0.00000000000E+00 0.  1.
         13   -1    0    0    0    0 -0.00000000000E+00 -0.00000000000E+00 -0.27500000000E+03  0.27500000000E+03  0.00000000000E+00 0.  1.
    9000005    2    1    2  501    0  0.35018289369E+02  0.14650253451E+02 -0.19585660971E+01  0.46845718357E+03  0.46691261103E+03 0.  0.
         13    1    3    3    0    0 -0.57518214287E+02  0.11271827861E+03 -0.19531732725E+03  0.23272862658E+03  0.00000000000E+00 0.  1.
          1    1    3    3  501    0  0.92536503657E+02 -0.98068025155E+02  0.19335876115E+03  0.23572855699E+03  0.00000000000E+00 0.  1.
         21    1    1    2  502  501 -0.35018289369E+02 -0.14650253451E+02 -0.30739388535E+02  0.48844861798E+02  0.00000000000E+00 0. -1.
<scales pt_clust_4="550.00000" pt_clust_5="550.00000" pt_clust_6="37.95935"></scales>
<mgrwt>
<rscale>  0 0.30000000E+03</rscale>
<asrwt>  1 0.37959346E+02</asrwt>
<pdfrwt beam="1">  1        1 0.88109835E+00 0.30000000E+03</pdfrwt>
<pdfrwt beam="2">0</pdfrwt>
<totfact> 0.18836014E-04</totfact>
</mgrwt>
<clustering>
<clus scale="   37.959">  1  6  2 -1</clus>
<clus scale="  466.913">  4  5 -1 -1</clus>
<clus scale="  300.000">  1  4  2 -1</clus>
</clustering>
</event>
<event>
 6    1  0.1033679E-011  0.3000000E+03  0.7818608E-02  0.1093470E+00
          1   -1    0    0  502    0  0.00000000000E+00  0.00000000000E+00  0.21806274564E+03  0.21806274564E+03  0.00000000000E+00 0.  1.
         13   -1    0    0    0    0 -0.00000000000E+00 -0.00000000000E+00 -0.27500000000E+03  0.27500000000E+03  0.00000000000E+00 0.  1.
    9000005    2    1    2  501    0 -0.18302448228E+02  0.26753862083E+02 -0.50200326462E+02  0.45995481690E+03  0.45605658867E+03 0.  0.
         13    1    3    3    0    0 -0.14779513657E+03 -0.12219073657E+03 -0.14556747299E+03  0.24075686427E+03  0.00000000000E+00 0.  1.
          3    1    3    3  501    0  0.12949268834E+03  0.14894459866E+03  0.95367146529E+02  0.21919795264E+03  0.00000000000E+00 0.  1.
         21    1    1    2  502  501  0.18302448228E+02 -0.26753862083E+02 -0.67369278999E+01  0.33107928734E+02  0.00000000000E+00 0. -1.
<scales pt_clust_4="550.00000" pt_clust_5="550.00000" pt_clust_6="32.41527"></scales>
<mgrwt>
<rscale>  0 0.30000000E+03</rscale>
<asrwt>  1 0.32415271E+02</asrwt>
<pdfrwt beam="1">  1        1 0.79295544E+00 0.30000000E+03</pdfrwt>
<pdfrwt beam="2">0</pdfrwt>
<totfact> 0.11861259E-03</totfact>
</mgrwt>
<clustering>
<clus scale="   32.415">  1  6  2 -1</clus>
<clus scale="  456.057">  4  5 -1 -1</clus>
<clus scale="  300.000">  1  4  2 -1</clus>
</clustering>
</event>
<event>
 6    1  0.1033679E-011  0.3000000E+03  0.7818608E-02  0.1093470E+00
          1   -1    0    0  502    0  0.00000000000E+00  0.00000000000E+00  0.24720347029E+03  0.24720347029E+03  0.00000000000E+00 0.  1.
         13   -1    0    0    0    0 -0.00000000000E+00 -0.00000000000E+00 -0.27500000000E+03  0.27500000000E+03  0.00000000000E+00 0.  1.
    9000005    2    1    2  501    0  0.18862389721E+01 -0.30702710759E+02 -0.37828751208E+02  0.48984825720E+03  0.48741572228E+03 0.  0.
         13    1    3    3    0    0  0.15653223572E+03 -0.14963713107E+03 -0.15128884916E+03  0.26416269171E+03  0.00000000000E+00 0.  1.
          3    1    3    3  501    0 -0.15464599675E+03  0.11893442031E+03  0.11346009795E+03  0.22568556549E+03  0.00000000000E+00 0.  1.
         21    1    1    2  502  501 -0.18862389721E+01  0.30702710759E+02  0.10032221493E+02  0.32355213081E+02  0.00000000000E+00 0.  1.
<scales pt_clust_4="550.00000" pt_clust_5="550.00000" pt_clust_6="30.76060"></scales>
<mgrwt>
<rscale>  0 0.30000000E+03</rscale>
<asrwt>  1 0.30760597E+02</asrwt>
<pdfrwt beam="1">  1        1 0.89892171E+00 0.30000000E+03</pdfrwt>
<pdfrwt beam="2">0</pdfrwt>
<totfact> 0.11665314E-04</totfact>
</mgrwt>
<clustering>
<clus scale="   30.761">  1  6  2 -1</clus>
<clus scale="  487.416">  4  5 -1 -1</clus>
<clus scale="  300.000">  1  4  2 -1</clus>
</clustering>
</event>
<event>
 6    1  0.1033679E-011  0.3000000E+03  0.7818608E-02  0.1093470E+00
          1   -1    0    0  502    0  0.00000000000E+00  0.00000000000E+00  0.22173702747E+03  0.22173702747E+03  0.00000000000E+00 0.  1.
         13   -1    0    0    0    0 -0.00000000000E+00 -0.00000000000E+00 -0.27500000000E+03  0.27500000000E+03  0.00000000000E+00 0.  1.
    9000005    2    1    2  501    0  0.93944955867E+01  0.29650216110E+02 -0.43926958987E+02  0.46426314548E+03  0.46113262589E+03 0.  0.
         13    1    3    3    0    0  0.27307471992E+02  0.17038055545E+03  0.14680618726E+03  0.22655526549E+03  0.00000000000E+00 0.  1.
          1    1    3    3  501    0 -0.17912976405E+02 -0.14073033934E+03 -0.19073314625E+03  0.23770788000E+03  0.00000000000E+00 0.  1.
         21    1    1    2  502  501 -0.93944955867E+01 -0.29650216110E+02 -0.93360135404E+01  0.32473881990E+02  0.00000000000E+00 0. -1.
<scales pt_clust_4="550.00000" pt_clust_5="550.00000" pt_clust_6="31.10294"></scales>
<mgrwt>
<rscale>  0 0.30000000E+03</rscale>
<asrwt>  1 0.31102939E+02</asrwt>
<pdfrwt beam="1">  1        1 0.80631646E+00 0.30000000E+03</pdfrwt>
<pdfrwt beam="2">0</pdfrwt>
<totfact> 0.95219377E-04</totfact>
</mgrwt>
<clustering>
<clus scale="   31.103">  1  6  2 -1</clus>
<clus scale="  461.133">  4  5 -1 -1</clus>
<clus scale="  300.000">  1  4  2 -1</clus>
</clustering>
</event>
<event>
 6    1  0.1033679E-011  0.3000000E+03  0.7818608E-02  0.1093470E+00
          1   -1    0    0  502    0  0.00000000000E+00  0.00000000000E+00  0.24787329372E+03  0.24787329372E+03  0.00000000000E+00 0.  1.
         13   -1    0    0    0    0 -0.00000000000E+00 -0.00000000000E+00 -0.27500000000E+03  0.27500000000E+03  0.00000000000E+00 0.  1.
    9000005    2    1    2  501    0  0.29258686080E+02  0.11415204627E+02 -0.76794724458E+02  0.46410859651E+03  0.45663221749E+03 0.  0.
         13    1    3    3    0    0  0.55110400784E+02  0.15298740395E+03 -0.21163712769E+03  0.26689431589E+03  0.00000000000E+00 0.  1.
          1    1    3    3  501    0 -0.25851714704E+02 -0.14157219932E+03  0.13484240323E+03  0.19721428062E+03  0.00000000000E+00 0.  1.
         21    1    1    2  502  501 -0.29258686080E+02 -0.11415204627E+02  0.49668018176E+02  0.58764697203E+02  0.00000000000E+00 0.  1.
<scales pt_clust_4="550.00000" pt_clust_5="550.00000" pt_clust_6="31.40665"></scales>
<mgrwt>
<rscale>  0 0.30000000E+03</rscale>
<asrwt>  1 0.31406649E+02</asrwt>
<pdfrwt beam="1">  1        1 0.90135743E+00 0.30000000E+03</pdfrwt>
<pdfrwt beam="2">0</pdfrwt>
<totfact> 0.10818862E-04</totfact>
</mgrwt>
<clustering>
<clus scale="   31.407">  1  6  2 -1</clus>
<clus scale="  456.632">  4  5 -1 -1</clus>
<clus scale="  300.000">  1  4  2 -1</clus>
</clustering>
</event>
<event>
 6    1  0.1033679E-011  0.3000000E+03  0.7818608E-02  0.1093470E+00
          1   -1    0    0  502    0  0.00000000000E+00  0.00000000000E+00  0.23052927297E+03  0.23052927297E+03  0.00000000000E+00 0.  1.
         13   -1    0    0    0    0 -0.00000000000E+00 -0.00000000000E+00 -0.27500000000E+03  0.27500000000E+03  0.00000000000E+00 0.  1.
    9000005    2    1    2  501    0 -0.25967538517E+02  0.22729556912E+02 -0.43109213505E+02  0.47099234298E+03  0.46774398664E+03 0.  0.
         13    1    3    3    0    0 -0.15464844377E+03  0.19598562597E+03  0.57336604611E+01  0.24971860486E+03  0.00000000000E+00 0.  1.
          3    1    3    3  501    0  0.12868090526E+03 -0.17325606906E+03 -0.48842873966E+02  0.22127373812E+03  0.00000000000E+00 0.  1.
         21    1    1    2  502  501  0.25967538517E+02 -0.22729556912E+02 -0.13615135286E+01  0.34536929990E+02  0.00000000000E+00 0.  1.
<scales pt_clust_4="550.00000" pt_clust_5="550.00000" pt_clust_6="34.51008"></scales>
<mgrwt>
<rscale>  0 0.30000000E+03</rscale>
<asrwt>  1 0.34510083E+02</asrwt>
<pdfrwt beam="1">  1        1 0.83828827E+00 0.30000000E+03</pdfrwt>
<pdfrwt beam="2">0</pdfrwt>
<totfact> 0.51331928E-04</totfact>
</mgrwt>
<clustering>
<clus scale="   34.510">  1  6  2 -1</clus>
<clus scale="  467.744">  4  5 -1 -1</clus>
<clus scale="  300.000">  1  4  2 -1</clus>
</clustering>
</event>
<event>
 6    1  0.1033679E-011  0.3000000E+03  0.7818608E-02  0.1093470E+00
          1   -1    0    0  502    0  0.00000000000E+00  0.00000000000E+00  0.24020316896E+03  0.24020316896E+03  0.00000000000E+00 0.  1.
         13   -1    0    0    0    0 -0.00000000000E+00 -0.00000000000E+00 -0.27500000000E+03  0.27500000000E+03  0.00000000000E+00 0.  1.
    9000005    2    1    2  501    0 -0.43558759042E+02 -0.25957307429E+01 -0.50134411117E+02  0.46895011857E+03  0.46421616864E+03 0.  0.
         13    1    3    3    0    0 -0.70864223605E+02 -0.28901663162E+01 -0.25376865507E+03  0.26349311480E+03  0.00000000000E+00 0.  1.
          1    1    3    3  501    0  0.27305464563E+02  0.29443557333E+00  0.20363424396E+03  0.20545700377E+03  0.00000000000E+00 0.  1.
         21    1    1    2  502  501  0.43558759042E+02  0.25957307429E+01  0.15337580073E+02  0.46253050384E+02  0.00000000000E+00 0.  1.
<scales pt_clust_4="550.00000" pt_clust_5="550.00000" pt_clust_6="43.63603"></scales>
<mgrwt>
<rscale>  0 0.30000000E+03</rscale>
<asrwt>  1 0.43636032E+02</asrwt>
<pdfrwt beam="1">  1        1 0.87346607E+00 0.30000000E+03</pdfrwt>
<pdfrwt beam="2">0</pdfrwt>
<totfact> 0.22413763E-04</totfact>
</mgrwt>
<clustering>
<clus scale="   43.636">  1  6  2 -1</clus>
<clus scale="  464.216">  4  5 -1 -1</clus>
<clus scale="  300.000">  1  4  2 -1</clus>
</clustering>
</event>
<event>
 6    1  0.1033679E-011  0.3000000E+03  0.7818608E-02  0.1093470E+00
          1   -1    0    0  502    0  0.00000000000E+00  0.00000000000E+00  0.24867810301E+03  0.24867810301E+03  0.00000000000E+00 0.  1.
         13   -1    0    0    0    0 -0.00000000000E+00 -0.00000000000E+00 -0.27500000000E+03  0.27500000000E+03  0.00000000000E+00 0.  1.
    9000005    2    1    2  501    0 -0.94205957957E+01  0.33182455120E+02 -0.46330465473E+02  0.48380122041E+03  0.48034080182E+03 0.  0.
         13    1    3    3    0    0 -0.29608513522E+02  0.21308623544E+03 -0.16170410176E+03  0.26912938214E+03  0.00000000000E+00 0.  1.
          1    1    3    3  501    0  0.20187917726E+02 -0.17990378032E+03  0.11537363628E+03  0.21467183827E+03  0.00000000000E+00 0.  1.
         21    1    1    2  502  501  0.94205957957E+01 -0.33182455120E+02  0.20008568486E+02  0.39876882599E+02  0.00000000000E+00 0. -1.
<scales pt_clust_4="550.00000" pt_clust_5="550.00000" pt_clust_6="34.49381"></scales>
<mgrwt>
<rscale>  0 0.30000000E+03</rscale>
<asrwt>  1 0.34493810E+02</asrwt>
<pdfrwt beam="1">  1        1 0.90428401E+00 0.30000000E+03</pdfrwt>
<pdfrwt beam="2">0</pdfrwt>
<totfact> 0.95573691E-05</totfact>
</mgrwt>
<clustering>
<clus scale="   34.494">  1  6  2 -1</clus>
<clus scale="  480.341">  4  5 -1 -1</clus>
<clus scale="  300.000">  1  4  2 -1</clus>
</clustering>
</event>
<event>
 6    1  0.1033679E-011  0.3000000E+03  0.7818608E-02  0.1093470E+00
          1   -1    0    0  502    0  0.00000000000E+00  0.00000000000E+00  0.24147967096E+03  0.24147967096E+03  0.00000000000E+00 0.  1.
         13   -1    0    0    0    0 -0.00000000000E+00 -0.00000000000E+00 -0.27500000000E+03  0.27500000000E+03  0.00000000000E+00 0.  1.
    9000005    2    1    2  501    0 -0.30660189353E+02  0.14686171820E+02 -0.52475359852E+02  0.47755636115E+03  0.47344554473E+03 0.  0.
         13    1    3    3    0    0  0.18553146277E+03  0.13294094572E+03 -0.25518946549E+02  0.22966592120E+03  0.00000000000E+00 0.  1.
          3    1    3    3  501    0 -0.21619165213E+03 -0.11825477390E+03 -0.26956413304E+02  0.24789043995E+03  0.00000000000E+00 0.  1.
         21    1    1    2  502  501  0.30660189353E+02 -0.14686171820E+02  0.18955030814E+02  0.38923309816E+02  0.00000000000E+00 0.  1.
<scales pt_clust_4="550.00000" pt_clust_5="550.00000" pt_clust_6="33.99604"></scales>
<mgrwt>
<rscale>  0 0.30000000E+03</rscale>
<asrwt>  1 0.33996042E+02</asrwt>
<pdfrwt beam="1">  1        1 0.87810789E+00 0.30000000E+03</pdfrwt>
<pdfrwt beam="2">0</pdfrwt>
<totfact> 0.20904426E-04</totfact>
</mgrwt>
<clustering>
<clus scale="   33.996">  1  6  2 -1</clus>
<clus scale="  473.446">  4  5 -1 -1</clus>
<clus scale="  300.000">  1  4  2 -1</clus>
</clustering>
</event>
<event>
 6    1  0.1033679E-011  0.3000000E+03  0.7818608E-02  0.1093470E+00
          1   -1    0    0  502    0  0.00000000000E+00  0.00000000000E+00  0.22831796767E+03  0.22831796767E+03  0.00000000000E+00 0.  1.
         13   -1    0    0    0    0 -0.00000000000E+00 -0.00000000000E+00 -0.27500000000E+03  0.27500000000E+03  0.00000000000E+00 0.  1.
    9000005    2    1    2  501    0 -0.30541871369E+02  0.23830671295E+02 -0.28279461703E+02  0.46043019078E+03  0.45792524044E+03 0.  0.
         13    1    3    3    0    0  0.35981159141E+02  0.61068938474E+02  0.20399828339E+03  0.21596147500E+03  0.00000000000E+00 0.  1.
          1    1    3    3  501    0 -0.66523030510E+02 -0.37238267179E+02 -0.23227774509E+03  0.24446871578E+03  0.00000000000E+00 0.  1.
         21    1    1    2  502  501  0.30541871369E+02 -0.23830671295E+02 -0.18402570622E+02  0.42887776890E+02  0.00000000000E+00 0.  1.
<scales pt_clust_4="550.00000" pt_clust_5="550.00000" pt_clust_6="38.73898"></scales>
<mgrwt>
<rscale>  0 0.30000000E+03</rscale>
<asrwt>  1 0.38738977E+02</asrwt>
<pdfrwt beam="1">  1        1 0.83024716E+00 0.30000000E+03</pdfrwt>
<pdfrwt beam="2">0</pdfrwt>
<totfact> 0.57729275E-04</totfact>
</mgrwt>
<clustering>
<clus scale="   38.739">  1  6  2 -1</clus>
<clus scale="  457.925">  4  5 -1 -1</clus>
<clus scale="  300.000">  1  4  2 -1</clus>
</clustering>
</event>
<event>
 6    1  0.1033679E-011  0.3000000E+03  0.7818608E-02  0.1093470E+00
          1   -1    0    0  502    0  0.00000000000E+00  0.00000000000E+00  0.23335423320E+03  0.23335423320E+03  0.00000000000E+00 0.  1.
         13   -1    0    0    0    0 -0.00000000000E+00 -0.00000000000E+00 -0.27500000000E+03  0.27500000000E+03  0.00000000000E+00 0.  1.
    9000005    2    1    2  501    0  0.33933716128E+02  0.60744131354E+01 -0.50319938379E+02  0.47280656326E+03  0.46885557956E+03 0.  0.
         13    1    3    3    0    0 -0.21054367087E+03  0.13618309904E+02 -0.81614452214E+02  0.22621895261E+03  0.00000000000E+00 0.  1.
          1    1    3    3  501    0  0.24447738700E+03 -0.75438967681E+01  0.31294513835E+02  0.24658761066E+03  0.00000000000E+00 0.  1.
         21    1    1    2  502  501 -0.33933716128E+02 -0.60744131354E+01  0.86741715759E+01  0.35547669933E+02  0.00000000000E+00 0. -1.
<scales pt_clust_4="550.00000" pt_clust_5="550.00000" pt_clust_6="34.47311"></scales>
<mgrwt>
<rscale>  0 0.30000000E+03</rscale>
<asrwt>  1 0.34473114E+02</asrwt>
<pdfrwt beam="1">  1        1 0.84856085E+00 0.30000000E+03</pdfrwt>
<pdfrwt beam="2">0</pdfrwt>
<totfact> 0.42092282E-04</totfact>
</mgrwt>
<clustering>
<clus scale="   34.473">  1  6  2 -1</clus>
<clus scale="  468.856">  4  5 -1 -1</clus>
<clus scale="  300.000">  1  4  2 -1</clus>
</clustering>
</event>
<event>
 6    1  0.1033679E-011  0.3000000E+03  0.7818608E-02  0.1093470E+00
          1   -1    0    0  502    0  0.00000000000E+00  0.00000000000E+00  0.23427395090E+03  0.23427395090E+03  0.00000000000E+00 0.  1.
         13   -1    0    0    0    0 -0.00000000000E+00 -0.00000000000E+00 -0.27500000000E+03  0.27500000000E+03  0.00000000000E+00 0.  1.
    9000005    2    1    2  501    0  0.39555565190E+02  0.19966274315E+02 -0.30270736967E+02  0.46374804180E+03  0.46063286238E+03 0.  0.
         13    1    3    3    0    0 -0.19643227434E+03  0.61941722203E+02 -0.76358084290E+02  0.21966559218E+03  0.00000000000E+00 0.  1.
          3    1    3    3  501    0  0.23598783953E+03 -0.41975447888E+02  0.46087347323E+02  0.24408244962E+03  0.00000000000E+00 0.  1.
         21    1    1    2  502  501 -0.39555565190E+02 -0.19966274315E+02 -0.10455312134E+02  0.45525909100E+02  0.00000000000E+00 0.  1.
<scales pt_clust_4="550.00000" pt_clust_5="550.00000" pt_clust_6="44.30911"></scales>
<mgrwt>
<rscale>  0 0.30000000E+03</rscale>
<asrwt>  1 0.44309105E+02</asrwt>
<pdfrwt beam="1">  1        1 0.85190528E+00 0.30000000E+03</pdfrwt>
<pdfrwt beam="2">0</pdfrwt>
<totfact> 0.37391706E-04</totfact>
</mgrwt>
<clustering>
<clus scale="   44.309">  1  6  2 -1</clus>
<clus scale="  460.633">  4  5 -1 -1</clus>
<clus scale="  300.000">  1  4  2 -1</clus>
</clustering>
</event>
<event>
 6    1  0.1033679E-011  0.3000000E+03  0.7818608E-02  0.1093470E+00
          1   -1    0    0  502    0  0.00000000000E+00  0.00000000000E+00  0.24878999812E+03  0.24878999812E+03  0.00000000000E+00 0.  1.
         13   -1    0    0    0    0 -0.00000000000E+00 -0.00000000000E+00 -0.27500000000E+03  0.27500000000E+03  0.00000000000E+00 0.  1.
    9000005    2    1    2  501    0 -0.95558033905E+01  0.31940413993E+02 -0.51760531256E+02  0.48178603431E+03  0.47783587855E+03 0.  0.
         13    1    3    3    0    0  0.16953878966E+03  0.10156087776E+03 -0.16612450248E+03  0.25817700017E+03  0.00000000000E+00 0.  1.
          3    1    3    3  501    0 -0.17909459305E+03 -0.69620463762E+02  0.11436397122E+03  0.22360903414E+03  0.00000000000E+00 0.  1.
         21    1    1    2  502  501  0.95558033905E+01 -0.31940413993E+02  0.25550529376E+02  0.42003963812E+02  0.00000000000E+00 0.  1.
<scales pt_clust_4="550.00000" pt_clust_5="550.00000" pt_clust_6="33.33922"></scales>
<mgrwt>
<rscale>  0 0.30000000E+03</rscale>
<asrwt>  1 0.33339218E+02</asrwt>
<pdfrwt beam="1">  1        1 0.90469090E+00 0.30000000E+03</pdfrwt>
<pdfrwt beam="2">0</pdfrwt>
<totfact> 0.94562708E-05</totfact>
</mgrwt>
<clustering>
<clus scale="   33.339">  1  6  2 -1</clus>
<clus scale="  477.836">  4  5 -1 -1</clus>
<clus scale="  300.000">  1  4  2 -1</clus>
</clustering>
</event>
<event>
 6    1  0.1033679E-011  0.3000000E+03  0.7818608E-02  0.1093470E+00
          1   -1    0    0  502    0  0.00000000000E+00  0.00000000000E+00  0.24517852291E+03  0.24517852291E+03  0.00000000000E+00 0.  1.
         13   -1    0    0    0    0 -0.00000000000E+00 -0.00000000000E+00 -0.27500000000E+03  0.27500000000E+03  0.00000000000E+00 0.  1.
    9000005    2    1    2  501    0  0.11807133928E+02 -0.41240081591E+02 -0.19699635741E+02  0.47610353665E+03  0.47375769041E+03 0.  0.
         13    1    3    3    0    0 -0.17526349368E+03 -0.75041143573E+02  0.13284118901E+03  0.23236877360E+03  0.00000000000E+00 0.  1.
          1    1    3    3  501    0  0.18707062761E+03  0.33801061982E+02 -0.15254082475E+03  0.24373476305E+03  0.00000000000E+00 0.  1.
         21    1    1    2  502  501 -0.11807133928E+02  0.41240081591E+02 -0.10121841351E+02  0.44074986257E+02  0.00000000000E+00 0. -1.
<scales pt_clust_4="550.00000" pt_clust_5="550.00000" pt_clust_6="42.89702"></scales>
<mgrwt>
<rscale>  0 0.30000000E+03</rscale>
<asrwt>  1 0.42897023E+02</asrwt>
<pdfrwt beam="1">  1        1 0.89155827E+00 0.30000000E+03</pdfrwt>
<pdfrwt beam="2">0</pdfrwt>
<totfact> 0.13331001E-04</totfact>
</mgrwt>
<clustering>
<clus scale="   42.897">  1  6  2 -1</clus>
<clus scale="  473.758">  4  5 -1 -1</clus>
<clus scale="  300.000">  1  4  2 -1</clus>
</clustering>
</event>
<event>
 6    1  0.1033679E-011  0.3000000E+03  0.7818608E-02  0.1093470E+00
          1   -1    0    0  502    0  0.00000000000E+00  0.00000000000E+00  0.24340244565E+03  0.24340244565E+03  0.00000000000E+00 0.  1.
         13   -1    0    0    0    0 -0.00000000000E+00 -0.00000000000E+00 -0.27500000000E+03  0.27500000000E+03  0.00000000000E+00 0.  1.
    9000005    2    1    2  501    0  0.32655466852E+02 -0.16071642851E+02 -0.49230860975E+02  0.47795976124E+03  0.47402233964E+03 0.  0.
         13    1    3    3    0    0 -0.21343346447E+03 -0.25941227321E+02  0.34654759492E+02  0.21777911604E+03  0.00000000000E+00 0.  1.
          3    1    3    3  501    0  0.24608893132E+03  0.98695844697E+01 -0.83885620468E+02  0.26018064520E+03  0.00000000000E+00 0.  1.
         21    1    1    2  502  501 -0.32655466852E+02  0.16071642851E+02  0.17633306623E+02  0.40442684403E+02  0.00000000000E+00 0.  1.
<scales pt_clust_4="550.00000" pt_clust_5="550.00000" pt_clust_6="36.39612"></scales>
<mgrwt>
<rscale>  0 0.30000000E+03</rscale>
<asrwt>  1 0.36396115E+02</asrwt>
<pdfrwt beam="1">  1        1 0.88509980E+00 0.30000000E+03</pdfrwt>
<pdfrwt beam="2">0</pdfrwt>
<totfact> 0.16794555E-04</totfact>
</mgrwt>
<clustering>
<clus scale="   36.396">  1  6  2 -1</clus>
<clus scale="  474.022">  4  5 -1 -1</clus>
<clus scale="  300.000">  1  4  2 -1</clus>
</clustering>
</event>
<event>
 6    1  0.1033679E-011  0.3000000E+03  0.7818608E-02  0.1093470E+00
          1   -1    0    0  502    0  0.00000000000E+00  0.00000000000E+00  0.22163220303E+03  0.22163220303E+03  0.00000000000E+00 0.  1.
         13   -1    0    0    0    0 -0.00000000000E+00 -0.00000000000E+00 -0.27500000000E+03  0.27500000000E+03  0.00000000000E+00 0.  1.
    9000005    2    1    2  501    0 -0.10135482260E+02  0.28713979419E+02 -0.66998939834E+02  0.46327011870E+03  0.45738728046E+03 0.  0.
         13    1    3    3    0    0 -0.18416179582E+03 -0.12304034661E+03 -0.70222503854E+02  0.23234821709E+03  0.00000000000E+00 0.  1.
          1    1    3    3  501    0  0.17402631356E+03  0.15175432603E+03  0.32235640194E+01  0.23092190162E+03  0.00000000000E+00 0.  1.
         21    1    1    2  502  501  0.10135482260E+02 -0.28713979419E+02  0.13631142861E+02  0.33362084323E+02  0.00000000000E+00 0.  1.
<scales pt_clust_4="550.00000" pt_clust_5="550.00000" pt_clust_6="30.45030"></scales>
<mgrwt>
<rscale>  0 0.30000000E+03</rscale>
<asrwt>  1 0.30450297E+02</asrwt>
<pdfrwt beam="1">  1        1 0.80593528E+00 0.30000000E+03</pdfrwt>
<pdfrwt beam="2">0</pdfrwt>
<totfact> 0.96251110E-04</totfact>
</mgrwt>
<clustering>
<clus scale="   30.450">  1  6  2 -1</clus>
<clus scale="  457.387">  4  5 -1 -1</clus>
<clus scale="  300.000">  1  4  2 -1</clus>
</clustering>
</event>
<event>
 6    1  0.1033679E-011  0.3000000E+03  0.7818608E-02  0.1093470E+00
          1   -1    0    0  502    0  0.00000000000E+00  0.00000000000E+00  0.24145184941E+03  0.24145184941E+03  0.00000000000E+00 0.  1.
         13   -1    0    0    0    0 -0.00000000000E+00 -0.00000000000E+00 -0.27500000000E+03  0.27500000000E+03  0.00000000000E+00 0.  1.
    9000005    2    1    2  501    0 -0.15580831080E+02  0.25916606650E+02 -0.20902211013E+02  0.48367453125E+03  0.48227556123E+03 0.  0.
         13    1    3    3    0    0 -0.22785695612E+03  0.10718417457E+03  0.20473097387E+02  0.25263884786E+03  0.00000000000E+00 0.  1.
          1    1    3    3  501    0  0.21227612504E+03 -0.81267567918E+02 -0.41375308400E+02  0.23103568340E+03  0.00000000000E+00 0.  1.
         21    1    1    2  502  501  0.15580831080E+02 -0.25916606650E+02 -0.12645939580E+02  0.32777318152E+02  0.00000000000E+00 0. -1.
<scales pt_clust_4="550.00000" pt_clust_5="550.00000" pt_clust_6="30.23961"></scales>
<mgrwt>
<rscale>  0 0.30000000E+03</rscale>
<asrwt>  1 0.30239605E+02</asrwt>
<pdfrwt beam="1">  1        1 0.87800673E+00 0.30000000E+03</pdfrwt>
<pdfrwt beam="2">0</pdfrwt>
<totfact> 0.21432433E-04</totfact>
</mgrwt>
<clustering>
<clus scale="   30.240">  1  6  2 -1</clus>
<clus scale="  482.276">  4  5 -1 -1</clus>
<clus scale="  300.000">  1  4  2 -1</clus>
</clustering>
</event>
<event>
 6    1  0.1033679E-011  0.3000000E+03  0.7818608E-02  0.1093470E+00
          1   -1    0    0  502    0  0.00000000000E+00  0.00000000000E+00  0.22776406610E+03  0.22776406610E+03  0.00000000000E+00 0.  1.
         13   -1    0    0    0    0 -0.00000000000E+00 -0.00000000000E+00 -0.27500000000E+03  0.27500000000E+03  0.00000000000E+00 0.  1.
    9000005    2    1    2  501    0  0.55894125690E+01 -0.33195588070E+02 -0.61478103204E+02  0.46621234949E+03  0.46091345071E+03 0.  0.
         13    1    3    3    0    0  0.11065416601E+03  0.12851638647E+03 -0.17397138638E+03  0.24295441820E+03  0.00000000000E+00 0.  1.
          3    1    3    3  501    0 -0.10506475344E+03 -0.16171197454E+03  0.11249328318E+03  0.22325793129E+03  0.00000000000E+00 0.  1.
         21    1    1    2  502  501 -0.55894125690E+01  0.33195588070E+02  0.14242169302E+02  0.36551716603E+02  0.00000000000E+00 0. -1.
<scales pt_clust_4="550.00000" pt_clust_5="550.00000" pt_clust_6="33.66287"></scales>
<mgrwt>
<rscale>  0 0.30000000E+03</rscale>
<asrwt>  1 0.33662867E+02</asrwt>
<pdfrwt beam="1">  1        1 0.82823297E+00 0.30000000E+03</pdfrwt>
<pdfrwt beam="2">0</pdfrwt>
<totfact> 0.61619134E-04</totfact>
</mgrwt>
<clustering>
<clus scale="   33.663">  1  6  2 -1</clus>
<clus scale="  460.913">  4  5 -1 -1</clus>
<clus scale="  300.000">  1  4  2 -1</clus>
</clustering>
</event>
<event>
 6    1  0.1033679E-011  0.3000000E+03  0.7818608E-02  0.1093470E+00
          1   -1    0    0  502    0  0.00000000000E+00  0.00000000000E+00  0.22906284285E+03  0.22906284285E+03  0.00000000000E+00 0.  1.
         13   -1    0    0    0    0 -0.00000000000E+00 -0.00000000000E+00 -0.27500000000E+03  0.27500000000E+03  0.00000000000E+00 0.  1.
    9000005    2    1    2  501    0  0.90009905696E+01 -0.40239990638E+02 -0.37654768445E+02  0.46200487523E+03  0.45861786758E+03 0.  0.
         13    1    3    3    0    0  0.16485232147E+02 -0.25000046446E+03 -0.17841798244E+02  0.25117787497E+03  0.00000000000E+00 0.  1.
          3    1    3    3  501    0 -0.74842415777E+01  0.20976047382E+03 -0.19812970201E+02  0.21082700026E+03  0.00000000000E+00 0.  1.
         21    1    1    2  502  501 -0.90009905696E+01  0.40239990638E+02 -0.82823887075E+01  0.42057967622E+02  0.00000000000E+00 0. -1.
<scales pt_clust_4="550.00000" pt_clust_5="550.00000" pt_clust_6="41.23441"></scales>
<mgrwt>
<rscale>  0 0.30000000E+03</rscale>
<asrwt>  1 0.41234408E+02</asrwt>
<pdfrwt beam="1">  1        1 0.83295579E+00 0.30000000E+03</pdfrwt>
<pdfrwt beam="2">0</pdfrwt>
<totfact> 0.54352154E-04</totfact>
</mgrwt>
<clustering>
<clus scale="   41.234">  1  6  2 -1</clus>
<clus scale="  458.618">  4  5 -1 -1</clus>
<clus scale="  300.000">  1  4  2 -1</clus>
</clustering>
</event>
<event>
 6    1  0.1033679E-011  0.3000000E+03  0.7818608E-02  0.1093470E+00
          1   -1    0    0  502    0  0.00000000000E+00  0.00000000000E+00  0.25274377447E+03  0.25274377447E+03  0.00000000000E+00 0.  1.
         13   -1    0    0    0    0 -0.00000000000E+00 -0.00000000000E+00 -0.27500000000E+03  0.27500000000E+03  0.00000000000E+00 0.  1.
    9000005    2    1    2  501    0  0.21203207893E+02  0.33576107089E+02 -0.38906003468E+02  0.48468397770E+03  0.48148515049E+03 0.  0.
         13    1    3    3    0    0 -0.93774350212E+02  0.13174730566E+03  0.16487536103E+03  0.23094342593E+03  0.00000000000E+00 0.  1.
          1    1    3    3  501    0  0.11497755810E+03 -0.98171198567E+02 -0.20378136450E+03  0.25374055177E+03  0.00000000000E+00 0.  1.
         21    1    1    2  502  501 -0.21203207893E+02 -0.33576107089E+02  0.16649777937E+02  0.43059796766E+02  0.00000000000E+00 0.  1.
<scales pt_clust_4="550.00000" pt_clust_5="550.00000" pt_clust_6="39.71059"></scales>
<mgrwt>
<rscale>  0 0.30000000E+03</rscale>
<asrwt>  1 0.39710590E+02</asrwt>
<pdfrwt beam="1">  1        1 0.91906827E+00 0.30000000E+03</pdfrwt>
<pdfrwt beam="2">0</pdfrwt>
<totfact> 0.42795317E-05</totfact>
</mgrwt>
<clustering>
<clus scale="   39.711">  1  6  2 -1</clus>
<clus scale="  481.485">  4  5 -1 -1</clus>
<clus scale="  300.000">  1  4  2 -1</clus>
</clustering>
</event>
<event>
 6    1  0.1033679E-011  0.3000000E+03  0.7818608E-02  0.1093470E+00
          1   -1    0    0  502    0  0.00000000000E+00  0.00000000000E+00  0.22114756110E+03  0.22114756110E+03  0.00000000000E+00 0.  1.
         13   -1    0    0    0    0 -0.00000000000E+00 -0.00000000000E+00 -0.27500000000E+03  0.27500000000E+03  0.00000000000E+00 0.  1.
    9000005    2    1    2  501    0  0.28593846394E+02 -0.10622102083E+02 -0.47236061644E+02  0.46493516689E+03  0.46152250952E+03 0.  0.
         13    1    3    3    0    0  0.14786397092E+03 -0.18342005674E+03 -0.87171048249E+02  0.25120800696E+03  0.00000000000E+00 0.  1.
          1    1    3    3  501    0 -0.11927012453E+03  0.17279795465E+03  0.39934986605E+02  0.21372715993E+03  0.00000000000E+00 0.  1.
         21    1    1    2  502  501 -0.28593846394E+02  0.10622102083E+02 -0.66163772532E+01  0.31212394209E+02  0.00000000000E+00 0. -1.
<scales pt_clust_4="550.00000" pt_clust_5="550.00000" pt_clust_6="30.50308"></scales>
<mgrwt>
<rscale>  0 0.30000000E+03</rscale>
<asrwt>  1 0.30503082E+02</asrwt>
<pdfrwt beam="1">  1        1 0.80417295E+00 0.30000000E+03</pdfrwt>
<pdfrwt beam="2">0</pdfrwt>
<totfact> 0.99219976E-04</totfact>
</mgrwt>
<clustering>
<clus scale="   30.503">  1  6  2 -1</clus>
<clus scale="  461.523">  4  5 -1 -1</clus>
<clus scale="  300.000">  1  4  2 -1</clus>
</clustering>
</event>
<event>
 6    1  0.1033679E-011  0.3000000E+03  0.7818608E-02  0.1093470E+00
          1   -1    0    0  502    0  0.00000000000E+00  0.00000000000E+00  0.22757393236E+03  0.22757393236E+03  0.00000000000E+00 0.  1.
         13   -1    0    0    0    0 -0.00000000000E+00 -0.00000000000E+00 -0.27500000000E+03  0.27500000000E+03  0.00000000000E+00 0.  1.
    9000005    2    1    2  501    0  0.25612076098E+02 -0.17644650382E+02 -0.70188524690E+02  0.46403250556E+03  0.45763787549E+03 0.  0.
         13    1    3    3    0    0 -0.18549436940E+01  0.54880324818E+01  0.19567197717E+03  0.19575771240E+03  0.00000000000E+00 0.  1.
          1    1    3    3  501    0  0.27467019792E+02 -0.23132682864E+02 -0.26586050186E+03  0.26827479315E+03  0.00000000000E+00 0.  1.
         21    1    1    2  502  501 -0.25612076098E+02  0.17644650382E+02  0.22762457054E+02  0.38541426807E+02  0.00000000000E+00 0.  1.
<scales pt_clust_4="550.00000" pt_clust_5="550.00000" pt_clust_6="31.10164"></scales>
<mgrwt>
<rscale>  0 0.30000000E+03</rscale>
<asrwt>  1 0.31101642E+02</asrwt>
<pdfrwt beam="1">  1        1 0.82754157E+00 0.30000000E+03</pdfrwt>
<pdfrwt beam="2">0</pdfrwt>
<totfact> 0.63421770E-04</totfact>
</mgrwt>
<clustering>
<clus scale="   31.102">  1  6  2 -1</clus>
<clus scale="  457.638">  4  5 -1 -1</clus>
<clus scale="  300.000">  1  4  2 -1</clus>
</clustering>
</event>
<event>
 6    1  0.1033679E-011  0.3000000E+03  0.7818608E-02  0.1093470E+00
          1   -1    0    0  502    0  0.00000000000E+00  0.00000000000E+00  0.22931042229E+03  0.22931042229E+03  0.00000000000E+00 0.  1.
         13   -1    0    0    0    0 -0.00000000000E+00 -0.00000000000E+00 -0.27500000000E+03  0.27500000000E+03  0.00000000000E+00 0.  1.
    9000005    2    1    2  501    0  0.25839169193E+02  0.34098771715E+02 -0.45767962511E+02  0.46152730598E+03  0.45725524478E+03 0.  0.
         13    1    3    3    0    0 -0.92426044904E+02  0.21282254619E+03  0.30561565586E+02  0.23402995371E+03  0.00000000000E+00 0.  1.
          1    1    3    3  501    0  0.11826521410E+03 -0.17872377448E+03 -0.76329528097E+02  0.22749735227E+03  0.00000000000E+00 0.  1.
         21    1    1    2  502  501 -0.25839169193E+02 -0.34098771715E+02  0.78384800503E-01  0.42783116310E+02  0.00000000000E+00 0. -1.
<scales pt_clust_4="550.00000" pt_clust_5="550.00000" pt_clust_6="42.78304"></scales>
<mgrwt>
<rscale>  0 0.30000000E+03</rscale>
<asrwt>  1 0.42783045E+02</asrwt>
<pdfrwt beam="1">  1        1 0.83385608E+00 0.30000000E+03</pdfrwt>
<pdfrwt beam="2">0</pdfrwt>
<totfact> 0.53160326E-04</totfact>
</mgrwt>
<clustering>
<clus scale="   42.783">  1  6  2 -1</clus>
<clus scale="  457.255">  4  5 -1 -1</clus>
<clus scale="  300.000">  1  4  2 -1</clus>
</clustering>
</event>
<event>
 6    1  0.1033679E-011  0.3000000E+03  0.7818608E-02  0.1093470E+00
          1   -1    0    0  502    0  0.00000000000E+00  0.00000000000E+00  0.23946315412E+03  0.23946315412E+03  0.00000000000E+00 0.  1.
         13   -1    0    0    0    0 -0.00000000000E+00 -0.00000000000E+00 -0.27500000000E+03  0.27500000000E+03  0.00000000000E+00 0.  1.
    9000005    2    1    2  501    0  0.15788616741E+02 -0.25732772475E+02 -0.37914717447E+02  0.48417932558E+03  0.48174748315E+03 0.  0.
         13    1    3    3    0    0  0.18679744337E+03 -0.75116984328E+02 -0.16920995204E+03  0.26299782139E+03  0.00000000000E+00 0.  1.
          3    1    3    3  501    0 -0.17100882663E+03  0.49384211853E+02  0.13129523460E+03  0.22118150419E+03  0.00000000000E+00 0.  1.
         21    1    1    2  502  501 -0.15788616741E+02  0.25732772475E+02  0.23778715623E+01  0.30283828540E+02  0.00000000000E+00 0. -1.
<scales pt_clust_4="550.00000" pt_clust_5="550.00000" pt_clust_6="30.19033"></scales>
<mgrwt>
<rscale>  0 0.30000000E+03</rscale>
<asrwt>  1 0.30190330E+02</asrwt>
<pdfrwt beam="1">  1        1 0.87077511E+00 0.30000000E+03</pdfrwt>
<pdfrwt beam="2">0</pdfrwt>
<totfact> 0.25574692E-04</totfact>
</mgrwt>
<clustering>
<clus scale="   30.190">  1  6  2 -1</clus>
<clus scale="  481.747">  4  5 -1 -1</clus>
<clus scale="  300.000">  1  4  2 -1</clus>
</clustering>
</event>
<event>
 6    1  0.1033679E-011  0.3000000E+03  0.7818608E-02  0.1093470E+00
          1   -1    0    0  502    0  0.00000000000E+00  0.00000000000E+00  0.23330807706E+03  0.23330807706E+03  0.00000000000E+00 0.  1.
         13   -1    0    0    0    0 -0.00000000000E+00 -0.00000000000E+00 -0.27500000000E+03  0.27500000000E+03  0.00000000000E+00 0.  1.
    9000005    2    1    2  501    0 -0.33728312645E+02 -0.12849029518E+02 -0.60434866946E+02  0.46763874484E+03  0.46231042158E+03 0.  0.
         13    1    3    3    0    0 -0.85059453207E+02  0.14291087997E+03  0.13378373598E+03  0.21344019819E+03  0.00000000000E+00 0.  1.
          1    1    3    3  501    0  0.51331140563E+02 -0.15575990949E+03 -0.19421860292E+03  0.25419854664E+03  0.00000000000E+00 0.  1.
         21    1    1    2  502  501  0.33728312645E+02  0.12849029518E+02  0.18742944007E+02  0.40669332223E+02  0.00000000000E+00 0.  1.
<scales pt_clust_4="550.00000" pt_clust_5="550.00000" pt_clust_6="36.09289"></scales>
<mgrwt>
<rscale>  0 0.30000000E+03</rscale>
<asrwt>  1 0.36092889E+02</asrwt>
<pdfrwt beam="1">  1        1 0.84839301E+00 0.30000000E+03</pdfrwt>
<pdfrwt beam="2">0</pdfrwt>
<totfact> 0.41881635E-04</totfact>
</mgrwt>
<clustering>
<clus scale="   36.093">  1  6  2 -1</clus>
<clus scale="  462.310">  4  5 -1 -1</clus>
<clus scale="  300.000">  1  4  2 -1</clus>
</clustering>
</event>
<event>
 6    1  0.1033679E-011  0.3000000E+03  0.7818608E-02  0.1093470E+00
          1   -1    0    0  502    0  0.00000000000E+00  0.00000000000E+00  0.23523915498E+03  0.23523915498E+03  0.00000000000E+00 0.  1.
         13   -1    0    0    0    0 -0.00000000000E+00 -0.00000000000E+00 -0.27500000000E+03  0.27500000000E+03  0.00000000000E+00 0.  1.
    9000005    2    1    2  501    0 -0.28109202839E+02 -0.19593827518E+02 -0.59376924321E+02  0.47075705868E+03  0.46573870764E+03 0.  0.
         13    1    3    3    0    0 -0.89466548660E+01 -0.24229979828E+03 -0.15478975767E+02  0.24295850174E+03  0.00000000000E+00 0.  1.
          3    1    3    3  501    0 -0.19162547973E+02  0.22270597076E+03 -0.43897948554E+02  0.22779855694E+03  0.00000000000E+00 0.  1.
         21    1    1    2  502  501  0.28109202839E+02  0.19593827518E+02  0.19616079305E+02  0.39482096301E+02  0.00000000000E+00 0. -1.
<scales pt_clust_4="550.00000" pt_clust_5="550.00000" pt_clust_6="34.26435"></scales>
<mgrwt>
<rscale>  0 0.30000000E+03</rscale>
<asrwt>  1 0.34264345E+02</asrwt>
<pdfrwt beam="1">  1        1 0.85541511E+00 0.30000000E+03</pdfrwt>
<pdfrwt beam="2">0</pdfrwt>
<totfact> 0.36232563E-04</totfact>
</mgrwt>
<clustering>
<clus scale="   34.264">  1  6  2 -1</clus>
<clus scale="  465.739">  4  5 -1 -1</clus>
<clus scale="  300.000">  1  4  2 -1</clus>
</clustering>
</event>
<event>
 6    1  0.1033679E-011  0.3000000E+03  0.7818608E-02  0.1093470E+00
          1   -1    0    0  502    0  0.00000000000E+00  0.00000000000E+00  0.25415836244E+03  0.25415836244E+03  0.00000000000E+00 0.  1.
         13   -1    0    0    0    0 -0.00000000000E+00 -0.00000000000E+00 -0.27500000000E+03  0.27500000000E+03  0.00000000000E+00 0.  1.
    9000005    2    1    2  501    0 -0.41482414175E+02 -0.16720124196E+01 -0.60313219753E+02  0.47187318013E+03  0.46615772796E+03 0.  0.
         13    1    3    3    0    0  0.62344624573E+02  0.15972915659E+03  0.11940871832E+03  0.20894663838E+03  0.00000000000E+00 0.  1.
          3    1    3    3  501    0 -0.10382703875E+03 -0.16140116901E+03 -0.17972193808E+03  0.26292654175E+03  0.00000000000E+00 0.  1.
         21    1    1    2  502  501  0.41482414175E+02  0.16720124196E+01  0.39471582189E+02  0.57285182306E+02  0.00000000000E+00 0.  1.
<scales pt_clust_4="550.00000" pt_clust_5="550.00000" pt_clust_6="41.51610"></scales>
<mgrwt>
<rscale>  0 0.30000000E+03</rscale>
<asrwt>  1 0.41516097E+02</asrwt>
<pdfrwt beam="1">  1        1 0.92421223E+00 0.30000000E+03</pdfrwt>
<pdfrwt beam="2">0</pdfrwt>
<totfact> 0.32993505E-05</totfact>
</mgrwt>
<clustering>
<clus scale="   41.516">  1  6  2 -1</clus>
<clus scale="  466.158">  4  5 -1 -1</clus>
<clus scale="  300.000">  1  4  2 -1</clus>
</clustering>
</event>
<event>
 6    1  0.1033679E-011  0.3000000E+03  0.7818608E-02  0.1093470E+00
          1   -1    0    0  502    0  0.00000000000E+00  0.00000000000E+00  0.23558710898E+03  0.23558710898E+03  0.00000000000E+00 0.  1.
         13   -1    0    0    0    0 -0.00000000000E+00 -0.00000000000E+00 -0.27500000000E+03  0.27500000000E+03  0.00000000000E+00 0.  1.
    9000005    2    1    2  501    0 -0.59903194171E+01 -0.34003845381E+02 -0.60780922596E+02  0.46998245160E+03  0.46475481583E+03 0.  0.
         13    1    3    3    0    0  0.11382514908E+03  0.73459657373E+02  0.15172676087E+03  0.20340475852E+03  0.00000000000E+00 0.  1.
          1    1    3    3  501    0 -0.11981546850E+03 -0.10746350275E+03 -0.21250768347E+03  0.26657769308E+03  0.00000000000E+00 0.  1.
         21    1    1    2  502  501  0.59903194171E+01  0.34003845381E+02  0.21368031578E+02  0.40604657380E+02  0.00000000000E+00 0. -1.
<scales pt_clust_4="550.00000" pt_clust_5="550.00000" pt_clust_6="34.52746"></scales>
<mgrwt>
<rscale>  0 0.30000000E+03</rscale>
<asrwt>  1 0.34527459E+02</asrwt>
<pdfrwt beam="1">  1        1 0.85668040E+00 0.30000000E+03</pdfrwt>
<pdfrwt beam="2">0</pdfrwt>
<totfact> 0.35130111E-04</totfact>
</mgrwt>
<clustering>
<clus scale="   34.527">  1  6  2 -1</clus>
<clus scale="  464.755">  4  5 -1 -1</clus>
<clus scale="  300.000">  1  4  2 -1</clus>
</clustering>
</event>
<event>
 6    1  0.1033679E-011  0.3000000E+03  0.7818608E-02  0.1093470E+00
          1   -1    0    0  502    0  0.00000000000E+00  0.00000000000E+00  0.24975079790E+03  0.24975079790E+03  0.00000000000E+00 0.  1.
         13   -1    0    0    0    0 -0.00000000000E+00 -0.00000000000E+00 -0.27500000000E+03  0.27500000000E+03  0.00000000000E+00 0.  1.
    9000005    2    1    2  501    0  0.25585209532E+01 -0.35637547488E+02 -0.30966400774E+02  0.48856700068E+03  0.48627380698E+03 0.  0.
         13    1    3    3    0    0  0.15621861264E+03 -0.16407755540E+03  0.10170954100E+03  0.24833551870E+03  0.00000000000E+00 0.  1.
          3    1    3    3  501    0 -0.15366009169E+03  0.12844000791E+03 -0.13267594177E+03  0.24023148198E+03  0.00000000000E+00 0.  1.
         21    1    1    2  502  501 -0.25585209532E+01  0.35637547488E+02  0.57171986726E+01  0.36183797217E+02  0.00000000000E+00 0.  1.
<scales pt_clust_4="550.00000" pt_clust_5="550.00000" pt_clust_6="35.72927"></scales>
<mgrwt>
<rscale>  0 0.30000000E+03</rscale>
<asrwt>  1 0.35729271E+02</asrwt>
<pdfrwt beam="1">  1        1 0.90818472E+00 0.30000000E+03</pdfrwt>
<pdfrwt beam="2">0</pdfrwt>
<totfact> 0.79001904E-05</totfact>
</mgrwt>
<clustering>
<clus scale="   35.729">  1  6  2 -1</clus>
<clus scale="  486.274">  4  5 -1 -1</clus>
<clus scale="  300.000">  1  4  2 -1</clus>
</clustering>
</event>
<event>
 6    1  0.1033679E-011  0.3000000E+03  0.7818608E-02  0.1093470E+00
          1   -1    0    0  502    0  0.00000000000E+00  0.00000000000E+00  0.25149353703E+03  0.25149353703E+03  0.00000000000E+00 0.  1.
         13   -1    0    0    0    0 -0.00000000000E+00 -0.00000000000E+00 -0.27500000000E+03  0.27500000000E+03  0.00000000000E+00 0.  1.
    9000005    2    1    2  501    0 -0.30045959386E+02 -0.16208821465E+02 -0.65852858440E+02  0.47209957801E+03  0.46623591348E+03 0.  0.
         13    1    3    3    0    0  0.68164541856E+01 -0.85773328755E+02  0.18776624486E+03  0.20654222494E+03  0.00000000000E+00 0.  1.
          3    1    3    3  501    0 -0.36862413572E+02  0.69564507290E+02 -0.25361910330E+03  0.26555735307E+03  0.00000000000E+00 0.  1.
         21    1    1    2  502  501  0.30045959386E+02  0.16208821465E+02  0.42346395466E+02  0.54393959018E+02  0.00000000000E+00 0. -1.
<scales pt_clust_4="550.00000" pt_clust_5="550.00000" pt_clust_6="34.13921"></scales>
<mgrwt>
<rscale>  0 0.30000000E+03</rscale>
<asrwt>  1 0.34139209E+02</asrwt>
<pdfrwt beam="1">  1        1 0.91452195E+00 0.30000000E+03</pdfrwt>
<pdfrwt beam="2">0</pdfrwt>
<totfact> 0.55820886E-05</totfact>
</mgrwt>
<clustering>
<clus scale="   34.139">  1  6  2 -1</clus>
<clus scale="  466.236">  4  5 -1 -1</clus>
<clus scale="  300.000">  1  4  2 -1</clus>
</clustering>
</event>
<event>
 6    1  0.1033679E-011  0.3000000E+03  0.7818608E-02  0.1093470E+00
          1   -1    0    0  502    0  0.00000000000E+00  0.00000000000E+00  0.23712877306E+03  0.23712877306E+03  0.00000000000E+00 0.  1.
         13   -1    0    0    0    0 -0.00000000000E+00 -0.00000000000E+00 -0.27500000000E+03  0.27500000000E+03  0.00000000000E+00 0.  1.
    9000005    2    1    2  501    0 -0.36561676710E+02  0.25235321854E+01 -0.38148652847E+02  0.47547906115E+03  0.47252713515E+03 0.  0.
         13    1    3    3    0    0 -0.52094607566E+02 -0.99311595696E+02 -0.23103150378E+03  0.25681159810E+03  0.00000000000E+00 0.  1.
          1    1    3    3  501    0  0.15532930856E+02  0.10183512788E+03  0.19288285094E+03  0.21866746305E+03  0.00000000000E+00 0.  1.
         21    1    1    2  502  501  0.36561676710E+02 -0.25235321854E+01  0.27742591183E+00  0.36649711918E+02  0.00000000000E+00 0.  1.
<scales pt_clust_4="550.00000" pt_clust_5="550.00000" pt_clust_6="36.64866"></scales>
<mgrwt>
<rscale>  0 0.30000000E+03</rscale>
<asrwt>  1 0.36648662E+02</asrwt>
<pdfrwt beam="1">  1        1 0.86228645E+00 0.30000000E+03</pdfrwt>
<pdfrwt beam="2">0</pdfrwt>
<totfact> 0.30305162E-04</totfact>
</mgrwt>
<clustering>
<clus scale="   36.649">  1  6  2 -1</clus>
<clus scale="  472.527">  4  5 -1 -1</clus>
<clus scale="  300.000">  1  4  2 -1</clus>
</clustering>
</event>
<event>
 6    1  0.1033679E-011  0.3000000E+03  0.7818608E-02  0.1093470E+00
          1   -1    0    0  502    0  0.00000000000E+00  0.00000000000E+00  0.22732272944E+03  0.22732272944E+03  0.00000000000E+00 0.  1.
         13   -1    0    0    0    0 -0.00000000000E+00 -0.00000000000E+00 -0.27500000000E+03  0.27500000000E+03  0.00000000000E+00 0.  1.
    9000005    2    1    2  501    0 -0.31292842903E+02  0.10942008843E+02 -0.38042616145E+02  0.46780032889E+03  0.46507089512E+03 0.  0.
         13    1    3    3    0    0  0.27087646788E+02  0.23399694763E+03 -0.13854356498E+02  0.23596664023E+03  0.00000000000E+00 0.  1.
          1    1    3    3  501    0 -0.58380489691E+02 -0.22305493878E+03 -0.24188259647E+02  0.23183368866E+03  0.00000000000E+00 0.  1.
         21    1    1    2  502  501  0.31292842903E+02 -0.10942008843E+02 -0.96346544135E+01  0.34522400555E+02  0.00000000000E+00 0.  1.
<scales pt_clust_4="550.00000" pt_clust_5="550.00000" pt_clust_6="33.15073"></scales>
<mgrwt>
<rscale>  0 0.30000000E+03</rscale>
<asrwt>  1 0.33150727E+02</asrwt>
<pdfrwt beam="1">  1        1 0.82662811E+00 0.30000000E+03</pdfrwt>
<pdfrwt beam="2">0</pdfrwt>
<totfact> 0.63825163E-04</totfact>
</mgrwt>
<clustering>
<clus scale="   33.151">  1  6  2 -1</clus>
<clus scale="  465.071">  4  5 -1 -1</clus>
<clus scale="  300.000">  1  4  2 -1</clus>
</clustering>
</event>
<event>
 6    1  0.1033679E-011  0.3000000E+03  0.7818608E-02  0.1093470E+00
          1   -1    0    0  502    0  0.00000000000E+00  0.00000000000E+00  0.24046553886E+03  0.24046553886E+03  0.00000000000E+00 0.  1.
         13   -1    0    0    0    0 -0.00000000000E+00 -0.00000000000E+00 -0.27500000000E+03  0.27500000000E+03  0.00000000000E+00 0.  1.
    9000005    2    1    2  501    0 -0.37607751713E+02 -0.33026370260E+01 -0.46072761516E+02  0.47598918169E+03  0.47224755301E+03 0.  0.
         13    1    3    3    0    0  0.59475481968E+02  0.19255412645E+03 -0.13221623253E+03  0.24103019876E+03  0.00000000000E+00 0.  1.
          1    1    3    3  501    0 -0.97083233682E+02 -0.19585676348E+03  0.86143471011E+02  0.23495898293E+03  0.00000000000E+00 0.  1.
         21    1    1    2  502  501  0.37607751713E+02  0.33026370260E+01  0.11538300379E+02  0.39476357176E+02  0.00000000000E+00 0.  1.
<scales pt_clust_4="550.00000" pt_clust_5="550.00000" pt_clust_6="37.75249"></scales>
<mgrwt>
<rscale>  0 0.30000000E+03</rscale>
<asrwt>  1 0.37752489E+02</asrwt>
<pdfrwt beam="1">  1        1 0.87442014E+00 0.30000000E+03</pdfrwt>
<pdfrwt beam="2">0</pdfrwt>
<totfact> 0.22492480E-04</totfact>
</mgrwt>
<clustering>
<clus scale="   37.752">  1  6  2 -1</clus>
<clus scale="  472.248">  4  5 -1 -1</clus>
<clus scale="  300.000">  1  4  2 -1</clus>
</clustering>
</event>
<event>
 6    1  0.1033679E-011  0.3000000E+03  0.7818608E-02  0.1093470E+00
          1   -1    0    0  502    0  0.00000000000E+00  0.00000000000E+00  0.23362870233E+03  0.23362870233E+03  0.00000000000E+00 0.  1.
         13   -1    0    0    0    0 -0.00000000000E+00 -0.00000000000E+00 -0.27500000000E+03  0.27500000000E+03  0.00000000000E+00 0.  1.
    9000005    2    1    2  501    0  0.16707999637E+02  0.25959248191E+02 -0.48862405679E+02  0.47686147838E+03  0.47334585142E+03 0.  0.
         13    1    3    3    0    0  0.14457518420E+03  0.14568147093E+03  0.11647316855E+03  0.23598956301E+03  0.00000000000E+00 0.  1.
          1    1    3    3  501    0 -0.12786718456E+03 -0.11972222274E+03 -0.16533557423E+03  0.24087191537E+03  0.00000000000E+00 0.  1.
         21    1    1    2  502  501 -0.16707999637E+02 -0.25959248191E+02  0.74911080118E+01  0.31767223954E+02  0.00000000000E+00 0. -1.
<scales pt_clust_4="550.00000" pt_clust_5="550.00000" pt_clust_6="30.87134"></scales>
<mgrwt>
<rscale>  0 0.30000000E+03</rscale>
<asrwt>  1 0.30871343E+02</asrwt>
<pdfrwt beam="1">  1        1 0.84955892E+00 0.30000000E+03</pdfrwt>
<pdfrwt beam="2">0</pdfrwt>
<totfact> 0.42075044E-04</totfact>
</mgrwt>
<clustering>
<clus scale="   30.871">  1  6  2 -1</clus>
<clus scale="  473.346">  4  5 -1 -1</clus>
<clus scale="  300.000">  1  4  2 -1</clus>
</clustering>
</event>
<event>
 6    1  0.1033679E-011  0.3000000E+03  0.7818608E-02  0.1093470E+00
          1   -1    0    0  502    0  0.00000000000E+00  0.00000000000E+00  0.24830082335E+03  0.24830082335E+03  0.00000000000E+00 0.  1.
         13   -1    0    0    0    0 -0.00000000000E+00 -0.00000000000E+00 -0.27500000000E+03  0.27500000000E+03  0.00000000000E+00 0.  1.
    9000005    2    1    2  501    0 -0.18241496791E+02 -0.43015606691E+02 -0.16919314251E+02  0.47556467004E+03  0.47296130663E+03 0.  0.
         13    1    3    3    0    0 -0.25623287418E+02 -0.13108830740E+02  0.22744881675E+03  0.22926264096E+03  0.00000000000E+00 0.  1.
          3    1    3    3  501    0  0.73817906268E+01 -0.29906775951E+02 -0.24436813100E+03  0.24630202908E+03  0.00000000000E+00 0.  1.
         21    1    1    2  502  501  0.18241496791E+02  0.43015606691E+02 -0.97798623984E+01  0.47736153309E+02  0.00000000000E+00 0. -1.
<scales pt_clust_4="550.00000" pt_clust_5="550.00000" pt_clust_6="46.72362"></scales>
<mgrwt>
<rscale>  0 0.30000000E+03</rscale>
<asrwt>  1 0.46723622E+02</asrwt>
<pdfrwt beam="1">  1        1 0.90291208E+00 0.30000000E+03</pdfrwt>
<pdfrwt beam="2">0</pdfrwt>
<totfact> 0.95382412E-05</totfact>
</mgrwt>
<clustering>
<clus scale="   46.724">  1  6  2 -1</clus>
<clus scale="  472.961">  4  5 -1 -1</clus>
<clus scale="  300.000">  1  4  2 -1</clus>
</clustering>
</event>
<event>
 6    1  0.1033679E-011  0.3000000E+03  0.7818608E-02  0.1093470E+00
          1   -1    0    0  502    0  0.00000000000E+00  0.00000000000E+00  0.24566007016E+03  0.24566007016E+03  0.00000000000E+00 0.  1.
         13   -1    0    0    0    0 -0.00000000000E+00 -0.00000000000E+00 -0.27500000000E+03  0.27500000000E+03  0.00000000000E+00 0.  1.
    9000005    2    1    2  501    0  0.26922927918E+02  0.30002267177E+02 -0.21094232604E+02  0.47951433398E+03  0.47735107600E+03 0.  0.
         13    1    3    3    0    0 -0.19296655484E+03 -0.77440458190E+02  0.68463972405E+02  0.21890735796E+03  0.00000000000E+00 0.  1.
          3    1    3    3  501    0  0.21988948276E+03  0.10744272537E+03 -0.89558205008E+02  0.26060697601E+03  0.00000000000E+00 0.  1.
         21    1    1    2  502  501 -0.26922927918E+02 -0.30002267177E+02 -0.82456972337E+01  0.41145736186E+02  0.00000000000E+00 0. -1.
<scales pt_clust_4="550.00000" pt_clust_5="550.00000" pt_clust_6="40.31106"></scales>
<mgrwt>
<rscale>  0 0.30000000E+03</rscale>
<asrwt>  1 0.40311062E+02</asrwt>
<pdfrwt beam="1">  1        1 0.89330935E+00 0.30000000E+03</pdfrwt>
<pdfrwt beam="2">0</pdfrwt>
<totfact> 0.12842617E-04</totfact>
</mgrwt>
<clustering>
<clus scale="   40.311">  1  6  2 -1</clus>
<clus scale="  477.351">  4  5 -1 -1</clus>
<clus scale="  300.000">  1  4  2 -1</clus>
</clustering>
</event>
<event>
 6    1  0.1033679E-011  0.3000000E+03  0.7818608E-02  0.1093470E+00
          1   -1    0    0  502    0  0.00000000000E+00  0.00000000000E+00  0.22465740348E+03  0.22465740348E+03  0.00000000000E+00 0.  1.
         13   -1    0    0    0    0 -0.00000000000E+00 -0.00000000000E+00 -0.27500000000E+03  0.27500000000E+03  0.00000000000E+00 0.  1.
    9000005    2    1    2  501    0 -0.23239383826E+02  0.27469598480E+02 -0.61042481208E+02  0.46211895208E+03  0.45665423852E+03 0.  0.
         13    1    3    3    0    0 -0.17378071407E+02 -0.88464268461E+02 -0.23572857047E+03  0.25238043327E+03  0.00000000000E+00 0.  1.
          1    1    3    3  501    0 -0.58613124196E+01  0.11593386694E+03  0.17468608927E+03  0.20973851880E+03  0.00000000000E+00 0.  1.
         21    1    1    2  502  501  0.23239383826E+02 -0.27469598480E+02  0.10699884685E+02  0.37538451401E+02  0.00000000000E+00 0. -1.
<scales pt_clust_4="550.00000" pt_clust_5="550.00000" pt_clust_6="35.98121"></scales>
<mgrwt>
<rscale>  0 0.30000000E+03</rscale>
<asrwt>  1 0.35981215E+02</asrwt>
<pdfrwt beam="1">  1        1 0.81693601E+00 0.30000000E+03</pdfrwt>
<pdfrwt beam="2">0</pdfrwt>
<totfact> 0.76368079E-04</totfact>
</mgrwt>
<clustering>
<clus scale="   35.981">  1  6  2 -1</clus>
<clus scale="  456.654">  4  5 -1 -1</clus>
<clus scale="  300.000">  1  4  2 -1</clus>
</clustering>
</event>
<event>
 6    1  0.1033679E-011  0.3000000E+03  0.7818608E-02  0.1093470E+00
          1   -1    0    0  502    0  0.00000000000E+00  0.00000000000E+00  0.24004858956E+03  0.24004858956E+03  0.00000000000E+00 0.  1.
         13   -1    0    0    0    0 -0.00000000000E+00 -0.00000000000E+00 -0.27500000000E+03  0.27500000000E+03  0.00000000000E+00 0.  1.
    9000005    2    1    2  501    0  0.33769250683E+02 -0.31914045585E+02 -0.44014571813E+02  0.46770928780E+03  0.46330964458E+03 0.  0.
         13    1    3    3    0    0  0.10977784322E+03 -0.63650530222E+02  0.18499693997E+03  0.22433553588E+03  0.00000000000E+00 0.  1.
          1    1    3    3  501    0 -0.76008592535E+02  0.31736484637E+02 -0.22901151178E+03  0.24337375192E+03  0.00000000000E+00 0.  1.
         21    1    1    2  502  501 -0.33769250683E+02  0.31914045585E+02  0.90631613729E+01  0.47339301763E+02  0.00000000000E+00 0. -1.
<scales pt_clust_4="550.00000" pt_clust_5="550.00000" pt_clust_6="46.46363"></scales>
<mgrwt>
<rscale>  0 0.30000000E+03</rscale>
<asrwt>  1 0.46463627E+02</asrwt>
<pdfrwt beam="1">  1        1 0.87290396E+00 0.30000000E+03</pdfrwt>
<pdfrwt beam="2">0</pdfrwt>
<totfact> 0.22461408E-04</totfact>
</mgrwt>
<clustering>
<clus scale="   46.464">  1  6  2 -1</clus>
<clus scale="  463.310">  4  5 -1 -1</clus>
<clus scale="  300.000">  1  4  2 -1</clus>
</clustering>
</event>
<event>
 6    1  0.1033679E-011  0.3000000E+03  0.7818608E-02  0.1093470E+00
          1   -1    0    0  502    0  0.00000000000E+00  0.00000000000E+00  0.23109629538E+03  0.23109629538E+03  0.00000000000E+00 0.  1.
         13   -1    0    0    0    0 -0.00000000000E+00 -0.00000000000E+00 -0.27500000000E+03  0.27500000000E+03  0.00000000000E+00 0.  1.
    9000005    2    1    2  501    0  0.56934325644E+01 -0.34217295646E+02 -0.23415177809E+02  0.46580959501E+03  0.46392571578E+03 0.  0.
         13    1    3    3    0    0 -0.13867373170E+03 -0.92883287666E+02 -0.17959932336E+03  0.24518080256E+03  0.00000000000E+00 0.  1.
          1    1    3    3  501    0  0.14436716427E+03  0.58665992020E+02  0.15618414555E+03  0.22062879245E+03  0.00000000000E+00 0.  1.
         21    1    1    2  502  501 -0.56934325644E+01  0.34217295646E+02 -0.20488526810E+02  0.40286700367E+02  0.00000000000E+00 0.  1.
<scales pt_clust_4="550.00000" pt_clust_5="550.00000" pt_clust_6="34.68775"></scales>
<mgrwt>
<rscale>  0 0.30000000E+03</rscale>
<asrwt>  1 0.34687746E+02</asrwt>
<pdfrwt beam="1">  1        1 0.84035017E+00 0.30000000E+03</pdfrwt>
<pdfrwt beam="2">0</pdfrwt>
<totfact> 0.49479004E-04</totfact>
</mgrwt>
<clustering>
<clus scale="   34.688">  1  6  2 -1</clus>
<clus scale="  463.926">  4  5 -1 -1</clus>
<clus scale="  300.000">  1  4  2 -1</clus>
</clustering>
</event>
<event>
 6    1  0.1033679E-011  0.3000000E+03  0.7818608E-02  0.1093470E+00
          1   -1    0    0  502    0  0.00000000000E+00  0.00000000000E+00  0.24762035101E+03  0.24762035101E+03  0.00000000000E+00 0.  1.
         13   -1    0    0    0    0 -0.00000000000E+00 -0.00000000000E+00 -0.27500000000E+03  0.27500000000E+03  0.00000000000E+00 0.  1.
    9000005    2    1    2  501    0  0.30278709906E+02 -0.19516150284E+01 -0.20342004150E+02  0.49147332034E+03  0.49011388309E+03 0.  0.
         13    1    3    3    0    0  0.73085428520E+02  0.23183418427E+03 -0.60340334068E+02  0.25045862886E+03  0.00000000000E+00 0.  1.
          1    1    3    3  501    0 -0.42806718614E+02 -0.23378579929E+03  0.39998329918E+02  0.24101469147E+03  0.00000000000E+00 0.  1.
         21    1    1    2  502  501 -0.30278709906E+02  0.19516150284E+01 -0.70376448412E+01  0.31147030672E+02  0.00000000000E+00 0. -1.
<scales pt_clust_4="550.00000" pt_clust_5="550.00000" pt_clust_6="30.34156"></scales>
<mgrwt>
<rscale>  0 0.30000000E+03</rscale>
<asrwt>  1 0.30341556E+02</asrwt>
<pdfrwt beam="1">  1        1 0.90043764E+00 0.30000000E+03</pdfrwt>
<pdfrwt beam="2">0</pdfrwt>
<totfact> 0.11202714E-04</totfact>
</mgrwt>
<clustering>
<clus scale="   30.342">  1  6  2 -1</clus>
<clus scale="  490.114">  4  5 -1 -1</clus>
<clus scale="  300.000">  1  4  2 -1</clus>
</clustering>
</event>
<event>
 6    1  0.1033679E-011  0.3000000E+03  0.7818608E-02  0.1093470E+00
          1   -1    0    0  502    0  0.00000000000E+00  0.00000000000E+00  0.23378500124E+03  0.23378500124E+03  0.00000000000E+00 0.  1.
         13   -1    0    0    0    0 -0.00000000000E+00 -0.00000000000E+00 -0.27500000000E+03  0.27500000000E+03  0.00000000000E+00 0.  1.
    9000005    2    1    2  501    0 -0.37144743013E+02  0.35423305677E+01 -0.58479697040E+02  0.46767113684E+03  0.46249771591E+03 0.  0.
         13    1    3    3    0    0  0.69949140457E+02 -0.13712542663E+03  0.13559674758E+03  0.20514078783E+03  0.00000000000E+00 0.  1.
          3    1    3    3  501    0 -0.10709388347E+03  0.14066775720E+03 -0.19407644462E+03  0.26253034900E+03  0.00000000000E+00 0.  1.
         21    1    1    2  502  501  0.37144743013E+02 -0.35423305677E+01  0.17264698277E+02  0.41113864400E+02  0.00000000000E+00 0.  1.
<scales pt_clust_4="550.00000" pt_clust_5="550.00000" pt_clust_6="37.31327"></scales>
<mgrwt>
<rscale>  0 0.30000000E+03</rscale>
<asrwt>  1 0.37313269E+02</asrwt>
<pdfrwt beam="1">  1        1 0.85012728E+00 0.30000000E+03</pdfrwt>
<pdfrwt beam="2">0</pdfrwt>
<totfact> 0.40106616E-04</totfact>
</mgrwt>
<clustering>
<clus scale="   37.313">  1  6  2 -1</clus>
<clus scale="  462.498">  4  5 -1 -1</clus>
<clus scale="  300.000">  1  4  2 -1</clus>
</clustering>
</event>
<event>
 6    1  0.1033679E-011  0.3000000E+03  0.7818608E-02  0.1093470E+00
          1   -1    0    0  502    0  0.00000000000E+00  0.00000000000E+00  0.24250124817E+03  0.24250124817E+03  0.00000000000E+00 0.  1.
         13   -1    0    0    0    0 -0.00000000000E+00 -0.00000000000E+00 -0.27500000000E+03  0.27500000000E+03  0.00000000000E+00 0.  1.
    9000005    2    1    2  501    0  0.20779919922E+02 -0.22747510883E+02 -0.65680021439E+02  0.47222155099E+03  0.46661555234E+03 0.  0.
         13    1    3    3    0    0 -0.35793677085E+02 -0.22039362457E+03  0.60080238484E+02  0.23122320845E+03  0.00000000000E+00 0.  1.
          3    1    3    3  501    0  0.56573597007E+02  0.19764611369E+03 -0.12576025992E+03  0.24099834254E+03  0.00000000000E+00 0.  1.
         21    1    1    2  502  501 -0.20779919922E+02  0.22747510883E+02  0.33181269606E+02  0.45279697172E+02  0.00000000000E+00 0.  1.
<scales pt_clust_4="550.00000" pt_clust_5="550.00000" pt_clust_6="30.80997"></scales>
<mgrwt>
<rscale>  0 0.30000000E+03</rscale>
<asrwt>  1 0.30809971E+02</asrwt>
<pdfrwt beam="1">  1        1 0.88182272E+00 0.30000000E+03</pdfrwt>
<pdfrwt beam="2">0</pdfrwt>
<totfact> 0.19173713E-04</totfact>
</mgrwt>
<clustering>
<clus scale="   30.810">  1  6  2 -1</clus>
<clus scale="  466.616">  4  5 -1 -1</clus>
<clus scale="  300.000">  1  4  2 -1</clus>
</clustering>
</event>
<event>
 6    1  0.1033679E-011  0.3000000E+03  0.7818608E-02  0.1093470E+00
          1   -1    0    0  502    0  0.00000000000E+00  0.00000000000E+00  0.25561277919E+03  0.25561277919E+03  0.00000000000E+00 0.  1.
         13   -1    0    0    0    0 -0.00000000000E+00 -0.00000000000E+00 -0.27500000000E+03  0.27500000000E+03  0.00000000000E+00 0.  1.
    9000005    2    1    2  501    0  0.28543446658E+02 -0.42676217486E+02 -0.29269035719E+02  0.47832857362E+03  0.47466362827E+03 0.  0.
         13    1    3    3    0    0  0.18788044548E+01 -0.59029831688E+02 -0.24924147589E+03  0.25614324945E+03  0.00000000000E+00 0.  1.
          3    1    3    3  501    0  0.26664642203E+02  0.16353614202E+02  0.21997244017E+03  0.22218532417E+03  0.00000000000E+00 0.  1.
         21    1    1    2  502  501 -0.28543446658E+02  0.42676217486E+02  0.98818149109E+01  0.52284205569E+02  0.00000000000E+00 0.  1.
<scales pt_clust_4="550.00000" pt_clust_5="550.00000" pt_clust_6="51.34187"></scales>
<mgrwt>
<rscale>  0 0.30000000E+03</rscale>
<asrwt>  1 0.51341873E+02</asrwt>
<pdfrwt beam="1">  1        1 0.92950102E+00 0.30000000E+03</pdfrwt>
<pdfrwt beam="2">0</pdfrwt>
<totfact> 0.24997517E-05</totfact>
</mgrwt>
<clustering>
<clus scale="   51.342">  1  6  2 -1</clus>
<clus scale="  474.664">  4  5 -1 -1</clus>
<clus scale="  300.000">  1  4  2 -1</clus>
</clustering>
</event>
<event>
 6    1  0.1033679E-011  0.3000000E+03  0.7818608E-02  0.1093470E+00
          1   -1    0    0  502    0  0.00000000000E+00  0.00000000000E+00  0.22141973821E+03  0.22141973821E+03  0.00000000000E+00 0.  1.
         13   -1    0    0    0    0 -0.00000000000E+00 -0.00000000000E+00 -0.27500000000E+03  0.27500000000E+03  0.00000000000E+00 0.  1.
    9000005    2    1    2  501    0 -0.24800640693E+02  0.21045367054E+02 -0.54114274538E+02  0.46388876185E+03  0.45957202854E+03 0.  0.
         13    1    3    3    0    0 -0.14856209845E+03  0.58836570591E+02 -0.20834388172E+03  0.26256353933E+03  0.00000000000E+00 0.  1.
          3    1    3    3  501    0  0.12376145775E+03 -0.37791203537E+02  0.15422960719E+03  0.20132522252E+03  0.00000000000E+00 0.  1.
         21    1    1    2  502  501  0.24800640693E+02 -0.21045367054E+02  0.53401274945E+00  0.32530976359E+02  0.00000000000E+00 0. -1.
<scales pt_clust_4="550.00000" pt_clust_5="550.00000" pt_clust_6="32.52659"></scales>
<mgrwt>
<rscale>  0 0.30000000E+03</rscale>
<asrwt>  1 0.32526593E+02</asrwt>
<pdfrwt beam="1">  1        1 0.80516268E+00 0.30000000E+03</pdfrwt>
<pdfrwt beam="2">0</pdfrwt>
<totfact> 0.96345047E-04</totfact>
</mgrwt>
<clustering>
<clus scale="   32.527">  1  6  2 -1</clus>
<clus scale="  459.572">  4  5 -1 -1</clus>
<clus scale="  300.000">  1  4  2 -1</clus>
</clustering>
</event>
<event>
 6    1  0.1033679E-011  0.3000000E+03  0.7818608E-02  0.1093470E+00
          1   -1    0    0  502    0  0.00000000000E+00  0.00000000000E+00  0.23265262198E+03  0.23265262198E+03  0.00000000000E+00 0.  1.
         13   -1    0    0    0    0 -0.00000000000E+00 -0.00000000000E+00 -0.27500000000E+03  0.27500000000E+03  0.00000000000E+00 0.  1.
    9000005    2    1    2  501    0 -0.37178962116E+02 -0.10508935290E+02 -0.23525611377E+02  0.46467621165E+03  0.46246925772E+03 0.  0.
         13    1    3    3    0    0 -0.19128965806E+03 -0.12978235488E+02  0.14193502617E+03  0.23854919729E+03  0.00000000000E+00 0.  1.
          3    1    3    3  501    0  0.15411069594E+03  0.24693001989E+01 -0.16546063754E+03  0.22612701436E+03  0.00000000000E+00 0.  1.
         21    1    1    2  502  501  0.37178962116E+02  0.10508935290E+02 -0.18821766644E+02  0.42976410327E+02  0.00000000000E+00 0.  1.
<scales pt_clust_4="550.00000" pt_clust_5="550.00000" pt_clust_6="38.63566"></scales>
<mgrwt>
<rscale>  0 0.30000000E+03</rscale>
<asrwt>  1 0.38635663E+02</asrwt>
<pdfrwt beam="1">  1        1 0.84600953E+00 0.30000000E+03</pdfrwt>
<pdfrwt beam="2">0</pdfrwt>
<totfact> 0.43462825E-04</totfact>
</mgrwt>
<clustering>
<clus scale="   38.636">  1  6  2 -1</clus>
<clus scale="  462.469">  4  5 -1 -1</clus>
<clus scale="  300.000">  1  4  2 -1</clus>
</clustering>
</event>
<event>
 6    1  0.1033679E-011  0.3000000E+03  0.7818608E-02  0.1093470E+00
          1   -1    0    0  502    0  0.00000000000E+00  0.00000000000E+00  0.23187286066E+03  0.23187286066E+03  0.00000000000E+00 0.  1.
         13   -1    0    0    0    0 -0.00000000000E+00 -0.00000000000E+00 -0.27500000000E+03  0.27500000000E+03  0.00000000000E+00 0.  1.
    9000005    2    1    2  501    0 -0.27276366765E+02  0.18439111521E+02 -0.71809522502E+02  0.46320731221E+03  0.45642130268E+03 0.  0.
         13    1    3    3    0    0  0.10843680728E+03  0.12637081834E+03 -0.19054436925E+03  0.25305193450E+03  0.00000000000E+00 0.  1.
          3    1    3    3  501    0 -0.13571317405E+03 -0.10793170682E+03  0.11873484675E+03  0.21015537771E+03  0.00000000000E+00 0.  1.
         21    1    1    2  502  501  0.27276366765E+02 -0.18439111521E+02  0.28682383158E+02  0.43665548447E+02  0.00000000000E+00 0.  1.
<scales pt_clust_4="550.00000" pt_clust_5="550.00000" pt_clust_6="32.92417"></scales>
<mgrwt>
<rscale>  0 0.30000000E+03</rscale>
<asrwt>  1 0.32924171E+02</asrwt>
<pdfrwt beam="1">  1        1 0.84317404E+00 0.30000000E+03</pdfrwt>
<pdfrwt beam="2">0</pdfrwt>
<totfact> 0.47387578E-04</totfact>
</mgrwt>
<clustering>
<clus scale="   32.924">  1  6  2 -1</clus>
<clus scale="  456.421">  4  5 -1 -1</clus>
<clus scale="  300.000">  1  4  2 -1</clus>
</clustering>
</event>
<event>
 6    1  0.1033679E-011  0.3000000E+03  0.7818608E-02  0.1093470E+00
          1   -1    0    0  502    0  0.00000000000E+00  0.00000000000E+00  0.24856372829E+03  0.24856372829E+03  0.00000000000E+00 0.  1.
         13   -1    0    0    0    0 -0.00000000000E+00 -0.00000000000E+00 -0.27500000000E+03  0.27500000000E+03  0.00000000000E+00 0.  1.
    9000005    2    1    2  501    0 -0.20583060742E+02 -0.25857564187E+02 -0.44769963051E+02  0.48576954549E+03  0.48257167936E+03 0.  0.
         13    1    3    3    0    0 -0.17360998815E+03 -0.18528490872E+03 -0.69908797893E+02  0.26335938450E+03  0.00000000000E+00 0.  1.
          1    1    3    3  501    0  0.15302692741E+03  0.15942734453E+03  0.25138834841E+02  0.22241016099E+03  0.00000000000E+00 0.  1.
         21    1    1    2  502  501  0.20583060742E+02  0.25857564187E+02  0.18333691345E+02  0.37794182800E+02  0.00000000000E+00 0. -1.
<scales pt_clust_4="550.00000" pt_clust_5="550.00000" pt_clust_6="33.04960"></scales>
<mgrwt>
<rscale>  0 0.30000000E+03</rscale>
<asrwt>  1 0.33049599E+02</asrwt>
<pdfrwt beam="1">  1        1 0.90386810E+00 0.30000000E+03</pdfrwt>
<pdfrwt beam="2">0</pdfrwt>
<totfact> 0.97983623E-05</totfact>
</mgrwt>
<clustering>
<clus scale="   33.050">  1  6  2 -1</clus>
<clus scale="  482.572">  4  5 -1 -1</clus>
<clus scale="  300.000">  1  4  2 -1</clus>
</clustering>
</event>
<event>
 6    1  0.1033679E-011  0.3000000E+03  0.7818608E-02  0.1093470E+00
          1   -1    0    0  502    0  0.00000000000E+00  0.00000000000E+00  0.23381426249E+03  0.23381426249E+03  0.00000000000E+00 0.  1.
         13   -1    0    0    0    0 -0.00000000000E+00 -0.00000000000E+00 -0.27500000000E+03  0.27500000000E+03  0.00000000000E+00 0.  1.
    9000005    2    1    2  501    0 -0.14570628463E+02  0.40045337742E+02 -0.40624872075E+02  0.46619681467E+03  0.46246422293E+03 0.  0.
         13    1    3    3    0    0 -0.19611820172E+03 -0.48504039740E+02  0.94642141335E+02  0.22309667374E+03  0.00000000000E+00 0.  1.
          1    1    3    3  501    0  0.18154757325E+03  0.88549377483E+02 -0.13526701341E+03  0.24310014094E+03  0.00000000000E+00 0.  1.
         21    1    1    2  502  501  0.14570628463E+02 -0.40045337742E+02 -0.56086543079E+00  0.42617447820E+02  0.00000000000E+00 0. -1.
<scales pt_clust_4="550.00000" pt_clust_5="550.00000" pt_clust_6="42.61376"></scales>
<mgrwt>
<rscale>  0 0.30000000E+03</rscale>
<asrwt>  1 0.42613757E+02</asrwt>
<pdfrwt beam="1">  1        1 0.85023368E+00 0.30000000E+03</pdfrwt>
<pdfrwt beam="2">0</pdfrwt>
<totfact> 0.39055661E-04</totfact>
</mgrwt>
<clustering>
<clus scale="   42.614">  1  6  2 -1</clus>
<clus scale="  462.464">  4  5 -1 -1</clus>
<clus scale="  300.000">  1  4  2 -1</clus>
</clustering>
</event>
<event>
 6    1  0.1033679E-011  0.3000000E+03  0.7818608E-02  0.1093470E+00
          1   -1    0    0  502    0  0.00000000000E+00  0.00000000000E+00  0.23554150185E+03  0.23554150185E+03  0.00000000000E+00 0.  1.
         13   -1    0    0    0    0 -0.00000000000E+00 -0.00000000000E+00 -0.27500000000E+03  0.27500000000E+03  0.00000000000E+00 0.  1.
    9000005    2    1    2  501    0 -0.31135577035E+02 -0.71307403823E+01 -0.38569108683E+02  0.47858743123E+03  0.47596016805E+03 0.  0.
         13    1    3    3    0    0 -0.12168171814E+03 -0.18946582750E+02 -0.23313381515E+03  0.26366036732E+03  0.00000000000E+00 0.  1.
          3    1    3    3  501    0  0.90546141105E+02  0.11815842368E+02  0.19456470647E+03  0.21492706391E+03  0.00000000000E+00 0.  1.
         21    1    1    2  502  501  0.31135577035E+02  0.71307403823E+01 -0.88938946217E+00  0.31954070622E+02  0.00000000000E+00 0.  1.
<scales pt_clust_4="550.00000" pt_clust_5="550.00000" pt_clust_6="31.94169"></scales>
<mgrwt>
<rscale>  0 0.30000000E+03</rscale>
<asrwt>  1 0.31941691E+02</asrwt>
<pdfrwt beam="1">  1        1 0.85651455E+00 0.30000000E+03</pdfrwt>
<pdfrwt beam="2">0</pdfrwt>
<totfact> 0.35789641E-04</totfact>
</mgrwt>
<clustering>
<clus scale="   31.942">  1  6  2 -1</clus>
<clus scale="  475.960">  4  5 -1 -1</clus>
<clus scale="  300.000">  1  4  2 -1</clus>
</clustering>
</event>
<event>
 6    1  0.1033679E-011  0.3000000E+03  0.7818608E-02  0.1093470E+00
          1   -1    0    0  502    0  0.00000000000E+00  0.00000000000E+00  0.26914756584E+03  0.26914756584E+03  0.00000000000E+00 0.  1.
         13   -1    0    0    0    0 -0.00000000000E+00 -0.00000000000E+00 -0.27500000000E+03  0.27500000000E+03  0.00000000000E+00 0.  1.
    9000005    2    1    2  501    0  0.23002765492E+02 -0.31241800186E+02 -0.37932181364E+02  0.49380585868E+03  0.49081584977E+03 0.  0.
         13    1    3    3    0    0 -0.10884901188E+03  0.19300894146E+03 -0.68360067889E+02  0.23189147839E+03  0.00000000000E+00 0.  1.
          1    1    3    3  501    0  0.13185177737E+03 -0.22425074165E+03  0.30427886525E+02  0.26191438029E+03  0.00000000000E+00 0.  1.
         21    1    1    2  502  501 -0.23002765492E+02  0.31241800186E+02  0.32079747207E+02  0.50341707162E+02  0.00000000000E+00 0.  1.
<scales pt_clust_4="550.00000" pt_clust_5="550.00000" pt_clust_6="38.79661"></scales>
<mgrwt>
<rscale>  0 0.30000000E+03</rscale>
<asrwt>  1 0.38796615E+02</asrwt>
<pdfrwt beam="1">  1        1 0.97871842E+00 0.30000000E+03</pdfrwt>
<pdfrwt beam="2">0</pdfrwt>
<totfact> 0.31392453E-06</totfact>
</mgrwt>
<clustering>
<clus scale="   38.797">  1  6  2 -1</clus>
<clus scale="  490.816">  4  5 -1 -1</clus>
<clus scale="  300.000">  1  4  2 -1</clus>
</clustering>
</event>
<event>
 6    1  0.1033679E-011  0.3000000E+03  0.7818608E-02  0.1093470E+00
          1   -1    0    0  502    0  0.00000000000E+00  0.00000000000E+00  0.24108593766E+03  0.24108593766E+03  0.00000000000E+00 0.  1.
         13   -1    0    0    0    0 -0.00000000000E+00 -0.00000000000E+00 -0.27500000000E+03  0.27500000000E+03  0.00000000000E+00 0.  1.
    9000005    2    1    2  501    0 -0.15434017038E+02  0.40034627264E+02 -0.57912549275E+02  0.46692388281E+03  0.46132750700E+03 0.  0.
         13    1    3    3    0    0 -0.28419730605E+02 -0.20608514033E+03 -0.71783150588E+02  0.22007177661E+03  0.00000000000E+00 0.  1.
          3    1    3    3  501    0  0.12985713567E+02  0.24611976759E+03  0.13870601314E+02  0.24685210620E+03  0.00000000000E+00 0.  1.
         21    1    1    2  502  501  0.15434017038E+02 -0.40034627264E+02  0.23998486935E+02  0.49162054852E+02  0.00000000000E+00 0. -1.
<scales pt_clust_4="550.00000" pt_clust_5="550.00000" pt_clust_6="42.90665"></scales>
<mgrwt>
<rscale>  0 0.30000000E+03</rscale>
<asrwt>  1 0.42906646E+02</asrwt>
<pdfrwt beam="1">  1        1 0.87667614E+00 0.30000000E+03</pdfrwt>
<pdfrwt beam="2">0</pdfrwt>
<totfact> 0.20784512E-04</totfact>
</mgrwt>
<clustering>
<clus scale="   42.907">  1  6  2 -1</clus>
<clus scale="  461.328">  4  5 -1 -1</clus>
<clus scale="  300.000">  1  4  2 -1</clus>
</clustering>
</event>
<event>
 6    1  0.1033679E-011  0.3000000E+03  0.7818608E-02  0.1093470E+00
          1   -1    0    0  502    0  0.00000000000E+00  0.00000000000E+00  0.26470495567E+03  0.26470495567E+03  0.00000000000E+00 0.  1.
         13   -1    0    0    0    0 -0.00000000000E+00 -0.00000000000E+00 -0.27500000000E+03  0.27500000000E+03  0.00000000000E+00 0.  1.
    9000005    2    1    2  501    0  0.72969915438E+01  0.39247315182E+02 -0.39033627895E+02  0.49051650154E+03  0.48732865331E+03 0.  0.
         13    1    3    3    0    0  0.20707386364E+03  0.50014730592E+02 -0.15112454469E+03  0.26118898577E+03  0.00000000000E+00 0.  1.
          3    1    3    3  501    0 -0.19977687210E+03 -0.10767415410E+02  0.11209091680E+03  0.22932751577E+03  0.00000000000E+00 0.  1.
         21    1    1    2  502  501 -0.72969915438E+01 -0.39247315182E+02  0.28738583561E+02  0.49188454130E+02  0.00000000000E+00 0.  1.
<scales pt_clust_4="550.00000" pt_clust_5="550.00000" pt_clust_6="39.91989"></scales>
<mgrwt>
<rscale>  0 0.30000000E+03</rscale>
<asrwt>  1 0.39919893E+02</asrwt>
<pdfrwt beam="1">  1        1 0.96256348E+00 0.30000000E+03</pdfrwt>
<pdfrwt beam="2">0</pdfrwt>
<totfact> 0.65203298E-06</totfact>
</mgrwt>
<clustering>
<clus scale="   39.920">  1  6  2 -1</clus>
<clus scale="  487.329">  4  5 -1 -1</clus>
<clus scale="  300.000">  1  4  2 -1</clus>
</clustering>
</event>
<event>
 6    1  0.1033679E-011  0.3000000E+03  0.7818608E-02  0.1093470E+00
          1   -1    0    0  502    0  0.00000000000E+00  0.00000000000E+00  0.24142538184E+03  0.24142538184E+03  0.00000000000E+00 0.  1.
         13   -1    0    0    0    0 -0.00000000000E+00 -0.00000000000E+00 -0.27500000000E+03  0.27500000000E+03  0.00000000000E+00 0.  1.
    9000005    2    1    2  501    0 -0.30697759340E+02 -0.39838030624E+02 -0.40879749512E+02  0.46560426362E+03  0.46107131257E+03 0.  0.
         13    1    3    3    0    0 -0.11716806898E+03 -0.20395903868E+03  0.74991191283E+02  0.24688322061E+03  0.00000000000E+00 0.  1.
          1    1    3    3  501    0  0.86470309642E+02  0.16412100806E+03 -0.11587094079E+03  0.21872104301E+03  0.00000000000E+00 0.  1.
         21    1    1    2  502  501  0.30697759340E+02  0.39838030624E+02  0.73051313492E+01  0.50821118214E+02  0.00000000000E+00 0. -1.
<scales pt_clust_4="550.00000" pt_clust_5="550.00000" pt_clust_6="50.29335"></scales>
<mgrwt>
<rscale>  0 0.30000000E+03</rscale>
<asrwt>  1 0.50293351E+02</asrwt>
<pdfrwt beam="1">  1        1 0.87791048E+00 0.30000000E+03</pdfrwt>
<pdfrwt beam="2">0</pdfrwt>
<totfact> 0.19572290E-04</totfact>
</mgrwt>
<clustering>
<clus scale="   50.293">  1  6  2 -1</clus>
<clus scale="  461.071">  4  5 -1 -1</clus>
<clus scale="  300.000">  1  4  2 -1</clus>
</clustering>
</event>
<event>
 6    1  0.1033679E-011  0.3000000E+03  0.7818608E-02  0.1093470E+00
          1   -1    0    0  502    0  0.00000000000E+00  0.00000000000E+00  0.24402514501E+03  0.24402514501E+03  0.00000000000E+00 0.  1.
         13   -1    0    0    0    0 -0.00000000000E+00 -0.00000000000E+00 -0.27500000000E+03  0.27500000000E+03  0.00000000000E+00 0.  1.
    9000005    2    1    2  501    0  0.28006987338E+02  0.27889070422E+02 -0.47748625018E+02  0.47608855281E+03  0.47203621401E+03 0.  0.
         13    1    3    3    0    0  0.21959178973E+01 -0.12121752639E+03 -0.21729794140E+03  0.24883107944E+03  0.00000000000E+00 0.  1.
          1    1    3    3  501    0  0.25811069441E+02  0.14910659681E+03  0.16954931638E+03  0.22725747337E+03  0.00000000000E+00 0.  1.
         21    1    1    2  502  501 -0.28006987338E+02 -0.27889070422E+02  0.16773770026E+02  0.42936592199E+02  0.00000000000E+00 0. -1.
<scales pt_clust_4="550.00000" pt_clust_5="550.00000" pt_clust_6="39.52457"></scales>
<mgrwt>
<rscale>  0 0.30000000E+03</rscale>
<asrwt>  1 0.39524569E+02</asrwt>
<pdfrwt beam="1">  1        1 0.88736416E+00 0.30000000E+03</pdfrwt>
<pdfrwt beam="2">0</pdfrwt>
<totfact> 0.15393758E-04</totfact>
</mgrwt>
<clustering>
<clus scale="   39.525">  1  6  2 -1</clus>
<clus scale="  472.036">  4  5 -1 -1</clus>
<clus scale="  300.000">  1  4  2 -1</clus>
</clustering>
</event>
<event>
 6    1  0.1033679E-011  0.3000000E+03  0.7818608E-02  0.1093470E+00
          1   -1    0    0  502    0  0.00000000000E+00  0.00000000000E+00  0.23600294923E+03  0.23600294923E+03  0.00000000000E+00 0.  1.
         13   -1    0    0    0    0 -0.00000000000E+00 -0.00000000000E+00 -0.27500000000E+03  0.27500000000E+03  0.00000000000E+00 0.  1.
    9000005    2    1    2  501    0 -0.31549374944E+02  0.26449252696E+02 -0.54752817048E+02  0.46692154501E+03  0.46186895564E+03 0.  0.
         13    1    3    3    0    0 -0.95949915091E+01 -0.37638254718E+02 -0.25375204226E+03  0.25670761779E+03  0.00000000000E+00 0.  1.
          1    1    3    3  501    0 -0.21954383435E+02  0.64087507414E+02  0.19899922521E+03  0.21021392721E+03  0.00000000000E+00 0.  1.
         21    1    1    2  502  501  0.31549374944E+02 -0.26449252696E+02  0.15755766281E+02  0.44081404227E+02  0.00000000000E+00 0.  1.
<scales pt_clust_4="550.00000" pt_clust_5="550.00000" pt_clust_6="41.16948"></scales>
<mgrwt>
<rscale>  0 0.30000000E+03</rscale>
<asrwt>  1 0.41169479E+02</asrwt>
<pdfrwt beam="1">  1        1 0.85819254E+00 0.30000000E+03</pdfrwt>
<pdfrwt beam="2">0</pdfrwt>
<totfact> 0.32804870E-04</totfact>
</mgrwt>
<clustering>
<clus scale="   41.169">  1  6  2 -1</clus>
<clus scale="  461.869">  4  5 -1 -1</clus>
<clus scale="  300.000">  1  4  2 -1</clus>
</clustering>
</event>
<event>
 6    1  0.1033679E-011  0.3000000E+03  0.7818608E-02  0.1093470E+00
          1   -1    0    0  502    0  0.00000000000E+00  0.00000000000E+00  0.22927000378E+03  0.22927000378E+03  0.00000000000E+00 0.  1.
         13   -1    0    0    0    0 -0.00000000000E+00 -0.00000000000E+00 -0.27500000000E+03  0.27500000000E+03  0.00000000000E+00 0.  1.
    9000005    2    1    2  501    0 -0.59167093635E+01 -0.32026386093E+02 -0.43160768534E+02  0.47160047995E+03  0.46849062306E+03 0.  0.
         13    1    3    3    0    0  0.17150377653E+03 -0.16550015908E+03  0.24263587086E+02  0.23956746373E+03  0.00000000000E+00 0.  1.
          1    1    3    3  501    0 -0.17742048589E+03  0.13347377298E+03 -0.67424355620E+02  0.23203301623E+03  0.00000000000E+00 0.  1.
         21    1    1    2  502  501  0.59167093635E+01  0.32026386093E+02 -0.25692276891E+01  0.32669523823E+02  0.00000000000E+00 0.  1.
<scales pt_clust_4="550.00000" pt_clust_5="550.00000" pt_clust_6="32.56834"></scales>
<mgrwt>
<rscale>  0 0.30000000E+03</rscale>
<asrwt>  1 0.32568341E+02</asrwt>
<pdfrwt beam="1">  1        1 0.83370910E+00 0.30000000E+03</pdfrwt>
<pdfrwt beam="2">0</pdfrwt>
<totfact> 0.56050290E-04</totfact>
</mgrwt>
<clustering>
<clus scale="   32.568">  1  6  2 -1</clus>
<clus scale="  468.491">  4  5 -1 -1</clus>
<clus scale="  300.000">  1  4  2 -1</clus>
</clustering>
</event>
<event>
 6    1  0.1033679E-011  0.3000000E+03  0.7818608E-02  0.1093470E+00
          1   -1    0    0  502    0  0.00000000000E+00  0.00000000000E+00  0.24439180991E+03  0.24439180991E+03  0.00000000000E+00 0.  1.
         13   -1    0    0    0    0 -0.00000000000E+00 -0.00000000000E+00 -0.27500000000E+03  0.27500000000E+03  0.00000000000E+00 0.  1.
    9000005    2    1    2  501    0 -0.33663230838E+02 -0.13611051060E+02 -0.67325258242E+02  0.46775251368E+03  0.46145557732E+03 0.  0.
         13    1    3    3    0    0  0.12835597680E+02 -0.23562761469E+03 -0.30220950651E+02  0.23790424803E+03  0.00000000000E+00 0.  1.
          1    1    3    3  501    0 -0.46498828518E+02  0.22201656363E+03 -0.37104307591E+02  0.22984826565E+03  0.00000000000E+00 0.  1.
         21    1    1    2  502  501  0.33663230838E+02  0.13611051060E+02  0.36717068151E+02  0.51639296229E+02  0.00000000000E+00 0.  1.
<scales pt_clust_4="550.00000" pt_clust_5="550.00000" pt_clust_6="36.31079"></scales>
<mgrwt>
<rscale>  0 0.30000000E+03</rscale>
<asrwt>  1 0.36310795E+02</asrwt>
<pdfrwt beam="1">  1        1 0.88869749E+00 0.30000000E+03</pdfrwt>
<pdfrwt beam="2">0</pdfrwt>
<totfact> 0.14990792E-04</totfact>
</mgrwt>
<clustering>
<clus scale="   36.311">  1  6  2 -1</clus>
<clus scale="  461.456">  4  5 -1 -1</clus>
<clus scale="  300.000">  1  4  2 -1</clus>
</clustering>
</event>
<event>
 6    1  0.1033679E-011  0.3000000E+03  0.7818608E-02  0.1093470E+00
          1   -1    0    0  502    0  0.00000000000E+00  0.00000000000E+00  0.24002472572E+03  0.24002472572E+03  0.00000000000E+00 0.  1.
         13   -1    0    0    0    0 -0.00000000000E+00 -0.00000000000E+00 -0.27500000000E+03  0.27500000000E+03  0.00000000000E+00 0.  1.
    9000005    2    1    2  501    0  0.39698057691E+02  0.39331462821E+01 -0.43563021929E+02  0.47421841697E+03  0.47052520091E+03 0.  0.
         13    1    3    3    0    0 -0.15805121427E+03  0.33669062167E+02 -0.17243200569E+03  0.23631882842E+03  0.00000000000E+00 0.  1.
          3    1    3    3  501    0  0.19774927196E+03 -0.29735915885E+02  0.12886898376E+03  0.23789958855E+03  0.00000000000E+00 0.  1.
         21    1    1    2  502  501 -0.39698057691E+02 -0.39331462821E+01  0.85877476448E+01  0.40806308749E+02  0.00000000000E+00 0. -1.
<scales pt_clust_4="550.00000" pt_clust_5="550.00000" pt_clust_6="39.89242"></scales>
<mgrwt>
<rscale>  0 0.30000000E+03</rscale>
<asrwt>  1 0.39892423E+02</asrwt>
<pdfrwt beam="1">  1        1 0.87281718E+00 0.30000000E+03</pdfrwt>
<pdfrwt beam="2">0</pdfrwt>
<totfact> 0.23134200E-04</totfact>
</mgrwt>
<clustering>
<clus scale="   39.892">  1  6  2 -1</clus>
<clus scale="  470.525">  4  5 -1 -1</clus>
<clus scale="  300.000">  1  4  2 -1</clus>
</clustering>
</event>
<event>
 6    1  0.1033679E-011  0.3000000E+03  0.7818608E-02  0.1093470E+00
          1   -1    0    0  502    0  0.00000000000E+00  0.00000000000E+00  0.22945129860E+03  0.22945129860E+03  0.00000000000E+00 0.  1.
         13   -1    0    0    0    0 -0.00000000000E+00 -0.00000000000E+00 -0.27500000000E+03  0.27500000000E+03  0.00000000000E+00 0.  1.
    9000005    2    1    2  501    0 -0.35697017546E+02  0.34893077254E+01 -0.32511755170E+02  0.46628830216E+03  0.46376859982E+03 0.  0.
         13    1    3    3    0    0  0.42082749255E+02 -0.18864190338E+03  0.10263944955E+03  0.21884145425E+03  0.00000000000E+00 0.  1.
          3    1    3    3  501    0 -0.77779766801E+02  0.19213121110E+03 -0.13515120472E+03  0.24744684791E+03  0.00000000000E+00 0.  1.
         21    1    1    2  502  501  0.35697017546E+02 -0.34893077254E+01 -0.13036946229E+02  0.38162996437E+02  0.00000000000E+00 0. -1.
<scales pt_clust_4="550.00000" pt_clust_5="550.00000" pt_clust_6="35.86717"></scales>
<mgrwt>
<rscale>  0 0.30000000E+03</rscale>
<asrwt>  1 0.35867166E+02</asrwt>
<pdfrwt beam="1">  1        1 0.83436836E+00 0.30000000E+03</pdfrwt>
<pdfrwt beam="2">0</pdfrwt>
<totfact> 0.54429345E-04</totfact>
</mgrwt>
<clustering>
<clus scale="   35.867">  1  6  2 -1</clus>
<clus scale="  463.769">  4  5 -1 -1</clus>
<clus scale="  300.000">  1  4  2 -1</clus>
</clustering>
</event>
<event>
 6    1  0.1033679E-011  0.3000000E+03  0.7818608E-02  0.1093470E+00
          1   -1    0    0  502    0  0.00000000000E+00  0.00000000000E+00  0.23462409301E+03  0.23462409301E+03  0.00000000000E+00 0.  1.
         13   -1    0    0    0    0 -0.00000000000E+00 -0.00000000000E+00 -0.27500000000E+03  0.27500000000E+03  0.00000000000E+00 0.  1.
    9000005    2    1    2  501    0  0.20646725967E+02 -0.23507450315E+02 -0.55464400678E+02  0.47488866218E+03  0.47059967510E+03 0.  0.
         13    1    3    3    0    0  0.21642969771E+03  0.63864495197E+02 -0.11376192080E+03  0.25270983839E+03  0.00000000000E+00 0.  1.
          1    1    3    3  501    0 -0.19578297174E+03 -0.87371945512E+02  0.58297520121E+02  0.22217882378E+03  0.00000000000E+00 0.  1.
         21    1    1    2  502  501 -0.20646725967E+02  0.23507450315E+02  0.15088493691E+02  0.34735430836E+02  0.00000000000E+00 0. -1.
<scales pt_clust_4="550.00000" pt_clust_5="550.00000" pt_clust_6="31.28718"></scales>
<mgrwt>
<rscale>  0 0.30000000E+03</rscale>
<asrwt>  1 0.31287178E+02</asrwt>
<pdfrwt beam="1">  1        1 0.85317852E+00 0.30000000E+03</pdfrwt>
<pdfrwt beam="2">0</pdfrwt>
<totfact> 0.38768760E-04</totfact>
</mgrwt>
<clustering>
<clus scale="   31.287">  1  6  2 -1</clus>
<clus scale="  470.600">  4  5 -1 -1</clus>
<clus scale="  300.000">  1  4  2 -1</clus>
</clustering>
</event>
<event>
 6    1  0.1033679E-011  0.3000000E+03  0.7818608E-02  0.1093470E+00
          1   -1    0    0  502    0  0.00000000000E+00  0.00000000000E+00  0.22009465533E+03  0.22009465533E+03  0.00000000000E+00 0.  1.
         13   -1    0    0    0    0 -0.00000000000E+00 -0.00000000000E+00 -0.27500000000E+03  0.27500000000E+03  0.00000000000E+00 0.  1.
    9000005    2    1    2  501    0  0.20271791888E+02  0.24170143056E+02 -0.50877764524E+02  0.46329272515E+03  0.45940881673E+03 0.  0.
         13    1    3    3    0    0  0.13680717347E+03 -0.12443061900E+03 -0.16056022428E+03  0.24490562933E+03  0.00000000000E+00 0.  1.
          1    1    3    3  501    0 -0.11653538158E+03  0.14860076205E+03  0.10968245975E+03  0.21838709582E+03  0.00000000000E+00 0.  1.
         21    1    1    2  502  501 -0.20271791888E+02 -0.24170143056E+02 -0.40275801432E+01  0.31801930186E+02  0.00000000000E+00 0. -1.
<scales pt_clust_4="550.00000" pt_clust_5="550.00000" pt_clust_6="31.54588"></scales>
<mgrwt>
<rscale>  0 0.30000000E+03</rscale>
<asrwt>  1 0.31545877E+02</asrwt>
<pdfrwt beam="1">  1        1 0.80034420E+00 0.30000000E+03</pdfrwt>
<pdfrwt beam="2">0</pdfrwt>
<totfact> 0.10515301E-03</totfact>
</mgrwt>
<clustering>
<clus scale="   31.546">  1  6  2 -1</clus>
<clus scale="  459.409">  4  5 -1 -1</clus>
<clus scale="  300.000">  1  4  2 -1</clus>
</clustering>
</event>
<event>
 6    1  0.1033679E-011  0.3000000E+03  0.7818608E-02  0.1093470E+00
          1   -1    0    0  502    0  0.00000000000E+00  0.00000000000E+00  0.23173638518E+03  0.23173638518E+03  0.00000000000E+00 0.  1.
         13   -1    0    0    0    0 -0.00000000000E+00 -0.00000000000E+00 -0.27500000000E+03  0.27500000000E+03  0.00000000000E+00 0.  1.
    9000005    2    1    2  501    0  0.11998569227E+02 -0.30927071232E+02 -0.70043799831E+02  0.46410273992E+03  0.45758580606E+03 0.  0.
         13    1    3    3    0    0  0.69917962020E+02  0.93831938172E+02 -0.22701169012E+03  0.25539628322E+03  0.00000000000E+00 0.  1.
          3    1    3    3  501    0 -0.57919392793E+02 -0.12475900940E+03  0.15696789028E+03  0.20870645670E+03  0.00000000000E+00 0.  1.
         21    1    1    2  502  501 -0.11998569227E+02  0.30927071232E+02  0.26780185006E+02  0.42633645252E+02  0.00000000000E+00 0. -1.
<scales pt_clust_4="550.00000" pt_clust_5="550.00000" pt_clust_6="33.17302"></scales>
<mgrwt>
<rscale>  0 0.30000000E+03</rscale>
<asrwt>  1 0.33173022E+02</asrwt>
<pdfrwt beam="1">  1        1 0.84267776E+00 0.30000000E+03</pdfrwt>
<pdfrwt beam="2">0</pdfrwt>
<totfact> 0.47777443E-04</totfact>
</mgrwt>
<clustering>
<clus scale="   33.173">  1  6  2 -1</clus>
<clus scale="  457.586">  4  5 -1 -1</clus>
<clus scale="  300.000">  1  4  2 -1</clus>
</clustering>
</event>
<event>
 6    1  0.1033679E-011  0.3000000E+03  0.7818608E-02  0.1093470E+00
          1   -1    0    0  502    0  0.00000000000E+00  0.00000000000E+00  0.23826013279E+03  0.23826013279E+03  0.00000000000E+00 0.  1.
         13   -1    0    0    0    0 -0.00000000000E+00 -0.00000000000E+00 -0.27500000000E+03  0.27500000000E+03  0.00000000000E+00 0.  1.
    9000005    2    1    2  501    0 -0.33009298210E+02 -0.32634578069E+02 -0.21878216178E+02  0.46452105067E+03  0.46167794047E+03 0.  0.
         13    1    3    3    0    0 -0.85068527952E+02  0.15486529912E+03  0.12859780815E+03  0.21853446314E+03  0.00000000000E+00 0.  1.
          3    1    3    3  501    0  0.52059229742E+02 -0.18749987719E+03 -0.15047602433E+03  0.24598658753E+03  0.00000000000E+00 0.  1.
         21    1    1    2  502  501  0.33009298210E+02  0.32634578069E+02 -0.14861651035E+02  0.48739082116E+02  0.00000000000E+00 0. -1.
<scales pt_clust_4="550.00000" pt_clust_5="550.00000" pt_clust_6="46.41801"></scales>
<mgrwt>
<rscale>  0 0.30000000E+03</rscale>
<asrwt>  1 0.46418010E+02</asrwt>
<pdfrwt beam="1">  1        1 0.86640048E+00 0.30000000E+03</pdfrwt>
<pdfrwt beam="2">0</pdfrwt>
<totfact> 0.26216832E-04</totfact>
</mgrwt>
<clustering>
<clus scale="   46.418">  1  6  2 -1</clus>
<clus scale="  461.678">  4  5 -1 -1</clus>
<clus scale="  300.000">  1  4  2 -1</clus>
</clustering>
</event>
<event>
 6    1  0.1033679E-011  0.3000000E+03  0.7818608E-02  0.1093470E+00
          1   -1    0    0  502    0  0.00000000000E+00  0.00000000000E+00  0.23068139357E+03  0.23068139357E+03  0.00000000000E+00 0.  1.
         13   -1    0    0    0    0 -0.00000000000E+00 -0.00000000000E+00 -0.27500000000E+03  0.27500000000E+03  0.00000000000E+00 0.  1.
    9000005    2    1    2  501    0 -0.28324849200E+02 -0.18715267668E+02 -0.33432693393E+02  0.47002944511E+03  0.46760814360E+03 0.  0.
         13    1    3    3    0    0 -0.17381908423E+03 -0.17290831647E+03  0.34096994730E+02  0.24753376537E+03  0.00000000000E+00 0.  1.
          1    1    3    3  501    0  0.14549423503E+03  0.15419304880E+03 -0.67529688123E+02  0.22249567974E+03  0.00000000000E+00 0.  1.
         21    1    1    2  502  501  0.28324849200E+02  0.18715267668E+02 -0.10885913036E+02  0.35651948456E+02  0.00000000000E+00 0. -1.
<scales pt_clust_4="550.00000" pt_clust_5="550.00000" pt_clust_6="33.94937"></scales>
<mgrwt>
<rscale>  0 0.30000000E+03</rscale>
<asrwt>  1 0.33949366E+02</asrwt>
<pdfrwt beam="1">  1        1 0.83884143E+00 0.30000000E+03</pdfrwt>
<pdfrwt beam="2">0</pdfrwt>
<totfact> 0.51006553E-04</totfact>
</mgrwt>
<clustering>
<clus scale="   33.949">  1  6  2 -1</clus>
<clus scale="  467.608">  4  5 -1 -1</clus>
<clus scale="  300.000">  1  4  2 -1</clus>
</clustering>
</event>
<event>
 6    1  0.1033679E-011  0.3000000E+03  0.7818608E-02  0.1093470E+00
          1   -1    0    0  502    0  0.00000000000E+00  0.00000000000E+00  0.24969650988E+03  0.24969650988E+03  0.00000000000E+00 0.  1.
         13   -1    0    0    0    0 -0.00000000000E+00 -0.00000000000E+00 -0.27500000000E+03  0.27500000000E+03  0.00000000000E+00 0.  1.
    9000005    2    1    2  501    0 -0.70057554608E+01 -0.40153360599E+02 -0.53757647123E+02  0.47498723481E+03  0.47017190009E+03 0.  0.
         13    1    3    3    0    0  0.23082699014E+03 -0.19454570577E+01 -0.33521779090E+02  0.23325649799E+03  0.00000000000E+00 0.  1.
          3    1    3    3  501    0 -0.23783274560E+03 -0.38207903541E+02 -0.20235868033E+02  0.24173073683E+03  0.00000000000E+00 0.  1.
         21    1    1    2  502  501  0.70057554608E+01  0.40153360599E+02  0.28454157003E+02  0.49709275068E+02  0.00000000000E+00 0.  1.
<scales pt_clust_4="550.00000" pt_clust_5="550.00000" pt_clust_6="40.75994"></scales>
<mgrwt>
<rscale>  0 0.30000000E+03</rscale>
<asrwt>  1 0.40759943E+02</asrwt>
<pdfrwt beam="1">  1        1 0.90798731E+00 0.30000000E+03</pdfrwt>
<pdfrwt beam="2">0</pdfrwt>
<totfact> 0.77907988E-05</totfact>
</mgrwt>
<clustering>
<clus scale="   40.760">  1  6  2 -1</clus>
<clus scale="  470.172">  4  5 -1 -1</clus>
<clus scale="  300.000">  1  4  2 -1</clus>
</clustering>
</event>
<event>
 6    1  0.1033679E-011  0.3000000E+03  0.7818608E-02  0.1093470E+00
          1   -1    0    0  502    0  0.00000000000E+00  0.00000000000E+00  0.23198138904E+03  0.23198138904E+03  0.00000000000E+00 0.  1.
         13   -1    0    0    0    0 -0.00000000000E+00 -0.00000000000E+00 -0.27500000000E+03  0.27500000000E+03  0.00000000000E+00 0.  1.
    9000005    2    1    2  501    0  0.14753901430E+02 -0.30267019924E+02 -0.29693791539E+02  0.47076922375E+03  0.46862369836E+03 0.  0.
         13    1    3    3    0    0 -0.13702587107E+03  0.47307686796E+02  0.15989184269E+03  0.21582286239E+03  0.00000000000E+00 0.  1.
          3    1    3    3  501    0  0.15177977250E+03 -0.77574706720E+02 -0.18958563423E+03  0.25494636136E+03  0.00000000000E+00 0.  1.
         21    1    1    2  502  501 -0.14753901430E+02  0.30267019924E+02 -0.13324819422E+02  0.36212165292E+02  0.00000000000E+00 0.  1.
<scales pt_clust_4="550.00000" pt_clust_5="550.00000" pt_clust_6="33.67152"></scales>
<mgrwt>
<rscale>  0 0.30000000E+03</rscale>
<asrwt>  1 0.33671520E+02</asrwt>
<pdfrwt beam="1">  1        1 0.84356869E+00 0.30000000E+03</pdfrwt>
<pdfrwt beam="2">0</pdfrwt>
<totfact> 0.46824722E-04</totfact>
</mgrwt>
<clustering>
<clus scale="   33.672">  1  6  2 -1</clus>
<clus scale="  468.624">  4  5 -1 -1</clus>
<clus scale="  300.000">  1  4  2 -1</clus>
</clustering>
</event>
<event>
 6    1  0.1033679E-011  0.3000000E+03  0.7818608E-02  0.1093470E+00
          1   -1    0    0  502    0  0.00000000000E+00  0.00000000000E+00  0.24680574524E+03  0.24680574524E+03  0.00000000000E+00 0.  1.
         13   -1    0    0    0    0 -0.00000000000E+00 -0.00000000000E+00 -0.27500000000E+03  0.27500000000E+03  0.00000000000E+00 0.  1.
    9000005    2    1    2  501    0 -0.34451343667E+02  0.22809517878E+02 -0.65391663397E+02  0.46621063398E+03  0.45974897108E+03 0.  0.
         13    1    3    3    0    0 -0.13659197865E+03 -0.16798038198E+03  0.48190810660E+02  0.22180426415E+03  0.00000000000E+00 0.  1.
          1    1    3    3  501    0  0.10214063499E+03  0.19078989986E+03 -0.11358247406E+03  0.24440636984E+03  0.00000000000E+00 0.  1.
         21    1    1    2  502  501  0.34451343667E+02 -0.22809517878E+02  0.37197408637E+02  0.55595111256E+02  0.00000000000E+00 0. -1.
<scales pt_clust_4="550.00000" pt_clust_5="550.00000" pt_clust_6="41.31790"></scales>
<mgrwt>
<rscale>  0 0.30000000E+03</rscale>
<asrwt>  1 0.41317904E+02</asrwt>
<pdfrwt beam="1">  1        1 0.89747544E+00 0.30000000E+03</pdfrwt>
<pdfrwt beam="2">0</pdfrwt>
<totfact> 0.11474235E-04</totfact>
</mgrwt>
<clustering>
<clus scale="   41.318">  1  6  2 -1</clus>
<clus scale="  459.749">  4  5 -1 -1</clus>
<clus scale="  300.000">  1  4  2 -1</clus>
</clustering>
</event>
<event>
 6    1  0.1033679E-011  0.3000000E+03  0.7818608E-02  0.1093470E+00
          1   -1    0    0  502    0  0.00000000000E+00  0.00000000000E+00  0.23999430704E+03  0.23999430704E+03  0.00000000000E+00 0.  1.
         13   -1    0    0    0    0 -0.00000000000E+00 -0.00000000000E+00 -0.27500000000E+03  0.27500000000E+03  0.00000000000E+00 0.  1.
    9000005    2    1    2  501    0  0.16076976474E+02  0.34071957459E+02 -0.36534436322E+02  0.47728880991E+03  0.47439485196E+03 0.  0.
         13    1    3    3    0    0  0.11077463772E+03  0.24953906638E+02 -0.23289151854E+03  0.25909877890E+03  0.00000000000E+00 0.  1.
          3    1    3    3  501    0 -0.94697661249E+02  0.91180508203E+01  0.19635708221E+03  0.21819003101E+03  0.00000000000E+00 0.  1.
         21    1    1    2  502  501 -0.16076976474E+02 -0.34071957459E+02  0.15287433582E+01  0.37705497130E+02  0.00000000000E+00 0. -1.
<scales pt_clust_4="550.00000" pt_clust_5="550.00000" pt_clust_6="37.67449"></scales>
<mgrwt>
<rscale>  0 0.30000000E+03</rscale>
<asrwt>  1 0.37674493E+02</asrwt>
<pdfrwt beam="1">  1        1 0.87270657E+00 0.30000000E+03</pdfrwt>
<pdfrwt beam="2">0</pdfrwt>
<totfact> 0.23439563E-04</totfact>
</mgrwt>
<clustering>
<clus scale="   37.674">  1  6  2 -1</clus>
<clus scale="  474.395">  4  5 -1 -1</clus>
<clus scale="  300.000">  1  4  2 -1</clus>
</clustering>
</event>
<event>
 6    1  0.1033679E-011  0.3000000E+03  0.7818608E-02  0.1093470E+00
          1   -1    0    0  502    0  0.00000000000E+00  0.00000000000E+00  0.23811972089E+03  0.23811972089E+03  0.00000000000E+00 0.  1.
         13   -1    0    0    0    0 -0.00000000000E+00 -0.00000000000E+00 -0.27500000000E+03  0.27500000000E+03  0.00000000000E+00 0.  1.
    9000005    2    1    2  501    0  0.32397442221E+02  0.40972064751E+01 -0.42946029564E+02  0.47990564719E+03  0.47686338441E+03 0.  0.
         13    1    3    3    0    0  0.16594554689E+03  0.10269834189E+03 -0.17934963241E+03  0.26504936258E+03  0.00000000000E+00 0.  1.
          3    1    3    3  501    0 -0.13354810467E+03 -0.98601135415E+02  0.13640360285E+03  0.21485628461E+03  0.00000000000E+00 0.  1.
         21    1    1    2  502  501 -0.32397442221E+02 -0.40972064751E+01  0.60657504579E+01  0.33214073704E+02  0.00000000000E+00 0.  1.
<scales pt_clust_4="550.00000" pt_clust_5="550.00000" pt_clust_6="32.65550"></scales>
<mgrwt>
<rscale>  0 0.30000000E+03</rscale>
<asrwt>  1 0.32655495E+02</asrwt>
<pdfrwt beam="1">  1        1 0.86588989E+00 0.30000000E+03</pdfrwt>
<pdfrwt beam="2">0</pdfrwt>
<totfact> 0.28316358E-04</totfact>
</mgrwt>
<clustering>
<clus scale="   32.655">  1  6  2 -1</clus>
<clus scale="  476.863">  4  5 -1 -1</clus>
<clus scale="  300.000">  1  4  2 -1</clus>
</clustering>
</event>
<event>
 6    1  0.1033679E-011  0.3000000E+03  0.7818608E-02  0.1093470E+00
          1   -1    0    0  502    0  0.00000000000E+00  0.00000000000E+00  0.24119418852E+03  0.24119418852E+03  0.00000000000E+00 0.  1.
         13   -1    0    0    0    0 -0.00000000000E+00 -0.00000000000E+00 -0.27500000000E+03  0.27500000000E+03  0.00000000000E+00 0.  1.
    9000005    2    1    2  501    0  0.18631117978E+02 -0.31893960091E+02 -0.25263071070E+02  0.47828216323E+03  0.47618406279E+03 0.  0.
         13    1    3    3    0    0  0.15056161671E+03  0.96765700357E+02  0.14273150576E+03  0.22892069354E+03  0.00000000000E+00 0.  1.
          3    1    3    3  501    0 -0.13193049873E+03 -0.12865966045E+03 -0.16799457683E+03  0.24936146969E+03  0.00000000000E+00 0.  1.
         21    1    1    2  502  501 -0.18631117978E+02  0.31893960091E+02 -0.85427404147E+01  0.37912025285E+02  0.00000000000E+00 0. -1.
<scales pt_clust_4="550.00000" pt_clust_5="550.00000" pt_clust_6="36.93704"></scales>
<mgrwt>
<rscale>  0 0.30000000E+03</rscale>
<asrwt>  1 0.36937036E+02</asrwt>
<pdfrwt beam="1">  1        1 0.87706978E+00 0.30000000E+03</pdfrwt>
<pdfrwt beam="2">0</pdfrwt>
<totfact> 0.21147806E-04</totfact>
</mgrwt>
<clustering>
<clus scale="   36.937">  1  6  2 -1</clus>
<clus scale="  476.184">  4  5 -1 -1</clus>
<clus scale="  300.000">  1  4  2 -1</clus>
</clustering>
</event>
<event>
 6    1  0.1033679E-011  0.3000000E+03  0.7818608E-02  0.1093470E+00
          1   -1    0    0  502    0  0.00000000000E+00  0.00000000000E+00  0.22984201312E+03  0.22984201312E+03  0.00000000000E+00 0.  1.
         13   -1    0    0    0    0 -0.00000000000E+00 -0.00000000000E+00 -0.27500000000E+03  0.27500000000E+03  0.00000000000E+00 0.  1.
    9000005    2    1    2  501    0  0.25003734759E+02 -0.30535580106E+02 -0.55983116756E+02  0.46391779241E+03  0.45883330344E+03 0.  0.
         13    1    3    3    0    0  0.71511321864E+01  0.11209209468E+03 -0.21927809085E+03  0.24637097538E+03  0.00000000000E+00 0.  1.
          1    1    3    3  501    0  0.17852602573E+02 -0.14262767479E+03  0.16329497409E+03  0.21754681703E+03  0.00000000000E+00 0.  1.
         21    1    1    2  502  501 -0.25003734759E+02  0.30535580106E+02  0.10825129876E+02  0.40924220715E+02  0.00000000000E+00 0.  1.
<scales pt_clust_4="550.00000" pt_clust_5="550.00000" pt_clust_6="39.46655"></scales>
<mgrwt>
<rscale>  0 0.30000000E+03</rscale>
<asrwt>  1 0.39466548E+02</asrwt>
<pdfrwt beam="1">  1        1 0.83578914E+00 0.30000000E+03</pdfrwt>
<pdfrwt beam="2">0</pdfrwt>
<totfact> 0.52215230E-04</totfact>
</mgrwt>
<clustering>
<clus scale="   39.467">  1  6  2 -1</clus>
<clus scale="  458.833">  4  5 -1 -1</clus>
<clus scale="  300.000">  1  4  2 -1</clus>
</clustering>
</event>
<event>
 6    1  0.1033679E-011  0.3000000E+03  0.7818608E-02  0.1093470E+00
          1   -1    0    0  502    0  0.00000000000E+00  0.00000000000E+00  0.23245264727E+03  0.23245264727E+03  0.00000000000E+00 0.  1.
         13   -1    0    0    0    0 -0.00000000000E+00 -0.00000000000E+00 -0.27500000000E+03  0.27500000000E+03  0.00000000000E+00 0.  1.
    9000005    2    1    2  501    0  0.32683863118E+02  0.71185524592E+01 -0.55883843844E+02  0.47144194480E+03  0.46692140090E+03 0.  0.
         13    1    3    3    0    0 -0.20966828229E+03  0.63734327219E+02 -0.21315431368E+02  0.22017538618E+03  0.00000000000E+00 0.  1.
          1    1    3    3  501    0  0.24235214541E+03 -0.56615774760E+02 -0.34568412476E+02  0.25126655862E+03  0.00000000000E+00 0.  1.
         21    1    1    2  502  501 -0.32683863118E+02 -0.71185524592E+01  0.13336491116E+02  0.36010702474E+02  0.00000000000E+00 0.  1.
<scales pt_clust_4="550.00000" pt_clust_5="550.00000" pt_clust_6="33.45009"></scales>
<mgrwt>
<rscale>  0 0.30000000E+03</rscale>
<asrwt>  1 0.33450093E+02</asrwt>
<pdfrwt beam="1">  1        1 0.84528235E+00 0.30000000E+03</pdfrwt>
<pdfrwt beam="2">0</pdfrwt>
<totfact> 0.45309677E-04</totfact>
</mgrwt>
<clustering>
<clus scale="   33.450">  1  6  2 -1</clus>
<clus scale="  466.921">  4  5 -1 -1</clus>
<clus scale="  300.000">  1  4  2 -1</clus>
</clustering>
</event>
<event>
 6    1  0.1033679E-011  0.3000000E+03  0.7818608E-02  0.1093470E+00
          1   -1    0    0  502    0  0.00000000000E+00  0.00000000000E+00  0.24744679416E+03  0.24744679416E+03  0.00000000000E+00 0.  1.
         13   -1    0    0    0    0 -0.00000000000E+00 -0.00000000000E+00 -0.27500000000E+03  0.27500000000E+03  0.00000000000E+00 0.  1.
    9000005    2    1    2  501    0  0.48447371507E+01  0.33207626150E+02 -0.29852809504E+02  0.48880892726E+03  0.48674095700E+03 0.  0.
         13    1    3    3    0    0 -0.62936394574E+00 -0.21386664406E+03  0.65872817671E+02  0.22378240693E+03  0.00000000000E+00 0.  1.
          3    1    3    3  501    0  0.54741010965E+01  0.24707427021E+03 -0.95725627174E+02  0.26502652034E+03  0.00000000000E+00 0.  1.
         21    1    1    2  502  501 -0.48447371507E+01 -0.33207626150E+02  0.22996036671E+01  0.33637866900E+02  0.00000000000E+00 0. -1.
<scales pt_clust_4="550.00000" pt_clust_5="550.00000" pt_clust_6="33.55917"></scales>
<mgrwt>
<rscale>  0 0.30000000E+03</rscale>
<asrwt>  1 0.33559170E+02</asrwt>
<pdfrwt beam="1">  1        1 0.89980652E+00 0.30000000E+03</pdfrwt>
<pdfrwt beam="2">0</pdfrwt>
<totfact> 0.11193827E-04</totfact>
</mgrwt>
<clustering>
<clus scale="   33.559">  1  6  2 -1</clus>
<clus scale="  486.741">  4  5 -1 -1</clus>
<clus scale="  300.000">  1  4  2 -1</clus>
</clustering>
</event>
<event>
 6    1  0.1033679E-011  0.3000000E+03  0.7818608E-02  0.1093470E+00
          1   -1    0    0  502    0  0.00000000000E+00  0.00000000000E+00  0.23231454634E+03  0.23231454634E+03  0.00000000000E+00 0.  1.
         13   -1    0    0    0    0 -0.00000000000E+00 -0.00000000000E+00 -0.27500000000E+03  0.27500000000E+03  0.00000000000E+00 0.  1.
    9000005    2    1    2  501    0  0.29911959838E+02  0.10512984382E+02 -0.61427572529E+02  0.47048364625E+03  0.46537755268E+03 0.  0.
         13    1    3    3    0    0  0.25224074758E+01  0.19665021955E+03 -0.16411110997E+03  0.25614473995E+03  0.00000000000E+00 0.  1.
          1    1    3    3  501    0  0.27389552362E+02 -0.18613723516E+03  0.10268353744E+03  0.21433890630E+03  0.00000000000E+00 0.  1.
         21    1    1    2  502  501 -0.29911959838E+02 -0.10512984382E+02  0.18742118871E+02  0.36830900094E+02  0.00000000000E+00 0. -1.
<scales pt_clust_4="550.00000" pt_clust_5="550.00000" pt_clust_6="31.70565"></scales>
<mgrwt>
<rscale>  0 0.30000000E+03</rscale>
<asrwt>  1 0.31705649E+02</asrwt>
<pdfrwt beam="1">  1        1 0.84478017E+00 0.30000000E+03</pdfrwt>
<pdfrwt beam="2">0</pdfrwt>
<totfact> 0.46237080E-04</totfact>
</mgrwt>
<clustering>
<clus scale="   31.706">  1  6  2 -1</clus>
<clus scale="  465.378">  4  5 -1 -1</clus>
<clus scale="  300.000">  1  4  2 -1</clus>
</clustering>
</event>
<event>
 6    1  0.1033679E-011  0.3000000E+03  0.7818608E-02  0.1093470E+00
          1   -1    0    0  502    0  0.00000000000E+00  0.00000000000E+00  0.23029703750E+03  0.23029703750E+03  0.00000000000E+00 0.  1.
         13   -1    0    0    0    0 -0.00000000000E+00 -0.00000000000E+00 -0.27500000000E+03  0.27500000000E+03  0.00000000000E+00 0.  1.
    9000005    2    1    2  501    0  0.16784737409E+02  0.30028858275E+02 -0.46042087197E+02  0.47086953405E+03  0.46734867557E+03 0.  0.
         13    1    3    3    0    0 -0.93138712564E+02  0.16599920348E+03 -0.17106970675E+03  0.25592069065E+03  0.00000000000E+00 0.  1.
          1    1    3    3  501    0  0.10992344997E+03 -0.13597034520E+03  0.12502761955E+03  0.21494884340E+03  0.00000000000E+00 0.  1.
         21    1    1    2  502  501 -0.16784737409E+02 -0.30028858275E+02  0.13391246976E+01  0.34427503455E+02  0.00000000000E+00 0. -1.
<scales pt_clust_4="550.00000" pt_clust_5="550.00000" pt_clust_6="34.40145"></scales>
<mgrwt>
<rscale>  0 0.30000000E+03</rscale>
<asrwt>  1 0.34401450E+02</asrwt>
<pdfrwt beam="1">  1        1 0.83744377E+00 0.30000000E+03</pdfrwt>
<pdfrwt beam="2">0</pdfrwt>
<totfact> 0.52099386E-04</totfact>
</mgrwt>
<clustering>
<clus scale="   34.401">  1  6  2 -1</clus>
<clus scale="  467.349">  4  5 -1 -1</clus>
<clus scale="  300.000">  1  4  2 -1</clus>
</clustering>
</event>
<event>
 6    1  0.1033679E-011  0.3000000E+03  0.7818608E-02  0.1093470E+00
          1   -1    0    0  502    0  0.00000000000E+00  0.00000000000E+00  0.24207273306E+03  0.24207273306E+03  0.00000000000E+00 0.  1.
         13   -1    0    0    0    0 -0.00000000000E+00 -0.00000000000E+00 -0.27500000000E+03  0.27500000000E+03  0.00000000000E+00 0.  1.
    9000005    2    1    2  501    0 -0.10655146706E+02  0.34035744144E+02 -0.53663674448E+02  0.47581788332E+03  0.47143494154E+03 0.  0.
         13    1    3    3    0    0 -0.66870506276E+02 -0.70885259753E+02  0.18501191845E+03  0.20910713672E+03  0.00000000000E+00 0.  1.
          1    1    3    3  501    0  0.56215359569E+02  0.10492100390E+03 -0.23867559289E+03  0.26671074660E+03  0.00000000000E+00 0.  1.
         21    1    1    2  502  501  0.10655146706E+02 -0.34035744144E+02  0.20736407513E+02  0.41254849743E+02  0.00000000000E+00 0.  1.
<scales pt_clust_4="550.00000" pt_clust_5="550.00000" pt_clust_6="35.66460"></scales>
<mgrwt>
<rscale>  0 0.30000000E+03</rscale>
<asrwt>  1 0.35664605E+02</asrwt>
<pdfrwt beam="1">  1        1 0.88026448E+00 0.30000000E+03</pdfrwt>
<pdfrwt beam="2">0</pdfrwt>
<totfact> 0.19520866E-04</totfact>
</mgrwt>
<clustering>
<clus scale="   35.665">  1  6  2 -1</clus>
<clus scale="  471.435">  4  5 -1 -1</clus>
<clus scale="  300.000">  1  4  2 -1</clus>
</clustering>
</event>
<event>
 6    1  0.1033679E-011  0.3000000E+03  0.7818608E-02  0.1093470E+00
          1   -1    0    0  502    0  0.00000000000E+00  0.00000000000E+00  0.23637922896E+03  0.23637922896E+03  0.00000000000E+00 0.  1.
         13   -1    0    0    0    0 -0.00000000000E+00 -0.00000000000E+00 -0.27500000000E+03  0.27500000000E+03  0.00000000000E+00 0.  1.
    9000005    2    1    2  501    0  0.26888520166E+02  0.17940510466E+02 -0.34824534492E+02  0.47883286442E+03  0.47646963116E+03 0.  0.
         13    1    3    3    0    0 -0.19269161917E+03 -0.82593836903E+02  0.62034705818E+02  0.21863235515E+03  0.00000000000E+00 0.  1.
          1    1    3    3  501    0  0.21958013934E+03  0.10053434737E+03 -0.96859240310E+02  0.26020050927E+03  0.00000000000E+00 0.  1.
         21    1    1    2  502  501 -0.26888520166E+02 -0.17940510466E+02 -0.37962365510E+01  0.32546364535E+02  0.00000000000E+00 0. -1.
<scales pt_clust_4="550.00000" pt_clust_5="550.00000" pt_clust_6="32.32422"></scales>
<mgrwt>
<rscale>  0 0.30000000E+03</rscale>
<asrwt>  1 0.32324224E+02</asrwt>
<pdfrwt beam="1">  1        1 0.85956083E+00 0.30000000E+03</pdfrwt>
<pdfrwt beam="2">0</pdfrwt>
<totfact> 0.33190124E-04</totfact>
</mgrwt>
<clustering>
<clus scale="   32.324">  1  6  2 -1</clus>
<clus scale="  476.470">  4  5 -1 -1</clus>
<clus scale="  300.000">  1  4  2 -1</clus>
</clustering>
</event>
<event>
 6    1  0.1033679E-011  0.3000000E+03  0.7818608E-02  0.1093470E+00
          1   -1    0    0  502    0  0.00000000000E+00  0.00000000000E+00  0.23111900045E+03  0.23111900045E+03  0.00000000000E+00 0.  1.
         13   -1    0    0    0    0 -0.00000000000E+00 -0.00000000000E+00 -0.27500000000E+03  0.27500000000E+03  0.00000000000E+00 0.  1.
    9000005    2    1    2  501    0 -0.47307870938E+01 -0.35381242751E+02 -0.41650195734E+02  0.47035324629E+03  0.46714368753E+03 0.  0.
         13    1    3    3    0    0 -0.13820765615E+03  0.16874075183E+03  0.19284385361E+02  0.21896731506E+03  0.00000000000E+00 0.  1.
          3    1    3    3  501    0  0.13347686906E+03 -0.20412199458E+03 -0.60934581095E+02  0.25138593122E+03  0.00000000000E+00 0.  1.
         21    1    1    2  502  501  0.47307870938E+01  0.35381242751E+02 -0.22308038181E+01  0.35765754162E+02  0.00000000000E+00 0.  1.
<scales pt_clust_4="550.00000" pt_clust_5="550.00000" pt_clust_6="35.69612"></scales>
<mgrwt>
<rscale>  0 0.30000000E+03</rscale>
<asrwt>  1 0.35696116E+02</asrwt>
<pdfrwt beam="1">  1        1 0.84043273E+00 0.30000000E+03</pdfrwt>
<pdfrwt beam="2">0</pdfrwt>
<totfact> 0.49142146E-04</totfact>
</mgrwt>
<clustering>
<clus scale="   35.696">  1  6  2 -1</clus>
<clus scale="  467.144">  4  5 -1 -1</clus>
<clus scale="  300.000">  1  4  2 -1</clus>
</clustering>
</event>
<event>
 6    1  0.1033679E-011  0.3000000E+03  0.7818608E-02  0.1093470E+00
          1   -1    0    0  502    0  0.00000000000E+00  0.00000000000E+00  0.22601526302E+03  0.22601526302E+03  0.00000000000E+00 0.  1.
         13   -1    0    0    0    0 -0.00000000000E+00 -0.00000000000E+00 -0.27500000000E+03  0.27500000000E+03  0.00000000000E+00 0.  1.
    9000005    2    1    2  501    0  0.32951795937E+02  0.17874970384E+01 -0.38144219965E+02  0.46628008185E+03  0.46354408336E+03 0.  0.
         13    1    3    3    0    0  0.27395541405E+02 -0.10531466727E+03  0.18730537394E+03  0.21662178546E+03  0.00000000000E+00 0.  1.
          1    1    3    3  501    0  0.55562545320E+01  0.10710216431E+03 -0.22544959390E+03  0.24965829639E+03  0.00000000000E+00 0.  1.
         21    1    1    2  502  501 -0.32951795937E+02 -0.17874970384E+01 -0.10840517019E+02  0.34735181162E+02  0.00000000000E+00 0. -1.
<scales pt_clust_4="550.00000" pt_clust_5="550.00000" pt_clust_6="33.00026"></scales>
<mgrwt>
<rscale>  0 0.30000000E+03</rscale>
<asrwt>  1 0.33000259E+02</asrwt>
<pdfrwt beam="1">  1        1 0.82187368E+00 0.30000000E+03</pdfrwt>
<pdfrwt beam="2">0</pdfrwt>
<totfact> 0.70420800E-04</totfact>
</mgrwt>
<clustering>
<clus scale="   33.000">  1  6  2 -1</clus>
<clus scale="  463.544">  4  5 -1 -1</clus>
<clus scale="  300.000">  1  4  2 -1</clus>
</clustering>
</event>
<event>
 6    1  0.1033679E-011  0.3000000E+03  0.7818608E-02  0.1093470E+00
          1   -1    0    0  502    0  0.00000000000E+00  0.00000000000E+00  0.22990370844E+03  0.22990370844E+03  0.00000000000E+00 0.  1.
         13   -1    0    0    0    0 -0.00000000000E+00 -0.00000000000E+00 -0.27500000000E+03  0.27500000000E+03  0.00000000000E+00 0.  1.
    9000005    2    1    2  501    0 -0.90180596124E+01  0.29742988248E+02 -0.52295125063E+02  0.47300082530E+03  0.46907252091E+03 0.  0.
         13    1    3    3    0    0  0.10159325552E+03  0.21673163467E+03  0.28835410440E+02  0.24109183298E+03  0.00000000000E+00 0.  1.
          3    1    3    3  501    0 -0.11061131513E+03 -0.18698864642E+03 -0.81130535503E+02  0.23190899232E+03  0.00000000000E+00 0.  1.
         21    1    1    2  502  501  0.90180596124E+01 -0.29742988248E+02  0.71988335023E+01  0.31902883144E+02  0.00000000000E+00 0.  1.
<scales pt_clust_4="550.00000" pt_clust_5="550.00000" pt_clust_6="31.08007"></scales>
<mgrwt>
<rscale>  0 0.30000000E+03</rscale>
<asrwt>  1 0.31080070E+02</asrwt>
<pdfrwt beam="1">  1        1 0.83601349E+00 0.30000000E+03</pdfrwt>
<pdfrwt beam="2">0</pdfrwt>
<totfact> 0.54396913E-04</totfact>
</mgrwt>
<clustering>
<clus scale="   31.080">  1  6  2 -1</clus>
<clus scale="  469.073">  4  5 -1 -1</clus>
<clus scale="  300.000">  1  4  2 -1</clus>
</clustering>
</event>
<event>
 6    1  0.1033679E-011  0.3000000E+03  0.7818608E-02  0.1093470E+00
          1   -1    0    0  502    0  0.00000000000E+00  0.00000000000E+00  0.23415799097E+03  0.23415799097E+03  0.00000000000E+00 0.  1.
         13   -1    0    0    0    0 -0.00000000000E+00 -0.00000000000E+00 -0.27500000000E+03  0.27500000000E+03  0.00000000000E+00 0.  1.
    9000005    2    1    2  501    0  0.38619230698E+02  0.64052995471E+01 -0.61058758825E+02  0.46509905528E+03  0.45940884444E+03 0.  0.
         13    1    3    3    0    0  0.17028632406E+03 -0.30710197284E+02 -0.20382829370E+03  0.26736963494E+03  0.00000000000E+00 0.  1.
          1    1    3    3  501    0 -0.13166709336E+03  0.37115496831E+02  0.14276953487E+03  0.19772942034E+03  0.00000000000E+00 0.  1.
         21    1    1    2  502  501 -0.38619230698E+02 -0.64052995471E+01  0.20216749794E+02  0.44058935691E+02  0.00000000000E+00 0. -1.
<scales pt_clust_4="550.00000" pt_clust_5="550.00000" pt_clust_6="39.14681"></scales>
<mgrwt>
<rscale>  0 0.30000000E+03</rscale>
<asrwt>  1 0.39146811E+02</asrwt>
<pdfrwt beam="1">  1        1 0.85148360E+00 0.30000000E+03</pdfrwt>
<pdfrwt beam="2">0</pdfrwt>
<totfact> 0.38596288E-04</totfact>
</mgrwt>
<clustering>
<clus scale="   39.147">  1  6  2 -1</clus>
<clus scale="  459.409">  4  5 -1 -1</clus>
<clus scale="  300.000">  1  4  2 -1</clus>
</clustering>
</event>
<event>
 6    1  0.1033679E-011  0.3000000E+03  0.7818608E-02  0.1093470E+00
          1   -1    0    0  502    0  0.00000000000E+00  0.00000000000E+00  0.23477475543E+03  0.23477475543E+03  0.00000000000E+00 0.  1.
         13   -1    0    0    0    0 -0.00000000000E+00 -0.00000000000E+00 -0.27500000000E+03  0.27500000000E+03  0.00000000000E+00 0.  1.
    9000005    2    1    2  501    0  0.25144078609E+02 -0.18640743427E+02 -0.30519342509E+02  0.47700424217E+03  0.47499675238E+03 0.  0.
         13    1    3    3    0    0 -0.18966989744E+03  0.10673411063E+03  0.33426313887E+02  0.22019118699E+03  0.00000000000E+00 0.  1.
          3    1    3    3  501    0  0.21481397605E+03 -0.12537485406E+03 -0.63945656396E+02  0.25681305518E+03  0.00000000000E+00 0.  1.
         21    1    1    2  502  501 -0.25144078609E+02  0.18640743427E+02 -0.97059020620E+01  0.32770513262E+02  0.00000000000E+00 0. -1.
<scales pt_clust_4="550.00000" pt_clust_5="550.00000" pt_clust_6="31.30021"></scales>
<mgrwt>
<rscale>  0 0.30000000E+03</rscale>
<asrwt>  1 0.31300207E+02</asrwt>
<pdfrwt beam="1">  1        1 0.85372638E+00 0.30000000E+03</pdfrwt>
<pdfrwt beam="2">0</pdfrwt>
<totfact> 0.38295040E-04</totfact>
</mgrwt>
<clustering>
<clus scale="   31.300">  1  6  2 -1</clus>
<clus scale="  474.997">  4  5 -1 -1</clus>
<clus scale="  300.000">  1  4  2 -1</clus>
</clustering>
</event>
<event>
 6    1  0.1033679E-011  0.3000000E+03  0.7818608E-02  0.1093470E+00
          1   -1    0    0  502    0  0.00000000000E+00  0.00000000000E+00  0.23729570368E+03  0.23729570368E+03  0.00000000000E+00 0.  1.
         13   -1    0    0    0    0 -0.00000000000E+00 -0.00000000000E+00 -0.27500000000E+03  0.27500000000E+03  0.00000000000E+00 0.  1.
    9000005    2    1    2  501    0 -0.28582867259E+02  0.20518656236E+02 -0.70765982861E+02  0.46401454098E+03  0.45723481315E+03 0.  0.
         13    1    3    3    0    0 -0.71064652083E+02  0.19130322501E+03 -0.16676243379E+03  0.26354661447E+03  0.00000000000E+00 0.  1.
          1    1    3    3  501    0  0.42481784824E+02 -0.17078456877E+03  0.95996450928E+02  0.20046792652E+03  0.00000000000E+00 0.  1.
         21    1    1    2  502  501  0.28582867259E+02 -0.20518656236E+02  0.33061686543E+02  0.48281162699E+02  0.00000000000E+00 0.  1.
<scales pt_clust_4="550.00000" pt_clust_5="550.00000" pt_clust_6="35.18516"></scales>
<mgrwt>
<rscale>  0 0.30000000E+03</rscale>
<asrwt>  1 0.35185161E+02</asrwt>
<pdfrwt beam="1">  1        1 0.86289347E+00 0.30000000E+03</pdfrwt>
<pdfrwt beam="2">0</pdfrwt>
<totfact> 0.30077757E-04</totfact>
</mgrwt>
<clustering>
<clus scale="   35.185">  1  6  2 -1</clus>
<clus scale="  457.235">  4  5 -1 -1</clus>
<clus scale="  300.000">  1  4  2 -1</clus>
</clustering>
</event>
<event>
 6    1  0.1033679E-011  0.3000000E+03  0.7818608E-02  0.1093470E+00
          1   -1    0    0  502    0  0.00000000000E+00  0.00000000000E+00  0.23935360635E+03  0.23935360635E+03  0.00000000000E+00 0.  1.
         13   -1    0    0    0    0 -0.00000000000E+00 -0.00000000000E+00 -0.27500000000E+03  0.27500000000E+03  0.00000000000E+00 0.  1.
    9000005    2    1    2  501    0  0.27689749798E+02 -0.31247232204E+02 -0.61319313332E+02  0.46534125516E+03  0.45939015423E+03 0.  0.
         13    1    3    3    0    0  0.11888815794E+03 -0.22028615314E+03 -0.49156190169E+02  0.25510138063E+03  0.00000000000E+00 0.  1.
          1    1    3    3  501    0 -0.91198408143E+02  0.18903892094E+03 -0.12163123163E+02  0.21023987453E+03  0.00000000000E+00 0.  1.
         21    1    1    2  502  501 -0.27689749798E+02  0.31247232204E+02  0.25672919679E+02  0.49012351190E+02  0.00000000000E+00 0. -1.
<scales pt_clust_4="550.00000" pt_clust_5="550.00000" pt_clust_6="41.75059"></scales>
<mgrwt>
<rscale>  0 0.30000000E+03</rscale>
<asrwt>  1 0.41750590E+02</asrwt>
<pdfrwt beam="1">  1        1 0.87037675E+00 0.30000000E+03</pdfrwt>
<pdfrwt beam="2">0</pdfrwt>
<totfact> 0.24299985E-04</totfact>
</mgrwt>
<clustering>
<clus scale="   41.751">  1  6  2 -1</clus>
<clus scale="  459.390">  4  5 -1 -1</clus>
<clus scale="  300.000">  1  4  2 -1</clus>
</clustering>
</event>
<event>
 6    1  0.1033679E-011  0.3000000E+03  0.7818608E-02  0.1093470E+00
          1   -1    0    0  502    0  0.00000000000E+00  0.00000000000E+00  0.24328306463E+03  0.24328306463E+03  0.00000000000E+00 0.  1.
         13   -1    0    0    0    0 -0.00000000000E+00 -0.00000000000E+00 -0.27500000000E+03  0.27500000000E+03  0.00000000000E+00 0.  1.
    9000005    2    1    2  501    0  0.47248894443E+02  0.21665860489E+01 -0.49389095158E+02  0.46779091323E+03  0.46276549532E+03 0.  0.
         13    1    3    3    0    0 -0.20877309534E+03  0.41056067337E+01 -0.31000307192E+02  0.21110206155E+03  0.00000000000E+00 0.  1.
          1    1    3    3  501    0  0.25602198978E+03 -0.19390206849E+01 -0.18388787967E+02  0.25668885168E+03  0.00000000000E+00 0.  1.
         21    1    1    2  502  501 -0.47248894443E+02 -0.21665860489E+01  0.17672159784E+02  0.50492151397E+02  0.00000000000E+00 0. -1.
<scales pt_clust_4="550.00000" pt_clust_5="550.00000" pt_clust_6="47.29854"></scales>
<mgrwt>
<rscale>  0 0.30000000E+03</rscale>
<asrwt>  1 0.47298542E+02</asrwt>
<pdfrwt beam="1">  1        1 0.88466569E+00 0.30000000E+03</pdfrwt>
<pdfrwt beam="2">0</pdfrwt>
<totfact> 0.16235883E-04</totfact>
</mgrwt>
<clustering>
<clus scale="   47.299">  1  6  2 -1</clus>
<clus scale="  462.765">  4  5 -1 -1</clus>
<clus scale="  300.000">  1  4  2 -1</clus>
</clustering>
</event>
<event>
 6    1  0.1033679E-011  0.3000000E+03  0.7818608E-02  0.1093470E+00
          1   -1    0    0  502    0  0.00000000000E+00  0.00000000000E+00  0.22900282718E+03  0.22900282718E+03  0.00000000000E+00 0.  1.
         13   -1    0    0    0    0 -0.00000000000E+00 -0.00000000000E+00 -0.27500000000E+03  0.27500000000E+03  0.00000000000E+00 0.  1.
    9000005    2    1    2  501    0  0.16529141082E+02 -0.29023046905E+02 -0.24524703062E+02  0.46429619405E+03  0.46244345059E+03 0.  0.
         13    1    3    3    0    0  0.39860748547E+02  0.16204034984E+03 -0.15820567854E+03  0.22994562612E+03  0.00000000000E+00 0.  1.
          1    1    3    3  501    0 -0.23331607465E+02 -0.19106339674E+03  0.13368097548E+03  0.23435056793E+03  0.00000000000E+00 0.  1.
         21    1    1    2  502  501 -0.16529141082E+02  0.29023046905E+02 -0.21472469761E+02  0.39706633126E+02  0.00000000000E+00 0.  1.
<scales pt_clust_4="550.00000" pt_clust_5="550.00000" pt_clust_6="33.39986"></scales>
<mgrwt>
<rscale>  0 0.30000000E+03</rscale>
<asrwt>  1 0.33399863E+02</asrwt>
<pdfrwt beam="1">  1        1 0.83273755E+00 0.30000000E+03</pdfrwt>
<pdfrwt beam="2">0</pdfrwt>
<totfact> 0.56728594E-04</totfact>
</mgrwt>
<clustering>
<clus scale="   33.400">  1  6  2 -1</clus>
<clus scale="  462.443">  4  5 -1 -1</clus>
<clus scale="  300.000">  1  4  2 -1</clus>
</clustering>
</event>
<event>
 6    1  0.1033679E-011  0.3000000E+03  0.7818608E-02  0.1093470E+00
          1   -1    0    0  502    0  0.00000000000E+00  0.00000000000E+00  0.24183643042E+03  0.24183643042E+03  0.00000000000E+00 0.  1.
         13   -1    0    0    0    0 -0.00000000000E+00 -0.00000000000E+00 -0.27500000000E+03  0.27500000000E+03  0.00000000000E+00 0.  1.
    9000005    2    1    2  501    0  0.37558121671E+02  0.19704999220E+02 -0.16943639554E+02  0.47142733851E+03  0.46920970692E+03 0.  0.
         13    1    3    3    0    0 -0.12248838310E+03  0.19620460167E+03 -0.27539315072E+02  0.23293360338E+03  0.00000000000E+00 0.  1.
          1    1    3    3  501    0  0.16004650477E+03 -0.17649960245E+03  0.10595675518E+02  0.23849373512E+03  0.00000000000E+00 0.  1.
         21    1    1    2  502  501 -0.37558121671E+02 -0.19704999220E+02 -0.16219930031E+02  0.45409091908E+02  0.00000000000E+00 0.  1.
<scales pt_clust_4="550.00000" pt_clust_5="550.00000" pt_clust_6="42.41346"></scales>
<mgrwt>
<rscale>  0 0.30000000E+03</rscale>
<asrwt>  1 0.42413457E+02</asrwt>
<pdfrwt beam="1">  1        1 0.87940520E+00 0.30000000E+03</pdfrwt>
<pdfrwt beam="2">0</pdfrwt>
<totfact> 0.19374198E-04</totfact>
</mgrwt>
<clustering>
<clus scale="   42.413">  1  6  2 -1</clus>
<clus scale="  469.210">  4  5 -1 -1</clus>
<clus scale="  300.000">  1  4  2 -1</clus>
</clustering>
</event>
<event>
 6    1  0.1033679E-011  0.3000000E+03  0.7818608E-02  0.1093470E+00
          1   -1    0    0  502    0  0.00000000000E+00  0.00000000000E+00  0.23348261677E+03  0.23348261677E+03  0.00000000000E+00 0.  1.
         13   -1    0    0    0    0 -0.00000000000E+00 -0.00000000000E+00 -0.27500000000E+03  0.27500000000E+03  0.00000000000E+00 0.  1.
    9000005    2    1    2  501    0 -0.30547935699E+02  0.33324644824E+02 -0.52068733191E+02  0.46206021577E+03  0.45688596137E+03 0.  0.
         13    1    3    3    0    0 -0.23895103526E+03 -0.18717296921E+02  0.52533194021E+01  0.23974055106E+03  0.00000000000E+00 0.  1.
          3    1    3    3  501    0  0.20840309956E+03  0.52041941745E+02 -0.57322052593E+02  0.22231966472E+03  0.00000000000E+00 0.  1.
         21    1    1    2  502  501  0.30547935699E+02 -0.33324644824E+02  0.10551349958E+02  0.46422400994E+02  0.00000000000E+00 0. -1.
<scales pt_clust_4="550.00000" pt_clust_5="550.00000" pt_clust_6="45.20739"></scales>
<mgrwt>
<rscale>  0 0.30000000E+03</rscale>
<asrwt>  1 0.45207392E+02</asrwt>
<pdfrwt beam="1">  1        1 0.84902770E+00 0.30000000E+03</pdfrwt>
<pdfrwt beam="2">0</pdfrwt>
<totfact> 0.39659287E-04</totfact>
</mgrwt>
<clustering>
<clus scale="   45.207">  1  6  2 -1</clus>
<clus scale="  456.886">  4  5 -1 -1</clus>
<clus scale="  300.000">  1  4  2 -1</clus>
</clustering>
</event>
<event>
 6    1  0.1033679E-011  0.3000000E+03  0.7818608E-02  0.1093470E+00
          1   -1    0    0  502    0  0.00000000000E+00  0.00000000000E+00  0.22606429865E+03  0.22606429865E+03  0.00000000000E+00 0.  1.
         13   -1    0    0    0    0 -0.00000000000E+00 -0.00000000000E+00 -0.27500000000E+03  0.27500000000E+03  0.00000000000E+00 0.  1.
    9000005    2    1    2  501    0 -0.16418745904E+02  0.26053726607E+02 -0.59800563670E+02  0.46840825602E+03  0.46355346510E+03 0.  0.
         13    1    3    3    0    0 -0.14596580743E+03 -0.12003506377E+03  0.10206673603E+03  0.21478373327E+03  0.00000000000E+00 0.  1.
          1    1    3    3  501    0  0.12954706153E+03  0.14608879038E+03 -0.16186729970E+03  0.25362452274E+03  0.00000000000E+00 0.  1.
         21    1    1    2  502  501  0.16418745904E+02 -0.26053726607E+02  0.10864862319E+02  0.32656042632E+02  0.00000000000E+00 0.  1.
<scales pt_clust_4="550.00000" pt_clust_5="550.00000" pt_clust_6="30.79565"></scales>
<mgrwt>
<rscale>  0 0.30000000E+03</rscale>
<asrwt>  1 0.30795647E+02</asrwt>
<pdfrwt beam="1">  1        1 0.82205200E+00 0.30000000E+03</pdfrwt>
<pdfrwt beam="2">0</pdfrwt>
<totfact> 0.71094806E-04</totfact>
</mgrwt>
<clustering>
<clus scale="   30.796">  1  6  2 -1</clus>
<clus scale="  463.553">  4  5 -1 -1</clus>
<clus scale="  300.000">  1  4  2 -1</clus>
</clustering>
</event>
<event>
 6    1  0.1033679E-011  0.3000000E+03  0.7818608E-02  0.1093470E+00
          1   -1    0    0  502    0  0.00000000000E+00  0.00000000000E+00  0.23151803569E+03  0.23151803569E+03  0.00000000000E+00 0.  1.
         13   -1    0    0    0    0 -0.00000000000E+00 -0.00000000000E+00 -0.27500000000E+03  0.27500000000E+03  0.00000000000E+00 0.  1.
    9000005    2    1    2  501    0 -0.21135215688E+00  0.33365121725E+02 -0.62657687420E+02  0.46803447590E+03  0.46261972377E+03 0.  0.
         13    1    3    3    0    0 -0.11750947650E+03 -0.18072071956E+03  0.17280513343E+01  0.21557235841E+03  0.00000000000E+00 0.  1.
          1    1    3    3  501    0  0.11729812435E+03  0.21408584129E+03 -0.64385738754E+02  0.25246211749E+03  0.00000000000E+00 0.  1.
         21    1    1    2  502  501  0.21135215688E+00 -0.33365121725E+02  0.19175723113E+02  0.38483559793E+02  0.00000000000E+00 0.  1.
<scales pt_clust_4="550.00000" pt_clust_5="550.00000" pt_clust_6="33.36579"></scales>
<mgrwt>
<rscale>  0 0.30000000E+03</rscale>
<asrwt>  1 0.33365791E+02</asrwt>
<pdfrwt beam="1">  1        1 0.84188377E+00 0.30000000E+03</pdfrwt>
<pdfrwt beam="2">0</pdfrwt>
<totfact> 0.48455837E-04</totfact>
</mgrwt>
<clustering>
<clus scale="   33.366">  1  6  2 -1</clus>
<clus scale="  462.620">  4  5 -1 -1</clus>
<clus scale="  300.000">  1  4  2 -1</clus>
</clustering>
</event>
<event>
 6    1  0.1033679E-011  0.3000000E+03  0.7818608E-02  0.1093470E+00
          1   -1    0    0  502    0  0.00000000000E+00  0.00000000000E+00  0.25089626093E+03  0.25089626093E+03  0.00000000000E+00 0.  1.
         13   -1    0    0    0    0 -0.00000000000E+00 -0.00000000000E+00 -0.27500000000E+03  0.27500000000E+03  0.00000000000E+00 0.  1.
    9000005    2    1    2  501    0 -0.32521816111E+02 -0.21334282241E+00 -0.40748397431E+02  0.48936191147E+03  0.48657675085E+03 0.  0.
         13    1    3    3    0    0 -0.18396126087E+03 -0.15257885533E+03  0.68129014191E+02  0.24852286649E+03  0.00000000000E+00 0.  1.
          3    1    3    3  501    0  0.15143944475E+03  0.15236551251E+03 -0.10887741162E+03  0.24083904499E+03  0.00000000000E+00 0.  1.
         21    1    1    2  502  501  0.32521816111E+02  0.21334282241E+00  0.16644658363E+02  0.36534349458E+02  0.00000000000E+00 0.  1.
<scales pt_clust_4="550.00000" pt_clust_5="550.00000" pt_clust_6="32.52252"></scales>
<mgrwt>
<rscale>  0 0.30000000E+03</rscale>
<asrwt>  1 0.32522516E+02</asrwt>
<pdfrwt beam="1">  1        1 0.91235004E+00 0.30000000E+03</pdfrwt>
<pdfrwt beam="2">0</pdfrwt>
<totfact> 0.63701581E-05</totfact>
</mgrwt>
<clustering>
<clus scale="   32.523">  1  6  2 -1</clus>
<clus scale="  486.577">  4  5 -1 -1</clus>
<clus scale="  300.000">  1  4  2 -1</clus>
</clustering>
</event>
<event>
 6    1  0.1033679E-011  0.3000000E+03  0.7818608E-02  0.1093470E+00
          1   -1    0    0  502    0  0.00000000000E+00  0.00000000000E+00  0.23315800873E+03  0.23315800873E+03  0.00000000000E+00 0.  1.
         13   -1    0    0    0    0 -0.00000000000E+00 -0.00000000000E+00 -0.27500000000E+03  0.27500000000E+03  0.00000000000E+00 0.  1.
    9000005    2    1    2  501    0 -0.12636044743E+02  0.45537533606E+02 -0.39266081310E+02  0.46082966726E+03  0.45671525100E+03 0.  0.
         13    1    3    3    0    0 -0.13976920009E+03  0.73764293067E+02  0.15863524533E+03  0.22392351660E+03  0.00000000000E+00 0.  1.
          1    1    3    3  501    0  0.12713315535E+03 -0.28226759460E+02 -0.19790132664E+03  0.23690615066E+03  0.00000000000E+00 0.  1.
         21    1    1    2  502  501  0.12636044743E+02 -0.45537533606E+02 -0.25759099652E+01  0.47328341465E+02  0.00000000000E+00 0.  1.
<scales pt_clust_4="550.00000" pt_clust_5="550.00000" pt_clust_6="47.25819"></scales>
<mgrwt>
<rscale>  0 0.30000000E+03</rscale>
<asrwt>  1 0.47258191E+02</asrwt>
<pdfrwt beam="1">  1        1 0.84784730E+00 0.30000000E+03</pdfrwt>
<pdfrwt beam="2">0</pdfrwt>
<totfact> 0.40344370E-04</totfact>
</mgrwt>
<clustering>
<clus scale="   47.258">  1  6  2 -1</clus>
<clus scale="  456.715">  4  5 -1 -1</clus>
<clus scale="  300.000">  1  4  2 -1</clus>
</clustering>
</event>
<event>
 6    1  0.1033679E-011  0.3000000E+03  0.7818608E-02  0.1093470E+00
          1   -1    0    0  502    0  0.00000000000E+00  0.00000000000E+00  0.23324901095E+03  0.23324901095E+03  0.00000000000E+00 0.  1.
         13   -1    0    0    0    0 -0.00000000000E+00 -0.00000000000E+00 -0.27500000000E+03  0.27500000000E+03  0.00000000000E+00 0.  1.
    9000005    2    1    2  501    0 -0.10599506081E+02  0.30435905626E+02 -0.70563416256E+02  0.46501881500E+03  0.45850257220E+03 0.  0.
         13    1    3    3    0    0  0.14632172889E+02 -0.21293150461E+03 -0.13990525086E+02  0.21389170375E+03  0.00000000000E+00 0.  1.
          3    1    3    3  501    0 -0.25231678971E+02  0.24336741024E+03 -0.56572891170E+02  0.25112711125E+03  0.00000000000E+00 0.  1.
         21    1    1    2  502  501  0.10599506081E+02 -0.30435905626E+02  0.28812427209E+02  0.43230195953E+02  0.00000000000E+00 0.  1.
<scales pt_clust_4="550.00000" pt_clust_5="550.00000" pt_clust_6="32.22877"></scales>
<mgrwt>
<rscale>  0 0.30000000E+03</rscale>
<asrwt>  1 0.32228774E+02</asrwt>
<pdfrwt beam="1">  1        1 0.84817822E+00 0.30000000E+03</pdfrwt>
<pdfrwt beam="2">0</pdfrwt>
<totfact> 0.42977240E-04</totfact>
</mgrwt>
<clustering>
<clus scale="   32.229">  1  6  2 -1</clus>
<clus scale="  458.503">  4  5 -1 -1</clus>
<clus scale="  300.000">  1  4  2 -1</clus>
</clustering>
</event>
<event>
 6    1  0.1033679E-011  0.3000000E+03  0.7818608E-02  0.1093470E+00
          1   -1    0    0  502    0  0.00000000000E+00  0.00000000000E+00  0.23425202354E+03  0.23425202354E+03  0.00000000000E+00 0.  1.
         13   -1    0    0    0    0 -0.00000000000E+00 -0.00000000000E+00 -0.27500000000E+03  0.27500000000E+03  0.00000000000E+00 0.  1.
    9000005    2    1    2  501    0  0.29460423320E+02 -0.10590869062E+02 -0.42091981209E+02  0.47791690907E+03  0.47502921389E+03 0.  0.
         13    1    3    3    0    0 -0.16998750764E+03  0.13371376691E+03 -0.76372704265E+02  0.22936415189E+03  0.00000000000E+00 0.  1.
          3    1    3    3  501    0  0.19944793096E+03 -0.14430463597E+03  0.34280723056E+02  0.24855275718E+03  0.00000000000E+00 0.  1.
         21    1    1    2  502  501 -0.29460423320E+02  0.10590869062E+02  0.13440047459E+01  0.31335114463E+02  0.00000000000E+00 0. -1.
<scales pt_clust_4="550.00000" pt_clust_5="550.00000" pt_clust_6="31.30628"></scales>
<mgrwt>
<rscale>  0 0.30000000E+03</rscale>
<asrwt>  1 0.31306278E+02</asrwt>
<pdfrwt beam="1">  1        1 0.85182554E+00 0.30000000E+03</pdfrwt>
<pdfrwt beam="2">0</pdfrwt>
<totfact> 0.39942810E-04</totfact>
</mgrwt>
<clustering>
<clus scale="   31.306">  1  6  2 -1</clus>
<clus scale="  475.029">  4  5 -1 -1</clus>
<clus scale="  300.000">  1  4  2 -1</clus>
</clustering>
</event>
<event>
 6    1  0.1033679E-011  0.3000000E+03  0.7818608E-02  0.1093470E+00
          1   -1    0    0  502    0  0.00000000000E+00  0.00000000000E+00  0.26183843512E+03  0.26183843512E+03  0.00000000000E+00 0.  1.
         13   -1    0    0    0    0 -0.00000000000E+00 -0.00000000000E+00 -0.27500000000E+03  0.27500000000E+03  0.00000000000E+00 0.  1.
    9000005    2    1    2  501    0  0.29648489235E+02  0.19390379206E+02 -0.58564075363E+02  0.47925017522E+03  0.47433739027E+03 0.  0.
         13    1    3    3    0    0 -0.14597651270E+03  0.67178763707E+02  0.13767023930E+03  0.21160156744E+03  0.00000000000E+00 0.  1.
          3    1    3    3  501    0  0.17562500193E+03 -0.47788384501E+02 -0.19623431467E+03  0.26764860779E+03  0.00000000000E+00 0.  1.
         21    1    1    2  502  501 -0.29648489235E+02 -0.19390379206E+02  0.45402510483E+02  0.57588259896E+02  0.00000000000E+00 0. -1.
<scales pt_clust_4="550.00000" pt_clust_5="550.00000" pt_clust_6="35.42626"></scales>
<mgrwt>
<rscale>  0 0.30000000E+03</rscale>
<asrwt>  1 0.35426257E+02</asrwt>
<pdfrwt beam="1">  1        1 0.95213976E+00 0.30000000E+03</pdfrwt>
<pdfrwt beam="2">0</pdfrwt>
<totfact> 0.11119389E-05</totfact>
</mgrwt>
<clustering>
<clus scale="   35.426">  1  6  2 -1</clus>
<clus scale="  474.337">  4  5 -1 -1</clus>
<clus scale="  300.000">  1  4  2 -1</clus>
</clustering>
</event>
<event>
 6    1  0.1033679E-011  0.3000000E+03  0.7818608E-02  0.1093470E+00
          1   -1    0    0  502    0  0.00000000000E+00  0.00000000000E+00  0.22982501286E+03  0.22982501286E+03  0.00000000000E+00 0.  1.
         13   -1    0    0    0    0 -0.00000000000E+00 -0.00000000000E+00 -0.27500000000E+03  0.27500000000E+03  0.00000000000E+00 0.  1.
    9000005    2    1    2  501    0  0.31201164217E+02  0.13710085961E+02 -0.12715640171E+02  0.45776028815E+03  0.45631273793E+03 0.  0.
         13    1    3    3    0    0 -0.43393945518E+02  0.22135796645E+03 -0.57131975853E+02  0.23269389008E+03  0.00000000000E+00 0.  1.
          1    1    3    3  501    0  0.74595109735E+02 -0.20764788048E+03  0.44416335681E+02  0.22506639807E+03  0.00000000000E+00 0.  1.
         21    1    1    2  502  501 -0.31201164217E+02 -0.13710085961E+02 -0.32459346972E+02  0.47064724703E+02  0.00000000000E+00 0.  1.
<scales pt_clust_4="550.00000" pt_clust_5="550.00000" pt_clust_6="34.08050"></scales>
<mgrwt>
<rscale>  0 0.30000000E+03</rscale>
<asrwt>  1 0.34080497E+02</asrwt>
<pdfrwt beam="1">  1        1 0.83572732E+00 0.30000000E+03</pdfrwt>
<pdfrwt beam="2">0</pdfrwt>
<totfact> 0.53711020E-04</totfact>
</mgrwt>
<clustering>
<clus scale="   34.080">  1  6  2 -1</clus>
<clus scale="  456.313">  4  5 -1 -1</clus>
<clus scale="  300.000">  1  4  2 -1</clus>
</clustering>
</event>
<event>
 6    1  0.1033679E-011  0.3000000E+03  0.7818608E-02  0.1093470E+00
          1   -1    0    0  502    0  0.00000000000E+00  0.00000000000E+00  0.23016853471E+03  0.23016853471E+03  0.00000000000E+00 0.  1.
         13   -1    0    0    0    0 -0.00000000000E+00 -0.00000000000E+00 -0.27500000000E+03  0.27500000000E+03  0.00000000000E+00 0.  1.
    9000005    2    1    2  501    0 -0.30861538627E+02  0.88357281003E+01 -0.54299220904E+02  0.47169999644E+03  0.46746334252E+03 0.  0.
         13    1    3    3    0    0  0.21016110277E+03  0.65309307628E+02 -0.40458571637E+02  0.22376302376E+03  0.00000000000E+00 0.  1.
          1    1    3    3  501    0 -0.24102264140E+03 -0.56473579528E+02 -0.13840649267E+02  0.24793697269E+03  0.00000000000E+00 0.  1.
         21    1    1    2  502  501  0.30861538627E+02 -0.88357281003E+01  0.94677556181E+01  0.33468538270E+02  0.00000000000E+00 0.  1.
<scales pt_clust_4="550.00000" pt_clust_5="550.00000" pt_clust_6="32.10147"></scales>
<mgrwt>
<rscale>  0 0.30000000E+03</rscale>
<asrwt>  1 0.32101474E+02</asrwt>
<pdfrwt beam="1">  1        1 0.83697649E+00 0.30000000E+03</pdfrwt>
<pdfrwt beam="2">0</pdfrwt>
<totfact> 0.53199563E-04</totfact>
</mgrwt>
<clustering>
<clus scale="   32.101">  1  6  2 -1</clus>
<clus scale="  467.463">  4  5 -1 -1</clus>
<clus scale="  300.000">  1  4  2 -1</clus>
</clustering>
</event>
<event>
 6    1  0.1033679E-011  0.3000000E+03  0.7818608E-02  0.1093470E+00
          1   -1    0    0  502    0  0.00000000000E+00  0.00000000000E+00  0.22863767084E+03  0.22863767084E+03  0.00000000000E+00 0.  1.
         13   -1    0    0    0    0 -0.00000000000E+00 -0.00000000000E+00 -0.27500000000E+03  0.27500000000E+03  0.00000000000E+00 0.  1.
    9000005    2    1    2  501    0  0.34963528646E+02  0.64713552744E+01 -0.43131443660E+02  0.46793381396E+03  0.46458304537E+03 0.  0.
         13    1    3    3    0    0 -0.34738346154E+00  0.16744755006E+03  0.14237569990E+03  0.21979454638E+03  0.00000000000E+00 0.  1.
          1    1    3    3  501    0  0.35310912108E+02 -0.16097619479E+03 -0.18550714356E+03  0.24813926758E+03  0.00000000000E+00 0.  1.
         21    1    1    2  502  501 -0.34963528646E+02 -0.64713552744E+01 -0.32308855045E+01  0.35703856873E+02  0.00000000000E+00 0.  1.
<scales pt_clust_4="550.00000" pt_clust_5="550.00000" pt_clust_6="35.55737"></scales>
<mgrwt>
<rscale>  0 0.30000000E+03</rscale>
<asrwt>  1 0.35557373E+02</asrwt>
<pdfrwt beam="1">  1        1 0.83140971E+00 0.30000000E+03</pdfrwt>
<pdfrwt beam="2">0</pdfrwt>
<totfact> 0.57406293E-04</totfact>
</mgrwt>
<clustering>
<clus scale="   35.557">  1  6  2 -1</clus>
<clus scale="  464.583">  4  5 -1 -1</clus>
<clus scale="  300.000">  1  4  2 -1</clus>
</clustering>
</event>
<event>
 6    1  0.1033679E-011  0.3000000E+03  0.7818608E-02  0.1093470E+00
          1   -1    0    0  502    0  0.00000000000E+00  0.00000000000E+00  0.24684193901E+03  0.24684193901E+03  0.00000000000E+00 0.  1.
         13   -1    0    0    0    0 -0.00000000000E+00 -0.00000000000E+00 -0.27500000000E+03  0.27500000000E+03  0.00000000000E+00 0.  1.
    9000005    2    1    2  501    0  0.21894645497E+02  0.21842174290E+02 -0.35904051317E+02  0.48996002493E+03  0.48766306919E+03 0.  0.
         13    1    3    3    0    0  0.23476556175E+02  0.72754992389E+02 -0.25438276377E+03  0.26562196466E+03  0.00000000000E+00 0.  1.
          3    1    3    3  501    0 -0.15819106783E+01 -0.50912818099E+02  0.21847871246E+03  0.22433806027E+03  0.00000000000E+00 0.  1.
         21    1    1    2  502  501 -0.21894645497E+02 -0.21842174290E+02  0.77459903240E+01  0.31881914078E+02  0.00000000000E+00 0. -1.
<scales pt_clust_4="550.00000" pt_clust_5="550.00000" pt_clust_6="30.92662"></scales>
<mgrwt>
<rscale>  0 0.30000000E+03</rscale>
<asrwt>  1 0.30926624E+02</asrwt>
<pdfrwt beam="1">  1        1 0.89760705E+00 0.30000000E+03</pdfrwt>
<pdfrwt beam="2">0</pdfrwt>
<totfact> 0.12069091E-04</totfact>
</mgrwt>
<clustering>
<clus scale="   30.927">  1  6  2 -1</clus>
<clus scale="  487.663">  4  5 -1 -1</clus>
<clus scale="  300.000">  1  4  2 -1</clus>
</clustering>
</event>
<event>
 6    1  0.1033679E-011  0.3000000E+03  0.7818608E-02  0.1093470E+00
          1   -1    0    0  502    0  0.00000000000E+00  0.00000000000E+00  0.25196693832E+03  0.25196693832E+03  0.00000000000E+00 0.  1.
         13   -1    0    0    0    0 -0.00000000000E+00 -0.00000000000E+00 -0.27500000000E+03  0.27500000000E+03  0.00000000000E+00 0.  1.
    9000005    2    1    2  501    0 -0.19675214600E+02 -0.31999955361E+02 -0.52582046082E+02  0.47917307164E+03  0.47479558739E+03 0.  0.
         13    1    3    3    0    0  0.18863639657E+03 -0.14440951638E+03 -0.43663101657E+01  0.23760653020E+03  0.00000000000E+00 0.  1.
          1    1    3    3  501    0 -0.20831161117E+03  0.11240956101E+03 -0.48215735916E+02  0.24156654144E+03  0.00000000000E+00 0.  1.
         21    1    1    2  502  501  0.19675214600E+02  0.31999955361E+02  0.29548984398E+02  0.47793866674E+02  0.00000000000E+00 0. -1.
<scales pt_clust_4="550.00000" pt_clust_5="550.00000" pt_clust_6="37.56476"></scales>
<mgrwt>
<rscale>  0 0.30000000E+03</rscale>
<asrwt>  1 0.37564760E+02</asrwt>
<pdfrwt beam="1">  1        1 0.91624341E+00 0.30000000E+03</pdfrwt>
<pdfrwt beam="2">0</pdfrwt>
<totfact> 0.50026177E-05</totfact>
</mgrwt>
<clustering>
<clus scale="   37.565">  1  6  2 -1</clus>
<clus scale="  474.796">  4  5 -1 -1</clus>
<clus scale="  300.000">  1  4  2 -1</clus>
</clustering>
</event>
<event>
 6    1  0.1033679E-011  0.3000000E+03  0.7818608E-02  0.1093470E+00
          1   -1    0    0  502    0  0.00000000000E+00  0.00000000000E+00  0.22091841077E+03  0.22091841077E+03  0.00000000000E+00 0.  1.
         13   -1    0    0    0    0 -0.00000000000E+00 -0.00000000000E+00 -0.27500000000E+03  0.27500000000E+03  0.00000000000E+00 0.  1.
    9000005    2    1    2  501    0  0.29550186457E+02  0.16445576892E+02 -0.40982389985E+02  0.45965190364E+03  0.45657052654E+03 0.  0.
         13    1    3    3    0    0  0.23748850001E+03  0.52917398650E+02  0.59502465847E+01  0.24338538196E+03  0.00000000000E+00 0.  1.
          1    1    3    3  501    0 -0.20793831355E+03 -0.36471821759E+02 -0.46932636569E+02  0.21626652168E+03  0.00000000000E+00 0.  1.
         21    1    1    2  502  501 -0.29550186457E+02 -0.16445576892E+02 -0.13099199244E+02  0.36266507135E+02  0.00000000000E+00 0.  1.
<scales pt_clust_4="550.00000" pt_clust_5="550.00000" pt_clust_6="33.81821"></scales>
<mgrwt>
<rscale>  0 0.30000000E+03</rscale>
<asrwt>  1 0.33818215E+02</asrwt>
<pdfrwt beam="1">  1        1 0.80333968E+00 0.30000000E+03</pdfrwt>
<pdfrwt beam="2">0</pdfrwt>
<totfact> 0.98688361E-04</totfact>
</mgrwt>
<clustering>
<clus scale="   33.818">  1  6  2 -1</clus>
<clus scale="  456.571">  4  5 -1 -1</clus>
<clus scale="  300.000">  1  4  2 -1</clus>
</clustering>
</event>
<event>
 6    1  0.1033679E-011  0.3000000E+03  0.7818608E-02  0.1093470E+00
          1   -1    0    0  502    0  0.00000000000E+00  0.00000000000E+00  0.22985530023E+03  0.22985530023E+03  0.00000000000E+00 0.  1.
         13   -1    0    0    0    0 -0.00000000000E+00 -0.00000000000E+00 -0.27500000000E+03  0.27500000000E+03  0.00000000000E+00 0.  1.
    9000005    2    1    2  501    0 -0.15484186033E+02  0.27044255054E+02 -0.72569840739E+02  0.46334277073E+03  0.45656214216E+03 0.  0.
         13    1    3    3    0    0  0.29315752371E+02  0.19979278597E+03  0.90788494604E+02  0.22140262288E+03  0.00000000000E+00 0.  1.
          3    1    3    3  501    0 -0.44799938404E+02 -0.17274853092E+03 -0.16335833534E+03  0.24194014785E+03  0.00000000000E+00 0.  1.
         21    1    1    2  502  501  0.15484186033E+02 -0.27044255054E+02  0.27425140966E+02  0.41512529501E+02  0.00000000000E+00 0. -1.
<scales pt_clust_4="550.00000" pt_clust_5="550.00000" pt_clust_6="31.16331"></scales>
<mgrwt>
<rscale>  0 0.30000000E+03</rscale>
<asrwt>  1 0.31163308E+02</asrwt>
<pdfrwt beam="1">  1        1 0.83583746E+00 0.30000000E+03</pdfrwt>
<pdfrwt beam="2">0</pdfrwt>
<totfact> 0.54529256E-04</totfact>
</mgrwt>
<clustering>
<clus scale="   31.163">  1  6  2 -1</clus>
<clus scale="  456.562">  4  5 -1 -1</clus>
<clus scale="  300.000">  1  4  2 -1</clus>
</clustering>
</event>
<event>
 6    1  0.1033679E-011  0.3000000E+03  0.7818608E-02  0.1093470E+00
          1   -1    0    0  502    0  0.00000000000E+00  0.00000000000E+00  0.25135593636E+03  0.25135593636E+03  0.00000000000E+00 0.  1.
         13   -1    0    0    0    0 -0.00000000000E+00 -0.00000000000E+00 -0.27500000000E+03  0.27500000000E+03  0.00000000000E+00 0.  1.
    9000005    2    1    2  501    0 -0.30213716849E+02 -0.14735206259E+02 -0.21811058740E+02  0.49269059964E+03  0.49105835672E+03 0.  0.
         13    1    3    3    0    0 -0.10337840714E+03 -0.20711920226E+03 -0.12431286089E+03  0.26275301405E+03  0.00000000000E+00 0.  1.
          1    1    3    3  501    0  0.73164690294E+02  0.19238399600E+03  0.10250180215E+03  0.22993758559E+03  0.00000000000E+00 0.  1.
         21    1    1    2  502  501  0.30213716849E+02  0.14735206259E+02 -0.18330049014E+01  0.33665336717E+02  0.00000000000E+00 0.  1.
<scales pt_clust_4="550.00000" pt_clust_5="550.00000" pt_clust_6="33.61541"></scales>
<mgrwt>
<rscale>  0 0.30000000E+03</rscale>
<asrwt>  1 0.33615415E+02</asrwt>
<pdfrwt beam="1">  1        1 0.91402159E+00 0.30000000E+03</pdfrwt>
<pdfrwt beam="2">0</pdfrwt>
<totfact> 0.57552424E-05</totfact>
</mgrwt>
<clustering>
<clus scale="   33.615">  1  6  2 -1</clus>
<clus scale="  491.058">  4  5 -1 -1</clus>
<clus scale="  300.000">  1  4  2 -1</clus>
</clustering>
</event>
<event>
 6    1  0.1033679E-011  0.3000000E+03  0.7818608E-02  0.1093470E+00
          1   -1    0    0  502    0  0.00000000000E+00  0.00000000000E+00  0.23992642651E+03  0.23992642651E+03  0.00000000000E+00 0.  1.
         13   -1    0    0    0    0 -0.00000000000E+00 -0.00000000000E+00 -0.27500000000E+03  0.27500000000E+03  0.00000000000E+00 0.  1.
    9000005    2    1    2  501    0 -0.17400111649E+02  0.39693904838E+02 -0.45187624877E+02  0.47042177504E+03  0.46623637248E+03 0.  0.
         13    1    3    3    0    0 -0.97356957174E+02  0.13008144181E+03  0.16276988051E+03  0.22998607048E+03  0.00000000000E+00 0.  1.
          1    1    3    3  501    0  0.79956845525E+02 -0.90387536969E+02 -0.20795750538E+03  0.24043570457E+03  0.00000000000E+00 0.  1.
         21    1    1    2  502  501  0.17400111649E+02 -0.39693904838E+02  0.10114051384E+02  0.44504651465E+02  0.00000000000E+00 0.  1.
<scales pt_clust_4="550.00000" pt_clust_5="550.00000" pt_clust_6="43.34017"></scales>
<mgrwt>
<rscale>  0 0.30000000E+03</rscale>
<asrwt>  1 0.43340166E+02</asrwt>
<pdfrwt beam="1">  1        1 0.87245973E+00 0.30000000E+03</pdfrwt>
<pdfrwt beam="2">0</pdfrwt>
<totfact> 0.22982658E-04</totfact>
</mgrwt>
<clustering>
<clus scale="   43.340">  1  6  2 -1</clus>
<clus scale="  466.236">  4  5 -1 -1</clus>
<clus scale="  300.000">  1  4  2 -1</clus>
</clustering>
</event>
<event>
 6    1  0.1033679E-011  0.3000000E+03  0.7818608E-02  0.1093470E+00
          1   -1    0    0  502    0  0.00000000000E+00  0.00000000000E+00  0.22656137698E+03  0.22656137698E+03  0.00000000000E+00 0.  1.
         13   -1    0    0    0    0 -0.00000000000E+00 -0.00000000000E+00 -0.27500000000E+03  0.27500000000E+03  0.00000000000E+00 0.  1.
    9000005    2    1    2  501    0 -0.18816639637E+02  0.29422146959E+02 -0.51651403953E+02  0.46648929948E+03  0.46230365598E+03 0.  0.
         13    1    3    3    0    0  0.12707154084E+03  0.14756388068E+03  0.10566992642E+03  0.22155904116E+03  0.00000000000E+00 0.  1.
          1    1    3    3  501    0 -0.14588818048E+03 -0.11814173372E+03 -0.15732133037E+03  0.24493025831E+03  0.00000000000E+00 0.  1.
         21    1    1    2  502  501  0.18816639637E+02 -0.29422146959E+02  0.32127809295E+01  0.35072077501E+02  0.00000000000E+00 0.  1.
<scales pt_clust_4="550.00000" pt_clust_5="550.00000" pt_clust_6="34.92461"></scales>
<mgrwt>
<rscale>  0 0.30000000E+03</rscale>
<asrwt>  1 0.34924614E+02</asrwt>
<pdfrwt beam="1">  1        1 0.82385955E+00 0.30000000E+03</pdfrwt>
<pdfrwt beam="2">0</pdfrwt>
<totfact> 0.66894843E-04</totfact>
</mgrwt>
<clustering>
<clus scale="   34.925">  1  6  2 -1</clus>
<clus scale="  462.304">  4  5 -1 -1</clus>
<clus scale="  300.000">  1  4  2 -1</clus>
</clustering>
</event>
<event>
 6    1  0.1033679E-011  0.3000000E+03  0.7818608E-02  0.1093470E+00
          1   -1    0    0  502    0  0.00000000000E+00  0.00000000000E+00  0.24206646521E+03  0.24206646521E+03  0.00000000000E+00 0.  1.
         13   -1    0    0    0    0 -0.00000000000E+00 -0.00000000000E+00 -0.27500000000E+03  0.27500000000E+03  0.00000000000E+00 0.  1.
    9000005    2    1    2  501    0  0.20777746482E+00  0.32250624982E+02 -0.43896724967E+02  0.48300273784E+03  0.47992142723E+03 0.  0.
         13    1    3    3    0    0 -0.81724901971E+02  0.21545299561E+03 -0.13005591930E+03  0.26460063315E+03  0.00000000000E+00 0.  1.
          1    1    3    3  501    0  0.81932679436E+02 -0.18320237063E+03  0.86159194336E+02  0.21840210469E+03  0.00000000000E+00 0.  1.
         21    1    1    2  502  501 -0.20777746482E+00 -0.32250624982E+02  0.10963190177E+02  0.34063727366E+02  0.00000000000E+00 0. -1.
<scales pt_clust_4="550.00000" pt_clust_5="550.00000" pt_clust_6="32.25129"></scales>
<mgrwt>
<rscale>  0 0.30000000E+03</rscale>
<asrwt>  1 0.32251294E+02</asrwt>
<pdfrwt beam="1">  1        1 0.88024169E+00 0.30000000E+03</pdfrwt>
<pdfrwt beam="2">0</pdfrwt>
<totfact> 0.19906781E-04</totfact>
</mgrwt>
<clustering>
<clus scale="   32.251">  1  6  2 -1</clus>
<clus scale="  479.921">  4  5 -1 -1</clus>
<clus scale="  300.000">  1  4  2 -1</clus>
</clustering>
</event>
<event>
 6    1  0.1033679E-011  0.3000000E+03  0.7818608E-02  0.1093470E+00
          1   -1    0    0  502    0  0.00000000000E+00  0.00000000000E+00  0.24781574715E+03  0.24781574715E+03  0.00000000000E+00 0.  1.
         13   -1    0    0    0    0 -0.00000000000E+00 -0.00000000000E+00 -0.27500000000E+03  0.27500000000E+03  0.00000000000E+00 0.  1.
    9000005    2    1    2  501    0  0.31968260007E+02  0.13875816827E+02 -0.68284634743E+02  0.46892929865E+03  0.46262013342E+03 0.  0.
         13    1    3    3    0    0 -0.11999195390E+03  0.95184396098E+02  0.13377207234E+03  0.20335463014E+03  0.00000000000E+00 0.  1.
          3    1    3    3  501    0  0.15196021391E+03 -0.81308579271E+02 -0.20205670708E+03  0.26557466851E+03  0.00000000000E+00 0.  1.
         21    1    1    2  502  501 -0.31968260007E+02 -0.13875816827E+02  0.41100381891E+02  0.53886448501E+02  0.00000000000E+00 0.  1.
<scales pt_clust_4="550.00000" pt_clust_5="550.00000" pt_clust_6="34.84979"></scales>
<mgrwt>
<rscale>  0 0.30000000E+03</rscale>
<asrwt>  1 0.34849791E+02</asrwt>
<pdfrwt beam="1">  1        1 0.90114817E+00 0.30000000E+03</pdfrwt>
<pdfrwt beam="2">0</pdfrwt>
<totfact> 0.10678467E-04</totfact>
</mgrwt>
<clustering>
<clus scale="   34.850">  1  6  2 -1</clus>
<clus scale="  462.620">  4  5 -1 -1</clus>
<clus scale="  300.000">  1  4  2 -1</clus>
</clustering>
</event>
<event>
 6    1  0.1033679E-011  0.3000000E+03  0.7818608E-02  0.1093470E+00
          1   -1    0    0  502    0  0.00000000000E+00  0.00000000000E+00  0.23285707315E+03  0.23285707315E+03  0.00000000000E+00 0.  1.
         13   -1    0    0    0    0 -0.00000000000E+00 -0.00000000000E+00 -0.27500000000E+03  0.27500000000E+03  0.00000000000E+00 0.  1.
    9000005    2    1    2  501    0  0.28210145289E+02  0.20588728966E+02 -0.63195133596E+02  0.46707835975E+03  0.46146382435E+03 0.  0.
         13    1    3    3    0    0  0.93348971525E+02 -0.19768130658E+03  0.30591382674E+02  0.22074365710E+03  0.00000000000E+00 0.  1.
          3    1    3    3  501    0 -0.65138826236E+02  0.21827003554E+03 -0.93786516270E+02  0.24633470266E+03  0.00000000000E+00 0.  1.
         21    1    1    2  502  501 -0.28210145289E+02 -0.20588728966E+02  0.21052206750E+02  0.40778713402E+02  0.00000000000E+00 0. -1.
<scales pt_clust_4="550.00000" pt_clust_5="550.00000" pt_clust_6="34.92432"></scales>
<mgrwt>
<rscale>  0 0.30000000E+03</rscale>
<asrwt>  1 0.34924319E+02</asrwt>
<pdfrwt beam="1">  1        1 0.84675299E+00 0.30000000E+03</pdfrwt>
<pdfrwt beam="2">0</pdfrwt>
<totfact> 0.43612039E-04</totfact>
</mgrwt>
<clustering>
<clus scale="   34.924">  1  6  2 -1</clus>
<clus scale="  461.464">  4  5 -1 -1</clus>
<clus scale="  300.000">  1  4  2 -1</clus>
</clustering>
</event>
<event>
 6    1  0.1033679E-011  0.3000000E+03  0.7818608E-02  0.1093470E+00
          1   -1    0    0  502    0  0.00000000000E+00  0.00000000000E+00  0.23884801592E+03  0.23884801592E+03  0.00000000000E+00 0.  1.
         13   -1    0    0    0    0 -0.00000000000E+00 -0.00000000000E+00 -0.27500000000E+03  0.27500000000E+03  0.00000000000E+00 0.  1.
    9000005    2    1    2  501    0  0.29939409566E+02  0.78391193948E+01 -0.48338310927E+02  0.48058652768E+03  0.47714672612E+03 0.  0.
         13    1    3    3    0    0 -0.32946695591E+02  0.88331218496E+02  0.19504674275E+03  0.21663591754E+03  0.00000000000E+00 0.  1.
          3    1    3    3  501    0  0.62886105157E+02 -0.80492099102E+02 -0.24338505368E+03  0.26395061014E+03  0.00000000000E+00 0.  1.
         21    1    1    2  502  501 -0.29939409566E+02 -0.78391193948E+01  0.12186326849E+02  0.33261488243E+02  0.00000000000E+00 0. -1.
<scales pt_clust_4="550.00000" pt_clust_5="550.00000" pt_clust_6="30.94867"></scales>
<mgrwt>
<rscale>  0 0.30000000E+03</rscale>
<asrwt>  1 0.30948668E+02</asrwt>
<pdfrwt beam="1">  1        1 0.86853824E+00 0.30000000E+03</pdfrwt>
<pdfrwt beam="2">0</pdfrwt>
<totfact> 0.26833415E-04</totfact>
</mgrwt>
<clustering>
<clus scale="   30.949">  1  6  2 -1</clus>
<clus scale="  477.147">  4  5 -1 -1</clus>
<clus scale="  300.000">  1  4  2 -1</clus>
</clustering>
</event>
<event>
 6    1  0.1033679E-011  0.3000000E+03  0.7818608E-02  0.1093470E+00
          1   -1    0    0  502    0  0.00000000000E+00  0.00000000000E+00  0.22267424624E+03  0.22267424624E+03  0.00000000000E+00 0.  1.
         13   -1    0    0    0    0 -0.00000000000E+00 -0.00000000000E+00 -0.27500000000E+03  0.27500000000E+03  0.00000000000E+00 0.  1.
    9000005    2    1    2  501    0  0.34959956736E+02 -0.19561360284E+01 -0.48944312674E+02  0.46249670814E+03  0.45856475470E+03 0.  0.
         13    1    3    3    0    0  0.17397180558E+03 -0.37593083662E+02 -0.19064805858E+03  0.26081815757E+03  0.00000000000E+00 0.  1.
          1    1    3    3  501    0 -0.13901184885E+03  0.35636947634E+02  0.14170374590E+03  0.20167855057E+03  0.00000000000E+00 0.  1.
         21    1    1    2  502  501 -0.34959956736E+02  0.19561360284E+01 -0.33814410852E+01  0.35177538103E+02  0.00000000000E+00 0. -1.
<scales pt_clust_4="550.00000" pt_clust_5="550.00000" pt_clust_6="35.01464"></scales>
<mgrwt>
<rscale>  0 0.30000000E+03</rscale>
<asrwt>  1 0.35014640E+02</asrwt>
<pdfrwt beam="1">  1        1 0.80972453E+00 0.30000000E+03</pdfrwt>
<pdfrwt beam="2">0</pdfrwt>
<totfact> 0.87639908E-04</totfact>
</mgrwt>
<clustering>
<clus scale="   35.015">  1  6  2 -1</clus>
<clus scale="  458.565">  4  5 -1 -1</clus>
<clus scale="  300.000">  1  4  2 -1</clus>
</clustering>
</event>
<event>
 6    1  0.1033679E-011  0.3000000E+03  0.7818608E-02  0.1093470E+00
          1   -1    0    0  502    0  0.00000000000E+00  0.00000000000E+00  0.22754927891E+03  0.22754927891E+03  0.00000000000E+00 0.  1.
         13   -1    0    0    0    0 -0.00000000000E+00 -0.00000000000E+00 -0.27500000000E+03  0.27500000000E+03  0.00000000000E+00 0.  1.
    9000005    2    1    2  501    0  0.36117526623E+02 -0.35329875016E+01 -0.41485724242E+02  0.46577239871E+03  0.46249962633E+03 0.  0.
         13    1    3    3    0    0  0.76033983910E+02  0.21888037158E+03  0.17080541394E+02  0.23233925339E+03  0.00000000000E+00 0.  1.
          1    1    3    3  501    0 -0.39916457287E+02 -0.22241335908E+03 -0.58566265636E+02  0.23343314531E+03  0.00000000000E+00 0.  1.
         21    1    1    2  502  501 -0.36117526623E+02  0.35329875016E+01 -0.59649968482E+01  0.36776880202E+02  0.00000000000E+00 0. -1.
<scales pt_clust_4="550.00000" pt_clust_5="550.00000" pt_clust_6="36.28993"></scales>
<mgrwt>
<rscale>  0 0.30000000E+03</rscale>
<asrwt>  1 0.36289930E+02</asrwt>
<pdfrwt beam="1">  1        1 0.82745192E+00 0.30000000E+03</pdfrwt>
<pdfrwt beam="2">0</pdfrwt>
<totfact> 0.61715290E-04</totfact>
</mgrwt>
<clustering>
<clus scale="   36.290">  1  6  2 -1</clus>
<clus scale="  462.500">  4  5 -1 -1</clus>
<clus scale="  300.000">  1  4  2 -1</clus>
</clustering>
</event>
<event>
 6    1  0.1033679E-011  0.3000000E+03  0.7818608E-02  0.1093470E+00
          1   -1    0    0  502    0  0.00000000000E+00  0.00000000000E+00  0.23263877174E+03  0.23263877174E+03  0.00000000000E+00 0.  1.
         13   -1    0    0    0    0 -0.00000000000E+00 -0.00000000000E+00 -0.27500000000E+03  0.27500000000E+03  0.00000000000E+00 0.  1.
    9000005    2    1    2  501    0 -0.14874832096E+02  0.30096751176E+02 -0.67961904189E+02  0.46541946728E+03  0.45920516661E+03 0.  0.
         13    1    3    3    0    0  0.18466751201E+03 -0.10118537095E+03 -0.82417482915E+02  0.22612653709E+03  0.00000000000E+00 0.  1.
          1    1    3    3  501    0 -0.19954234411E+03  0.13128212212E+03  0.14455578726E+02  0.23929293019E+03  0.00000000000E+00 0.  1.
         21    1    1    2  502  501  0.14874832096E+02 -0.30096751176E+02  0.25600675925E+02  0.42219304460E+02  0.00000000000E+00 0.  1.
<scales pt_clust_4="550.00000" pt_clust_5="550.00000" pt_clust_6="33.57194"></scales>
<mgrwt>
<rscale>  0 0.30000000E+03</rscale>
<asrwt>  1 0.33571939E+02</asrwt>
<pdfrwt beam="1">  1        1 0.84595917E+00 0.30000000E+03</pdfrwt>
<pdfrwt beam="2">0</pdfrwt>
<totfact> 0.44659915E-04</totfact>
</mgrwt>
<clustering>
<clus scale="   33.572">  1  6  2 -1</clus>
<clus scale="  459.205">  4  5 -1 -1</clus>
<clus scale="  300.000">  1  4  2 -1</clus>
</clustering>
</event>
<event>
 6    1  0.1033679E-011  0.3000000E+03  0.7818608E-02  0.1093470E+00
          1   -1    0    0  502    0  0.00000000000E+00  0.00000000000E+00  0.24398382856E+03  0.24398382856E+03  0.00000000000E+00 0.  1.
         13   -1    0    0    0    0 -0.00000000000E+00 -0.00000000000E+00 -0.27500000000E+03  0.27500000000E+03  0.00000000000E+00 0.  1.
    9000005    2    1    2  501    0  0.22403138600E+02  0.30238525603E+02 -0.61166564409E+02  0.47076230592E+03  0.46525211555E+03 0.  0.
         13    1    3    3    0    0  0.12540155035E+03 -0.14552490746E+03 -0.15465161904E+03  0.24661745841E+03  0.00000000000E+00 0.  1.
          3    1    3    3  501    0 -0.10299841175E+03  0.17576343306E+03  0.93485054631E+02  0.22414484751E+03  0.00000000000E+00 0.  1.
         21    1    1    2  502  501 -0.22403138600E+02 -0.30238525603E+02  0.30150392968E+02  0.48221522642E+02  0.00000000000E+00 0.  1.
<scales pt_clust_4="550.00000" pt_clust_5="550.00000" pt_clust_6="37.63335"></scales>
<mgrwt>
<rscale>  0 0.30000000E+03</rscale>
<asrwt>  1 0.37633350E+02</asrwt>
<pdfrwt beam="1">  1        1 0.88721392E+00 0.30000000E+03</pdfrwt>
<pdfrwt beam="2">0</pdfrwt>
<totfact> 0.15607376E-04</totfact>
</mgrwt>
<clustering>
<clus scale="   37.633">  1  6  2 -1</clus>
<clus scale="  465.252">  4  5 -1 -1</clus>
<clus scale="  300.000">  1  4  2 -1</clus>
</clustering>
</event>
<event>
 6    1  0.1033679E-011  0.3000000E+03  0.7818608E-02  0.1093470E+00
          1   -1    0    0  502    0  0.00000000000E+00  0.00000000000E+00  0.23243481981E+03  0.23243481981E+03  0.00000000000E+00 0.  1.
         13   -1    0    0    0    0 -0.00000000000E+00 -0.00000000000E+00 -0.27500000000E+03  0.27500000000E+03  0.00000000000E+00 0.  1.
    9000005    2    1    2  501    0 -0.31467966606E+02 -0.13899766426E+02 -0.46928623000E+02  0.47275808320E+03  0.46916358889E+03 0.  0.
         13    1    3    3    0    0  0.80658994085E+01 -0.69196554242E+02 -0.24952222131E+03  0.25906478105E+03  0.00000000000E+00 0.  1.
          3    1    3    3  501    0 -0.39533866014E+02  0.55296787816E+02  0.20259359831E+03  0.21369330215E+03  0.00000000000E+00 0.  1.
         21    1    1    2  502  501  0.31467966606E+02  0.13899766426E+02  0.43634428114E+01  0.34676736613E+02  0.00000000000E+00 0.  1.
<scales pt_clust_4="550.00000" pt_clust_5="550.00000" pt_clust_6="34.40111"></scales>
<mgrwt>
<rscale>  0 0.30000000E+03</rscale>
<asrwt>  1 0.34401111E+02</asrwt>
<pdfrwt beam="1">  1        1 0.84521753E+00 0.30000000E+03</pdfrwt>
<pdfrwt beam="2">0</pdfrwt>
<totfact> 0.45130464E-04</totfact>
</mgrwt>
<clustering>
<clus scale="   34.401">  1  6  2 -1</clus>
<clus scale="  469.164">  4  5 -1 -1</clus>
<clus scale="  300.000">  1  4  2 -1</clus>
</clustering>
</event>
<event>
 6    1  0.1033679E-011  0.3000000E+03  0.7818608E-02  0.1093470E+00
          1   -1    0    0  502    0  0.00000000000E+00  0.00000000000E+00  0.23919267111E+03  0.23919267111E+03  0.00000000000E+00 0.  1.
         13   -1    0    0    0    0 -0.00000000000E+00 -0.00000000000E+00 -0.27500000000E+03  0.27500000000E+03  0.00000000000E+00 0.  1.
    9000005    2    1    2  501    0  0.17287826974E+02 -0.26464768434E+02 -0.23921188095E+02  0.48042088891E+03  0.47878257522E+03 0.  0.
         13    1    3    3    0    0 -0.35932796250E+02  0.14296615615E+03  0.16491425213E+03  0.22119493260E+03  0.00000000000E+00 0.  1.
          3    1    3    3  501    0  0.53220623224E+02 -0.16943092459E+03 -0.18883544022E+03  0.25922595631E+03  0.00000000000E+00 0.  1.
         21    1    1    2  502  501 -0.17287826974E+02  0.26464768434E+02 -0.11886140797E+02  0.33771782198E+02  0.00000000000E+00 0. -1.
<scales pt_clust_4="550.00000" pt_clust_5="550.00000" pt_clust_6="31.61098"></scales>
<mgrwt>
<rscale>  0 0.30000000E+03</rscale>
<asrwt>  1 0.31610978E+02</asrwt>
<pdfrwt beam="1">  1        1 0.86979153E+00 0.30000000E+03</pdfrwt>
<pdfrwt beam="2">0</pdfrwt>
<totfact> 0.25943910E-04</totfact>
</mgrwt>
<clustering>
<clus scale="   31.611">  1  6  2 -1</clus>
<clus scale="  478.783">  4  5 -1 -1</clus>
<clus scale="  300.000">  1  4  2 -1</clus>
</clustering>
</event>
<event>
 6    1  0.1033679E-011  0.3000000E+03  0.7818608E-02  0.1093470E+00
          1   -1    0    0  502    0  0.00000000000E+00  0.00000000000E+00  0.24303230911E+03  0.24303230911E+03  0.00000000000E+00 0.  1.
         13   -1    0    0    0    0 -0.00000000000E+00 -0.00000000000E+00 -0.27500000000E+03  0.27500000000E+03  0.00000000000E+00 0.  1.
    9000005    2    1    2  501    0 -0.21582289283E+02  0.24169584273E+02 -0.54695908401E+02  0.47845282091E+03  0.47421039152E+03 0.  0.
         13    1    3    3    0    0 -0.79179019983E+02  0.41217322540E+02  0.19880872456E+03  0.21792910280E+03  0.00000000000E+00 0.  1.
          3    1    3    3  501    0  0.57596730700E+02 -0.17047738267E+02 -0.25350463297E+03  0.26052371812E+03  0.00000000000E+00 0.  1.
         21    1    1    2  502  501  0.21582289283E+02 -0.24169584273E+02  0.22728217512E+02  0.39579488196E+02  0.00000000000E+00 0.  1.
<scales pt_clust_4="550.00000" pt_clust_5="550.00000" pt_clust_6="32.40315"></scales>
<mgrwt>
<rscale>  0 0.30000000E+03</rscale>
<asrwt>  1 0.32403148E+02</asrwt>
<pdfrwt beam="1">  1        1 0.88375385E+00 0.30000000E+03</pdfrwt>
<pdfrwt beam="2">0</pdfrwt>
<totfact> 0.17904246E-04</totfact>
</mgrwt>
<clustering>
<clus scale="   32.403">  1  6  2 -1</clus>
<clus scale="  474.210">  4  5 -1 -1</clus>
<clus scale="  300.000">  1  4  2 -1</clus>
</clustering>
</event>
<event>
 6    1  0.1033679E-011  0.3000000E+03  0.7818608E-02  0.1093470E+00
          1   -1    0    0  502    0  0.00000000000E+00  0.00000000000E+00  0.24291805594E+03  0.24291805594E+03  0.00000000000E+00 0.  1.
         13   -1    0    0    0    0 -0.00000000000E+00 -0.00000000000E+00 -0.27500000000E+03  0.27500000000E+03  0.00000000000E+00 0.  1.
    9000005    2    1    2  501    0  0.33547402296E+02  0.10942172926E+00 -0.54582892461E+02  0.47752334276E+03  0.47320588602E+03 0.  0.
         13    1    3    3    0    0 -0.11250616350E+03 -0.16555507926E+03  0.83688531337E+02  0.21695596643E+03  0.00000000000E+00 0.  1.
          3    1    3    3  501    0  0.14605356580E+03  0.16566450098E+03 -0.13827142380E+03  0.26056737633E+03  0.00000000000E+00 0.  1.
         21    1    1    2  502  501 -0.33547402296E+02 -0.10942172926E+00  0.22500948404E+02  0.40394713181E+02  0.00000000000E+00 0.  1.
<scales pt_clust_4="550.00000" pt_clust_5="550.00000" pt_clust_6="33.54758"></scales>
<mgrwt>
<rscale>  0 0.30000000E+03</rscale>
<asrwt>  1 0.33547581E+02</asrwt>
<pdfrwt beam="1">  1        1 0.88333839E+00 0.30000000E+03</pdfrwt>
<pdfrwt beam="2">0</pdfrwt>
<totfact> 0.18017249E-04</totfact>
</mgrwt>
<clustering>
<clus scale="   33.548">  1  6  2 -1</clus>
<clus scale="  473.206">  4  5 -1 -1</clus>
<clus scale="  300.000">  1  4  2 -1</clus>
</clustering>
</event>
<event>
 6    1  0.1033679E-011  0.3000000E+03  0.7818608E-02  0.1093470E+00
          1   -1    0    0  502    0  0.00000000000E+00  0.00000000000E+00  0.22633184621E+03  0.22633184621E+03  0.00000000000E+00 0.  1.
         13   -1    0    0    0    0 -0.00000000000E+00 -0.00000000000E+00 -0.27500000000E+03  0.27500000000E+03  0.00000000000E+00 0.  1.
    9000005    2    1    2  501    0  0.34949347879E+02  0.62450713915E+01 -0.40111720763E+02  0.46481239413E+03  0.46171544674E+03 0.  0.
         13    1    3    3    0    0 -0.21132231079E+03  0.28485471614E+02  0.57999463346E+01  0.21331240121E+03  0.00000000000E+00 0.  1.
          1    1    3    3  501    0  0.24627165867E+03 -0.22240400222E+02 -0.45911667097E+02  0.25149999293E+03  0.00000000000E+00 0.  1.
         21    1    1    2  502  501 -0.34949347879E+02 -0.62450713915E+01 -0.85564330283E+01  0.36519452077E+02  0.00000000000E+00 0.  1.
<scales pt_clust_4="550.00000" pt_clust_5="550.00000" pt_clust_6="35.50294"></scales>
<mgrwt>
<rscale>  0 0.30000000E+03</rscale>
<asrwt>  1 0.35502945E+02</asrwt>
<pdfrwt beam="1">  1        1 0.82302490E+00 0.30000000E+03</pdfrwt>
<pdfrwt beam="2">0</pdfrwt>
<totfact> 0.67843918E-04</totfact>
</mgrwt>
<clustering>
<clus scale="   35.503">  1  6  2 -1</clus>
<clus scale="  461.715">  4  5 -1 -1</clus>
<clus scale="  300.000">  1  4  2 -1</clus>
</clustering>
</event>
<event>
 6    1  0.1033679E-011  0.3000000E+03  0.7818608E-02  0.1093470E+00
          1   -1    0    0  502    0  0.00000000000E+00  0.00000000000E+00  0.22537839301E+03  0.22537839301E+03  0.00000000000E+00 0.  1.
         13   -1    0    0    0    0 -0.00000000000E+00 -0.00000000000E+00 -0.27500000000E+03  0.27500000000E+03  0.00000000000E+00 0.  1.
    9000005    2    1    2  501    0 -0.20457200681E+02 -0.26930509135E+02 -0.30052862174E+02  0.46130557438E+03  0.45908159302E+03 0.  0.
         13    1    3    3    0    0  0.20610573060E+02 -0.24068431184E+03 -0.31699504074E+02  0.24363618829E+03  0.00000000000E+00 0.  1.
          3    1    3    3  501    0 -0.41067773740E+02  0.21375380270E+03  0.16466418992E+01  0.21766938609E+03  0.00000000000E+00 0.  1.
         21    1    1    2  502  501  0.20457200681E+02  0.26930509135E+02 -0.19568744818E+02  0.39072818630E+02  0.00000000000E+00 0. -1.
<scales pt_clust_4="550.00000" pt_clust_5="550.00000" pt_clust_6="33.81938"></scales>
<mgrwt>
<rscale>  0 0.30000000E+03</rscale>
<asrwt>  1 0.33819381E+02</asrwt>
<pdfrwt beam="1">  1        1 0.81955779E+00 0.30000000E+03</pdfrwt>
<pdfrwt beam="2">0</pdfrwt>
<totfact> 0.73438747E-04</totfact>
</mgrwt>
<clustering>
<clus scale="   33.819">  1  6  2 -1</clus>
<clus scale="  459.082">  4  5 -1 -1</clus>
<clus scale="  300.000">  1  4  2 -1</clus>
</clustering>
</event>
<event>
 6    1  0.1033679E-011  0.3000000E+03  0.7818608E-02  0.1093470E+00
          1   -1    0    0  502    0  0.00000000000E+00  0.00000000000E+00  0.23845296429E+03  0.23845296429E+03  0.00000000000E+00 0.  1.
         13   -1    0    0    0    0 -0.00000000000E+00 -0.00000000000E+00 -0.27500000000E+03  0.27500000000E+03  0.00000000000E+00 0.  1.
    9000005    2    1    2  501    0 -0.27222145264E+01 -0.29893478866E+02 -0.69174410064E+02  0.46911814628E+03  0.46301804029E+03 0.  0.
         13    1    3    3    0    0 -0.49745825132E+02 -0.20414801122E+03  0.89889446061E+02  0.22854139694E+03  0.00000000000E+00 0.  1.
          3    1    3    3  501    0  0.47023610605E+02  0.17425453235E+03 -0.15906385613E+03  0.24057674934E+03  0.00000000000E+00 0.  1.
         21    1    1    2  502  501  0.27222145264E+01  0.29893478866E+02  0.32627374352E+02  0.44334818007E+02  0.00000000000E+00 0.  1.
<scales pt_clust_4="550.00000" pt_clust_5="550.00000" pt_clust_6="30.01717"></scales>
<mgrwt>
<rscale>  0 0.30000000E+03</rscale>
<asrwt>  1 0.30017171E+02</asrwt>
<pdfrwt beam="1">  1        1 0.86710169E+00 0.30000000E+03</pdfrwt>
<pdfrwt beam="2">0</pdfrwt>
<totfact> 0.27937309E-04</totfact>
</mgrwt>
<clustering>
<clus scale="   30.017">  1  6  2 -1</clus>
<clus scale="  463.018">  4  5 -1 -1</clus>
<clus scale="  300.000">  1  4  2 -1</clus>
</clustering>
</event>
<event>
 6    1  0.1033679E-011  0.3000000E+03  0.7818608E-02  0.1093470E+00
          1   -1    0    0  502    0  0.00000000000E+00  0.00000000000E+00  0.23996525654E+03  0.23996525654E+03  0.00000000000E+00 0.  1.
         13   -1    0    0    0    0 -0.00000000000E+00 -0.00000000000E+00 -0.27500000000E+03  0.27500000000E+03  0.00000000000E+00 0.  1.
    9000005    2    1    2  501    0 -0.24529626754E+01 -0.33622538585E+02 -0.66675112178E+02  0.46873101534E+03  0.46273826515E+03 0.  0.
         13    1    3    3    0    0  0.19266957862E+03  0.10982242311E+03 -0.29855425927E+02  0.22377193211E+03  0.00000000000E+00 0.  1.
          3    1    3    3  501    0 -0.19512254130E+03 -0.14344496169E+03 -0.36819686251E+02  0.24495908322E+03  0.00000000000E+00 0.  1.
         21    1    1    2  502  501  0.24529626754E+01  0.33622538585E+02  0.31640368715E+02  0.46234241199E+02  0.00000000000E+00 0. -1.
<scales pt_clust_4="550.00000" pt_clust_5="550.00000" pt_clust_6="33.71190"></scales>
<mgrwt>
<rscale>  0 0.30000000E+03</rscale>
<asrwt>  1 0.33711899E+02</asrwt>
<pdfrwt beam="1">  1        1 0.87260093E+00 0.30000000E+03</pdfrwt>
<pdfrwt beam="2">0</pdfrwt>
<totfact> 0.23990090E-04</totfact>
</mgrwt>
<clustering>
<clus scale="   33.712">  1  6  2 -1</clus>
<clus scale="  462.738">  4  5 -1 -1</clus>
<clus scale="  300.000">  1  4  2 -1</clus>
</clustering>
</event>
<event>
 6    1  0.1033679E-011  0.3000000E+03  0.7818608E-02  0.1093470E+00
          1   -1    0    0  502    0  0.00000000000E+00  0.00000000000E+00  0.24970053084E+03  0.24970053084E+03  0.00000000000E+00 0.  1.
         13   -1    0    0    0    0 -0.00000000000E+00 -0.00000000000E+00 -0.27500000000E+03  0.27500000000E+03  0.00000000000E+00 0.  1.
    9000005    2    1    2  501    0  0.14254308823E+02  0.28272795228E+02 -0.45539699097E+02  0.48712123896E+03  0.48395320123E+03 0.  0.
         13    1    3    3    0    0 -0.18446264867E+03  0.50095606800E+02  0.12159947432E+03  0.22654463297E+03  0.00000000000E+00 0.  1.
          3    1    3    3  501    0  0.19871695749E+03 -0.21822811571E+02 -0.16713917342E+03  0.26057660599E+03  0.00000000000E+00 0.  1.
         21    1    1    2  502  501 -0.14254308823E+02 -0.28272795228E+02  0.20240229936E+02  0.37579291876E+02  0.00000000000E+00 0.  1.
<scales pt_clust_4="550.00000" pt_clust_5="550.00000" pt_clust_6="31.66285"></scales>
<mgrwt>
<rscale>  0 0.30000000E+03</rscale>
<asrwt>  1 0.31662853E+02</asrwt>
<pdfrwt beam="1">  1        1 0.90800193E+00 0.30000000E+03</pdfrwt>
<pdfrwt beam="2">0</pdfrwt>
<totfact> 0.81596227E-05</totfact>
</mgrwt>
<clustering>
<clus scale="   31.663">  1  6  2 -1</clus>
<clus scale="  483.953">  4  5 -1 -1</clus>
<clus scale="  300.000">  1  4  2 -1</clus>
</clustering>
</event>
<event>
 6    1  0.1033679E-011  0.3000000E+03  0.7818608E-02  0.1093470E+00
          1   -1    0    0  502    0  0.00000000000E+00  0.00000000000E+00  0.24846942439E+03  0.24846942439E+03  0.00000000000E+00 0.  1.
         13   -1    0    0    0    0 -0.00000000000E+00 -0.00000000000E+00 -0.27500000000E+03  0.27500000000E+03  0.00000000000E+00 0.  1.
    9000005    2    1    2  501    0  0.22990157161E+02 -0.23440544798E+02 -0.57829716690E+02  0.47810817772E+03  0.47346081887E+03 0.  0.
         13    1    3    3    0    0  0.63699011955E+02 -0.15571712221E+03  0.15200656354E+03  0.22674078070E+03  0.00000000000E+00 0.  1.
          1    1    3    3  501    0 -0.40708854794E+02  0.13227657741E+03 -0.20983628023E+03  0.25136739703E+03  0.00000000000E+00 0.  1.
         21    1    1    2  502  501 -0.22990157161E+02  0.23440544798E+02  0.31299141079E+02  0.45361246665E+02  0.00000000000E+00 0. -1.
<scales pt_clust_4="550.00000" pt_clust_5="550.00000" pt_clust_6="32.83301"></scales>
<mgrwt>
<rscale>  0 0.30000000E+03</rscale>
<asrwt>  1 0.32833009E+02</asrwt>
<pdfrwt beam="1">  1        1 0.90352518E+00 0.30000000E+03</pdfrwt>
<pdfrwt beam="2">0</pdfrwt>
<totfact> 0.99434561E-05</totfact>
</mgrwt>
<clustering>
<clus scale="   32.833">  1  6  2 -1</clus>
<clus scale="  473.461">  4  5 -1 -1</clus>
<clus scale="  300.000">  1  4  2 -1</clus>
</clustering>
</event>
<event>
 6    1  0.1033679E-011  0.3000000E+03  0.7818608E-02  0.1093470E+00
          1   -1    0    0  502    0  0.00000000000E+00  0.00000000000E+00  0.24072705501E+03  0.24072705501E+03  0.00000000000E+00 0.  1.
         13   -1    0    0    0    0 -0.00000000000E+00 -0.00000000000E+00 -0.27500000000E+03  0.27500000000E+03  0.00000000000E+00 0.  1.
    9000005    2    1    2  501    0  0.16515604307E+02 -0.37381508182E+02 -0.54787026395E+02  0.46999993094E+03  0.46500341341E+03 0.  0.
         13    1    3    3    0    0 -0.22185555269E+03 -0.29605403818E+02  0.59076042144E+01  0.22390012502E+03  0.00000000000E+00 0.  1.
          1    1    3    3  501    0  0.23837115700E+03 -0.77761043633E+01 -0.60694630610E+02  0.24609980592E+03  0.00000000000E+00 0.  1.
         21    1    1    2  502  501 -0.16515604307E+02  0.37381508182E+02  0.20514081402E+02  0.45727124066E+02  0.00000000000E+00 0. -1.
<scales pt_clust_4="550.00000" pt_clust_5="550.00000" pt_clust_6="40.86738"></scales>
<mgrwt>
<rscale>  0 0.30000000E+03</rscale>
<asrwt>  1 0.40867375E+02</asrwt>
<pdfrwt beam="1">  1        1 0.87537111E+00 0.30000000E+03</pdfrwt>
<pdfrwt beam="2">0</pdfrwt>
<totfact> 0.21661605E-04</totfact>
</mgrwt>
<clustering>
<clus scale="   40.867">  1  6  2 -1</clus>
<clus scale="  465.003">  4  5 -1 -1</clus>
<clus scale="  300.000">  1  4  2 -1</clus>
</clustering>
</event>
<event>
 6    1  0.1033679E-011  0.3000000E+03  0.7818608E-02  0.1093470E+00
          1   -1    0    0  502    0  0.00000000000E+00  0.00000000000E+00  0.24856958434E+03  0.24856958434E+03  0.00000000000E+00 0.  1.
         13   -1    0    0    0    0 -0.00000000000E+00 -0.00000000000E+00 -0.27500000000E+03  0.27500000000E+03  0.00000000000E+00 0.  1.
    9000005    2    1    2  501    0  0.63071149586E+01  0.36014003468E+02 -0.25960207526E+02  0.48700444738E+03  0.48493567743E+03 0.  0.
         13    1    3    3    0    0 -0.55559334604E+02 -0.21316592203E+03 -0.59233558026E+02  0.22811217498E+03  0.00000000000E+00 0.  1.
          3    1    3    3  501    0  0.61866449562E+02  0.24917992550E+03  0.33273350501E+02  0.25889227240E+03  0.00000000000E+00 0.  1.
         21    1    1    2  502  501 -0.63071149586E+01 -0.36014003468E+02 -0.47020813854E+00  0.36565136956E+02  0.00000000000E+00 0.  1.
<scales pt_clust_4="550.00000" pt_clust_5="550.00000" pt_clust_6="36.56211"></scales>
<mgrwt>
<rscale>  0 0.30000000E+03</rscale>
<asrwt>  1 0.36562114E+02</asrwt>
<pdfrwt beam="1">  1        1 0.90388940E+00 0.30000000E+03</pdfrwt>
<pdfrwt beam="2">0</pdfrwt>
<totfact> 0.96066058E-05</totfact>
</mgrwt>
<clustering>
<clus scale="   36.562">  1  6  2 -1</clus>
<clus scale="  484.936">  4  5 -1 -1</clus>
<clus scale="  300.000">  1  4  2 -1</clus>
</clustering>
</event>
<event>
 6    1  0.1033679E-011  0.3000000E+03  0.7818608E-02  0.1093470E+00
          1   -1    0    0  502    0  0.00000000000E+00  0.00000000000E+00  0.24393370446E+03  0.24393370446E+03  0.00000000000E+00 0.  1.
         13   -1    0    0    0    0 -0.00000000000E+00 -0.00000000000E+00 -0.27500000000E+03  0.27500000000E+03  0.00000000000E+00 0.  1.
    9000005    2    1    2  501    0  0.15300487434E+02  0.44274843514E+02 -0.45877511104E+02  0.46980388877E+03  0.46520595567E+03 0.  0.
         13    1    3    3    0    0  0.16601309795E+03 -0.13866069945E+03 -0.79413515572E+02  0.23042058224E+03  0.00000000000E+00 0.  1.
          3    1    3    3  501    0 -0.15071261051E+03  0.18293554297E+03  0.33536004469E+02  0.23938330653E+03  0.00000000000E+00 0.  1.
         21    1    1    2  502  501 -0.15300487434E+02 -0.44274843514E+02  0.14811215566E+02  0.49129815697E+02  0.00000000000E+00 0. -1.
<scales pt_clust_4="550.00000" pt_clust_5="550.00000" pt_clust_6="46.84407"></scales>
<mgrwt>
<rscale>  0 0.30000000E+03</rscale>
<asrwt>  1 0.46844068E+02</asrwt>
<pdfrwt beam="1">  1        1 0.88703165E+00 0.30000000E+03</pdfrwt>
<pdfrwt beam="2">0</pdfrwt>
<totfact> 0.15088498E-04</totfact>
</mgrwt>
<clustering>
<clus scale="   46.844">  1  6  2 -1</clus>
<clus scale="  465.206">  4  5 -1 -1</clus>
<clus scale="  300.000">  1  4  2 -1</clus>
</clustering>
</event>
<event>
 6    1  0.1033679E-011  0.3000000E+03  0.7818608E-02  0.1093470E+00
          1   -1    0    0  502    0  0.00000000000E+00  0.00000000000E+00  0.24213059209E+03  0.24213059209E+03  0.00000000000E+00 0.  1.
         13   -1    0    0    0    0 -0.00000000000E+00 -0.00000000000E+00 -0.27500000000E+03  0.27500000000E+03  0.00000000000E+00 0.  1.
    9000005    2    1    2  501    0  0.17324190640E+02  0.27007541037E+02 -0.17849741802E+02  0.48170284556E+03  0.48030145043E+03 0.  0.
         13    1    3    3    0    0  0.12304068280E+03  0.13306742459E+03  0.16518285291E+03  0.24521689177E+03  0.00000000000E+00 0.  1.
          1    1    3    3  501    0 -0.10571649216E+03 -0.10605988355E+03 -0.18303259472E+03  0.23648595380E+03  0.00000000000E+00 0.  1.
         21    1    1    2  502  501 -0.17324190640E+02 -0.27007541037E+02 -0.15019666105E+02  0.35427746529E+02  0.00000000000E+00 0.  1.
<scales pt_clust_4="550.00000" pt_clust_5="550.00000" pt_clust_6="32.08638"></scales>
<mgrwt>
<rscale>  0 0.30000000E+03</rscale>
<asrwt>  1 0.32086382E+02</asrwt>
<pdfrwt beam="1">  1        1 0.88047488E+00 0.30000000E+03</pdfrwt>
<pdfrwt beam="2">0</pdfrwt>
<totfact> 0.19793308E-04</totfact>
</mgrwt>
<clustering>
<clus scale="   32.086">  1  6  2 -1</clus>
<clus scale="  480.301">  4  5 -1 -1</clus>
<clus scale="  300.000">  1  4  2 -1</clus>
</clustering>
</event>
<event>
 6    1  0.1033679E-011  0.3000000E+03  0.7818608E-02  0.1093470E+00
          1   -1    0    0  502    0  0.00000000000E+00  0.00000000000E+00  0.25239522586E+03  0.25239522586E+03  0.00000000000E+00 0.  1.
         13   -1    0    0    0    0 -0.00000000000E+00 -0.00000000000E+00 -0.27500000000E+03  0.27500000000E+03  0.00000000000E+00 0.  1.
    9000005    2    1    2  501    0 -0.23510924164E+02  0.19844455684E+02 -0.34856366524E+02  0.49427925551E+03  0.49208784801E+03 0.  0.
         13    1    3    3    0    0 -0.23284844476E+03 -0.80895079442E+02  0.41012215557E+02  0.24988880313E+03  0.00000000000E+00 0.  1.
          3    1    3    3  501    0  0.20933752059E+03  0.10073953513E+03 -0.75868582081E+02  0.24439045238E+03  0.00000000000E+00 0.  1.
         21    1    1    2  502  501  0.23510924164E+02 -0.19844455684E+02  0.12251592383E+02  0.33115970352E+02  0.00000000000E+00 0. -1.
<scales pt_clust_4="550.00000" pt_clust_5="550.00000" pt_clust_6="30.76631"></scales>
<mgrwt>
<rscale>  0 0.30000000E+03</rscale>
<asrwt>  1 0.30766312E+02</asrwt>
<pdfrwt beam="1">  1        1 0.91780082E+00 0.30000000E+03</pdfrwt>
<pdfrwt beam="2">0</pdfrwt>
<totfact> 0.47891672E-05</totfact>
</mgrwt>
<clustering>
<clus scale="   30.766">  1  6  2 -1</clus>
<clus scale="  492.088">  4  5 -1 -1</clus>
<clus scale="  300.000">  1  4  2 -1</clus>
</clustering>
</event>
<event>
 6    1  0.1033679E-011  0.3000000E+03  0.7818608E-02  0.1093470E+00
          1   -1    0    0  502    0  0.00000000000E+00  0.00000000000E+00  0.23763864065E+03  0.23763864065E+03  0.00000000000E+00 0.  1.
         13   -1    0    0    0    0 -0.00000000000E+00 -0.00000000000E+00 -0.27500000000E+03  0.27500000000E+03  0.00000000000E+00 0.  1.
    9000005    2    1    2  501    0  0.30358188129E+02  0.62936960496E+01 -0.49587294043E+02  0.47931141941E+03  0.47573028793E+03 0.  0.
         13    1    3    3    0    0  0.16882342718E+02 -0.23328229687E+03  0.18768306663E+01  0.23389990599E+03  0.00000000000E+00 0.  1.
          3    1    3    3  501    0  0.13475845411E+02  0.23957599292E+03 -0.51464124709E+02  0.24541151343E+03  0.00000000000E+00 0.  1.
         21    1    1    2  502  501 -0.30358188129E+02 -0.62936960496E+01  0.12225934696E+02  0.33327221241E+02  0.00000000000E+00 0.  1.
<scales pt_clust_4="550.00000" pt_clust_5="550.00000" pt_clust_6="31.00371"></scales>
<mgrwt>
<rscale>  0 0.30000000E+03</rscale>
<asrwt>  1 0.31003713E+02</asrwt>
<pdfrwt beam="1">  1        1 0.86414051E+00 0.30000000E+03</pdfrwt>
<pdfrwt beam="2">0</pdfrwt>
<totfact> 0.29863637E-04</totfact>
</mgrwt>
<clustering>
<clus scale="   31.004">  1  6  2 -1</clus>
<clus scale="  475.730">  4  5 -1 -1</clus>
<clus scale="  300.000">  1  4  2 -1</clus>
</clustering>
</event>
<event>
 6    1  0.1033679E-011  0.3000000E+03  0.7818608E-02  0.1093470E+00
          1   -1    0    0  502    0  0.00000000000E+00  0.00000000000E+00  0.22427714317E+03  0.22427714317E+03  0.00000000000E+00 0.  1.
         13   -1    0    0    0    0 -0.00000000000E+00 -0.00000000000E+00 -0.27500000000E+03  0.27500000000E+03  0.00000000000E+00 0.  1.
    9000005    2    1    2  501    0 -0.26933119774E+02  0.26086274741E+02 -0.45058963083E+02  0.46135661624E+03  0.45761744997E+03 0.  0.
         13    1    3    3    0    0 -0.20285909791E+03 -0.27281596049E+02 -0.14619316926E+03  0.25153238723E+03  0.00000000000E+00 0.  1.
          3    1    3    3  501    0  0.17592597814E+03  0.53367870790E+02  0.10113420618E+03  0.20982422900E+03  0.00000000000E+00 0.  1.
         21    1    1    2  502  501  0.26933119774E+02 -0.26086274741E+02 -0.56638937466E+01  0.37920526934E+02  0.00000000000E+00 0.  1.
<scales pt_clust_4="550.00000" pt_clust_5="550.00000" pt_clust_6="37.49517"></scales>
<mgrwt>
<rscale>  0 0.30000000E+03</rscale>
<asrwt>  1 0.37495174E+02</asrwt>
<pdfrwt beam="1">  1        1 0.81555325E+00 0.30000000E+03</pdfrwt>
<pdfrwt beam="2">0</pdfrwt>
<totfact> 0.77784694E-04</totfact>
</mgrwt>
<clustering>
<clus scale="   37.495">  1  6  2 -1</clus>
<clus scale="  457.617">  4  5 -1 -1</clus>
<clus scale="  300.000">  1  4  2 -1</clus>
</clustering>
</event>
<event>
 6    1  0.1033679E-011  0.3000000E+03  0.7818608E-02  0.1093470E+00
          1   -1    0    0  502    0  0.00000000000E+00  0.00000000000E+00  0.24666746249E+03  0.24666746249E+03  0.00000000000E+00 0.  1.
         13   -1    0    0    0    0 -0.00000000000E+00 -0.00000000000E+00 -0.27500000000E+03  0.27500000000E+03  0.00000000000E+00 0.  1.
    9000005    2    1    2  501    0 -0.14854646001E+01  0.49332241057E+02 -0.45539594166E+02  0.46939931338E+03  0.46457075258E+03 0.  0.
         13    1    3    3    0    0 -0.51838445249E+02  0.13420502421E+03 -0.22356204966E+03  0.26585372477E+03  0.00000000000E+00 0.  1.
          3    1    3    3  501    0  0.50352980649E+02 -0.84872783150E+02  0.17802245549E+03  0.20354558860E+03  0.00000000000E+00 0.  1.
         21    1    1    2  502  501  0.14854646001E+01 -0.49332241057E+02  0.17207056653E+02  0.52268149111E+02  0.00000000000E+00 0. -1.
<scales pt_clust_4="550.00000" pt_clust_5="550.00000" pt_clust_6="49.35460"></scales>
<mgrwt>
<rscale>  0 0.30000000E+03</rscale>
<asrwt>  1 0.49354601E+02</asrwt>
<pdfrwt beam="1">  1        1 0.89697259E+00 0.30000000E+03</pdfrwt>
<pdfrwt beam="2">0</pdfrwt>
<totfact> 0.11261719E-04</totfact>
</mgrwt>
<clustering>
<clus scale="   49.355">  1  6  2 -1</clus>
<clus scale="  464.571">  4  5 -1 -1</clus>
<clus scale="  300.000">  1  4  2 -1</clus>
</clustering>
</event>
<event>
 6    1  0.1033679E-011  0.3000000E+03  0.7818608E-02  0.1093470E+00
          1   -1    0    0  502    0  0.00000000000E+00  0.00000000000E+00  0.24118402512E+03  0.24118402512E+03  0.00000000000E+00 0.  1.
         13   -1    0    0    0    0 -0.00000000000E+00 -0.00000000000E+00 -0.27500000000E+03  0.27500000000E+03  0.00000000000E+00 0.  1.
    9000005    2    1    2  501    0 -0.27574752795E+02  0.15789236619E+02 -0.40028319049E+02  0.48380717838E+03  0.48110025207E+03 0.  0.
         13    1    3    3    0    0 -0.18874790580E+03  0.11516192795E+03  0.10551046570E+03  0.24499081608E+03  0.00000000000E+00 0.  1.
          1    1    3    3  501    0  0.16117315301E+03 -0.99372691327E+02 -0.14553878475E+03  0.23881636229E+03  0.00000000000E+00 0.  1.
         21    1    1    2  502  501  0.27574752795E+02 -0.15789236619E+02  0.62123441639E+01  0.32376846738E+02  0.00000000000E+00 0.  1.
<scales pt_clust_4="550.00000" pt_clust_5="550.00000" pt_clust_6="31.77526"></scales>
<mgrwt>
<rscale>  0 0.30000000E+03</rscale>
<asrwt>  1 0.31775257E+02</asrwt>
<pdfrwt beam="1">  1        1 0.87703282E+00 0.30000000E+03</pdfrwt>
<pdfrwt beam="2">0</pdfrwt>
<totfact> 0.21774751E-04</totfact>
</mgrwt>
<clustering>
<clus scale="   31.775">  1  6  2 -1</clus>
<clus scale="  481.100">  4  5 -1 -1</clus>
<clus scale="  300.000">  1  4  2 -1</clus>
</clustering>
</event>
<event>
 6    1  0.1033679E-011  0.3000000E+03  0.7818608E-02  0.1093470E+00
          1   -1    0    0  502    0  0.00000000000E+00  0.00000000000E+00  0.23670638493E+03  0.23670638493E+03  0.00000000000E+00 0.  1.
         13   -1    0    0    0    0 -0.00000000000E+00 -0.00000000000E+00 -0.27500000000E+03  0.27500000000E+03  0.00000000000E+00 0.  1.
    9000005    2    1    2  501    0 -0.13593603843E+02 -0.29221656656E+02 -0.42115747584E+02  0.47925180159E+03  0.47630857839E+03 0.  0.
         13    1    3    3    0    0 -0.12664035186E+03  0.17693981322E+03 -0.96331468652E+02  0.23796055991E+03  0.00000000000E+00 0.  1.
          3    1    3    3  501    0  0.11304674802E+03 -0.20616146988E+03  0.54215721068E+02  0.24129124168E+03  0.00000000000E+00 0.  1.
         21    1    1    2  502  501  0.13593603843E+02  0.29221656656E+02  0.38221325166E+01  0.32454583346E+02  0.00000000000E+00 0. -1.
<scales pt_clust_4="550.00000" pt_clust_5="550.00000" pt_clust_6="32.22873"></scales>
<mgrwt>
<rscale>  0 0.30000000E+03</rscale>
<asrwt>  1 0.32228734E+02</asrwt>
<pdfrwt beam="1">  1        1 0.86075049E+00 0.30000000E+03</pdfrwt>
<pdfrwt beam="2">0</pdfrwt>
<totfact> 0.32251171E-04</totfact>
</mgrwt>
<clustering>
<clus scale="   32.229">  1  6  2 -1</clus>
<clus scale="  476.309">  4  5 -1 -1</clus>
<clus scale="  300.000">  1  4  2 -1</clus>
</clustering>
</event>
<event>
 6    1  0.1033679E-011  0.3000000E+03  0.7818608E-02  0.1093470E+00
          1   -1    0    0  502    0  0.00000000000E+00  0.00000000000E+00  0.22359309106E+03  0.22359309106E+03  0.00000000000E+00 0.  1.
         13   -1    0    0    0    0 -0.00000000000E+00 -0.00000000000E+00 -0.27500000000E+03  0.27500000000E+03  0.00000000000E+00 0.  1.
    9000005    2    1    2  501    0  0.32986278646E+02  0.61417799115E+01 -0.43826763575E+02  0.46419433173E+03  0.46090104835E+03 0.  0.
         13    1    3    3    0    0  0.16266807255E+03  0.15511139853E+03  0.71022906588E+02  0.23572166011E+03  0.00000000000E+00 0.  1.
          1    1    3    3  501    0 -0.12968179391E+03 -0.14896961862E+03 -0.11484967016E+03  0.22847267163E+03  0.00000000000E+00 0.  1.
         21    1    1    2  502  501 -0.32986278646E+02 -0.61417799115E+01 -0.75801453670E+01  0.34398759326E+02  0.00000000000E+00 0.  1.
<scales pt_clust_4="550.00000" pt_clust_5="550.00000" pt_clust_6="33.55320"></scales>
<mgrwt>
<rscale>  0 0.30000000E+03</rscale>
<asrwt>  1 0.33553199E+02</asrwt>
<pdfrwt beam="1">  1        1 0.81306579E+00 0.30000000E+03</pdfrwt>
<pdfrwt beam="2">0</pdfrwt>
<totfact> 0.83155206E-04</totfact>
</mgrwt>
<clustering>
<clus scale="   33.553">  1  6  2 -1</clus>
<clus scale="  460.901">  4  5 -1 -1</clus>
<clus scale="  300.000">  1  4  2 -1</clus>
</clustering>
</event>
<event>
 6    1  0.1033679E-011  0.3000000E+03  0.7818608E-02  0.1093470E+00
          1   -1    0    0  502    0  0.00000000000E+00  0.00000000000E+00  0.23715602849E+03  0.23715602849E+03  0.00000000000E+00 0.  1.
         13   -1    0    0    0    0 -0.00000000000E+00 -0.00000000000E+00 -0.27500000000E+03  0.27500000000E+03  0.00000000000E+00 0.  1.
    9000005    2    1    2  501    0 -0.60334443150E+01 -0.32192084809E+02 -0.69126785855E+02  0.46686422738E+03  0.46055505806E+03 0.  0.
         13    1    3    3    0    0  0.96298819697E+01 -0.13946533998E+03  0.16055191603E+03  0.21288549369E+03  0.00000000000E+00 0.  1.
          1    1    3    3  501    0 -0.15663326285E+02  0.10727325517E+03 -0.22967870188E+03  0.25397873369E+03  0.00000000000E+00 0.  1.
         21    1    1    2  502  501  0.60334443150E+01  0.32192084809E+02  0.31282814341E+02  0.45291801110E+02  0.00000000000E+00 0.  1.
<scales pt_clust_4="550.00000" pt_clust_5="550.00000" pt_clust_6="32.75260"></scales>
<mgrwt>
<rscale>  0 0.30000000E+03</rscale>
<asrwt>  1 0.32752600E+02</asrwt>
<pdfrwt beam="1">  1        1 0.86238556E+00 0.30000000E+03</pdfrwt>
<pdfrwt beam="2">0</pdfrwt>
<totfact> 0.30873943E-04</totfact>
</mgrwt>
<clustering>
<clus scale="   32.753">  1  6  2 -1</clus>
<clus scale="  460.555">  4  5 -1 -1</clus>
<clus scale="  300.000">  1  4  2 -1</clus>
</clustering>
</event>
<event>
 6    1  0.1033679E-011  0.3000000E+03  0.7818608E-02  0.1093470E+00
          1   -1    0    0  502    0  0.00000000000E+00  0.00000000000E+00  0.26454415284E+03  0.26454415284E+03  0.00000000000E+00 0.  1.
         13   -1    0    0    0    0 -0.00000000000E+00 -0.00000000000E+00 -0.27500000000E+03  0.27500000000E+03  0.00000000000E+00 0.  1.
    9000005    2    1    2  501    0 -0.30647087435E+02  0.27185155323E+02 -0.44992582944E+02  0.48596185393E+03  0.48213723598E+03 0.  0.
         13    1    3    3    0    0  0.92749155188E+02  0.15276364115E+03  0.14264254279E+03  0.22866138909E+03  0.00000000000E+00 0.  1.
          1    1    3    3  501    0 -0.12339624262E+03 -0.12557848583E+03 -0.18763512573E+03  0.25730046484E+03  0.00000000000E+00 0.  1.
         21    1    1    2  502  501  0.30647087435E+02 -0.27185155323E+02  0.34536735785E+02  0.53582298913E+02  0.00000000000E+00 0. -1.
<scales pt_clust_4="550.00000" pt_clust_5="550.00000" pt_clust_6="40.96677"></scales>
<mgrwt>
<rscale>  0 0.30000000E+03</rscale>
<asrwt>  1 0.40966775E+02</asrwt>
<pdfrwt beam="1">  1        1 0.96197874E+00 0.30000000E+03</pdfrwt>
<pdfrwt beam="2">0</pdfrwt>
<totfact> 0.66795518E-06</totfact>
</mgrwt>
<clustering>
<clus scale="   40.967">  1  6  2 -1</clus>
<clus scale="  482.137">  4  5 -1 -1</clus>
<clus scale="  300.000">  1  4  2 -1</clus>
</clustering>
</event>
<event>
 6    1  0.1033679E-011  0.3000000E+03  0.7818608E-02  0.1093470E+00
          1   -1    0    0  502    0  0.00000000000E+00  0.00000000000E+00  0.23219163460E+03  0.23219163460E+03  0.00000000000E+00 0.  1.
         13   -1    0    0    0    0 -0.00000000000E+00 -0.00000000000E+00 -0.27500000000E+03  0.27500000000E+03  0.00000000000E+00 0.  1.
    9000005    2    1    2  501    0 -0.26372562460E+02 -0.22853030731E+02 -0.46909454961E+02  0.47205487322E+03  0.46842025288E+03 0.  0.
         13    1    3    3    0    0  0.32747505136E+02 -0.22504055201E+03  0.60889101526E+02  0.23542117965E+03  0.00000000000E+00 0.  1.
          1    1    3    3  501    0 -0.59120067596E+02  0.20218752128E+03 -0.10779855649E+03  0.23663369357E+03  0.00000000000E+00 0.  1.
         21    1    1    2  502  501  0.26372562460E+02  0.22853030731E+02  0.41010895584E+01  0.35136761374E+02  0.00000000000E+00 0.  1.
<scales pt_clust_4="550.00000" pt_clust_5="550.00000" pt_clust_6="34.89661"></scales>
<mgrwt>
<rscale>  0 0.30000000E+03</rscale>
<asrwt>  1 0.34896605E+02</asrwt>
<pdfrwt beam="1">  1        1 0.84433322E+00 0.30000000E+03</pdfrwt>
<pdfrwt beam="2">0</pdfrwt>
<totfact> 0.45814534E-04</totfact>
</mgrwt>
<clustering>
<clus scale="   34.897">  1  6  2 -1</clus>
<clus scale="  468.420">  4  5 -1 -1</clus>
<clus scale="  300.000">  1  4  2 -1</clus>
</clustering>
</event>
<event>
 6    1  0.1033679E-011  0.3000000E+03  0.7818608E-02  0.1093470E+00
          1   -1    0    0  502    0  0.00000000000E+00  0.00000000000E+00  0.22763463267E+03  0.22763463267E+03  0.00000000000E+00 0.  1.
         13   -1    0    0    0    0 -0.00000000000E+00 -0.00000000000E+00 -0.27500000000E+03  0.27500000000E+03  0.00000000000E+00 0.  1.
    9000005    2    1    2  501    0  0.28974575382E+02  0.23849355223E+02 -0.48568638409E+02  0.46508778694E+03  0.46101997696E+03 0.  0.
         13    1    3    3    0    0  0.94070709457E+02 -0.14347315600E+03  0.12740024185E+03  0.21369292570E+03  0.00000000000E+00 0.  1.
          1    1    3    3  501    0 -0.65096134075E+02  0.16732251122E+03 -0.17596888026E+03  0.25139486123E+03  0.00000000000E+00 0.  1.
         21    1    1    2  502  501 -0.28974575382E+02 -0.23849355223E+02  0.12032710780E+01  0.37546845732E+02  0.00000000000E+00 0.  1.
<scales pt_clust_4="550.00000" pt_clust_5="550.00000" pt_clust_6="37.52756"></scales>
<mgrwt>
<rscale>  0 0.30000000E+03</rscale>
<asrwt>  1 0.37527560E+02</asrwt>
<pdfrwt beam="1">  1        1 0.82776230E+00 0.30000000E+03</pdfrwt>
<pdfrwt beam="2">0</pdfrwt>
<totfact> 0.60952064E-04</totfact>
</mgrwt>
<clustering>
<clus scale="   37.528">  1  6  2 -1</clus>
<clus scale="  461.020">  4  5 -1 -1</clus>
<clus scale="  300.000">  1  4  2 -1</clus>
</clustering>
</event>
<event>
 6    1  0.1033679E-011  0.3000000E+03  0.7818608E-02  0.1093470E+00
          1   -1    0    0  502    0  0.00000000000E+00  0.00000000000E+00  0.22400778473E+03  0.22400778473E+03  0.00000000000E+00 0.  1.
         13   -1    0    0    0    0 -0.00000000000E+00 -0.00000000000E+00 -0.27500000000E+03  0.27500000000E+03  0.00000000000E+00 0.  1.
    9000005    2    1    2  501    0 -0.29126727757E+02 -0.23802895012E+02 -0.42825905903E+02  0.46051580258E+03  0.45697461870E+03 0.  0.
         13    1    3    3    0    0 -0.20962660301E+03 -0.68208072451E+02  0.83546344536E+02  0.23574487379E+03  0.00000000000E+00 0.  1.
          3    1    3    3  501    0  0.18049987525E+03  0.44405177439E+02 -0.12637225044E+03  0.22477092879E+03  0.00000000000E+00 0.  1.
         21    1    1    2  502  501  0.29126727757E+02  0.23802895012E+02 -0.81663093680E+01  0.38491982145E+02  0.00000000000E+00 0.  1.
<scales pt_clust_4="550.00000" pt_clust_5="550.00000" pt_clust_6="37.61576"></scales>
<mgrwt>
<rscale>  0 0.30000000E+03</rscale>
<asrwt>  1 0.37615761E+02</asrwt>
<pdfrwt beam="1">  1        1 0.81457376E+00 0.30000000E+03</pdfrwt>
<pdfrwt beam="2">0</pdfrwt>
<totfact> 0.79169547E-04</totfact>
</mgrwt>
<clustering>
<clus scale="   37.616">  1  6  2 -1</clus>
<clus scale="  456.975">  4  5 -1 -1</clus>
<clus scale="  300.000">  1  4  2 -1</clus>
</clustering>
</event>
<event>
 6    1  0.1033679E-011  0.3000000E+03  0.7818608E-02  0.1093470E+00
          1   -1    0    0  502    0  0.00000000000E+00  0.00000000000E+00  0.23981040566E+03  0.23981040566E+03  0.00000000000E+00 0.  1.
         13   -1    0    0    0    0 -0.00000000000E+00 -0.00000000000E+00 -0.27500000000E+03  0.27500000000E+03  0.00000000000E+00 0.  1.
    9000005    2    1    2  501    0  0.29807469895E+02 -0.20283779129E+02 -0.21666619936E+02  0.47630342195E+03  0.47444239944E+03 0.  0.
         13    1    3    3    0    0  0.98918416658E+02 -0.16715990936E+03  0.14595931925E+03  0.24296380662E+03  0.00000000000E+00 0.  1.
          1    1    3    3  501    0 -0.69110946763E+02  0.14687613023E+03 -0.16762593919E+03  0.23333961533E+03  0.00000000000E+00 0.  1.
         21    1    1    2  502  501 -0.29807469895E+02  0.20283779129E+02 -0.13522974408E+02  0.38506983706E+02  0.00000000000E+00 0. -1.
<scales pt_clust_4="550.00000" pt_clust_5="550.00000" pt_clust_6="36.05438"></scales>
<mgrwt>
<rscale>  0 0.30000000E+03</rscale>
<asrwt>  1 0.36054379E+02</asrwt>
<pdfrwt beam="1">  1        1 0.87203784E+00 0.30000000E+03</pdfrwt>
<pdfrwt beam="2">0</pdfrwt>
<totfact> 0.24006987E-04</totfact>
</mgrwt>
<clustering>
<clus scale="   36.054">  1  6  2 -1</clus>
<clus scale="  474.442">  4  5 -1 -1</clus>
<clus scale="  300.000">  1  4  2 -1</clus>
</clustering>
</event>
<event>
 6    1  0.1033679E-011  0.3000000E+03  0.7818608E-02  0.1093470E+00
          1   -1    0    0  502    0  0.00000000000E+00  0.00000000000E+00  0.23602369267E+03  0.23602369267E+03  0.00000000000E+00 0.  1.
         13   -1    0    0    0    0 -0.00000000000E+00 -0.00000000000E+00 -0.27500000000E+03  0.27500000000E+03  0.00000000000E+00 0.  1.
    9000005    2    1    2  501    0 -0.35261605682E+02  0.19682741122E+01 -0.17384565925E+02  0.46962975307E+03  0.46797716493E+03 0.  0.
         13    1    3    3    0    0 -0.13913995472E+03 -0.13197711113E+03  0.14069549220E+03  0.23785101720E+03  0.00000000000E+00 0.  1.
          1    1    3    3  501    0  0.10387834903E+03  0.13394538524E+03 -0.15808005812E+03  0.23177873587E+03  0.00000000000E+00 0.  1.
         21    1    1    2  502  501  0.35261605682E+02 -0.19682741122E+01 -0.21591741407E+02  0.41393939596E+02  0.00000000000E+00 0.  1.
<scales pt_clust_4="550.00000" pt_clust_5="550.00000" pt_clust_6="35.31651"></scales>
<mgrwt>
<rscale>  0 0.30000000E+03</rscale>
<asrwt>  1 0.35316514E+02</asrwt>
<pdfrwt beam="1">  1        1 0.85826797E+00 0.30000000E+03</pdfrwt>
<pdfrwt beam="2">0</pdfrwt>
<totfact> 0.33682966E-04</totfact>
</mgrwt>
<clustering>
<clus scale="   35.317">  1  6  2 -1</clus>
<clus scale="  467.977">  4  5 -1 -1</clus>
<clus scale="  300.000">  1  4  2 -1</clus>
</clustering>
</event>
<event>
 6    1  0.1033679E-011  0.3000000E+03  0.7818608E-02  0.1093470E+00
          1   -1    0    0  502    0  0.00000000000E+00  0.00000000000E+00  0.23136325248E+03  0.23136325248E+03  0.00000000000E+00 0.  1.
         13   -1    0    0    0    0 -0.00000000000E+00 -0.00000000000E+00 -0.27500000000E+03  0.27500000000E+03  0.00000000000E+00 0.  1.
    9000005    2    1    2  501    0  0.81319778743E+01  0.34464280174E+02 -0.59647033649E+02  0.46750138256E+03  0.46232657116E+03 0.  0.
         13    1    3    3    0    0 -0.76313942724E+02  0.21961829047E+03  0.47819572847E+02  0.23736622108E+03  0.00000000000E+00 0.  1.
          3    1    3    3  501    0  0.84445920599E+02 -0.18515401030E+03 -0.10746660650E+03  0.23013516147E+03  0.00000000000E+00 0.  1.
         21    1    1    2  502  501 -0.81319778743E+01 -0.34464280174E+02  0.16010286131E+02  0.38861869925E+02  0.00000000000E+00 0.  1.
<scales pt_clust_4="550.00000" pt_clust_5="550.00000" pt_clust_6="35.41067"></scales>
<mgrwt>
<rscale>  0 0.30000000E+03</rscale>
<asrwt>  1 0.35410672E+02</asrwt>
<pdfrwt beam="1">  1        1 0.84132092E+00 0.30000000E+03</pdfrwt>
<pdfrwt beam="2">0</pdfrwt>
<totfact> 0.48426286E-04</totfact>
</mgrwt>
<clustering>
<clus scale="   35.411">  1  6  2 -1</clus>
<clus scale="  462.327">  4  5 -1 -1</clus>
<clus scale="  300.000">  1  4  2 -1</clus>
</clustering>
</event>
<event>
 6    1  0.1033679E-011  0.3000000E+03  0.7818608E-02  0.1093470E+00
          1   -1    0    0  502    0  0.00000000000E+00  0.00000000000E+00  0.25279399161E+03  0.25279399161E+03  0.00000000000E+00 0.  1.
         13   -1    0    0    0    0 -0.00000000000E+00 -0.00000000000E+00 -0.27500000000E+03  0.27500000000E+03  0.00000000000E+00 0.  1.
    9000005    2    1    2  501    0 -0.13082352872E+02  0.27096407286E+02 -0.52931608239E+02  0.48478904154E+03  0.48095040950E+03 0.  0.
         13    1    3    3    0    0  0.12620365234E+03 -0.17600453795E+03 -0.92236866790E+02  0.23539880806E+03  0.00000000000E+00 0.  1.
          3    1    3    3  501    0 -0.13928600521E+03  0.20310094524E+03  0.39305258551E+02  0.24939023348E+03  0.00000000000E+00 0.  1.
         21    1    1    2  502  501  0.13082352872E+02 -0.27096407286E+02  0.30725599851E+02  0.43004950072E+02  0.00000000000E+00 0.  1.
<scales pt_clust_4="550.00000" pt_clust_5="550.00000" pt_clust_6="30.08925"></scales>
<mgrwt>
<rscale>  0 0.30000000E+03</rscale>
<asrwt>  1 0.30089255E+02</asrwt>
<pdfrwt beam="1">  1        1 0.91925088E+00 0.30000000E+03</pdfrwt>
<pdfrwt beam="2">0</pdfrwt>
<totfact> 0.44666412E-05</totfact>
</mgrwt>
<clustering>
<clus scale="   30.089">  1  6  2 -1</clus>
<clus scale="  480.950">  4  5 -1 -1</clus>
<clus scale="  300.000">  1  4  2 -1</clus>
</clustering>
</event>
<event>
 6    1  0.1033679E-011  0.3000000E+03  0.7818608E-02  0.1093470E+00
          1   -1    0    0  502    0  0.00000000000E+00  0.00000000000E+00  0.22994554876E+03  0.22994554876E+03  0.00000000000E+00 0.  1.
         13   -1    0    0    0    0 -0.00000000000E+00 -0.00000000000E+00 -0.27500000000E+03  0.27500000000E+03  0.00000000000E+00 0.  1.
    9000005    2    1    2  501    0 -0.29487903646E+02  0.28590514057E+02 -0.38636529430E+02  0.46337460126E+03  0.45993074015E+03 0.  0.
         13    1    3    3    0    0  0.21477276776E+03  0.62392645784E+01  0.12769927952E+01  0.21486717038E+03  0.00000000000E+00 0.  1.
          1    1    3    3  501    0 -0.24426067141E+03  0.22351249478E+02 -0.39913522225E+02  0.24850743089E+03  0.00000000000E+00 0.  1.
         21    1    1    2  502  501  0.29487903646E+02 -0.28590514057E+02 -0.64179218089E+01  0.41570947497E+02  0.00000000000E+00 0. -1.
<scales pt_clust_4="550.00000" pt_clust_5="550.00000" pt_clust_6="41.07257"></scales>
<mgrwt>
<rscale>  0 0.30000000E+03</rscale>
<asrwt>  1 0.41072566E+02</asrwt>
<pdfrwt beam="1">  1        1 0.83616563E+00 0.30000000E+03</pdfrwt>
<pdfrwt beam="2">0</pdfrwt>
<totfact> 0.51512045E-04</totfact>
</mgrwt>
<clustering>
<clus scale="   41.073">  1  6  2 -1</clus>
<clus scale="  459.931">  4  5 -1 -1</clus>
<clus scale="  300.000">  1  4  2 -1</clus>
</clustering>
</event>
<event>
 6    1  0.1033679E-011  0.3000000E+03  0.7818608E-02  0.1093470E+00
          1   -1    0    0  502    0  0.00000000000E+00  0.00000000000E+00  0.24652073153E+03  0.24652073153E+03  0.00000000000E+00 0.  1.
         13   -1    0    0    0    0 -0.00000000000E+00 -0.00000000000E+00 -0.27500000000E+03  0.27500000000E+03  0.00000000000E+00 0.  1.
    9000005    2    1    2  501    0 -0.34884429581E+02  0.27308434131E+01 -0.40643403130E+02  0.48447552800E+03  0.48149794400E+03 0.  0.
         13    1    3    3    0    0 -0.19513525658E+02 -0.20720751533E+03 -0.14088577169E+03  0.25132555134E+03  0.00000000000E+00 0.  1.
          1    1    3    3  501    0 -0.15370903924E+02  0.20993835874E+03  0.10024236856E+03  0.23314997665E+03  0.00000000000E+00 0.  1.
         21    1    1    2  502  501  0.34884429581E+02 -0.27308434131E+01  0.12164134661E+02  0.37045203536E+02  0.00000000000E+00 0.  1.
<scales pt_clust_4="550.00000" pt_clust_5="550.00000" pt_clust_6="34.99116"></scales>
<mgrwt>
<rscale>  0 0.30000000E+03</rscale>
<asrwt>  1 0.34991155E+02</asrwt>
<pdfrwt beam="1">  1        1 0.89643902E+00 0.30000000E+03</pdfrwt>
<pdfrwt beam="2">0</pdfrwt>
<totfact> 0.12152039E-04</totfact>
</mgrwt>
<clustering>
<clus scale="   34.991">  1  6  2 -1</clus>
<clus scale="  481.498">  4  5 -1 -1</clus>
<clus scale="  300.000">  1  4  2 -1</clus>
</clustering>
</event>
<event>
 6    1  0.1033679E-011  0.3000000E+03  0.7818608E-02  0.1093470E+00
          1   -1    0    0  502    0  0.00000000000E+00  0.00000000000E+00  0.25361374493E+03  0.25361374493E+03  0.00000000000E+00 0.  1.
         13   -1    0    0    0    0 -0.00000000000E+00 -0.00000000000E+00 -0.27500000000E+03  0.27500000000E+03  0.00000000000E+00 0.  1.
    9000005    2    1    2  501    0  0.63338279602E+01 -0.33475662725E+02 -0.17662774231E+02  0.49434128250E+03  0.49284946243E+03 0.  0.
         13    1    3    3    0    0 -0.10066679470E+03 -0.24056540167E+03 -0.32930947614E+01  0.26079946416E+03  0.00000000000E+00 0.  1.
          1    1    3    3  501    0  0.10700062266E+03  0.20708973894E+03 -0.14369679470E+02  0.23354181834E+03  0.00000000000E+00 0.  1.
         21    1    1    2  502  501 -0.63338279602E+01  0.33475662725E+02 -0.37234808423E+01  0.34272462431E+02  0.00000000000E+00 0. -1.
<scales pt_clust_4="550.00000" pt_clust_5="550.00000" pt_clust_6="34.06961"></scales>
<mgrwt>
<rscale>  0 0.30000000E+03</rscale>
<asrwt>  1 0.34069613E+02</asrwt>
<pdfrwt beam="1">  1        1 0.92223180E+00 0.30000000E+03</pdfrwt>
<pdfrwt beam="2">0</pdfrwt>
<totfact> 0.37638940E-05</totfact>
</mgrwt>
<clustering>
<clus scale="   34.070">  1  6  2 -1</clus>
<clus scale="  492.849">  4  5 -1 -1</clus>
<clus scale="  300.000">  1  4  2 -1</clus>
</clustering>
</event>
<event>
 6    1  0.1033679E-011  0.3000000E+03  0.7818608E-02  0.1093470E+00
          1   -1    0    0  502    0  0.00000000000E+00  0.00000000000E+00  0.23404489338E+03  0.23404489338E+03  0.00000000000E+00 0.  1.
         13   -1    0    0    0    0 -0.00000000000E+00 -0.00000000000E+00 -0.27500000000E+03  0.27500000000E+03  0.00000000000E+00 0.  1.
    9000005    2    1    2  501    0  0.59201114079E+01 -0.44718336182E+02 -0.40270569896E+02  0.46393119368E+03  0.45997353876E+03 0.  0.
         13    1    3    3    0    0  0.20445735829E+03  0.21056102742E+02 -0.12241254147E+03  0.23923001721E+03  0.00000000000E+00 0.  1.
          1    1    3    3  501    0 -0.19853724688E+03 -0.65774438924E+02  0.82141971578E+02  0.22470117648E+03  0.00000000000E+00 0.  1.
         21    1    1    2  502  501 -0.59201114079E+01  0.44718336182E+02 -0.68453672211E+00  0.45113699699E+02  0.00000000000E+00 0. -1.
<scales pt_clust_4="550.00000" pt_clust_5="550.00000" pt_clust_6="45.10851"></scales>
<mgrwt>
<rscale>  0 0.30000000E+03</rscale>
<asrwt>  1 0.45108506E+02</asrwt>
<pdfrwt beam="1">  1        1 0.85107234E+00 0.30000000E+03</pdfrwt>
<pdfrwt beam="2">0</pdfrwt>
<totfact> 0.37959714E-04</totfact>
</mgrwt>
<clustering>
<clus scale="   45.109">  1  6  2 -1</clus>
<clus scale="  459.974">  4  5 -1 -1</clus>
<clus scale="  300.000">  1  4  2 -1</clus>
</clustering>
</event>
<event>
 6    1  0.1033679E-011  0.3000000E+03  0.7818608E-02  0.1093470E+00
          1   -1    0    0  502    0  0.00000000000E+00  0.00000000000E+00  0.25027502052E+03  0.25027502052E+03  0.00000000000E+00 0.  1.
         13   -1    0    0    0    0 -0.00000000000E+00 -0.00000000000E+00 -0.27500000000E+03  0.27500000000E+03  0.00000000000E+00 0.  1.
    9000005    2    1    2  501    0 -0.56617773219E+02 -0.52464013463E+01 -0.23301918424E+02  0.46839688698E+03  0.46434854082E+03 0.  0.
         13    1    3    3    0    0 -0.40036568807E+02  0.90230217323E+02  0.20106889306E+03  0.22399356847E+03  0.00000000000E+00 0.  1.
          1    1    3    3  501    0 -0.16581204412E+02 -0.95476618669E+02 -0.22437081149E+03  0.24440331851E+03  0.00000000000E+00 0.  1.
         21    1    1    2  502  501  0.56617773219E+02  0.52464013463E+01 -0.14230610589E+01  0.56878133532E+02  0.00000000000E+00 0.  1.
<scales pt_clust_4="550.00000" pt_clust_5="550.00000" pt_clust_6="56.86033"></scales>
<mgrwt>
<rscale>  0 0.30000000E+03</rscale>
<asrwt>  1 0.56860329E+02</asrwt>
<pdfrwt beam="1">  1        1 0.91009098E+00 0.30000000E+03</pdfrwt>
<pdfrwt beam="2">0</pdfrwt>
<totfact> 0.65543882E-05</totfact>
</mgrwt>
<clustering>
<clus scale="   56.860">  1  6  2 -1</clus>
<clus scale="  464.349">  4  5 -1 -1</clus>
<clus scale="  300.000">  1  4  2 -1</clus>
</clustering>
</event>
<event>
 6    1  0.1033679E-011  0.3000000E+03  0.7818608E-02  0.1093470E+00
          1   -1    0    0  502    0  0.00000000000E+00  0.00000000000E+00  0.23886615409E+03  0.23886615409E+03  0.00000000000E+00 0.  1.
         13   -1    0    0    0    0 -0.00000000000E+00 -0.00000000000E+00 -0.27500000000E+03  0.27500000000E+03  0.00000000000E+00 0.  1.
    9000005    2    1    2  501    0  0.24306000869E+02  0.19616064516E+02 -0.55826694187E+02  0.47694217897E+03  0.47263268045E+03 0.  0.
         13    1    3    3    0    0  0.56316247534E+02 -0.19567116856E+03  0.81794968630E+02  0.21942912941E+03  0.00000000000E+00 0.  1.
          1    1    3    3  501    0 -0.32010246665E+02  0.21528723307E+03 -0.13762166282E+03  0.25751304956E+03  0.00000000000E+00 0.  1.
         21    1    1    2  502  501 -0.24306000869E+02 -0.19616064516E+02  0.19692848275E+02  0.36923975118E+02  0.00000000000E+00 0. -1.
<scales pt_clust_4="550.00000" pt_clust_5="550.00000" pt_clust_6="31.23414"></scales>
<mgrwt>
<rscale>  0 0.30000000E+03</rscale>
<asrwt>  1 0.31234143E+02</asrwt>
<pdfrwt beam="1">  1        1 0.86860420E+00 0.30000000E+03</pdfrwt>
<pdfrwt beam="2">0</pdfrwt>
<totfact> 0.26744339E-04</totfact>
</mgrwt>
<clustering>
<clus scale="   31.234">  1  6  2 -1</clus>
<clus scale="  472.633">  4  5 -1 -1</clus>
<clus scale="  300.000">  1  4  2 -1</clus>
</clustering>
</event>
<event>
 6    1  0.1033679E-011  0.3000000E+03  0.7818608E-02  0.1093470E+00
          1   -1    0    0  502    0  0.00000000000E+00  0.00000000000E+00  0.23026947487E+03  0.23026947487E+03  0.00000000000E+00 0.  1.
         13   -1    0    0    0    0 -0.00000000000E+00 -0.00000000000E+00 -0.27500000000E+03  0.27500000000E+03  0.00000000000E+00 0.  1.
    9000005    2    1    2  501    0 -0.34399733156E+02 -0.93082199666E+01 -0.55072136442E+02  0.46816241995E+03  0.46354409353E+03 0.  0.
         13    1    3    3    0    0  0.60175586950E+02 -0.20877175151E+03  0.51112896265E+02  0.22320231553E+03  0.00000000000E+00 0.  1.
          1    1    3    3  501    0 -0.94575320106E+02  0.19946353154E+03 -0.10618503271E+03  0.24496010442E+03  0.00000000000E+00 0.  1.
         21    1    1    2  502  501  0.34399733156E+02  0.93082199666E+01  0.10341611314E+02  0.37107054918E+02  0.00000000000E+00 0. -1.
<scales pt_clust_4="550.00000" pt_clust_5="550.00000" pt_clust_6="35.63684"></scales>
<mgrwt>
<rscale>  0 0.30000000E+03</rscale>
<asrwt>  1 0.35636843E+02</asrwt>
<pdfrwt beam="1">  1        1 0.83734354E+00 0.30000000E+03</pdfrwt>
<pdfrwt beam="2">0</pdfrwt>
<totfact> 0.51843887E-04</totfact>
</mgrwt>
<clustering>
<clus scale="   35.637">  1  6  2 -1</clus>
<clus scale="  463.544">  4  5 -1 -1</clus>
<clus scale="  300.000">  1  4  2 -1</clus>
</clustering>
</event>
<event>
 6    1  0.1033679E-011  0.3000000E+03  0.7818608E-02  0.1093470E+00
          1   -1    0    0  502    0  0.00000000000E+00  0.00000000000E+00  0.23480693035E+03  0.23480693035E+03  0.00000000000E+00 0.  1.
         13   -1    0    0    0    0 -0.00000000000E+00 -0.00000000000E+00 -0.27500000000E+03  0.27500000000E+03  0.00000000000E+00 0.  1.
    9000005    2    1    2  501    0 -0.24361350273E+02 -0.20063721159E+02 -0.24993779600E+02  0.47477770381E+03  0.47306780774E+03 0.  0.
         13    1    3    3    0    0  0.14131045848E+03 -0.18983229639E+03 -0.46842471777E+01  0.23669999704E+03  0.00000000000E+00 0.  1.
          1    1    3    3  501    0 -0.16567180875E+03  0.16976857523E+03 -0.20309532422E+02  0.23807770676E+03  0.00000000000E+00 0.  1.
         21    1    1    2  502  501  0.24361350273E+02  0.20063721159E+02 -0.15199290054E+02  0.35029226540E+02  0.00000000000E+00 0. -1.
<scales pt_clust_4="550.00000" pt_clust_5="550.00000" pt_clust_6="31.55993"></scales>
<mgrwt>
<rscale>  0 0.30000000E+03</rscale>
<asrwt>  1 0.31559932E+02</asrwt>
<pdfrwt beam="1">  1        1 0.85384338E+00 0.30000000E+03</pdfrwt>
<pdfrwt beam="2">0</pdfrwt>
<totfact> 0.38134857E-04</totfact>
</mgrwt>
<clustering>
<clus scale="   31.560">  1  6  2 -1</clus>
<clus scale="  473.068">  4  5 -1 -1</clus>
<clus scale="  300.000">  1  4  2 -1</clus>
</clustering>
</event>
<event>
 6    1  0.1033679E-011  0.3000000E+03  0.7818608E-02  0.1093470E+00
          1   -1    0    0  502    0  0.00000000000E+00  0.00000000000E+00  0.22452939309E+03  0.22452939309E+03  0.00000000000E+00 0.  1.
         13   -1    0    0    0    0 -0.00000000000E+00 -0.00000000000E+00 -0.27500000000E+03  0.27500000000E+03  0.00000000000E+00 0.  1.
    9000005    2    1    2  501    0  0.35868541002E+02  0.10178331937E+02 -0.44604195106E+02  0.46178597694E+03  0.45811199898E+03 0.  0.
         13    1    3    3    0    0  0.40353066755E+02  0.22477085244E+03 -0.84450479513E+02  0.24347934120E+03  0.00000000000E+00 0.  1.
          3    1    3    3  501    0 -0.44845257525E+01 -0.21459252050E+03  0.39846284407E+02  0.21830663574E+03  0.00000000000E+00 0.  1.
         21    1    1    2  502  501 -0.35868541002E+02 -0.10178331937E+02 -0.58664118076E+01  0.37743416143E+02  0.00000000000E+00 0.  1.
<scales pt_clust_4="550.00000" pt_clust_5="550.00000" pt_clust_6="37.28474"></scales>
<mgrwt>
<rscale>  0 0.30000000E+03</rscale>
<asrwt>  1 0.37284743E+02</asrwt>
<pdfrwt beam="1">  1        1 0.81647052E+00 0.30000000E+03</pdfrwt>
<pdfrwt beam="2">0</pdfrwt>
<totfact> 0.76535867E-04</totfact>
</mgrwt>
<clustering>
<clus scale="   37.285">  1  6  2 -1</clus>
<clus scale="  458.112">  4  5 -1 -1</clus>
<clus scale="  300.000">  1  4  2 -1</clus>
</clustering>
</event>
<event>
 6    1  0.1033679E-011  0.3000000E+03  0.7818608E-02  0.1093470E+00
          1   -1    0    0  502    0  0.00000000000E+00  0.00000000000E+00  0.24407297233E+03  0.24407297233E+03  0.00000000000E+00 0.  1.
         13   -1    0    0    0    0 -0.00000000000E+00 -0.00000000000E+00 -0.27500000000E+03  0.27500000000E+03  0.00000000000E+00 0.  1.
    9000005    2    1    2  501    0 -0.47491217985E+02  0.13118116966E+02 -0.38595660355E+02  0.46921007324E+03  0.46501716856E+03 0.  0.
         13    1    3    3    0    0  0.17045004339E+03 -0.11501023017E+03  0.28640356896E+02  0.20760741889E+03  0.00000000000E+00 0.  1.
          3    1    3    3  501    0 -0.21794126137E+03  0.12812834714E+03 -0.67236017252E+02  0.26160265435E+03  0.00000000000E+00 0.  1.
         21    1    1    2  502  501  0.47491217985E+02 -0.13118116966E+02  0.76686326875E+01  0.49862899091E+02  0.00000000000E+00 0.  1.
<scales pt_clust_4="550.00000" pt_clust_5="550.00000" pt_clust_6="49.26967"></scales>
<mgrwt>
<rscale>  0 0.30000000E+03</rscale>
<asrwt>  1 0.49269674E+02</asrwt>
<pdfrwt beam="1">  1        1 0.88753808E+00 0.30000000E+03</pdfrwt>
<pdfrwt beam="2">0</pdfrwt>
<totfact> 0.14715867E-04</totfact>
</mgrwt>
<clustering>
<clus scale="   49.270">  1  6  2 -1</clus>
<clus scale="  465.017">  4  5 -1 -1</clus>
<clus scale="  300.000">  1  4  2 -1</clus>
</clustering>
</event>
<event>
 6    1  0.1033679E-011  0.3000000E+03  0.7818608E-02  0.1093470E+00
          1   -1    0    0  502    0  0.00000000000E+00  0.00000000000E+00  0.24540685365E+03  0.24540685365E+03  0.00000000000E+00 0.  1.
         13   -1    0    0    0    0 -0.00000000000E+00 -0.00000000000E+00 -0.27500000000E+03  0.27500000000E+03  0.00000000000E+00 0.  1.
    9000005    2    1    2  501    0 -0.12457189518E+02 -0.47568188468E+02 -0.56746139354E+02  0.46423569420E+03  0.45812306350E+03 0.  0.
         13    1    3    3    0    0  0.10018933859E+03  0.13389079332E+03  0.10399580153E+03  0.19692581050E+03  0.00000000000E+00 0.  1.
          1    1    3    3  501    0 -0.11264652811E+03 -0.18145898179E+03 -0.16074194088E+03  0.26730988371E+03  0.00000000000E+00 0.  1.
         21    1    1    2  502  501  0.12457189518E+02  0.47568188468E+02  0.27152993005E+02  0.56171159449E+02  0.00000000000E+00 0. -1.
<scales pt_clust_4="550.00000" pt_clust_5="550.00000" pt_clust_6="49.17229"></scales>
<mgrwt>
<rscale>  0 0.30000000E+03</rscale>
<asrwt>  1 0.49172290E+02</asrwt>
<pdfrwt beam="1">  1        1 0.89238856E+00 0.30000000E+03</pdfrwt>
<pdfrwt beam="2">0</pdfrwt>
<totfact> 0.12709296E-04</totfact>
</mgrwt>
<clustering>
<clus scale="   49.172">  1  6  2 -1</clus>
<clus scale="  458.123">  4  5 -1 -1</clus>
<clus scale="  300.000">  1  4  2 -1</clus>
</clustering>
</event>
<event>
 6    1  0.1033679E-011  0.3000000E+03  0.7818608E-02  0.1093470E+00
          1   -1    0    0  502    0  0.00000000000E+00  0.00000000000E+00  0.23442414106E+03  0.23442414106E+03  0.00000000000E+00 0.  1.
         13   -1    0    0    0    0 -0.00000000000E+00 -0.00000000000E+00 -0.27500000000E+03  0.27500000000E+03  0.00000000000E+00 0.  1.
    9000005    2    1    2  501    0  0.26180930632E+02  0.18576695359E+02 -0.53184829508E+02  0.47493470966E+03  0.47085434862E+03 0.  0.
         13    1    3    3    0    0  0.14399696148E+03  0.22655785589E+02 -0.22408179723E+03  0.26732201815E+03  0.00000000000E+00 0.  1.
          3    1    3    3  501    0 -0.11781603085E+03 -0.40790902302E+01  0.17089696772E+03  0.20761269152E+03  0.00000000000E+00 0.  1.
         21    1    1    2  502  501 -0.26180930632E+02 -0.18576695359E+02  0.12608970568E+02  0.34489431396E+02  0.00000000000E+00 0. -1.
<scales pt_clust_4="550.00000" pt_clust_5="550.00000" pt_clust_6="32.10194"></scales>
<mgrwt>
<rscale>  0 0.30000000E+03</rscale>
<asrwt>  1 0.32101943E+02</asrwt>
<pdfrwt beam="1">  1        1 0.85245142E+00 0.30000000E+03</pdfrwt>
<pdfrwt beam="2">0</pdfrwt>
<totfact> 0.39206875E-04</totfact>
</mgrwt>
<clustering>
<clus scale="   32.102">  1  6  2 -1</clus>
<clus scale="  470.854">  4  5 -1 -1</clus>
<clus scale="  300.000">  1  4  2 -1</clus>
</clustering>
</event>
<event>
 6    1  0.1033679E-011  0.3000000E+03  0.7818608E-02  0.1093470E+00
          1   -1    0    0  502    0  0.00000000000E+00  0.00000000000E+00  0.22907462178E+03  0.22907462178E+03  0.00000000000E+00 0.  1.
         13   -1    0    0    0    0 -0.00000000000E+00 -0.00000000000E+00 -0.27500000000E+03  0.27500000000E+03  0.00000000000E+00 0.  1.
    9000005    2    1    2  501    0 -0.13671658872E+02 -0.27003249833E+02 -0.65180241921E+02  0.46820207609E+03  0.46265389911E+03 0.  0.
         13    1    3    3    0    0  0.60709325292E+02  0.18308340709E+03  0.72701677332E+02  0.20613270001E+03  0.00000000000E+00 0.  1.
          1    1    3    3  501    0 -0.74380984165E+02 -0.21008665692E+03 -0.13788191925E+03  0.26206937608E+03  0.00000000000E+00 0.  1.
         21    1    1    2  502  501  0.13671658872E+02  0.27003249833E+02  0.19254863699E+02  0.35872545685E+02  0.00000000000E+00 0. -1.
<scales pt_clust_4="550.00000" pt_clust_5="550.00000" pt_clust_6="30.26697"></scales>
<mgrwt>
<rscale>  0 0.30000000E+03</rscale>
<asrwt>  1 0.30266975E+02</asrwt>
<pdfrwt beam="1">  1        1 0.83299862E+00 0.30000000E+03</pdfrwt>
<pdfrwt beam="2">0</pdfrwt>
<totfact> 0.57540524E-04</totfact>
</mgrwt>
<clustering>
<clus scale="   30.267">  1  6  2 -1</clus>
<clus scale="  462.654">  4  5 -1 -1</clus>
<clus scale="  300.000">  1  4  2 -1</clus>
</clustering>
</event>
<event>
 6    1  0.1033679E-011  0.3000000E+03  0.7818608E-02  0.1093470E+00
          1   -1    0    0  502    0  0.00000000000E+00  0.00000000000E+00  0.22915784978E+03  0.22915784978E+03  0.00000000000E+00 0.  1.
         13   -1    0    0    0    0 -0.00000000000E+00 -0.00000000000E+00 -0.27500000000E+03  0.27500000000E+03  0.00000000000E+00 0.  1.
    9000005    2    1    2  501    0  0.30882578340E+02  0.15036831187E+02 -0.55833641636E+02  0.46838537659E+03  0.46377540419E+03 0.  0.
         13    1    3    3    0    0 -0.60592410012E+02  0.22279096932E+03 -0.69085034043E+02  0.24099792134E+03  0.00000000000E+00 0.  1.
          3    1    3    3  501    0  0.91474988352E+02 -0.20775413813E+03  0.13251392406E+02  0.22738745525E+03  0.00000000000E+00 0.  1.
         21    1    1    2  502  501 -0.30882578340E+02 -0.15036831187E+02  0.99914914136E+01  0.35772473185E+02  0.00000000000E+00 0.  1.
<scales pt_clust_4="550.00000" pt_clust_5="550.00000" pt_clust_6="34.34880"></scales>
<mgrwt>
<rscale>  0 0.30000000E+03</rscale>
<asrwt>  1 0.34348798E+02</asrwt>
<pdfrwt beam="1">  1        1 0.83330127E+00 0.30000000E+03</pdfrwt>
<pdfrwt beam="2">0</pdfrwt>
<totfact> 0.55880754E-04</totfact>
</mgrwt>
<clustering>
<clus scale="   34.349">  1  6  2 -1</clus>
<clus scale="  463.775">  4  5 -1 -1</clus>
<clus scale="  300.000">  1  4  2 -1</clus>
</clustering>
</event>
<event>
 6    1  0.1033679E-011  0.3000000E+03  0.7818608E-02  0.1093470E+00
          1   -1    0    0  502    0  0.00000000000E+00  0.00000000000E+00  0.23492879436E+03  0.23492879436E+03  0.00000000000E+00 0.  1.
         13   -1    0    0    0    0 -0.00000000000E+00 -0.00000000000E+00 -0.27500000000E+03  0.27500000000E+03  0.00000000000E+00 0.  1.
    9000005    2    1    2  501    0  0.81667324206E+01 -0.35525124250E+02 -0.55650600505E+02  0.47028730705E+03  0.46555819386E+03 0.  0.
         13    1    3    3    0    0 -0.16830789315E+03  0.21744788015E+02  0.12543262539E+03  0.21103015475E+03  0.00000000000E+00 0.  1.
          1    1    3    3  501    0  0.17647462557E+03 -0.57269912264E+02 -0.18108322590E+03  0.25925715230E+03  0.00000000000E+00 0.  1.
         21    1    1    2  502  501 -0.81667324206E+01  0.35525124250E+02  0.15579394860E+02  0.39641487303E+02  0.00000000000E+00 0.  1.
<scales pt_clust_4="550.00000" pt_clust_5="550.00000" pt_clust_6="36.45175"></scales>
<mgrwt>
<rscale>  0 0.30000000E+03</rscale>
<asrwt>  1 0.36451749E+02</asrwt>
<pdfrwt beam="1">  1        1 0.85428652E+00 0.30000000E+03</pdfrwt>
<pdfrwt beam="2">0</pdfrwt>
<totfact> 0.36748227E-04</totfact>
</mgrwt>
<clustering>
<clus scale="   36.452">  1  6  2 -1</clus>
<clus scale="  465.558">  4  5 -1 -1</clus>
<clus scale="  300.000">  1  4  2 -1</clus>
</clustering>
</event>
<event>
 6    1  0.1033679E-011  0.3000000E+03  0.7818608E-02  0.1093470E+00
          1   -1    0    0  502    0  0.00000000000E+00  0.00000000000E+00  0.22647320159E+03  0.22647320159E+03  0.00000000000E+00 0.  1.
         13   -1    0    0    0    0 -0.00000000000E+00 -0.00000000000E+00 -0.27500000000E+03  0.27500000000E+03  0.00000000000E+00 0.  1.
    9000005    2    1    2  501    0 -0.24423448795E+02 -0.20652631816E+02 -0.63590608245E+02  0.46611850715E+03  0.46065134451E+03 0.  0.
         13    1    3    3    0    0 -0.51783505447E+01 -0.13413891600E+03 -0.22849776136E+03  0.26501186963E+03  0.00000000000E+00 0.  1.
          1    1    3    3  501    0 -0.19245098250E+02  0.11348628419E+03  0.16490715311E+03  0.20110663752E+03  0.00000000000E+00 0.  1.
         21    1    1    2  502  501  0.24423448795E+02  0.20652631816E+02  0.15063809831E+02  0.35354694435E+02  0.00000000000E+00 0.  1.
<scales pt_clust_4="550.00000" pt_clust_5="550.00000" pt_clust_6="31.98493"></scales>
<mgrwt>
<rscale>  0 0.30000000E+03</rscale>
<asrwt>  1 0.31984935E+02</asrwt>
<pdfrwt beam="1">  1        1 0.82353891E+00 0.30000000E+03</pdfrwt>
<pdfrwt beam="2">0</pdfrwt>
<totfact> 0.68463610E-04</totfact>
</mgrwt>
<clustering>
<clus scale="   31.985">  1  6  2 -1</clus>
<clus scale="  460.651">  4  5 -1 -1</clus>
<clus scale="  300.000">  1  4  2 -1</clus>
</clustering>
</event>
<event>
 6    1  0.1033679E-011  0.3000000E+03  0.7818608E-02  0.1093470E+00
          1   -1    0    0  502    0  0.00000000000E+00  0.00000000000E+00  0.24133289354E+03  0.24133289354E+03  0.00000000000E+00 0.  1.
         13   -1    0    0    0    0 -0.00000000000E+00 -0.00000000000E+00 -0.27500000000E+03  0.27500000000E+03  0.00000000000E+00 0.  1.
    9000005    2    1    2  501    0  0.14885707389E+02 -0.33714243042E+02 -0.40035975898E+02  0.47893239934E+03  0.47583098817E+03 0.  0.
         13    1    3    3    0    0  0.13363028850E+03  0.43063751992E+02 -0.21325739080E+03  0.25532382472E+03  0.00000000000E+00 0.  1.
          1    1    3    3  501    0 -0.11874458111E+03 -0.76777995034E+02  0.17322141490E+03  0.22360857462E+03  0.00000000000E+00 0.  1.
         21    1    1    2  502  501 -0.14885707389E+02  0.33714243042E+02  0.63688694416E+01  0.37400494199E+02  0.00000000000E+00 0. -1.
<scales pt_clust_4="550.00000" pt_clust_5="550.00000" pt_clust_6="36.85423"></scales>
<mgrwt>
<rscale>  0 0.30000000E+03</rscale>
<asrwt>  1 0.36854233E+02</asrwt>
<pdfrwt beam="1">  1        1 0.87757416E+00 0.30000000E+03</pdfrwt>
<pdfrwt beam="2">0</pdfrwt>
<totfact> 0.20882687E-04</totfact>
</mgrwt>
<clustering>
<clus scale="   36.854">  1  6  2 -1</clus>
<clus scale="  475.831">  4  5 -1 -1</clus>
<clus scale="  300.000">  1  4  2 -1</clus>
</clustering>
</event>
<event>
 6    1  0.1033679E-011  0.3000000E+03  0.7818608E-02  0.1093470E+00
          1   -1    0    0  502    0  0.00000000000E+00  0.00000000000E+00  0.23461371289E+03  0.23461371289E+03  0.00000000000E+00 0.  1.
         13   -1    0    0    0    0 -0.00000000000E+00 -0.00000000000E+00 -0.27500000000E+03  0.27500000000E+03  0.00000000000E+00 0.  1.
    9000005    2    1    2  501    0  0.20987268918E+02  0.24956648662E+02 -0.40444701502E+02  0.47700538295E+03  0.47416775693E+03 0.  0.
         13    1    3    3    0    0  0.23675151690E+02 -0.40460746504E+02  0.21153063441E+03  0.21666285817E+03  0.00000000000E+00 0.  1.
          1    1    3    3  501    0 -0.26878827724E+01  0.65417395166E+02 -0.25197533591E+03  0.26034252478E+03  0.00000000000E+00 0.  1.
         21    1    1    2  502  501 -0.20987268918E+02 -0.24956648662E+02  0.58414389433E-01  0.32608329937E+02  0.00000000000E+00 0. -1.
<scales pt_clust_4="550.00000" pt_clust_5="550.00000" pt_clust_6="32.60828"></scales>
<mgrwt>
<rscale>  0 0.30000000E+03</rscale>
<asrwt>  1 0.32608278E+02</asrwt>
<pdfrwt beam="1">  1        1 0.85314077E+00 0.30000000E+03</pdfrwt>
<pdfrwt beam="2">0</pdfrwt>
<totfact> 0.38497197E-04</totfact>
</mgrwt>
<clustering>
<clus scale="   32.608">  1  6  2 -1</clus>
<clus scale="  474.168">  4  5 -1 -1</clus>
<clus scale="  300.000">  1  4  2 -1</clus>
</clustering>
</event>
<event>
 6    1  0.1033679E-011  0.3000000E+03  0.7818608E-02  0.1093470E+00
          1   -1    0    0  502    0  0.00000000000E+00  0.00000000000E+00  0.23791734703E+03  0.23791734703E+03  0.00000000000E+00 0.  1.
         13   -1    0    0    0    0 -0.00000000000E+00 -0.00000000000E+00 -0.27500000000E+03  0.27500000000E+03  0.00000000000E+00 0.  1.
    9000005    2    1    2  501    0  0.38421400540E+02 -0.15460933281E+01 -0.22275344924E+02  0.47171236195E+03  0.46961448764E+03 0.  0.
         13    1    3    3    0    0 -0.18474706254E+03 -0.82509277911E+02 -0.94853903455E+02  0.22346480944E+03  0.00000000000E+00 0.  1.
          1    1    3    3  501    0  0.22316846308E+03  0.80963184583E+02  0.72578558531E+02  0.24824755251E+03  0.00000000000E+00 0.  1.
         21    1    1    2  502  501 -0.38421400540E+02  0.15460933281E+01 -0.14807308042E+02  0.41204985081E+02  0.00000000000E+00 0. -1.
<scales pt_clust_4="550.00000" pt_clust_5="550.00000" pt_clust_6="38.45251"></scales>
<mgrwt>
<rscale>  0 0.30000000E+03</rscale>
<asrwt>  1 0.38452515E+02</asrwt>
<pdfrwt beam="1">  1        1 0.86515399E+00 0.30000000E+03</pdfrwt>
<pdfrwt beam="2">0</pdfrwt>
<totfact> 0.27969175E-04</totfact>
</mgrwt>
<clustering>
<clus scale="   38.453">  1  6  2 -1</clus>
<clus scale="  469.614">  4  5 -1 -1</clus>
<clus scale="  300.000">  1  4  2 -1</clus>
</clustering>
</event>
<event>
 6    1  0.1033679E-011  0.3000000E+03  0.7818608E-02  0.1093470E+00
          1   -1    0    0  502    0  0.00000000000E+00  0.00000000000E+00  0.23475686439E+03  0.23475686439E+03  0.00000000000E+00 0.  1.
         13   -1    0    0    0    0 -0.00000000000E+00 -0.00000000000E+00 -0.27500000000E+03  0.27500000000E+03  0.00000000000E+00 0.  1.
    9000005    2    1    2  501    0  0.28430220720E+01 -0.30723771563E+02 -0.45974360164E+02  0.47837406897E+03  0.47515899987E+03 0.  0.
         13    1    3    3    0    0  0.95511394437E+02  0.18094280331E+03 -0.11819214313E+03  0.23628818683E+03  0.00000000000E+00 0.  1.
          1    1    3    3  501    0 -0.92668372365E+02 -0.21166657488E+03  0.72217782961E+02  0.24208588214E+03  0.00000000000E+00 0.  1.
         21    1    1    2  502  501 -0.28430220720E+01  0.30723771563E+02  0.57312245540E+01  0.31382795421E+02  0.00000000000E+00 0.  1.
<scales pt_clust_4="550.00000" pt_clust_5="550.00000" pt_clust_6="30.85503"></scales>
<mgrwt>
<rscale>  0 0.30000000E+03</rscale>
<asrwt>  1 0.30855031E+02</asrwt>
<pdfrwt beam="1">  1        1 0.85366133E+00 0.30000000E+03</pdfrwt>
<pdfrwt beam="2">0</pdfrwt>
<totfact> 0.38455967E-04</totfact>
</mgrwt>
<clustering>
<clus scale="   30.855">  1  6  2 -1</clus>
<clus scale="  475.159">  4  5 -1 -1</clus>
<clus scale="  300.000">  1  4  2 -1</clus>
</clustering>
</event>
<event>
 6    1  0.1033679E-011  0.3000000E+03  0.7818608E-02  0.1093470E+00
          1   -1    0    0  502    0  0.00000000000E+00  0.00000000000E+00  0.23023626452E+03  0.23023626452E+03  0.00000000000E+00 0.  1.
         13   -1    0    0    0    0 -0.00000000000E+00 -0.00000000000E+00 -0.27500000000E+03  0.27500000000E+03  0.00000000000E+00 0.  1.
    9000005    2    1    2  501    0  0.10960772634E+02  0.30494485267E+02 -0.66092402444E+02  0.46644239641E+03  0.46059771096E+03 0.  0.
         13    1    3    3    0    0  0.43733549103E+02  0.18088535683E+03  0.12266215181E+03  0.22288593298E+03  0.00000000000E+00 0.  1.
          1    1    3    3  501    0 -0.32772776469E+02 -0.15039087156E+03 -0.18875455425E+03  0.24355646343E+03  0.00000000000E+00 0.  1.
         21    1    1    2  502  501 -0.10960772634E+02 -0.30494485267E+02  0.21328666966E+02  0.38793868111E+02  0.00000000000E+00 0. -1.
<scales pt_clust_4="550.00000" pt_clust_5="550.00000" pt_clust_6="32.40451"></scales>
<mgrwt>
<rscale>  0 0.30000000E+03</rscale>
<asrwt>  1 0.32404508E+02</asrwt>
<pdfrwt beam="1">  1        1 0.83722278E+00 0.30000000E+03</pdfrwt>
<pdfrwt beam="2">0</pdfrwt>
<totfact> 0.52886164E-04</totfact>
</mgrwt>
<clustering>
<clus scale="   32.405">  1  6  2 -1</clus>
<clus scale="  460.598">  4  5 -1 -1</clus>
<clus scale="  300.000">  1  4  2 -1</clus>
</clustering>
</event>
<event>
 6    1  0.1033679E-011  0.3000000E+03  0.7818608E-02  0.1093470E+00
          1   -1    0    0  502    0  0.00000000000E+00  0.00000000000E+00  0.24214759547E+03  0.24214759547E+03  0.00000000000E+00 0.  1.
         13   -1    0    0    0    0 -0.00000000000E+00 -0.00000000000E+00 -0.27500000000E+03  0.27500000000E+03  0.00000000000E+00 0.  1.
    9000005    2    1    2  501    0  0.32288108536E+00 -0.47230626148E+02 -0.57939669332E+02  0.46366669090E+03  0.45760130973E+03 0.  0.
         13    1    3    3    0    0  0.22101229602E+03  0.23162663171E+02 -0.66205059655E+02  0.23187508250E+03  0.00000000000E+00 0.  1.
          3    1    3    3  501    0 -0.22068941494E+03 -0.70393289319E+02  0.82653903235E+01  0.23179160840E+03  0.00000000000E+00 0.  1.
         21    1    1    2  502  501 -0.32288108536E+00  0.47230626148E+02  0.25087264797E+02  0.53480904570E+02  0.00000000000E+00 0.  1.
<scales pt_clust_4="550.00000" pt_clust_5="550.00000" pt_clust_6="47.23173"></scales>
<mgrwt>
<rscale>  0 0.30000000E+03</rscale>
<asrwt>  1 0.47231730E+02</asrwt>
<pdfrwt beam="1">  1        1 0.88053671E+00 0.30000000E+03</pdfrwt>
<pdfrwt beam="2">0</pdfrwt>
<totfact> 0.18405094E-04</totfact>
</mgrwt>
<clustering>
<clus scale="   47.232">  1  6  2 -1</clus>
<clus scale="  457.601">  4  5 -1 -1</clus>
<clus scale="  300.000">  1  4  2 -1</clus>
</clustering>
</event>
<event>
 6    1  0.1033679E-011  0.3000000E+03  0.7818608E-02  0.1093470E+00
          1   -1    0    0  502    0  0.00000000000E+00  0.00000000000E+00  0.22936852814E+03  0.22936852814E+03  0.00000000000E+00 0.  1.
         13   -1    0    0    0    0 -0.00000000000E+00 -0.00000000000E+00 -0.27500000000E+03  0.27500000000E+03  0.00000000000E+00 0.  1.
    9000005    2    1    2  501    0 -0.70598063784E+01  0.33423737455E+02 -0.59936016611E+02  0.46733331392E+03  0.46221327666E+03 0.  0.
         13    1    3    3    0    0  0.62841991207E+02 -0.14167790335E+03  0.12808439455E+03  0.20106555221E+03  0.00000000000E+00 0.  1.
          3    1    3    3  501    0 -0.69901797586E+02  0.17510164081E+03 -0.18802041116E+03  0.26626776172E+03  0.00000000000E+00 0.  1.
         21    1    1    2  502  501  0.70598063784E+01 -0.33423737455E+02  0.14304544754E+02  0.37035214218E+02  0.00000000000E+00 0. -1.
<scales pt_clust_4="550.00000" pt_clust_5="550.00000" pt_clust_6="34.16119"></scales>
<mgrwt>
<rscale>  0 0.30000000E+03</rscale>
<asrwt>  1 0.34161193E+02</asrwt>
<pdfrwt beam="1">  1        1 0.83406738E+00 0.30000000E+03</pdfrwt>
<pdfrwt beam="2">0</pdfrwt>
<totfact> 0.55209016E-04</totfact>
</mgrwt>
<clustering>
<clus scale="   34.161">  1  6  2 -1</clus>
<clus scale="  462.213">  4  5 -1 -1</clus>
<clus scale="  300.000">  1  4  2 -1</clus>
</clustering>
</event>
<event>
 6    1  0.1033679E-011  0.3000000E+03  0.7818608E-02  0.1093470E+00
          1   -1    0    0  502    0  0.00000000000E+00  0.00000000000E+00  0.25457610856E+03  0.25457610856E+03  0.00000000000E+00 0.  1.
         13   -1    0    0    0    0 -0.00000000000E+00 -0.00000000000E+00 -0.27500000000E+03  0.27500000000E+03  0.00000000000E+00 0.  1.
    9000005    2    1    2  501    0  0.29323196793E+02  0.93935931715E+01 -0.46492795012E+02  0.48923162695E+03  0.48604312088E+03 0.  0.
         13    1    3    3    0    0 -0.32669785162E+02 -0.20829169521E+03  0.85159986969E+02  0.22738726556E+03  0.00000000000E+00 0.  1.
          1    1    3    3  501    0  0.61992981955E+02  0.21768528838E+03 -0.13165278198E+03  0.26184436139E+03  0.00000000000E+00 0.  1.
         21    1    1    2  502  501 -0.29323196793E+02 -0.93935931715E+01  0.26068903569E+02  0.40344481606E+02  0.00000000000E+00 0. -1.
<scales pt_clust_4="550.00000" pt_clust_5="550.00000" pt_clust_6="30.79106"></scales>
<mgrwt>
<rscale>  0 0.30000000E+03</rscale>
<asrwt>  1 0.30791061E+02</asrwt>
<pdfrwt beam="1">  1        1 0.92573130E+00 0.30000000E+03</pdfrwt>
<pdfrwt beam="2">0</pdfrwt>
<totfact> 0.32453145E-05</totfact>
</mgrwt>
<clustering>
<clus scale="   30.791">  1  6  2 -1</clus>
<clus scale="  486.043">  4  5 -1 -1</clus>
<clus scale="  300.000">  1  4  2 -1</clus>
</clustering>
</event>
<event>
 6    1  0.1033679E-011  0.3000000E+03  0.7818608E-02  0.1093470E+00
          1   -1    0    0  502    0  0.00000000000E+00  0.00000000000E+00  0.22675737107E+03  0.22675737107E+03  0.00000000000E+00 0.  1.
         13   -1    0    0    0    0 -0.00000000000E+00 -0.00000000000E+00 -0.27500000000E+03  0.27500000000E+03  0.00000000000E+00 0.  1.
    9000005    2    1    2  501    0 -0.37843035887E+02 -0.10883088197E+02 -0.46721578438E+02  0.46235114608E+03  0.45829590814E+03 0.  0.
         13    1    3    3    0    0  0.95173884352E+02  0.13271034785E+03 -0.16621905858E+03  0.23302120101E+03  0.00000000000E+00 0.  1.
          1    1    3    3  501    0 -0.13301692024E+03 -0.14359343604E+03  0.11949748014E+03  0.22932994507E+03  0.00000000000E+00 0.  1.
         21    1    1    2  502  501  0.37843035887E+02  0.10883088197E+02 -0.15210504869E+01  0.39406224996E+02  0.00000000000E+00 0. -1.
<scales pt_clust_4="550.00000" pt_clust_5="550.00000" pt_clust_6="39.37686"></scales>
<mgrwt>
<rscale>  0 0.30000000E+03</rscale>
<asrwt>  1 0.39376858E+02</asrwt>
<pdfrwt beam="1">  1        1 0.82457226E+00 0.30000000E+03</pdfrwt>
<pdfrwt beam="2">0</pdfrwt>
<totfact> 0.64473194E-04</totfact>
</mgrwt>
<clustering>
<clus scale="   39.377">  1  6  2 -1</clus>
<clus scale="  458.296">  4  5 -1 -1</clus>
<clus scale="  300.000">  1  4  2 -1</clus>
</clustering>
</event>
<event>
 6    1  0.1033679E-011  0.3000000E+03  0.7818608E-02  0.1093470E+00
          1   -1    0    0  502    0  0.00000000000E+00  0.00000000000E+00  0.22847231628E+03  0.22847231628E+03  0.00000000000E+00 0.  1.
         13   -1    0    0    0    0 -0.00000000000E+00 -0.00000000000E+00 -0.27500000000E+03  0.27500000000E+03  0.00000000000E+00 0.  1.
    9000005    2    1    2  501    0  0.57407087813E+01  0.35138528854E+02 -0.44947516127E+02  0.46783288759E+03  0.46430556701E+03 0.  0.
         13    1    3    3    0    0 -0.19270924304E+03  0.12028364804E+03  0.48910228423E+02  0.23237301647E+03  0.00000000000E+00 0.  1.
          1    1    3    3  501    0  0.19844995182E+03 -0.85145119185E+02 -0.93857744550E+02  0.23545987112E+03  0.00000000000E+00 0.  1.
         21    1    1    2  502  501 -0.57407087813E+01 -0.35138528854E+02 -0.15801675967E+01  0.35639428685E+02  0.00000000000E+00 0. -1.
<scales pt_clust_4="550.00000" pt_clust_5="550.00000" pt_clust_6="35.60438"></scales>
<mgrwt>
<rscale>  0 0.30000000E+03</rscale>
<asrwt>  1 0.35604381E+02</asrwt>
<pdfrwt beam="1">  1        1 0.83080842E+00 0.30000000E+03</pdfrwt>
<pdfrwt beam="2">0</pdfrwt>
<totfact> 0.58027046E-04</totfact>
</mgrwt>
<clustering>
<clus scale="   35.604">  1  6  2 -1</clus>
<clus scale="  464.306">  4  5 -1 -1</clus>
<clus scale="  300.000">  1  4  2 -1</clus>
</clustering>
</event>
<event>
 6    1  0.1033679E-011  0.3000000E+03  0.7818608E-02  0.1093470E+00
          1   -1    0    0  502    0  0.00000000000E+00  0.00000000000E+00  0.23938365854E+03  0.23938365854E+03  0.00000000000E+00 0.  1.
         13   -1    0    0    0    0 -0.00000000000E+00 -0.00000000000E+00 -0.27500000000E+03  0.27500000000E+03  0.00000000000E+00 0.  1.
    9000005    2    1    2  501    0 -0.27674484259E+02  0.32789198138E+02 -0.64265666075E+02  0.46279109712E+03  0.45629432951E+03 0.  0.
         13    1    3    3    0    0 -0.68691254779E+02 -0.11858691498E+03 -0.20863889216E+03  0.24962277983E+03  0.00000000000E+00 0.  1.
          3    1    3    3  501    0  0.41016770519E+02  0.15137611312E+03  0.14437322608E+03  0.21316831729E+03  0.00000000000E+00 0.  1.
         21    1    1    2  502  501  0.27674484259E+02 -0.32789198138E+02  0.28649324619E+02  0.51592561427E+02  0.00000000000E+00 0.  1.
<scales pt_clust_4="550.00000" pt_clust_5="550.00000" pt_clust_6="42.90698"></scales>
<mgrwt>
<rscale>  0 0.30000000E+03</rscale>
<asrwt>  1 0.42906976E+02</asrwt>
<pdfrwt beam="1">  1        1 0.87048603E+00 0.30000000E+03</pdfrwt>
<pdfrwt beam="2">0</pdfrwt>
<totfact> 0.24118328E-04</totfact>
</mgrwt>
<clustering>
<clus scale="   42.907">  1  6  2 -1</clus>
<clus scale="  456.294">  4  5 -1 -1</clus>
<clus scale="  300.000">  1  4  2 -1</clus>
</clustering>
</event>
<event>
 6    1  0.1033679E-011  0.3000000E+03  0.7818608E-02  0.1093470E+00
          1   -1    0    0  502    0  0.00000000000E+00  0.00000000000E+00  0.24617607746E+03  0.24617607746E+03  0.00000000000E+00 0.  1.
         13   -1    0    0    0    0 -0.00000000000E+00 -0.00000000000E+00 -0.27500000000E+03  0.27500000000E+03  0.00000000000E+00 0.  1.
    9000005    2    1    2  501    0 -0.15521292933E+02 -0.26101072825E+02 -0.32891708523E+02  0.49053748383E+03  0.48849051374E+03 0.  0.
         13    1    3    3    0    0  0.70125837833E+02 -0.51652526399E+02  0.21234978632E+03  0.22951698927E+03  0.00000000000E+00 0.  1.
          1    1    3    3  501    0 -0.85647130766E+02  0.25551453575E+02 -0.24524149484E+03  0.26102049456E+03  0.00000000000E+00 0.  1.
         21    1    1    2  502  501  0.15521292933E+02  0.26101072825E+02  0.40677859832E+01  0.30638593631E+02  0.00000000000E+00 0. -1.
<scales pt_clust_4="550.00000" pt_clust_5="550.00000" pt_clust_6="30.36736"></scales>
<mgrwt>
<rscale>  0 0.30000000E+03</rscale>
<asrwt>  1 0.30367360E+02</asrwt>
<pdfrwt beam="1">  1        1 0.89518574E+00 0.30000000E+03</pdfrwt>
<pdfrwt beam="2">0</pdfrwt>
<totfact> 0.12891264E-04</totfact>
</mgrwt>
<clustering>
<clus scale="   30.367">  1  6  2 -1</clus>
<clus scale="  488.491">  4  5 -1 -1</clus>
<clus scale="  300.000">  1  4  2 -1</clus>
</clustering>
</event>
<event>
 6    1  0.1033679E-011  0.3000000E+03  0.7818608E-02  0.1093470E+00
          1   -1    0    0  502    0  0.00000000000E+00  0.00000000000E+00  0.22785254302E+03  0.22785254302E+03  0.00000000000E+00 0.  1.
         13   -1    0    0    0    0 -0.00000000000E+00 -0.00000000000E+00 -0.27500000000E+03  0.27500000000E+03  0.00000000000E+00 0.  1.
    9000005    2    1    2  501    0 -0.24140910829E+02 -0.32098189795E+02 -0.44383244262E+02  0.46259439806E+03  0.45870538190E+03 0.  0.
         13    1    3    3    0    0 -0.13582951595E+03  0.44861502614E+02  0.16169350268E+03  0.21588654573E+03  0.00000000000E+00 0.  1.
          1    1    3    3  501    0  0.11168860512E+03 -0.76959692409E+02 -0.20607674694E+03  0.24670785233E+03  0.00000000000E+00 0.  1.
         21    1    1    2  502  501  0.24140910829E+02  0.32098189795E+02 -0.27642127181E+01  0.40258144961E+02  0.00000000000E+00 0. -1.
<scales pt_clust_4="550.00000" pt_clust_5="550.00000" pt_clust_6="40.16313"></scales>
<mgrwt>
<rscale>  0 0.30000000E+03</rscale>
<asrwt>  1 0.40163134E+02</asrwt>
<pdfrwt beam="1">  1        1 0.82855470E+00 0.30000000E+03</pdfrwt>
<pdfrwt beam="2">0</pdfrwt>
<totfact> 0.59256619E-04</totfact>
</mgrwt>
<clustering>
<clus scale="   40.163">  1  6  2 -1</clus>
<clus scale="  458.705">  4  5 -1 -1</clus>
<clus scale="  300.000">  1  4  2 -1</clus>
</clustering>
</event>
<event>
 6    1  0.1033679E-011  0.3000000E+03  0.7818608E-02  0.1093470E+00
          1   -1    0    0  502    0  0.00000000000E+00  0.00000000000E+00  0.22646343392E+03  0.22646343392E+03  0.00000000000E+00 0.  1.
         13   -1    0    0    0    0 -0.00000000000E+00 -0.00000000000E+00 -0.27500000000E+03  0.27500000000E+03  0.00000000000E+00 0.  1.
    9000005    2    1    2  501    0 -0.37133138768E+02 -0.57872560418E+01 -0.42965423609E+02  0.46347133007E+03  0.45994269626E+03 0.  0.
         13    1    3    3    0    0  0.16040212639E+03 -0.16806116793E+02 -0.16523309785E+03  0.23089665294E+03  0.00000000000E+00 0.  1.
          1    1    3    3  501    0 -0.19753526516E+03  0.11018860752E+02  0.12226767424E+03  0.23257467712E+03  0.00000000000E+00 0.  1.
         21    1    1    2  502  501  0.37133138768E+02  0.57872560418E+01 -0.55711424669E+01  0.37992103859E+02  0.00000000000E+00 0.  1.
<scales pt_clust_4="550.00000" pt_clust_5="550.00000" pt_clust_6="37.58143"></scales>
<mgrwt>
<rscale>  0 0.30000000E+03</rscale>
<asrwt>  1 0.37581428E+02</asrwt>
<pdfrwt beam="1">  1        1 0.82350340E+00 0.30000000E+03</pdfrwt>
<pdfrwt beam="2">0</pdfrwt>
<totfact> 0.66474470E-04</totfact>
</mgrwt>
<clustering>
<clus scale="   37.581">  1  6  2 -1</clus>
<clus scale="  459.943">  4  5 -1 -1</clus>
<clus scale="  300.000">  1  4  2 -1</clus>
</clustering>
</event>
<event>
 6    1  0.1033679E-011  0.3000000E+03  0.7818608E-02  0.1093470E+00
          1   -1    0    0  502    0  0.00000000000E+00  0.00000000000E+00  0.24186239534E+03  0.24186239534E+03  0.00000000000E+00 0.  1.
         13   -1    0    0    0    0 -0.00000000000E+00 -0.00000000000E+00 -0.27500000000E+03  0.27500000000E+03  0.00000000000E+00 0.  1.
    9000005    2    1    2  501    0 -0.24025922667E+02  0.20164551441E+02 -0.35644132285E+02  0.48539595646E+03  0.48306819010E+03 0.  0.
         13    1    3    3    0    0  0.11965006909E+03  0.21037155324E+03 -0.47886342849E+02  0.24670920388E+03  0.00000000000E+00 0.  1.
          1    1    3    3  501    0 -0.14367599176E+03 -0.19020700180E+03  0.12242210564E+02  0.23868675259E+03  0.00000000000E+00 0.  1.
         21    1    1    2  502  501  0.24025922667E+02 -0.20164551441E+02  0.25065276216E+01  0.31466438876E+02  0.00000000000E+00 0. -1.
<scales pt_clust_4="550.00000" pt_clust_5="550.00000" pt_clust_6="31.36645"></scales>
<mgrwt>
<rscale>  0 0.30000000E+03</rscale>
<asrwt>  1 0.31366449E+02</asrwt>
<pdfrwt beam="1">  1        1 0.87949962E+00 0.30000000E+03</pdfrwt>
<pdfrwt beam="2">0</pdfrwt>
<totfact> 0.20436533E-04</totfact>
</mgrwt>
<clustering>
<clus scale="   31.366">  1  6  2 -1</clus>
<clus scale="  483.068">  4  5 -1 -1</clus>
<clus scale="  300.000">  1  4  2 -1</clus>
</clustering>
</event>
<event>
 6    1  0.1033679E-011  0.3000000E+03  0.7818608E-02  0.1093470E+00
          1   -1    0    0  502    0  0.00000000000E+00  0.00000000000E+00  0.22138135363E+03  0.22138135363E+03  0.00000000000E+00 0.  1.
         13   -1    0    0    0    0 -0.00000000000E+00 -0.00000000000E+00 -0.27500000000E+03  0.27500000000E+03  0.00000000000E+00 0.  1.
    9000005    2    1    2  501    0  0.25180883642E+02  0.17063622478E+02 -0.53370260089E+02  0.46596251393E+03  0.46189548127E+03 0.  0.
         13    1    3    3    0    0 -0.93489382827E+02  0.20111995927E+03 -0.97985409125E+02  0.24246781873E+03  0.00000000000E+00 0.  1.
          1    1    3    3  501    0  0.11867026647E+03 -0.18405633680E+03  0.44615149036E+02  0.22349469520E+03  0.00000000000E+00 0.  1.
         21    1    1    2  502  501 -0.25180883642E+02 -0.17063622478E+02 -0.24838627913E+00  0.30418839701E+02  0.00000000000E+00 0.  1.
<scales pt_clust_4="550.00000" pt_clust_5="550.00000" pt_clust_6="30.41783"></scales>
<mgrwt>
<rscale>  0 0.30000000E+03</rscale>
<asrwt>  1 0.30417826E+02</asrwt>
<pdfrwt beam="1">  1        1 0.80502310E+00 0.30000000E+03</pdfrwt>
<pdfrwt beam="2">0</pdfrwt>
<totfact> 0.97823548E-04</totfact>
</mgrwt>
<clustering>
<clus scale="   30.418">  1  6  2 -1</clus>
<clus scale="  461.895">  4  5 -1 -1</clus>
<clus scale="  300.000">  1  4  2 -1</clus>
</clustering>
</event>
<event>
 6    1  0.1033679E-011  0.3000000E+03  0.7818608E-02  0.1093470E+00
          1   -1    0    0  502    0  0.00000000000E+00  0.00000000000E+00  0.24805061393E+03  0.24805061393E+03  0.00000000000E+00 0.  1.
         13   -1    0    0    0    0 -0.00000000000E+00 -0.00000000000E+00 -0.27500000000E+03  0.27500000000E+03  0.00000000000E+00 0.  1.
    9000005    2    1    2  501    0 -0.17887589905E+02 -0.27211185966E+02 -0.72789125556E+02  0.46682165137E+03  0.45996063188E+03 0.  0.
         13    1    3    3    0    0 -0.10617270267E+03  0.15540705528E+03  0.88205767510E+02  0.20785632789E+03  0.00000000000E+00 0.  1.
          3    1    3    3  501    0  0.88285112764E+02 -0.18261824125E+03 -0.16099489307E+03  0.25896532348E+03  0.00000000000E+00 0.  1.
         21    1    1    2  502  501  0.17887589905E+02  0.27211185966E+02  0.45839739489E+02  0.56228962561E+02  0.00000000000E+00 0.  1.
<scales pt_clust_4="550.00000" pt_clust_5="550.00000" pt_clust_6="32.56401"></scales>
<mgrwt>
<rscale>  0 0.30000000E+03</rscale>
<asrwt>  1 0.32564006E+02</asrwt>
<pdfrwt beam="1">  1        1 0.90200223E+00 0.30000000E+03</pdfrwt>
<pdfrwt beam="2">0</pdfrwt>
<totfact> 0.10520801E-04</totfact>
</mgrwt>
<clustering>
<clus scale="   32.564">  1  6  2 -1</clus>
<clus scale="  459.961">  4  5 -1 -1</clus>
<clus scale="  300.000">  1  4  2 -1</clus>
</clustering>
</event>
<event>
 6    1  0.1033679E-011  0.3000000E+03  0.7818608E-02  0.1093470E+00
          1   -1    0    0  502    0  0.00000000000E+00  0.00000000000E+00  0.22686708816E+03  0.22686708816E+03  0.00000000000E+00 0.  1.
         13   -1    0    0    0    0 -0.00000000000E+00 -0.00000000000E+00 -0.27500000000E+03  0.27500000000E+03  0.00000000000E+00 0.  1.
    9000005    2    1    2  501    0 -0.50623655494E+01 -0.31922458730E+02 -0.61857696333E+02  0.46675240995E+03  0.46150489346E+03 0.  0.
         13    1    3    3    0    0  0.18247766695E+03 -0.33055968116E+02  0.10724821196E+03  0.21422645712E+03  0.00000000000E+00 0.  1.
          1    1    3    3  501    0 -0.18754003250E+03  0.11335093857E+01 -0.16910590829E+03  0.25252595283E+03  0.00000000000E+00 0.  1.
         21    1    1    2  502  501  0.50623655494E+01  0.31922458730E+02  0.13724784494E+02  0.35114678210E+02  0.00000000000E+00 0.  1.
<scales pt_clust_4="550.00000" pt_clust_5="550.00000" pt_clust_6="32.32137"></scales>
<mgrwt>
<rscale>  0 0.30000000E+03</rscale>
<asrwt>  1 0.32321369E+02</asrwt>
<pdfrwt beam="1">  1        1 0.82497123E+00 0.30000000E+03</pdfrwt>
<pdfrwt beam="2">0</pdfrwt>
<totfact> 0.66343640E-04</totfact>
</mgrwt>
<clustering>
<clus scale="   32.321">  1  6  2 -1</clus>
<clus scale="  461.505">  4  5 -1 -1</clus>
<clus scale="  300.000">  1  4  2 -1</clus>
</clustering>
</event>
<event>
 6    1  0.1033679E-011  0.3000000E+03  0.7818608E-02  0.1093470E+00
          1   -1    0    0  502    0  0.00000000000E+00  0.00000000000E+00  0.23358873535E+03  0.23358873535E+03  0.00000000000E+00 0.  1.
         13   -1    0    0    0    0 -0.00000000000E+00 -0.00000000000E+00 -0.27500000000E+03  0.27500000000E+03  0.00000000000E+00 0.  1.
    9000005    2    1    2  501    0 -0.88374877638E+01 -0.36783380577E+02 -0.62938303204E+02  0.46506251721E+03  0.45922847977E+03 0.  0.
         13    1    3    3    0    0 -0.17005481346E+03  0.84688478351E+02 -0.15309596093E+03  0.24398596517E+03  0.00000000000E+00 0.  1.
          3    1    3    3  501    0  0.16121732570E+03 -0.12147185893E+03  0.90157657723E+02  0.22107655204E+03  0.00000000000E+00 0.  1.
         21    1    1    2  502  501  0.88374877638E+01  0.36783380577E+02  0.21527038559E+02  0.43526218142E+02  0.00000000000E+00 0.  1.
<scales pt_clust_4="550.00000" pt_clust_5="550.00000" pt_clust_6="37.83012"></scales>
<mgrwt>
<rscale>  0 0.30000000E+03</rscale>
<asrwt>  1 0.37830124E+02</asrwt>
<pdfrwt beam="1">  1        1 0.84941358E+00 0.30000000E+03</pdfrwt>
<pdfrwt beam="2">0</pdfrwt>
<totfact> 0.40624840E-04</totfact>
</mgrwt>
<clustering>
<clus scale="   37.830">  1  6  2 -1</clus>
<clus scale="  459.228">  4  5 -1 -1</clus>
<clus scale="  300.000">  1  4  2 -1</clus>
</clustering>
</event>
<event>
 6    1  0.1033679E-011  0.3000000E+03  0.7818608E-02  0.1093470E+00
          1   -1    0    0  502    0  0.00000000000E+00  0.00000000000E+00  0.23299255608E+03  0.23299255608E+03  0.00000000000E+00 0.  1.
         13   -1    0    0    0    0 -0.00000000000E+00 -0.00000000000E+00 -0.27500000000E+03  0.27500000000E+03  0.00000000000E+00 0.  1.
    9000005    2    1    2  501    0  0.33589836937E+02 -0.96925412453E+01 -0.56481808947E+02  0.47015435126E+03  0.46543817717E+03 0.  0.
         13    1    3    3    0    0 -0.20470741736E+03  0.52574112307E+02 -0.72232267146E+02  0.22335322792E+03  0.00000000000E+00 0.  1.
          1    1    3    3  501    0  0.23829725429E+03 -0.62266653552E+02  0.15750458199E+02  0.24680112334E+03  0.00000000000E+00 0.  1.
         21    1    1    2  502  501 -0.33589836937E+02  0.96925412453E+01  0.14474365028E+02  0.37838204823E+02  0.00000000000E+00 0. -1.
<scales pt_clust_4="550.00000" pt_clust_5="550.00000" pt_clust_6="34.96030"></scales>
<mgrwt>
<rscale>  0 0.30000000E+03</rscale>
<asrwt>  1 0.34960299E+02</asrwt>
<pdfrwt beam="1">  1        1 0.84724566E+00 0.30000000E+03</pdfrwt>
<pdfrwt beam="2">0</pdfrwt>
<totfact> 0.43159721E-04</totfact>
</mgrwt>
<clustering>
<clus scale="   34.960">  1  6  2 -1</clus>
<clus scale="  465.438">  4  5 -1 -1</clus>
<clus scale="  300.000">  1  4  2 -1</clus>
</clustering>
</event>
<event>
 6    1  0.1033679E-011  0.3000000E+03  0.7818608E-02  0.1093470E+00
          1   -1    0    0  502    0  0.00000000000E+00  0.00000000000E+00  0.25606485847E+03  0.25606485847E+03  0.00000000000E+00 0.  1.
         13   -1    0    0    0    0 -0.00000000000E+00 -0.00000000000E+00 -0.27500000000E+03  0.27500000000E+03  0.00000000000E+00 0.  1.
    9000005    2    1    2  501    0  0.37400825055E+02  0.29559205038E+02 -0.44085160074E+01  0.48122921694E+03  0.47884189030E+03 0.  0.
         13    1    3    3    0    0  0.71457450432E+02 -0.16339069146E+03 -0.15328118915E+03  0.23515486009E+03  0.00000000000E+00 0.  1.
          1    1    3    3  501    0 -0.34056625378E+02  0.19294989650E+03  0.14887267314E+03  0.24607435685E+03  0.00000000000E+00 0.  1.
         21    1    1    2  502  501 -0.37400825055E+02 -0.29559205038E+02 -0.14526625525E+02  0.49835641527E+02  0.00000000000E+00 0.  1.
<scales pt_clust_4="550.00000" pt_clust_5="550.00000" pt_clust_6="47.67149"></scales>
<mgrwt>
<rscale>  0 0.30000000E+03</rscale>
<asrwt>  1 0.47671486E+02</asrwt>
<pdfrwt beam="1">  1        1 0.93114494E+00 0.30000000E+03</pdfrwt>
<pdfrwt beam="2">0</pdfrwt>
<totfact> 0.23881303E-05</totfact>
</mgrwt>
<clustering>
<clus scale="   47.671">  1  6  2 -1</clus>
<clus scale="  478.842">  4  5 -1 -1</clus>
<clus scale="  300.000">  1  4  2 -1</clus>
</clustering>
</event>
<event>
 6    1  0.1033679E-011  0.3000000E+03  0.7818608E-02  0.1093470E+00
          1   -1    0    0  502    0  0.00000000000E+00  0.00000000000E+00  0.22383730615E+03  0.22383730615E+03  0.00000000000E+00 0.  1.
         13   -1    0    0    0    0 -0.00000000000E+00 -0.00000000000E+00 -0.27500000000E+03  0.27500000000E+03  0.00000000000E+00 0.  1.
    9000005    2    1    2  501    0  0.12836058878E+02 -0.28032844760E+02 -0.46099860591E+02  0.46759251341E+03  0.46429188735E+03 0.  0.
         13    1    3    3    0    0 -0.15916258249E+03 -0.16085934096E+03  0.47085760309E+02  0.23113962028E+03  0.00000000000E+00 0.  1.
          1    1    3    3  501    0  0.17199864137E+03  0.13282649620E+03 -0.93185620900E+02  0.23645289313E+03  0.00000000000E+00 0.  1.
         21    1    1    2  502  501 -0.12836058878E+02  0.28032844760E+02 -0.50628332557E+01  0.31244792741E+02  0.00000000000E+00 0.  1.
<scales pt_clust_4="550.00000" pt_clust_5="550.00000" pt_clust_6="30.83189"></scales>
<mgrwt>
<rscale>  0 0.30000000E+03</rscale>
<asrwt>  1 0.30831895E+02</asrwt>
<pdfrwt beam="1">  1        1 0.81395384E+00 0.30000000E+03</pdfrwt>
<pdfrwt beam="2">0</pdfrwt>
<totfact> 0.83133838E-04</totfact>
</mgrwt>
<clustering>
<clus scale="   30.832">  1  6  2 -1</clus>
<clus scale="  464.292">  4  5 -1 -1</clus>
<clus scale="  300.000">  1  4  2 -1</clus>
</clustering>
</event>
<event>
 6    1  0.1033679E-011  0.3000000E+03  0.7818608E-02  0.1093470E+00
          1   -1    0    0  502    0  0.00000000000E+00  0.00000000000E+00  0.24228623941E+03  0.24228623941E+03  0.00000000000E+00 0.  1.
         13   -1    0    0    0    0 -0.00000000000E+00 -0.00000000000E+00 -0.27500000000E+03  0.27500000000E+03  0.00000000000E+00 0.  1.
    9000005    2    1    2  501    0 -0.16606283048E+01 -0.30760031345E+02 -0.66221296963E+02  0.47177039373E+03  0.46608272550E+03 0.  0.
         13    1    3    3    0    0  0.13603777532E+03 -0.13324675779E+03 -0.18304685830E+03  0.26413467608E+03  0.00000000000E+00 0.  1.
          3    1    3    3  501    0 -0.13769840363E+03  0.10248672644E+03  0.11682556134E+03  0.20763571764E+03  0.00000000000E+00 0.  1.
         21    1    1    2  502  501  0.16606283048E+01  0.30760031345E+02  0.33507536377E+02  0.45515845689E+02  0.00000000000E+00 0. -1.
<scales pt_clust_4="550.00000" pt_clust_5="550.00000" pt_clust_6="30.80482"></scales>
<mgrwt>
<rscale>  0 0.30000000E+03</rscale>
<asrwt>  1 0.30804825E+02</asrwt>
<pdfrwt beam="1">  1        1 0.88104087E+00 0.30000000E+03</pdfrwt>
<pdfrwt beam="2">0</pdfrwt>
<totfact> 0.19622801E-04</totfact>
</mgrwt>
<clustering>
<clus scale="   30.805">  1  6  2 -1</clus>
<clus scale="  466.083">  4  5 -1 -1</clus>
<clus scale="  300.000">  1  4  2 -1</clus>
</clustering>
</event>
<event>
 6    1  0.1033679E-011  0.3000000E+03  0.7818608E-02  0.1093470E+00
          1   -1    0    0  502    0  0.00000000000E+00  0.00000000000E+00  0.23845455946E+03  0.23845455946E+03  0.00000000000E+00 0.  1.
         13   -1    0    0    0    0 -0.00000000000E+00 -0.00000000000E+00 -0.27500000000E+03  0.27500000000E+03  0.00000000000E+00 0.  1.
    9000005    2    1    2  501    0  0.22681353045E+01 -0.32738662461E+02 -0.41825418634E+02  0.48021538639E+03  0.47726354064E+03 0.  0.
         13    1    3    3    0    0 -0.20438048951E+03  0.17987481803E+02 -0.13742543373E+03  0.24694267317E+03  0.00000000000E+00 0.  1.
          3    1    3    3  501    0  0.20664862482E+03 -0.50726144264E+02  0.95600015098E+02  0.23327271323E+03  0.00000000000E+00 0.  1.
         21    1    1    2  502  501 -0.22681353045E+01  0.32738662461E+02  0.52799780961E+01  0.33239173067E+02  0.00000000000E+00 0.  1.
<scales pt_clust_4="550.00000" pt_clust_5="550.00000" pt_clust_6="32.81714"></scales>
<mgrwt>
<rscale>  0 0.30000000E+03</rscale>
<asrwt>  1 0.32817137E+02</asrwt>
<pdfrwt beam="1">  1        1 0.86710749E+00 0.30000000E+03</pdfrwt>
<pdfrwt beam="2">0</pdfrwt>
<totfact> 0.27461731E-04</totfact>
</mgrwt>
<clustering>
<clus scale="   32.817">  1  6  2 -1</clus>
<clus scale="  477.264">  4  5 -1 -1</clus>
<clus scale="  300.000">  1  4  2 -1</clus>
</clustering>
</event>
<event>
 6    1  0.1033679E-011  0.3000000E+03  0.7818608E-02  0.1093470E+00
          1   -1    0    0  502    0  0.00000000000E+00  0.00000000000E+00  0.22869012408E+03  0.22869012408E+03  0.00000000000E+00 0.  1.
         13   -1    0    0    0    0 -0.00000000000E+00 -0.00000000000E+00 -0.27500000000E+03  0.27500000000E+03  0.00000000000E+00 0.  1.
    9000005    2    1    2  501    0 -0.85626569137E+01  0.35547979128E+02 -0.31309192826E+02  0.46416799854E+03  0.46166512474E+03 0.  0.
         13    1    3    3    0    0 -0.12529628103E+03 -0.13593923422E+03 -0.13818183112E+03  0.23080912437E+03  0.00000000000E+00 0.  1.
          1    1    3    3  501    0  0.11673362412E+03  0.17148721335E+03  0.10687263829E+03  0.23335887418E+03  0.00000000000E+00 0.  1.
         21    1    1    2  502  501  0.85626569137E+01 -0.35547979128E+02 -0.15000683094E+02  0.39522125535E+02  0.00000000000E+00 0. -1.
<scales pt_clust_4="550.00000" pt_clust_5="550.00000" pt_clust_6="36.56473"></scales>
<mgrwt>
<rscale>  0 0.30000000E+03</rscale>
<asrwt>  1 0.36564727E+02</asrwt>
<pdfrwt beam="1">  1        1 0.83160045E+00 0.30000000E+03</pdfrwt>
<pdfrwt beam="2">0</pdfrwt>
<totfact> 0.56912147E-04</totfact>
</mgrwt>
<clustering>
<clus scale="   36.565">  1  6  2 -1</clus>
<clus scale="  461.665">  4  5 -1 -1</clus>
<clus scale="  300.000">  1  4  2 -1</clus>
</clustering>
</event>
<event>
 6    1  0.1033679E-011  0.3000000E+03  0.7818608E-02  0.1093470E+00
          1   -1    0    0  502    0  0.00000000000E+00  0.00000000000E+00  0.23578101758E+03  0.23578101758E+03  0.00000000000E+00 0.  1.
         13   -1    0    0    0    0 -0.00000000000E+00 -0.00000000000E+00 -0.27500000000E+03  0.27500000000E+03  0.00000000000E+00 0.  1.
    9000005    2    1    2  501    0  0.12428292491E+02  0.37250545219E+02 -0.51940153831E+02  0.46950276937E+03  0.46496559582E+03 0.  0.
         13    1    3    3    0    0  0.21957227623E+03  0.52611464392E+02  0.59895119572E+02  0.23359660961E+03  0.00000000000E+00 0.  1.
          3    1    3    3  501    0 -0.20714398373E+03 -0.15360919173E+02 -0.11183527340E+03  0.23590615976E+03  0.00000000000E+00 0.  1.
         21    1    1    2  502  501 -0.12428292491E+02 -0.37250545219E+02  0.12721171412E+02  0.41278248212E+02  0.00000000000E+00 0.  1.
<scales pt_clust_4="550.00000" pt_clust_5="550.00000" pt_clust_6="39.26914"></scales>
<mgrwt>
<rscale>  0 0.30000000E+03</rscale>
<asrwt>  1 0.39269143E+02</asrwt>
<pdfrwt beam="1">  1        1 0.85738552E+00 0.30000000E+03</pdfrwt>
<pdfrwt beam="2">0</pdfrwt>
<totfact> 0.33734315E-04</totfact>
</mgrwt>
<clustering>
<clus scale="   39.269">  1  6  2 -1</clus>
<clus scale="  464.966">  4  5 -1 -1</clus>
<clus scale="  300.000">  1  4  2 -1</clus>
</clustering>
</event>
<event>
 6    1  0.1033679E-011  0.3000000E+03  0.7818608E-02  0.1093470E+00
          1   -1    0    0  502    0  0.00000000000E+00  0.00000000000E+00  0.24744434203E+03  0.24744434203E+03  0.00000000000E+00 0.  1.
         13   -1    0    0    0    0 -0.00000000000E+00 -0.00000000000E+00 -0.27500000000E+03  0.27500000000E+03  0.00000000000E+00 0.  1.
    9000005    2    1    2  501    0 -0.12466456813E+02  0.41406119974E+02 -0.68064370217E+02  0.46319204178E+03  0.45611865754E+03 0.  0.
         13    1    3    3    0    0 -0.12197854716E+03 -0.29768234757E+02  0.15817951826E+03  0.20195463294E+03  0.00000000000E+00 0.  1.
          3    1    3    3  501    0  0.10951209035E+03  0.71174354731E+02 -0.22624388848E+03  0.26123740884E+03  0.00000000000E+00 0.  1.
         21    1    1    2  502  501  0.12466456813E+02 -0.41406119974E+02  0.40508712247E+02  0.59252300248E+02  0.00000000000E+00 0. -1.
<scales pt_clust_4="550.00000" pt_clust_5="550.00000" pt_clust_6="43.24210"></scales>
<mgrwt>
<rscale>  0 0.30000000E+03</rscale>
<asrwt>  1 0.43242101E+02</asrwt>
<pdfrwt beam="1">  1        1 0.89979761E+00 0.30000000E+03</pdfrwt>
<pdfrwt beam="2">0</pdfrwt>
<totfact> 0.10686005E-04</totfact>
</mgrwt>
<clustering>
<clus scale="   43.242">  1  6  2 -1</clus>
<clus scale="  456.119">  4  5 -1 -1</clus>
<clus scale="  300.000">  1  4  2 -1</clus>
</clustering>
</event>
<event>
 6    1  0.1033679E-011  0.3000000E+03  0.7818608E-02  0.1093470E+00
          1   -1    0    0  502    0  0.00000000000E+00  0.00000000000E+00  0.22798027121E+03  0.22798027121E+03  0.00000000000E+00 0.  1.
         13   -1    0    0    0    0 -0.00000000000E+00 -0.00000000000E+00 -0.27500000000E+03  0.27500000000E+03  0.00000000000E+00 0.  1.
    9000005    2    1    2  501    0 -0.11910724935E+02 -0.28619834301E+02 -0.49162283896E+02  0.47190695748E+03  0.46831430266E+03 0.  0.
         13    1    3    3    0    0 -0.21478476965E+03  0.91176966066E+02 -0.14732178328E+02  0.23380071320E+03  0.00000000000E+00 0.  1.
          1    1    3    3  501    0  0.20287404471E+03 -0.11979680037E+03 -0.34430105568E+02  0.23810624428E+03  0.00000000000E+00 0.  1.
         21    1    1    2  502  501  0.11910724935E+02  0.28619834301E+02  0.21425551049E+01  0.31073313732E+02  0.00000000000E+00 0.  1.
<scales pt_clust_4="550.00000" pt_clust_5="550.00000" pt_clust_6="30.99936"></scales>
<mgrwt>
<rscale>  0 0.30000000E+03</rscale>
<asrwt>  1 0.30999359E+02</asrwt>
<pdfrwt beam="1">  1        1 0.82901917E+00 0.30000000E+03</pdfrwt>
<pdfrwt beam="2">0</pdfrwt>
<totfact> 0.61628881E-04</totfact>
</mgrwt>
<clustering>
<clus scale="   30.999">  1  6  2 -1</clus>
<clus scale="  468.314">  4  5 -1 -1</clus>
<clus scale="  300.000">  1  4  2 -1</clus>
</clustering>
</event>
<event>
 6    1  0.1033679E-011  0.3000000E+03  0.7818608E-02  0.1093470E+00
          1   -1    0    0  502    0  0.00000000000E+00  0.00000000000E+00  0.23187385710E+03  0.23187385710E+03  0.00000000000E+00 0.  1.
         13   -1    0    0    0    0 -0.00000000000E+00 -0.00000000000E+00 -0.27500000000E+03  0.27500000000E+03  0.00000000000E+00 0.  1.
    9000005    2    1    2  501    0 -0.28761734707E+02  0.18487392806E+02 -0.46020261180E+02  0.47256063812E+03  0.46907000670E+03 0.  0.
         13    1    3    3    0    0 -0.68591475196E+01  0.24057161887E+03 -0.62925243479E+02  0.24875959876E+03  0.00000000000E+00 0.  1.
          3    1    3    3  501    0 -0.21902587187E+02 -0.22208422606E+03  0.16904982299E+02  0.22380103936E+03  0.00000000000E+00 0.  1.
         21    1    1    2  502  501  0.28761734707E+02 -0.18487392806E+02  0.28941182789E+01  0.34313218979E+02  0.00000000000E+00 0.  1.
<scales pt_clust_4="550.00000" pt_clust_5="550.00000" pt_clust_6="34.19095"></scales>
<mgrwt>
<rscale>  0 0.30000000E+03</rscale>
<asrwt>  1 0.34190950E+02</asrwt>
<pdfrwt beam="1">  1        1 0.84317766E+00 0.30000000E+03</pdfrwt>
<pdfrwt beam="2">0</pdfrwt>
<totfact> 0.47048261E-04</totfact>
</mgrwt>
<clustering>
<clus scale="   34.191">  1  6  2 -1</clus>
<clus scale="  469.070">  4  5 -1 -1</clus>
<clus scale="  300.000">  1  4  2 -1</clus>
</clustering>
</event>
<event>
 6    1  0.1033679E-011  0.3000000E+03  0.7818608E-02  0.1093470E+00
          1   -1    0    0  502    0  0.00000000000E+00  0.00000000000E+00  0.23590666995E+03  0.23590666995E+03  0.00000000000E+00 0.  1.
         13   -1    0    0    0    0 -0.00000000000E+00 -0.00000000000E+00 -0.27500000000E+03  0.27500000000E+03  0.00000000000E+00 0.  1.
    9000005    2    1    2  501    0  0.16822400450E+02 -0.26672592626E+02 -0.72154266548E+02  0.46521809505E+03  0.45850541701E+03 0.  0.
         13    1    3    3    0    0 -0.28437872842E+02  0.31505683143E+02  0.18907948848E+03  0.19378434830E+03  0.00000000000E+00 0.  1.
          1    1    3    3  501    0  0.45260273292E+02 -0.58178275769E+02 -0.26123375503E+03  0.27143374675E+03  0.00000000000E+00 0.  1.
         21    1    1    2  502  501 -0.16822400450E+02  0.26672592626E+02  0.33060936497E+02  0.45688574900E+02  0.00000000000E+00 0.  1.
<scales pt_clust_4="550.00000" pt_clust_5="550.00000" pt_clust_6="31.53443"></scales>
<mgrwt>
<rscale>  0 0.30000000E+03</rscale>
<asrwt>  1 0.31534431E+02</asrwt>
<pdfrwt beam="1">  1        1 0.85784244E+00 0.30000000E+03</pdfrwt>
<pdfrwt beam="2">0</pdfrwt>
<totfact> 0.34764378E-04</totfact>
</mgrwt>
<clustering>
<clus scale="   31.534">  1  6  2 -1</clus>
<clus scale="  458.505">  4  5 -1 -1</clus>
<clus scale="  300.000">  1  4  2 -1</clus>
</clustering>
</event>
<event>
 6    1  0.1033679E-011  0.3000000E+03  0.7818608E-02  0.1093470E+00
          1   -1    0    0  502    0  0.00000000000E+00  0.00000000000E+00  0.24162448879E+03  0.24162448879E+03  0.00000000000E+00 0.  1.
         13   -1    0    0    0    0 -0.00000000000E+00 -0.00000000000E+00 -0.27500000000E+03  0.27500000000E+03  0.00000000000E+00 0.  1.
    9000005    2    1    2  501    0  0.33752717266E+02  0.42773455807E+02 -0.42495212606E+02  0.46137972978E+03  0.45617605978E+03 0.  0.
         13    1    3    3    0    0 -0.14538890142E+03  0.15620302012E+03 -0.10838882903E+03  0.23934379960E+03  0.00000000000E+00 0.  1.
          1    1    3    3  501    0  0.17914161869E+03 -0.11342956431E+03  0.65893616421E+02  0.22203593018E+03  0.00000000000E+00 0.  1.
         21    1    1    2  502  501 -0.33752717266E+02 -0.42773455807E+02  0.91197013986E+01  0.55244759011E+02  0.00000000000E+00 0. -1.
<scales pt_clust_4="550.00000" pt_clust_5="550.00000" pt_clust_6="54.48683"></scales>
<mgrwt>
<rscale>  0 0.30000000E+03</rscale>
<asrwt>  1 0.54486828E+02</asrwt>
<pdfrwt beam="1">  1        1 0.87863450E+00 0.30000000E+03</pdfrwt>
<pdfrwt beam="2">0</pdfrwt>
<totfact> 0.18932077E-04</totfact>
</mgrwt>
<clustering>
<clus scale="   54.487">  1  6  2 -1</clus>
<clus scale="  456.176">  4  5 -1 -1</clus>
<clus scale="  300.000">  1  4  2 -1</clus>
</clustering>
</event>
<event>
 6    1  0.1033679E-011  0.3000000E+03  0.7818608E-02  0.1093470E+00
          1   -1    0    0  502    0  0.00000000000E+00  0.00000000000E+00  0.24243842800E+03  0.24243842800E+03  0.00000000000E+00 0.  1.
         13   -1    0    0    0    0 -0.00000000000E+00 -0.00000000000E+00 -0.27500000000E+03  0.27500000000E+03  0.00000000000E+00 0.  1.
    9000005    2    1    2  501    0 -0.21705150443E+01  0.39622234155E+02 -0.60346236828E+02  0.46899650221E+03  0.46340200497E+03 0.  0.
         13    1    3    3    0    0  0.21870366262E+03  0.12116499331E+02 -0.10351717719E+03  0.24226825540E+03  0.00000000000E+00 0.  1.
          3    1    3    3  501    0 -0.22087417767E+03  0.27505734824E+02  0.43170940366E+02  0.22672824681E+03  0.00000000000E+00 0.  1.
         21    1    1    2  502  501  0.21705150443E+01 -0.39622234155E+02  0.27784664832E+02  0.48441925796E+02  0.00000000000E+00 0.  1.
<scales pt_clust_4="550.00000" pt_clust_5="550.00000" pt_clust_6="39.68164"></scales>
<mgrwt>
<rscale>  0 0.30000000E+03</rscale>
<asrwt>  1 0.39681640E+02</asrwt>
<pdfrwt beam="1">  1        1 0.88159428E+00 0.30000000E+03</pdfrwt>
<pdfrwt beam="2">0</pdfrwt>
<totfact> 0.18411881E-04</totfact>
</mgrwt>
<clustering>
<clus scale="   39.682">  1  6  2 -1</clus>
<clus scale="  463.402">  4  5 -1 -1</clus>
<clus scale="  300.000">  1  4  2 -1</clus>
</clustering>
</event>
<event>
 6    1  0.1033679E-011  0.3000000E+03  0.7818608E-02  0.1093470E+00
          1   -1    0    0  502    0  0.00000000000E+00  0.00000000000E+00  0.22721344583E+03  0.22721344583E+03  0.00000000000E+00 0.  1.
         13   -1    0    0    0    0 -0.00000000000E+00 -0.00000000000E+00 -0.27500000000E+03  0.27500000000E+03  0.00000000000E+00 0.  1.
    9000005    2    1    2  501    0  0.19253580713E+02  0.31006035378E+02 -0.38506924489E+02  0.46455463375E+03  0.46151505924E+03 0.  0.
         13    1    3    3    0    0  0.10940512100E+02 -0.19849499774E+03  0.69734895700E+02  0.21067252932E+03  0.00000000000E+00 0.  1.
          1    1    3    3  501    0  0.83130686126E+01  0.22950103312E+03 -0.10824182019E+03  0.25388210443E+03  0.00000000000E+00 0.  1.
         21    1    1    2  502  501 -0.19253580713E+02 -0.31006035378E+02 -0.92796296836E+01  0.37658812079E+02  0.00000000000E+00 0. -1.
<scales pt_clust_4="550.00000" pt_clust_5="550.00000" pt_clust_6="36.49762"></scales>
<mgrwt>
<rscale>  0 0.30000000E+03</rscale>
<asrwt>  1 0.36497615E+02</asrwt>
<pdfrwt beam="1">  1        1 0.82623071E+00 0.30000000E+03</pdfrwt>
<pdfrwt beam="2">0</pdfrwt>
<totfact> 0.63195371E-04</totfact>
</mgrwt>
<clustering>
<clus scale="   36.498">  1  6  2 -1</clus>
<clus scale="  461.515">  4  5 -1 -1</clus>
<clus scale="  300.000">  1  4  2 -1</clus>
</clustering>
</event>
<event>
 6    1  0.1033679E-011  0.3000000E+03  0.7818608E-02  0.1093470E+00
          1   -1    0    0  502    0  0.00000000000E+00  0.00000000000E+00  0.24067972280E+03  0.24067972280E+03  0.00000000000E+00 0.  1.
         13   -1    0    0    0    0 -0.00000000000E+00 -0.00000000000E+00 -0.27500000000E+03  0.27500000000E+03  0.00000000000E+00 0.  1.
    9000005    2    1    2  501    0  0.51897353891E+02 -0.10612484409E+02 -0.31488067112E+02  0.46263274758E+03  0.45851019683E+03 0.  0.
         13    1    3    3    0    0  0.12568323704E+03 -0.82198175699E+02  0.17582463760E+03  0.23122958147E+03  0.00000000000E+00 0.  1.
          1    1    3    3  501    0 -0.73785883151E+02  0.71585691290E+02 -0.20731270471E+03  0.23140316611E+03  0.00000000000E+00 0.  1.
         21    1    1    2  502  501 -0.51897353891E+02  0.10612484409E+02 -0.28322100829E+01  0.53046975221E+02  0.00000000000E+00 0.  1.
<scales pt_clust_4="550.00000" pt_clust_5="550.00000" pt_clust_6="52.97131"></scales>
<mgrwt>
<rscale>  0 0.30000000E+03</rscale>
<asrwt>  1 0.52971315E+02</asrwt>
<pdfrwt beam="1">  1        1 0.87519899E+00 0.30000000E+03</pdfrwt>
<pdfrwt beam="2">0</pdfrwt>
<totfact> 0.20773614E-04</totfact>
</mgrwt>
<clustering>
<clus scale="   52.971">  1  6  2 -1</clus>
<clus scale="  458.510">  4  5 -1 -1</clus>
<clus scale="  300.000">  1  4  2 -1</clus>
</clustering>
</event>
<event>
 6    1  0.1033679E-011  0.3000000E+03  0.7818608E-02  0.1093470E+00
          1   -1    0    0  502    0  0.00000000000E+00  0.00000000000E+00  0.23534972343E+03  0.23534972343E+03  0.00000000000E+00 0.  1.
         13   -1    0    0    0    0 -0.00000000000E+00 -0.00000000000E+00 -0.27500000000E+03  0.27500000000E+03  0.00000000000E+00 0.  1.
    9000005    2    1    2  501    0 -0.31299273590E+02  0.18752045599E+02 -0.68940562690E+02  0.46356078668E+03  0.45695133003E+03 0.  0.
         13    1    3    3    0    0 -0.16629928941E+03 -0.25558270715E+01  0.13762388412E+03  0.21587570357E+03  0.00000000000E+00 0.  1.
          3    1    3    3  501    0  0.13500001582E+03  0.21307872671E+02 -0.20656444681E+03  0.24768508311E+03  0.00000000000E+00 0.  1.
         21    1    1    2  502  501  0.31299273590E+02 -0.18752045599E+02  0.29290286117E+02  0.46788936751E+02  0.00000000000E+00 0.  1.
<scales pt_clust_4="550.00000" pt_clust_5="550.00000" pt_clust_6="36.48676"></scales>
<mgrwt>
<rscale>  0 0.30000000E+03</rscale>
<asrwt>  1 0.36486761E+02</asrwt>
<pdfrwt beam="1">  1        1 0.85581718E+00 0.30000000E+03</pdfrwt>
<pdfrwt beam="2">0</pdfrwt>
<totfact> 0.35478790E-04</totfact>
</mgrwt>
<clustering>
<clus scale="   36.487">  1  6  2 -1</clus>
<clus scale="  456.951">  4  5 -1 -1</clus>
<clus scale="  300.000">  1  4  2 -1</clus>
</clustering>
</event>
<event>
 6    1  0.1033679E-011  0.3000000E+03  0.7818608E-02  0.1093470E+00
          1   -1    0    0  502    0  0.00000000000E+00  0.00000000000E+00  0.23018233061E+03  0.23018233061E+03  0.00000000000E+00 0.  1.
         13   -1    0    0    0    0 -0.00000000000E+00 -0.00000000000E+00 -0.27500000000E+03  0.27500000000E+03  0.00000000000E+00 0.  1.
    9000005    2    1    2  501    0  0.10383790529E+02  0.28693684977E+02 -0.38654025887E+02  0.47405129843E+03  0.47148631917E+03 0.  0.
         13    1    3    3    0    0  0.17401046856E+03 -0.12266642660E+03  0.72589602512E+02  0.22493542579E+03  0.00000000000E+00 0.  1.
          1    1    3    3  501    0 -0.16362667803E+03  0.15136011158E+03 -0.11124362840E+03  0.24911587264E+03  0.00000000000E+00 0.  1.
         21    1    1    2  502  501 -0.10383790529E+02 -0.28693684977E+02 -0.61636435059E+01  0.31131032179E+02  0.00000000000E+00 0.  1.
<scales pt_clust_4="550.00000" pt_clust_5="550.00000" pt_clust_6="30.51478"></scales>
<mgrwt>
<rscale>  0 0.30000000E+03</rscale>
<asrwt>  1 0.30514777E+02</asrwt>
<pdfrwt beam="1">  1        1 0.83702666E+00 0.30000000E+03</pdfrwt>
<pdfrwt beam="2">0</pdfrwt>
<totfact> 0.53672198E-04</totfact>
</mgrwt>
<clustering>
<clus scale="   30.515">  1  6  2 -1</clus>
<clus scale="  471.486">  4  5 -1 -1</clus>
<clus scale="  300.000">  1  4  2 -1</clus>
</clustering>
</event>
<event>
 6    1  0.1033679E-011  0.3000000E+03  0.7818608E-02  0.1093470E+00
          1   -1    0    0  502    0  0.00000000000E+00  0.00000000000E+00  0.22299131855E+03  0.22299131855E+03  0.00000000000E+00 0.  1.
         13   -1    0    0    0    0 -0.00000000000E+00 -0.00000000000E+00 -0.27500000000E+03  0.27500000000E+03  0.00000000000E+00 0.  1.
    9000005    2    1    2  501    0 -0.29931351036E+02  0.10860034581E+02 -0.42376932882E+02  0.46472577020E+03  0.46169298341E+03 0.  0.
         13    1    3    3    0    0 -0.53199253952E+02  0.13603606198E+03 -0.20902632300E+03  0.25500583226E+03  0.00000000000E+00 0.  1.
          1    1    3    3  501    0  0.23267902916E+02 -0.12517602740E+03  0.16664939012E+03  0.20971993794E+03  0.00000000000E+00 0.  1.
         21    1    1    2  502  501  0.29931351036E+02 -0.10860034581E+02 -0.96317485716E+01  0.33265548342E+02  0.00000000000E+00 0.  1.
<scales pt_clust_4="550.00000" pt_clust_5="550.00000" pt_clust_6="31.84065"></scales>
<mgrwt>
<rscale>  0 0.30000000E+03</rscale>
<asrwt>  1 0.31840652E+02</asrwt>
<pdfrwt beam="1">  1        1 0.81087752E+00 0.30000000E+03</pdfrwt>
<pdfrwt beam="2">0</pdfrwt>
<totfact> 0.87393800E-04</totfact>
</mgrwt>
<clustering>
<clus scale="   31.841">  1  6  2 -1</clus>
<clus scale="  461.693">  4  5 -1 -1</clus>
<clus scale="  300.000">  1  4  2 -1</clus>
</clustering>
</event>
<event>
 6    1  0.1033679E-011  0.3000000E+03  0.7818608E-02  0.1093470E+00
          1   -1    0    0  502    0  0.00000000000E+00  0.00000000000E+00  0.22226654956E+03  0.22226654956E+03  0.00000000000E+00 0.  1.
         13   -1    0    0    0    0 -0.00000000000E+00 -0.00000000000E+00 -0.27500000000E+03  0.27500000000E+03  0.00000000000E+00 0.  1.
    9000005    2    1    2  501    0 -0.78668934291E+01 -0.29307533482E+02 -0.54754049980E+02  0.46685434225E+03  0.46263825108E+03 0.  0.
         13    1    3    3    0    0  0.99609654698E+02  0.16374021235E+03  0.80407704758E+02  0.20784210217E+03  0.00000000000E+00 0.  1.
          3    1    3    3  501    0 -0.10747654813E+03 -0.19304774583E+03 -0.13516175474E+03  0.25901224008E+03  0.00000000000E+00 0.  1.
         21    1    1    2  502  501  0.78668934291E+01  0.29307533482E+02  0.20205995423E+01  0.30412207312E+02  0.00000000000E+00 0. -1.
<scales pt_clust_4="550.00000" pt_clust_5="550.00000" pt_clust_6="30.34501"></scales>
<mgrwt>
<rscale>  0 0.30000000E+03</rscale>
<asrwt>  1 0.30345008E+02</asrwt>
<pdfrwt beam="1">  1        1 0.80824200E+00 0.30000000E+03</pdfrwt>
<pdfrwt beam="2">0</pdfrwt>
<totfact> 0.92465372E-04</totfact>
</mgrwt>
<clustering>
<clus scale="   30.345">  1  6  2 -1</clus>
<clus scale="  462.638">  4  5 -1 -1</clus>
<clus scale="  300.000">  1  4  2 -1</clus>
</clustering>
</event>
<event>
 6    1  0.1033679E-011  0.3000000E+03  0.7818608E-02  0.1093470E+00
          1   -1    0    0  502    0  0.00000000000E+00  0.00000000000E+00  0.26566489948E+03  0.26566489948E+03  0.00000000000E+00 0.  1.
         13   -1    0    0    0    0 -0.00000000000E+00 -0.00000000000E+00 -0.27500000000E+03  0.27500000000E+03  0.00000000000E+00 0.  1.
    9000005    2    1    2  501    0 -0.47045842275E+01  0.42051624127E+02 -0.66033205515E+02  0.46991783371E+03  0.46332700548E+03 0.  0.
         13    1    3    3    0    0 -0.84995988610E+02 -0.15392864777E+03  0.98664863844E+02  0.20162614424E+03  0.00000000000E+00 0.  1.
          1    1    3    3  501    0  0.80291404383E+02  0.19598027190E+03 -0.16469806936E+03  0.26829168947E+03  0.00000000000E+00 0.  1.
         21    1    1    2  502  501  0.47045842275E+01 -0.42051624127E+02  0.56698104995E+02  0.70747065766E+02  0.00000000000E+00 0. -1.
<scales pt_clust_4="550.00000" pt_clust_5="550.00000" pt_clust_6="42.31397"></scales>
<mgrwt>
<rscale>  0 0.30000000E+03</rscale>
<asrwt>  1 0.42313972E+02</asrwt>
<pdfrwt beam="1">  1        1 0.96605418E+00 0.30000000E+03</pdfrwt>
<pdfrwt beam="2">0</pdfrwt>
<totfact> 0.55043019E-06</totfact>
</mgrwt>
<clustering>
<clus scale="   42.314">  1  6  2 -1</clus>
<clus scale="  463.327">  4  5 -1 -1</clus>
<clus scale="  300.000">  1  4  2 -1</clus>
</clustering>
</event>
<event>
 6    1  0.1033679E-011  0.3000000E+03  0.7818608E-02  0.1093470E+00
          1   -1    0    0  502    0  0.00000000000E+00  0.00000000000E+00  0.23884704775E+03  0.23884704775E+03  0.00000000000E+00 0.  1.
         13   -1    0    0    0    0 -0.00000000000E+00 -0.00000000000E+00 -0.27500000000E+03  0.27500000000E+03  0.00000000000E+00 0.  1.
    9000005    2    1    2  501    0 -0.49776727153E+02  0.31049025962E+01 -0.40676074714E+02  0.46376889260E+03  0.45928169973E+03 0.  0.
         13    1    3    3    0    0  0.12337975462E+02  0.13040469876E+03 -0.20721226534E+03  0.24514186506E+03  0.00000000000E+00 0.  1.
          3    1    3    3  501    0 -0.62114702614E+02 -0.12729979616E+03  0.16653619063E+03  0.21862702754E+03  0.00000000000E+00 0.  1.
         21    1    1    2  502  501  0.49776727153E+02 -0.31049025962E+01  0.45231224631E+01  0.50078155147E+02  0.00000000000E+00 0.  1.
<scales pt_clust_4="550.00000" pt_clust_5="550.00000" pt_clust_6="49.87347"></scales>
<mgrwt>
<rscale>  0 0.30000000E+03</rscale>
<asrwt>  1 0.49873470E+02</asrwt>
<pdfrwt beam="1">  1        1 0.86853472E+00 0.30000000E+03</pdfrwt>
<pdfrwt beam="2">0</pdfrwt>
<totfact> 0.24589488E-04</totfact>
</mgrwt>
<clustering>
<clus scale="   49.873">  1  6  2 -1</clus>
<clus scale="  459.282">  4  5 -1 -1</clus>
<clus scale="  300.000">  1  4  2 -1</clus>
</clustering>
</event>
<event>
 6    1  0.1033679E-011  0.3000000E+03  0.7818608E-02  0.1093470E+00
          1   -1    0    0  502    0  0.00000000000E+00  0.00000000000E+00  0.25129485807E+03  0.25129485807E+03  0.00000000000E+00 0.  1.
         13   -1    0    0    0    0 -0.00000000000E+00 -0.00000000000E+00 -0.27500000000E+03  0.27500000000E+03  0.00000000000E+00 0.  1.
    9000005    2    1    2  501    0  0.27756250435E+02 -0.11803478143E+02 -0.47824630150E+02  0.48767515783E+03  0.48438634661E+03 0.  0.
         13    1    3    3    0    0 -0.11650117972E+03 -0.81057601180E+02  0.16740930354E+03  0.21947376722E+03  0.00000000000E+00 0.  1.
          3    1    3    3  501    0  0.14425743016E+03  0.69254123036E+02 -0.21523393369E+03  0.26820139061E+03  0.00000000000E+00 0.  1.
         21    1    1    2  502  501 -0.27756250435E+02  0.11803478143E+02  0.24119488218E+02  0.38619700236E+02  0.00000000000E+00 0.  1.
<scales pt_clust_4="550.00000" pt_clust_5="550.00000" pt_clust_6="30.16176"></scales>
<mgrwt>
<rscale>  0 0.30000000E+03</rscale>
<asrwt>  1 0.30161756E+02</asrwt>
<pdfrwt beam="1">  1        1 0.91379948E+00 0.30000000E+03</pdfrwt>
<pdfrwt beam="2">0</pdfrwt>
<totfact> 0.59488540E-05</totfact>
</mgrwt>
<clustering>
<clus scale="   30.162">  1  6  2 -1</clus>
<clus scale="  484.386">  4  5 -1 -1</clus>
<clus scale="  300.000">  1  4  2 -1</clus>
</clustering>
</event>
<event>
 6    1  0.1033679E-011  0.3000000E+03  0.7818608E-02  0.1093470E+00
          1   -1    0    0  502    0  0.00000000000E+00  0.00000000000E+00  0.21937030868E+03  0.21937030868E+03  0.00000000000E+00 0.  1.
         13   -1    0    0    0    0 -0.00000000000E+00 -0.00000000000E+00 -0.27500000000E+03  0.27500000000E+03  0.00000000000E+00 0.  1.
    9000005    2    1    2  501    0 -0.75444106255E+01  0.29937989694E+02 -0.55932030215E+02  0.46349486913E+03  0.45907069211E+03 0.  0.
         13    1    3    3    0    0  0.57830466120E+02  0.22375801210E+03  0.44919736505E+02  0.23543532768E+03  0.00000000000E+00 0.  1.
          1    1    3    3  501    0 -0.65374876746E+02 -0.19382002241E+03 -0.10085176672E+03  0.22805954145E+03  0.00000000000E+00 0.  1.
         21    1    1    2  502  501  0.75444106255E+01 -0.29937989694E+02  0.30233889851E+00  0.30875439550E+02  0.00000000000E+00 0.  1.
<scales pt_clust_4="550.00000" pt_clust_5="550.00000" pt_clust_6="30.87396"></scales>
<mgrwt>
<rscale>  0 0.30000000E+03</rscale>
<asrwt>  1 0.30873959E+02</asrwt>
<pdfrwt beam="1">  1        1 0.79771021E+00 0.30000000E+03</pdfrwt>
<pdfrwt beam="2">0</pdfrwt>
<totfact> 0.11032954E-03</totfact>
</mgrwt>
<clustering>
<clus scale="   30.874">  1  6  2 -1</clus>
<clus scale="  459.071">  4  5 -1 -1</clus>
<clus scale="  300.000">  1  4  2 -1</clus>
</clustering>
</event>
<event>
 6    1  0.1033679E-011  0.3000000E+03  0.7818608E-02  0.1093470E+00
          1   -1    0    0  502    0  0.00000000000E+00  0.00000000000E+00  0.23714759013E+03  0.23714759013E+03  0.00000000000E+00 0.  1.
         13   -1    0    0    0    0 -0.00000000000E+00 -0.00000000000E+00 -0.27500000000E+03  0.27500000000E+03  0.00000000000E+00 0.  1.
    9000005    2    1    2  501    0 -0.46498897756E+01  0.29774933000E+02 -0.44779868112E+02  0.48122578896E+03  0.47818914172E+03 0.  0.
         13    1    3    3    0    0 -0.19268899844E+03  0.12570965020E+03 -0.11700739384E+03  0.25811372782E+03  0.00000000000E+00 0.  1.
          3    1    3    3  501    0  0.18803910867E+03 -0.95934717199E+02  0.72227525733E+02  0.22311206114E+03  0.00000000000E+00 0.  1.
         21    1    1    2  502  501  0.46498897756E+01 -0.29774933000E+02  0.69274582427E+01  0.30921801173E+02  0.00000000000E+00 0.  1.
<scales pt_clust_4="550.00000" pt_clust_5="550.00000" pt_clust_6="30.13583"></scales>
<mgrwt>
<rscale>  0 0.30000000E+03</rscale>
<asrwt>  1 0.30135828E+02</asrwt>
<pdfrwt beam="1">  1        1 0.86235487E+00 0.30000000E+03</pdfrwt>
<pdfrwt beam="2">0</pdfrwt>
<totfact> 0.31392638E-04</totfact>
</mgrwt>
<clustering>
<clus scale="   30.136">  1  6  2 -1</clus>
<clus scale="  478.189">  4  5 -1 -1</clus>
<clus scale="  300.000">  1  4  2 -1</clus>
</clustering>
</event>
<event>
 6    1  0.1033679E-011  0.3000000E+03  0.7818608E-02  0.1093470E+00
          1   -1    0    0  502    0  0.00000000000E+00  0.00000000000E+00  0.22392705614E+03  0.22392705614E+03  0.00000000000E+00 0.  1.
         13   -1    0    0    0    0 -0.00000000000E+00 -0.00000000000E+00 -0.27500000000E+03  0.27500000000E+03  0.00000000000E+00 0.  1.
    9000005    2    1    2  501    0 -0.25250664631E+02  0.19682714318E+02 -0.40464801175E+02  0.46519964891E+03  0.46232922025E+03 0.  0.
         13    1    3    3    0    0 -0.98516654379E+02 -0.18490015399E+03 -0.11053076526E+03  0.23687686296E+03  0.00000000000E+00 0.  1.
          3    1    3    3  501    0  0.73265989748E+02  0.20458286831E+03  0.70065964087E+02  0.22832278595E+03  0.00000000000E+00 0.  1.
         21    1    1    2  502  501  0.25250664631E+02 -0.19682714318E+02 -0.10608142688E+02  0.33727407231E+02  0.00000000000E+00 0.  1.
<scales pt_clust_4="550.00000" pt_clust_5="550.00000" pt_clust_6="32.01572"></scales>
<mgrwt>
<rscale>  0 0.30000000E+03</rscale>
<asrwt>  1 0.32015720E+02</asrwt>
<pdfrwt beam="1">  1        1 0.81428020E+00 0.30000000E+03</pdfrwt>
<pdfrwt beam="2">0</pdfrwt>
<totfact> 0.82041844E-04</totfact>
</mgrwt>
<clustering>
<clus scale="   32.016">  1  6  2 -1</clus>
<clus scale="  462.329">  4  5 -1 -1</clus>
<clus scale="  300.000">  1  4  2 -1</clus>
</clustering>
</event>
<event>
 6    1  0.1033679E-011  0.3000000E+03  0.7818608E-02  0.1093470E+00
          1   -1    0    0  502    0  0.00000000000E+00  0.00000000000E+00  0.23464341875E+03  0.23464341875E+03  0.00000000000E+00 0.  1.
         13   -1    0    0    0    0 -0.00000000000E+00 -0.00000000000E+00 -0.27500000000E+03  0.27500000000E+03  0.00000000000E+00 0.  1.
    9000005    2    1    2  501    0 -0.14233071692E+02  0.41797802735E+02 -0.15559551290E+02  0.45900223651E+03  0.45660849405E+03 0.  0.
         13    1    3    3    0    0  0.10045034031E+03 -0.17752083687E+03  0.33472574893E+02  0.20669864940E+03  0.00000000000E+00 0.  1.
          1    1    3    3  501    0 -0.11468341201E+03  0.21931863961E+03 -0.49032126183E+02  0.25230358711E+03  0.00000000000E+00 0.  1.
         21    1    1    2  502  501  0.14233071692E+02 -0.41797802735E+02 -0.24797029965E+02  0.50641182237E+02  0.00000000000E+00 0. -1.
<scales pt_clust_4="550.00000" pt_clust_5="550.00000" pt_clust_6="44.15471"></scales>
<mgrwt>
<rscale>  0 0.30000000E+03</rscale>
<asrwt>  1 0.44154712E+02</asrwt>
<pdfrwt beam="1">  1        1 0.85324880E+00 0.30000000E+03</pdfrwt>
<pdfrwt beam="2">0</pdfrwt>
<totfact> 0.36318076E-04</totfact>
</mgrwt>
<clustering>
<clus scale="   44.155">  1  6  2 -1</clus>
<clus scale="  456.608">  4  5 -1 -1</clus>
<clus scale="  300.000">  1  4  2 -1</clus>
</clustering>
</event>
<event>
 6    1  0.1033679E-011  0.3000000E+03  0.7818608E-02  0.1093470E+00
          1   -1    0    0  502    0  0.00000000000E+00  0.00000000000E+00  0.25067536088E+03  0.25067536088E+03  0.00000000000E+00 0.  1.
         13   -1    0    0    0    0 -0.00000000000E+00 -0.00000000000E+00 -0.27500000000E+03  0.27500000000E+03  0.00000000000E+00 0.  1.
    9000005    2    1    2  501    0  0.35097035408E+02  0.75215462206E+01 -0.30364788509E+02  0.48927674886E+03  0.48701267031E+03 0.  0.
         13    1    3    3    0    0  0.17609833387E+03  0.10364194211E+03 -0.17232745501E+03  0.26729950824E+03  0.00000000000E+00 0.  1.
          3    1    3    3  501    0 -0.14100129846E+03 -0.96120395892E+02  0.14196266650E+03  0.22197724062E+03  0.00000000000E+00 0.  1.
         21    1    1    2  502  501 -0.35097035408E+02 -0.75215462206E+01  0.60401493872E+01  0.36398612015E+02  0.00000000000E+00 0.  1.
<scales pt_clust_4="550.00000" pt_clust_5="550.00000" pt_clust_6="35.89395"></scales>
<mgrwt>
<rscale>  0 0.30000000E+03</rscale>
<asrwt>  1 0.35893949E+02</asrwt>
<pdfrwt beam="1">  1        1 0.91154677E+00 0.30000000E+03</pdfrwt>
<pdfrwt beam="2">0</pdfrwt>
<totfact> 0.65495916E-05</totfact>
</mgrwt>
<clustering>
<clus scale="   35.894">  1  6  2 -1</clus>
<clus scale="  487.013">  4  5 -1 -1</clus>
<clus scale="  300.000">  1  4  2 -1</clus>
</clustering>
</event>
<event>
 6    1  0.1033679E-011  0.3000000E+03  0.7818608E-02  0.1093470E+00
          1   -1    0    0  502    0  0.00000000000E+00  0.00000000000E+00  0.23251453537E+03  0.23251453537E+03  0.00000000000E+00 0.  1.
         13   -1    0    0    0    0 -0.00000000000E+00 -0.00000000000E+00 -0.27500000000E+03  0.27500000000E+03  0.00000000000E+00 0.  1.
    9000005    2    1    2  501    0  0.37700641491E+02 -0.73100638278E+01 -0.49676181204E+02  0.46844431901E+03  0.46421717076E+03 0.  0.
         13    1    3    3    0    0 -0.14306507156E+03 -0.15521865757E+03 -0.93378673698E+02  0.23082465869E+03  0.00000000000E+00 0.  1.
          1    1    3    3  501    0  0.18076571305E+03  0.14790859374E+03  0.43702492494E+02  0.23761966031E+03  0.00000000000E+00 0.  1.
         21    1    1    2  502  501 -0.37700641491E+02  0.73100638278E+01  0.71907165752E+01  0.39070216366E+02  0.00000000000E+00 0. -1.
<scales pt_clust_4="550.00000" pt_clust_5="550.00000" pt_clust_6="38.40280"></scales>
<mgrwt>
<rscale>  0 0.30000000E+03</rscale>
<asrwt>  1 0.38402805E+02</asrwt>
<pdfrwt beam="1">  1        1 0.84550740E+00 0.30000000E+03</pdfrwt>
<pdfrwt beam="2">0</pdfrwt>
<totfact> 0.43958561E-04</totfact>
</mgrwt>
<clustering>
<clus scale="   38.403">  1  6  2 -1</clus>
<clus scale="  464.217">  4  5 -1 -1</clus>
<clus scale="  300.000">  1  4  2 -1</clus>
</clustering>
</event>
<event>
 6    1  0.1033679E-011  0.3000000E+03  0.7818608E-02  0.1093470E+00
          1   -1    0    0  502    0  0.00000000000E+00  0.00000000000E+00  0.23062271653E+03  0.23062271653E+03  0.00000000000E+00 0.  1.
         13   -1    0    0    0    0 -0.00000000000E+00 -0.00000000000E+00 -0.27500000000E+03  0.27500000000E+03  0.00000000000E+00 0.  1.
    9000005    2    1    2  501    0  0.35249698772E+02  0.16394744855E+02 -0.62891318362E+02  0.46256347350E+03  0.45661616284E+03 0.  0.
         13    1    3    3    0    0  0.10627992234E+03  0.26022257103E+02 -0.24420350144E+03  0.26759658046E+03  0.00000000000E+00 0.  1.
          3    1    3    3  501    0 -0.71030223567E+02 -0.96275122479E+01  0.18131218308E+03  0.19496689305E+03  0.00000000000E+00 0.  1.
         21    1    1    2  502  501 -0.35249698772E+02 -0.16394744855E+02  0.18514034896E+02  0.43059243033E+02  0.00000000000E+00 0. -1.
<scales pt_clust_4="550.00000" pt_clust_5="550.00000" pt_clust_6="38.87581"></scales>
<mgrwt>
<rscale>  0 0.30000000E+03</rscale>
<asrwt>  1 0.38875814E+02</asrwt>
<pdfrwt beam="1">  1        1 0.83862806E+00 0.30000000E+03</pdfrwt>
<pdfrwt beam="2">0</pdfrwt>
<totfact> 0.49920511E-04</totfact>
</mgrwt>
<clustering>
<clus scale="   38.876">  1  6  2 -1</clus>
<clus scale="  456.616">  4  5 -1 -1</clus>
<clus scale="  300.000">  1  4  2 -1</clus>
</clustering>
</event>
<event>
 6    1  0.1033679E-011  0.3000000E+03  0.7818608E-02  0.1093470E+00
          1   -1    0    0  502    0  0.00000000000E+00  0.00000000000E+00  0.23354995319E+03  0.23354995319E+03  0.00000000000E+00 0.  1.
         13   -1    0    0    0    0 -0.00000000000E+00 -0.00000000000E+00 -0.27500000000E+03  0.27500000000E+03  0.00000000000E+00 0.  1.
    9000005    2    1    2  501    0 -0.26557125313E+02 -0.25083492639E+02 -0.57627210866E+02  0.46859794267E+03  0.46360400552E+03 0.  0.
         13    1    3    3    0    0  0.14846894936E+03  0.11356776523E+03 -0.13685628745E+03  0.23166853398E+03  0.00000000000E+00 0.  1.
          3    1    3    3  501    0 -0.17502607468E+03 -0.13865125787E+03  0.79229076583E+02  0.23692940869E+03  0.00000000000E+00 0.  1.
         21    1    1    2  502  501  0.26557125313E+02  0.25083492639E+02  0.16177164057E+02  0.39952010522E+02  0.00000000000E+00 0. -1.
<scales pt_clust_4="550.00000" pt_clust_5="550.00000" pt_clust_6="36.53030"></scales>
<mgrwt>
<rscale>  0 0.30000000E+03</rscale>
<asrwt>  1 0.36530296E+02</asrwt>
<pdfrwt beam="1">  1        1 0.84927256E+00 0.30000000E+03</pdfrwt>
<pdfrwt beam="2">0</pdfrwt>
<totfact> 0.41012308E-04</totfact>
</mgrwt>
<clustering>
<clus scale="   36.530">  1  6  2 -1</clus>
<clus scale="  463.604">  4  5 -1 -1</clus>
<clus scale="  300.000">  1  4  2 -1</clus>
</clustering>
</event>
<event>
 6    1  0.1033679E-011  0.3000000E+03  0.7818608E-02  0.1093470E+00
          1   -1    0    0  502    0  0.00000000000E+00  0.00000000000E+00  0.22602555722E+03  0.22602555722E+03  0.00000000000E+00 0.  1.
         13   -1    0    0    0    0 -0.00000000000E+00 -0.00000000000E+00 -0.27500000000E+03  0.27500000000E+03  0.00000000000E+00 0.  1.
    9000005    2    1    2  501    0  0.30286397898E+02 -0.57531972405E+01 -0.42042185443E+02  0.46942775085E+03  0.46652385012E+03 0.  0.
         13    1    3    3    0    0 -0.21926687953E+02  0.22395439215E+03 -0.60861050214E+02  0.23311031046E+03  0.00000000000E+00 0.  1.
          1    1    3    3  501    0  0.52213085851E+02 -0.22970758939E+03  0.18818864772E+02  0.23631744039E+03  0.00000000000E+00 0.  1.
         21    1    1    2  502  501 -0.30286397898E+02  0.57531972405E+01 -0.69322573327E+01  0.31597806378E+02  0.00000000000E+00 0.  1.
<scales pt_clust_4="550.00000" pt_clust_5="550.00000" pt_clust_6="30.82801"></scales>
<mgrwt>
<rscale>  0 0.30000000E+03</rscale>
<asrwt>  1 0.30828009E+02</asrwt>
<pdfrwt beam="1">  1        1 0.82191112E+00 0.30000000E+03</pdfrwt>
<pdfrwt beam="2">0</pdfrwt>
<totfact> 0.71284993E-04</totfact>
</mgrwt>
<clustering>
<clus scale="   30.828">  1  6  2 -1</clus>
<clus scale="  466.524">  4  5 -1 -1</clus>
<clus scale="  300.000">  1  4  2 -1</clus>
</clustering>
</event>
<event>
 6    1  0.1033679E-011  0.3000000E+03  0.7818608E-02  0.1093470E+00
          1   -1    0    0  502    0  0.00000000000E+00  0.00000000000E+00  0.21918484751E+03  0.21918484751E+03  0.00000000000E+00 0.  1.
         13   -1    0    0    0    0 -0.00000000000E+00 -0.00000000000E+00 -0.27500000000E+03  0.27500000000E+03  0.00000000000E+00 0.  1.
    9000005    2    1    2  501    0 -0.24972554434E+01 -0.29899444802E+02 -0.64298430783E+02  0.46300506087E+03  0.45753599324E+03 0.  0.
         13    1    3    3    0    0  0.18447962526E+03 -0.11966951441E+03 -0.11688901551E+03  0.24903125660E+03  0.00000000000E+00 0.  1.
          1    1    3    3  501    0 -0.18697688070E+03  0.89770069604E+02  0.52590584728E+02  0.21397380428E+03  0.00000000000E+00 0.  1.
         21    1    1    2  502  501  0.24972554434E+01  0.29899444802E+02  0.84832782937E+01  0.31179786639E+02  0.00000000000E+00 0.  1.
<scales pt_clust_4="550.00000" pt_clust_5="550.00000" pt_clust_6="30.00355"></scales>
<mgrwt>
<rscale>  0 0.30000000E+03</rscale>
<asrwt>  1 0.30003551E+02</asrwt>
<pdfrwt beam="1">  1        1 0.79703581E+00 0.30000000E+03</pdfrwt>
<pdfrwt beam="2">0</pdfrwt>
<totfact> 0.11220176E-03</totfact>
</mgrwt>
<clustering>
<clus scale="   30.004">  1  6  2 -1</clus>
<clus scale="  457.536">  4  5 -1 -1</clus>
<clus scale="  300.000">  1  4  2 -1</clus>
</clustering>
</event>
<event>
 6    1  0.1033679E-011  0.3000000E+03  0.7818608E-02  0.1093470E+00
          1   -1    0    0  502    0  0.00000000000E+00  0.00000000000E+00  0.22337041185E+03  0.22337041185E+03  0.00000000000E+00 0.  1.
         13   -1    0    0    0    0 -0.00000000000E+00 -0.00000000000E+00 -0.27500000000E+03  0.27500000000E+03  0.00000000000E+00 0.  1.
    9000005    2    1    2  501    0 -0.23289209652E+02 -0.22277726228E+02 -0.47619258436E+02  0.46589323345E+03  0.46233129554E+03 0.  0.
         13    1    3    3    0    0 -0.58159820111E+02 -0.23791161649E+03 -0.20321629943E+02  0.24575896846E+03  0.00000000000E+00 0.  1.
          1    1    3    3  501    0  0.34870610459E+02  0.21563389026E+03 -0.27297628493E+02  0.22013426499E+03  0.00000000000E+00 0.  1.
         21    1    1    2  502  501  0.23289209652E+02  0.22277726228E+02 -0.40103297140E+01  0.32477178395E+02  0.00000000000E+00 0.  1.
<scales pt_clust_4="550.00000" pt_clust_5="550.00000" pt_clust_6="32.22864"></scales>
<mgrwt>
<rscale>  0 0.30000000E+03</rscale>
<asrwt>  1 0.32228643E+02</asrwt>
<pdfrwt beam="1">  1        1 0.81225604E+00 0.30000000E+03</pdfrwt>
<pdfrwt beam="2">0</pdfrwt>
<totfact> 0.85040203E-04</totfact>
</mgrwt>
<clustering>
<clus scale="   32.229">  1  6  2 -1</clus>
<clus scale="  462.331">  4  5 -1 -1</clus>
<clus scale="  300.000">  1  4  2 -1</clus>
</clustering>
</event>
<event>
 6    1  0.1033679E-011  0.3000000E+03  0.7818608E-02  0.1093470E+00
          1   -1    0    0  502    0  0.00000000000E+00  0.00000000000E+00  0.24228997509E+03  0.24228997509E+03  0.00000000000E+00 0.  1.
         13   -1    0    0    0    0 -0.00000000000E+00 -0.00000000000E+00 -0.27500000000E+03  0.27500000000E+03  0.00000000000E+00 0.  1.
    9000005    2    1    2  501    0  0.31331274831E+02 -0.24661345857E+02 -0.47924122197E+02  0.47461328920E+03  0.47050103298E+03 0.  0.
         13    1    3    3    0    0  0.10537596312E+03  0.20520864107E+03 -0.22532579967E+02  0.23178092487E+03  0.00000000000E+00 0.  1.
          3    1    3    3  501    0 -0.74044688290E+02 -0.22986998692E+03 -0.25391542230E+02  0.24283236434E+03  0.00000000000E+00 0.  1.
         21    1    1    2  502  501 -0.31331274831E+02  0.24661345857E+02  0.15214097284E+02  0.42676685886E+02  0.00000000000E+00 0.  1.
<scales pt_clust_4="550.00000" pt_clust_5="550.00000" pt_clust_6="39.87268"></scales>
<mgrwt>
<rscale>  0 0.30000000E+03</rscale>
<asrwt>  1 0.39872682E+02</asrwt>
<pdfrwt beam="1">  1        1 0.88105445E+00 0.30000000E+03</pdfrwt>
<pdfrwt beam="2">0</pdfrwt>
<totfact> 0.18690927E-04</totfact>
</mgrwt>
<clustering>
<clus scale="   39.873">  1  6  2 -1</clus>
<clus scale="  470.501">  4  5 -1 -1</clus>
<clus scale="  300.000">  1  4  2 -1</clus>
</clustering>
</event>
<event>
 6    1  0.1033679E-011  0.3000000E+03  0.7818608E-02  0.1093470E+00
          1   -1    0    0  502    0  0.00000000000E+00  0.00000000000E+00  0.23885450317E+03  0.23885450317E+03  0.00000000000E+00 0.  1.
         13   -1    0    0    0    0 -0.00000000000E+00 -0.00000000000E+00 -0.27500000000E+03  0.27500000000E+03  0.00000000000E+00 0.  1.
    9000005    2    1    2  501    0  0.42239643457E+02 -0.42204299764E+01 -0.42691897939E+02  0.47090272933E+03  0.46703830981E+03 0.  0.
         13    1    3    3    0    0 -0.17866245748E+03 -0.11317541073E+03  0.31121672921E+02  0.21376974958E+03  0.00000000000E+00 0.  1.
          1    1    3    3  501    0  0.22090210094E+03  0.10895498076E+03 -0.73813570860E+02  0.25713297975E+03  0.00000000000E+00 0.  1.
         21    1    1    2  502  501 -0.42239643457E+02  0.42204299764E+01  0.65464011068E+01  0.42951773840E+02  0.00000000000E+00 0. -1.
<scales pt_clust_4="550.00000" pt_clust_5="550.00000" pt_clust_6="42.44996"></scales>
<mgrwt>
<rscale>  0 0.30000000E+03</rscale>
<asrwt>  1 0.42449965E+02</asrwt>
<pdfrwt beam="1">  1        1 0.86856183E+00 0.30000000E+03</pdfrwt>
<pdfrwt beam="2">0</pdfrwt>
<totfact> 0.25288621E-04</totfact>
</mgrwt>
<clustering>
<clus scale="   42.450">  1  6  2 -1</clus>
<clus scale="  467.038">  4  5 -1 -1</clus>
<clus scale="  300.000">  1  4  2 -1</clus>
</clustering>
</event>
<event>
 6    1  0.1033679E-011  0.3000000E+03  0.7818608E-02  0.1093470E+00
          1   -1    0    0  502    0  0.00000000000E+00  0.00000000000E+00  0.23503102670E+03  0.23503102670E+03  0.00000000000E+00 0.  1.
         13   -1    0    0    0    0 -0.00000000000E+00 -0.00000000000E+00 -0.27500000000E+03  0.27500000000E+03  0.00000000000E+00 0.  1.
    9000005    2    1    2  501    0  0.15652665003E+01 -0.34972878229E+02 -0.54351998445E+02  0.47218365317E+03  0.46773679598E+03 0.  0.
         13    1    3    3    0    0 -0.25388867199E+02 -0.19687320922E+03  0.12062253213E+03  0.23227882027E+03  0.00000000000E+00 0.  1.
          1    1    3    3  501    0  0.26954133700E+02  0.16190033099E+03 -0.17497453058E+03  0.23990483290E+03  0.00000000000E+00 0.  1.
         21    1    1    2  502  501 -0.15652665003E+01  0.34972878229E+02  0.14383025142E+02  0.37847373530E+02  0.00000000000E+00 0. -1.
<scales pt_clust_4="550.00000" pt_clust_5="550.00000" pt_clust_6="35.00789"></scales>
<mgrwt>
<rscale>  0 0.30000000E+03</rscale>
<asrwt>  1 0.35007889E+02</asrwt>
<pdfrwt beam="1">  1        1 0.85465828E+00 0.30000000E+03</pdfrwt>
<pdfrwt beam="2">0</pdfrwt>
<totfact> 0.36716515E-04</totfact>
</mgrwt>
<clustering>
<clus scale="   35.008">  1  6  2 -1</clus>
<clus scale="  467.737">  4  5 -1 -1</clus>
<clus scale="  300.000">  1  4  2 -1</clus>
</clustering>
</event>
<event>
 6    1  0.1033679E-011  0.3000000E+03  0.7818608E-02  0.1093470E+00
          1   -1    0    0  502    0  0.00000000000E+00  0.00000000000E+00  0.23352083108E+03  0.23352083108E+03  0.00000000000E+00 0.  1.
         13   -1    0    0    0    0 -0.00000000000E+00 -0.00000000000E+00 -0.27500000000E+03  0.27500000000E+03  0.00000000000E+00 0.  1.
    9000005    2    1    2  501    0 -0.30287632305E+02 -0.10201546064E+02 -0.49575065401E+02  0.47555181908E+03  0.47187968096E+03 0.  0.
         13    1    3    3    0    0  0.13227739460E+03  0.12093114168E+03  0.11212743919E+03  0.21141005835E+03  0.00000000000E+00 0.  1.
          3    1    3    3  501    0 -0.16256502691E+03 -0.13113268774E+03 -0.16170250460E+03  0.26414176073E+03  0.00000000000E+00 0.  1.
         21    1    1    2  502  501  0.30287632305E+02  0.10201546064E+02  0.80958964837E+01  0.32969012006E+02  0.00000000000E+00 0. -1.
<scales pt_clust_4="550.00000" pt_clust_5="550.00000" pt_clust_6="31.95954"></scales>
<mgrwt>
<rscale>  0 0.30000000E+03</rscale>
<asrwt>  1 0.31959540E+02</asrwt>
<pdfrwt beam="1">  1        1 0.84916666E+00 0.30000000E+03</pdfrwt>
<pdfrwt beam="2">0</pdfrwt>
<totfact> 0.42150763E-04</totfact>
</mgrwt>
<clustering>
<clus scale="   31.960">  1  6  2 -1</clus>
<clus scale="  471.880">  4  5 -1 -1</clus>
<clus scale="  300.000">  1  4  2 -1</clus>
</clustering>
</event>
<event>
 6    1  0.1033679E-011  0.3000000E+03  0.7818608E-02  0.1093470E+00
          1   -1    0    0  502    0  0.00000000000E+00  0.00000000000E+00  0.23782443121E+03  0.23782443121E+03  0.00000000000E+00 0.  1.
         13   -1    0    0    0    0 -0.00000000000E+00 -0.00000000000E+00 -0.27500000000E+03  0.27500000000E+03  0.00000000000E+00 0.  1.
    9000005    2    1    2  501    0 -0.38464069627E+02  0.11572350619E+02 -0.53899876256E+02  0.46931458851E+03  0.46447559934E+03 0.  0.
         13    1    3    3    0    0  0.77595653677E+02 -0.11797580689E+03  0.14682983111E+03  0.20371150136E+03  0.00000000000E+00 0.  1.
          3    1    3    3  501    0 -0.11605972330E+03  0.12954815751E+03 -0.20072970737E+03  0.26560308716E+03  0.00000000000E+00 0.  1.
         21    1    1    2  502  501  0.38464069627E+02 -0.11572350619E+02  0.16724307464E+02  0.43509842694E+02  0.00000000000E+00 0.  1.
<scales pt_clust_4="550.00000" pt_clust_5="550.00000" pt_clust_6="40.16720"></scales>
<mgrwt>
<rscale>  0 0.30000000E+03</rscale>
<asrwt>  1 0.40167200E+02</asrwt>
<pdfrwt beam="1">  1        1 0.86481611E+00 0.30000000E+03</pdfrwt>
<pdfrwt beam="2">0</pdfrwt>
<totfact> 0.27979994E-04</totfact>
</mgrwt>
<clustering>
<clus scale="   40.167">  1  6  2 -1</clus>
<clus scale="  464.476">  4  5 -1 -1</clus>
<clus scale="  300.000">  1  4  2 -1</clus>
</clustering>
</event>
<event>
 6    1  0.1033679E-011  0.3000000E+03  0.7818608E-02  0.1093470E+00
          1   -1    0    0  502    0  0.00000000000E+00  0.00000000000E+00  0.23468719835E+03  0.23468719835E+03  0.00000000000E+00 0.  1.
         13   -1    0    0    0    0 -0.00000000000E+00 -0.00000000000E+00 -0.27500000000E+03  0.27500000000E+03  0.00000000000E+00 0.  1.
    9000005    2    1    2  501    0  0.14914663429E+02  0.26273080427E+02 -0.44068915911E+02  0.47924331005E+03  0.47625556054E+03 0.  0.
         13    1    3    3    0    0  0.57838735487E+02  0.24577153336E+03 -0.39379365464E+02  0.25553806049E+03  0.00000000000E+00 0.  1.
          1    1    3    3  501    0 -0.42924072057E+02 -0.21949845293E+03 -0.46895504477E+01  0.22370524957E+03  0.00000000000E+00 0.  1.
         21    1    1    2  502  501 -0.14914663429E+02 -0.26273080427E+02  0.37561142641E+01  0.30443888298E+02  0.00000000000E+00 0.  1.
<scales pt_clust_4="550.00000" pt_clust_5="550.00000" pt_clust_6="30.21129"></scales>
<mgrwt>
<rscale>  0 0.30000000E+03</rscale>
<asrwt>  1 0.30211288E+02</asrwt>
<pdfrwt beam="1">  1        1 0.85340799E+00 0.30000000E+03</pdfrwt>
<pdfrwt beam="2">0</pdfrwt>
<totfact> 0.38830801E-04</totfact>
</mgrwt>
<clustering>
<clus scale="   30.211">  1  6  2 -1</clus>
<clus scale="  476.256">  4  5 -1 -1</clus>
<clus scale="  300.000">  1  4  2 -1</clus>
</clustering>
</event>
<event>
 6    1  0.1033679E-011  0.3000000E+03  0.7818608E-02  0.1093470E+00
          1   -1    0    0  502    0  0.00000000000E+00  0.00000000000E+00  0.23928140422E+03  0.23928140422E+03  0.00000000000E+00 0.  1.
         13   -1    0    0    0    0 -0.00000000000E+00 -0.00000000000E+00 -0.27500000000E+03  0.27500000000E+03  0.00000000000E+00 0.  1.
    9000005    2    1    2  501    0 -0.19143433685E+02  0.25264576766E+02 -0.24182561693E+02  0.48054937234E+03  0.47889261121E+03 0.  0.
         13    1    3    3    0    0  0.11006415097E+03  0.18318238449E+03 -0.13057226268E+03  0.25043765511E+03  0.00000000000E+00 0.  1.
          1    1    3    3  501    0 -0.12920758465E+03 -0.15791780773E+03  0.10638970099E+03  0.23011171723E+03  0.00000000000E+00 0.  1.
         21    1    1    2  502  501  0.19143433685E+02 -0.25264576766E+02 -0.11536034086E+02  0.33732031881E+02  0.00000000000E+00 0.  1.
<scales pt_clust_4="550.00000" pt_clust_5="550.00000" pt_clust_6="31.69812"></scales>
<mgrwt>
<rscale>  0 0.30000000E+03</rscale>
<asrwt>  1 0.31698121E+02</asrwt>
<pdfrwt beam="1">  1        1 0.87011420E+00 0.30000000E+03</pdfrwt>
<pdfrwt beam="2">0</pdfrwt>
<totfact> 0.25733968E-04</totfact>
</mgrwt>
<clustering>
<clus scale="   31.698">  1  6  2 -1</clus>
<clus scale="  478.893">  4  5 -1 -1</clus>
<clus scale="  300.000">  1  4  2 -1</clus>
</clustering>
</event>
<event>
 6    1  0.1033679E-011  0.3000000E+03  0.7818608E-02  0.1093470E+00
          1   -1    0    0  502    0  0.00000000000E+00  0.00000000000E+00  0.24106750527E+03  0.24106750527E+03  0.00000000000E+00 0.  1.
         13   -1    0    0    0    0 -0.00000000000E+00 -0.00000000000E+00 -0.27500000000E+03  0.27500000000E+03  0.00000000000E+00 0.  1.
    9000005    2    1    2  501    0  0.32384245459E+02 -0.11840835164E+02 -0.62805394070E+02  0.47109430161E+03  0.46561398041E+03 0.  0.
         13    1    3    3    0    0  0.15433081324E+03 -0.33358596784E+01 -0.22199109593E+03  0.27038708281E+03  0.00000000000E+00 0.  1.
          3    1    3    3  501    0 -0.12194656779E+03 -0.85049754854E+01  0.15918570186E+03  0.20070721880E+03  0.00000000000E+00 0.  1.
         21    1    1    2  502  501 -0.32384245459E+02  0.11840835164E+02  0.28872899338E+02  0.44973203661E+02  0.00000000000E+00 0. -1.
<scales pt_clust_4="550.00000" pt_clust_5="550.00000" pt_clust_6="34.48108"></scales>
<mgrwt>
<rscale>  0 0.30000000E+03</rscale>
<asrwt>  1 0.34481078E+02</asrwt>
<pdfrwt beam="1">  1        1 0.87660911E+00 0.30000000E+03</pdfrwt>
<pdfrwt beam="2">0</pdfrwt>
<totfact> 0.21673503E-04</totfact>
</mgrwt>
<clustering>
<clus scale="   34.481">  1  6  2 -1</clus>
<clus scale="  465.614">  4  5 -1 -1</clus>
<clus scale="  300.000">  1  4  2 -1</clus>
</clustering>
</event>
<event>
 6    1  0.1033679E-011  0.3000000E+03  0.7818608E-02  0.1093470E+00
          1   -1    0    0  502    0  0.00000000000E+00  0.00000000000E+00  0.22820204814E+03  0.22820204814E+03  0.00000000000E+00 0.  1.
         13   -1    0    0    0    0 -0.00000000000E+00 -0.00000000000E+00 -0.27500000000E+03  0.27500000000E+03  0.00000000000E+00 0.  1.
    9000005    2    1    2  501    0 -0.23137042561E+01 -0.34563311559E+02 -0.55113823590E+02  0.46757720490E+03  0.46302368542E+03 0.  0.
         13    1    3    3    0    0 -0.20859920637E+02  0.19233628653E+02 -0.25662338219E+03  0.25818719768E+03  0.00000000000E+00 0.  1.
          1    1    3    3  501    0  0.18546216381E+02 -0.53796940212E+02  0.20150955860E+03  0.20939000722E+03  0.00000000000E+00 0.  1.
         21    1    1    2  502  501  0.23137042561E+01  0.34563311559E+02  0.83158717298E+01  0.35624843241E+02  0.00000000000E+00 0.  1.
<scales pt_clust_4="550.00000" pt_clust_5="550.00000" pt_clust_6="34.64067"></scales>
<mgrwt>
<rscale>  0 0.30000000E+03</rscale>
<asrwt>  1 0.34640666E+02</asrwt>
<pdfrwt beam="1">  1        1 0.82982563E+00 0.30000000E+03</pdfrwt>
<pdfrwt beam="2">0</pdfrwt>
<totfact> 0.59412495E-04</totfact>
</mgrwt>
<clustering>
<clus scale="   34.641">  1  6  2 -1</clus>
<clus scale="  463.024">  4  5 -1 -1</clus>
<clus scale="  300.000">  1  4  2 -1</clus>
</clustering>
</event>
<event>
 6    1  0.1033679E-011  0.3000000E+03  0.7818608E-02  0.1093470E+00
          1   -1    0    0  502    0  0.00000000000E+00  0.00000000000E+00  0.21751806852E+03  0.21751806852E+03  0.00000000000E+00 0.  1.
         13   -1    0    0    0    0 -0.00000000000E+00 -0.00000000000E+00 -0.27500000000E+03  0.27500000000E+03  0.00000000000E+00 0.  1.
    9000005    2    1    2  501    0  0.16481012535E+02 -0.25312510227E+02 -0.63067135231E+02  0.46180094872E+03  0.45647596403E+03 0.  0.
         13    1    3    3    0    0 -0.23668968081E+02 -0.18770363840E+03  0.11184191639E+03  0.21977600001E+03  0.00000000000E+00 0.  1.
          3    1    3    3  501    0  0.40149980616E+02  0.16239112818E+03 -0.17490905162E+03  0.24202494870E+03  0.00000000000E+00 0.  1.
         21    1    1    2  502  501 -0.16481012535E+02  0.25312510227E+02  0.55852037519E+01  0.30717119805E+02  0.00000000000E+00 0. -1.
<scales pt_clust_4="550.00000" pt_clust_5="550.00000" pt_clust_6="30.20508"></scales>
<mgrwt>
<rscale>  0 0.30000000E+03</rscale>
<asrwt>  1 0.30205081E+02</asrwt>
<pdfrwt beam="1">  1        1 0.79097479E+00 0.30000000E+03</pdfrwt>
<pdfrwt beam="2">0</pdfrwt>
<totfact> 0.12458031E-03</totfact>
</mgrwt>
<clustering>
<clus scale="   30.205">  1  6  2 -1</clus>
<clus scale="  456.476">  4  5 -1 -1</clus>
<clus scale="  300.000">  1  4  2 -1</clus>
</clustering>
</event>
<event>
 6    1  0.1033679E-011  0.3000000E+03  0.7818608E-02  0.1093470E+00
          1   -1    0    0  502    0  0.00000000000E+00  0.00000000000E+00  0.21945170932E+03  0.21945170932E+03  0.00000000000E+00 0.  1.
         13   -1    0    0    0    0 -0.00000000000E+00 -0.00000000000E+00 -0.27500000000E+03  0.27500000000E+03  0.00000000000E+00 0.  1.
    9000005    2    1    2  501    0 -0.17732238074E+02 -0.25139803802E+02 -0.46323948997E+02  0.46233426108E+03  0.45897779763E+03 0.  0.
         13    1    3    3    0    0 -0.12138344354E+03  0.47619329055E+02 -0.21497645842E+03  0.25142875441E+03  0.00000000000E+00 0.  1.
          3    1    3    3  501    0  0.10365120547E+03 -0.72759132858E+02  0.16865250943E+03  0.21090550667E+03  0.00000000000E+00 0.  1.
         21    1    1    2  502  501  0.17732238074E+02  0.25139803802E+02 -0.92243416800E+01  0.32117448245E+02  0.00000000000E+00 0. -1.
<scales pt_clust_4="550.00000" pt_clust_5="550.00000" pt_clust_6="30.76431"></scales>
<mgrwt>
<rscale>  0 0.30000000E+03</rscale>
<asrwt>  1 0.30764313E+02</asrwt>
<pdfrwt beam="1">  1        1 0.79800622E+00 0.30000000E+03</pdfrwt>
<pdfrwt beam="2">0</pdfrwt>
<totfact> 0.10985877E-03</totfact>
</mgrwt>
<clustering>
<clus scale="   30.764">  1  6  2 -1</clus>
<clus scale="  458.978">  4  5 -1 -1</clus>
<clus scale="  300.000">  1  4  2 -1</clus>
</clustering>
</event>
<event>
 6    1  0.1033679E-011  0.3000000E+03  0.7818608E-02  0.1093470E+00
          1   -1    0    0  502    0  0.00000000000E+00  0.00000000000E+00  0.22169990037E+03  0.22169990037E+03  0.00000000000E+00 0.  1.
         13   -1    0    0    0    0 -0.00000000000E+00 -0.00000000000E+00 -0.27500000000E+03  0.27500000000E+03  0.00000000000E+00 0.  1.
    9000005    2    1    2  501    0 -0.13202839499E+02 -0.29452145507E+02 -0.60865555711E+02  0.46354903354E+03  0.45840085818E+03 0.  0.
         13    1    3    3    0    0 -0.22670990575E+03 -0.26881683329E+02 -0.95073975404E+02  0.24730359291E+03  0.00000000000E+00 0.  1.
          3    1    3    3  501    0  0.21350706625E+03 -0.25704621777E+01  0.34208419693E+02  0.21624544063E+03  0.00000000000E+00 0.  1.
         21    1    1    2  502  501  0.13202839499E+02  0.29452145507E+02  0.75654560783E+01  0.33150866828E+02  0.00000000000E+00 0. -1.
<scales pt_clust_4="550.00000" pt_clust_5="550.00000" pt_clust_6="32.27606"></scales>
<mgrwt>
<rscale>  0 0.30000000E+03</rscale>
<asrwt>  1 0.32276057E+02</asrwt>
<pdfrwt beam="1">  1        1 0.80618146E+00 0.30000000E+03</pdfrwt>
<pdfrwt beam="2">0</pdfrwt>
<totfact> 0.94775037E-04</totfact>
</mgrwt>
<clustering>
<clus scale="   32.276">  1  6  2 -1</clus>
<clus scale="  458.401">  4  5 -1 -1</clus>
<clus scale="  300.000">  1  4  2 -1</clus>
</clustering>
</event>
<event>
 6    1  0.1033679E-011  0.3000000E+03  0.7818608E-02  0.1093470E+00
          1   -1    0    0  502    0  0.00000000000E+00  0.00000000000E+00  0.24184702094E+03  0.24184702094E+03  0.00000000000E+00 0.  1.
         13   -1    0    0    0    0 -0.00000000000E+00 -0.00000000000E+00 -0.27500000000E+03  0.27500000000E+03  0.00000000000E+00 0.  1.
    9000005    2    1    2  501    0 -0.26652839486E+02 -0.30080652170E+02 -0.65146107865E+02  0.46547796626E+03  0.45914104828E+03 0.  0.
         13    1    3    3    0    0 -0.91996415373E+02  0.13031017858E+03  0.12911840896E+03  0.20522097021E+03  0.00000000000E+00 0.  1.
          3    1    3    3  501    0  0.65343575887E+02 -0.16039083075E+03 -0.19426451682E+03  0.26025699605E+03  0.00000000000E+00 0.  1.
         21    1    1    2  502  501  0.26652839486E+02  0.30080652170E+02  0.31993128807E+02  0.51369054678E+02  0.00000000000E+00 0. -1.
<scales pt_clust_4="550.00000" pt_clust_5="550.00000" pt_clust_6="40.18979"></scales>
<mgrwt>
<rscale>  0 0.30000000E+03</rscale>
<asrwt>  1 0.40189793E+02</asrwt>
<pdfrwt beam="1">  1        1 0.87944371E+00 0.30000000E+03</pdfrwt>
<pdfrwt beam="2">0</pdfrwt>
<totfact> 0.19543412E-04</totfact>
</mgrwt>
<clustering>
<clus scale="   40.190">  1  6  2 -1</clus>
<clus scale="  459.141">  4  5 -1 -1</clus>
<clus scale="  300.000">  1  4  2 -1</clus>
</clustering>
</event>
<event>
 6    1  0.1033679E-011  0.3000000E+03  0.7818608E-02  0.1093470E+00
          1   -1    0    0  502    0  0.00000000000E+00  0.00000000000E+00  0.22691276561E+03  0.22691276561E+03  0.00000000000E+00 0.  1.
         13   -1    0    0    0    0 -0.00000000000E+00 -0.00000000000E+00 -0.27500000000E+03  0.27500000000E+03  0.00000000000E+00 0.  1.
    9000005    2    1    2  501    0 -0.11997727812E+02  0.32547648654E+02 -0.62733669250E+02  0.46425890844E+03  0.45869110075E+03 0.  0.
         13    1    3    3    0    0  0.19457549982E+03  0.73419372288E+02 -0.12750875043E+03  0.24394366315E+03  0.00000000000E+00 0.  1.
          1    1    3    3  501    0 -0.20657322763E+03 -0.40871723634E+02  0.64775081176E+02  0.22031524529E+03  0.00000000000E+00 0.  1.
         21    1    1    2  502  501  0.11997727812E+02 -0.32547648654E+02  0.14646434860E+02  0.37653857169E+02  0.00000000000E+00 0. -1.
<scales pt_clust_4="550.00000" pt_clust_5="550.00000" pt_clust_6="34.68854"></scales>
<mgrwt>
<rscale>  0 0.30000000E+03</rscale>
<asrwt>  1 0.34688541E+02</asrwt>
<pdfrwt beam="1">  1        1 0.82513733E+00 0.30000000E+03</pdfrwt>
<pdfrwt beam="2">0</pdfrwt>
<totfact> 0.65242270E-04</totfact>
</mgrwt>
<clustering>
<clus scale="   34.689">  1  6  2 -1</clus>
<clus scale="  458.691">  4  5 -1 -1</clus>
<clus scale="  300.000">  1  4  2 -1</clus>
</clustering>
</event>
<event>
 6    1  0.1033679E-011  0.3000000E+03  0.7818608E-02  0.1093470E+00
          1   -1    0    0  502    0  0.00000000000E+00  0.00000000000E+00  0.24685419467E+03  0.24685419467E+03  0.00000000000E+00 0.  1.
         13   -1    0    0    0    0 -0.00000000000E+00 -0.00000000000E+00 -0.27500000000E+03  0.27500000000E+03  0.00000000000E+00 0.  1.
    9000005    2    1    2  501    0 -0.54067776608E+02 -0.43559204401E+01 -0.36993465819E+02  0.46689439476E+03  0.46225486567E+03 0.  0.
         13    1    3    3    0    0 -0.70667726639E+02  0.16694801644E+03 -0.17065982597E+03  0.24897860146E+03  0.00000000000E+00 0.  1.
          1    1    3    3  501    0  0.16599950031E+02 -0.17130393688E+03  0.13366636015E+03  0.21791579330E+03  0.00000000000E+00 0.  1.
         21    1    1    2  502  501  0.54067776608E+02  0.43559204401E+01  0.88476604879E+01  0.54959799912E+02  0.00000000000E+00 0.  1.
<scales pt_clust_4="550.00000" pt_clust_5="550.00000" pt_clust_6="54.24296"></scales>
<mgrwt>
<rscale>  0 0.30000000E+03</rscale>
<asrwt>  1 0.54242958E+02</asrwt>
<pdfrwt beam="1">  1        1 0.89765162E+00 0.30000000E+03</pdfrwt>
<pdfrwt beam="2">0</pdfrwt>
<totfact> 0.10884174E-04</totfact>
</mgrwt>
<clustering>
<clus scale="   54.243">  1  6  2 -1</clus>
<clus scale="  462.255">  4  5 -1 -1</clus>
<clus scale="  300.000">  1  4  2 -1</clus>
</clustering>
</event>
<event>
 6    1  0.1033679E-011  0.3000000E+03  0.7818608E-02  0.1093470E+00
          1   -1    0    0  502    0  0.00000000000E+00  0.00000000000E+00  0.22469747355E+03  0.22469747355E+03  0.00000000000E+00 0.  1.
         13   -1    0    0    0    0 -0.00000000000E+00 -0.00000000000E+00 -0.27500000000E+03  0.27500000000E+03  0.00000000000E+00 0.  1.
    9000005    2    1    2  501    0 -0.28951016439E+02  0.10875637694E+02 -0.62839051572E+02  0.46632674820E+03  0.46103736165E+03 0.  0.
         13    1    3    3    0    0 -0.19325725428E+03  0.14055164304E+03 -0.89809960088E+02  0.25528211771E+03  0.00000000000E+00 0.  1.
          3    1    3    3  501    0  0.16430623784E+03 -0.12967600534E+03  0.26970908516E+02  0.21104463049E+03  0.00000000000E+00 0.  1.
         21    1    1    2  502  501  0.28951016439E+02 -0.10875637694E+02  0.12536525121E+02  0.33370725348E+02  0.00000000000E+00 0.  1.
<scales pt_clust_4="550.00000" pt_clust_5="550.00000" pt_clust_6="30.92638"></scales>
<mgrwt>
<rscale>  0 0.30000000E+03</rscale>
<asrwt>  1 0.30926378E+02</asrwt>
<pdfrwt beam="1">  1        1 0.81708172E+00 0.30000000E+03</pdfrwt>
<pdfrwt beam="2">0</pdfrwt>
<totfact> 0.78364687E-04</totfact>
</mgrwt>
<clustering>
<clus scale="   30.926">  1  6  2 -1</clus>
<clus scale="  461.037">  4  5 -1 -1</clus>
<clus scale="  300.000">  1  4  2 -1</clus>
</clustering>
</event>
<event>
 6    1  0.1033679E-011  0.3000000E+03  0.7818608E-02  0.1093470E+00
          1   -1    0    0  502    0  0.00000000000E+00  0.00000000000E+00  0.24484324521E+03  0.24484324521E+03  0.00000000000E+00 0.  1.
         13   -1    0    0    0    0 -0.00000000000E+00 -0.00000000000E+00 -0.27500000000E+03  0.27500000000E+03  0.00000000000E+00 0.  1.
    9000005    2    1    2  501    0  0.26600170691E+02 -0.17190125329E+02 -0.65366029807E+02  0.47248543132E+03  0.46686903459E+03 0.  0.
         13    1    3    3    0    0  0.81081954338E+02 -0.16683742222E+03 -0.19352285840E+03  0.26806735254E+03  0.00000000000E+00 0.  1.
          1    1    3    3  501    0 -0.54481783647E+02  0.14964729689E+03  0.12815682859E+03  0.20441807878E+03  0.00000000000E+00 0.  1.
         21    1    1    2  502  501 -0.26600170691E+02  0.17190125329E+02  0.35209275017E+02  0.47357813894E+02  0.00000000000E+00 0.  1.
<scales pt_clust_4="550.00000" pt_clust_5="550.00000" pt_clust_6="31.67127"></scales>
<mgrwt>
<rscale>  0 0.30000000E+03</rscale>
<asrwt>  1 0.31671272E+02</asrwt>
<pdfrwt beam="1">  1        1 0.89033907E+00 0.30000000E+03</pdfrwt>
<pdfrwt beam="2">0</pdfrwt>
<totfact> 0.14619728E-04</totfact>
</mgrwt>
<clustering>
<clus scale="   31.671">  1  6  2 -1</clus>
<clus scale="  466.869">  4  5 -1 -1</clus>
<clus scale="  300.000">  1  4  2 -1</clus>
</clustering>
</event>
<event>
 6    1  0.1033679E-011  0.3000000E+03  0.7818608E-02  0.1093470E+00
          1   -1    0    0  502    0  0.00000000000E+00  0.00000000000E+00  0.25044399747E+03  0.25044399747E+03  0.00000000000E+00 0.  1.
         13   -1    0    0    0    0 -0.00000000000E+00 -0.00000000000E+00 -0.27500000000E+03  0.27500000000E+03  0.00000000000E+00 0.  1.
    9000005    2    1    2  501    0 -0.43701014353E+02  0.24728588189E+02 -0.46591678858E+01  0.47143320450E+03  0.46872836134E+03 0.  0.
         13    1    3    3    0    0  0.60936584059E+02  0.21869756798E+03  0.71868000148E+02  0.23813211241E+03  0.00000000000E+00 0.  1.
          1    1    3    3  501    0 -0.10463759841E+03 -0.19396897979E+03 -0.76527168033E+02  0.23330109209E+03  0.00000000000E+00 0.  1.
         21    1    1    2  502  501  0.43701014353E+02 -0.24728588189E+02 -0.19896834641E+02  0.54010792977E+02  0.00000000000E+00 0.  1.
<scales pt_clust_4="550.00000" pt_clust_5="550.00000" pt_clust_6="50.21239"></scales>
<mgrwt>
<rscale>  0 0.30000000E+03</rscale>
<asrwt>  1 0.50212391E+02</asrwt>
<pdfrwt beam="1">  1        1 0.91070545E+00 0.30000000E+03</pdfrwt>
<pdfrwt beam="2">0</pdfrwt>
<totfact> 0.64686000E-05</totfact>
</mgrwt>
<clustering>
<clus scale="   50.212">  1  6  2 -1</clus>
<clus scale="  468.728">  4  5 -1 -1</clus>
<clus scale="  300.000">  1  4  2 -1</clus>
</clustering>
</event>
<event>
 6    1  0.1033679E-011  0.3000000E+03  0.7818608E-02  0.1093470E+00
          1   -1    0    0  502    0  0.00000000000E+00  0.00000000000E+00  0.23686492270E+03  0.23686492270E+03  0.00000000000E+00 0.  1.
         13   -1    0    0    0    0 -0.00000000000E+00 -0.00000000000E+00 -0.27500000000E+03  0.27500000000E+03  0.00000000000E+00 0.  1.
    9000005    2    1    2  501    0  0.26551068587E+01  0.32082084999E+02 -0.45078195174E+02  0.47893292221E+03  0.47571881456E+03 0.  0.
         13    1    3    3    0    0 -0.34772531936E+02 -0.45478074784E+02  0.20583726766E+03  0.21365009951E+03  0.00000000000E+00 0.  1.
          3    1    3    3  501    0  0.37427638795E+02  0.77560159783E+02 -0.25091546283E+03  0.26528282270E+03  0.00000000000E+00 0.  1.
         21    1    1    2  502  501 -0.26551068587E+01 -0.32082084999E+02  0.69431178697E+01  0.32932000487E+02  0.00000000000E+00 0.  1.
<scales pt_clust_4="550.00000" pt_clust_5="550.00000" pt_clust_6="32.19177"></scales>
<mgrwt>
<rscale>  0 0.30000000E+03</rscale>
<asrwt>  1 0.32191766E+02</asrwt>
<pdfrwt beam="1">  1        1 0.86132699E+00 0.30000000E+03</pdfrwt>
<pdfrwt beam="2">0</pdfrwt>
<totfact> 0.31801071E-04</totfact>
</mgrwt>
<clustering>
<clus scale="   32.192">  1  6  2 -1</clus>
<clus scale="  475.719">  4  5 -1 -1</clus>
<clus scale="  300.000">  1  4  2 -1</clus>
</clustering>
</event>
<event>
 6    1  0.1033679E-011  0.3000000E+03  0.7818608E-02  0.1093470E+00
          1   -1    0    0  502    0  0.00000000000E+00  0.00000000000E+00  0.24022152415E+03  0.24022152415E+03  0.00000000000E+00 0.  1.
         13   -1    0    0    0    0 -0.00000000000E+00 -0.00000000000E+00 -0.27500000000E+03  0.27500000000E+03  0.00000000000E+00 0.  1.
    9000005    2    1    2  501    0  0.14497446118E+02  0.32095570498E+02 -0.38589641137E+02  0.47979799284E+03  0.47694512466E+03 0.  0.
         13    1    3    3    0    0 -0.15402914712E+03 -0.18812367089E+02  0.15417274003E+03  0.21874212462E+03  0.00000000000E+00 0.  1.
          3    1    3    3  501    0  0.16852659324E+03  0.50907937587E+02 -0.19276238116E+03  0.26105586821E+03  0.00000000000E+00 0.  1.
         21    1    1    2  502  501 -0.14497446118E+02 -0.32095570498E+02  0.38111652828E+01  0.35423531308E+02  0.00000000000E+00 0.  1.
<scales pt_clust_4="550.00000" pt_clust_5="550.00000" pt_clust_6="35.21792"></scales>
<mgrwt>
<rscale>  0 0.30000000E+03</rscale>
<asrwt>  1 0.35217916E+02</asrwt>
<pdfrwt beam="1">  1        1 0.87353282E+00 0.30000000E+03</pdfrwt>
<pdfrwt beam="2">0</pdfrwt>
<totfact> 0.23274218E-04</totfact>
</mgrwt>
<clustering>
<clus scale="   35.218">  1  6  2 -1</clus>
<clus scale="  476.945">  4  5 -1 -1</clus>
<clus scale="  300.000">  1  4  2 -1</clus>
</clustering>
</event>
<event>
 6    1  0.1033679E-011  0.3000000E+03  0.7818608E-02  0.1093470E+00
          1   -1    0    0  502    0  0.00000000000E+00  0.00000000000E+00  0.24485310893E+03  0.24485310893E+03  0.00000000000E+00 0.  1.
         13   -1    0    0    0    0 -0.00000000000E+00 -0.00000000000E+00 -0.27500000000E+03  0.27500000000E+03  0.00000000000E+00 0.  1.
    9000005    2    1    2  501    0 -0.39891433873E+02  0.63209576569E+01 -0.26964840871E+02  0.47933883434E+03  0.47687245094E+03 0.  0.
         13    1    3    3    0    0 -0.18485734607E+03 -0.30770226366E+02  0.15539315483E+03  0.24344625238E+03  0.00000000000E+00 0.  1.
          3    1    3    3  501    0  0.14496591220E+03  0.37091184023E+02 -0.18235799570E+03  0.23589258197E+03  0.00000000000E+00 0.  1.
         21    1    1    2  502  501  0.39891433873E+02 -0.63209576569E+01 -0.31820501941E+01  0.40514274590E+02  0.00000000000E+00 0. -1.
<scales pt_clust_4="550.00000" pt_clust_5="550.00000" pt_clust_6="40.38914"></scales>
<mgrwt>
<rscale>  0 0.30000000E+03</rscale>
<asrwt>  1 0.40389140E+02</asrwt>
<pdfrwt beam="1">  1        1 0.89037494E+00 0.30000000E+03</pdfrwt>
<pdfrwt beam="2">0</pdfrwt>
<totfact> 0.13957019E-04</totfact>
</mgrwt>
<clustering>
<clus scale="   40.389">  1  6  2 -1</clus>
<clus scale="  476.872">  4  5 -1 -1</clus>
<clus scale="  300.000">  1  4  2 -1</clus>
</clustering>
</event>
<event>
 6    1  0.1033679E-011  0.3000000E+03  0.7818608E-02  0.1093470E+00
          1   -1    0    0  502    0  0.00000000000E+00  0.00000000000E+00  0.23397546386E+03  0.23397546386E+03  0.00000000000E+00 0.  1.
         13   -1    0    0    0    0 -0.00000000000E+00 -0.00000000000E+00 -0.27500000000E+03  0.27500000000E+03  0.00000000000E+00 0.  1.
    9000005    2    1    2  501    0 -0.43770144973E+02  0.10767004382E+00 -0.22526659692E+02  0.46145695571E+03  0.45882375090E+03 0.  0.
         13    1    3    3    0    0 -0.21400247277E+03 -0.10850544519E+03 -0.77558112131E+02  0.25216215169E+03  0.00000000000E+00 0.  1.
          1    1    3    3  501    0  0.17023232780E+03  0.10861311524E+03  0.55031452439E+02  0.20929480401E+03  0.00000000000E+00 0.  1.
         21    1    1    2  502  501  0.43770144973E+02 -0.10767004382E+00 -0.18497876448E+02  0.47518508151E+02  0.00000000000E+00 0.  1.
<scales pt_clust_4="550.00000" pt_clust_5="550.00000" pt_clust_6="43.77030"></scales>
<mgrwt>
<rscale>  0 0.30000000E+03</rscale>
<asrwt>  1 0.43770299E+02</asrwt>
<pdfrwt beam="1">  1        1 0.85081987E+00 0.30000000E+03</pdfrwt>
<pdfrwt beam="2">0</pdfrwt>
<totfact> 0.38375927E-04</totfact>
</mgrwt>
<clustering>
<clus scale="   43.770">  1  6  2 -1</clus>
<clus scale="  458.824">  4  5 -1 -1</clus>
<clus scale="  300.000">  1  4  2 -1</clus>
</clustering>
</event>
<event>
 6    1  0.1033679E-011  0.3000000E+03  0.7818608E-02  0.1093470E+00
          1   -1    0    0  502    0  0.00000000000E+00  0.00000000000E+00  0.22852081755E+03  0.22852081755E+03  0.00000000000E+00 0.  1.
         13   -1    0    0    0    0 -0.00000000000E+00 -0.00000000000E+00 -0.27500000000E+03  0.27500000000E+03  0.00000000000E+00 0.  1.
    9000005    2    1    2  501    0  0.19561447313E+02  0.26489439499E+02 -0.34026099828E+02  0.46831542176E+03  0.46591546246E+03 0.  0.
         13    1    3    3    0    0  0.20771149532E+03 -0.60480481126E+02 -0.11593041934E+03  0.24544208281E+03  0.00000000000E+00 0.  1.
          1    1    3    3  501    0 -0.18815004801E+03  0.86969920625E+02  0.81904319512E+02  0.22287333895E+03  0.00000000000E+00 0.  1.
         21    1    1    2  502  501 -0.19561447313E+02 -0.26489439499E+02 -0.12453082623E+02  0.35205395791E+02  0.00000000000E+00 0. -1.
<scales pt_clust_4="550.00000" pt_clust_5="550.00000" pt_clust_6="32.92934"></scales>
<mgrwt>
<rscale>  0 0.30000000E+03</rscale>
<asrwt>  1 0.32929344E+02</asrwt>
<pdfrwt beam="1">  1        1 0.83098479E+00 0.30000000E+03</pdfrwt>
<pdfrwt beam="2">0</pdfrwt>
<totfact> 0.58693360E-04</totfact>
</mgrwt>
<clustering>
<clus scale="   32.929">  1  6  2 -1</clus>
<clus scale="  465.915">  4  5 -1 -1</clus>
<clus scale="  300.000">  1  4  2 -1</clus>
</clustering>
</event>
<event>
 6    1  0.1033679E-011  0.3000000E+03  0.7818608E-02  0.1093470E+00
          1   -1    0    0  502    0  0.00000000000E+00  0.00000000000E+00  0.22628142366E+03  0.22628142366E+03  0.00000000000E+00 0.  1.
         13   -1    0    0    0    0 -0.00000000000E+00 -0.00000000000E+00 -0.27500000000E+03  0.27500000000E+03  0.00000000000E+00 0.  1.
    9000005    2    1    2  501    0 -0.13749140736E+02  0.28325841702E+02 -0.64337580650E+02  0.46613394189E+03  0.46059758501E+03 0.  0.
         13    1    3    3    0    0 -0.93893215094E+02 -0.19706782237E+03  0.46753058958E+00  0.21829310809E+03  0.00000000000E+00 0.  1.
          1    1    3    3  501    0  0.80144074358E+02  0.22539366407E+03 -0.64805111240E+02  0.24784083380E+03  0.00000000000E+00 0.  1.
         21    1    1    2  502  501  0.13749140736E+02 -0.28325841702E+02  0.15619004313E+02  0.35147481771E+02  0.00000000000E+00 0.  1.
<scales pt_clust_4="550.00000" pt_clust_5="550.00000" pt_clust_6="31.48638"></scales>
<mgrwt>
<rscale>  0 0.30000000E+03</rscale>
<asrwt>  1 0.31486381E+02</asrwt>
<pdfrwt beam="1">  1        1 0.82284154E+00 0.30000000E+03</pdfrwt>
<pdfrwt beam="2">0</pdfrwt>
<totfact> 0.69659441E-04</totfact>
</mgrwt>
<clustering>
<clus scale="   31.486">  1  6  2 -1</clus>
<clus scale="  460.598">  4  5 -1 -1</clus>
<clus scale="  300.000">  1  4  2 -1</clus>
</clustering>
</event>
<event>
 6    1  0.1033679E-011  0.3000000E+03  0.7818608E-02  0.1093470E+00
          1   -1    0    0  502    0  0.00000000000E+00  0.00000000000E+00  0.24129693991E+03  0.24129693991E+03  0.00000000000E+00 0.  1.
         13   -1    0    0    0    0 -0.00000000000E+00 -0.00000000000E+00 -0.27500000000E+03  0.27500000000E+03  0.00000000000E+00 0.  1.
    9000005    2    1    2  501    0  0.52581680756E+01  0.45108651643E+02 -0.25574571811E+02  0.47016115005E+03  0.46726331924E+03 0.  0.
         13    1    3    3    0    0 -0.44588081337E+02  0.24733468251E+03  0.33801070360E+02  0.25358441302E+03  0.00000000000E+00 0.  1.
          1    1    3    3  501    0  0.49846249412E+02 -0.20222603086E+03 -0.59375642171E+02  0.21657673703E+03  0.00000000000E+00 0.  1.
         21    1    1    2  502  501 -0.52581680756E+01 -0.45108651643E+02 -0.81284882800E+01  0.46135789863E+02  0.00000000000E+00 0.  1.
<scales pt_clust_4="550.00000" pt_clust_5="550.00000" pt_clust_6="45.41410"></scales>
<mgrwt>
<rscale>  0 0.30000000E+03</rscale>
<asrwt>  1 0.45414104E+02</asrwt>
<pdfrwt beam="1">  1        1 0.87744342E+00 0.30000000E+03</pdfrwt>
<pdfrwt beam="2">0</pdfrwt>
<totfact> 0.20173256E-04</totfact>
</mgrwt>
<clustering>
<clus scale="   45.414">  1  6  2 -1</clus>
<clus scale="  467.263">  4  5 -1 -1</clus>
<clus scale="  300.000">  1  4  2 -1</clus>
</clustering>
</event>
<event>
 6    1  0.1033679E-011  0.3000000E+03  0.7818608E-02  0.1093470E+00
          1   -1    0    0  502    0  0.00000000000E+00  0.00000000000E+00  0.23442277918E+03  0.23442277918E+03  0.00000000000E+00 0.  1.
         13   -1    0    0    0    0 -0.00000000000E+00 -0.00000000000E+00 -0.27500000000E+03  0.27500000000E+03  0.00000000000E+00 0.  1.
    9000005    2    1    2  501    0  0.25770720208E+02  0.20757957284E+02 -0.25618023441E+02  0.47310748768E+03  0.47125299889E+03 0.  0.
         13    1    3    3    0    0  0.34169273180E+02 -0.17008629871E+03  0.13792837175E+03  0.22163285851E+03  0.00000000000E+00 0.  1.
          3    1    3    3  501    0 -0.83985529716E+01  0.19084425599E+03 -0.16354639519E+03  0.25147462917E+03  0.00000000000E+00 0.  1.
         21    1    1    2  502  501 -0.25770720208E+02 -0.20757957284E+02 -0.14959197379E+02  0.36315291502E+02  0.00000000000E+00 0.  1.
<scales pt_clust_4="550.00000" pt_clust_5="550.00000" pt_clust_6="33.09115"></scales>
<mgrwt>
<rscale>  0 0.30000000E+03</rscale>
<asrwt>  1 0.33091145E+02</asrwt>
<pdfrwt beam="1">  1        1 0.85244647E+00 0.30000000E+03</pdfrwt>
<pdfrwt beam="2">0</pdfrwt>
<totfact> 0.38986288E-04</totfact>
</mgrwt>
<clustering>
<clus scale="   33.091">  1  6  2 -1</clus>
<clus scale="  471.253">  4  5 -1 -1</clus>
<clus scale="  300.000">  1  4  2 -1</clus>
</clustering>
</event>
<event>
 6    1  0.1033679E-011  0.3000000E+03  0.7818608E-02  0.1093470E+00
          1   -1    0    0  502    0  0.00000000000E+00  0.00000000000E+00  0.22103327152E+03  0.22103327152E+03  0.00000000000E+00 0.  1.
         13   -1    0    0    0    0 -0.00000000000E+00 -0.00000000000E+00 -0.27500000000E+03  0.27500000000E+03  0.00000000000E+00 0.  1.
    9000005    2    1    2  501    0  0.25241307110E+02  0.16323015014E+02 -0.66619463784E+02  0.46341953033E+03  0.45761986816E+03 0.  0.
         13    1    3    3    0    0  0.69879849756E+01 -0.10241027821E+03  0.16969437962E+03  0.19832518623E+03  0.00000000000E+00 0.  1.
          1    1    3    3  501    0  0.18253322134E+02  0.11873329322E+03 -0.23631384341E+03  0.26509434410E+03  0.00000000000E+00 0.  1.
         21    1    1    2  502  501 -0.25241307110E+02 -0.16323015014E+02  0.12652735306E+02  0.32613741191E+02  0.00000000000E+00 0. -1.
<scales pt_clust_4="550.00000" pt_clust_5="550.00000" pt_clust_6="30.05935"></scales>
<mgrwt>
<rscale>  0 0.30000000E+03</rscale>
<asrwt>  1 0.30059348E+02</asrwt>
<pdfrwt beam="1">  1        1 0.80375735E+00 0.30000000E+03</pdfrwt>
<pdfrwt beam="2">0</pdfrwt>
<totfact> 0.10021117E-03</totfact>
</mgrwt>
<clustering>
<clus scale="   30.059">  1  6  2 -1</clus>
<clus scale="  457.620">  4  5 -1 -1</clus>
<clus scale="  300.000">  1  4  2 -1</clus>
</clustering>
</event>
<event>
 6    1  0.1033679E-011  0.3000000E+03  0.7818608E-02  0.1093470E+00
          1   -1    0    0  502    0  0.00000000000E+00  0.00000000000E+00  0.24977435713E+03  0.24977435713E+03  0.00000000000E+00 0.  1.
         13   -1    0    0    0    0 -0.00000000000E+00 -0.00000000000E+00 -0.27500000000E+03  0.27500000000E+03  0.00000000000E+00 0.  1.
    9000005    2    1    2  501    0  0.33606804464E+02  0.34386954259E+02 -0.43848616896E+02  0.47321182140E+03  0.46871616868E+03 0.  0.
         13    1    3    3    0    0 -0.16488486903E+03  0.16050724823E+03 -0.59007240731E+02  0.23755304929E+03  0.00000000000E+00 0.  1.
          1    1    3    3  501    0  0.19849167349E+03 -0.12612029397E+03  0.15158623836E+02  0.23565877211E+03  0.00000000000E+00 0.  1.
         21    1    1    2  502  501 -0.33606804464E+02 -0.34386954259E+02  0.18622974029E+02  0.51562535732E+02  0.00000000000E+00 0.  1.
<scales pt_clust_4="550.00000" pt_clust_5="550.00000" pt_clust_6="48.08201"></scales>
<mgrwt>
<rscale>  0 0.30000000E+03</rscale>
<asrwt>  1 0.48082013E+02</asrwt>
<pdfrwt beam="1">  1        1 0.90827039E+00 0.30000000E+03</pdfrwt>
<pdfrwt beam="2">0</pdfrwt>
<totfact> 0.74523790E-05</totfact>
</mgrwt>
<clustering>
<clus scale="   48.082">  1  6  2 -1</clus>
<clus scale="  468.716">  4  5 -1 -1</clus>
<clus scale="  300.000">  1  4  2 -1</clus>
</clustering>
</event>
<event>
 6    1  0.1033679E-011  0.3000000E+03  0.7818608E-02  0.1093470E+00
          1   -1    0    0  502    0  0.00000000000E+00  0.00000000000E+00  0.23605015401E+03  0.23605015401E+03  0.00000000000E+00 0.  1.
         13   -1    0    0    0    0 -0.00000000000E+00 -0.00000000000E+00 -0.27500000000E+03  0.27500000000E+03  0.00000000000E+00 0.  1.
    9000005    2    1    2  501    0 -0.28695228872E+02 -0.22291662182E+02 -0.63610547277E+02  0.46713563989E+03  0.46135568704E+03 0.  0.
         13    1    3    3    0    0  0.15426758431E+03  0.21026044796E+02  0.12586283228E+03  0.20020498165E+03  0.00000000000E+00 0.  1.
          3    1    3    3  501    0 -0.18296281319E+03 -0.43317706979E+02 -0.18947337955E+03  0.26693065823E+03  0.00000000000E+00 0.  1.
         21    1    1    2  502  501  0.28695228872E+02  0.22291662182E+02  0.24660701289E+02  0.43914514126E+02  0.00000000000E+00 0.  1.
<scales pt_clust_4="550.00000" pt_clust_5="550.00000" pt_clust_6="36.33641"></scales>
<mgrwt>
<rscale>  0 0.30000000E+03</rscale>
<asrwt>  1 0.36336405E+02</asrwt>
<pdfrwt beam="1">  1        1 0.85836420E+00 0.30000000E+03</pdfrwt>
<pdfrwt beam="2">0</pdfrwt>
<totfact> 0.33427146E-04</totfact>
</mgrwt>
<clustering>
<clus scale="   36.336">  1  6  2 -1</clus>
<clus scale="  461.356">  4  5 -1 -1</clus>
<clus scale="  300.000">  1  4  2 -1</clus>
</clustering>
</event>
<event>
 6    1  0.1033679E-011  0.3000000E+03  0.7818608E-02  0.1093470E+00
          1   -1    0    0  502    0  0.00000000000E+00  0.00000000000E+00  0.22792739194E+03  0.22792739194E+03  0.00000000000E+00 0.  1.
         13   -1    0    0    0    0 -0.00000000000E+00 -0.00000000000E+00 -0.27500000000E+03  0.27500000000E+03  0.00000000000E+00 0.  1.
    9000005    2    1    2  501    0 -0.27969251853E+02  0.14107298795E+02 -0.37865156084E+02  0.47027663238E+03  0.46770187725E+03 0.  0.
         13    1    3    3    0    0  0.10109856724E+03 -0.19626356742E+03 -0.34455827892E+02  0.22344465147E+03  0.00000000000E+00 0.  1.
          1    1    3    3  501    0 -0.12906781910E+03  0.21037086622E+03 -0.34093281913E+01  0.24683198091E+03  0.00000000000E+00 0.  1.
         21    1    1    2  502  501  0.27969251853E+02 -0.14107298795E+02 -0.92074519719E+01  0.32650759568E+02  0.00000000000E+00 0.  1.
<scales pt_clust_4="550.00000" pt_clust_5="550.00000" pt_clust_6="31.32564"></scales>
<mgrwt>
<rscale>  0 0.30000000E+03</rscale>
<asrwt>  1 0.31325643E+02</asrwt>
<pdfrwt beam="1">  1        1 0.82882688E+00 0.30000000E+03</pdfrwt>
<pdfrwt beam="2">0</pdfrwt>
<totfact> 0.61737620E-04</totfact>
</mgrwt>
<clustering>
<clus scale="   31.326">  1  6  2 -1</clus>
<clus scale="  467.702">  4  5 -1 -1</clus>
<clus scale="  300.000">  1  4  2 -1</clus>
</clustering>
</event>
<event>
 6    1  0.1033679E-011  0.3000000E+03  0.7818608E-02  0.1093470E+00
          1   -1    0    0  502    0  0.00000000000E+00  0.00000000000E+00  0.23068307017E+03  0.23068307017E+03  0.00000000000E+00 0.  1.
         13   -1    0    0    0    0 -0.00000000000E+00 -0.00000000000E+00 -0.27500000000E+03  0.27500000000E+03  0.00000000000E+00 0.  1.
    9000005    2    1    2  501    0  0.48070806655E+01 -0.37842958056E+02 -0.44360931428E+02  0.46753599381E+03  0.46386077197E+03 0.  0.
         13    1    3    3    0    0 -0.20657186268E+03 -0.10580020906E+03 -0.73841087914E+02  0.24355312553E+03  0.00000000000E+00 0.  1.
          1    1    3    3  501    0  0.21137894335E+03  0.67957251004E+02  0.29480156486E+02  0.22398286828E+03  0.00000000000E+00 0.  1.
         21    1    1    2  502  501 -0.48070806655E+01  0.37842958056E+02  0.44001598857E-01  0.38147076364E+02  0.00000000000E+00 0.  1.
<scales pt_clust_4="550.00000" pt_clust_5="550.00000" pt_clust_6="38.14705"></scales>
<mgrwt>
<rscale>  0 0.30000000E+03</rscale>
<asrwt>  1 0.38147051E+02</asrwt>
<pdfrwt beam="1">  1        1 0.83884753E+00 0.30000000E+03</pdfrwt>
<pdfrwt beam="2">0</pdfrwt>
<totfact> 0.49906619E-04</totfact>
</mgrwt>
<clustering>
<clus scale="   38.147">  1  6  2 -1</clus>
<clus scale="  463.861">  4  5 -1 -1</clus>
<clus scale="  300.000">  1  4  2 -1</clus>
</clustering>
</event>
<event>
 6    1  0.1033679E-011  0.3000000E+03  0.7818608E-02  0.1093470E+00
          1   -1    0    0  502    0  0.00000000000E+00  0.00000000000E+00  0.22507042730E+03  0.22507042730E+03  0.00000000000E+00 0.  1.
         13   -1    0    0    0    0 -0.00000000000E+00 -0.00000000000E+00 -0.27500000000E+03  0.27500000000E+03  0.00000000000E+00 0.  1.
    9000005    2    1    2  501    0  0.76474195513E+01  0.36298743350E+02 -0.42934107718E+02  0.46232101241E+03  0.45882600091E+03 0.  0.
         13    1    3    3    0    0  0.20488317642E+03  0.11819377944E+03  0.25888418335E+02  0.23794347161E+03  0.00000000000E+00 0.  1.
          3    1    3    3  501    0 -0.19723575686E+03 -0.81895036093E+02 -0.68822526053E+02  0.22437754080E+03  0.00000000000E+00 0.  1.
         21    1    1    2  502  501 -0.76474195513E+01 -0.36298743350E+02 -0.69954649820E+01  0.37749414894E+02  0.00000000000E+00 0.  1.
<scales pt_clust_4="550.00000" pt_clust_5="550.00000" pt_clust_6="37.09560"></scales>
<mgrwt>
<rscale>  0 0.30000000E+03</rscale>
<asrwt>  1 0.37095595E+02</asrwt>
<pdfrwt beam="1">  1        1 0.81843792E+00 0.30000000E+03</pdfrwt>
<pdfrwt beam="2">0</pdfrwt>
<totfact> 0.73785139E-04</totfact>
</mgrwt>
<clustering>
<clus scale="   37.096">  1  6  2 -1</clus>
<clus scale="  458.826">  4  5 -1 -1</clus>
<clus scale="  300.000">  1  4  2 -1</clus>
</clustering>
</event>
<event>
 6    1  0.1033679E-011  0.3000000E+03  0.7818608E-02  0.1093470E+00
          1   -1    0    0  502    0  0.00000000000E+00  0.00000000000E+00  0.23451675581E+03  0.23451675581E+03  0.00000000000E+00 0.  1.
         13   -1    0    0    0    0 -0.00000000000E+00 -0.00000000000E+00 -0.27500000000E+03  0.27500000000E+03  0.00000000000E+00 0.  1.
    9000005    2    1    2  501    0  0.16199681254E+02  0.34284778428E+02 -0.50197629524E+02  0.47037285479E+03  0.46614691334E+03 0.  0.
         13    1    3    3    0    0  0.17084497051E+03  0.18430939904E+03 -0.12355910760E+02  0.25161603100E+03  0.00000000000E+00 0.  1.
          1    1    3    3  501    0 -0.15464528926E+03 -0.15002462061E+03 -0.37841718764E+02  0.21875682380E+03  0.00000000000E+00 0.  1.
         21    1    1    2  502  501 -0.16199681254E+02 -0.34284778428E+02  0.97143853382E+01  0.39143901020E+02  0.00000000000E+00 0.  1.
<scales pt_clust_4="550.00000" pt_clust_5="550.00000" pt_clust_6="37.91933"></scales>
<mgrwt>
<rscale>  0 0.30000000E+03</rscale>
<asrwt>  1 0.37919332E+02</asrwt>
<pdfrwt beam="1">  1        1 0.85278820E+00 0.30000000E+03</pdfrwt>
<pdfrwt beam="2">0</pdfrwt>
<totfact> 0.37721026E-04</totfact>
</mgrwt>
<clustering>
<clus scale="   37.919">  1  6  2 -1</clus>
<clus scale="  466.147">  4  5 -1 -1</clus>
<clus scale="  300.000">  1  4  2 -1</clus>
</clustering>
</event>
<event>
 6    1  0.1033679E-011  0.3000000E+03  0.7818608E-02  0.1093470E+00
          1   -1    0    0  502    0  0.00000000000E+00  0.00000000000E+00  0.23792777195E+03  0.23792777195E+03  0.00000000000E+00 0.  1.
         13   -1    0    0    0    0 -0.00000000000E+00 -0.00000000000E+00 -0.27500000000E+03  0.27500000000E+03  0.00000000000E+00 0.  1.
    9000005    2    1    2  501    0 -0.36543566759E+02 -0.98795556600E+01 -0.58778065589E+02  0.46929084636E+03  0.46405387575E+03 0.  0.
         13    1    3    3    0    0 -0.22060312741E+03 -0.78727620097E+02 -0.12037155701E+03  0.26334974791E+03  0.00000000000E+00 0.  1.
          3    1    3    3  501    0  0.18405956065E+03  0.68848064437E+02  0.61593491417E+02  0.20594109845E+03  0.00000000000E+00 0.  1.
         21    1    1    2  502  501  0.36543566759E+02  0.98795556600E+01  0.21705837541E+02  0.43636925589E+02  0.00000000000E+00 0. -1.
<scales pt_clust_4="550.00000" pt_clust_5="550.00000" pt_clust_6="37.85549"></scales>
<mgrwt>
<rscale>  0 0.30000000E+03</rscale>
<asrwt>  1 0.37855487E+02</asrwt>
<pdfrwt beam="1">  1        1 0.86519190E+00 0.30000000E+03</pdfrwt>
<pdfrwt beam="2">0</pdfrwt>
<totfact> 0.28023553E-04</totfact>
</mgrwt>
<clustering>
<clus scale="   37.855">  1  6  2 -1</clus>
<clus scale="  464.054">  4  5 -1 -1</clus>
<clus scale="  300.000">  1  4  2 -1</clus>
</clustering>
</event>
<event>
 6    1  0.1033679E-011  0.3000000E+03  0.7818608E-02  0.1093470E+00
          1   -1    0    0  502    0  0.00000000000E+00  0.00000000000E+00  0.25801509448E+03  0.25801509448E+03  0.00000000000E+00 0.  1.
         13   -1    0    0    0    0 -0.00000000000E+00 -0.00000000000E+00 -0.27500000000E+03  0.27500000000E+03  0.00000000000E+00 0.  1.
    9000005    2    1    2  501    0 -0.14658390754E+02  0.39486686866E+02 -0.48549971632E+02  0.48038031266E+03  0.47606100259E+03 0.  0.
         13    1    3    3    0    0  0.28287470034E+01  0.22938261892E+03 -0.14014799485E+03  0.26882307961E+03  0.00000000000E+00 0.  1.
          3    1    3    3  501    0 -0.17487137757E+02 -0.18989593205E+03  0.91598023221E+02  0.21155723305E+03  0.00000000000E+00 0.  1.
         21    1    1    2  502  501  0.14658390754E+02 -0.39486686866E+02  0.31565066117E+02  0.52634781828E+02  0.00000000000E+00 0.  1.
<scales pt_clust_4="550.00000" pt_clust_5="550.00000" pt_clust_6="42.11967"></scales>
<mgrwt>
<rscale>  0 0.30000000E+03</rscale>
<asrwt>  1 0.42119673E+02</asrwt>
<pdfrwt beam="1">  1        1 0.93823671E+00 0.30000000E+03</pdfrwt>
<pdfrwt beam="2">0</pdfrwt>
<totfact> 0.19761052E-05</totfact>
</mgrwt>
<clustering>
<clus scale="   42.120">  1  6  2 -1</clus>
<clus scale="  476.061">  4  5 -1 -1</clus>
<clus scale="  300.000">  1  4  2 -1</clus>
</clustering>
</event>
<event>
 6    1  0.1033679E-011  0.3000000E+03  0.7818608E-02  0.1093470E+00
          1   -1    0    0  502    0  0.00000000000E+00  0.00000000000E+00  0.24038365985E+03  0.24038365985E+03  0.00000000000E+00 0.  1.
         13   -1    0    0    0    0 -0.00000000000E+00 -0.00000000000E+00 -0.27500000000E+03  0.27500000000E+03  0.00000000000E+00 0.  1.
    9000005    2    1    2  501    0  0.43808956570E+02  0.22273065091E+01 -0.40309552588E+02  0.47115020828E+03  0.46736866942E+03 0.  0.
         13    1    3    3    0    0  0.12223521817E+03  0.22628396784E+01 -0.23299146160E+03  0.26311896584E+03  0.00000000000E+00 0.  1.
          3    1    3    3  501    0 -0.78426261602E+02 -0.35533169232E-01  0.19268190901E+03  0.20803124244E+03  0.00000000000E+00 0.  1.
         21    1    1    2  502  501 -0.43808956570E+02 -0.22273065091E+01  0.56932124358E+01  0.44233451571E+02  0.00000000000E+00 0.  1.
<scales pt_clust_4="550.00000" pt_clust_5="550.00000" pt_clust_6="43.86554"></scales>
<mgrwt>
<rscale>  0 0.30000000E+03</rscale>
<asrwt>  1 0.43865540E+02</asrwt>
<pdfrwt beam="1">  1        1 0.87412240E+00 0.30000000E+03</pdfrwt>
<pdfrwt beam="2">0</pdfrwt>
<totfact> 0.22044124E-04</totfact>
</mgrwt>
<clustering>
<clus scale="   43.866">  1  6  2 -1</clus>
<clus scale="  467.369">  4  5 -1 -1</clus>
<clus scale="  300.000">  1  4  2 -1</clus>
</clustering>
</event>
<event>
 6    1  0.1033679E-011  0.3000000E+03  0.7818608E-02  0.1093470E+00
          1   -1    0    0  502    0  0.00000000000E+00  0.00000000000E+00  0.23336489078E+03  0.23336489078E+03  0.00000000000E+00 0.  1.
         13   -1    0    0    0    0 -0.00000000000E+00 -0.00000000000E+00 -0.27500000000E+03  0.27500000000E+03  0.00000000000E+00 0.  1.
    9000005    2    1    2  501    0 -0.11493287869E+02 -0.33808610633E+02 -0.61897930179E+02  0.46730761697E+03  0.46181158204E+03 0.  0.
         13    1    3    3    0    0  0.45988698798E+02  0.15501600366E+03 -0.17625898630E+03  0.23919061867E+03  0.00000000000E+00 0.  1.
          3    1    3    3  501    0 -0.57481986667E+02 -0.18882461430E+03  0.11436105612E+03  0.22811699830E+03  0.00000000000E+00 0.  1.
         21    1    1    2  502  501  0.11493287869E+02  0.33808610633E+02  0.20262820954E+02  0.41057273801E+02  0.00000000000E+00 0.  1.
<scales pt_clust_4="550.00000" pt_clust_5="550.00000" pt_clust_6="35.70879"></scales>
<mgrwt>
<rscale>  0 0.30000000E+03</rscale>
<asrwt>  1 0.35708792E+02</asrwt>
<pdfrwt beam="1">  1        1 0.84859960E+00 0.30000000E+03</pdfrwt>
<pdfrwt beam="2">0</pdfrwt>
<totfact> 0.41781666E-04</totfact>
</mgrwt>
<clustering>
<clus scale="   35.709">  1  6  2 -1</clus>
<clus scale="  461.812">  4  5 -1 -1</clus>
<clus scale="  300.000">  1  4  2 -1</clus>
</clustering>
</event>
<event>
 6    1  0.1033679E-011  0.3000000E+03  0.7818608E-02  0.1093470E+00
          1   -1    0    0  502    0  0.00000000000E+00  0.00000000000E+00  0.23613502690E+03  0.23613502690E+03  0.00000000000E+00 0.  1.
         13   -1    0    0    0    0 -0.00000000000E+00 -0.00000000000E+00 -0.27500000000E+03  0.27500000000E+03  0.00000000000E+00 0.  1.
    9000005    2    1    2  501    0  0.20127146550E+02 -0.30580206350E+02 -0.68930644088E+02  0.46376208504E+03  0.45714722659E+03 0.  0.
         13    1    3    3    0    0 -0.70268547808E+02  0.71684668962E+02  0.16487707946E+03  0.19303059837E+03  0.00000000000E+00 0.  1.
          3    1    3    3  501    0  0.90395694358E+02 -0.10226487531E+03 -0.23380772355E+03  0.27073148667E+03  0.00000000000E+00 0.  1.
         21    1    1    2  502  501 -0.20127146550E+02  0.30580206350E+02  0.30065670986E+02  0.47372941860E+02  0.00000000000E+00 0. -1.
<scales pt_clust_4="550.00000" pt_clust_5="550.00000" pt_clust_6="36.60944"></scales>
<mgrwt>
<rscale>  0 0.30000000E+03</rscale>
<asrwt>  1 0.36609439E+02</asrwt>
<pdfrwt beam="1">  1        1 0.85867283E+00 0.30000000E+03</pdfrwt>
<pdfrwt beam="2">0</pdfrwt>
<totfact> 0.33132521E-04</totfact>
</mgrwt>
<clustering>
<clus scale="   36.609">  1  6  2 -1</clus>
<clus scale="  457.147">  4  5 -1 -1</clus>
<clus scale="  300.000">  1  4  2 -1</clus>
</clustering>
</event>
<event>
 6    1  0.1033679E-011  0.3000000E+03  0.7818608E-02  0.1093470E+00
          1   -1    0    0  502    0  0.00000000000E+00  0.00000000000E+00  0.22520705593E+03  0.22520705593E+03  0.00000000000E+00 0.  1.
         13   -1    0    0    0    0 -0.00000000000E+00 -0.00000000000E+00 -0.27500000000E+03  0.27500000000E+03  0.00000000000E+00 0.  1.
    9000005    2    1    2  501    0  0.33467894649E+01 -0.32018040491E+02 -0.58823512340E+02  0.46677193846E+03  0.46193016898E+03 0.  0.
         13    1    3    3    0    0  0.20892126944E+03 -0.15325574559E+02  0.73178351965E+02  0.22189646518E+03  0.00000000000E+00 0.  1.
          3    1    3    3  501    0 -0.20557447998E+03 -0.16692465932E+02 -0.13200186431E+03  0.24487547329E+03  0.00000000000E+00 0.  1.
         21    1    1    2  502  501 -0.33467894649E+01  0.32018040491E+02  0.90305682678E+01  0.33435117464E+02  0.00000000000E+00 0. -1.
<scales pt_clust_4="550.00000" pt_clust_5="550.00000" pt_clust_6="32.19248"></scales>
<mgrwt>
<rscale>  0 0.30000000E+03</rscale>
<asrwt>  1 0.32192482E+02</asrwt>
<pdfrwt beam="1">  1        1 0.81893475E+00 0.30000000E+03</pdfrwt>
<pdfrwt beam="2">0</pdfrwt>
<totfact> 0.75041939E-04</totfact>
</mgrwt>
<clustering>
<clus scale="   32.192">  1  6  2 -1</clus>
<clus scale="  461.930">  4  5 -1 -1</clus>
<clus scale="  300.000">  1  4  2 -1</clus>
</clustering>
</event>
<event>
 6    1  0.1033679E-011  0.3000000E+03  0.7818608E-02  0.1093470E+00
          1   -1    0    0  502    0  0.00000000000E+00  0.00000000000E+00  0.24168815809E+03  0.24168815809E+03  0.00000000000E+00 0.  1.
         13   -1    0    0    0    0 -0.00000000000E+00 -0.00000000000E+00 -0.27500000000E+03  0.27500000000E+03  0.00000000000E+00 0.  1.
    9000005    2    1    2  501    0  0.18464787887E+01 -0.31807497333E+02 -0.46341788328E+02  0.48226569632E+03  0.47897548386E+03 0.  0.
         13    1    3    3    0    0  0.94514067637E+01 -0.12463046128E+03  0.19045890544E+03  0.22780841870E+03  0.00000000000E+00 0.  1.
          3    1    3    3  501    0 -0.76049279750E+01  0.92822963949E+02 -0.23680069377E+03  0.25445727762E+03  0.00000000000E+00 0.  1.
         21    1    1    2  502  501 -0.18464787887E+01  0.31807497333E+02  0.13029946423E+02  0.34422461770E+02  0.00000000000E+00 0. -1.
<scales pt_clust_4="550.00000" pt_clust_5="550.00000" pt_clust_6="31.86105"></scales>
<mgrwt>
<rscale>  0 0.30000000E+03</rscale>
<asrwt>  1 0.31861048E+02</asrwt>
<pdfrwt beam="1">  1        1 0.87886603E+00 0.30000000E+03</pdfrwt>
<pdfrwt beam="2">0</pdfrwt>
<totfact> 0.20735152E-04</totfact>
</mgrwt>
<clustering>
<clus scale="   31.861">  1  6  2 -1</clus>
<clus scale="  478.975">  4  5 -1 -1</clus>
<clus scale="  300.000">  1  4  2 -1</clus>
</clustering>
</event>
<event>
 6    1  0.1033679E-011  0.3000000E+03  0.7818608E-02  0.1093470E+00
          1   -1    0    0  502    0  0.00000000000E+00  0.00000000000E+00  0.21890466123E+03  0.21890466123E+03  0.00000000000E+00 0.  1.
         13   -1    0    0    0    0 -0.00000000000E+00 -0.00000000000E+00 -0.27500000000E+03  0.27500000000E+03  0.00000000000E+00 0.  1.
    9000005    2    1    2  501    0  0.90059012526E+01 -0.30604702042E+02 -0.51954834662E+02  0.46173483346E+03  0.45769203351E+03 0.  0.
         13    1    3    3    0    0 -0.15334644217E+03 -0.99971876403E+02  0.11709302942E+03  0.21730228930E+03  0.00000000000E+00 0.  1.
          1    1    3    3  501    0  0.16235234342E+03  0.69367174361E+02 -0.16904786409E+03  0.24443254416E+03  0.00000000000E+00 0.  1.
         21    1    1    2  502  501 -0.90059012526E+01  0.30604702042E+02 -0.41405041070E+01  0.32169827769E+02  0.00000000000E+00 0.  1.
<scales pt_clust_4="550.00000" pt_clust_5="550.00000" pt_clust_6="31.90227"></scales>
<mgrwt>
<rscale>  0 0.30000000E+03</rscale>
<asrwt>  1 0.31902274E+02</asrwt>
<pdfrwt beam="1">  1        1 0.79601695E+00 0.30000000E+03</pdfrwt>
<pdfrwt beam="2">0</pdfrwt>
<totfact> 0.11281954E-03</totfact>
</mgrwt>
<clustering>
<clus scale="   31.902">  1  6  2 -1</clus>
<clus scale="  457.692">  4  5 -1 -1</clus>
<clus scale="  300.000">  1  4  2 -1</clus>
</clustering>
</event>
<event>
 6    1  0.1033679E-011  0.3000000E+03  0.7818608E-02  0.1093470E+00
          1   -1    0    0  502    0  0.00000000000E+00  0.00000000000E+00  0.22891523331E+03  0.22891523331E+03  0.00000000000E+00 0.  1.
         13   -1    0    0    0    0 -0.00000000000E+00 -0.00000000000E+00 -0.27500000000E+03  0.27500000000E+03  0.00000000000E+00 0.  1.
    9000005    2    1    2  501    0 -0.10615006155E+02  0.33019453957E+02 -0.48831335656E+02  0.46912290173E+03  0.46528360695E+03 0.  0.
         13    1    3    3    0    0 -0.10955884205E+03  0.20864866535E+03 -0.10771863384E+03  0.25911524367E+03  0.00000000000E+00 0.  1.
          3    1    3    3  501    0  0.98943835900E+02 -0.17562921140E+03  0.58887298182E+02  0.21000765806E+03  0.00000000000E+00 0.  1.
         21    1    1    2  502  501  0.10615006155E+02 -0.33019453957E+02  0.27465689645E+01  0.34792331574E+02  0.00000000000E+00 0.  1.
<scales pt_clust_4="550.00000" pt_clust_5="550.00000" pt_clust_6="34.68375"></scales>
<mgrwt>
<rscale>  0 0.30000000E+03</rscale>
<asrwt>  1 0.34683753E+02</asrwt>
<pdfrwt beam="1">  1        1 0.83241903E+00 0.30000000E+03</pdfrwt>
<pdfrwt beam="2">0</pdfrwt>
<totfact> 0.56643445E-04</totfact>
</mgrwt>
<clustering>
<clus scale="   34.684">  1  6  2 -1</clus>
<clus scale="  465.284">  4  5 -1 -1</clus>
<clus scale="  300.000">  1  4  2 -1</clus>
</clustering>
</event>
<event>
 6    1  0.1033679E-011  0.3000000E+03  0.7818608E-02  0.1093470E+00
          1   -1    0    0  502    0  0.00000000000E+00  0.00000000000E+00  0.24274818956E+03  0.24274818956E+03  0.00000000000E+00 0.  1.
         13   -1    0    0    0    0 -0.00000000000E+00 -0.00000000000E+00 -0.27500000000E+03  0.27500000000E+03  0.00000000000E+00 0.  1.
    9000005    2    1    2  501    0  0.25356194897E+02  0.35541366260E+02 -0.59093435107E+02  0.46649784176E+03  0.46067567437E+03 0.  0.
         13    1    3    3    0    0  0.62597457519E+02  0.22436907231E+03  0.59515702073E+02  0.24042055047E+03  0.00000000000E+00 0.  1.
          1    1    3    3  501    0 -0.37241262622E+02 -0.18882770605E+03 -0.11860913718E+03  0.22607729129E+03  0.00000000000E+00 0.  1.
         21    1    1    2  502  501 -0.25356194897E+02 -0.35541366260E+02  0.26841624669E+02  0.51250347805E+02  0.00000000000E+00 0. -1.
<scales pt_clust_4="550.00000" pt_clust_5="550.00000" pt_clust_6="43.65920"></scales>
<mgrwt>
<rscale>  0 0.30000000E+03</rscale>
<asrwt>  1 0.43659195E+02</asrwt>
<pdfrwt beam="1">  1        1 0.88272069E+00 0.30000000E+03</pdfrwt>
<pdfrwt beam="2">0</pdfrwt>
<totfact> 0.17492852E-04</totfact>
</mgrwt>
<clustering>
<clus scale="   43.659">  1  6  2 -1</clus>
<clus scale="  460.676">  4  5 -1 -1</clus>
<clus scale="  300.000">  1  4  2 -1</clus>
</clustering>
</event>
<event>
 6    1  0.1033679E-011  0.3000000E+03  0.7818608E-02  0.1093470E+00
          1   -1    0    0  502    0  0.00000000000E+00  0.00000000000E+00  0.23712709750E+03  0.23712709750E+03  0.00000000000E+00 0.  1.
         13   -1    0    0    0    0 -0.00000000000E+00 -0.00000000000E+00 -0.27500000000E+03  0.27500000000E+03  0.00000000000E+00 0.  1.
    9000005    2    1    2  501    0 -0.30997987846E+02 -0.44094792854E+00 -0.70915841952E+02  0.46681809692E+03  0.46035747989E+03 0.  0.
         13    1    3    3    0    0 -0.10799689300E+03 -0.20928918833E+03 -0.85922592350E+01  0.23566739310E+03  0.00000000000E+00 0.  1.
          1    1    3    3  501    0  0.76998905155E+02  0.20884824041E+03 -0.62323582717E+02  0.23115070382E+03  0.00000000000E+00 0.  1.
         21    1    1    2  502  501  0.30997987846E+02  0.44094792854E+00  0.33042939448E+02  0.45309000573E+02  0.00000000000E+00 0.  1.
<scales pt_clust_4="550.00000" pt_clust_5="550.00000" pt_clust_6="31.00112"></scales>
<mgrwt>
<rscale>  0 0.30000000E+03</rscale>
<asrwt>  1 0.31001124E+02</asrwt>
<pdfrwt beam="1">  1        1 0.86228035E+00 0.30000000E+03</pdfrwt>
<pdfrwt beam="2">0</pdfrwt>
<totfact> 0.31280472E-04</totfact>
</mgrwt>
<clustering>
<clus scale="   31.001">  1  6  2 -1</clus>
<clus scale="  460.357">  4  5 -1 -1</clus>
<clus scale="  300.000">  1  4  2 -1</clus>
</clustering>
</event>
<event>
 6    1  0.1033679E-011  0.3000000E+03  0.7818608E-02  0.1093470E+00
          1   -1    0    0  502    0  0.00000000000E+00  0.00000000000E+00  0.22574332727E+03  0.22574332727E+03  0.00000000000E+00 0.  1.
         13   -1    0    0    0    0 -0.00000000000E+00 -0.00000000000E+00 -0.27500000000E+03  0.27500000000E+03  0.00000000000E+00 0.  1.
    9000005    2    1    2  501    0 -0.30943428194E+02 -0.18430519678E+02 -0.63283986840E+02  0.46209173810E+03  0.45631867333E+03 0.  0.
         13    1    3    3    0    0 -0.13354300166E+03 -0.18425622994E+03 -0.12231801547E+03  0.25835206304E+03  0.00000000000E+00 0.  1.
          3    1    3    3  501    0  0.10259957347E+03  0.16582571027E+03  0.59034028633E+02  0.20373967507E+03  0.00000000000E+00 0.  1.
         21    1    1    2  502  501  0.30943428194E+02  0.18430519678E+02  0.14027314112E+02  0.38651589168E+02  0.00000000000E+00 0. -1.
<scales pt_clust_4="550.00000" pt_clust_5="550.00000" pt_clust_6="36.01638"></scales>
<mgrwt>
<rscale>  0 0.30000000E+03</rscale>
<asrwt>  1 0.36016382E+02</asrwt>
<pdfrwt beam="1">  1        1 0.82088483E+00 0.30000000E+03</pdfrwt>
<pdfrwt beam="2">0</pdfrwt>
<totfact> 0.70678279E-04</totfact>
</mgrwt>
<clustering>
<clus scale="   36.016">  1  6  2 -1</clus>
<clus scale="  456.319">  4  5 -1 -1</clus>
<clus scale="  300.000">  1  4  2 -1</clus>
</clustering>
</event>
<event>
 6    1  0.1033679E-011  0.3000000E+03  0.7818608E-02  0.1093470E+00
          1   -1    0    0  502    0  0.00000000000E+00  0.00000000000E+00  0.23711129974E+03  0.23711129974E+03  0.00000000000E+00 0.  1.
         13   -1    0    0    0    0 -0.00000000000E+00 -0.00000000000E+00 -0.27500000000E+03  0.27500000000E+03  0.00000000000E+00 0.  1.
    9000005    2    1    2  501    0  0.35820206332E+02 -0.54712217815E+01 -0.41586379946E+02  0.47568748494E+03  0.47247871368E+03 0.  0.
         13    1    3    3    0    0  0.44437304688E+02  0.56786207954E+02  0.20704150530E+03  0.21923852850E+03  0.00000000000E+00 0.  1.
          3    1    3    3  501    0 -0.86170983561E+01 -0.62257429736E+02 -0.24862788524E+03  0.25644895644E+03  0.00000000000E+00 0.  1.
         21    1    1    2  502  501 -0.35820206332E+02  0.54712217815E+01  0.36976796847E+01  0.36423814799E+02  0.00000000000E+00 0.  1.
<scales pt_clust_4="550.00000" pt_clust_5="550.00000" pt_clust_6="36.23564"></scales>
<mgrwt>
<rscale>  0 0.30000000E+03</rscale>
<asrwt>  1 0.36235638E+02</asrwt>
<pdfrwt beam="1">  1        1 0.86222291E+00 0.30000000E+03</pdfrwt>
<pdfrwt beam="2">0</pdfrwt>
<totfact> 0.30417095E-04</totfact>
</mgrwt>
<clustering>
<clus scale="   36.236">  1  6  2 -1</clus>
<clus scale="  472.479">  4  5 -1 -1</clus>
<clus scale="  300.000">  1  4  2 -1</clus>
</clustering>
</event>
<event>
 6    1  0.1033679E-011  0.3000000E+03  0.7818608E-02  0.1093470E+00
          1   -1    0    0  502    0  0.00000000000E+00  0.00000000000E+00  0.25118910607E+03  0.25118910607E+03  0.00000000000E+00 0.  1.
         13   -1    0    0    0    0 -0.00000000000E+00 -0.00000000000E+00 -0.27500000000E+03  0.27500000000E+03  0.00000000000E+00 0.  1.
    9000005    2    1    2  501    0  0.25194557784E+02  0.26466593017E+02 -0.74223360347E+02  0.46392625151E+03  0.45649010211E+03 0.  0.
         13    1    3    3    0    0  0.10308749574E+03 -0.88685494127E+02 -0.22243969243E+03  0.26071356968E+03  0.00000000000E+00 0.  1.
          1    1    3    3  501    0 -0.77892937957E+02  0.11515208714E+03  0.14821633209E+03  0.20321268182E+03  0.00000000000E+00 0.  1.
         21    1    1    2  502  501 -0.25194557784E+02 -0.26466593017E+02  0.50412466413E+02  0.62262854558E+02  0.00000000000E+00 0.  1.
<scales pt_clust_4="550.00000" pt_clust_5="550.00000" pt_clust_6="36.54102"></scales>
<mgrwt>
<rscale>  0 0.30000000E+03</rscale>
<asrwt>  1 0.36541022E+02</asrwt>
<pdfrwt beam="1">  1        1 0.91341493E+00 0.30000000E+03</pdfrwt>
<pdfrwt beam="2">0</pdfrwt>
<totfact> 0.58632334E-05</totfact>
</mgrwt>
<clustering>
<clus scale="   36.541">  1  6  2 -1</clus>
<clus scale="  456.490">  4  5 -1 -1</clus>
<clus scale="  300.000">  1  4  2 -1</clus>
</clustering>
</event>
<event>
 6    1  0.1033679E-011  0.3000000E+03  0.7818608E-02  0.1093470E+00
          1   -1    0    0  502    0  0.00000000000E+00  0.00000000000E+00  0.24225473889E+03  0.24225473889E+03  0.00000000000E+00 0.  1.
         13   -1    0    0    0    0 -0.00000000000E+00 -0.00000000000E+00 -0.27500000000E+03  0.27500000000E+03  0.00000000000E+00 0.  1.
    9000005    2    1    2  501    0  0.25683761080E+02 -0.23380399589E+02 -0.53018860401E+02  0.47703885277E+03  0.47280944240E+03 0.  0.
         13    1    3    3    0    0 -0.10857160438E+03  0.11912447785E+03  0.13149140627E+03  0.20801063537E+03  0.00000000000E+00 0.  1.
          3    1    3    3  501    0  0.13425536546E+03 -0.14250487744E+03 -0.18451026667E+03  0.26902821740E+03  0.00000000000E+00 0.  1.
         21    1    1    2  502  501 -0.25683761080E+02  0.23380399589E+02  0.20273599287E+02  0.40215886117E+02  0.00000000000E+00 0.  1.
<scales pt_clust_4="550.00000" pt_clust_5="550.00000" pt_clust_6="34.73181"></scales>
<mgrwt>
<rscale>  0 0.30000000E+03</rscale>
<asrwt>  1 0.34731811E+02</asrwt>
<pdfrwt beam="1">  1        1 0.88092632E+00 0.30000000E+03</pdfrwt>
<pdfrwt beam="2">0</pdfrwt>
<totfact> 0.19246175E-04</totfact>
</mgrwt>
<clustering>
<clus scale="   34.732">  1  6  2 -1</clus>
<clus scale="  472.809">  4  5 -1 -1</clus>
<clus scale="  300.000">  1  4  2 -1</clus>
</clustering>
</event>
<event>
 6    1  0.1033679E-011  0.3000000E+03  0.7818608E-02  0.1093470E+00
          1   -1    0    0  502    0  0.00000000000E+00  0.00000000000E+00  0.22590874332E+03  0.22590874332E+03  0.00000000000E+00 0.  1.
         13   -1    0    0    0    0 -0.00000000000E+00 -0.00000000000E+00 -0.27500000000E+03  0.27500000000E+03  0.00000000000E+00 0.  1.
    9000005    2    1    2  501    0 -0.22079420730E+02  0.31519623533E+02 -0.54252392124E+02  0.46208059880E+03  0.45726816011E+03 0.  0.
         13    1    3    3    0    0 -0.18175707583E+03 -0.93458559558E+02 -0.13378215894E+03  0.24426993884E+03  0.00000000000E+00 0.  1.
          1    1    3    3  501    0  0.15967765510E+03  0.12497818309E+03  0.79529766817E+02  0.21781065997E+03  0.00000000000E+00 0.  1.
         21    1    1    2  502  501  0.22079420730E+02 -0.31519623533E+02  0.51611354426E+01  0.38828144515E+02  0.00000000000E+00 0. -1.
<scales pt_clust_4="550.00000" pt_clust_5="550.00000" pt_clust_6="38.48360"></scales>
<mgrwt>
<rscale>  0 0.30000000E+03</rscale>
<asrwt>  1 0.38483600E+02</asrwt>
<pdfrwt beam="1">  1        1 0.82148634E+00 0.30000000E+03</pdfrwt>
<pdfrwt beam="2">0</pdfrwt>
<totfact> 0.68972580E-04</totfact>
</mgrwt>
<clustering>
<clus scale="   38.484">  1  6  2 -1</clus>
<clus scale="  457.268">  4  5 -1 -1</clus>
<clus scale="  300.000">  1  4  2 -1</clus>
</clustering>
</event>
<event>
 6    1  0.1033679E-011  0.3000000E+03  0.7818608E-02  0.1093470E+00
          1   -1    0    0  502    0  0.00000000000E+00  0.00000000000E+00  0.22857322285E+03  0.22857322285E+03  0.00000000000E+00 0.  1.
         13   -1    0    0    0    0 -0.00000000000E+00 -0.00000000000E+00 -0.27500000000E+03  0.27500000000E+03  0.00000000000E+00 0.  1.
    9000005    2    1    2  501    0 -0.53124972814E+01 -0.30846083172E+02 -0.52004080686E+02  0.47177998789E+03  0.46785919794E+03 0.  0.
         13    1    3    3    0    0  0.51289944512E+02 -0.13364495659E+03  0.16904452675E+03  0.22151226795E+03  0.00000000000E+00 0.  1.
          1    1    3    3  501    0 -0.56602441794E+02  0.10279887342E+03 -0.22104860744E+03  0.25026771994E+03  0.00000000000E+00 0.  1.
         21    1    1    2  502  501  0.53124972814E+01  0.30846083172E+02  0.55773035389E+01  0.31793234960E+02  0.00000000000E+00 0. -1.
<scales pt_clust_4="550.00000" pt_clust_5="550.00000" pt_clust_6="31.30022"></scales>
<mgrwt>
<rscale>  0 0.30000000E+03</rscale>
<asrwt>  1 0.31300215E+02</asrwt>
<pdfrwt beam="1">  1        1 0.83117536E+00 0.30000000E+03</pdfrwt>
<pdfrwt beam="2">0</pdfrwt>
<totfact> 0.59055723E-04</totfact>
</mgrwt>
<clustering>
<clus scale="   31.300">  1  6  2 -1</clus>
<clus scale="  467.859">  4  5 -1 -1</clus>
<clus scale="  300.000">  1  4  2 -1</clus>
</clustering>
</event>
<event>
 6    1  0.1033679E-011  0.3000000E+03  0.7818608E-02  0.1093470E+00
          1   -1    0    0  502    0  0.00000000000E+00  0.00000000000E+00  0.24895822950E+03  0.24895822950E+03  0.00000000000E+00 0.  1.
         13   -1    0    0    0    0 -0.00000000000E+00 -0.00000000000E+00 -0.27500000000E+03  0.27500000000E+03  0.00000000000E+00 0.  1.
    9000005    2    1    2  501    0  0.41412860213E+02  0.28140172338E+02 -0.33373800251E+02  0.47335533482E+03  0.46951524807E+03 0.  0.
         13    1    3    3    0    0  0.18870798107E+03 -0.14919914878E+03 -0.10376310778E+01  0.24056634178E+03  0.00000000000E+00 0.  1.
          3    1    3    3  501    0 -0.14729512086E+03  0.17733932112E+03 -0.32336169174E+02  0.23278899304E+03  0.00000000000E+00 0.  1.
         21    1    1    2  502  501 -0.41412860213E+02 -0.28140172338E+02  0.73320297549E+01  0.50602894686E+02  0.00000000000E+00 0. -1.
<scales pt_clust_4="550.00000" pt_clust_5="550.00000" pt_clust_6="50.06890"></scales>
<mgrwt>
<rscale>  0 0.30000000E+03</rscale>
<asrwt>  1 0.50068895E+02</asrwt>
<pdfrwt beam="1">  1        1 0.90530265E+00 0.30000000E+03</pdfrwt>
<pdfrwt beam="2">0</pdfrwt>
<totfact> 0.85514675E-05</totfact>
</mgrwt>
<clustering>
<clus scale="   50.069">  1  6  2 -1</clus>
<clus scale="  469.515">  4  5 -1 -1</clus>
<clus scale="  300.000">  1  4  2 -1</clus>
</clustering>
</event>
<event>
 6    1  0.1033679E-011  0.3000000E+03  0.7818608E-02  0.1093470E+00
          1   -1    0    0  502    0  0.00000000000E+00  0.00000000000E+00  0.24283011920E+03  0.24283011920E+03  0.00000000000E+00 0.  1.
         13   -1    0    0    0    0 -0.00000000000E+00 -0.00000000000E+00 -0.27500000000E+03  0.27500000000E+03  0.00000000000E+00 0.  1.
    9000005    2    1    2  501    0 -0.73814376643E+01  0.43335892766E+02 -0.36686752676E+02  0.47363863410E+03  0.47016502706E+03 0.  0.
         13    1    3    3    0    0 -0.59575376894E+02 -0.93278892028E+02 -0.21572563275E+03  0.24246180288E+03  0.00000000000E+00 0.  1.
          1    1    3    3  501    0  0.52193939230E+02  0.13661478479E+03  0.17903888007E+03  0.23117683122E+03  0.00000000000E+00 0.  1.
         21    1    1    2  502  501  0.73814376643E+01 -0.43335892766E+02  0.45168718804E+01  0.44191485101E+02  0.00000000000E+00 0.  1.
<scales pt_clust_4="550.00000" pt_clust_5="550.00000" pt_clust_6="43.96004"></scales>
<mgrwt>
<rscale>  0 0.30000000E+03</rscale>
<asrwt>  1 0.43960041E+02</asrwt>
<pdfrwt beam="1">  1        1 0.88301862E+00 0.30000000E+03</pdfrwt>
<pdfrwt beam="2">0</pdfrwt>
<totfact> 0.17312936E-04</totfact>
</mgrwt>
<clustering>
<clus scale="   43.960">  1  6  2 -1</clus>
<clus scale="  470.165">  4  5 -1 -1</clus>
<clus scale="  300.000">  1  4  2 -1</clus>
</clustering>
</event>
<event>
 6    1  0.1033679E-011  0.3000000E+03  0.7818608E-02  0.1093470E+00
          1   -1    0    0  502    0  0.00000000000E+00  0.00000000000E+00  0.23171977340E+03  0.23171977340E+03  0.00000000000E+00 0.  1.
         13   -1    0    0    0    0 -0.00000000000E+00 -0.00000000000E+00 -0.27500000000E+03  0.27500000000E+03  0.00000000000E+00 0.  1.
    9000005    2    1    2  501    0 -0.26196293584E+02 -0.19286831551E+02 -0.54698891140E+02  0.47224349795E+03  0.46793559920E+03 0.  0.
         13    1    3    3    0    0  0.90029178324E+02 -0.19989956237E+03  0.61965173189E+02  0.22782618522E+03  0.00000000000E+00 0.  1.
          1    1    3    3  501    0 -0.11622547191E+03  0.18061273082E+03 -0.11666406433E+03  0.24441731273E+03  0.00000000000E+00 0.  1.
         21    1    1    2  502  501  0.26196293584E+02  0.19286831551E+02  0.11418664536E+02  0.34476275446E+02  0.00000000000E+00 0. -1.
<scales pt_clust_4="550.00000" pt_clust_5="550.00000" pt_clust_6="32.53041"></scales>
<mgrwt>
<rscale>  0 0.30000000E+03</rscale>
<asrwt>  1 0.32530411E+02</asrwt>
<pdfrwt beam="1">  1        1 0.84261736E+00 0.30000000E+03</pdfrwt>
<pdfrwt beam="2">0</pdfrwt>
<totfact> 0.48010489E-04</totfact>
</mgrwt>
<clustering>
<clus scale="   32.530">  1  6  2 -1</clus>
<clus scale="  467.936">  4  5 -1 -1</clus>
<clus scale="  300.000">  1  4  2 -1</clus>
</clustering>
</event>
<event>
 6    1  0.1033679E-011  0.3000000E+03  0.7818608E-02  0.1093470E+00
          1   -1    0    0  502    0  0.00000000000E+00  0.00000000000E+00  0.25631135907E+03  0.25631135907E+03  0.00000000000E+00 0.  1.
         13   -1    0    0    0    0 -0.00000000000E+00 -0.00000000000E+00 -0.27500000000E+03  0.27500000000E+03  0.00000000000E+00 0.  1.
    9000005    2    1    2  501    0 -0.11775475656E+02  0.30016775850E+02 -0.23684762581E+02  0.49868269237E+03  0.49707523679E+03 0.  0.
         13    1    3    3    0    0  0.41763688788E+02 -0.19233208874E+03  0.11816325708E+03  0.22956130638E+03  0.00000000000E+00 0.  1.
          1    1    3    3  501    0 -0.53539164444E+02  0.22234886459E+03 -0.14184801966E+03  0.26912138599E+03  0.00000000000E+00 0.  1.
         21    1    1    2  502  501  0.11775475656E+02 -0.30016775850E+02  0.49961216530E+01  0.32628666705E+02  0.00000000000E+00 0. -1.
<scales pt_clust_4="550.00000" pt_clust_5="550.00000" pt_clust_6="32.24389"></scales>
<mgrwt>
<rscale>  0 0.30000000E+03</rscale>
<asrwt>  1 0.32243893E+02</asrwt>
<pdfrwt beam="1">  1        1 0.93204131E+00 0.30000000E+03</pdfrwt>
<pdfrwt beam="2">0</pdfrwt>
<totfact> 0.24925673E-05</totfact>
</mgrwt>
<clustering>
<clus scale="   32.244">  1  6  2 -1</clus>
<clus scale="  497.075">  4  5 -1 -1</clus>
<clus scale="  300.000">  1  4  2 -1</clus>
</clustering>
</event>
<event>
 6    1  0.1033679E-011  0.3000000E+03  0.7818608E-02  0.1093470E+00
          1   -1    0    0  502    0  0.00000000000E+00  0.00000000000E+00  0.24717910896E+03  0.24717910896E+03  0.00000000000E+00 0.  1.
         13   -1    0    0    0    0 -0.00000000000E+00 -0.00000000000E+00 -0.27500000000E+03  0.27500000000E+03  0.00000000000E+00 0.  1.
    9000005    2    1    2  501    0  0.32361526292E+02  0.20097699193E+01 -0.65449452616E+02  0.47250802879E+03  0.46682855404E+03 0.  0.
         13    1    3    3    0    0  0.95427498676E+02  0.22056266811E+03 -0.39832628602E+02  0.24359995149E+03  0.00000000000E+00 0.  1.
          1    1    3    3  501    0 -0.63065972385E+02 -0.21855289819E+03 -0.25616824014E+02  0.22890807730E+03  0.00000000000E+00 0.  1.
         21    1    1    2  502  501 -0.32361526292E+02 -0.20097699193E+01  0.37628561579E+02  0.49671080173E+02  0.00000000000E+00 0.  1.
<scales pt_clust_4="550.00000" pt_clust_5="550.00000" pt_clust_6="32.42387"></scales>
<mgrwt>
<rscale>  0 0.30000000E+03</rscale>
<asrwt>  1 0.32423873E+02</asrwt>
<pdfrwt beam="1">  1        1 0.89883312E+00 0.30000000E+03</pdfrwt>
<pdfrwt beam="2">0</pdfrwt>
<totfact> 0.11576689E-04</totfact>
</mgrwt>
<clustering>
<clus scale="   32.424">  1  6  2 -1</clus>
<clus scale="  466.829">  4  5 -1 -1</clus>
<clus scale="  300.000">  1  4  2 -1</clus>
</clustering>
</event>
<event>
 6    1  0.1033679E-011  0.3000000E+03  0.7818608E-02  0.1093470E+00
          1   -1    0    0  502    0  0.00000000000E+00  0.00000000000E+00  0.22307769604E+03  0.22307769604E+03  0.00000000000E+00 0.  1.
         13   -1    0    0    0    0 -0.00000000000E+00 -0.00000000000E+00 -0.27500000000E+03  0.27500000000E+03  0.00000000000E+00 0.  1.
    9000005    2    1    2  501    0  0.99715946026E+01 -0.28527485698E+02 -0.63678086047E+02  0.46565164861E+03  0.46028611653E+03 0.  0.
         13    1    3    3    0    0 -0.19117019440E+02 -0.17323250818E+03 -0.19961411807E+03  0.26499199696E+03  0.00000000000E+00 0.  1.
          3    1    3    3  501    0  0.29088614043E+02  0.14470502248E+03  0.13593603202E+03  0.20065965165E+03  0.00000000000E+00 0.  1.
         21    1    1    2  502  501 -0.99715946026E+01  0.28527485698E+02  0.11755782085E+02  0.32426047425E+02  0.00000000000E+00 0.  1.
<scales pt_clust_4="550.00000" pt_clust_5="550.00000" pt_clust_6="30.22003"></scales>
<mgrwt>
<rscale>  0 0.30000000E+03</rscale>
<asrwt>  1 0.30220029E+02</asrwt>
<pdfrwt beam="1">  1        1 0.81119162E+00 0.30000000E+03</pdfrwt>
<pdfrwt beam="2">0</pdfrwt>
<totfact> 0.87772406E-04</totfact>
</mgrwt>
<clustering>
<clus scale="   30.220">  1  6  2 -1</clus>
<clus scale="  460.286">  4  5 -1 -1</clus>
<clus scale="  300.000">  1  4  2 -1</clus>
</clustering>
</event>
<event>
 6    1  0.1033679E-011  0.3000000E+03  0.7818608E-02  0.1093470E+00
          1   -1    0    0  502    0  0.00000000000E+00  0.00000000000E+00  0.24603715326E+03  0.24603715326E+03  0.00000000000E+00 0.  1.
         13   -1    0    0    0    0 -0.00000000000E+00 -0.00000000000E+00 -0.27500000000E+03  0.27500000000E+03  0.00000000000E+00 0.  1.
    9000005    2    1    2  501    0 -0.27787132517E+02 -0.22272677872E+02 -0.44578201540E+02  0.48215224335E+03  0.47876442308E+03 0.  0.
         13    1    3    3    0    0 -0.22640114407E+03  0.97487420332E+02 -0.29283821761E+01  0.24651541652E+03  0.00000000000E+00 0.  1.
          1    1    3    3  501    0  0.19861401155E+03 -0.11976009820E+03 -0.41649819364E+02  0.23563682683E+03  0.00000000000E+00 0.  1.
         21    1    1    2  502  501  0.27787132517E+02  0.22272677872E+02  0.15615354803E+02  0.38884909910E+02  0.00000000000E+00 0.  1.
<scales pt_clust_4="550.00000" pt_clust_5="550.00000" pt_clust_6="35.61175"></scales>
<mgrwt>
<rscale>  0 0.30000000E+03</rscale>
<asrwt>  1 0.35611752E+02</asrwt>
<pdfrwt beam="1">  1        1 0.89468056E+00 0.30000000E+03</pdfrwt>
<pdfrwt beam="2">0</pdfrwt>
<totfact> 0.12672895E-04</totfact>
</mgrwt>
<clustering>
<clus scale="   35.612">  1  6  2 -1</clus>
<clus scale="  478.764">  4  5 -1 -1</clus>
<clus scale="  300.000">  1  4  2 -1</clus>
</clustering>
</event>
<event>
 6    1  0.1033679E-011  0.3000000E+03  0.7818608E-02  0.1093470E+00
          1   -1    0    0  502    0  0.00000000000E+00  0.00000000000E+00  0.22822735173E+03  0.22822735173E+03  0.00000000000E+00 0.  1.
         13   -1    0    0    0    0 -0.00000000000E+00 -0.00000000000E+00 -0.27500000000E+03  0.27500000000E+03  0.00000000000E+00 0.  1.
    9000005    2    1    2  501    0 -0.30848356145E+02  0.15364124076E+02 -0.59940316584E+02  0.46633473899E+03  0.46118062606E+03 0.  0.
         13    1    3    3    0    0 -0.17847411275E+03  0.14602317747E+03 -0.12038859479E+03  0.26013302565E+03  0.00000000000E+00 0.  1.
          3    1    3    3  501    0  0.14762575661E+03 -0.13065905339E+03  0.60448278208E+02  0.20620171334E+03  0.00000000000E+00 0.  1.
         21    1    1    2  502  501  0.30848356145E+02 -0.15364124076E+02  0.13167668311E+02  0.36892612732E+02  0.00000000000E+00 0.  1.
<scales pt_clust_4="550.00000" pt_clust_5="550.00000" pt_clust_6="34.46270"></scales>
<mgrwt>
<rscale>  0 0.30000000E+03</rscale>
<asrwt>  1 0.34462696E+02</asrwt>
<pdfrwt beam="1">  1        1 0.82991764E+00 0.30000000E+03</pdfrwt>
<pdfrwt beam="2">0</pdfrwt>
<totfact> 0.59365540E-04</totfact>
</mgrwt>
<clustering>
<clus scale="   34.463">  1  6  2 -1</clus>
<clus scale="  461.181">  4  5 -1 -1</clus>
<clus scale="  300.000">  1  4  2 -1</clus>
</clustering>
</event>
<event>
 6    1  0.1033679E-011  0.3000000E+03  0.7818608E-02  0.1093470E+00
          1   -1    0    0  502    0  0.00000000000E+00  0.00000000000E+00  0.24168559521E+03  0.24168559521E+03  0.00000000000E+00 0.  1.
         13   -1    0    0    0    0 -0.00000000000E+00 -0.00000000000E+00 -0.27500000000E+03  0.27500000000E+03  0.00000000000E+00 0.  1.
    9000005    2    1    2  501    0  0.26937943765E+01  0.44617926135E+02 -0.49635666293E+02  0.46909988898E+03  0.46431992269E+03 0.  0.
         13    1    3    3    0    0 -0.55726248280E+02 -0.13432522993E+03 -0.18640414604E+03  0.23642163142E+03  0.00000000000E+00 0.  1.
          3    1    3    3  501    0  0.58420042657E+02  0.17894315607E+03  0.13676847975E+03  0.23267825755E+03  0.00000000000E+00 0.  1.
         21    1    1    2  502  501 -0.26937943765E+01 -0.44617926135E+02  0.16321261502E+02  0.47585706234E+02  0.00000000000E+00 0.  1.
<scales pt_clust_4="550.00000" pt_clust_5="550.00000" pt_clust_6="44.69917"></scales>
<mgrwt>
<rscale>  0 0.30000000E+03</rscale>
<asrwt>  1 0.44699171E+02</asrwt>
<pdfrwt beam="1">  1        1 0.87885671E+00 0.30000000E+03</pdfrwt>
<pdfrwt beam="2">0</pdfrwt>
<totfact> 0.19484527E-04</totfact>
</mgrwt>
<clustering>
<clus scale="   44.699">  1  6  2 -1</clus>
<clus scale="  464.320">  4  5 -1 -1</clus>
<clus scale="  300.000">  1  4  2 -1</clus>
</clustering>
</event>
<event>
 6    1  0.1033679E-011  0.3000000E+03  0.7818608E-02  0.1093470E+00
          1   -1    0    0  502    0  0.00000000000E+00  0.00000000000E+00  0.24392324491E+03  0.24392324491E+03  0.00000000000E+00 0.  1.
         13   -1    0    0    0    0 -0.00000000000E+00 -0.00000000000E+00 -0.27500000000E+03  0.27500000000E+03  0.00000000000E+00 0.  1.
    9000005    2    1    2  501    0  0.40431842363E+01 -0.35898570807E+02 -0.44062597043E+02  0.48053461618E+03  0.47714457994E+03 0.  0.
         13    1    3    3    0    0 -0.16001277922E+03  0.47034879249E+02 -0.18486426119E+03  0.24898024911E+03  0.00000000000E+00 0.  1.
          3    1    3    3  501    0  0.16405596346E+03 -0.82933450056E+02  0.14080166415E+03  0.23155436707E+03  0.00000000000E+00 0.  1.
         21    1    1    2  502  501 -0.40431842363E+01  0.35898570807E+02  0.12985841957E+02  0.38388628734E+02  0.00000000000E+00 0.  1.
<scales pt_clust_4="550.00000" pt_clust_5="550.00000" pt_clust_6="36.12554"></scales>
<mgrwt>
<rscale>  0 0.30000000E+03</rscale>
<asrwt>  1 0.36125541E+02</asrwt>
<pdfrwt beam="1">  1        1 0.88699362E+00 0.30000000E+03</pdfrwt>
<pdfrwt beam="2">0</pdfrwt>
<totfact> 0.15836642E-04</totfact>
</mgrwt>
<clustering>
<clus scale="   36.126">  1  6  2 -1</clus>
<clus scale="  477.145">  4  5 -1 -1</clus>
<clus scale="  300.000">  1  4  2 -1</clus>
</clustering>
</event>
<event>
 6    1  0.1033679E-011  0.3000000E+03  0.7818608E-02  0.1093470E+00
          1   -1    0    0  502    0  0.00000000000E+00  0.00000000000E+00  0.24053707596E+03  0.24053707596E+03  0.00000000000E+00 0.  1.
         13   -1    0    0    0    0 -0.00000000000E+00 -0.00000000000E+00 -0.27500000000E+03  0.27500000000E+03  0.00000000000E+00 0.  1.
    9000005    2    1    2  501    0 -0.38361263859E+01 -0.29810772156E+02 -0.44232294338E+02  0.48393266807E+03  0.48096874468E+03 0.  0.
         13    1    3    3    0    0 -0.69447233515E+02  0.18174899571E+03 -0.14294612926E+03  0.24143158773E+03  0.00000000000E+00 0.  1.
          1    1    3    3  501    0  0.65611107129E+02 -0.21155976787E+03  0.98713834924E+02  0.24250108033E+03  0.00000000000E+00 0.  1.
         21    1    1    2  502  501  0.38361263859E+01  0.29810772156E+02  0.97693702973E+01  0.31604407892E+02  0.00000000000E+00 0.  1.
<scales pt_clust_4="550.00000" pt_clust_5="550.00000" pt_clust_6="30.05658"></scales>
<mgrwt>
<rscale>  0 0.30000000E+03</rscale>
<asrwt>  1 0.30056580E+02</asrwt>
<pdfrwt beam="1">  1        1 0.87468028E+00 0.30000000E+03</pdfrwt>
<pdfrwt beam="2">0</pdfrwt>
<totfact> 0.23332568E-04</totfact>
</mgrwt>
<clustering>
<clus scale="   30.057">  1  6  2 -1</clus>
<clus scale="  480.969">  4  5 -1 -1</clus>
<clus scale="  300.000">  1  4  2 -1</clus>
</clustering>
</event>
<event>
 6    1  0.1033679E-011  0.3000000E+03  0.7818608E-02  0.1093470E+00
          1   -1    0    0  502    0  0.00000000000E+00  0.00000000000E+00  0.25085093305E+03  0.25085093305E+03  0.00000000000E+00 0.  1.
         13   -1    0    0    0    0 -0.00000000000E+00 -0.00000000000E+00 -0.27500000000E+03  0.27500000000E+03  0.00000000000E+00 0.  1.
    9000005    2    1    2  501    0 -0.33532811159E+02 -0.20251600596E+02 -0.56060227671E+02  0.47532471283E+03  0.47037884386E+03 0.  0.
         13    1    3    3    0    0  0.21683001050E+03 -0.39927647857E+02 -0.35934421745E+02  0.22338476489E+03  0.00000000000E+00 0.  1.
          3    1    3    3  501    0 -0.25036282166E+03  0.19676047262E+02 -0.20125805926E+02  0.25193994795E+03  0.00000000000E+00 0.  1.
         21    1    1    2  502  501  0.33532811159E+02  0.20251600596E+02  0.31911160724E+02  0.50526220220E+02  0.00000000000E+00 0.  1.
<scales pt_clust_4="550.00000" pt_clust_5="550.00000" pt_clust_6="39.17367"></scales>
<mgrwt>
<rscale>  0 0.30000000E+03</rscale>
<asrwt>  1 0.39173674E+02</asrwt>
<pdfrwt beam="1">  1        1 0.91218521E+00 0.30000000E+03</pdfrwt>
<pdfrwt beam="2">0</pdfrwt>
<totfact> 0.62117999E-05</totfact>
</mgrwt>
<clustering>
<clus scale="   39.174">  1  6  2 -1</clus>
<clus scale="  470.379">  4  5 -1 -1</clus>
<clus scale="  300.000">  1  4  2 -1</clus>
</clustering>
</event>
<event>
 6    1  0.1033679E-011  0.3000000E+03  0.7818608E-02  0.1093470E+00
          1   -1    0    0  502    0  0.00000000000E+00  0.00000000000E+00  0.23748222099E+03  0.23748222099E+03  0.00000000000E+00 0.  1.
         13   -1    0    0    0    0 -0.00000000000E+00 -0.00000000000E+00 -0.27500000000E+03  0.27500000000E+03  0.00000000000E+00 0.  1.
    9000005    2    1    2  501    0  0.25564822625E+02 -0.21617402696E+02 -0.53094654487E+02  0.47555646704E+03  0.47139584083E+03 0.  0.
         13    1    3    3    0    0  0.66076558830E+02  0.14584113787E+03 -0.19502850814E+03  0.25233285182E+03  0.00000000000E+00 0.  1.
          1    1    3    3  501    0 -0.40511736206E+02 -0.16745854057E+03  0.14193385365E+03  0.22322361522E+03  0.00000000000E+00 0.  1.
         21    1    1    2  502  501 -0.25564822625E+02  0.21617402696E+02  0.15576875482E+02  0.36925753952E+02  0.00000000000E+00 0.  1.
<scales pt_clust_4="550.00000" pt_clust_5="550.00000" pt_clust_6="33.47943"></scales>
<mgrwt>
<rscale>  0 0.30000000E+03</rscale>
<asrwt>  1 0.33479430E+02</asrwt>
<pdfrwt beam="1">  1        1 0.86357171E+00 0.30000000E+03</pdfrwt>
<pdfrwt beam="2">0</pdfrwt>
<totfact> 0.29850784E-04</totfact>
</mgrwt>
<clustering>
<clus scale="   33.479">  1  6  2 -1</clus>
<clus scale="  471.396">  4  5 -1 -1</clus>
<clus scale="  300.000">  1  4  2 -1</clus>
</clustering>
</event>
<event>
 6    1  0.1033679E-011  0.3000000E+03  0.7818608E-02  0.1093470E+00
          1   -1    0    0  502    0  0.00000000000E+00  0.00000000000E+00  0.24713793149E+03  0.24713793149E+03  0.00000000000E+00 0.  1.
         13   -1    0    0    0    0 -0.00000000000E+00 -0.00000000000E+00 -0.27500000000E+03  0.27500000000E+03  0.00000000000E+00 0.  1.
    9000005    2    1    2  501    0 -0.40511016053E+02  0.32008473075E+01 -0.56247169287E+02  0.47256876979E+03  0.46744637156E+03 0.  0.
         13    1    3    3    0    0  0.94795370919E+02  0.19719042704E+03 -0.84140301679E+02  0.23441377355E+03  0.00000000000E+00 0.  1.
          3    1    3    3  501    0 -0.13530638697E+03 -0.19398957973E+03  0.27893132392E+02  0.23815499624E+03  0.00000000000E+00 0.  1.
         21    1    1    2  502  501  0.40511016053E+02 -0.32008473075E+01  0.28385100774E+02  0.49569161695E+02  0.00000000000E+00 0.  1.
<scales pt_clust_4="550.00000" pt_clust_5="550.00000" pt_clust_6="40.63727"></scales>
<mgrwt>
<rscale>  0 0.30000000E+03</rscale>
<asrwt>  1 0.40637272E+02</asrwt>
<pdfrwt beam="1">  1        1 0.89868339E+00 0.30000000E+03</pdfrwt>
<pdfrwt beam="2">0</pdfrwt>
<totfact> 0.11146290E-04</totfact>
</mgrwt>
<clustering>
<clus scale="   40.637">  1  6  2 -1</clus>
<clus scale="  467.446">  4  5 -1 -1</clus>
<clus scale="  300.000">  1  4  2 -1</clus>
</clustering>
</event>
<event>
 6    1  0.1033679E-011  0.3000000E+03  0.7818608E-02  0.1093470E+00
          1   -1    0    0  502    0  0.00000000000E+00  0.00000000000E+00  0.24886263670E+03  0.24886263670E+03  0.00000000000E+00 0.  1.
         13   -1    0    0    0    0 -0.00000000000E+00 -0.00000000000E+00 -0.27500000000E+03  0.27500000000E+03  0.00000000000E+00 0.  1.
    9000005    2    1    2  501    0 -0.25361920854E+02 -0.27762557894E+02 -0.48769307794E+02  0.47997423776E+03  0.47600718154E+03 0.  0.
         13    1    3    3    0    0 -0.16610368017E+03  0.40934961695E+02 -0.19936568691E+03  0.26270283739E+03  0.00000000000E+00 0.  1.
          3    1    3    3  501    0  0.14074175932E+03 -0.68697519589E+02  0.15059637912E+03  0.21727140037E+03  0.00000000000E+00 0.  1.
         21    1    1    2  502  501  0.25361920854E+02  0.27762557894E+02  0.22631944494E+02  0.43888398943E+02  0.00000000000E+00 0. -1.
<scales pt_clust_4="550.00000" pt_clust_5="550.00000" pt_clust_6="37.60301"></scales>
<mgrwt>
<rscale>  0 0.30000000E+03</rscale>
<asrwt>  1 0.37603014E+02</asrwt>
<pdfrwt beam="1">  1        1 0.90495504E+00 0.30000000E+03</pdfrwt>
<pdfrwt beam="2">0</pdfrwt>
<totfact> 0.91418800E-05</totfact>
</mgrwt>
<clustering>
<clus scale="   37.603">  1  6  2 -1</clus>
<clus scale="  476.007">  4  5 -1 -1</clus>
<clus scale="  300.000">  1  4  2 -1</clus>
</clustering>
</event>
<event>
 6    1  0.1033679E-011  0.3000000E+03  0.7818608E-02  0.1093470E+00
          1   -1    0    0  502    0  0.00000000000E+00  0.00000000000E+00  0.24065178007E+03  0.24065178007E+03  0.00000000000E+00 0.  1.
         13   -1    0    0    0    0 -0.00000000000E+00 -0.00000000000E+00 -0.27500000000E+03  0.27500000000E+03  0.00000000000E+00 0.  1.
    9000005    2    1    2  501    0 -0.19179504977E+02  0.25115001413E+02 -0.55716206925E+02  0.47750459701E+03  0.47318889225E+03 0.  0.
         13    1    3    3    0    0  0.13278478633E+03 -0.86764886858E+02  0.13567453374E+03  0.20872835021E+03  0.00000000000E+00 0.  1.
          1    1    3    3  501    0 -0.15196429131E+03  0.11187988827E+03 -0.19139074067E+03  0.26877624681E+03  0.00000000000E+00 0.  1.
         21    1    1    2  502  501  0.19179504977E+02 -0.25115001413E+02  0.21367986999E+02  0.38147183062E+02  0.00000000000E+00 0.  1.
<scales pt_clust_4="550.00000" pt_clust_5="550.00000" pt_clust_6="31.60090"></scales>
<mgrwt>
<rscale>  0 0.30000000E+03</rscale>
<asrwt>  1 0.31600897E+02</asrwt>
<pdfrwt beam="1">  1        1 0.87509738E+00 0.30000000E+03</pdfrwt>
<pdfrwt beam="2">0</pdfrwt>
<totfact> 0.22876429E-04</totfact>
</mgrwt>
<clustering>
<clus scale="   31.601">  1  6  2 -1</clus>
<clus scale="  473.189">  4  5 -1 -1</clus>
<clus scale="  300.000">  1  4  2 -1</clus>
</clustering>
</event>
<event>
 6    1  0.1033679E-011  0.3000000E+03  0.7818608E-02  0.1093470E+00
          1   -1    0    0  502    0  0.00000000000E+00  0.00000000000E+00  0.24022164056E+03  0.24022164056E+03  0.00000000000E+00 0.  1.
         13   -1    0    0    0    0 -0.00000000000E+00 -0.00000000000E+00 -0.27500000000E+03  0.27500000000E+03  0.00000000000E+00 0.  1.
    9000005    2    1    2  501    0  0.15957737815E+02  0.36931278549E+02 -0.39518464811E+02  0.47471192160E+03  0.47135032695E+03 0.  0.
         13    1    3    3    0    0 -0.19597028321E+03 -0.77075356552E+02 -0.89695837340E+02  0.22888928705E+03  0.00000000000E+00 0.  1.
          1    1    3    3  501    0  0.21192802103E+03  0.11400663510E+03  0.50177372529E+02  0.24582263455E+03  0.00000000000E+00 0.  1.
         21    1    1    2  502  501 -0.15957737815E+02 -0.36931278549E+02  0.47401053709E+01  0.40509718961E+02  0.00000000000E+00 0.  1.
<scales pt_clust_4="550.00000" pt_clust_5="550.00000" pt_clust_6="40.23144"></scales>
<mgrwt>
<rscale>  0 0.30000000E+03</rscale>
<asrwt>  1 0.40231440E+02</asrwt>
<pdfrwt beam="1">  1        1 0.87353324E+00 0.30000000E+03</pdfrwt>
<pdfrwt beam="2">0</pdfrwt>
<totfact> 0.22709260E-04</totfact>
</mgrwt>
<clustering>
<clus scale="   40.231">  1  6  2 -1</clus>
<clus scale="  471.350">  4  5 -1 -1</clus>
<clus scale="  300.000">  1  4  2 -1</clus>
</clustering>
</event>
<event>
 6    1  0.1033679E-011  0.3000000E+03  0.7818608E-02  0.1093470E+00
          1   -1    0    0  502    0  0.00000000000E+00  0.00000000000E+00  0.23456180044E+03  0.23456180044E+03  0.00000000000E+00 0.  1.
         13   -1    0    0    0    0 -0.00000000000E+00 -0.00000000000E+00 -0.27500000000E+03  0.27500000000E+03  0.00000000000E+00 0.  1.
    9000005    2    1    2  501    0 -0.25183361962E+01  0.38359830352E+02 -0.43680705551E+02  0.47098288849E+03  0.46737464481E+03 0.  0.
         13    1    3    3    0    0  0.84748688058E+02  0.14572266041E+03 -0.20043724796E+03  0.26190174542E+03  0.00000000000E+00 0.  1.
          3    1    3    3  501    0 -0.87267024254E+02 -0.10736283005E+03  0.15675654241E+03  0.20908114307E+03  0.00000000000E+00 0.  1.
         21    1    1    2  502  501  0.25183361962E+01 -0.38359830352E+02  0.32425059887E+01  0.38578911946E+02  0.00000000000E+00 0. -1.
<scales pt_clust_4="550.00000" pt_clust_5="550.00000" pt_clust_6="38.44241"></scales>
<mgrwt>
<rscale>  0 0.30000000E+03</rscale>
<asrwt>  1 0.38442406E+02</asrwt>
<pdfrwt beam="1">  1        1 0.85295200E+00 0.30000000E+03</pdfrwt>
<pdfrwt beam="2">0</pdfrwt>
<totfact> 0.37489442E-04</totfact>
</mgrwt>
<clustering>
<clus scale="   38.442">  1  6  2 -1</clus>
<clus scale="  467.375">  4  5 -1 -1</clus>
<clus scale="  300.000">  1  4  2 -1</clus>
</clustering>
</event>
<event>
 6    1  0.1033679E-011  0.3000000E+03  0.7818608E-02  0.1093470E+00
          1   -1    0    0  502    0  0.00000000000E+00  0.00000000000E+00  0.23414308458E+03  0.23414308458E+03  0.00000000000E+00 0.  1.
         13   -1    0    0    0    0 -0.00000000000E+00 -0.00000000000E+00 -0.27500000000E+03  0.27500000000E+03  0.00000000000E+00 0.  1.
    9000005    2    1    2  501    0 -0.26449569823E+01 -0.31755737071E+02 -0.56024728975E+02  0.47385165216E+03  0.46944775573E+03 0.  0.
         13    1    3    3    0    0 -0.20819373201E+03 -0.11609256217E+03 -0.77456730990E+02  0.25064249084E+03  0.00000000000E+00 0.  1.
          3    1    3    3  501    0  0.20554877503E+03  0.84336825101E+02  0.21432002014E+02  0.22320916131E+03  0.00000000000E+00 0.  1.
         21    1    1    2  502  501  0.26449569823E+01  0.31755737071E+02  0.15167813553E+02  0.35291432421E+02  0.00000000000E+00 0.  1.
<scales pt_clust_4="550.00000" pt_clust_5="550.00000" pt_clust_6="31.86570"></scales>
<mgrwt>
<rscale>  0 0.30000000E+03</rscale>
<asrwt>  1 0.31865697E+02</asrwt>
<pdfrwt beam="1">  1        1 0.85142940E+00 0.30000000E+03</pdfrwt>
<pdfrwt beam="2">0</pdfrwt>
<totfact> 0.40156119E-04</totfact>
</mgrwt>
<clustering>
<clus scale="   31.866">  1  6  2 -1</clus>
<clus scale="  469.448">  4  5 -1 -1</clus>
<clus scale="  300.000">  1  4  2 -1</clus>
</clustering>
</event>
<event>
 6    1  0.1033679E-011  0.3000000E+03  0.7818608E-02  0.1093470E+00
          1   -1    0    0  502    0  0.00000000000E+00  0.00000000000E+00  0.24352507079E+03  0.24352507079E+03  0.00000000000E+00 0.  1.
         13   -1    0    0    0    0 -0.00000000000E+00 -0.00000000000E+00 -0.27500000000E+03  0.27500000000E+03  0.00000000000E+00 0.  1.
    9000005    2    1    2  501    0 -0.45668182363E+01  0.52315736776E+02 -0.28498167572E+02  0.46592608551E+03  0.46207919176E+03 0.  0.
         13    1    3    3    0    0  0.58129410959E+02  0.23582813025E+03  0.63842262685E+02  0.25113695455E+03  0.00000000000E+00 0.  1.
          3    1    3    3  501    0 -0.62696229196E+02 -0.18351239348E+03 -0.92340430256E+02  0.21478913095E+03  0.00000000000E+00 0.  1.
         21    1    1    2  502  501  0.45668182363E+01 -0.52315736776E+02 -0.29767616371E+01  0.52598985285E+02  0.00000000000E+00 0. -1.
<scales pt_clust_4="550.00000" pt_clust_5="550.00000" pt_clust_6="52.51469"></scales>
<mgrwt>
<rscale>  0 0.30000000E+03</rscale>
<asrwt>  1 0.52514685E+02</asrwt>
<pdfrwt beam="1">  1        1 0.88554571E+00 0.30000000E+03</pdfrwt>
<pdfrwt beam="2">0</pdfrwt>
<totfact> 0.15503913E-04</totfact>
</mgrwt>
<clustering>
<clus scale="   52.515">  1  6  2 -1</clus>
<clus scale="  462.079">  4  5 -1 -1</clus>
<clus scale="  300.000">  1  4  2 -1</clus>
</clustering>
</event>
<event>
 6    1  0.1033679E-011  0.3000000E+03  0.7818608E-02  0.1093470E+00
          1   -1    0    0  502    0  0.00000000000E+00  0.00000000000E+00  0.22783852475E+03  0.22783852475E+03  0.00000000000E+00 0.  1.
         13   -1    0    0    0    0 -0.00000000000E+00 -0.00000000000E+00 -0.27500000000E+03  0.27500000000E+03  0.00000000000E+00 0.  1.
    9000005    2    1    2  501    0 -0.35248551483E+02 -0.68155690312E+01 -0.55746659846E+02  0.46592487203E+03  0.46118259283E+03 0.  0.
         13    1    3    3    0    0  0.20757690918E+03  0.46241691082E+02 -0.43503387344E+02  0.21706914090E+03  0.00000000000E+00 0.  1.
          1    1    3    3  501    0 -0.24282546066E+03 -0.53057260113E+02 -0.12243272502E+02  0.24885573113E+03  0.00000000000E+00 0.  1.
         21    1    1    2  502  501  0.35248551483E+02  0.68155690312E+01  0.85851845995E+01  0.36913652724E+02  0.00000000000E+00 0.  1.
<scales pt_clust_4="550.00000" pt_clust_5="550.00000" pt_clust_6="35.90143"></scales>
<mgrwt>
<rscale>  0 0.30000000E+03</rscale>
<asrwt>  1 0.35901426E+02</asrwt>
<pdfrwt beam="1">  1        1 0.82850373E+00 0.30000000E+03</pdfrwt>
<pdfrwt beam="2">0</pdfrwt>
<totfact> 0.60555033E-04</totfact>
</mgrwt>
<clustering>
<clus scale="   35.901">  1  6  2 -1</clus>
<clus scale="  461.183">  4  5 -1 -1</clus>
<clus scale="  300.000">  1  4  2 -1</clus>
</clustering>
</event>
<event>
 6    1  0.1033679E-011  0.3000000E+03  0.7818608E-02  0.1093470E+00
          1   -1    0    0  502    0  0.00000000000E+00  0.00000000000E+00  0.23303333197E+03  0.23303333197E+03  0.00000000000E+00 0.  1.
         13   -1    0    0    0    0 -0.00000000000E+00 -0.00000000000E+00 -0.27500000000E+03  0.27500000000E+03  0.00000000000E+00 0.  1.
    9000005    2    1    2  501    0 -0.42663657386E+02 -0.14700588933E+02 -0.52676089219E+02  0.46165460108E+03  0.45641418180E+03 0.  0.
         13    1    3    3    0    0  0.16599411868E+03  0.81022839803E+02 -0.12257362027E+03  0.22168229607E+03  0.00000000000E+00 0.  1.
          3    1    3    3  501    0 -0.20865777607E+03 -0.95723428736E+02  0.69897531052E+02  0.23997230501E+03  0.00000000000E+00 0.  1.
         21    1    1    2  502  501  0.42663657386E+02  0.14700588933E+02  0.10709421185E+02  0.46378730886E+02  0.00000000000E+00 0.  1.
<scales pt_clust_4="550.00000" pt_clust_5="550.00000" pt_clust_6="45.12533"></scales>
<mgrwt>
<rscale>  0 0.30000000E+03</rscale>
<asrwt>  1 0.45125325E+02</asrwt>
<pdfrwt beam="1">  1        1 0.84739393E+00 0.30000000E+03</pdfrwt>
<pdfrwt beam="2">0</pdfrwt>
<totfact> 0.41065462E-04</totfact>
</mgrwt>
<clustering>
<clus scale="   45.125">  1  6  2 -1</clus>
<clus scale="  456.414">  4  5 -1 -1</clus>
<clus scale="  300.000">  1  4  2 -1</clus>
</clustering>
</event>
<event>
 6    1  0.1033679E-011  0.3000000E+03  0.7818608E-02  0.1093470E+00
          1   -1    0    0  502    0  0.00000000000E+00  0.00000000000E+00  0.23702556163E+03  0.23702556163E+03  0.00000000000E+00 0.  1.
         13   -1    0    0    0    0 -0.00000000000E+00 -0.00000000000E+00 -0.27500000000E+03  0.27500000000E+03  0.00000000000E+00 0.  1.
    9000005    2    1    2  501    0 -0.35335947971E+02  0.11810912470E+02 -0.47293891710E+02  0.47362010521E+03  0.46977778257E+03 0.  0.
         13    1    3    3    0    0 -0.59747629949E+02 -0.67447488907E+02 -0.24402180109E+03  0.26012608952E+03  0.00000000000E+00 0.  1.
          3    1    3    3  501    0  0.24411681978E+02  0.79258401377E+02  0.19672790938E+03  0.21349401569E+03  0.00000000000E+00 0.  1.
         21    1    1    2  502  501  0.35335947971E+02 -0.11810912470E+02  0.93194533398E+01  0.38405456421E+02  0.00000000000E+00 0.  1.
<scales pt_clust_4="550.00000" pt_clust_5="550.00000" pt_clust_6="37.25757"></scales>
<mgrwt>
<rscale>  0 0.30000000E+03</rscale>
<asrwt>  1 0.37257575E+02</asrwt>
<pdfrwt beam="1">  1        1 0.86191113E+00 0.30000000E+03</pdfrwt>
<pdfrwt beam="2">0</pdfrwt>
<totfact> 0.30496240E-04</totfact>
</mgrwt>
<clustering>
<clus scale="   37.258">  1  6  2 -1</clus>
<clus scale="  469.778">  4  5 -1 -1</clus>
<clus scale="  300.000">  1  4  2 -1</clus>
</clustering>
</event>
<event>
 6    1  0.1033679E-011  0.3000000E+03  0.7818608E-02  0.1093470E+00
          1   -1    0    0  502    0  0.00000000000E+00  0.00000000000E+00  0.24590390097E+03  0.24590390097E+03  0.00000000000E+00 0.  1.
         13   -1    0    0    0    0 -0.00000000000E+00 -0.00000000000E+00 -0.27500000000E+03  0.27500000000E+03  0.00000000000E+00 0.  1.
    9000005    2    1    2  501    0  0.24880366680E+02  0.28492859132E+02 -0.37369777340E+02  0.48218272562E+03  0.47924190652E+03 0.  0.
         13    1    3    3    0    0  0.39726305113E+02  0.24665867446E+03 -0.73775807542E+02  0.26050249669E+03  0.00000000000E+00 0.  1.
          1    1    3    3  501    0 -0.14845938433E+02 -0.21816581533E+03  0.36406030202E+02  0.22168022893E+03  0.00000000000E+00 0.  1.
         21    1    1    2  502  501 -0.24880366680E+02 -0.28492859132E+02  0.82736783107E+01  0.38721175349E+02  0.00000000000E+00 0. -1.
<scales pt_clust_4="550.00000" pt_clust_5="550.00000" pt_clust_6="37.82692"></scales>
<mgrwt>
<rscale>  0 0.30000000E+03</rscale>
<asrwt>  1 0.37826917E+02</asrwt>
<pdfrwt beam="1">  1        1 0.89419600E+00 0.30000000E+03</pdfrwt>
<pdfrwt beam="2">0</pdfrwt>
<totfact> 0.12691232E-04</totfact>
</mgrwt>
<clustering>
<clus scale="   37.827">  1  6  2 -1</clus>
<clus scale="  479.242">  4  5 -1 -1</clus>
<clus scale="  300.000">  1  4  2 -1</clus>
</clustering>
</event>
<event>
 6    1  0.1033679E-011  0.3000000E+03  0.7818608E-02  0.1093470E+00
          1   -1    0    0  502    0  0.00000000000E+00  0.00000000000E+00  0.22837066276E+03  0.22837066276E+03  0.00000000000E+00 0.  1.
         13   -1    0    0    0    0 -0.00000000000E+00 -0.00000000000E+00 -0.27500000000E+03  0.27500000000E+03  0.00000000000E+00 0.  1.
    9000005    2    1    2  501    0  0.31200033476E+02 -0.69920378860E+01 -0.31564983588E+02  0.46802571356E+03  0.46586413221E+03 0.  0.
         13    1    3    3    0    0  0.39603548090E+02  0.15601221990E+03  0.15269841607E+03  0.22186721265E+03  0.00000000000E+00 0.  1.
          1    1    3    3  501    0 -0.84035146138E+01 -0.16300425779E+03 -0.18426339966E+03  0.24615850091E+03  0.00000000000E+00 0.  1.
         21    1    1    2  502  501 -0.31200033476E+02  0.69920378860E+01 -0.15064353653E+02  0.35344949196E+02  0.00000000000E+00 0. -1.
<scales pt_clust_4="550.00000" pt_clust_5="550.00000" pt_clust_6="31.97392"></scales>
<mgrwt>
<rscale>  0 0.30000000E+03</rscale>
<asrwt>  1 0.31973922E+02</asrwt>
<pdfrwt beam="1">  1        1 0.83043877E+00 0.30000000E+03</pdfrwt>
<pdfrwt beam="2">0</pdfrwt>
<totfact> 0.59622451E-04</totfact>
</mgrwt>
<clustering>
<clus scale="   31.974">  1  6  2 -1</clus>
<clus scale="  465.864">  4  5 -1 -1</clus>
<clus scale="  300.000">  1  4  2 -1</clus>
</clustering>
</event>
<event>
 6    1  0.1033679E-011  0.3000000E+03  0.7818608E-02  0.1093470E+00
          1   -1    0    0  502    0  0.00000000000E+00  0.00000000000E+00  0.23673096829E+03  0.23673096829E+03  0.00000000000E+00 0.  1.
         13   -1    0    0    0    0 -0.00000000000E+00 -0.00000000000E+00 -0.27500000000E+03  0.27500000000E+03  0.00000000000E+00 0.  1.
    9000005    2    1    2  501    0 -0.32993912666E+02 -0.16262378702E+01 -0.50663806347E+02  0.47644820535E+03  0.47259372423E+03 0.  0.
         13    1    3    3    0    0  0.14110609709E+03 -0.15174275760E+03  0.67559800172E+02  0.21794752057E+03  0.00000000000E+00 0.  1.
          3    1    3    3  501    0 -0.17410000976E+03  0.15011651973E+03 -0.11822360652E+03  0.25850068478E+03  0.00000000000E+00 0.  1.
         21    1    1    2  502  501  0.32993912666E+02  0.16262378702E+01  0.12394774639E+02  0.35282762944E+02  0.00000000000E+00 0.  1.
<scales pt_clust_4="550.00000" pt_clust_5="550.00000" pt_clust_6="33.03397"></scales>
<mgrwt>
<rscale>  0 0.30000000E+03</rscale>
<asrwt>  1 0.33033966E+02</asrwt>
<pdfrwt beam="1">  1        1 0.86083988E+00 0.30000000E+03</pdfrwt>
<pdfrwt beam="2">0</pdfrwt>
<totfact> 0.32029865E-04</totfact>
</mgrwt>
<clustering>
<clus scale="   33.034">  1  6  2 -1</clus>
<clus scale="  472.594">  4  5 -1 -1</clus>
<clus scale="  300.000">  1  4  2 -1</clus>
</clustering>
</event>
<event>
 6    1  0.1033679E-011  0.3000000E+03  0.7818608E-02  0.1093470E+00
          1   -1    0    0  502    0  0.00000000000E+00  0.00000000000E+00  0.23813351776E+03  0.23813351776E+03  0.00000000000E+00 0.  1.
         13   -1    0    0    0    0 -0.00000000000E+00 -0.00000000000E+00 -0.27500000000E+03  0.27500000000E+03  0.00000000000E+00 0.  1.
    9000005    2    1    2  501    0 -0.25895890636E+02  0.36023074632E+02 -0.40569958607E+02  0.46861414226E+03  0.46474190012E+03 0.  0.
         13    1    3    3    0    0  0.16117404631E+03  0.11620446985E+03  0.98834137187E+02  0.22192056843E+03  0.00000000000E+00 0.  1.
          3    1    3    3  501    0 -0.18706993694E+03 -0.80181395222E+02 -0.13940409579E+03  0.24669357384E+03  0.00000000000E+00 0.  1.
         21    1    1    2  502  501  0.25895890636E+02 -0.36023074632E+02  0.37034763703E+01  0.44519375501E+02  0.00000000000E+00 0.  1.
<scales pt_clust_4="550.00000" pt_clust_5="550.00000" pt_clust_6="44.36507"></scales>
<mgrwt>
<rscale>  0 0.30000000E+03</rscale>
<asrwt>  1 0.44365066E+02</asrwt>
<pdfrwt beam="1">  1        1 0.86594006E+00 0.30000000E+03</pdfrwt>
<pdfrwt beam="2">0</pdfrwt>
<totfact> 0.26729358E-04</totfact>
</mgrwt>
<clustering>
<clus scale="   44.365">  1  6  2 -1</clus>
<clus scale="  464.742">  4  5 -1 -1</clus>
<clus scale="  300.000">  1  4  2 -1</clus>
</clustering>
</event>
<event>
 6    1  0.1033679E-011  0.3000000E+03  0.7818608E-02  0.1093470E+00
          1   -1    0    0  502    0  0.00000000000E+00  0.00000000000E+00  0.23711978575E+03  0.23711978575E+03  0.00000000000E+00 0.  1.
         13   -1    0    0    0    0 -0.00000000000E+00 -0.00000000000E+00 -0.27500000000E+03  0.27500000000E+03  0.00000000000E+00 0.  1.
    9000005    2    1    2  501    0  0.33839597708E+02 -0.15301083067E+02 -0.64333077267E+02  0.46652378288E+03  0.46057187674E+03 0.  0.
         13    1    3    3    0    0  0.11864607173E+03  0.78880461578E+02 -0.22227633728E+03  0.26401853660E+03  0.00000000000E+00 0.  1.
          3    1    3    3  501    0 -0.84806474022E+02 -0.94181544646E+02  0.15794326001E+03  0.20250524628E+03  0.00000000000E+00 0.  1.
         21    1    1    2  502  501 -0.33839597708E+02  0.15301083067E+02  0.26452863019E+02  0.45596002873E+02  0.00000000000E+00 0. -1.
<scales pt_clust_4="550.00000" pt_clust_5="550.00000" pt_clust_6="37.13814"></scales>
<mgrwt>
<rscale>  0 0.30000000E+03</rscale>
<asrwt>  1 0.37138141E+02</asrwt>
<pdfrwt beam="1">  1        1 0.86225377E+00 0.30000000E+03</pdfrwt>
<pdfrwt beam="2">0</pdfrwt>
<totfact> 0.30255351E-04</totfact>
</mgrwt>
<clustering>
<clus scale="   37.138">  1  6  2 -1</clus>
<clus scale="  460.572">  4  5 -1 -1</clus>
<clus scale="  300.000">  1  4  2 -1</clus>
</clustering>
</event>
<event>
 6    1  0.1033679E-011  0.3000000E+03  0.7818608E-02  0.1093470E+00
          1   -1    0    0  502    0  0.00000000000E+00  0.00000000000E+00  0.22858080668E+03  0.22858080668E+03  0.00000000000E+00 0.  1.
         13   -1    0    0    0    0 -0.00000000000E+00 -0.00000000000E+00 -0.27500000000E+03  0.27500000000E+03  0.00000000000E+00 0.  1.
    9000005    2    1    2  501    0  0.53584611224E+01  0.36907575476E+02 -0.58305269341E+02  0.46443797801E+03  0.45925183587E+03 0.  0.
         13    1    3    3    0    0  0.28538530237E+02 -0.14183910088E+03  0.13659087991E+03  0.19897197471E+03  0.00000000000E+00 0.  1.
          1    1    3    3  501    0 -0.23180069114E+02  0.17874667635E+03 -0.19489614925E+03  0.26546600330E+03  0.00000000000E+00 0.  1.
         21    1    1    2  502  501 -0.53584611224E+01 -0.36907575476E+02  0.11886076019E+02  0.39142828670E+02  0.00000000000E+00 0. -1.
<scales pt_clust_4="550.00000" pt_clust_5="550.00000" pt_clust_6="37.29453"></scales>
<mgrwt>
<rscale>  0 0.30000000E+03</rscale>
<asrwt>  1 0.37294534E+02</asrwt>
<pdfrwt beam="1">  1        1 0.83120293E+00 0.30000000E+03</pdfrwt>
<pdfrwt beam="2">0</pdfrwt>
<totfact> 0.57114279E-04</totfact>
</mgrwt>
<clustering>
<clus scale="   37.295">  1  6  2 -1</clus>
<clus scale="  459.252">  4  5 -1 -1</clus>
<clus scale="  300.000">  1  4  2 -1</clus>
</clustering>
</event>
<event>
 6    1  0.1033679E-011  0.3000000E+03  0.7818608E-02  0.1093470E+00
          1   -1    0    0  502    0  0.00000000000E+00  0.00000000000E+00  0.22981581234E+03  0.22981581234E+03  0.00000000000E+00 0.  1.
         13   -1    0    0    0    0 -0.00000000000E+00 -0.00000000000E+00 -0.27500000000E+03  0.27500000000E+03  0.00000000000E+00 0.  1.
    9000005    2    1    2  501    0 -0.10105303110E+02  0.30008383970E+02 -0.44103012564E+02  0.47313317989E+03  0.47000777646E+03 0.  0.
         13    1    3    3    0    0 -0.29096586118E+02  0.22898152354E+03  0.72237752694E+02  0.24186244512E+03  0.00000000000E+00 0.  1.
          3    1    3    3  501    0  0.18991283008E+02 -0.19897313957E+03 -0.11634076526E+03  0.23127073477E+03  0.00000000000E+00 0.  1.
         21    1    1    2  502  501  0.10105303110E+02 -0.30008383970E+02 -0.10811750972E+01  0.31682632451E+02  0.00000000000E+00 0. -1.
<scales pt_clust_4="550.00000" pt_clust_5="550.00000" pt_clust_6="31.66418"></scales>
<mgrwt>
<rscale>  0 0.30000000E+03</rscale>
<asrwt>  1 0.31664179E+02</asrwt>
<pdfrwt beam="1">  1        1 0.83569386E+00 0.30000000E+03</pdfrwt>
<pdfrwt beam="2">0</pdfrwt>
<totfact> 0.54494198E-04</totfact>
</mgrwt>
<clustering>
<clus scale="   31.664">  1  6  2 -1</clus>
<clus scale="  470.008">  4  5 -1 -1</clus>
<clus scale="  300.000">  1  4  2 -1</clus>
</clustering>
</event>
<event>
 6    1  0.1033679E-011  0.3000000E+03  0.7818608E-02  0.1093470E+00
          1   -1    0    0  502    0  0.00000000000E+00  0.00000000000E+00  0.22886062442E+03  0.22886062442E+03  0.00000000000E+00 0.  1.
         13   -1    0    0    0    0 -0.00000000000E+00 -0.00000000000E+00 -0.27500000000E+03  0.27500000000E+03  0.00000000000E+00 0.  1.
    9000005    2    1    2  501    0  0.23427496623E+02 -0.24059988278E+02 -0.64408249680E+02  0.46563128497E+03  0.45993079945E+03 0.  0.
         13    1    3    3    0    0 -0.14130085108E+03  0.16003249242E+03 -0.42052284046E+02  0.21758842741E+03  0.00000000000E+00 0.  1.
          3    1    3    3  501    0  0.16472834770E+03 -0.18409248070E+03 -0.22355965634E+02  0.24804285756E+03  0.00000000000E+00 0.  1.
         21    1    1    2  502  501 -0.23427496623E+02  0.24059988278E+02  0.18268874095E+02  0.38229339448E+02  0.00000000000E+00 0.  1.
<scales pt_clust_4="550.00000" pt_clust_5="550.00000" pt_clust_6="33.58170"></scales>
<mgrwt>
<rscale>  0 0.30000000E+03</rscale>
<asrwt>  1 0.33581701E+02</asrwt>
<pdfrwt beam="1">  1        1 0.83222045E+00 0.30000000E+03</pdfrwt>
<pdfrwt beam="2">0</pdfrwt>
<totfact> 0.57188333E-04</totfact>
</mgrwt>
<clustering>
<clus scale="   33.582">  1  6  2 -1</clus>
<clus scale="  459.931">  4  5 -1 -1</clus>
<clus scale="  300.000">  1  4  2 -1</clus>
</clustering>
</event>
<event>
 6    1  0.1033679E-011  0.3000000E+03  0.7818608E-02  0.1093470E+00
          1   -1    0    0  502    0  0.00000000000E+00  0.00000000000E+00  0.24914587092E+03  0.24914587092E+03  0.00000000000E+00 0.  1.
         13   -1    0    0    0    0 -0.00000000000E+00 -0.00000000000E+00 -0.27500000000E+03  0.27500000000E+03  0.00000000000E+00 0.  1.
    9000005    2    1    2  501    0 -0.74160842238E+01  0.54834471113E+02 -0.74339522839E+01  0.46582674506E+03  0.46246889110E+03 0.  0.
         13    1    3    3    0    0  0.77303469956E+02  0.22275054661E+03 -0.10010990353E+03  0.25615547089E+03  0.00000000000E+00 0.  1.
          1    1    3    3  501    0 -0.84719554180E+02 -0.16791607550E+03  0.92675951250E+02  0.20967127417E+03  0.00000000000E+00 0.  1.
         21    1    1    2  502  501  0.74160842238E+01 -0.54834471113E+02 -0.18420176798E+02  0.58319125857E+02  0.00000000000E+00 0.  1.
<scales pt_clust_4="550.00000" pt_clust_5="550.00000" pt_clust_6="55.33372"></scales>
<mgrwt>
<rscale>  0 0.30000000E+03</rscale>
<asrwt>  1 0.55333720E+02</asrwt>
<pdfrwt beam="1">  1        1 0.90598499E+00 0.30000000E+03</pdfrwt>
<pdfrwt beam="2">0</pdfrwt>
<totfact> 0.81471324E-05</totfact>
</mgrwt>
<clustering>
<clus scale="   55.334">  1  6  2 -1</clus>
<clus scale="  462.469">  4  5 -1 -1</clus>
<clus scale="  300.000">  1  4  2 -1</clus>
</clustering>
</event>
<event>
 6    1  0.1033679E-011  0.3000000E+03  0.7818608E-02  0.1093470E+00
          1   -1    0    0  502    0  0.00000000000E+00  0.00000000000E+00  0.24114123333E+03  0.24114123333E+03  0.00000000000E+00 0.  1.
         13   -1    0    0    0    0 -0.00000000000E+00 -0.00000000000E+00 -0.27500000000E+03  0.27500000000E+03  0.00000000000E+00 0.  1.
    9000005    2    1    2  501    0  0.35530935323E+02  0.94861229167E+00 -0.65273604360E+02  0.46870454650E+03  0.46277420115E+03 0.  0.
         13    1    3    3    0    0  0.22376950247E+03  0.10457673244E+03 -0.57922787941E+02  0.25370087223E+03  0.00000000000E+00 0.  1.
          1    1    3    3  501    0 -0.18823856715E+03 -0.10362812015E+03 -0.73508164189E+01  0.21500367427E+03  0.00000000000E+00 0.  1.
         21    1    1    2  502  501 -0.35530935323E+02 -0.94861229167E+00  0.31414837686E+02  0.47436686826E+02  0.00000000000E+00 0. -1.
<scales pt_clust_4="550.00000" pt_clust_5="550.00000" pt_clust_6="35.54360"></scales>
<mgrwt>
<rscale>  0 0.30000000E+03</rscale>
<asrwt>  1 0.35543596E+02</asrwt>
<pdfrwt beam="1">  1        1 0.87687721E+00 0.30000000E+03</pdfrwt>
<pdfrwt beam="2">0</pdfrwt>
<totfact> 0.21404632E-04</totfact>
</mgrwt>
<clustering>
<clus scale="   35.544">  1  6  2 -1</clus>
<clus scale="  462.774">  4  5 -1 -1</clus>
<clus scale="  300.000">  1  4  2 -1</clus>
</clustering>
</event>
<event>
 6    1  0.1033679E-011  0.3000000E+03  0.7818608E-02  0.1093470E+00
          1   -1    0    0  502    0  0.00000000000E+00  0.00000000000E+00  0.22093752990E+03  0.22093752990E+03  0.00000000000E+00 0.  1.
         13   -1    0    0    0    0 -0.00000000000E+00 -0.00000000000E+00 -0.27500000000E+03  0.27500000000E+03  0.00000000000E+00 0.  1.
    9000005    2    1    2  501    0  0.24327025844E+02 -0.21182987529E+02 -0.41519289671E+02  0.46132749491E+03  0.45832159342E+03 0.  0.
         13    1    3    3    0    0  0.50319350123E+02  0.19240082619E+03 -0.12003484017E+03  0.23228964198E+03  0.00000000000E+00 0.  1.
          1    1    3    3  501    0 -0.25992324279E+02 -0.21358381372E+03  0.78515550497E+02  0.22903785293E+03  0.00000000000E+00 0.  1.
         21    1    1    2  502  501 -0.24327025844E+02  0.21182987529E+02 -0.12543180426E+02  0.34610034994E+02  0.00000000000E+00 0. -1.
<scales pt_clust_4="550.00000" pt_clust_5="550.00000" pt_clust_6="32.25716"></scales>
<mgrwt>
<rscale>  0 0.30000000E+03</rscale>
<asrwt>  1 0.32257157E+02</asrwt>
<pdfrwt beam="1">  1        1 0.80340920E+00 0.30000000E+03</pdfrwt>
<pdfrwt beam="2">0</pdfrwt>
<totfact> 0.99456338E-04</totfact>
</mgrwt>
<clustering>
<clus scale="   32.257">  1  6  2 -1</clus>
<clus scale="  458.322">  4  5 -1 -1</clus>
<clus scale="  300.000">  1  4  2 -1</clus>
</clustering>
</event>
<event>
 6    1  0.1033679E-011  0.3000000E+03  0.7818608E-02  0.1093470E+00
          1   -1    0    0  502    0  0.00000000000E+00  0.00000000000E+00  0.22449681653E+03  0.22449681653E+03  0.00000000000E+00 0.  1.
         13   -1    0    0    0    0 -0.00000000000E+00 -0.00000000000E+00 -0.27500000000E+03  0.27500000000E+03  0.00000000000E+00 0.  1.
    9000005    2    1    2  501    0  0.27279637762E+02  0.18500637897E+02 -0.62902849242E+02  0.46428028703E+03  0.45881691800E+03 0.  0.
         13    1    3    3    0    0  0.20468081939E+03  0.13721729793E+03 -0.38996503812E+02  0.24948657677E+03  0.00000000000E+00 0.  1.
          3    1    3    3  501    0 -0.17740118163E+03 -0.11871666004E+03 -0.23906345429E+02  0.21479371026E+03  0.00000000000E+00 0.  1.
         21    1    1    2  502  501 -0.27279637762E+02 -0.18500637897E+02  0.12399665773E+02  0.35216529504E+02  0.00000000000E+00 0. -1.
<scales pt_clust_4="550.00000" pt_clust_5="550.00000" pt_clust_6="32.96137"></scales>
<mgrwt>
<rscale>  0 0.30000000E+03</rscale>
<asrwt>  1 0.32961375E+02</asrwt>
<pdfrwt beam="1">  1        1 0.81635206E+00 0.30000000E+03</pdfrwt>
<pdfrwt beam="2">0</pdfrwt>
<totfact> 0.78495340E-04</totfact>
</mgrwt>
<clustering>
<clus scale="   32.961">  1  6  2 -1</clus>
<clus scale="  458.817">  4  5 -1 -1</clus>
<clus scale="  300.000">  1  4  2 -1</clus>
</clustering>
</event>
<event>
 6    1  0.1033679E-011  0.3000000E+03  0.7818608E-02  0.1093470E+00
          1   -1    0    0  502    0  0.00000000000E+00  0.00000000000E+00  0.23986721986E+03  0.23986721986E+03  0.00000000000E+00 0.  1.
         13   -1    0    0    0    0 -0.00000000000E+00 -0.00000000000E+00 -0.27500000000E+03  0.27500000000E+03  0.00000000000E+00 0.  1.
    9000005    2    1    2  501    0  0.16719060965E+02 -0.26374021228E+02 -0.32153496564E+02  0.48349857108E+03  0.48141656068E+03 0.  0.
         13    1    3    3    0    0  0.14984530152E+03  0.21130394465E+02 -0.20841647545E+03  0.25756074079E+03  0.00000000000E+00 0.  1.
          3    1    3    3  501    0 -0.13312624055E+03 -0.47504415693E+02  0.17626297888E+03  0.22593783029E+03  0.00000000000E+00 0.  1.
         21    1    1    2  502  501 -0.16719060965E+02  0.26374021228E+02 -0.29792835810E+01  0.31368648775E+02  0.00000000000E+00 0.  1.
<scales pt_clust_4="550.00000" pt_clust_5="550.00000" pt_clust_6="31.22686"></scales>
<mgrwt>
<rscale>  0 0.30000000E+03</rscale>
<asrwt>  1 0.31226863E+02</asrwt>
<pdfrwt beam="1">  1        1 0.87224444E+00 0.30000000E+03</pdfrwt>
<pdfrwt beam="2">0</pdfrwt>
<totfact> 0.24546689E-04</totfact>
</mgrwt>
<clustering>
<clus scale="   31.227">  1  6  2 -1</clus>
<clus scale="  481.417">  4  5 -1 -1</clus>
<clus scale="  300.000">  1  4  2 -1</clus>
</clustering>
</event>
<event>
 6    1  0.1033679E-011  0.3000000E+03  0.7818608E-02  0.1093470E+00
          1   -1    0    0  502    0  0.00000000000E+00  0.00000000000E+00  0.23473411673E+03  0.23473411673E+03  0.00000000000E+00 0.  1.
         13   -1    0    0    0    0 -0.00000000000E+00 -0.00000000000E+00 -0.27500000000E+03  0.27500000000E+03  0.00000000000E+00 0.  1.
    9000005    2    1    2  501    0 -0.18825941536E+02 -0.25684805732E+02 -0.37396330632E+02  0.47775975743E+03  0.47522812938E+03 0.  0.
         13    1    3    3    0    0  0.17180507253E+02 -0.21105150643E+03 -0.14853369994E+03  0.25865066830E+03  0.00000000000E+00 0.  1.
          1    1    3    3  501    0 -0.36006448789E+02  0.18536670070E+03  0.11113736931E+03  0.21910908913E+03  0.00000000000E+00 0.  1.
         21    1    1    2  502  501  0.18825941536E+02  0.25684805732E+02 -0.28695526371E+01  0.31974359298E+02  0.00000000000E+00 0. -1.
<scales pt_clust_4="550.00000" pt_clust_5="550.00000" pt_clust_6="31.84535"></scales>
<mgrwt>
<rscale>  0 0.30000000E+03</rscale>
<asrwt>  1 0.31845350E+02</asrwt>
<pdfrwt beam="1">  1        1 0.85357861E+00 0.30000000E+03</pdfrwt>
<pdfrwt beam="2">0</pdfrwt>
<totfact> 0.38295278E-04</totfact>
</mgrwt>
<clustering>
<clus scale="   31.845">  1  6  2 -1</clus>
<clus scale="  475.228">  4  5 -1 -1</clus>
<clus scale="  300.000">  1  4  2 -1</clus>
</clustering>
</event>
<event>
 6    1  0.1033679E-011  0.3000000E+03  0.7818608E-02  0.1093470E+00
          1   -1    0    0  502    0  0.00000000000E+00  0.00000000000E+00  0.23100759224E+03  0.23100759224E+03  0.00000000000E+00 0.  1.
         13   -1    0    0    0    0 -0.00000000000E+00 -0.00000000000E+00 -0.27500000000E+03  0.27500000000E+03  0.00000000000E+00 0.  1.
    9000005    2    1    2  501    0  0.75963683095E+01  0.29276926483E+02 -0.48833374365E+02  0.47537626525E+03  0.47189305131E+03 0.  0.
         13    1    3    3    0    0  0.16841101975E+03  0.17259815813E+03 -0.87479677301E+02  0.25652502744E+03  0.00000000000E+00 0.  1.
          1    1    3    3  501    0 -0.16081465144E+03 -0.14332123165E+03  0.38646302935E+02  0.21885123781E+03  0.00000000000E+00 0.  1.
         21    1    1    2  502  501 -0.75963683095E+01 -0.29276926483E+02  0.48409666060E+01  0.30631326995E+02  0.00000000000E+00 0. -1.
<scales pt_clust_4="550.00000" pt_clust_5="550.00000" pt_clust_6="30.24638"></scales>
<mgrwt>
<rscale>  0 0.30000000E+03</rscale>
<asrwt>  1 0.30246376E+02</asrwt>
<pdfrwt beam="1">  1        1 0.84002761E+00 0.30000000E+03</pdfrwt>
<pdfrwt beam="2">0</pdfrwt>
<totfact> 0.51074382E-04</totfact>
</mgrwt>
<clustering>
<clus scale="   30.246">  1  6  2 -1</clus>
<clus scale="  471.893">  4  5 -1 -1</clus>
<clus scale="  300.000">  1  4  2 -1</clus>
</clustering>
</event>
<event>
 6    1  0.1033679E-011  0.3000000E+03  0.7818608E-02  0.1093470E+00
          1   -1    0    0  502    0  0.00000000000E+00  0.00000000000E+00  0.22015767644E+03  0.22015767644E+03  0.00000000000E+00 0.  1.
         13   -1    0    0    0    0 -0.00000000000E+00 -0.00000000000E+00 -0.27500000000E+03  0.27500000000E+03  0.00000000000E+00 0.  1.
    9000005    2    1    2  501    0 -0.81523285440E+00 -0.30608399975E+02 -0.57222792414E+02  0.46444602741E+03  0.45988925369E+03 0.  0.
         13    1    3    3    0    0  0.10690263673E+02 -0.19857686735E+03  0.10990782716E+03  0.22721528218E+03  0.00000000000E+00 0.  1.
          3    1    3    3  501    0 -0.11505496527E+02  0.16796846738E+03 -0.16713061958E+03  0.23723074523E+03  0.00000000000E+00 0.  1.
         21    1    1    2  502  501  0.81523285440E+00  0.30608399975E+02  0.23804688495E+01  0.30711649021E+02  0.00000000000E+00 0. -1.
<scales pt_clust_4="550.00000" pt_clust_5="550.00000" pt_clust_6="30.61925"></scales>
<mgrwt>
<rscale>  0 0.30000000E+03</rscale>
<asrwt>  1 0.30619255E+02</asrwt>
<pdfrwt beam="1">  1        1 0.80057337E+00 0.30000000E+03</pdfrwt>
<pdfrwt beam="2">0</pdfrwt>
<totfact> 0.10535149E-03</totfact>
</mgrwt>
<clustering>
<clus scale="   30.619">  1  6  2 -1</clus>
<clus scale="  459.889">  4  5 -1 -1</clus>
<clus scale="  300.000">  1  4  2 -1</clus>
</clustering>
</event>
<event>
 6    1  0.1033679E-011  0.3000000E+03  0.7818608E-02  0.1093470E+00
          1   -1    0    0  502    0  0.00000000000E+00  0.00000000000E+00  0.22356818363E+03  0.22356818363E+03  0.00000000000E+00 0.  1.
         13   -1    0    0    0    0 -0.00000000000E+00 -0.00000000000E+00 -0.27500000000E+03  0.27500000000E+03  0.00000000000E+00 0.  1.
    9000005    2    1    2  501    0  0.28628841817E+02  0.14448042403E+02 -0.37241826253E+02  0.46350092921E+03  0.46088805717E+03 0.  0.
         13    1    3    3    0    0 -0.31631553587E+02  0.22819041584E+03  0.27934063441E+02  0.23205976162E+03  0.00000000000E+00 0.  1.
          3    1    3    3  501    0  0.60260395404E+02 -0.21374237344E+03 -0.65175889694E+02  0.23144116759E+03  0.00000000000E+00 0.  1.
         21    1    1    2  502  501 -0.28628841817E+02 -0.14448042403E+02 -0.14189990119E+02  0.35067254422E+02  0.00000000000E+00 0.  1.
<scales pt_clust_4="550.00000" pt_clust_5="550.00000" pt_clust_6="32.06801"></scales>
<mgrwt>
<rscale>  0 0.30000000E+03</rscale>
<asrwt>  1 0.32068014E+02</asrwt>
<pdfrwt beam="1">  1        1 0.81297521E+00 0.30000000E+03</pdfrwt>
<pdfrwt beam="2">0</pdfrwt>
<totfact> 0.84010149E-04</totfact>
</mgrwt>
<clustering>
<clus scale="   32.068">  1  6  2 -1</clus>
<clus scale="  460.888">  4  5 -1 -1</clus>
<clus scale="  300.000">  1  4  2 -1</clus>
</clustering>
</event>
<event>
 6    1  0.1033679E-011  0.3000000E+03  0.7818608E-02  0.1093470E+00
          1   -1    0    0  502    0  0.00000000000E+00  0.00000000000E+00  0.22887006132E+03  0.22887006132E+03  0.00000000000E+00 0.  1.
         13   -1    0    0    0    0 -0.00000000000E+00 -0.00000000000E+00 -0.27500000000E+03  0.27500000000E+03  0.00000000000E+00 0.  1.
    9000005    2    1    2  501    0  0.26764711945E+02 -0.26202593406E+02 -0.57728873935E+02  0.46465959071E+03  0.45953562065E+03 0.  0.
         13    1    3    3    0    0  0.22887545517E+03  0.63014471512E+02 -0.55171521167E+02  0.24371847355E+03  0.00000000000E+00 0.  1.
          3    1    3    3  501    0 -0.20211074323E+03 -0.89217064919E+02 -0.25573527672E+01  0.22094111716E+03  0.00000000000E+00 0.  1.
         21    1    1    2  502  501 -0.26764711945E+02  0.26202593406E+02  0.11598935258E+02  0.39210470615E+02  0.00000000000E+00 0.  1.
<scales pt_clust_4="550.00000" pt_clust_5="550.00000" pt_clust_6="37.45565"></scales>
<mgrwt>
<rscale>  0 0.30000000E+03</rscale>
<asrwt>  1 0.37455650E+02</asrwt>
<pdfrwt beam="1">  1        1 0.83225477E+00 0.30000000E+03</pdfrwt>
<pdfrwt beam="2">0</pdfrwt>
<totfact> 0.56001017E-04</totfact>
</mgrwt>
<clustering>
<clus scale="   37.456">  1  6  2 -1</clus>
<clus scale="  459.536">  4  5 -1 -1</clus>
<clus scale="  300.000">  1  4  2 -1</clus>
</clustering>
</event>
<event>
 6    1  0.1033679E-011  0.3000000E+03  0.7818608E-02  0.1093470E+00
          1   -1    0    0  502    0  0.00000000000E+00  0.00000000000E+00  0.23805014184E+03  0.23805014184E+03  0.00000000000E+00 0.  1.
         13   -1    0    0    0    0 -0.00000000000E+00 -0.00000000000E+00 -0.27500000000E+03  0.27500000000E+03  0.00000000000E+00 0.  1.
    9000005    2    1    2  501    0  0.26920590161E+02 -0.31767843860E+02 -0.39415520220E+02  0.47133691171E+03  0.46783649604E+03 0.  0.
         13    1    3    3    0    0  0.19786925790E+03 -0.73581849555E+02 -0.15402129303E+03  0.26132181408E+03  0.00000000000E+00 0.  1.
          1    1    3    3  501    0 -0.17094866774E+03  0.41814005695E+02  0.11460577281E+03  0.21001509764E+03  0.00000000000E+00 0.  1.
         21    1    1    2  502  501 -0.26920590161E+02  0.31767843860E+02  0.24656620594E+01  0.41713230126E+02  0.00000000000E+00 0.  1.
<scales pt_clust_4="550.00000" pt_clust_5="550.00000" pt_clust_6="41.64029"></scales>
<mgrwt>
<rscale>  0 0.30000000E+03</rscale>
<asrwt>  1 0.41640294E+02</asrwt>
<pdfrwt beam="1">  1        1 0.86563688E+00 0.30000000E+03</pdfrwt>
<pdfrwt beam="2">0</pdfrwt>
<totfact> 0.27238846E-04</totfact>
</mgrwt>
<clustering>
<clus scale="   41.640">  1  6  2 -1</clus>
<clus scale="  467.836">  4  5 -1 -1</clus>
<clus scale="  300.000">  1  4  2 -1</clus>
</clustering>
</event>
<event>
 6    1  0.1033679E-011  0.3000000E+03  0.7818608E-02  0.1093470E+00
          1   -1    0    0  502    0  0.00000000000E+00  0.00000000000E+00  0.24166798490E+03  0.24166798490E+03  0.00000000000E+00 0.  1.
         13   -1    0    0    0    0 -0.00000000000E+00 -0.00000000000E+00 -0.27500000000E+03  0.27500000000E+03  0.00000000000E+00 0.  1.
    9000005    2    1    2  501    0  0.25362060748E+02  0.21730448207E+02 -0.42795902332E+02  0.48195470695E+03  0.47888767345E+03 0.  0.
         13    1    3    3    0    0  0.55851073240E+02  0.10690379368E+03 -0.23799373565E+03  0.26681225927E+03  0.00000000000E+00 0.  1.
          1    1    3    3  501    0 -0.30489012493E+02 -0.85173345474E+02  0.19519783332E+03  0.21514244768E+03  0.00000000000E+00 0.  1.
         21    1    1    2  502  501 -0.25362060748E+02 -0.21730448207E+02  0.94638872306E+01  0.34713277952E+02  0.00000000000E+00 0.  1.
<scales pt_clust_4="550.00000" pt_clust_5="550.00000" pt_clust_6="33.39830"></scales>
<mgrwt>
<rscale>  0 0.30000000E+03</rscale>
<asrwt>  1 0.33398301E+02</asrwt>
<pdfrwt beam="1">  1        1 0.87879267E+00 0.30000000E+03</pdfrwt>
<pdfrwt beam="2">0</pdfrwt>
<totfact> 0.20591964E-04</totfact>
</mgrwt>
<clustering>
<clus scale="   33.398">  1  6  2 -1</clus>
<clus scale="  478.888">  4  5 -1 -1</clus>
<clus scale="  300.000">  1  4  2 -1</clus>
</clustering>
</event>
<event>
 6    1  0.1033679E-011  0.3000000E+03  0.7818608E-02  0.1093470E+00
          1   -1    0    0  502    0  0.00000000000E+00  0.00000000000E+00  0.24032624402E+03  0.24032624402E+03  0.00000000000E+00 0.  1.
         13   -1    0    0    0    0 -0.00000000000E+00 -0.00000000000E+00 -0.27500000000E+03  0.27500000000E+03  0.00000000000E+00 0.  1.
    9000005    2    1    2  501    0 -0.33726405866E+02 -0.26036165357E+02 -0.22616480093E+02  0.47104611009E+03  0.46856971765E+03 0.  0.
         13    1    3    3    0    0  0.20827087120E+03 -0.78596723107E+02 -0.18459410065E+02  0.22337177640E+03  0.00000000000E+00 0.  1.
          1    1    3    3  501    0 -0.24199727706E+03  0.52560557751E+02 -0.41570700278E+01  0.24767433369E+03  0.00000000000E+00 0.  1.
         21    1    1    2  502  501  0.33726405866E+02  0.26036165357E+02 -0.12057275886E+02  0.44280133931E+02  0.00000000000E+00 0.  1.
<scales pt_clust_4="550.00000" pt_clust_5="550.00000" pt_clust_6="42.60697"></scales>
<mgrwt>
<rscale>  0 0.30000000E+03</rscale>
<asrwt>  1 0.42606973E+02</asrwt>
<pdfrwt beam="1">  1        1 0.87391361E+00 0.30000000E+03</pdfrwt>
<pdfrwt beam="2">0</pdfrwt>
<totfact> 0.22271085E-04</totfact>
</mgrwt>
<clustering>
<clus scale="   42.607">  1  6  2 -1</clus>
<clus scale="  468.570">  4  5 -1 -1</clus>
<clus scale="  300.000">  1  4  2 -1</clus>
</clustering>
</event>
<event>
 6    1  0.1033679E-011  0.3000000E+03  0.7818608E-02  0.1093470E+00
          1   -1    0    0  502    0  0.00000000000E+00  0.00000000000E+00  0.23548909304E+03  0.23548909304E+03  0.00000000000E+00 0.  1.
         13   -1    0    0    0    0 -0.00000000000E+00 -0.00000000000E+00 -0.27500000000E+03  0.27500000000E+03  0.00000000000E+00 0.  1.
    9000005    2    1    2  501    0 -0.48235486089E+01 -0.33949804651E+02 -0.64138436438E+02  0.46827095635E+03  0.46258847119E+03 0.  0.
         13    1    3    3    0    0  0.19498416244E+03  0.61673693167E+02  0.61573953607E+02  0.21357392115E+03  0.00000000000E+00 0.  1.
          1    1    3    3  501    0 -0.19980771105E+03 -0.95623497818E+02 -0.12571239005E+03  0.25469703520E+03  0.00000000000E+00 0.  1.
         21    1    1    2  502  501  0.48235486089E+01  0.33949804651E+02  0.24627529474E+02  0.42218136684E+02  0.00000000000E+00 0. -1.
<scales pt_clust_4="550.00000" pt_clust_5="550.00000" pt_clust_6="34.29075"></scales>
<mgrwt>
<rscale>  0 0.30000000E+03</rscale>
<asrwt>  1 0.34290755E+02</asrwt>
<pdfrwt beam="1">  1        1 0.85632397E+00 0.30000000E+03</pdfrwt>
<pdfrwt beam="2">0</pdfrwt>
<totfact> 0.35471015E-04</totfact>
</mgrwt>
<clustering>
<clus scale="   34.291">  1  6  2 -1</clus>
<clus scale="  462.588">  4  5 -1 -1</clus>
<clus scale="  300.000">  1  4  2 -1</clus>
</clustering>
</event>
<event>
 6    1  0.1033679E-011  0.3000000E+03  0.7818608E-02  0.1093470E+00
          1   -1    0    0  502    0  0.00000000000E+00  0.00000000000E+00  0.23157519868E+03  0.23157519868E+03  0.00000000000E+00 0.  1.
         13   -1    0    0    0    0 -0.00000000000E+00 -0.00000000000E+00 -0.27500000000E+03  0.27500000000E+03  0.00000000000E+00 0.  1.
    9000005    2    1    2  501    0 -0.38158761761E+02  0.16758341557E+02 -0.53780167776E+02  0.46363143633E+03  0.45861189386E+03 0.  0.
         13    1    3    3    0    0 -0.70313331867E+02 -0.21464576601E+03 -0.41745313152E+02  0.22969423300E+03  0.00000000000E+00 0.  1.
          3    1    3    3  501    0  0.32154570106E+02  0.23140410756E+03 -0.12034854624E+02  0.23393720333E+03  0.00000000000E+00 0.  1.
         21    1    1    2  502  501  0.38158761761E+02 -0.16758341557E+02  0.10355366458E+02  0.42943762357E+02  0.00000000000E+00 0.  1.
<scales pt_clust_4="550.00000" pt_clust_5="550.00000" pt_clust_6="41.67653"></scales>
<mgrwt>
<rscale>  0 0.30000000E+03</rscale>
<asrwt>  1 0.41676529E+02</asrwt>
<pdfrwt beam="1">  1        1 0.84209163E+00 0.30000000E+03</pdfrwt>
<pdfrwt beam="2">0</pdfrwt>
<totfact> 0.46320417E-04</totfact>
</mgrwt>
<clustering>
<clus scale="   41.677">  1  6  2 -1</clus>
<clus scale="  458.612">  4  5 -1 -1</clus>
<clus scale="  300.000">  1  4  2 -1</clus>
</clustering>
</event>
<event>
 6    1  0.1033679E-011  0.3000000E+03  0.7818608E-02  0.1093470E+00
          1   -1    0    0  502    0  0.00000000000E+00  0.00000000000E+00  0.23864520162E+03  0.23864520162E+03  0.00000000000E+00 0.  1.
         13   -1    0    0    0    0 -0.00000000000E+00 -0.00000000000E+00 -0.27500000000E+03  0.27500000000E+03  0.00000000000E+00 0.  1.
    9000005    2    1    2  501    0 -0.31816147904E+02 -0.10022316894E+01 -0.67156679578E+02  0.46935042065E+03  0.46342909492E+03 0.  0.
         13    1    3    3    0    0  0.14022168730E+03  0.52533238694E+02 -0.19686624474E+03  0.24734223471E+03  0.00000000000E+00 0.  1.
          1    1    3    3  501    0 -0.17203783520E+03 -0.53535470383E+02  0.12970956516E+03  0.22200818594E+03  0.00000000000E+00 0.  1.
         21    1    1    2  502  501  0.31816147904E+02  0.10022316894E+01  0.30801881201E+02  0.44294780972E+02  0.00000000000E+00 0.  1.
<scales pt_clust_4="550.00000" pt_clust_5="550.00000" pt_clust_6="31.83193"></scales>
<mgrwt>
<rscale>  0 0.30000000E+03</rscale>
<asrwt>  1 0.31831930E+02</asrwt>
<pdfrwt beam="1">  1        1 0.86780073E+00 0.30000000E+03</pdfrwt>
<pdfrwt beam="2">0</pdfrwt>
<totfact> 0.27163829E-04</totfact>
</mgrwt>
<clustering>
<clus scale="   31.832">  1  6  2 -1</clus>
<clus scale="  463.429">  4  5 -1 -1</clus>
<clus scale="  300.000">  1  4  2 -1</clus>
</clustering>
</event>
<event>
 6    1  0.1033679E-011  0.3000000E+03  0.7818608E-02  0.1093470E+00
          1   -1    0    0  502    0  0.00000000000E+00  0.00000000000E+00  0.23249697810E+03  0.23249697810E+03  0.00000000000E+00 0.  1.
         13   -1    0    0    0    0 -0.00000000000E+00 -0.00000000000E+00 -0.27500000000E+03  0.27500000000E+03  0.00000000000E+00 0.  1.
    9000005    2    1    2  501    0  0.20992454116E+01  0.32588494868E+02 -0.35928084034E+02  0.47418561912E+03  0.47169349935E+03 0.  0.
         13    1    3    3    0    0 -0.19388212974E+03 -0.11266816031E+03 -0.50320112340E+02  0.22981842460E+03  0.00000000000E+00 0.  1.
          1    1    3    3  501    0  0.19598137515E+03  0.14525665518E+03  0.14392028306E+02  0.24436719452E+03  0.00000000000E+00 0.  1.
         21    1    1    2  502  501 -0.20992454116E+01 -0.32588494868E+02 -0.65749378672E+01  0.33311358979E+02  0.00000000000E+00 0.  1.
<scales pt_clust_4="550.00000" pt_clust_5="550.00000" pt_clust_6="32.65605"></scales>
<mgrwt>
<rscale>  0 0.30000000E+03</rscale>
<asrwt>  1 0.32656055E+02</asrwt>
<pdfrwt beam="1">  1        1 0.84544356E+00 0.30000000E+03</pdfrwt>
<pdfrwt beam="2">0</pdfrwt>
<totfact> 0.45367601E-04</totfact>
</mgrwt>
<clustering>
<clus scale="   32.656">  1  6  2 -1</clus>
<clus scale="  471.693">  4  5 -1 -1</clus>
<clus scale="  300.000">  1  4  2 -1</clus>
</clustering>
</event>
<event>
 6    1  0.1033679E-011  0.3000000E+03  0.7818608E-02  0.1093470E+00
          1   -1    0    0  502    0  0.00000000000E+00  0.00000000000E+00  0.25936497480E+03  0.25936497480E+03  0.00000000000E+00 0.  1.
         13   -1    0    0    0    0 -0.00000000000E+00 -0.00000000000E+00 -0.27500000000E+03  0.27500000000E+03  0.00000000000E+00 0.  1.
    9000005    2    1    2  501    0 -0.31200677447E+02 -0.60736186600E+01 -0.48483066343E+02  0.48865540333E+03  0.48520420893E+03 0.  0.
         13    1    3    3    0    0 -0.72371197412E+02  0.20021660264E+03 -0.14462010044E+03  0.25736987321E+03  0.00000000000E+00 0.  1.
          3    1    3    3  501    0  0.41170519965E+02 -0.20629022130E+03  0.96137034095E+02  0.23128553012E+03  0.00000000000E+00 0.  1.
         21    1    1    2  502  501  0.31200677447E+02  0.60736186600E+01  0.32848041138E+02  0.45709571463E+02  0.00000000000E+00 0.  1.
<scales pt_clust_4="550.00000" pt_clust_5="550.00000" pt_clust_6="31.78634"></scales>
<mgrwt>
<rscale>  0 0.30000000E+03</rscale>
<asrwt>  1 0.31786335E+02</asrwt>
<pdfrwt beam="1">  1        1 0.94314536E+00 0.30000000E+03</pdfrwt>
<pdfrwt beam="2">0</pdfrwt>
<totfact> 0.17163554E-05</totfact>
</mgrwt>
<clustering>
<clus scale="   31.786">  1  6  2 -1</clus>
<clus scale="  485.204">  4  5 -1 -1</clus>
<clus scale="  300.000">  1  4  2 -1</clus>
</clustering>
</event>
<event>
 6    1  0.1033679E-011  0.3000000E+03  0.7818608E-02  0.1093470E+00
          1   -1    0    0  502    0  0.00000000000E+00  0.00000000000E+00  0.22117246759E+03  0.22117246759E+03  0.00000000000E+00 0.  1.
         13   -1    0    0    0    0 -0.00000000000E+00 -0.00000000000E+00 -0.27500000000E+03  0.27500000000E+03  0.00000000000E+00 0.  1.
    9000005    2    1    2  501    0 -0.29444564054E+02  0.95249218119E+01 -0.62628842515E+02  0.46399841675E+03  0.45870955118E+03 0.  0.
         13    1    3    3    0    0 -0.19865026087E+02  0.34744862838E+02  0.19798608228E+03  0.20199087487E+03  0.00000000000E+00 0.  1.
          1    1    3    3  501    0 -0.95795379673E+01 -0.25219941026E+02 -0.26061492480E+03  0.26200754188E+03  0.00000000000E+00 0.  1.
         21    1    1    2  502  501  0.29444564054E+02 -0.95249218119E+01  0.88013101082E+01  0.32174050841E+02  0.00000000000E+00 0. -1.
<scales pt_clust_4="550.00000" pt_clust_5="550.00000" pt_clust_6="30.94683"></scales>
<mgrwt>
<rscale>  0 0.30000000E+03</rscale>
<asrwt>  1 0.30946833E+02</asrwt>
<pdfrwt beam="1">  1        1 0.80426352E+00 0.30000000E+03</pdfrwt>
<pdfrwt beam="2">0</pdfrwt>
<totfact> 0.98791537E-04</totfact>
</mgrwt>
<clustering>
<clus scale="   30.947">  1  6  2 -1</clus>
<clus scale="  458.710">  4  5 -1 -1</clus>
<clus scale="  300.000">  1  4  2 -1</clus>
</clustering>
</event>
<event>
 6    1  0.1033679E-011  0.3000000E+03  0.7818608E-02  0.1093470E+00
          1   -1    0    0  502    0  0.00000000000E+00  0.00000000000E+00  0.23634847041E+03  0.23634847041E+03  0.00000000000E+00 0.  1.
         13   -1    0    0    0    0 -0.00000000000E+00 -0.00000000000E+00 -0.27500000000E+03  0.27500000000E+03  0.00000000000E+00 0.  1.
    9000005    2    1    2  501    0 -0.30344501636E+02 -0.10803314042E+02 -0.46160013729E+02  0.47827464832E+03  0.47495093639E+03 0.  0.
         13    1    3    3    0    0 -0.65234700555E+01  0.85343294609E+02 -0.24315422692E+03  0.25777899772E+03  0.00000000000E+00 0.  1.
          3    1    3    3  501    0 -0.23821031580E+02 -0.96146608651E+02  0.19699421319E+03  0.22049565060E+03  0.00000000000E+00 0.  1.
         21    1    1    2  502  501  0.30344501636E+02  0.10803314042E+02  0.75084841415E+01  0.33073822094E+02  0.00000000000E+00 0.  1.
<scales pt_clust_4="550.00000" pt_clust_5="550.00000" pt_clust_6="32.21025"></scales>
<mgrwt>
<rscale>  0 0.30000000E+03</rscale>
<asrwt>  1 0.32210253E+02</asrwt>
<pdfrwt beam="1">  1        1 0.85944898E+00 0.30000000E+03</pdfrwt>
<pdfrwt beam="2">0</pdfrwt>
<totfact> 0.33303345E-04</totfact>
</mgrwt>
<clustering>
<clus scale="   32.210">  1  6  2 -1</clus>
<clus scale="  474.951">  4  5 -1 -1</clus>
<clus scale="  300.000">  1  4  2 -1</clus>
</clustering>
</event>
<event>
 6    1  0.1033679E-011  0.3000000E+03  0.7818608E-02  0.1093470E+00
          1   -1    0    0  502    0  0.00000000000E+00  0.00000000000E+00  0.24793877068E+03  0.24793877068E+03  0.00000000000E+00 0.  1.
         13   -1    0    0    0    0 -0.00000000000E+00 -0.00000000000E+00 -0.27500000000E+03  0.27500000000E+03  0.00000000000E+00 0.  1.
    9000005    2    1    2  501    0 -0.36606464616E+02  0.66833970999E+01 -0.68872589626E+02  0.46696653739E+03  0.46035813493E+03 0.  0.
         13    1    3    3    0    0  0.17832173194E+03  0.73880536767E+02 -0.13110749132E+03  0.23333698394E+03  0.00000000000E+00 0.  1.
          3    1    3    3  501    0 -0.21492819656E+03 -0.67197139667E+02  0.62234901699E+02  0.23362955345E+03  0.00000000000E+00 0.  1.
         21    1    1    2  502  501  0.36606464616E+02 -0.66833970999E+01  0.41811360301E+02  0.55972233284E+02  0.00000000000E+00 0. -1.
<scales pt_clust_4="550.00000" pt_clust_5="550.00000" pt_clust_6="37.21157"></scales>
<mgrwt>
<rscale>  0 0.30000000E+03</rscale>
<asrwt>  1 0.37211571E+02</asrwt>
<pdfrwt beam="1">  1        1 0.90159553E+00 0.30000000E+03</pdfrwt>
<pdfrwt beam="2">0</pdfrwt>
<totfact> 0.10399777E-04</totfact>
</mgrwt>
<clustering>
<clus scale="   37.212">  1  6  2 -1</clus>
<clus scale="  460.358">  4  5 -1 -1</clus>
<clus scale="  300.000">  1  4  2 -1</clus>
</clustering>
</event>
<event>
 6    1  0.1033679E-011  0.3000000E+03  0.7818608E-02  0.1093470E+00
          1   -1    0    0  502    0  0.00000000000E+00  0.00000000000E+00  0.24761767540E+03  0.24761767540E+03  0.00000000000E+00 0.  1.
         13   -1    0    0    0    0 -0.00000000000E+00 -0.00000000000E+00 -0.27500000000E+03  0.27500000000E+03  0.00000000000E+00 0.  1.
    9000005    2    1    2  501    0 -0.39802311346E+02 -0.14866826829E+02 -0.62298421698E+02  0.46762330873E+03  0.46150321667E+03 0.  0.
         13    1    3    3    0    0 -0.14877048166E+03 -0.44150385273E+02  0.15715527258E+03  0.22086125154E+03  0.00000000000E+00 0.  1.
          3    1    3    3  501    0  0.10896817032E+03  0.29283558444E+02 -0.21945369428E+03  0.24676205719E+03  0.00000000000E+00 0.  1.
         21    1    1    2  502  501  0.39802311346E+02  0.14866826829E+02  0.34916097102E+02  0.54994366668E+02  0.00000000000E+00 0.  1.
<scales pt_clust_4="550.00000" pt_clust_5="550.00000" pt_clust_6="42.48819"></scales>
<mgrwt>
<rscale>  0 0.30000000E+03</rscale>
<asrwt>  1 0.42488193E+02</asrwt>
<pdfrwt beam="1">  1        1 0.90042791E+00 0.30000000E+03</pdfrwt>
<pdfrwt beam="2">0</pdfrwt>
<totfact> 0.10524956E-04</totfact>
</mgrwt>
<clustering>
<clus scale="   42.488">  1  6  2 -1</clus>
<clus scale="  461.503">  4  5 -1 -1</clus>
<clus scale="  300.000">  1  4  2 -1</clus>
</clustering>
</event>
<event>
 6    1  0.1033679E-011  0.3000000E+03  0.7818608E-02  0.1093470E+00
          1   -1    0    0  502    0  0.00000000000E+00  0.00000000000E+00  0.26860328775E+03  0.26860328775E+03  0.00000000000E+00 0.  1.
         13   -1    0    0    0    0 -0.00000000000E+00 -0.00000000000E+00 -0.27500000000E+03  0.27500000000E+03  0.00000000000E+00 0.  1.
    9000005    2    1    2  501    0  0.22829751287E+02 -0.25782451731E+02 -0.45298716600E+02  0.49164851604E+03  0.48834450671E+03 0.  0.
         13    1    3    3    0    0 -0.47731912094E+02 -0.46577752828E+02 -0.25805506722E+03  0.26653375060E+03  0.00000000000E+00 0.  1.
          1    1    3    3  501    0  0.70561663381E+02  0.20795301097E+02  0.21275635062E+03  0.22511476544E+03  0.00000000000E+00 0.  1.
         21    1    1    2  502  501 -0.22829751287E+02  0.25782451731E+02  0.38902004346E+02  0.51954771708E+02  0.00000000000E+00 0.  1.
<scales pt_clust_4="550.00000" pt_clust_5="550.00000" pt_clust_6="34.43737"></scales>
<mgrwt>
<rscale>  0 0.30000000E+03</rscale>
<asrwt>  1 0.34437369E+02</asrwt>
<pdfrwt beam="1">  1        1 0.97673923E+00 0.30000000E+03</pdfrwt>
<pdfrwt beam="2">0</pdfrwt>
<totfact> 0.37053470E-06</totfact>
</mgrwt>
<clustering>
<clus scale="   34.437">  1  6  2 -1</clus>
<clus scale="  488.345">  4  5 -1 -1</clus>
<clus scale="  300.000">  1  4  2 -1</clus>
</clustering>
</event>
<event>
 6    1  0.1033679E-011  0.3000000E+03  0.7818608E-02  0.1093470E+00
          1   -1    0    0  502    0  0.00000000000E+00  0.00000000000E+00  0.23628219943E+03  0.23628219943E+03  0.00000000000E+00 0.  1.
         13   -1    0    0    0    0 -0.00000000000E+00 -0.00000000000E+00 -0.27500000000E+03  0.27500000000E+03  0.00000000000E+00 0.  1.
    9000005    2    1    2  501    0  0.19834844085E+02 -0.32290158241E+02 -0.66369722869E+02  0.46437053600E+03  0.45803818534E+03 0.  0.
         13    1    3    3    0    0  0.99251606023E+02  0.62903625163E+02 -0.23047546992E+03  0.25870193195E+03  0.00000000000E+00 0.  1.
          1    1    3    3  501    0 -0.79416761938E+02 -0.95193783404E+02  0.16410574705E+03  0.20566860405E+03  0.00000000000E+00 0.  1.
         21    1    1    2  502  501 -0.19834844085E+02  0.32290158241E+02  0.27651922296E+02  0.46911663430E+02  0.00000000000E+00 0.  1.
<scales pt_clust_4="550.00000" pt_clust_5="550.00000" pt_clust_6="37.89558"></scales>
<mgrwt>
<rscale>  0 0.30000000E+03</rscale>
<asrwt>  1 0.37895585E+02</asrwt>
<pdfrwt beam="1">  1        1 0.85920800E+00 0.30000000E+03</pdfrwt>
<pdfrwt beam="2">0</pdfrwt>
<totfact> 0.32496208E-04</totfact>
</mgrwt>
<clustering>
<clus scale="   37.896">  1  6  2 -1</clus>
<clus scale="  458.038">  4  5 -1 -1</clus>
<clus scale="  300.000">  1  4  2 -1</clus>
</clustering>
</event>
<event>
 6    1  0.1033679E-011  0.3000000E+03  0.7818608E-02  0.1093470E+00
          1   -1    0    0  502    0  0.00000000000E+00  0.00000000000E+00  0.25047221767E+03  0.25047221767E+03  0.00000000000E+00 0.  1.
         13   -1    0    0    0    0 -0.00000000000E+00 -0.00000000000E+00 -0.27500000000E+03  0.27500000000E+03  0.00000000000E+00 0.  1.
    9000005    2    1    2  501    0  0.40812754780E+02 -0.12645707316E+02 -0.25553608464E+02  0.48273292445E+03  0.48015882224E+03 0.  0.
         13    1    3    3    0    0  0.16477796657E+03 -0.18439153087E+03  0.59724004666E+02  0.25439923674E+03  0.00000000000E+00 0.  1.
          1    1    3    3  501    0 -0.12396521179E+03  0.17174582355E+03 -0.85277613130E+02  0.22833368771E+03  0.00000000000E+00 0.  1.
         21    1    1    2  502  501 -0.40812754780E+02  0.12645707316E+02  0.10258261384E+01  0.42739293227E+02  0.00000000000E+00 0.  1.
<scales pt_clust_4="550.00000" pt_clust_5="550.00000" pt_clust_6="42.72698"></scales>
<mgrwt>
<rscale>  0 0.30000000E+03</rscale>
<asrwt>  1 0.42726981E+02</asrwt>
<pdfrwt beam="1">  1        1 0.91080806E+00 0.30000000E+03</pdfrwt>
<pdfrwt beam="2">0</pdfrwt>
<totfact> 0.66181118E-05</totfact>
</mgrwt>
<clustering>
<clus scale="   42.727">  1  6  2 -1</clus>
<clus scale="  480.159">  4  5 -1 -1</clus>
<clus scale="  300.000">  1  4  2 -1</clus>
</clustering>
</event>
<event>
 6    1  0.1033679E-011  0.3000000E+03  0.7818608E-02  0.1093470E+00
          1   -1    0    0  502    0  0.00000000000E+00  0.00000000000E+00  0.24278672923E+03  0.24278672923E+03  0.00000000000E+00 0.  1.
         13   -1    0    0    0    0 -0.00000000000E+00 -0.00000000000E+00 -0.27500000000E+03  0.27500000000E+03  0.00000000000E+00 0.  1.
    9000005    2    1    2  501    0 -0.16280309730E+02  0.44334555097E+02 -0.57461814903E+02  0.46423217535E+03  0.45823471191E+03 0.  0.
         13    1    3    3    0    0 -0.10057089638E+03 -0.12184193214E+03  0.12649885117E+03  0.20239051601E+03  0.00000000000E+00 0.  1.
          1    1    3    3  501    0  0.84290586645E+02  0.16617648723E+03 -0.18396066607E+03  0.26184165934E+03  0.00000000000E+00 0.  1.
         21    1    1    2  502  501  0.16280309730E+02 -0.44334555097E+02  0.25248544137E+02  0.53554553883E+02  0.00000000000E+00 0. -1.
<scales pt_clust_4="550.00000" pt_clust_5="550.00000" pt_clust_6="47.22924"></scales>
<mgrwt>
<rscale>  0 0.30000000E+03</rscale>
<asrwt>  1 0.47229242E+02</asrwt>
<pdfrwt beam="1">  1        1 0.88286083E+00 0.30000000E+03</pdfrwt>
<pdfrwt beam="2">0</pdfrwt>
<totfact> 0.17175657E-04</totfact>
</mgrwt>
<clustering>
<clus scale="   47.229">  1  6  2 -1</clus>
<clus scale="  458.235">  4  5 -1 -1</clus>
<clus scale="  300.000">  1  4  2 -1</clus>
</clustering>
</event>
<event>
 6    1  0.1033679E-011  0.3000000E+03  0.7818608E-02  0.1093470E+00
          1   -1    0    0  502    0  0.00000000000E+00  0.00000000000E+00  0.22940797303E+03  0.22940797303E+03  0.00000000000E+00 0.  1.
         13   -1    0    0    0    0 -0.00000000000E+00 -0.00000000000E+00 -0.27500000000E+03  0.27500000000E+03  0.00000000000E+00 0.  1.
    9000005    2    1    2  501    0 -0.33420086107E+02  0.60656799173E+01 -0.31475819289E+02  0.46762534198E+03  0.46532680841E+03 0.  0.
         13    1    3    3    0    0 -0.13175299214E+03  0.18888331099E+03  0.64165714398E+02  0.23906692580E+03  0.00000000000E+00 0.  1.
          3    1    3    3  501    0  0.98332906030E+02 -0.18281763107E+03 -0.95641533687E+02  0.22855841618E+03  0.00000000000E+00 0.  1.
         21    1    1    2  502  501  0.33420086107E+02 -0.60656799173E+01 -0.14116207679E+02  0.36782631057E+02  0.00000000000E+00 0.  1.
<scales pt_clust_4="550.00000" pt_clust_5="550.00000" pt_clust_6="33.96610"></scales>
<mgrwt>
<rscale>  0 0.30000000E+03</rscale>
<asrwt>  1 0.33966098E+02</asrwt>
<pdfrwt beam="1">  1        1 0.83421081E+00 0.30000000E+03</pdfrwt>
<pdfrwt beam="2">0</pdfrwt>
<totfact> 0.55133929E-04</totfact>
</mgrwt>
<clustering>
<clus scale="   33.966">  1  6  2 -1</clus>
<clus scale="  465.327">  4  5 -1 -1</clus>
<clus scale="  300.000">  1  4  2 -1</clus>
</clustering>
</event>
<event>
 6    1  0.1033679E-011  0.3000000E+03  0.7818608E-02  0.1093470E+00
          1   -1    0    0  502    0  0.00000000000E+00  0.00000000000E+00  0.22350663573E+03  0.22350663573E+03  0.00000000000E+00 0.  1.
         13   -1    0    0    0    0 -0.00000000000E+00 -0.00000000000E+00 -0.27500000000E+03  0.27500000000E+03  0.00000000000E+00 0.  1.
    9000005    2    1    2  501    0 -0.31225862299E+02  0.62644983498E+01 -0.30910725494E+02  0.46058641112E+03  0.45844309433E+03 0.  0.
         13    1    3    3    0    0  0.95262676963E+02 -0.73069589142E+02  0.17132558616E+03  0.20920468196E+03  0.00000000000E+00 0.  1.
          1    1    3    3  501    0 -0.12648853926E+03  0.79334087491E+02 -0.20223631166E+03  0.25138172916E+03  0.00000000000E+00 0.  1.
         21    1    1    2  502  501  0.31225862299E+02 -0.62644983498E+01 -0.20582638775E+02  0.37920224615E+02  0.00000000000E+00 0. -1.
<scales pt_clust_4="550.00000" pt_clust_5="550.00000" pt_clust_6="31.84807"></scales>
<mgrwt>
<rscale>  0 0.30000000E+03</rscale>
<asrwt>  1 0.31848068E+02</asrwt>
<pdfrwt beam="1">  1        1 0.81275140E+00 0.30000000E+03</pdfrwt>
<pdfrwt beam="2">0</pdfrwt>
<totfact> 0.84465428E-04</totfact>
</mgrwt>
<clustering>
<clus scale="   31.848">  1  6  2 -1</clus>
<clus scale="  458.443">  4  5 -1 -1</clus>
<clus scale="  300.000">  1  4  2 -1</clus>
</clustering>
</event>
<event>
 6    1  0.1033679E-011  0.3000000E+03  0.7818608E-02  0.1093470E+00
          1   -1    0    0  502    0  0.00000000000E+00  0.00000000000E+00  0.24595394269E+03  0.24595394269E+03  0.00000000000E+00 0.  1.
         13   -1    0    0    0    0 -0.00000000000E+00 -0.00000000000E+00 -0.27500000000E+03  0.27500000000E+03  0.00000000000E+00 0.  1.
    9000005    2    1    2  501    0  0.12860316451E+02 -0.33807726196E+02 -0.48188074380E+02  0.48003002661E+03  0.47623354129E+03 0.  0.
         13    1    3    3    0    0 -0.69982352526E+02 -0.21214122332E+03 -0.13935354151E+03  0.26328850683E+03  0.00000000000E+00 0.  1.
          1    1    3    3  501    0  0.82842668977E+02  0.17833349713E+03  0.91165467127E+02  0.21674151978E+03  0.00000000000E+00 0.  1.
         21    1    1    2  502  501 -0.12860316451E+02  0.33807726196E+02  0.19142017069E+02  0.40923916079E+02  0.00000000000E+00 0. -1.
<scales pt_clust_4="550.00000" pt_clust_5="550.00000" pt_clust_6="36.17112"></scales>
<mgrwt>
<rscale>  0 0.30000000E+03</rscale>
<asrwt>  1 0.36171122E+02</asrwt>
<pdfrwt beam="1">  1        1 0.89437797E+00 0.30000000E+03</pdfrwt>
<pdfrwt beam="2">0</pdfrwt>
<totfact> 0.12736096E-04</totfact>
</mgrwt>
<clustering>
<clus scale="   36.171">  1  6  2 -1</clus>
<clus scale="  476.234">  4  5 -1 -1</clus>
<clus scale="  300.000">  1  4  2 -1</clus>
</clustering>
</event>
<event>
 6    1  0.1033679E-011  0.3000000E+03  0.7818608E-02  0.1093470E+00
          1   -1    0    0  502    0  0.00000000000E+00  0.00000000000E+00  0.25044923123E+03  0.25044923123E+03  0.00000000000E+00 0.  1.
         13   -1    0    0    0    0 -0.00000000000E+00 -0.00000000000E+00 -0.27500000000E+03  0.27500000000E+03  0.00000000000E+00 0.  1.
    9000005    2    1    2  501    0 -0.47468837907E+02 -0.58911870288E+01 -0.39260653722E+02  0.47540547666E+03  0.47136076592E+03 0.  0.
         13    1    3    3    0    0  0.41980854628E+01 -0.19048520462E+02 -0.25369431958E+03  0.25444307387E+03  0.00000000000E+00 0.  1.
          1    1    3    3  501    0 -0.51666923370E+02  0.13157333434E+02  0.21443366586E+03  0.22096240279E+03  0.00000000000E+00 0.  1.
         21    1    1    2  502  501  0.47468837907E+02  0.58911870288E+01  0.14709884957E+02  0.50043754579E+02  0.00000000000E+00 0.  1.
<scales pt_clust_4="550.00000" pt_clust_5="550.00000" pt_clust_6="47.83301"></scales>
<mgrwt>
<rscale>  0 0.30000000E+03</rscale>
<asrwt>  1 0.47833008E+02</asrwt>
<pdfrwt beam="1">  1        1 0.91072448E+00 0.30000000E+03</pdfrwt>
<pdfrwt beam="2">0</pdfrwt>
<totfact> 0.65170161E-05</totfact>
</mgrwt>
<clustering>
<clus scale="   47.833">  1  6  2 -1</clus>
<clus scale="  471.361">  4  5 -1 -1</clus>
<clus scale="  300.000">  1  4  2 -1</clus>
</clustering>
</event>
<event>
 6    1  0.1033679E-011  0.3000000E+03  0.7818608E-02  0.1093470E+00
          1   -1    0    0  502    0  0.00000000000E+00  0.00000000000E+00  0.23673593629E+03  0.23673593629E+03  0.00000000000E+00 0.  1.
         13   -1    0    0    0    0 -0.00000000000E+00 -0.00000000000E+00 -0.27500000000E+03  0.27500000000E+03  0.00000000000E+00 0.  1.
    9000005    2    1    2  501    0  0.33956523694E+02  0.21156945690E+02 -0.62107698698E+02  0.46516147138E+03  0.45925718978E+03 0.  0.
         13    1    3    3    0    0  0.71287125306E+02  0.20821963702E+03  0.72476653619E+02  0.23171132211E+03  0.00000000000E+00 0.  1.
          1    1    3    3  501    0 -0.37330601612E+02 -0.18706269133E+03 -0.13458435232E+03  0.23345014927E+03  0.00000000000E+00 0.  1.
         21    1    1    2  502  501 -0.33956523694E+02 -0.21156945690E+02  0.23843634987E+02  0.46574464911E+02  0.00000000000E+00 0. -1.
<scales pt_clust_4="550.00000" pt_clust_5="550.00000" pt_clust_6="40.00827"></scales>
<mgrwt>
<rscale>  0 0.30000000E+03</rscale>
<asrwt>  1 0.40008272E+02</asrwt>
<pdfrwt beam="1">  1        1 0.86085795E+00 0.30000000E+03</pdfrwt>
<pdfrwt beam="2">0</pdfrwt>
<totfact> 0.30896513E-04</totfact>
</mgrwt>
<clustering>
<clus scale="   40.008">  1  6  2 -1</clus>
<clus scale="  459.257">  4  5 -1 -1</clus>
<clus scale="  300.000">  1  4  2 -1</clus>
</clustering>
</event>
<event>
 6    1  0.1033679E-011  0.3000000E+03  0.7818608E-02  0.1093470E+00
          1   -1    0    0  502    0  0.00000000000E+00  0.00000000000E+00  0.25822798257E+03  0.25822798257E+03  0.00000000000E+00 0.  1.
         13   -1    0    0    0    0 -0.00000000000E+00 -0.00000000000E+00 -0.27500000000E+03  0.27500000000E+03  0.00000000000E+00 0.  1.
    9000005    2    1    2  501    0  0.38742166312E+02  0.67166618627E+01 -0.36196398668E+02  0.48937167648E+03  0.48644464173E+03 0.  0.
         13    1    3    3    0    0  0.19188870893E+03  0.16429363235E+03 -0.80665066916E+02  0.26518017887E+03  0.00000000000E+00 0.  1.
          1    1    3    3  501    0 -0.15314654262E+03 -0.15757697049E+03  0.44468668249E+02  0.22419149761E+03  0.00000000000E+00 0.  1.
         21    1    1    2  502  501 -0.38742166312E+02 -0.67166618627E+01  0.19424381234E+02  0.43856306086E+02  0.00000000000E+00 0.  1.
<scales pt_clust_4="550.00000" pt_clust_5="550.00000" pt_clust_6="39.32008"></scales>
<mgrwt>
<rscale>  0 0.30000000E+03</rscale>
<asrwt>  1 0.39320084E+02</asrwt>
<pdfrwt beam="1">  1        1 0.93901085E+00 0.30000000E+03</pdfrwt>
<pdfrwt beam="2">0</pdfrwt>
<totfact> 0.19470592E-05</totfact>
</mgrwt>
<clustering>
<clus scale="   39.320">  1  6  2 -1</clus>
<clus scale="  486.445">  4  5 -1 -1</clus>
<clus scale="  300.000">  1  4  2 -1</clus>
</clustering>
</event>
<event>
 6    1  0.1033679E-011  0.3000000E+03  0.7818608E-02  0.1093470E+00
          1   -1    0    0  502    0  0.00000000000E+00  0.00000000000E+00  0.23427415283E+03  0.23427415283E+03  0.00000000000E+00 0.  1.
         13   -1    0    0    0    0 -0.00000000000E+00 -0.00000000000E+00 -0.27500000000E+03  0.27500000000E+03  0.00000000000E+00 0.  1.
    9000005    2    1    2  501    0 -0.37824720740E+02 -0.12184967201E+02 -0.56330444620E+02  0.46658122149E+03  0.46146043637E+03 0.  0.
         13    1    3    3    0    0  0.59593508755E+02  0.20901097813E+03  0.43429412913E+01  0.21738407579E+03  0.00000000000E+00 0.  1.
          3    1    3    3  501    0 -0.97418229495E+02 -0.22119594533E+03 -0.60673385911E+02  0.24919714571E+03  0.00000000000E+00 0.  1.
         21    1    1    2  502  501  0.37824720740E+02  0.12184967201E+02  0.15604597452E+02  0.42692931340E+02  0.00000000000E+00 0. -1.
<scales pt_clust_4="550.00000" pt_clust_5="550.00000" pt_clust_6="39.73893"></scales>
<mgrwt>
<rscale>  0 0.30000000E+03</rscale>
<asrwt>  1 0.39738935E+02</asrwt>
<pdfrwt beam="1">  1        1 0.85190601E+00 0.30000000E+03</pdfrwt>
<pdfrwt beam="2">0</pdfrwt>
<totfact> 0.38134666E-04</totfact>
</mgrwt>
<clustering>
<clus scale="   39.739">  1  6  2 -1</clus>
<clus scale="  461.460">  4  5 -1 -1</clus>
<clus scale="  300.000">  1  4  2 -1</clus>
</clustering>
</event>
<event>
 6    1  0.1033679E-011  0.3000000E+03  0.7818608E-02  0.1093470E+00
          1   -1    0    0  502    0  0.00000000000E+00  0.00000000000E+00  0.23335704552E+03  0.23335704552E+03  0.00000000000E+00 0.  1.
         13   -1    0    0    0    0 -0.00000000000E+00 -0.00000000000E+00 -0.27500000000E+03  0.27500000000E+03  0.00000000000E+00 0.  1.
    9000005    2    1    2  501    0  0.35850204572E+02 -0.61957667106E+01 -0.50018627470E+02  0.47102372808E+03  0.46694524800E+03 0.  0.
         13    1    3    3    0    0 -0.12792241874E+03  0.14494657832E+03  0.84207079873E+02  0.21086604298E+03  0.00000000000E+00 0.  1.
          3    1    3    3  501    0  0.16377262331E+03 -0.15114234503E+03 -0.13422570734E+03  0.26015768510E+03  0.00000000000E+00 0.  1.
         21    1    1    2  502  501 -0.35850204572E+02  0.61957667106E+01  0.83756729887E+01  0.37333317439E+02  0.00000000000E+00 0.  1.
<scales pt_clust_4="550.00000" pt_clust_5="550.00000" pt_clust_6="36.38165"></scales>
<mgrwt>
<rscale>  0 0.30000000E+03</rscale>
<asrwt>  1 0.36381653E+02</asrwt>
<pdfrwt beam="1">  1        1 0.84857107E+00 0.30000000E+03</pdfrwt>
<pdfrwt beam="2">0</pdfrwt>
<totfact> 0.41662014E-04</totfact>
</mgrwt>
<clustering>
<clus scale="   36.382">  1  6  2 -1</clus>
<clus scale="  466.945">  4  5 -1 -1</clus>
<clus scale="  300.000">  1  4  2 -1</clus>
</clustering>
</event>
<event>
 6    1  0.1033679E-011  0.3000000E+03  0.7818608E-02  0.1093470E+00
          1   -1    0    0  502    0  0.00000000000E+00  0.00000000000E+00  0.23747777613E+03  0.23747777613E+03  0.00000000000E+00 0.  1.
         13   -1    0    0    0    0 -0.00000000000E+00 -0.00000000000E+00 -0.27500000000E+03  0.27500000000E+03  0.00000000000E+00 0.  1.
    9000005    2    1    2  501    0  0.14398550974E+02 -0.37611109144E+02 -0.35529576857E+02  0.47215551871E+03  0.46909121630E+03 0.  0.
         13    1    3    3    0    0  0.42438191352E+02 -0.22792076846E+03 -0.12116504610E+03  0.26159098833E+03  0.00000000000E+00 0.  1.
          1    1    3    3  501    0 -0.28039640378E+02  0.19030965931E+03  0.85635469245E+02  0.21056453038E+03  0.00000000000E+00 0.  1.
         21    1    1    2  502  501 -0.14398550974E+02  0.37611109144E+02 -0.19926470157E+01  0.40322257418E+02  0.00000000000E+00 0.  1.
<scales pt_clust_4="550.00000" pt_clust_5="550.00000" pt_clust_6="40.27299"></scales>
<mgrwt>
<rscale>  0 0.30000000E+03</rscale>
<asrwt>  1 0.40272991E+02</asrwt>
<pdfrwt beam="1">  1        1 0.86355555E+00 0.30000000E+03</pdfrwt>
<pdfrwt beam="2">0</pdfrwt>
<totfact> 0.28857260E-04</totfact>
</mgrwt>
<clustering>
<clus scale="   40.273">  1  6  2 -1</clus>
<clus scale="  469.091">  4  5 -1 -1</clus>
<clus scale="  300.000">  1  4  2 -1</clus>
</clustering>
</event>
<event>
 6    1  0.1033679E-011  0.3000000E+03  0.7818608E-02  0.1093470E+00
          1   -1    0    0  502    0  0.00000000000E+00  0.00000000000E+00  0.24399817376E+03  0.24399817376E+03  0.00000000000E+00 0.  1.
         13   -1    0    0    0    0 -0.00000000000E+00 -0.00000000000E+00 -0.27500000000E+03  0.27500000000E+03  0.00000000000E+00 0.  1.
    9000005    2    1    2  501    0 -0.30688055344E+02  0.44300556294E+02 -0.96250124363E+01  0.46102176306E+03  0.45775990336E+03 0.  0.
         13    1    3    3    0    0  0.19523195221E+02  0.44876685106E+02 -0.22992278391E+03  0.23507351739E+03  0.00000000000E+00 0.  1.
          1    1    3    3  501    0 -0.50211250566E+02 -0.57612881170E+00  0.22029777147E+03  0.22594824567E+03  0.00000000000E+00 0.  1.
         21    1    1    2  502  501  0.30688055344E+02 -0.44300556294E+02 -0.21376813803E+02  0.57976410696E+02  0.00000000000E+00 0. -1.
<scales pt_clust_4="550.00000" pt_clust_5="550.00000" pt_clust_6="53.89155"></scales>
<mgrwt>
<rscale>  0 0.30000000E+03</rscale>
<asrwt>  1 0.53891548E+02</asrwt>
<pdfrwt beam="1">  1        1 0.88726609E+00 0.30000000E+03</pdfrwt>
<pdfrwt beam="2">0</pdfrwt>
<totfact> 0.14613257E-04</totfact>
</mgrwt>
<clustering>
<clus scale="   53.892">  1  6  2 -1</clus>
<clus scale="  457.760">  4  5 -1 -1</clus>
<clus scale="  300.000">  1  4  2 -1</clus>
</clustering>
</event>
<event>
 6    1  0.1033679E-011  0.3000000E+03  0.7818608E-02  0.1093470E+00
          1   -1    0    0  502    0  0.00000000000E+00  0.00000000000E+00  0.22817284935E+03  0.22817284935E+03  0.00000000000E+00 0.  1.
         13   -1    0    0    0    0 -0.00000000000E+00 -0.00000000000E+00 -0.27500000000E+03  0.27500000000E+03  0.00000000000E+00 0.  1.
    9000005    2    1    2  501    0  0.17827067959E+02  0.26406940352E+02 -0.40058029515E+02  0.47060059349E+03  0.46780887339E+03 0.  0.
         13    1    3    3    0    0  0.31830236711E+02  0.11901286242E+03 -0.22882213498E+03  0.25987842321E+03  0.00000000000E+00 0.  1.
          1    1    3    3  501    0 -0.14003168753E+02 -0.92605922071E+02  0.18876410547E+03  0.21072217029E+03  0.00000000000E+00 0.  1.
         21    1    1    2  502  501 -0.17827067959E+02 -0.26406940352E+02 -0.67691211333E+01  0.32572255858E+02  0.00000000000E+00 0. -1.
<scales pt_clust_4="550.00000" pt_clust_5="550.00000" pt_clust_6="31.86113"></scales>
<mgrwt>
<rscale>  0 0.30000000E+03</rscale>
<asrwt>  1 0.31861134E+02</asrwt>
<pdfrwt beam="1">  1        1 0.82971945E+00 0.30000000E+03</pdfrwt>
<pdfrwt beam="2">0</pdfrwt>
<totfact> 0.60481229E-04</totfact>
</mgrwt>
<clustering>
<clus scale="   31.861">  1  6  2 -1</clus>
<clus scale="  467.809">  4  5 -1 -1</clus>
<clus scale="  300.000">  1  4  2 -1</clus>
</clustering>
</event>
<event>
 6    1  0.1033679E-011  0.3000000E+03  0.7818608E-02  0.1093470E+00
          1   -1    0    0  502    0  0.00000000000E+00  0.00000000000E+00  0.23062487053E+03  0.23062487053E+03  0.00000000000E+00 0.  1.
         13   -1    0    0    0    0 -0.00000000000E+00 -0.00000000000E+00 -0.27500000000E+03  0.27500000000E+03  0.00000000000E+00 0.  1.
    9000005    2    1    2  501    0 -0.22292455290E+02  0.28922374242E+02 -0.61087490487E+02  0.46546568347E+03  0.45999256918E+03 0.  0.
         13    1    3    3    0    0  0.20415028345E+02  0.17235323676E+03  0.13422834835E+03  0.21940752290E+03  0.00000000000E+00 0.  1.
          3    1    3    3  501    0 -0.42707483635E+02 -0.14343086252E+03 -0.19531583884E+03  0.24605816057E+03  0.00000000000E+00 0.  1.
         21    1    1    2  502  501  0.22292455290E+02 -0.28922374242E+02  0.16712361016E+02  0.40159187061E+02  0.00000000000E+00 0.  1.
<scales pt_clust_4="550.00000" pt_clust_5="550.00000" pt_clust_6="36.51653"></scales>
<mgrwt>
<rscale>  0 0.30000000E+03</rscale>
<asrwt>  1 0.36516535E+02</asrwt>
<pdfrwt beam="1">  1        1 0.83863589E+00 0.30000000E+03</pdfrwt>
<pdfrwt beam="2">0</pdfrwt>
<totfact> 0.50493841E-04</totfact>
</mgrwt>
<clustering>
<clus scale="   36.517">  1  6  2 -1</clus>
<clus scale="  459.993">  4  5 -1 -1</clus>
<clus scale="  300.000">  1  4  2 -1</clus>
</clustering>
</event>
<event>
 6    1  0.1033679E-011  0.3000000E+03  0.7818608E-02  0.1093470E+00
          1   -1    0    0  502    0  0.00000000000E+00  0.00000000000E+00  0.23272681464E+03  0.23272681464E+03  0.00000000000E+00 0.  1.
         13   -1    0    0    0    0 -0.00000000000E+00 -0.00000000000E+00 -0.27500000000E+03  0.27500000000E+03  0.00000000000E+00 0.  1.
    9000005    2    1    2  501    0 -0.13652327734E+02 -0.27296821502E+02 -0.61717732205E+02  0.47153851655E+03  0.46648471744E+03 0.  0.
         13    1    3    3    0    0  0.87588943587E+02 -0.22653927611E+03 -0.15907752551E+02  0.24340280042E+03  0.00000000000E+00 0.  1.
          1    1    3    3  501    0 -0.10124127132E+03  0.19924245461E+03 -0.45809979653E+02  0.22813571613E+03  0.00000000000E+00 0.  1.
         21    1    1    2  502  501  0.13652327734E+02  0.27296821502E+02  0.19444546849E+02  0.36188298092E+02  0.00000000000E+00 0.  1.
<scales pt_clust_4="550.00000" pt_clust_5="550.00000" pt_clust_6="30.52053"></scales>
<mgrwt>
<rscale>  0 0.30000000E+03</rscale>
<asrwt>  1 0.30520526E+02</asrwt>
<pdfrwt beam="1">  1        1 0.84627933E+00 0.30000000E+03</pdfrwt>
<pdfrwt beam="2">0</pdfrwt>
<totfact> 0.45179363E-04</totfact>
</mgrwt>
<clustering>
<clus scale="   30.521">  1  6  2 -1</clus>
<clus scale="  466.485">  4  5 -1 -1</clus>
<clus scale="  300.000">  1  4  2 -1</clus>
</clustering>
</event>
