<event>
 6    1  0.6527224E-003  0.6543475E+03  0.7818608E-02  0.9798655E-01
          1   -1    0    0  502    0  0.00000000000E+00  0.00000000000E+00  0.10706607074E+03  0.10706607074E+03  0.00000000000E+00 0.  1.
         13   -1    0    0    0    0 -0.00000000000E+00 -0.00000000000E+00 -0.10000000000E+04  0.10000000000E+04  0.00000000000E+00 0.  1.
    9000005    2    1    2  501    0 -0.34124048119E-03 -0.43573988091E-03 -0.89295733231E+03  0.11070426611E+04  0.65434750421E+03 0.  0.
         13    1    3    3    0    0 -0.13637623493E+03  0.27864287371E+03 -0.27064030836E+03  0.41168738751E+03  0.00000000000E+00 0.  1.
          1    1    3    3  501    0  0.13637589369E+03 -0.27864330945E+03 -0.62231702395E+03  0.69535527364E+03  0.00000000000E+00 0.  1.
         21    1    1    2  502  501  0.34124048120E-03  0.43573988090E-03  0.23403048473E-01  0.23409591884E-01  0.00000000000E+00 0. -1.
<mgrwt>
<rscale>  1 0.65434750E+03</rscale>
<asrwt>0</asrwt>
<pdfrwt beam="1">  1        1 0.38933199E+00 0.65434750E+03</pdfrwt>
<pdfrwt beam="2">0</pdfrwt>
<totfact> 0.14910087E+00</totfact>
</mgrwt>
</event>
<event>
 6    1  0.6527224E-003  0.6441193E+03  0.7818608E-02  0.9817877E-01
          1   -1    0    0  502    0  0.00000000000E+00  0.00000000000E+00  0.10375481429E+03  0.10375481429E+03  0.00000000000E+00 0.  1.
         13   -1    0    0    0    0 -0.00000000000E+00 -0.00000000000E+00 -0.10000000000E+04  0.10000000000E+04  0.00000000000E+00 0.  1.
    9000005    2    1    2  501    0  0.55969688504E-03  0.95123756758E-03 -0.89627758104E+03  0.11037224002E+04  0.64411927028E+03 0.  0.
         13    1    3    3    0    0  0.53088280028E+02 -0.78364287543E+02 -0.97562725843E+03  0.98020807711E+03  0.00000000000E+00 0.  1.
          1    1    3    3  501    0 -0.53087720331E+02  0.78365238780E+02  0.79349677387E+02  0.12351432306E+03  0.00000000000E+00 0.  1.
         21    1    1    2  502  501 -0.55969688505E-03 -0.95123756758E-03  0.32395325746E-01  0.32414121054E-01  0.00000000000E+00 0.  1.
<mgrwt>
<rscale>  1 0.64411927E+03</rscale>
<asrwt>0</asrwt>
<pdfrwt beam="1">  1        1 0.37729103E+00 0.64411927E+03</pdfrwt>
<pdfrwt beam="2">0</pdfrwt>
<totfact> 0.16885552E+00</totfact>
</mgrwt>
</event>
<event>
 6    1  0.6527224E-003  0.6602435E+03  0.7818608E-02  0.9787746E-01
          1   -1    0    0  502    0  0.00000000000E+00  0.00000000000E+00  0.10898037434E+03  0.10898037434E+03  0.00000000000E+00 0.  1.
         13   -1    0    0    0    0 -0.00000000000E+00 -0.00000000000E+00 -0.10000000000E+04  0.10000000000E+04  0.00000000000E+00 0.  1.
    9000005    2    1    2  501    0  0.50919404089E-05 -0.23138474035E-05 -0.89101962564E+03  0.11089803687E+04  0.66024350432E+03 0.  0.
         13    1    3    3    0    0  0.96347952243E+02  0.19318253271E+03 -0.86501301349E+03  0.89154356728E+03  0.00000000000E+00 0.  1.
          1    1    3    3  501    0 -0.96347947151E+02 -0.19318253502E+03 -0.26006612147E+02  0.21743680147E+03  0.00000000000E+00 0.  1.
         21    1    1    2  502  501 -0.50919404211E-05  0.23138474123E-05 -0.23628985058E-07  0.55930586827E-05  0.00000000000E+00 0. -1.
<mgrwt>
<rscale>  1 0.66024350E+03</rscale>
<asrwt>0</asrwt>
<pdfrwt beam="1">  1        1 0.39629311E+00 0.66024350E+03</pdfrwt>
<pdfrwt beam="2">0</pdfrwt>
<totfact> 0.13870310E+00</totfact>
</mgrwt>
</event>
<event>
 6    1  0.6527224E-003  0.6574514E+03  0.7818608E-02  0.9792897E-01
          1   -1    0    0  502    0  0.00000000000E+00  0.00000000000E+00  0.10806126381E+03  0.10806126381E+03  0.00000000000E+00 0.  1.
         13   -1    0    0    0    0 -0.00000000000E+00 -0.00000000000E+00 -0.10000000000E+04  0.10000000000E+04  0.00000000000E+00 0.  1.
    9000005    2    1    2  501    0  0.20616505748E-03 -0.49892184677E-04 -0.89193941141E+03  0.11080605561E+04  0.65745135355E+03 0.  0.
         13    1    3    3    0    0  0.15044954631E+03 -0.23981607445E+03 -0.72755467839E+03  0.78069368231E+03  0.00000000000E+00 0.  1.
          1    1    3    3  501    0 -0.15044934014E+03  0.23981602455E+03 -0.16438473301E+03  0.32736687375E+03  0.00000000000E+00 0.  1.
         21    1    1    2  502  501 -0.20616505746E-03  0.49892184681E-04  0.67521662607E-03  0.70775048791E-03  0.00000000000E+00 0.  1.
<mgrwt>
<rscale>  1 0.65745135E+03</rscale>
<asrwt>0</asrwt>
<pdfrwt beam="1">  1        1 0.39295088E+00 0.65745135E+03</pdfrwt>
<pdfrwt beam="2">0</pdfrwt>
<totfact> 0.14360552E+00</totfact>
</mgrwt>
</event>
<event>
 6    1  0.6527224E-003  0.6500562E+03  0.7818608E-02  0.9806674E-01
          1   -1    0    0  502    0  0.00000000000E+00  0.00000000000E+00  0.10583880305E+03  0.10583880305E+03  0.00000000000E+00 0.  1.
         13   -1    0    0    0    0 -0.00000000000E+00 -0.00000000000E+00 -0.10000000000E+04  0.10000000000E+04  0.00000000000E+00 0.  1.
    9000005    2    1    2  501    0 -0.19361032532E+00  0.43920227293E-01 -0.89429940277E+03  0.11055969047E+04  0.65005619338E+03 0.  0.
         13    1    3    3    0    0 -0.10769219410E+03  0.10282965351E+03 -0.93865581803E+03  0.95039270359E+03  0.00000000000E+00 0.  1.
          3    1    3    3  501    0  0.10749858378E+03 -0.10278573328E+03  0.44356415256E+02  0.15520420115E+03  0.00000000000E+00 0.  1.
         21    1    1    2  502  501  0.19361032532E+00 -0.43920227293E-01  0.13820582915E+00  0.24189831675E+00  0.00000000000E+00 0. -1.
<mgrwt>
<rscale>  1 0.65005622E+03</rscale>
<asrwt>0</asrwt>
<pdfrwt beam="1">  1        1 0.38486919E+00 0.65005622E+03</pdfrwt>
<pdfrwt beam="2">0</pdfrwt>
<totfact> 0.15616594E+00</totfact>
</mgrwt>
</event>
<event>
 6    1  0.6527224E-003  0.6553328E+03  0.7818608E-02  0.9796824E-01
          1   -1    0    0  502    0  0.00000000000E+00  0.00000000000E+00  0.10737449663E+03  0.10737449663E+03  0.00000000000E+00 0.  1.
         13   -1    0    0    0    0 -0.00000000000E+00 -0.00000000000E+00 -0.10000000000E+04  0.10000000000E+04  0.00000000000E+00 0.  1.
    9000005    2    1    2  501    0 -0.45557609828E-03 -0.66210931874E-03 -0.89263469479E+03  0.11073652701E+04  0.65533284915E+03 0.  0.
         13    1    3    3    0    0  0.90225218239E+02 -0.31430886920E+03 -0.41108283882E+03  0.52528064464E+03  0.00000000000E+00 0.  1.
          3    1    3    3  501    0 -0.90225673815E+02  0.31430820709E+03 -0.48155185596E+03  0.58208462550E+03  0.00000000000E+00 0.  1.
         21    1    1    2  502  501  0.45557609828E-03  0.66210931870E-03  0.91914185367E-02  0.92264897468E-02  0.00000000000E+00 0. -1.
<mgrwt>
<rscale>  1 0.65533285E+03</rscale>
<asrwt>0</asrwt>
<pdfrwt beam="1">  1        1 0.39045354E+00 0.65533285E+03</pdfrwt>
<pdfrwt beam="2">0</pdfrwt>
<totfact> 0.14737617E+00</totfact>
</mgrwt>
</event>
<event>
 6    1  0.6527224E-003  0.6162992E+03  0.7818608E-02  0.9872156E-01
          1   -1    0    0  502    0  0.00000000000E+00  0.00000000000E+00  0.99784714594E+02  0.99784714594E+02  0.00000000000E+00 0.  1.
         13   -1    0    0    0    0 -0.00000000000E+00 -0.00000000000E+00 -0.10000000000E+04  0.10000000000E+04  0.00000000000E+00 0.  1.
    9000005    2    1    2  501    0 -0.24086242889E+01  0.18498037416E+01 -0.90451589940E+03  0.10945198760E+04  0.61629175185E+03 0.  0.
         13    1    3    3    0    0 -0.24571787671E+02  0.29758786048E+03 -0.59577407561E+03  0.66641507833E+03  0.00000000000E+00 0.  1.
          3    1    3    3  501    0  0.22163163382E+02 -0.29573805674E+03 -0.30874182380E+03  0.42810479766E+03  0.00000000000E+00 0.  1.
         21    1    1    2  502  501  0.24086242889E+01 -0.18498037416E+01  0.43006139969E+01  0.52648386108E+01  0.00000000000E+00 0. -1.
<mgrwt>
<rscale>  1 0.61629923E+03</rscale>
<asrwt>0</asrwt>
<pdfrwt beam="1">  1        1 0.36285427E+00 0.61629923E+03</pdfrwt>
<pdfrwt beam="2">0</pdfrwt>
<totfact> 0.19639464E+00</totfact>
</mgrwt>
</event>
<event>
 6    1  0.6527224E-003  0.6386755E+03  0.7818608E-02  0.9828264E-01
          1   -1    0    0  502    0  0.00000000000E+00  0.00000000000E+00  0.10868118072E+03  0.10868118072E+03  0.00000000000E+00 0.  1.
         13   -1    0    0    0    0 -0.00000000000E+00 -0.00000000000E+00 -0.10000000000E+04  0.10000000000E+04  0.00000000000E+00 0.  1.
    9000005    2    1    2  501    0  0.10827346127E+02  0.61427773055E+00 -0.89281226124E+03  0.10977340747E+04  0.63858339798E+03 0.  0.
         13    1    3    3    0    0  0.95538545608E+02 -0.73870944953E+02  0.62365345018E+02  0.13591897022E+03  0.00000000000E+00 0.  1.
          1    1    3    3  501    0 -0.84711199481E+02  0.74485222684E+02 -0.95517760626E+03  0.96181510449E+03  0.00000000000E+00 0.  1.
         21    1    1    2  502  501 -0.10827346127E+02 -0.61427773055E+00  0.14934419678E+01  0.10947106019E+02  0.00000000000E+00 0.  1.
<mgrwt>
<rscale>  1 0.63867548E+03</rscale>
<asrwt>0</asrwt>
<pdfrwt beam="1">  1        1 0.39520513E+00 0.63867548E+03</pdfrwt>
<pdfrwt beam="2">0</pdfrwt>
<totfact> 0.14082954E+00</totfact>
</mgrwt>
</event>
<event>
 6    1  0.6527224E-003  0.6546696E+03  0.7818608E-02  0.9798056E-01
          3   -1    0    0  502    0  0.00000000000E+00  0.00000000000E+00  0.10714806710E+03  0.10714806710E+03  0.00000000000E+00 0.  1.
         13   -1    0    0    0    0 -0.00000000000E+00 -0.00000000000E+00 -0.10000000000E+04  0.10000000000E+04  0.00000000000E+00 0.  1.
    9000005    2    1    2  501    0 -0.38308246531E-05  0.26184390265E-05 -0.89285193421E+03  0.11071480623E+04  0.65466957725E+03 0.  0.
         13    1    3    3    0    0  0.23589166260E+03 -0.36362266062E+02 -0.67588362740E+02  0.24806305177E+03  0.00000000000E+00 0.  1.
          3    1    3    3  501    0 -0.23589166643E+03  0.36362268680E+02 -0.82526357147E+03  0.85908501050E+03  0.00000000000E+00 0.  1.
         21    1    1    2  502  501  0.38308246601E-05 -0.26184390324E-05  0.13070265672E-05  0.48207633203E-05  0.00000000000E+00 0.  1.
<mgrwt>
<rscale>  1 0.65466958E+03</rscale>
<asrwt>0</asrwt>
<pdfrwt beam="1">  1        3 0.38963016E+00 0.65466958E+03</pdfrwt>
<pdfrwt beam="2">0</pdfrwt>
<totfact> 0.67098645E-02</totfact>
</mgrwt>
</event>
<event>
 6    1  0.6527224E-003  0.6599539E+03  0.7818608E-02  0.9788279E-01
          1   -1    0    0  502    0  0.00000000000E+00  0.00000000000E+00  0.10888597731E+03  0.10888597731E+03  0.00000000000E+00 0.  1.
         13   -1    0    0    0    0 -0.00000000000E+00 -0.00000000000E+00 -0.10000000000E+04  0.10000000000E+04  0.00000000000E+00 0.  1.
    9000005    2    1    2  501    0  0.46298965739E-03 -0.98943380050E-03 -0.89111492077E+03  0.11088845631E+04  0.65995391684E+03 0.  0.
         13    1    3    3    0    0  0.16679734632E+03 -0.17881374714E+03 -0.73280893150E+02  0.25527592955E+03  0.00000000000E+00 0.  1.
          3    1    3    3  501    0 -0.16679688333E+03  0.17881275771E+03 -0.81783402761E+03  0.85360863359E+03  0.00000000000E+00 0.  1.
         21    1    1    2  502  501 -0.46298965739E-03  0.98943380050E-03  0.89807258928E-03  0.14141686759E-02  0.00000000000E+00 0. -1.
<mgrwt>
<rscale>  1 0.65995392E+03</rscale>
<asrwt>0</asrwt>
<pdfrwt beam="1">  1        1 0.39594984E+00 0.65995392E+03</pdfrwt>
<pdfrwt beam="2">0</pdfrwt>
<totfact> 0.13919928E+00</totfact>
</mgrwt>
</event>
<event>
 6    1  0.6527224E-003  0.6602870E+03  0.7818608E-02  0.9787666E-01
          1   -1    0    0  502    0  0.00000000000E+00  0.00000000000E+00  0.10900044152E+03  0.10900044152E+03  0.00000000000E+00 0.  1.
         13   -1    0    0    0    0 -0.00000000000E+00 -0.00000000000E+00 -0.10000000000E+04  0.10000000000E+04  0.00000000000E+00 0.  1.
    9000005    2    1    2  501    0  0.23342590610E-03  0.14977307420E-02 -0.89100515322E+03  0.11089946451E+04  0.66028701316E+03 0.  0.
         13    1    3    3    0    0 -0.67157045425E+02  0.99930227593E+02 -0.96181188565E+03  0.96931843195E+03  0.00000000000E+00 0.  1.
          1    1    3    3  501    0  0.67157278851E+02 -0.99928729862E+02  0.70806732438E+02  0.13967621313E+03  0.00000000000E+00 0.  1.
         21    1    1    2  502  501 -0.23342590610E-03 -0.14977307420E-02  0.55947340835E-02  0.57964415372E-02  0.00000000000E+00 0.  1.
<mgrwt>
<rscale>  1 0.66028701E+03</rscale>
<asrwt>0</asrwt>
<pdfrwt beam="1">  1        1 0.39636608E+00 0.66028701E+03</pdfrwt>
<pdfrwt beam="2">0</pdfrwt>
<totfact> 0.13859830E+00</totfact>
</mgrwt>
</event>
<event>
 6    1  0.6527224E-003  0.5475810E+03  0.7818608E-02  0.1002055E+00
          1   -1    0    0  502    0  0.00000000000E+00  0.00000000000E+00  0.76032856326E+02  0.76032856326E+02  0.00000000000E+00 0.  1.
         13   -1    0    0    0    0 -0.00000000000E+00 -0.00000000000E+00 -0.10000000000E+04  0.10000000000E+04  0.00000000000E+00 0.  1.
    9000005    2    1    2  501    0 -0.31413542479E-01  0.50351619909E-02 -0.92503851581E+03  0.10749610119E+04  0.54758097158E+03 0.  0.
         13    1    3    3    0    0 -0.10034667243E+03  0.14620737566E+03 -0.87205977252E+03  0.88990690424E+03  0.00000000000E+00 0.  1.
          1    1    3    3  501    0  0.10031525888E+03 -0.14620234050E+03 -0.52978743286E+02  0.18505410769E+03  0.00000000000E+00 0.  1.
         21    1    1    2  502  501  0.31413542479E-01 -0.50351619909E-02  0.10713721315E+01  0.10718443953E+01  0.00000000000E+00 0. -1.
<mgrwt>
<rscale>  1 0.54758097E+03</rscale>
<asrwt>0</asrwt>
<pdfrwt beam="1">  1        1 0.27648370E+00 0.54758097E+03</pdfrwt>
<pdfrwt beam="2">0</pdfrwt>
<totfact> 0.47039998E+00</totfact>
</mgrwt>
</event>
<event>
 6    1  0.6527224E-003  0.6545315E+03  0.7818608E-02  0.9798313E-01
          1   -1    0    0  502    0  0.00000000000E+00  0.00000000000E+00  0.10715505408E+03  0.10715505408E+03  0.00000000000E+00 0.  1.
         13   -1    0    0    0    0 -0.00000000000E+00 -0.00000000000E+00 -0.10000000000E+04  0.10000000000E+04  0.00000000000E+00 0.  1.
    9000005    2    1    2  501    0  0.97347648366E-02 -0.14102375257E-03 -0.89289661202E+03  0.11071024787E+04  0.65453154125E+03 0.  0.
         13    1    3    3    0    0 -0.28697482610E+03  0.24660245665E+02 -0.18365626824E+03  0.34160255180E+03  0.00000000000E+00 0.  1.
          3    1    3    3  501    0  0.28698456086E+03 -0.24660386688E+02 -0.70924034377E+03  0.76549992690E+03  0.00000000000E+00 0.  1.
         21    1    1    2  502  501 -0.97347648366E-02  0.14102375257E-03  0.51666099164E-01  0.52575387178E-01  0.00000000000E+00 0. -1.
<mgrwt>
<rscale>  1 0.65453154E+03</rscale>
<asrwt>0</asrwt>
<pdfrwt beam="1">  1        1 0.38965556E+00 0.65453154E+03</pdfrwt>
<pdfrwt beam="2">0</pdfrwt>
<totfact> 0.14860409E+00</totfact>
</mgrwt>
</event>
<event>
 6    1  0.6527224E-003  0.6507860E+03  0.7818608E-02  0.9805305E-01
          1   -1    0    0  502    0  0.00000000000E+00  0.00000000000E+00  0.10590029530E+03  0.10590029530E+03  0.00000000000E+00 0.  1.
         13   -1    0    0    0    0 -0.00000000000E+00 -0.00000000000E+00 -0.10000000000E+04  0.10000000000E+04  0.00000000000E+00 0.  1.
    9000005    2    1    2  501    0 -0.13579918100E-02 -0.15951299193E-02 -0.89411934099E+03  0.11058805476E+04  0.65078597832E+03 0.  0.
         13    1    3    3    0    0  0.27658801911E+03  0.13952640489E+03 -0.61623435325E+03  0.68971974606E+03  0.00000000000E+00 0.  1.
          3    1    3    3  501    0 -0.27658937710E+03 -0.13952800002E+03 -0.27788498774E+03  0.41616080152E+03  0.00000000000E+00 0.  1.
         21    1    1    2  502  501  0.13579918099E-02  0.15951299193E-02  0.19636291136E-01  0.19747721661E-01  0.00000000000E+00 0. -1.
<mgrwt>
<rscale>  1 0.65078598E+03</rscale>
<asrwt>0</asrwt>
<pdfrwt beam="1">  1        1 0.38509279E+00 0.65078598E+03</pdfrwt>
<pdfrwt beam="2">0</pdfrwt>
<totfact> 0.15578970E+00</totfact>
</mgrwt>
</event>
<event>
 6    1  0.6527224E-003  0.6206438E+03  0.7818608E-02  0.9863479E-01
          1   -1    0    0  502    0  0.00000000000E+00  0.00000000000E+00  0.97085419267E+02  0.97085419267E+02  0.00000000000E+00 0.  1.
         13   -1    0    0    0    0 -0.00000000000E+00 -0.00000000000E+00 -0.10000000000E+04  0.10000000000E+04  0.00000000000E+00 0.  1.
    9000005    2    1    2  501    0 -0.12866254997E-01  0.62561918408E-02 -0.90370024074E+03  0.10962996290E+04  0.62064381997E+03 0.  0.
         13    1    3    3    0    0 -0.28486239818E+03 -0.98637844846E+02 -0.58198077738E+03  0.65542172346E+03  0.00000000000E+00 0.  1.
          3    1    3    3  501    0  0.28484953193E+03  0.98644101038E+02 -0.32171946335E+03  0.44087790556E+03  0.00000000000E+00 0.  1.
         21    1    1    2  502  501  0.12866254997E-01 -0.62561918409E-02  0.78566000213E+00  0.78579025154E+00  0.00000000000E+00 0. -1.
<mgrwt>
<rscale>  1 0.62064382E+03</rscale>
<asrwt>0</asrwt>
<pdfrwt beam="1">  1        1 0.35303863E+00 0.62064382E+03</pdfrwt>
<pdfrwt beam="2">0</pdfrwt>
<totfact> 0.21660353E+00</totfact>
</mgrwt>
</event>
<event>
 6    1  0.6527224E-003  0.6019262E+03  0.7818608E-02  0.9901418E-01
          1   -1    0    0  502    0  0.00000000000E+00  0.00000000000E+00  0.92534899699E+02  0.92534899699E+02  0.00000000000E+00 0.  1.
         13   -1    0    0    0    0 -0.00000000000E+00 -0.00000000000E+00 -0.10000000000E+04  0.10000000000E+04  0.00000000000E+00 0.  1.
    9000005    2    1    2  501    0 -0.28280675064E+00  0.20207776330E+00 -0.90940435260E+03  0.10905647437E+04  0.60192612746E+03 0.  0.
         13    1    3    3    0    0  0.15690585755E+03  0.19057838804E+03 -0.14279963159E+03  0.28518643885E+03  0.00000000000E+00 0.  1.
          1    1    3    3  501    0 -0.15718866430E+03 -0.19037631028E+03 -0.76660472101E+03  0.80537830488E+03  0.00000000000E+00 0.  1.
         21    1    1    2  502  501  0.28280675064E+00 -0.20207776330E+00  0.19392522963E+01  0.19701559709E+01  0.00000000000E+00 0. -1.
<mgrwt>
<rscale>  1 0.60192623E+03</rscale>
<asrwt>0</asrwt>
<pdfrwt beam="1">  1        1 0.33649125E+00 0.60192623E+03</pdfrwt>
<pdfrwt beam="2">0</pdfrwt>
<totfact> 0.25650157E+00</totfact>
</mgrwt>
</event>
<event>
 6    1  0.6527224E-003  0.6529193E+03  0.7818608E-02  0.9801317E-01
          1   -1    0    0  502    0  0.00000000000E+00  0.00000000000E+00  0.10657876221E+03  0.10657876221E+03  0.00000000000E+00 0.  1.
         13   -1    0    0    0    0 -0.00000000000E+00 -0.00000000000E+00 -0.10000000000E+04  0.10000000000E+04  0.00000000000E+00 0.  1.
    9000005    2    1    2  501    0  0.47601386926E-03 -0.83819808043E-03 -0.89342399821E+03  0.11065758383E+04  0.65291932534E+03 0.  0.
         13    1    3    3    0    0 -0.11183104729E+02 -0.20822925665E+03 -0.87241604400E+03  0.89699177198E+03  0.00000000000E+00 0.  1.
          3    1    3    3  501    0  0.11183580743E+02  0.20822841845E+03 -0.21007954204E+02  0.20958406635E+03  0.00000000000E+00 0.  1.
         21    1    1    2  502  501 -0.47601386926E-03  0.83819808043E-03  0.27604200352E-02  0.29238816660E-02  0.00000000000E+00 0.  1.
<mgrwt>
<rscale>  1 0.65291933E+03</rscale>
<asrwt>0</asrwt>
<pdfrwt beam="1">  1        1 0.38755995E+00 0.65291933E+03</pdfrwt>
<pdfrwt beam="2">0</pdfrwt>
<totfact> 0.15186133E+00</totfact>
</mgrwt>
</event>
<event>
 6    1  0.6527224E-003  0.6473781E+03  0.7818608E-02  0.9811712E-01
          1   -1    0    0  502    0  0.00000000000E+00  0.00000000000E+00  0.10478752684E+03  0.10478752684E+03  0.00000000000E+00 0.  1.
         13   -1    0    0    0    0 -0.00000000000E+00 -0.00000000000E+00 -0.10000000000E+04  0.10000000000E+04  0.00000000000E+00 0.  1.
    9000005    2    1    2  501    0  0.33259614324E-03  0.30033716553E-03 -0.89522540206E+03  0.11047745902E+04  0.64737807702E+03 0.  0.
         13    1    3    3    0    0 -0.83798130709E+02  0.24213773231E+03 -0.78515281668E+03  0.82590420368E+03  0.00000000000E+00 0.  1.
          3    1    3    3  501    0  0.83798463305E+02 -0.24213743197E+03 -0.11007258538E+03  0.27887038650E+03  0.00000000000E+00 0.  1.
         21    1    1    2  502  501 -0.33259614324E-03 -0.30033716553E-03  0.12928902906E-01  0.12936666995E-01  0.00000000000E+00 0.  1.
<mgrwt>
<rscale>  1 0.64737808E+03</rscale>
<asrwt>0</asrwt>
<pdfrwt beam="1">  1        1 0.38104636E+00 0.64737808E+03</pdfrwt>
<pdfrwt beam="2">0</pdfrwt>
<totfact> 0.16243985E+00</totfact>
</mgrwt>
</event>
<event>
 6    1  0.6527224E-003  0.6569189E+03  0.7818608E-02  0.9793882E-01
          1   -1    0    0  502    0  0.00000000000E+00  0.00000000000E+00  0.10788562090E+03  0.10788562090E+03  0.00000000000E+00 0.  1.
         13   -1    0    0    0    0 -0.00000000000E+00 -0.00000000000E+00 -0.10000000000E+04  0.10000000000E+04  0.00000000000E+00 0.  1.
    9000005    2    1    2  501    0  0.12969469381E-04 -0.80248229324E-05 -0.89211438498E+03  0.11078856046E+04  0.65691889674E+03 0.  0.
         13    1    3    3    0    0  0.87290785070E+02  0.29637799539E+03 -0.63405337031E+03  0.70532494193E+03  0.00000000000E+00 0.  1.
          1    1    3    3  501    0 -0.87290772101E+02 -0.29637800341E+03 -0.25806101467E+03  0.40256066262E+03  0.00000000000E+00 0.  1.
         21    1    1    2  502  501 -0.12969469375E-04  0.80248229232E-05  0.58749311403E-05  0.16343798051E-04  0.00000000000E+00 0.  1.
<mgrwt>
<rscale>  1 0.65691890E+03</rscale>
<asrwt>0</asrwt>
<pdfrwt beam="1">  1        1 0.39231218E+00 0.65691890E+03</pdfrwt>
<pdfrwt beam="2">0</pdfrwt>
<totfact> 0.14456083E+00</totfact>
</mgrwt>
</event>
<event>
 6    1  0.6527224E-003  0.6495258E+03  0.7818608E-02  0.9807669E-01
          1   -1    0    0  502    0  0.00000000000E+00  0.00000000000E+00  0.10547653066E+03  0.10547653066E+03  0.00000000000E+00 0.  1.
         13   -1    0    0    0    0 -0.00000000000E+00 -0.00000000000E+00 -0.10000000000E+04  0.10000000000E+04  0.00000000000E+00 0.  1.
    9000005    2    1    2  501    0 -0.34036680493E-02 -0.15400945162E-01 -0.89451160052E+03  0.11054567913E+04  0.64952576061E+03 0.  0.
         13    1    3    3    0    0  0.80342072289E+02 -0.21763991878E+03 -0.60460012905E+02  0.23974443890E+03  0.00000000000E+00 0.  1.
          3    1    3    3  501    0 -0.80345475957E+02  0.21762451783E+03 -0.83405158761E+03  0.86571235238E+03  0.00000000000E+00 0.  1.
         21    1    1    2  502  501  0.34036680493E-02  0.15400945162E-01 -0.11868817597E-01  0.19739374337E-01  0.00000000000E+00 0.  1.
<mgrwt>
<rscale>  1 0.64952576E+03</rscale>
<asrwt>0</asrwt>
<pdfrwt beam="1">  1        1 0.38355183E+00 0.64952576E+03</pdfrwt>
<pdfrwt beam="2">0</pdfrwt>
<totfact> 0.15829000E+00</totfact>
</mgrwt>
</event>
<event>
 6    1  0.6527224E-003  0.6495389E+03  0.7818608E-02  0.9807645E-01
          1   -1    0    0  502    0  0.00000000000E+00  0.00000000000E+00  0.10547648561E+03  0.10547648561E+03  0.00000000000E+00 0.  1.
         13   -1    0    0    0    0 -0.00000000000E+00 -0.00000000000E+00 -0.10000000000E+04  0.10000000000E+04  0.00000000000E+00 0.  1.
    9000005    2    1    2  501    0 -0.67054267319E-03 -0.24123291965E-04 -0.89452472139E+03  0.11054751046E+04  0.64953885937E+03 0.  0.
         13    1    3    3    0    0 -0.17953426651E+03  0.87099966484E+02 -0.88335868396E+03  0.90561665265E+03  0.00000000000E+00 0.  1.
          1    1    3    3  501    0  0.17953359597E+03 -0.87099990608E+02 -0.11166037422E+02  0.19985845200E+03  0.00000000000E+00 0.  1.
         21    1    1    2  502  501  0.67054267320E-03  0.24123291961E-04  0.12069928662E-02  0.13809566209E-02  0.00000000000E+00 0.  1.
<mgrwt>
<rscale>  1 0.64953886E+03</rscale>
<asrwt>0</asrwt>
<pdfrwt beam="1">  1        1 0.38355167E+00 0.64953886E+03</pdfrwt>
<pdfrwt beam="2">0</pdfrwt>
<totfact> 0.15828988E+00</totfact>
</mgrwt>
</event>
<event>
 6    1  0.6527224E-003  0.6379575E+03  0.7818608E-02  0.9829642E-01
          1   -1    0    0  502    0  0.00000000000E+00  0.00000000000E+00  0.10175110812E+03  0.10175110812E+03  0.00000000000E+00 0.  1.
         13   -1    0    0    0    0 -0.00000000000E+00 -0.00000000000E+00 -0.10000000000E+04  0.10000000000E+04  0.00000000000E+00 0.  1.
    9000005    2    1    2  501    0 -0.23534988331E-02 -0.58237169826E-02 -0.89824932561E+03  0.11017448119E+04  0.63795750603E+03 0.  0.
         13    1    3    3    0    0  0.18001579106E+03  0.24469280593E+03 -0.28110196200E+03  0.41388231098E+03  0.00000000000E+00 0.  1.
          3    1    3    3  501    0 -0.18001814455E+03 -0.24469862965E+03 -0.61714736361E+03  0.68786250089E+03  0.00000000000E+00 0.  1.
         21    1    1    2  502  501  0.23534988331E-02  0.58237169826E-02  0.43372693797E-03  0.62962493047E-02  0.00000000000E+00 0. -1.
<mgrwt>
<rscale>  1 0.63795751E+03</rscale>
<asrwt>0</asrwt>
<pdfrwt beam="1">  1        1 0.37000481E+00 0.63795751E+03</pdfrwt>
<pdfrwt beam="2">0</pdfrwt>
<totfact> 0.18199402E+00</totfact>
</mgrwt>
</event>
<event>
 6    1  0.6527224E-003  0.6545671E+03  0.7818608E-02  0.9798247E-01
          1   -1    0    0  502    0  0.00000000000E+00  0.00000000000E+00  0.11606966796E+03  0.11606966796E+03  0.00000000000E+00 0.  1.
         13   -1    0    0    0    0 -0.00000000000E+00 -0.00000000000E+00 -0.10000000000E+04  0.10000000000E+04  0.00000000000E+00 0.  1.
    9000005    2    1    2  501    0  0.42680826207E+01 -0.22108787267E+01 -0.89216573104E+03  0.11065341391E+04  0.65454946705E+03 0.  0.
         13    1    3    3    0    0 -0.83434860993E+02  0.27434106058E+03 -0.70549579648E+03  0.76154363789E+03  0.00000000000E+00 0.  1.
          1    1    3    3  501    0  0.87702943614E+02 -0.27655193931E+03 -0.18666993456E+03  0.34499050121E+03  0.00000000000E+00 0.  1.
         21    1    1    2  502  501 -0.42680826207E+01  0.22108787267E+01  0.82353990040E+01  0.95355288661E+01  0.00000000000E+00 0.  1.
<mgrwt>
<rscale>  1 0.65456712E+03</rscale>
<asrwt>0</asrwt>
<pdfrwt beam="1">  1        1 0.42207241E+00 0.65456712E+03</pdfrwt>
<pdfrwt beam="2">0</pdfrwt>
<totfact> 0.10641706E+00</totfact>
</mgrwt>
</event>
<event>
 6    1  0.8931571E-003  0.6637253E+03  0.7818608E-02  0.9781360E-01
          1   -1    0    0  502    0  0.00000000000E+00  0.00000000000E+00  0.11013280645E+03  0.11013280645E+03  0.00000000000E+00 0.  1.
         13   -1    0    0    0    0 -0.00000000000E+00 -0.00000000000E+00 -0.10000000000E+04  0.10000000000E+04  0.00000000000E+00 0.  1.
    9000005    2    1    2  501    0 -0.24665980902E-05  0.18114619103E-05 -0.88986719504E+03  0.11101328030E+04  0.66372525610E+03 0.  0.
         13    1    3    3    0    0  0.15942818574E+03 -0.17433289230E+02  0.41011827827E+02  0.16553922799E+03  0.00000000000E+00 0.  1.
          3    1    3    3  501    0 -0.15942818820E+03  0.17433291042E+02 -0.93087902287E+03  0.94459357506E+03  0.00000000000E+00 0.  1.
         21    1    1    2  502  501  0.24665980709E-05 -0.18114619080E-05  0.14893902733E-05  0.34034958019E-05  0.00000000000E+00 0. -1.
<mgrwt>
<rscale>  1 0.66372526E+03</rscale>
<asrwt>0</asrwt>
<pdfrwt beam="1">  1        1 0.40048378E+00 0.66372526E+03</pdfrwt>
<pdfrwt beam="2">0</pdfrwt>
<totfact> 0.13278015E+00</totfact>
</mgrwt>
</event>
<event>
 6    1  0.6527224E-003  0.6561132E+03  0.7818608E-02  0.9795375E-01
          1   -1    0    0  502    0  0.00000000000E+00  0.00000000000E+00  0.10762112997E+03  0.10762112997E+03  0.00000000000E+00 0.  1.
         13   -1    0    0    0    0 -0.00000000000E+00 -0.00000000000E+00 -0.10000000000E+04  0.10000000000E+04  0.00000000000E+00 0.  1.
    9000005    2    1    2  501    0  0.23475568618E-05  0.93639471288E-06 -0.89237887488E+03  0.11076211245E+04  0.65611317554E+03 0.  0.
         13    1    3    3    0    0 -0.27577590493E+02 -0.32144998171E+03 -0.34588244519E+03  0.47299606778E+03  0.00000000000E+00 0.  1.
          1    1    3    3  501    0  0.27577592841E+02  0.32144998265E+03 -0.54649642968E+03  0.63462505673E+03  0.00000000000E+00 0.  1.
         21    1    1    2  502  501 -0.23475568619E-05 -0.93639465988E-06  0.48488856111E-05  0.54680480840E-05  0.00000000000E+00 0.  1.
<mgrwt>
<rscale>  1 0.65611318E+03</rscale>
<asrwt>0</asrwt>
<pdfrwt beam="1">  1        1 0.39135039E+00 0.65611318E+03</pdfrwt>
<pdfrwt beam="2">0</pdfrwt>
<totfact> 0.14601085E+00</totfact>
</mgrwt>
</event>
<event>
 6    1  0.6527224E-003  0.6489774E+03  0.7818608E-02  0.9808700E-01
          1   -1    0    0  502    0  0.00000000000E+00  0.00000000000E+00  0.10673309274E+03  0.10673309274E+03  0.00000000000E+00 0.  1.
         13   -1    0    0    0    0 -0.00000000000E+00 -0.00000000000E+00 -0.10000000000E+04  0.10000000000E+04  0.00000000000E+00 0.  1.
    9000005    2    1    2  501    0 -0.30817417640E+01  0.18313939386E+00 -0.89257769920E+03  0.11035699171E+04  0.64897001637E+03 0.  0.
         13    1    3    3    0    0  0.16691859878E+03  0.26525594503E+03 -0.30714107044E+03  0.43881450767E+03  0.00000000000E+00 0.  1.
          3    1    3    3  501    0 -0.17000034054E+03 -0.26507280564E+03 -0.58543662876E+03  0.66475540943E+03  0.00000000000E+00 0.  1.
         21    1    1    2  502  501  0.30817417640E+01 -0.18313939386E+00 -0.68920806296E+00  0.31631756340E+01  0.00000000000E+00 0. -1.
<mgrwt>
<rscale>  1 0.64897736E+03</rscale>
<asrwt>0</asrwt>
<pdfrwt beam="1">  1        1 0.38812116E+00 0.64897736E+03</pdfrwt>
<pdfrwt beam="2">0</pdfrwt>
<totfact> 0.15110508E+00</totfact>
</mgrwt>
</event>
<event>
 6    1  0.6527224E-003  0.6546614E+03  0.7818608E-02  0.9798071E-01
          1   -1    0    0  502    0  0.00000000000E+00  0.00000000000E+00  0.10714909012E+03  0.10714909012E+03  0.00000000000E+00 0.  1.
         13   -1    0    0    0    0 -0.00000000000E+00 -0.00000000000E+00 -0.10000000000E+04  0.10000000000E+04  0.00000000000E+00 0.  1.
    9000005    2    1    2  501    0  0.20350474955E-02  0.31028237976E-03 -0.89285427929E+03  0.11071451416E+04  0.65466143965E+03 0.  0.
         13    1    3    3    0    0 -0.16463534504E+03  0.28076941734E+03 -0.38762610805E+03  0.50615241004E+03  0.00000000000E+00 0.  1.
          1    1    3    3  501    0  0.16463738009E+03 -0.28076910705E+03 -0.50522817124E+03  0.60099273158E+03  0.00000000000E+00 0.  1.
         21    1    1    2  502  501 -0.20350474955E-02 -0.31028237976E-03  0.33694131379E-02  0.39484982409E-02  0.00000000000E+00 0. -1.
<mgrwt>
<rscale>  1 0.65466144E+03</rscale>
<asrwt>0</asrwt>
<pdfrwt beam="1">  1        1 0.38963388E+00 0.65466144E+03</pdfrwt>
<pdfrwt beam="2">0</pdfrwt>
<totfact> 0.14863341E+00</totfact>
</mgrwt>
</event>
<event>
 6    1  0.6527224E-003  0.6632862E+03  0.7818608E-02  0.9782163E-01
          1   -1    0    0  502    0  0.00000000000E+00  0.00000000000E+00  0.11079124253E+03  0.11079124253E+03  0.00000000000E+00 0.  1.
         13   -1    0    0    0    0 -0.00000000000E+00 -0.00000000000E+00 -0.10000000000E+04  0.10000000000E+04  0.00000000000E+00 0.  1.
    9000005    2    1    2  501    0 -0.11994795121E+01  0.23478088424E+00 -0.88945952019E+03  0.11095435426E+04  0.66328511291E+03 0.  0.
         13    1    3    3    0    0 -0.14477482744E+01 -0.31272590866E+03 -0.62870618830E+03  0.70219018871E+03  0.00000000000E+00 0.  1.
          1    1    3    3  501    0  0.24826876228E+00  0.31296068954E+03 -0.26075333189E+03  0.40735335389E+03  0.00000000000E+00 0.  1.
         21    1    1    2  502  501  0.11994795121E+01 -0.23478088424E+00  0.25076271278E+00  0.12476999245E+01  0.00000000000E+00 0.  1.
<mgrwt>
<rscale>  1 0.66328624E+03</rscale>
<asrwt>0</asrwt>
<pdfrwt beam="1">  1        1 0.40287810E+00 0.66328624E+03</pdfrwt>
<pdfrwt beam="2">0</pdfrwt>
<totfact> 0.12956324E+00</totfact>
</mgrwt>
</event>
<event>
 6    1  0.6527224E-003  0.6396330E+03  0.7818608E-02  0.9826429E-01
          1   -1    0    0  502    0  0.00000000000E+00  0.00000000000E+00  0.10228262850E+03  0.10228262850E+03  0.00000000000E+00 0.  1.
         13   -1    0    0    0    0 -0.00000000000E+00 -0.00000000000E+00 -0.10000000000E+04  0.10000000000E+04  0.00000000000E+00 0.  1.
    9000005    2    1    2  501    0  0.61767685224E-05 -0.97342311847E-05 -0.89771741161E+03  0.11022825868E+04  0.63963298067E+03 0.  0.
         13    1    3    3    0    0 -0.22736694728E+03 -0.16918678169E+03 -0.19346812138E+03  0.34314692160E+03  0.00000000000E+00 0.  1.
          3    1    3    3  501    0  0.22736695346E+03  0.16918677195E+03 -0.70424929024E+03  0.75913566517E+03  0.00000000000E+00 0.  1.
         21    1    1    2  502  501 -0.61767685461E-05  0.97342311801E-05  0.40112991011E-04  0.41736791613E-04  0.00000000000E+00 0.  1.
<mgrwt>
<rscale>  1 0.63963298E+03</rscale>
<asrwt>0</asrwt>
<pdfrwt beam="1">  1        1 0.37193762E+00 0.63963298E+03</pdfrwt>
<pdfrwt beam="2">0</pdfrwt>
<totfact> 0.17841534E+00</totfact>
</mgrwt>
</event>
<event>
 6    1  0.6527224E-003  0.6403800E+03  0.7818608E-02  0.9825000E-01
          1   -1    0    0  502    0  0.00000000000E+00  0.00000000000E+00  0.10252249169E+03  0.10252249169E+03  0.00000000000E+00 0.  1.
         13   -1    0    0    0    0 -0.00000000000E+00 -0.00000000000E+00 -0.10000000000E+04  0.10000000000E+04  0.00000000000E+00 0.  1.
    9000005    2    1    2  501    0 -0.47933391534E-03 -0.14510185961E-04 -0.89747829109E+03  0.11025215737E+04  0.64037999460E+03 0.  0.
         13    1    3    3    0    0 -0.29675618767E+03  0.13971142779E+02 -0.24312915735E+03  0.38388958687E+03  0.00000000000E+00 0.  1.
          1    1    3    3  501    0  0.29675570834E+03 -0.13971157289E+02 -0.65434913374E+03  0.71863198683E+03  0.00000000000E+00 0.  1.
         21    1    1    2  502  501  0.47933391536E-03  0.14510185961E-04  0.78277906798E-03  0.91799488951E-03  0.00000000000E+00 0. -1.
<mgrwt>
<rscale>  1 0.64037999E+03</rscale>
<asrwt>0</asrwt>
<pdfrwt beam="1">  1        1 0.37280985E+00 0.64037999E+03</pdfrwt>
<pdfrwt beam="2">0</pdfrwt>
<totfact> 0.17682277E+00</totfact>
</mgrwt>
</event>
<event>
 6    1  0.6527224E-003  0.6508651E+03  0.7818608E-02  0.9805157E-01
          1   -1    0    0  502    0  0.00000000000E+00  0.00000000000E+00  0.10590634224E+03  0.10590634224E+03  0.00000000000E+00 0.  1.
         13   -1    0    0    0    0 -0.00000000000E+00 -0.00000000000E+00 -0.10000000000E+04  0.10000000000E+04  0.00000000000E+00 0.  1.
    9000005    2    1    2  501    0  0.56946527138E-06  0.66365626594E-06 -0.89409365753E+03  0.11059063413E+04  0.65086509152E+03 0.  0.
         13    1    3    3    0    0 -0.10012460295E+03 -0.73400237131E+02 -0.95818322608E+03  0.96619233368E+03  0.00000000000E+00 0.  1.
          3    1    3    3  501    0  0.10012460352E+03  0.73400237794E+02  0.64089568544E+02  0.13971400765E+03  0.00000000000E+00 0.  1.
         21    1    1    2  502  501 -0.56946526644E-06 -0.66365625399E-06 -0.23179246867E-06  0.90468672018E-06  0.00000000000E+00 0. -1.
<mgrwt>
<rscale>  1 0.65086509E+03</rscale>
<asrwt>0</asrwt>
<pdfrwt beam="1">  1        1 0.38511478E+00 0.65086509E+03</pdfrwt>
<pdfrwt beam="2">0</pdfrwt>
<totfact> 0.15575254E+00</totfact>
</mgrwt>
</event>
<event>
 6    1  0.6527224E-003  0.6384924E+03  0.7818608E-02  0.9828615E-01
          1   -1    0    0  502    0  0.00000000000E+00  0.00000000000E+00  0.10191958999E+03  0.10191958999E+03  0.00000000000E+00 0.  1.
         13   -1    0    0    0    0 -0.00000000000E+00 -0.00000000000E+00 -0.10000000000E+04  0.10000000000E+04  0.00000000000E+00 0.  1.
    9000005    2    1    2  501    0 -0.94734290076E-03  0.18186264725E-04 -0.89808168464E+03  0.11019180018E+04  0.63849241992E+03 0.  0.
         13    1    3    3    0    0  0.21606259401E+03 -0.17573333086E+03 -0.17972139749E+03  0.33145893987E+03  0.00000000000E+00 0.  1.
          1    1    3    3  501    0 -0.21606354135E+03  0.17573334905E+03 -0.71836028716E+03  0.77045906188E+03  0.00000000000E+00 0.  1.
         21    1    1    2  502  501  0.94734290077E-03 -0.18186264729E-04  0.12746313308E-02  0.15882299397E-02  0.00000000000E+00 0. -1.
<mgrwt>
<rscale>  1 0.63849242E+03</rscale>
<asrwt>0</asrwt>
<pdfrwt beam="1">  1        1 0.37061747E+00 0.63849242E+03</pdfrwt>
<pdfrwt beam="2">0</pdfrwt>
<totfact> 0.18085216E+00</totfact>
</mgrwt>
</event>
<event>
 6    1  0.6527224E-003  0.6453636E+03  0.7818608E-02  0.9815518E-01
          1   -1    0    0  502    0  0.00000000000E+00  0.00000000000E+00  0.10412357988E+03  0.10412357988E+03  0.00000000000E+00 0.  1.
         13   -1    0    0    0    0 -0.00000000000E+00 -0.00000000000E+00 -0.10000000000E+04  0.10000000000E+04  0.00000000000E+00 0.  1.
    9000005    2    1    2  501    0  0.14190185283E-04  0.15019895443E-04 -0.89587643773E+03  0.11041235527E+04  0.64536364015E+03 0.  0.
         13    1    3    3    0    0 -0.22328686413E+03  0.15565203028E+03 -0.74445942231E+03  0.79265655216E+03  0.00000000000E+00 0.  1.
          1    1    3    3  501    0  0.22328687832E+03 -0.15565201526E+03 -0.15141701542E+03  0.31146700057E+03  0.00000000000E+00 0.  1.
         21    1    1    2  502  501 -0.14190185264E-04 -0.15019895458E-04  0.17602268088E-04  0.27144031742E-04  0.00000000000E+00 0. -1.
<mgrwt>
<rscale>  1 0.64536364E+03</rscale>
<asrwt>0</asrwt>
<pdfrwt beam="1">  1        1 0.37863200E+00 0.64536364E+03</pdfrwt>
<pdfrwt beam="2">0</pdfrwt>
<totfact> 0.16653490E+00</totfact>
</mgrwt>
</event>
<event>
 6    1  0.6527224E-003  0.6129896E+03  0.7818608E-02  0.9878817E-01
          1   -1    0    0  502    0  0.00000000000E+00  0.00000000000E+00  0.93939343445E+02  0.93939343445E+02  0.00000000000E+00 0.  1.
         13   -1    0    0    0    0 -0.00000000000E+00 -0.00000000000E+00 -0.10000000000E+04  0.10000000000E+04  0.00000000000E+00 0.  1.
    9000005    2    1    2  501    0  0.58139771909E-04 -0.90971457865E-04 -0.90606092112E+03  0.10939390577E+04  0.61298961589E+03 0.  0.
         13    1    3    3    0    0  0.14308573752E+03  0.21650309928E+03 -0.16201569328E+03  0.30593496882E+03  0.00000000000E+00 0.  1.
          3    1    3    3  501    0 -0.14308567938E+03 -0.21650319025E+03 -0.74404522783E+03  0.78800408888E+03  0.00000000000E+00 0.  1.
         21    1    1    2  502  501 -0.58139771892E-04  0.90971457871E-04  0.26456081391E-03  0.28574195261E-03  0.00000000000E+00 0. -1.
<mgrwt>
<rscale>  1 0.61298962E+03</rscale>
<asrwt>0</asrwt>
<pdfrwt beam="1">  1        1 0.34159833E+00 0.61298962E+03</pdfrwt>
<pdfrwt beam="2">0</pdfrwt>
<totfact> 0.24325537E+00</totfact>
</mgrwt>
</event>
<event>
 6    1  0.6527224E-003  0.6429338E+03  0.7818608E-02  0.9820129E-01
          1   -1    0    0  502    0  0.00000000000E+00  0.00000000000E+00  0.11562029886E+03  0.11562029886E+03  0.00000000000E+00 0.  1.
         13   -1    0    0    0    0 -0.00000000000E+00 -0.00000000000E+00 -0.10000000000E+04  0.10000000000E+04  0.00000000000E+00 0.  1.
    9000005    2    1    2  501    0  0.17876346917E+02 -0.24198742291E+02 -0.87125397092E+03  0.10827961050E+04  0.64222953862E+03 0.  0.
         13    1    3    3    0    0 -0.16888779663E+01 -0.55059064530E+02 -0.97306689119E+03  0.97462481378E+03  0.00000000000E+00 0.  1.
          1    1    3    3  501    0  0.19565224883E+02  0.30860322239E+02  0.10181292027E+03  0.10817129124E+03  0.00000000000E+00 0.  1.
         21    1    1    2  502  501 -0.17876346917E+02  0.24198742291E+02 -0.13125730221E+02  0.32824193842E+02  0.00000000000E+00 0. -1.
<mgrwt>
<rscale>  1 0.64293384E+03</rscale>
<asrwt>0</asrwt>
<pdfrwt beam="1">  1        1 0.42043834E+00 0.64293384E+03</pdfrwt>
<pdfrwt beam="2">0</pdfrwt>
<totfact> 0.10848986E+00</totfact>
</mgrwt>
</event>
<event>
 6    1  0.6527224E-003  0.6531809E+03  0.7818608E-02  0.9800829E-01
          1   -1    0    0  502    0  0.00000000000E+00  0.00000000000E+00  0.10669280640E+03  0.10669280640E+03  0.00000000000E+00 0.  1.
         13   -1    0    0    0    0 -0.00000000000E+00 -0.00000000000E+00 -0.10000000000E+04  0.10000000000E+04  0.00000000000E+00 0.  1.
    9000005    2    1    2  501    0  0.59110214444E-03 -0.76537757423E-04 -0.89333866084E+03  0.11066613335E+04  0.65318094289E+03 0.  0.
         13    1    3    3    0    0 -0.63683648260E+02  0.30021945575E+03 -0.63589623376E+03  0.70608168705E+03  0.00000000000E+00 0.  1.
          1    1    3    3  501    0  0.63684239362E+02 -0.30021953229E+03 -0.25744242707E+03  0.40057964647E+03  0.00000000000E+00 0.  1.
         21    1    1    2  502  501 -0.59110214444E-03  0.76537757394E-04  0.31467237182E-01  0.31472881591E-01  0.00000000000E+00 0.  1.
<mgrwt>
<rscale>  1 0.65318094E+03</rscale>
<asrwt>0</asrwt>
<pdfrwt beam="1">  1        1 0.38797466E+00 0.65318094E+03</pdfrwt>
<pdfrwt beam="2">0</pdfrwt>
<totfact> 0.15121302E+00</totfact>
</mgrwt>
</event>
<event>
 6    1  0.6527224E-003  0.6081657E+03  0.7818608E-02  0.9888608E-01
          1   -1    0    0  502    0  0.00000000000E+00  0.00000000000E+00  0.92747408979E+02  0.92747408979E+02  0.00000000000E+00 0.  1.
         13   -1    0    0    0    0 -0.00000000000E+00 -0.00000000000E+00 -0.10000000000E+04  0.10000000000E+04  0.00000000000E+00 0.  1.
    9000005    2    1    2  501    0 -0.68334755059E-02 -0.43502519389E-03 -0.90753357314E+03  0.10924663434E+04  0.60816570532E+03 0.  0.
         13    1    3    3    0    0 -0.29482820196E+03  0.44006169497E+02 -0.56167364640E+03  0.63587537826E+03  0.00000000000E+00 0.  1.
          1    1    3    3  501    0  0.29482136848E+03 -0.44006604522E+02 -0.34585992674E+03  0.45659096518E+03  0.00000000000E+00 0.  1.
         21    1    1    2  502  501  0.68334755059E-02  0.43502519389E-03  0.28098211873E+00  0.28106553805E+00  0.00000000000E+00 0. -1.
<mgrwt>
<rscale>  1 0.60816571E+03</rscale>
<asrwt>0</asrwt>
<pdfrwt beam="1">  1        1 0.33726402E+00 0.60816571E+03</pdfrwt>
<pdfrwt beam="2">0</pdfrwt>
<totfact> 0.25424711E+00</totfact>
</mgrwt>
</event>
<event>
 6    1  0.6527224E-003  0.6422320E+03  0.7818608E-02  0.9821465E-01
          1   -1    0    0  502    0  0.00000000000E+00  0.00000000000E+00  0.10312933801E+03  0.10312933801E+03  0.00000000000E+00 0.  1.
         13   -1    0    0    0    0 -0.00000000000E+00 -0.00000000000E+00 -0.10000000000E+04  0.10000000000E+04  0.00000000000E+00 0.  1.
    9000005    2    1    2  501    0  0.17485493430E-04 -0.60402696876E-03 -0.89688450311E+03  0.11031154837E+04  0.64223201294E+03 0.  0.
         13    1    3    3    0    0  0.11929527739E+03  0.12194101908E+03  0.18848743590E+02  0.17162823333E+03  0.00000000000E+00 0.  1.
          1    1    3    3  501    0 -0.11929525990E+03 -0.12194162311E+03 -0.91573324671E+03  0.93148725037E+03  0.00000000000E+00 0.  1.
         21    1    1    2  502  501 -0.17485493442E-04  0.60402696876E-03  0.13841128490E-01  0.13854313126E-01  0.00000000000E+00 0. -1.
<mgrwt>
<rscale>  1 0.64223201E+03</rscale>
<asrwt>0</asrwt>
<pdfrwt beam="1">  1        1 0.37501657E+00 0.64223201E+03</pdfrwt>
<pdfrwt beam="2">0</pdfrwt>
<totfact> 0.17285520E+00</totfact>
</mgrwt>
</event>
<event>
 6    1  0.6527224E-003  0.6571730E+03  0.7818608E-02  0.9793412E-01
          1   -1    0    0  502    0  0.00000000000E+00  0.00000000000E+00  0.10797348342E+03  0.10797348342E+03  0.00000000000E+00 0.  1.
         13   -1    0    0    0    0 -0.00000000000E+00 -0.00000000000E+00 -0.10000000000E+04  0.10000000000E+04  0.00000000000E+00 0.  1.
    9000005    2    1    2  501    0  0.28664353823E-03  0.13304684947E-03 -0.89203091091E+03  0.11079690777E+04  0.65717298425E+03 0.  0.
         13    1    3    3    0    0 -0.29234488334E+03 -0.14753502128E+03 -0.40024931985E+03  0.51713792296E+03  0.00000000000E+00 0.  1.
          3    1    3    3  501    0  0.29234516998E+03  0.14753515432E+03 -0.49178159105E+03  0.59083115479E+03  0.00000000000E+00 0.  1.
         21    1    1    2  502  501 -0.28664353826E-03 -0.13304684948E-03  0.43943251217E-02  0.44056735305E-02  0.00000000000E+00 0.  1.
<mgrwt>
<rscale>  1 0.65717298E+03</rscale>
<asrwt>0</asrwt>
<pdfrwt beam="1">  1        1 0.39263168E+00 0.65717298E+03</pdfrwt>
<pdfrwt beam="2">0</pdfrwt>
<totfact> 0.14408253E+00</totfact>
</mgrwt>
</event>
<event>
 6    1  0.6527224E-003  0.6450778E+03  0.7818608E-02  0.9816059E-01
          1   -1    0    0  502    0  0.00000000000E+00  0.00000000000E+00  0.10462808512E+03  0.10462808512E+03  0.00000000000E+00 0.  1.
         13   -1    0    0    0    0 -0.00000000000E+00 -0.00000000000E+00 -0.10000000000E+04  0.10000000000E+04  0.00000000000E+00 0.  1.
    9000005    2    1    2  501    0 -0.22876648936E-01 -0.58163011687E-01 -0.89596685535E+03  0.11040298707E+04  0.64507778269E+03 0.  0.
         13    1    3    3    0    0 -0.31700393471E+03  0.21483256000E+02 -0.35294725695E+03  0.47489450523E+03  0.00000000000E+00 0.  1.
          1    1    3    3  501    0  0.31698105806E+03 -0.21541419012E+02 -0.54301959840E+03  0.62913536552E+03  0.00000000000E+00 0.  1.
         21    1    1    2  502  501  0.22876648936E-01  0.58163011687E-01  0.59494046524E+00  0.59821437142E+00  0.00000000000E+00 0.  1.
<mgrwt>
<rscale>  1 0.64507779E+03</rscale>
<asrwt>0</asrwt>
<pdfrwt beam="1">  1        1 0.38046657E+00 0.64507779E+03</pdfrwt>
<pdfrwt beam="2">0</pdfrwt>
<totfact> 0.16346905E+00</totfact>
</mgrwt>
</event>
<event>
 6    1  0.6527224E-003  0.6495038E+03  0.7818608E-02  0.9807711E-01
          1   -1    0    0  502    0  0.00000000000E+00  0.00000000000E+00  0.11573382264E+03  0.11573382264E+03  0.00000000000E+00 0.  1.
         13   -1    0    0    0    0 -0.00000000000E+00 -0.00000000000E+00 -0.10000000000E+04  0.10000000000E+04  0.00000000000E+00 0.  1.
    9000005    2    1    2  501    0  0.15555512906E+00 -0.44026182170E+00 -0.89453032037E+03  0.11054590643E+04  0.64950368027E+03 0.  0.
         13    1    3    3    0    0 -0.10793694707E+02  0.23561263266E+03 -0.82658671930E+03  0.85957862993E+03  0.00000000000E+00 0.  1.
          3    1    3    3  501    0  0.10949249836E+02 -0.23605289448E+03 -0.67943601070E+02  0.24588043434E+03  0.00000000000E+00 0.  1.
         21    1    1    2  502  501 -0.15555512906E+00  0.44026182170E+00  0.10264143007E+02  0.10274758369E+02  0.00000000000E+00 0.  1.
<mgrwt>
<rscale>  1 0.64950385E+03</rscale>
<asrwt>0</asrwt>
<pdfrwt beam="1">  1        1 0.42085115E+00 0.64950385E+03</pdfrwt>
<pdfrwt beam="2">0</pdfrwt>
<totfact> 0.10788455E+00</totfact>
</mgrwt>
</event>
<event>
 6    1  0.6527224E-003  0.6680330E+03  0.7818608E-02  0.9773518E-01
          1   -1    0    0  502    0  0.00000000000E+00  0.00000000000E+00  0.11185200070E+03  0.11185200070E+03  0.00000000000E+00 0.  1.
         13   -1    0    0    0    0 -0.00000000000E+00 -0.00000000000E+00 -0.10000000000E+04  0.10000000000E+04  0.00000000000E+00 0.  1.
    9000005    2    1    2  501    0  0.69022328574E-02 -0.18965181662E-02 -0.88843292333E+03  0.11115669868E+04  0.66803301322E+03 0.  0.
         13    1    3    3    0    0 -0.25447575130E+02  0.24261673707E+03 -0.82385594575E+03  0.85921422214E+03  0.00000000000E+00 0.  1.
          3    1    3    3  501    0  0.25454477363E+02 -0.24261863359E+03 -0.64576977585E+02  0.25235276463E+03  0.00000000000E+00 0.  1.
         21    1    1    2  502  501 -0.69022328574E-02  0.18965181662E-02  0.28492402832E+00  0.28501392863E+00  0.00000000000E+00 0.  1.
<mgrwt>
<rscale>  1 0.66803301E+03</rscale>
<asrwt>0</asrwt>
<pdfrwt beam="1">  1        1 0.40673541E+00 0.66803301E+03</pdfrwt>
<pdfrwt beam="2">0</pdfrwt>
<totfact> 0.12440717E+00</totfact>
</mgrwt>
</event>
<event>
 6    1  0.6527224E-003  0.6669660E+03  0.7818608E-02  0.9775454E-01
          1   -1    0    0  502    0  0.00000000000E+00  0.00000000000E+00  0.11123018349E+03  0.11123018349E+03  0.00000000000E+00 0.  1.
         13   -1    0    0    0    0 -0.00000000000E+00 -0.00000000000E+00 -0.10000000000E+04  0.10000000000E+04  0.00000000000E+00 0.  1.
    9000005    2    1    2  501    0  0.80853505387E-02  0.51848238792E-01 -0.88873322723E+03  0.11111662117E+04  0.66696596475E+03 0.  0.
         13    1    3    3    0    0  0.13140926940E+03  0.25771150192E+03 -0.16791092263E+03  0.33448122854E+03  0.00000000000E+00 0.  1.
          1    1    3    3  501    0 -0.13140118404E+03 -0.25765965368E+03 -0.72082230459E+03  0.77668498318E+03  0.00000000000E+00 0.  1.
         21    1    1    2  502  501 -0.80853505387E-02 -0.51848238792E-01 -0.36589278118E-01  0.63971775279E-01  0.00000000000E+00 0.  1.
<mgrwt>
<rscale>  1 0.66696597E+03</rscale>
<asrwt>0</asrwt>
<pdfrwt beam="1">  1        1 0.40447425E+00 0.66696597E+03</pdfrwt>
<pdfrwt beam="2">0</pdfrwt>
<totfact> 0.12736463E+00</totfact>
</mgrwt>
</event>
<event>
 6    1  0.6527224E-003  0.6450224E+03  0.7818608E-02  0.9816164E-01
          1   -1    0    0  502    0  0.00000000000E+00  0.00000000000E+00  0.10403523282E+03  0.10403523282E+03  0.00000000000E+00 0.  1.
         13   -1    0    0    0    0 -0.00000000000E+00 -0.00000000000E+00 -0.10000000000E+04  0.10000000000E+04  0.00000000000E+00 0.  1.
    9000005    2    1    2  501    0 -0.24681425844E-02 -0.31254225925E-03 -0.89598646045E+03  0.11040133974E+04  0.64502235947E+03 0.  0.
         13    1    3    3    0    0  0.22216175031E+02 -0.54342577575E+02  0.94790529425E+02  0.11149851407E+03  0.00000000000E+00 0.  1.
          1    1    3    3  501    0 -0.22218643174E+02  0.54342265032E+02 -0.99077698988E+03  0.99251488329E+03  0.00000000000E+00 0.  1.
         21    1    1    2  502  501  0.24681425844E-02  0.31254225925E-03  0.21693270123E-01  0.21835461505E-01  0.00000000000E+00 0. -1.
<mgrwt>
<rscale>  1 0.64502236E+03</rscale>
<asrwt>0</asrwt>
<pdfrwt beam="1">  1        1 0.37831074E+00 0.64502236E+03</pdfrwt>
<pdfrwt beam="2">0</pdfrwt>
<totfact> 0.16708940E+00</totfact>
</mgrwt>
</event>
<event>
 6    1  0.6527224E-003  0.6363515E+03  0.7818608E-02  0.9832732E-01
          1   -1    0    0  502    0  0.00000000000E+00  0.00000000000E+00  0.10136146378E+03  0.10136146378E+03  0.00000000000E+00 0.  1.
         13   -1    0    0    0    0 -0.00000000000E+00 -0.00000000000E+00 -0.10000000000E+04  0.10000000000E+04  0.00000000000E+00 0.  1.
    9000005    2    1    2  501    0  0.15642456869E+00  0.56780920513E-01 -0.89870055682E+03  0.11011838708E+04  0.63635147422E+03 0.  0.
         13    1    3    3    0    0 -0.83528684492E+01 -0.23168751380E+03 -0.72281451321E+02  0.24284456483E+03  0.00000000000E+00 0.  1.
          3    1    3    3  501    0  0.85092930179E+01  0.23174429472E+03 -0.82641910550E+03  0.85833930595E+03  0.00000000000E+00 0.  1.
         21    1    1    2  502  501 -0.15642456869E+00 -0.56780920513E-01  0.62020607542E-01  0.17759300207E+00  0.00000000000E+00 0. -1.
<mgrwt>
<rscale>  1 0.63635150E+03</rscale>
<asrwt>0</asrwt>
<pdfrwt beam="1">  1        1 0.36858792E+00 0.63635150E+03</pdfrwt>
<pdfrwt beam="2">0</pdfrwt>
<totfact> 0.18467363E+00</totfact>
</mgrwt>
</event>
<event>
 6    1  0.6527224E-003  0.6441977E+03  0.7818608E-02  0.9817728E-01
          1   -1    0    0  502    0  0.00000000000E+00  0.00000000000E+00  0.10398487683E+03  0.10398487683E+03  0.00000000000E+00 0.  1.
         13   -1    0    0    0    0 -0.00000000000E+00 -0.00000000000E+00 -0.10000000000E+04  0.10000000000E+04  0.00000000000E+00 0.  1.
    9000005    2    1    2  501    0 -0.63445274632E-02 -0.19606418603E-01 -0.89625182428E+03  0.11037472804E+04  0.64419773825E+03 0.  0.
         13    1    3    3    0    0 -0.35297349226E+02  0.41618377994E+02  0.95769199494E+02  0.11022582193E+03  0.00000000000E+00 0.  1.
          1    1    3    3  501    0  0.35291004699E+02 -0.41637984413E+02 -0.99202102377E+03  0.99352145843E+03  0.00000000000E+00 0.  1.
         21    1    1    2  502  501  0.63445274632E-02  0.19606418603E-01  0.23670111018E+00  0.23759646513E+00  0.00000000000E+00 0.  1.
<mgrwt>
<rscale>  1 0.64419774E+03</rscale>
<asrwt>0</asrwt>
<pdfrwt beam="1">  1        1 0.37812762E+00 0.64419774E+03</pdfrwt>
<pdfrwt beam="2">0</pdfrwt>
<totfact> 0.16742560E+00</totfact>
</mgrwt>
</event>
<event>
 6    1  0.6527224E-003  0.6470262E+03  0.7818608E-02  0.9812375E-01
          1   -1    0    0  502    0  0.00000000000E+00  0.00000000000E+00  0.11332270353E+03  0.11332270353E+03  0.00000000000E+00 0.  1.
         13   -1    0    0    0    0 -0.00000000000E+00 -0.00000000000E+00 -0.10000000000E+04  0.10000000000E+04  0.00000000000E+00 0.  1.
    9000005    2    1    2  501    0  0.22766087978E+00  0.20514382909E+00 -0.89533627385E+03  0.11046583049E+04  0.64702614591E+03 0.  0.
         13    1    3    3    0    0  0.29824443260E+03 -0.52159646186E+02 -0.25277443767E+03  0.39441765504E+03  0.00000000000E+00 0.  1.
          1    1    3    3  501    0 -0.29801677172E+03  0.52364790015E+02 -0.64256183618E+03  0.71024064990E+03  0.00000000000E+00 0.  1.
         21    1    1    2  502  501 -0.22766087978E+00 -0.20514382909E+00  0.86589773797E+01  0.86643985786E+01  0.00000000000E+00 0. -1.
<mgrwt>
<rscale>  1 0.64702622E+03</rscale>
<asrwt>0</asrwt>
<pdfrwt beam="1">  1        1 0.41208343E+00 0.64702622E+03</pdfrwt>
<pdfrwt beam="2">0</pdfrwt>
<totfact> 0.11820198E+00</totfact>
</mgrwt>
</event>
<event>
 6    1  0.6527224E-003  0.4678909E+03  0.7818608E-02  0.1022517E+00
          1   -1    0    0  502    0  0.00000000000E+00  0.00000000000E+00  0.54730485759E+02  0.54730485759E+02  0.00000000000E+00 0.  1.
         13   -1    0    0    0    0 -0.00000000000E+00 -0.00000000000E+00 -0.10000000000E+04  0.10000000000E+04  0.00000000000E+00 0.  1.
    9000005    2    1    2  501    0 -0.54671818361E-06 -0.43590548387E-04 -0.94526949950E+03  0.10547304397E+04  0.46789087812E+03 0.  0.
         13    1    3    3    0    0 -0.13064005194E+03  0.15257930707E+03 -0.74298359664E+03  0.76965699697E+03  0.00000000000E+00 0.  1.
          1    1    3    3  501    0  0.13064005139E+03 -0.15257935066E+03 -0.20228590287E+03  0.28507344277E+03  0.00000000000E+00 0.  1.
         21    1    1    2  502  501  0.54671820199E-06  0.43590548380E-04 -0.14736176710E-04  0.46017276244E-04  0.00000000000E+00 0.  1.
<mgrwt>
<rscale>  1 0.46789088E+03</rscale>
<asrwt>0</asrwt>
<pdfrwt beam="1">  1        1 0.19902037E+00 0.46789088E+03</pdfrwt>
<pdfrwt beam="2">0</pdfrwt>
<totfact> 0.10438745E+01</totfact>
</mgrwt>
</event>
<event>
 6    1  0.6527224E-003  0.6402287E+03  0.7818608E-02  0.9825289E-01
          1   -1    0    0  502    0  0.00000000000E+00  0.00000000000E+00  0.10247351332E+03  0.10247351332E+03  0.00000000000E+00 0.  1.
         13   -1    0    0    0    0 -0.00000000000E+00 -0.00000000000E+00 -0.10000000000E+04  0.10000000000E+04  0.00000000000E+00 0.  1.
    9000005    2    1    2  501    0 -0.20151031777E-05  0.46384718848E-03 -0.89752662770E+03  0.11024730285E+04  0.64022865536E+03 0.  0.
         13    1    3    3    0    0 -0.18483171669E+02 -0.43033216399E+00  0.10155307132E+03  0.10322228013E+03  0.00000000000E+00 0.  1.
          3    1    3    3  501    0  0.18483169654E+02  0.43079601117E+00 -0.99907969902E+03  0.99925074838E+03  0.00000000000E+00 0.  1.
         21    1    1    2  502  501  0.20151031806E-05 -0.46384718848E-03  0.14101658239E-03  0.48481331605E-03  0.00000000000E+00 0. -1.
<mgrwt>
<rscale>  1 0.64022866E+03</rscale>
<asrwt>0</asrwt>
<pdfrwt beam="1">  1        1 0.37263174E+00 0.64022866E+03</pdfrwt>
<pdfrwt beam="2">0</pdfrwt>
<totfact> 0.17714682E+00</totfact>
</mgrwt>
</event>
<event>
 6    1  0.6527224E-003  0.6450865E+03  0.7818608E-02  0.9816043E-01
          1   -1    0    0  502    0  0.00000000000E+00  0.00000000000E+00  0.10456396439E+03  0.10456396439E+03  0.00000000000E+00 0.  1.
         13   -1    0    0    0    0 -0.00000000000E+00 -0.00000000000E+00 -0.10000000000E+04  0.10000000000E+04  0.00000000000E+00 0.  1.
    9000005    2    1    2  501    0  0.37960727478E+00 -0.41747370818E-01 -0.89588882090E+03  0.11039716308E+04  0.64508637905E+03 0.  0.
         13    1    3    3    0    0  0.16570189773E+03  0.26339316875E+03 -0.30231023426E+03  0.43384854269E+03  0.00000000000E+00 0.  1.
          1    1    3    3  501    0 -0.16532229045E+03 -0.26343491612E+03 -0.59357858664E+03  0.67012308815E+03  0.00000000000E+00 0.  1.
         21    1    1    2  502  501 -0.37960727478E+00  0.41747370818E-01  0.45278528074E+00  0.59233355172E+00  0.00000000000E+00 0. -1.
<mgrwt>
<rscale>  1 0.64508649E+03</rscale>
<asrwt>0</asrwt>
<pdfrwt beam="1">  1        1 0.38023340E+00 0.64508649E+03</pdfrwt>
<pdfrwt beam="2">0</pdfrwt>
<totfact> 0.16385652E+00</totfact>
</mgrwt>
</event>
<event>
 6    1  0.6527224E-003  0.6489475E+03  0.7818608E-02  0.9808756E-01
          3   -1    0    0  502    0  0.00000000000E+00  0.00000000000E+00  0.10530198521E+03  0.10530198521E+03  0.00000000000E+00 0.  1.
         13   -1    0    0    0    0 -0.00000000000E+00 -0.00000000000E+00 -0.10000000000E+04  0.10000000000E+04  0.00000000000E+00 0.  1.
    9000005    2    1    2  501    0  0.41888369965E-01  0.19184753105E-01 -0.89467787524E+03  0.11052517031E+04  0.64894747446E+03 0.  0.
         13    1    3    3    0    0 -0.73741745311E+02 -0.39426430378E+01 -0.98544696344E+03  0.98821005216E+03  0.00000000000E+00 0.  1.
          1    1    3    3  501    0  0.73783633681E+02  0.39618277909E+01  0.90769088200E+02  0.11704165093E+03  0.00000000000E+00 0.  1.
         21    1    1    2  502  501 -0.41888369965E-01 -0.19184753105E-01 -0.20139554090E-01  0.50282123353E-01  0.00000000000E+00 0. -1.
<mgrwt>
<rscale>  1 0.64894748E+03</rscale>
<asrwt>0</asrwt>
<pdfrwt beam="1">  1        3 0.38291712E+00 0.64894748E+03</pdfrwt>
<pdfrwt beam="2">0</pdfrwt>
<totfact> 0.72862192E-02</totfact>
</mgrwt>
</event>
<event>
 6    1  0.6527224E-003  0.6413795E+03  0.7818608E-02  0.9823091E-01
          1   -1    0    0  502    0  0.00000000000E+00  0.00000000000E+00  0.10340623573E+03  0.10340623573E+03  0.00000000000E+00 0.  1.
         13   -1    0    0    0    0 -0.00000000000E+00 -0.00000000000E+00 -0.10000000000E+04  0.10000000000E+04  0.00000000000E+00 0.  1.
    9000005    2    1    2  501    0  0.52615049093E+00 -0.16656613330E+01 -0.89447265459E+03  0.11006584424E+04  0.64137713220E+03 0.  0.
         13    1    3    3    0    0  0.23830138128E+03  0.20669813539E+02 -0.81435327463E+03  0.84875558638E+03  0.00000000000E+00 0.  1.
          1    1    3    3  501    0 -0.23777523079E+03 -0.22335474872E+02 -0.80119379959E+02  0.25190285600E+03  0.00000000000E+00 0.  1.
         21    1    1    2  502  501 -0.52615049093E+00  0.16656613330E+01 -0.21211096798E+01  0.27477933491E+01  0.00000000000E+00 0. -1.
<mgrwt>
<rscale>  1 0.64137951E+03</rscale>
<asrwt>0</asrwt>
<pdfrwt beam="1">  1        1 0.37602347E+00 0.64137951E+03</pdfrwt>
<pdfrwt beam="2">0</pdfrwt>
<totfact> 0.17112646E+00</totfact>
</mgrwt>
</event>
<event>
 6    1  0.6527224E-003  0.6525930E+03  0.7818608E-02  0.9801926E-01
          1   -1    0    0  502    0  0.00000000000E+00  0.00000000000E+00  0.10649077785E+03  0.10649077785E+03  0.00000000000E+00 0.  1.
         13   -1    0    0    0    0 -0.00000000000E+00 -0.00000000000E+00 -0.10000000000E+04  0.10000000000E+04  0.00000000000E+00 0.  1.
    9000005    2    1    2  501    0  0.85641359533E-04 -0.72110607908E-03 -0.89353059477E+03  0.11064693929E+04  0.65259297698E+03 0.  0.
         13    1    3    3    0    0 -0.24303889594E+03 -0.14333201111E+03 -0.72462793751E+03  0.77762305660E+03  0.00000000000E+00 0.  1.
          3    1    3    3  501    0  0.24303898158E+03  0.14333129000E+03 -0.16890265727E+03  0.32884633629E+03  0.00000000000E+00 0.  1.
         21    1    1    2  502  501 -0.85641359519E-04  0.72110607909E-03  0.21372625394E-01  0.21384958374E-01  0.00000000000E+00 0.  1.
<mgrwt>
<rscale>  1 0.65259298E+03</rscale>
<asrwt>0</asrwt>
<pdfrwt beam="1">  1        1 0.38724001E+00 0.65259298E+03</pdfrwt>
<pdfrwt beam="2">0</pdfrwt>
<totfact> 0.15236680E+00</totfact>
</mgrwt>
</event>
<event>
 6    1  0.6527224E-003  0.6525751E+03  0.7818608E-02  0.9801959E-01
          1   -1    0    0  502    0  0.00000000000E+00  0.00000000000E+00  0.10646364549E+03  0.10646364549E+03  0.00000000000E+00 0.  1.
         13   -1    0    0    0    0 -0.00000000000E+00 -0.00000000000E+00 -0.10000000000E+04  0.10000000000E+04  0.00000000000E+00 0.  1.
    9000005    2    1    2  501    0  0.16421707357E-04  0.25395367487E-04 -0.89353642807E+03  0.11064635660E+04  0.65257511023E+03 0.  0.
         13    1    3    3    0    0 -0.19251690402E+03  0.22851077897E+03 -0.22450676349E+03  0.37374218559E+03  0.00000000000E+00 0.  1.
          3    1    3    3  501    0  0.19251692044E+03 -0.22851075357E+03 -0.66902966458E+03  0.73272138036E+03  0.00000000000E+00 0.  1.
         21    1    1    2  502  501 -0.16421707349E-04 -0.25395367503E-04  0.73558713042E-04  0.79532895252E-04  0.00000000000E+00 0. -1.
<mgrwt>
<rscale>  1 0.65257511E+03</rscale>
<asrwt>0</asrwt>
<pdfrwt beam="1">  1        1 0.38714135E+00 0.65257511E+03</pdfrwt>
<pdfrwt beam="2">0</pdfrwt>
<totfact> 0.15252067E+00</totfact>
</mgrwt>
</event>
<event>
 6    1  0.6527224E-003  0.6516391E+03  0.7818608E-02  0.9803708E-01
          1   -1    0    0  502    0  0.00000000000E+00  0.00000000000E+00  0.10620115271E+03  0.10620115271E+03  0.00000000000E+00 0.  1.
         13   -1    0    0    0    0 -0.00000000000E+00 -0.00000000000E+00 -0.10000000000E+04  0.10000000000E+04  0.00000000000E+00 0.  1.
    9000005    2    1    2  501    0  0.20734812273E-02 -0.17932907850E-02 -0.89384156056E+03  0.11061583516E+04  0.65163913581E+03 0.  0.
         13    1    3    3    0    0 -0.35739124811E+02 -0.84922038214E+02 -0.97742593483E+03  0.98175887859E+03  0.00000000000E+00 0.  1.
          3    1    3    3  501    0  0.35741198292E+02  0.84920244923E+02  0.83584374263E+02  0.12439947297E+03  0.00000000000E+00 0.  1.
         21    1    1    2  502  501 -0.20734812273E-02  0.17932907850E-02  0.42713268892E-01  0.42801151336E-01  0.00000000000E+00 0. -1.
<mgrwt>
<rscale>  1 0.65163914E+03</rscale>
<asrwt>0</asrwt>
<pdfrwt beam="1">  1        1 0.38618682E+00 0.65163914E+03</pdfrwt>
<pdfrwt beam="2">0</pdfrwt>
<totfact> 0.15403859E+00</totfact>
</mgrwt>
</event>
<event>
 6    1  0.6527224E-003  0.6511423E+03  0.7818608E-02  0.9804638E-01
          1   -1    0    0  502    0  0.00000000000E+00  0.00000000000E+00  0.10608986694E+03  0.10608986694E+03  0.00000000000E+00 0.  1.
         13   -1    0    0    0    0 -0.00000000000E+00 -0.00000000000E+00 -0.10000000000E+04  0.10000000000E+04  0.00000000000E+00 0.  1.
    9000005    2    1    2  501    0 -0.68454351835E-02  0.42546900741E-02 -0.89400322341E+03  0.11059964283E+04  0.65114233153E+03 0.  0.
         13    1    3    3    0    0  0.33884340025E+02 -0.29950030425E+03 -0.65604060109E+03  0.72196804017E+03  0.00000000000E+00 0.  1.
          3    1    3    3  501    0 -0.33891185461E+02  0.29950455894E+03 -0.23796262232E+03  0.38402838815E+03  0.00000000000E+00 0.  1.
         21    1    1    2  502  501  0.68454351835E-02 -0.42546900741E-02  0.93090351800E-01  0.93438621398E-01  0.00000000000E+00 0. -1.
<mgrwt>
<rscale>  1 0.65114233E+03</rscale>
<asrwt>0</asrwt>
<pdfrwt beam="1">  1        1 0.38578215E+00 0.65114233E+03</pdfrwt>
<pdfrwt beam="2">0</pdfrwt>
<totfact> 0.15468931E+00</totfact>
</mgrwt>
</event>
<event>
 6    1  0.6527224E-003  0.6461954E+03  0.7818608E-02  0.9813945E-01
          1   -1    0    0  502    0  0.00000000000E+00  0.00000000000E+00  0.10440665724E+03  0.10440665724E+03  0.00000000000E+00 0.  1.
         13   -1    0    0    0    0 -0.00000000000E+00 -0.00000000000E+00 -0.10000000000E+04  0.10000000000E+04  0.00000000000E+00 0.  1.
    9000005    2    1    2  501    0  0.35967641140E-02 -0.11431318271E-01 -0.89560510044E+03  0.11043898687E+04  0.64619539307E+03 0.  0.
         13    1    3    3    0    0  0.26888962389E+03 -0.11540136710E+03 -0.21362625379E+03  0.36229170798E+03  0.00000000000E+00 0.  1.
          1    1    3    3  501    0 -0.26888602713E+03  0.11538993578E+03 -0.68197884666E+03  0.74209816073E+03  0.00000000000E+00 0.  1.
         21    1    1    2  502  501 -0.35967641140E-02  0.11431318271E-01  0.11757681565E-01  0.16788532553E-01  0.00000000000E+00 0.  1.
<mgrwt>
<rscale>  1 0.64619539E+03</rscale>
<asrwt>0</asrwt>
<pdfrwt beam="1">  1        1 0.37966137E+00 0.64619539E+03</pdfrwt>
<pdfrwt beam="2">0</pdfrwt>
<totfact> 0.16477789E+00</totfact>
</mgrwt>
</event>
<event>
 6    1  0.6527224E-003  0.5085312E+03  0.7818608E-02  0.1011576E+00
          1   -1    0    0  502    0  0.00000000000E+00  0.00000000000E+00  0.64657083483E+02  0.64657083483E+02  0.00000000000E+00 0.  1.
         13   -1    0    0    0    0 -0.00000000000E+00 -0.00000000000E+00 -0.10000000000E+04  0.10000000000E+04  0.00000000000E+00 0.  1.
    9000005    2    1    2  501    0  0.18834888493E-03  0.14859063953E-04 -0.93534900136E+03  0.10646509957E+04  0.50853120682E+03 0.  0.
         13    1    3    3    0    0 -0.50645136500E+01 -0.69760979228E+02 -0.97946286428E+03  0.98195709989E+03  0.00000000000E+00 0.  1.
          1    1    3    3  501    0  0.50647019989E+01  0.69760994087E+02  0.44113862923E+02  0.82693895811E+02  0.00000000000E+00 0.  1.
         21    1    1    2  502  501 -0.18834888493E-03 -0.14859063942E-04  0.60848443675E-02  0.60877768578E-02  0.00000000000E+00 0. -1.
<mgrwt>
<rscale>  1 0.50853121E+03</rscale>
<asrwt>0</asrwt>
<pdfrwt beam="1">  1        1 0.23511716E+00 0.50853121E+03</pdfrwt>
<pdfrwt beam="2">0</pdfrwt>
<totfact> 0.71625817E+00</totfact>
</mgrwt>
</event>
<event>
 6    1  0.9983231E-003  0.6427278E+03  0.7818608E-02  0.9820521E-01
          1   -1    0    0  502    0  0.00000000000E+00  0.00000000000E+00  0.10327476740E+03  0.10327476740E+03  0.00000000000E+00 0.  1.
         13   -1    0    0    0    0 -0.00000000000E+00 -0.00000000000E+00 -0.10000000000E+04  0.10000000000E+04  0.00000000000E+00 0.  1.
    9000005    2    1    2  501    0  0.84132244638E-06 -0.22828614874E-05 -0.89672523023E+03  0.11032747640E+04  0.64272783226E+03 0.  0.
         13    1    3    3    0    0 -0.23903262096E+03 -0.14813205806E+03 -0.18135725206E+03  0.33461941573E+03  0.00000000000E+00 0.  1.
          1    1    3    3  501    0  0.23903262181E+03  0.14813205578E+03 -0.71536797818E+03  0.76865534828E+03  0.00000000000E+00 0.  1.
         21    1    1    2  502  501 -0.84132245184E-06  0.22828614821E-05 -0.23637931932E-05  0.33921671944E-05  0.00000000000E+00 0. -1.
<mgrwt>
<rscale>  1 0.64272783E+03</rscale>
<asrwt>0</asrwt>
<pdfrwt beam="1">  1        1 0.37554540E+00 0.64272783E+03</pdfrwt>
<pdfrwt beam="2">0</pdfrwt>
<totfact> 0.17191545E+00</totfact>
</mgrwt>
</event>
<event>
 6    1  0.6527224E-003  0.6360219E+03  0.7818608E-02  0.9833367E-01
          1   -1    0    0  502    0  0.00000000000E+00  0.00000000000E+00  0.10159763686E+03  0.10159763686E+03  0.00000000000E+00 0.  1.
         13   -1    0    0    0    0 -0.00000000000E+00 -0.00000000000E+00 -0.10000000000E+04  0.10000000000E+04  0.00000000000E+00 0.  1.
    9000005    2    1    2  501    0 -0.17122418785E+00  0.81481053622E+00 -0.89842049122E+03  0.11007648328E+04  0.63602133998E+03 0.  0.
         13    1    3    3    0    0 -0.13505447142E+03 -0.26431578155E+03 -0.64486372637E+03  0.70989560374E+03  0.00000000000E+00 0.  1.
          1    1    3    3  501    0  0.13488324723E+03  0.26513059208E+03 -0.25355676485E+03  0.39086922908E+03  0.00000000000E+00 0.  1.
         21    1    1    2  502  501  0.17122418785E+00 -0.81481053622E+00  0.18128083365E-01  0.83280403448E+00  0.00000000000E+00 0. -1.
<mgrwt>
<rscale>  1 0.63602188E+03</rscale>
<asrwt>0</asrwt>
<pdfrwt beam="1">  1        1 0.36944673E+00 0.63602188E+03</pdfrwt>
<pdfrwt beam="2">0</pdfrwt>
<totfact> 0.18308845E+00</totfact>
</mgrwt>
</event>
<event>
 6    1  0.6527224E-003  0.6699880E+03  0.7818608E-02  0.9769979E-01
          1   -1    0    0  502    0  0.00000000000E+00  0.00000000000E+00  0.11222131475E+03  0.11222131475E+03  0.00000000000E+00 0.  1.
         13   -1    0    0    0    0 -0.00000000000E+00 -0.00000000000E+00 -0.10000000000E+04  0.10000000000E+04  0.00000000000E+00 0.  1.
    9000005    2    1    2  501    0  0.55999999719E-03  0.38578598154E-03 -0.88777855791E+03  0.11122206229E+04  0.66998801939E+03 0.  0.
         13    1    3    3    0    0 -0.24396983435E+03  0.22497653008E+03 -0.51969448403E+03  0.61661825783E+03  0.00000000000E+00 0.  1.
          3    1    3    3  501    0  0.24397039435E+03 -0.22497614429E+03 -0.36808407388E+03  0.49560236507E+03  0.00000000000E+00 0.  1.
         21    1    1    2  502  501 -0.55999999718E-03 -0.38578598154E-03 -0.12734312410E-03  0.69184325656E-03  0.00000000000E+00 0.  1.
<mgrwt>
<rscale>  1 0.66998802E+03</rscale>
<asrwt>0</asrwt>
<pdfrwt beam="1">  1        1 0.40807837E+00 0.66998802E+03</pdfrwt>
<pdfrwt beam="2">0</pdfrwt>
<totfact> 0.12265090E+00</totfact>
</mgrwt>
</event>
<event>
 6    1  0.6527224E-003  0.6606767E+03  0.7818608E-02  0.9786949E-01
          1   -1    0    0  502    0  0.00000000000E+00  0.00000000000E+00  0.11153667437E+03  0.11153667437E+03  0.00000000000E+00 0.  1.
         13   -1    0    0    0    0 -0.00000000000E+00 -0.00000000000E+00 -0.10000000000E+04  0.10000000000E+04  0.00000000000E+00 0.  1.
    9000005    2    1    2  501    0 -0.38002953232E+01  0.17837360316E+01 -0.88864838535E+03  0.11073345076E+04  0.66066340515E+03 0.  0.
         13    1    3    3    0    0  0.28483509227E+03 -0.49692886589E+02 -0.18040116117E+03  0.34080051602E+03  0.00000000000E+00 0.  1.
          1    1    3    3  501    0 -0.28863538759E+03  0.51476622620E+02 -0.70824722418E+03  0.76653399155E+03  0.00000000000E+00 0.  1.
         21    1    1    2  502  501  0.38002953232E+01 -0.17837360316E+01  0.18505971986E+00  0.42021668071E+01  0.00000000000E+00 0. -1.
<mgrwt>
<rscale>  1 0.66067674E+03</rscale>
<asrwt>0</asrwt>
<pdfrwt beam="1">  1        1 0.40558876E+00 0.66067674E+03</pdfrwt>
<pdfrwt beam="2">0</pdfrwt>
<totfact> 0.12606082E+00</totfact>
</mgrwt>
</event>
<event>
 6    1  0.6527224E-003  0.6377638E+03  0.7818608E-02  0.9830014E-01
          1   -1    0    0  502    0  0.00000000000E+00  0.00000000000E+00  0.10249400225E+03  0.10249400225E+03  0.00000000000E+00 0.  1.
         13   -1    0    0    0    0 -0.00000000000E+00 -0.00000000000E+00 -0.10000000000E+04  0.10000000000E+04  0.00000000000E+00 0.  1.
    9000005    2    1    2  501    0  0.26464662525E+00  0.33538774752E-01 -0.89829002498E+03  0.11016658348E+04  0.63776372690E+03 0.  0.
         13    1    3    3    0    0  0.65166623989E+02 -0.68542800250E+02  0.76912594808E+02  0.12190304175E+03  0.00000000000E+00 0.  1.
          1    1    3    3  501    0 -0.64901977364E+02  0.68576339025E+02 -0.97520261979E+03  0.97976279302E+03  0.00000000000E+00 0.  1.
         21    1    1    2  502  501 -0.26464662525E+00 -0.33538774752E-01  0.78402722929E+00  0.82816748423E+00  0.00000000000E+00 0.  1.
<mgrwt>
<rscale>  1 0.63776378E+03</rscale>
<asrwt>0</asrwt>
<pdfrwt beam="1">  1        1 0.37270625E+00 0.63776378E+03</pdfrwt>
<pdfrwt beam="2">0</pdfrwt>
<totfact> 0.17709305E+00</totfact>
</mgrwt>
</event>
<event>
 6    1  0.6527224E-003  0.5496706E+03  0.7818608E-02  0.1001570E+00
          1   -1    0    0  502    0  0.00000000000E+00  0.00000000000E+00  0.75540889054E+02  0.75540889054E+02  0.00000000000E+00 0.  1.
         13   -1    0    0    0    0 -0.00000000000E+00 -0.00000000000E+00 -0.10000000000E+04  0.10000000000E+04  0.00000000000E+00 0.  1.
    9000005    2    1    2  501    0  0.14444467072E-03 -0.36643930952E-03 -0.92446554785E+03  0.10755344401E+04  0.54967061291E+03 0.  0.
         13    1    3    3    0    0  0.43799005734E+02 -0.27025594936E+03 -0.41519435939E+03  0.49733588965E+03  0.00000000000E+00 0.  1.
          1    1    3    3  501    0 -0.43798861290E+02  0.27025558292E+03 -0.50927118846E+03  0.57819855045E+03  0.00000000000E+00 0.  1.
         21    1    1    2  502  501 -0.14444467072E-03  0.36643930952E-03  0.64369048832E-02  0.64489446040E-02  0.00000000000E+00 0. -1.
<mgrwt>
<rscale>  1 0.54967061E+03</rscale>
<asrwt>0</asrwt>
<pdfrwt beam="1">  1        1 0.27469472E+00 0.54967061E+03</pdfrwt>
<pdfrwt beam="2">0</pdfrwt>
<totfact> 0.47867393E+00</totfact>
</mgrwt>
</event>
<event>
 6    1  0.6527224E-003  0.6574847E+03  0.7818608E-02  0.9792835E-01
          1   -1    0    0  502    0  0.00000000000E+00  0.00000000000E+00  0.11006550199E+03  0.11006550199E+03  0.00000000000E+00 0.  1.
         13   -1    0    0    0    0 -0.00000000000E+00 -0.00000000000E+00 -0.10000000000E+04  0.10000000000E+04  0.00000000000E+00 0.  1.
    9000005    2    1    2  501    0  0.24175571345E+01  0.11252615770E+01 -0.89088744190E+03  0.11072337361E+04  0.65747927828E+03 0.  0.
         13    1    3    3    0    0  0.22118749989E+03 -0.80104126604E+02 -0.83467907839E+03  0.86719648587E+03  0.00000000000E+00 0.  1.
          3    1    3    3  501    0 -0.21876994276E+03  0.81229388181E+02 -0.56208363514E+02  0.24003725021E+03  0.00000000000E+00 0.  1.
         21    1    1    2  502  501 -0.24175571345E+01 -0.11252615770E+01  0.95294388736E+00  0.28317659098E+01  0.00000000000E+00 0. -1.
<mgrwt>
<rscale>  1 0.65748469E+03</rscale>
<asrwt>0</asrwt>
<pdfrwt beam="1">  1        1 0.40023903E+00 0.65748469E+03</pdfrwt>
<pdfrwt beam="2">0</pdfrwt>
<totfact> 0.13327035E+00</totfact>
</mgrwt>
</event>
<event>
 6    1  0.6527224E-003  0.6364887E+03  0.7818608E-02  0.9832468E-01
          1   -1    0    0  502    0  0.00000000000E+00  0.00000000000E+00  0.10129020128E+03  0.10129020128E+03  0.00000000000E+00 0.  1.
         13   -1    0    0    0    0 -0.00000000000E+00 -0.00000000000E+00 -0.10000000000E+04  0.10000000000E+04  0.00000000000E+00 0.  1.
    9000005    2    1    2  501    0  0.15021257012E-01  0.64421483262E-03 -0.89871443891E+03  0.11012744665E+04  0.63648865468E+03 0.  0.
         13    1    3    3    0    0  0.23612814801E+03  0.21209329452E+03 -0.40904434025E+03  0.51774254235E+03  0.00000000000E+00 0.  1.
          1    1    3    3  501    0 -0.23611312675E+03 -0.21209265030E+03 -0.48967009866E+03  0.58353192411E+03  0.00000000000E+00 0.  1.
         21    1    1    2  502  501 -0.15021257012E-01 -0.64421483263E-03  0.46401853417E-02  0.15734817920E-01  0.00000000000E+00 0.  1.
<mgrwt>
<rscale>  1 0.63648865E+03</rscale>
<asrwt>0</asrwt>
<pdfrwt beam="1">  1        1 0.36832878E+00 0.63648865E+03</pdfrwt>
<pdfrwt beam="2">0</pdfrwt>
<totfact> 0.18515326E+00</totfact>
</mgrwt>
</event>
<event>
 6    1  0.6527224E-003  0.6393344E+03  0.7818608E-02  0.9827001E-01
          1   -1    0    0  502    0  0.00000000000E+00  0.00000000000E+00  0.10256218661E+03  0.10256218661E+03  0.00000000000E+00 0.  1.
         13   -1    0    0    0    0 -0.00000000000E+00 -0.00000000000E+00 -0.10000000000E+04  0.10000000000E+04  0.00000000000E+00 0.  1.
    9000005    2    1    2  501    0 -0.37162946409E+00 -0.11685138613E+00 -0.89769813999E+03  0.11020936435E+04  0.63933426059E+03 0.  0.
         13    1    3    3    0    0  0.24561094525E+03  0.10324993346E+03 -0.14463165305E+03  0.30315606583E+03  0.00000000000E+00 0.  1.
          3    1    3    3  501    0 -0.24598257471E+03 -0.10336678485E+03 -0.75306648694E+03  0.79893757767E+03  0.00000000000E+00 0.  1.
         21    1    1    2  502  501  0.37162946409E+00  0.11685138613E+00  0.26032659645E+00  0.46854310563E+00  0.00000000000E+00 0. -1.
<mgrwt>
<rscale>  1 0.63933438E+03</rscale>
<asrwt>0</asrwt>
<pdfrwt beam="1">  1        1 0.37295419E+00 0.63933438E+03</pdfrwt>
<pdfrwt beam="2">0</pdfrwt>
<totfact> 0.17659826E+00</totfact>
</mgrwt>
</event>
<event>
 6    1  0.6527224E-003  0.6397091E+03  0.7818608E-02  0.9826283E-01
          1   -1    0    0  502    0  0.00000000000E+00  0.00000000000E+00  0.10712235384E+03  0.10712235384E+03  0.00000000000E+00 0.  1.
         13   -1    0    0    0    0 -0.00000000000E+00 -0.00000000000E+00 -0.10000000000E+04  0.10000000000E+04  0.00000000000E+00 0.  1.
    9000005    2    1    2  501    0 -0.67670994748E+01  0.91871395638E+01 -0.88864761717E+03  0.10949531175E+04  0.63960733640E+03 0.  0.
         13    1    3    3    0    0 -0.95842714015E+02 -0.15078697857E+03  0.89281640965E+01  0.17889172940E+03  0.00000000000E+00 0.  1.
          1    1    3    3  501    0  0.89075614540E+02  0.15997411813E+03 -0.89757578127E+03  0.91606138806E+03  0.00000000000E+00 0.  1.
         21    1    1    2  502  501  0.67670994748E+01 -0.91871395638E+01 -0.42300289931E+01  0.12169236375E+02  0.00000000000E+00 0.  1.
<mgrwt>
<rscale>  1 0.63970911E+03</rscale>
<asrwt>0</asrwt>
<pdfrwt beam="1">  1        1 0.38953665E+00 0.63970911E+03</pdfrwt>
<pdfrwt beam="2">0</pdfrwt>
<totfact> 0.14919795E+00</totfact>
</mgrwt>
</event>
<event>
 6    1  0.6527224E-003  0.6398219E+03  0.7818608E-02  0.9826067E-01
          1   -1    0    0  502    0  0.00000000000E+00  0.00000000000E+00  0.10950533347E+03  0.10950533347E+03  0.00000000000E+00 0.  1.
         13   -1    0    0    0    0 -0.00000000000E+00 -0.00000000000E+00 -0.10000000000E+04  0.10000000000E+04  0.00000000000E+00 0.  1.
    9000005    2    1    2  501    0  0.29238636296E+01  0.71795472927E-01 -0.89732642659E+03  0.11020738411E+04  0.63981519307E+03 0.  0.
         13    1    3    3    0    0  0.24134129132E+03  0.46636836465E+02 -0.94575988401E+02  0.26337279851E+03  0.00000000000E+00 0.  1.
          3    1    3    3  501    0 -0.23841742769E+03 -0.46565040992E+02 -0.80275043819E+03  0.83870104261E+03  0.00000000000E+00 0.  1.
         21    1    1    2  502  501 -0.29238636296E+01 -0.71795472927E-01  0.68317600538E+01  0.74314923500E+01  0.00000000000E+00 0. -1.
<mgrwt>
<rscale>  1 0.63982188E+03</rscale>
<asrwt>0</asrwt>
<pdfrwt beam="1">  1        1 0.39820205E+00 0.63982188E+03</pdfrwt>
<pdfrwt beam="2">0</pdfrwt>
<totfact> 0.13654286E+00</totfact>
</mgrwt>
</event>
<event>
 6    1  0.6527224E-003  0.6474031E+03  0.7818608E-02  0.9811664E-01
          1   -1    0    0  502    0  0.00000000000E+00  0.00000000000E+00  0.10590127408E+03  0.10590127408E+03  0.00000000000E+00 0.  1.
         13   -1    0    0    0    0 -0.00000000000E+00 -0.00000000000E+00 -0.10000000000E+04  0.10000000000E+04  0.00000000000E+00 0.  1.
    9000005    2    1    2  501    0  0.11177349054E+00  0.17042078811E-01 -0.89521413613E+03  0.11047801480E+04  0.64740313028E+03 0.  0.
         13    1    3    3    0    0  0.25241411001E+03 -0.14983836861E+03 -0.68066937517E+03  0.74126595628E+03  0.00000000000E+00 0.  1.
          3    1    3    3  501    0 -0.25230233652E+03  0.14985541069E+03 -0.21454476096E+03  0.36351419172E+03  0.00000000000E+00 0.  1.
         21    1    1    2  502  501 -0.11177349054E+00 -0.17042078811E-01  0.11154102092E+01  0.11211260770E+01  0.00000000000E+00 0.  1.
<mgrwt>
<rscale>  1 0.64740314E+03</rscale>
<asrwt>0</asrwt>
<pdfrwt beam="1">  1        1 0.38509635E+00 0.64740314E+03</pdfrwt>
<pdfrwt beam="2">0</pdfrwt>
<totfact> 0.15588158E+00</totfact>
</mgrwt>
</event>
<event>
 6    1  0.6527224E-003  0.6576565E+03  0.7818608E-02  0.9792518E-01
          3   -1    0    0  502    0  0.00000000000E+00  0.00000000000E+00  0.10814781742E+03  0.10814781742E+03  0.00000000000E+00 0.  1.
         13   -1    0    0    0    0 -0.00000000000E+00 -0.00000000000E+00 -0.10000000000E+04  0.10000000000E+04  0.00000000000E+00 0.  1.
    9000005    2    1    2  501    0 -0.16815339153E-02 -0.34957475549E-02 -0.89187178680E+03  0.11081278331E+04  0.65765645316E+03 0.  0.
         13    1    3    3    0    0 -0.61971789344E+02  0.32072381501E+03 -0.50948885224E+03  0.60521331673E+03  0.00000000000E+00 0.  1.
          3    1    3    3  501    0  0.61970107810E+02 -0.32072731076E+03 -0.38238293456E+03  0.50291451637E+03  0.00000000000E+00 0.  1.
         21    1    1    2  502  501  0.16815339153E-02  0.34957475549E-02  0.19604222278E-01  0.19984327319E-01  0.00000000000E+00 0.  1.
<mgrwt>
<rscale>  1 0.65765645E+03</rscale>
<asrwt>0</asrwt>
<pdfrwt beam="1">  1        3 0.39326562E+00 0.65765645E+03</pdfrwt>
<pdfrwt beam="2">0</pdfrwt>
<totfact> 0.64177032E-02</totfact>
</mgrwt>
</event>
<event>
 6    1  0.6527224E-003  0.6529591E+03  0.7818608E-02  0.9801243E-01
          1   -1    0    0  502    0  0.00000000000E+00  0.00000000000E+00  0.10659339457E+03  0.10659339457E+03  0.00000000000E+00 0.  1.
         13   -1    0    0    0    0 -0.00000000000E+00 -0.00000000000E+00 -0.10000000000E+04  0.10000000000E+04  0.00000000000E+00 0.  1.
    9000005    2    1    2  501    0  0.17880714026E-03  0.30493774048E-03 -0.89341110772E+03  0.11065888784E+04  0.65295906337E+03 0.  0.
         13    1    3    3    0    0  0.15764361066E+03 -0.18482899001E+03 -0.81635697650E+03  0.85173468674E+03  0.00000000000E+00 0.  1.
          1    1    3    3  501    0 -0.15764343185E+03  0.18482929495E+03 -0.77054131226E+02  0.25485419168E+03  0.00000000000E+00 0.  1.
         21    1    1    2  502  501 -0.17880714026E-03 -0.30493774049E-03  0.45022903785E-02  0.45161463297E-02  0.00000000000E+00 0. -1.
<mgrwt>
<rscale>  1 0.65295906E+03</rscale>
<asrwt>0</asrwt>
<pdfrwt beam="1">  1        1 0.38761316E+00 0.65295906E+03</pdfrwt>
<pdfrwt beam="2">0</pdfrwt>
<totfact> 0.15177782E+00</totfact>
</mgrwt>
</event>
<event>
 6    1  0.6527224E-003  0.6566469E+03  0.7818608E-02  0.9794386E-01
          1   -1    0    0  502    0  0.00000000000E+00  0.00000000000E+00  0.10780942408E+03  0.10780942408E+03  0.00000000000E+00 0.  1.
         13   -1    0    0    0    0 -0.00000000000E+00 -0.00000000000E+00 -0.10000000000E+04  0.10000000000E+04  0.00000000000E+00 0.  1.
    9000005    2    1    2  501    0 -0.79662929977E-04 -0.19523671747E-03 -0.89220369900E+03  0.11077962993E+04  0.65664693730E+03 0.  0.
         13    1    3    3    0    0 -0.28015984810E+03 -0.16972177104E+03 -0.48387589700E+03  0.58432089108E+03  0.00000000000E+00 0.  1.
          1    1    3    3  501    0  0.28015976843E+03  0.16972157580E+03 -0.40832780199E+03  0.52347540823E+03  0.00000000000E+00 0.  1.
         21    1    1    2  502  501  0.79662929966E-04  0.19523671748E-03  0.13123079397E-01  0.13124773385E-01  0.00000000000E+00 0. -1.
<mgrwt>
<rscale>  1 0.65664694E+03</rscale>
<asrwt>0</asrwt>
<pdfrwt beam="1">  1        1 0.39203510E+00 0.65664694E+03</pdfrwt>
<pdfrwt beam="2">0</pdfrwt>
<totfact> 0.14497823E+00</totfact>
</mgrwt>
</event>
<event>
 6    1  0.6527224E-003  0.6493771E+03  0.7818608E-02  0.9807949E-01
          1   -1    0    0  502    0  0.00000000000E+00  0.00000000000E+00  0.10543308809E+03  0.10543308809E+03  0.00000000000E+00 0.  1.
         13   -1    0    0    0    0 -0.00000000000E+00 -0.00000000000E+00 -0.10000000000E+04  0.10000000000E+04  0.00000000000E+00 0.  1.
    9000005    2    1    2  501    0  0.44744917125E-03 -0.28933080856E-02 -0.89457711033E+03  0.11054224778E+04  0.64937712310E+03 0.  0.
         13    1    3    3    0    0  0.28028943795E+03 -0.17598110769E+02 -0.72466663388E+03  0.77718311406E+03  0.00000000000E+00 0.  1.
          3    1    3    3  501    0 -0.28028899050E+03  0.17595217461E+02 -0.16991047645E+03  0.32823936369E+03  0.00000000000E+00 0.  1.
         21    1    1    2  502  501 -0.44744917127E-03  0.28933080856E-02  0.10198415486E-01  0.10610330856E-01  0.00000000000E+00 0. -1.
<mgrwt>
<rscale>  1 0.64937712E+03</rscale>
<asrwt>0</asrwt>
<pdfrwt beam="1">  1        1 0.38339386E+00 0.64937712E+03</pdfrwt>
<pdfrwt beam="2">0</pdfrwt>
<totfact> 0.15854903E+00</totfact>
</mgrwt>
</event>
<event>
 6    1  0.6527224E-003  0.6414072E+03  0.7818608E-02  0.9823038E-01
          1   -1    0    0  502    0  0.00000000000E+00  0.00000000000E+00  0.10285246475E+03  0.10285246475E+03  0.00000000000E+00 0.  1.
         13   -1    0    0    0    0 -0.00000000000E+00 -0.00000000000E+00 -0.10000000000E+04  0.10000000000E+04  0.00000000000E+00 0.  1.
    9000005    2    1    2  501    0 -0.97409940966E-03 -0.83625524894E-03 -0.89714890681E+03  0.11028505861E+04  0.64140724523E+03 0.  0.
         13    1    3    3    0    0 -0.24144440194E+03 -0.15974236658E+03 -0.21133122542E+03  0.35843257350E+03  0.00000000000E+00 0.  1.
          1    1    3    3  501    0  0.24144342784E+03  0.15974153032E+03 -0.68581768139E+03  0.74441801259E+03  0.00000000000E+00 0.  1.
         21    1    1    2  502  501  0.97409940966E-03  0.83625524894E-03  0.13715577181E-02  0.18786599148E-02  0.00000000000E+00 0.  1.
<mgrwt>
<rscale>  1 0.64140725E+03</rscale>
<asrwt>0</asrwt>
<pdfrwt beam="1">  1        1 0.37400975E+00 0.64140725E+03</pdfrwt>
<pdfrwt beam="2">0</pdfrwt>
<totfact> 0.17465410E+00</totfact>
</mgrwt>
</event>
<event>
 6    1  0.6527224E-003  0.6373211E+03  0.7818608E-02  0.9830865E-01
          1   -1    0    0  502    0  0.00000000000E+00  0.00000000000E+00  0.10154521270E+03  0.10154521270E+03  0.00000000000E+00 0.  1.
         13   -1    0    0    0    0 -0.00000000000E+00 -0.00000000000E+00 -0.10000000000E+04  0.10000000000E+04  0.00000000000E+00 0.  1.
    9000005    2    1    2  501    0  0.38852631332E-03  0.36236395439E-03 -0.89845532259E+03  0.11015444585E+04  0.63732113366E+03 0.  0.
         13    1    3    3    0    0  0.26115154034E+03 -0.66059528572E+01 -0.13382065922E+03  0.29351615709E+03  0.00000000000E+00 0.  1.
          1    1    3    3  501    0 -0.26115115182E+03  0.66063152211E+01 -0.76463466336E+03  0.80802830143E+03  0.00000000000E+00 0.  1.
         21    1    1    2  502  501 -0.38852631332E-03 -0.36236395439E-03  0.53528792187E-03  0.75418399007E-03  0.00000000000E+00 0. -1.
<mgrwt>
<rscale>  1 0.63732113E+03</rscale>
<asrwt>0</asrwt>
<pdfrwt beam="1">  1        1 0.36925610E+00 0.63732113E+03</pdfrwt>
<pdfrwt beam="2">0</pdfrwt>
<totfact> 0.18339822E+00</totfact>
</mgrwt>
</event>
<event>
 6    1  0.6527224E-003  0.6532056E+03  0.7818608E-02  0.9800783E-01
          1   -1    0    0  502    0  0.00000000000E+00  0.00000000000E+00  0.10672500518E+03  0.10672500518E+03  0.00000000000E+00 0.  1.
         13   -1    0    0    0    0 -0.00000000000E+00 -0.00000000000E+00 -0.10000000000E+04  0.10000000000E+04  0.00000000000E+00 0.  1.
    9000005    2    1    2  501    0 -0.50770272912E-03  0.32411416019E-01 -0.89332532067E+03  0.11066651433E+04  0.65320564121E+03 0.  0.
         13    1    3    3    0    0 -0.29238198720E+03  0.13794970173E+03 -0.36799336018E+03  0.48983309380E+03  0.00000000000E+00 0.  1.
          1    1    3    3  501    0  0.29238147950E+03 -0.13791729032E+03 -0.52533196049E+03  0.61683204946E+03  0.00000000000E+00 0.  1.
         21    1    1    2  502  501  0.50770272913E-03 -0.32411416019E-01  0.50325852263E-01  0.59861916578E-01  0.00000000000E+00 0. -1.
<mgrwt>
<rscale>  1 0.65320564E+03</rscale>
<asrwt>0</asrwt>
<pdfrwt beam="1">  1        1 0.38809175E+00 0.65320564E+03</pdfrwt>
<pdfrwt beam="2">0</pdfrwt>
<totfact> 0.15103183E+00</totfact>
</mgrwt>
</event>
<event>
 6    1  0.6527224E-003  0.6540058E+03  0.7818608E-02  0.9799291E-01
          1   -1    0    0  502    0  0.00000000000E+00  0.00000000000E+00  0.10753392173E+03  0.10753392173E+03  0.00000000000E+00 0.  1.
         13   -1    0    0    0    0 -0.00000000000E+00 -0.00000000000E+00 -0.10000000000E+04  0.10000000000E+04  0.00000000000E+00 0.  1.
    9000005    2    1    2  501    0  0.11752434956E+00 -0.17864349549E+00 -0.89304803412E+03  0.11069139233E+04  0.65400580775E+03 0.  0.
         13    1    3    3    0    0 -0.26859867954E+03 -0.13711066975E+03 -0.23256026856E+03  0.38082655491E+03  0.00000000000E+00 0.  1.
          1    1    3    3  501    0  0.26871620389E+03  0.13693202625E+03 -0.66048776556E+03  0.72608736837E+03  0.00000000000E+00 0.  1.
         21    1    1    2  502  501 -0.11752434956E+00  0.17864349549E+00  0.58195584908E+00  0.61999845282E+00  0.00000000000E+00 0. -1.
<mgrwt>
<rscale>  1 0.65400584E+03</rscale>
<asrwt>0</asrwt>
<pdfrwt beam="1">  1        1 0.39103327E+00 0.65400584E+03</pdfrwt>
<pdfrwt beam="2">0</pdfrwt>
<totfact> 0.14654209E+00</totfact>
</mgrwt>
</event>
<event>
 6    1  0.6527224E-003  0.6339543E+03  0.7818608E-02  0.9837363E-01
          1   -1    0    0  502    0  0.00000000000E+00  0.00000000000E+00  0.10812401588E+03  0.10812401588E+03  0.00000000000E+00 0.  1.
         13   -1    0    0    0    0 -0.00000000000E+00 -0.00000000000E+00 -0.10000000000E+04  0.10000000000E+04  0.00000000000E+00 0.  1.
    9000005    2    1    2  501    0  0.41306539209E-01 -0.14803947918E+00 -0.89952464147E+03  0.11004738145E+04  0.63395426661E+03 0.  0.
         13    1    3    3    0    0 -0.29091720097E+03  0.12021633960E+03 -0.38568153047E+03  0.49783032157E+03  0.00000000000E+00 0.  1.
          3    1    3    3  501    0  0.29095850751E+03 -0.12036437907E+03 -0.51384311100E+03  0.60264349293E+03  0.00000000000E+00 0.  1.
         21    1    1    2  502  501 -0.41306539209E-01  0.14803947918E+00  0.76486573546E+01  0.76502013860E+01  0.00000000000E+00 0. -1.
<mgrwt>
<rscale>  1 0.63395429E+03</rscale>
<asrwt>0</asrwt>
<pdfrwt beam="1">  1        1 0.39317907E+00 0.63395429E+03</pdfrwt>
<pdfrwt beam="2">0</pdfrwt>
<totfact> 0.14390807E+00</totfact>
</mgrwt>
</event>
<event>
 6    1  0.6527224E-003  0.6507924E+03  0.7818608E-02  0.9805293E-01
          3   -1    0    0  502    0  0.00000000000E+00  0.00000000000E+00  0.12258977976E+03  0.12258977976E+03  0.00000000000E+00 0.  1.
         13   -1    0    0    0    0 -0.00000000000E+00 -0.00000000000E+00 -0.10000000000E+04  0.10000000000E+04  0.00000000000E+00 0.  1.
    9000005    2    1    2  501    0 -0.33517691350E+02  0.18141488067E+02 -0.86506353358E+03  0.10825274546E+04  0.64967547568E+03 0.  0.
         13    1    3    3    0    0  0.23660868933E+02 -0.12190125384E+03  0.65057551983E+02  0.14018643828E+03  0.00000000000E+00 0.  1.
          1    1    3    3  501    0 -0.57178560284E+02  0.14004274191E+03 -0.93012108556E+03  0.94234101637E+03  0.00000000000E+00 0.  1.
         21    1    1    2  502  501  0.33517691350E+02 -0.18141488067E+02 -0.12346686655E+02  0.40062325121E+02  0.00000000000E+00 0.  1.
<mgrwt>
<rscale>  1 0.65079242E+03</rscale>
<asrwt>0</asrwt>
<pdfrwt beam="1">  1        3 0.44578196E+00 0.65079242E+03</pdfrwt>
<pdfrwt beam="2">0</pdfrwt>
<totfact> 0.34346128E-02</totfact>
</mgrwt>
</event>
<event>
 6    1  0.6527224E-003  0.6427244E+03  0.7818608E-02  0.9820528E-01
          1   -1    0    0  502    0  0.00000000000E+00  0.00000000000E+00  0.10392831239E+03  0.10392831239E+03  0.00000000000E+00 0.  1.
         13   -1    0    0    0    0 -0.00000000000E+00 -0.00000000000E+00 -0.10000000000E+04  0.10000000000E+04  0.00000000000E+00 0.  1.
    9000005    2    1    2  501    0 -0.11111354553E-01 -0.97745968578E-02 -0.89672623544E+03  0.11032735973E+04  0.64272442690E+03 0.  0.
         13    1    3    3    0    0  0.30072556560E+03  0.98908468125E+02 -0.35354423735E+03  0.47456535760E+03  0.00000000000E+00 0.  1.
          3    1    3    3  501    0 -0.30073667695E+03 -0.98918242722E+02 -0.54318199809E+03  0.62870823969E+03  0.00000000000E+00 0.  1.
         21    1    1    2  502  501  0.11111354553E-01  0.97745968578E-02  0.65454782782E+00  0.65471510128E+00  0.00000000000E+00 0. -1.
<mgrwt>
<rscale>  1 0.64272443E+03</rscale>
<asrwt>0</asrwt>
<pdfrwt beam="1">  1        1 0.37792193E+00 0.64272443E+03</pdfrwt>
<pdfrwt beam="2">0</pdfrwt>
<totfact> 0.16782092E+00</totfact>
</mgrwt>
</event>
<event>
 6    1  0.6527224E-003  0.6670052E+03  0.7818608E-02  0.9775383E-01
          1   -1    0    0  502    0  0.00000000000E+00  0.00000000000E+00  0.11126437741E+03  0.11126437741E+03  0.00000000000E+00 0.  1.
         13   -1    0    0    0    0 -0.00000000000E+00 -0.00000000000E+00 -0.10000000000E+04  0.10000000000E+04  0.00000000000E+00 0.  1.
    9000005    2    1    2  501    0 -0.33994973225E-02 -0.49886750033E-02 -0.88877577464E+03  0.11112237741E+04  0.66700517122E+03 0.  0.
         13    1    3    3    0    0 -0.25567366865E+03 -0.15502716918E+03 -0.19828005104E+03  0.35877210965E+03  0.00000000000E+00 0.  1.
          1    1    3    3  501    0  0.25567026915E+03  0.15502218050E+03 -0.69049572361E+03  0.75245166442E+03  0.00000000000E+00 0.  1.
         21    1    1    2  502  501  0.33994973225E-02  0.49886750033E-02  0.40152055968E-01  0.40603338026E-01  0.00000000000E+00 0.  1.
<mgrwt>
<rscale>  1 0.66700517E+03</rscale>
<asrwt>0</asrwt>
<pdfrwt beam="1">  1        1 0.40459859E+00 0.66700517E+03</pdfrwt>
<pdfrwt beam="2">0</pdfrwt>
<totfact> 0.12720076E+00</totfact>
</mgrwt>
</event>
<event>
 6    1  0.6527224E-003  0.6678088E+03  0.7818608E-02  0.9773924E-01
          1   -1    0    0  502    0  0.00000000000E+00  0.00000000000E+00  0.11182839643E+03  0.11182839643E+03  0.00000000000E+00 0.  1.
         13   -1    0    0    0    0 -0.00000000000E+00 -0.00000000000E+00 -0.10000000000E+04  0.10000000000E+04  0.00000000000E+00 0.  1.
    9000005    2    1    2  501    0  0.40560431484E-03 -0.10140783251E-01 -0.88850778290E+03  0.11114920639E+04  0.66780875095E+03 0.  0.
         13    1    3    3    0    0  0.23674734143E+03  0.10740452735E+03 -0.79300391081E+03  0.83452995077E+03  0.00000000000E+00 0.  1.
          1    1    3    3  501    0 -0.23674693582E+03 -0.10741466813E+03 -0.95503872088E+02  0.27696211318E+03  0.00000000000E+00 0.  1.
         21    1    1    2  502  501 -0.40560431484E-03  0.10140783251E-01  0.33617932484E+00  0.33633248200E+00  0.00000000000E+00 0. -1.
<mgrwt>
<rscale>  1 0.66780875E+03</rscale>
<asrwt>0</asrwt>
<pdfrwt beam="1">  1        1 0.40664957E+00 0.66780875E+03</pdfrwt>
<pdfrwt beam="2">0</pdfrwt>
<totfact> 0.12452255E+00</totfact>
</mgrwt>
</event>
<event>
 6    1  0.6527224E-003  0.6268647E+03  0.7818608E-02  0.9851186E-01
          1   -1    0    0  502    0  0.00000000000E+00  0.00000000000E+00  0.98239852781E+02  0.98239852781E+02  0.00000000000E+00 0.  1.
         13   -1    0    0    0    0 -0.00000000000E+00 -0.00000000000E+00 -0.10000000000E+04  0.10000000000E+04  0.00000000000E+00 0.  1.
    9000005    2    1    2  501    0  0.25269839625E-05  0.12487679584E-04 -0.90176013643E+03  0.10982398361E+04  0.62686473335E+03 0.  0.
         13    1    3    3    0    0 -0.23782176741E+03 -0.17746224412E+03 -0.27404692259E+03  0.40392295915E+03  0.00000000000E+00 0.  1.
          3    1    3    3  501    0  0.23782176994E+03  0.17746225661E+03 -0.62771321384E+03  0.69431687694E+03  0.00000000000E+00 0.  1.
         21    1    1    2  502  501 -0.25269839533E-05 -0.12487679582E-04 -0.10789190001E-04  0.16695340970E-04  0.00000000000E+00 0. -1.
<mgrwt>
<rscale>  1 0.62686473E+03</rscale>
<asrwt>0</asrwt>
<pdfrwt beam="1">  1        1 0.35723658E+00 0.62686473E+03</pdfrwt>
<pdfrwt beam="2">0</pdfrwt>
<totfact> 0.20742176E+00</totfact>
</mgrwt>
</event>
<event>
 6    1  0.6527224E-003  0.6557714E+03  0.7818608E-02  0.9796009E-01
          1   -1    0    0  502    0  0.00000000000E+00  0.00000000000E+00  0.10752243057E+03  0.10752243057E+03  0.00000000000E+00 0.  1.
         13   -1    0    0    0    0 -0.00000000000E+00 -0.00000000000E+00 -0.10000000000E+04  0.10000000000E+04  0.00000000000E+00 0.  1.
    9000005    2    1    2  501    0  0.27250815799E-03  0.11964691987E-03 -0.89249097809E+03  0.11075090186E+04  0.65577136283E+03 0.  0.
         13    1    3    3    0    0  0.28993320557E+03  0.14900753202E+03 -0.50582716187E+03  0.60176874792E+03  0.00000000000E+00 0.  1.
          3    1    3    3  501    0 -0.28993293306E+03 -0.14900741238E+03 -0.38666381623E+03  0.50574027068E+03  0.00000000000E+00 0.  1.
         21    1    1    2  502  501 -0.27250815801E-03 -0.11964691987E-03  0.13408662904E-01  0.13411965440E-01  0.00000000000E+00 0. -1.
<mgrwt>
<rscale>  1 0.65577136E+03</rscale>
<asrwt>0</asrwt>
<pdfrwt beam="1">  1        1 0.39099148E+00 0.65577136E+03</pdfrwt>
<pdfrwt beam="2">0</pdfrwt>
<totfact> 0.14655659E+00</totfact>
</mgrwt>
</event>
<event>
 6    1  0.6527224E-003  0.6508800E+03  0.7818608E-02  0.9805129E-01
          1   -1    0    0  502    0  0.00000000000E+00  0.00000000000E+00  0.10671452729E+03  0.10671452729E+03  0.00000000000E+00 0.  1.
         13   -1    0    0    0    0 -0.00000000000E+00 -0.00000000000E+00 -0.10000000000E+04  0.10000000000E+04  0.00000000000E+00 0.  1.
    9000005    2    1    2  501    0  0.16111473491E+01  0.10668344322E+01 -0.89250353387E+03  0.11046299746E+04  0.65087716885E+03 0.  0.
         13    1    3    3    0    0  0.31220466581E+03 -0.62379043568E+02 -0.32736193764E+03  0.45664946802E+03  0.00000000000E+00 0.  1.
          1    1    3    3  501    0 -0.31059351846E+03  0.63445878001E+02 -0.56514159623E+03  0.64798050660E+03  0.00000000000E+00 0.  1.
         21    1    1    2  502  501 -0.16111473491E+01 -0.10668344322E+01 -0.78193884125E+00  0.20845526709E+01  0.00000000000E+00 0. -1.
<mgrwt>
<rscale>  1 0.65088004E+03</rscale>
<asrwt>0</asrwt>
<pdfrwt beam="1">  1        1 0.38805364E+00 0.65088004E+03</pdfrwt>
<pdfrwt beam="2">0</pdfrwt>
<totfact> 0.15115569E+00</totfact>
</mgrwt>
</event>
