<event>
 6    1  0.3695885E-003  0.6106752E+03  0.7818608E-02  0.9883503E-01
          1   -1    0    0  502    0  0.00000000000E+00  0.00000000000E+00  0.10045364670E+03  0.10045364670E+03  0.00000000000E+00 0.  1.
         13   -1    0    0    0    0 -0.00000000000E+00 -0.00000000000E+00 -0.10000000000E+04  0.10000000000E+04  0.00000000000E+00 0.  1.
    9000005    2    1    2  501    0  0.23281578986E+00  0.34463378972E+00 -0.90676239512E+03  0.10932256293E+04  0.61067508746E+03 0.  0.
         13    1    3    3    0    0 -0.10088780138E+03 -0.38965103586E+02  0.57768270402E+02  0.12261240080E+03  0.00000000000E+00 0.  1.
          3    1    3    3  501    0  0.10112061717E+03  0.39309737376E+02 -0.96453066552E+03  0.97061322853E+03  0.00000000000E+00 0.  1.
         21    1    1    2  502  501 -0.23281578986E+00 -0.34463378972E+00  0.72160418171E+01  0.72280173732E+01  0.00000000000E+00 0. -1.
<mgrwt>
<rscale>  1 0.61067523E+03</rscale>
<asrwt>0</asrwt>
<pdfrwt beam="1">  1        1 0.36528676E+00 0.61067523E+03</pdfrwt>
<pdfrwt beam="2">0</pdfrwt>
<totfact> 0.19183878E+00</totfact>
</mgrwt>
</event>
<event>
 6    1  0.3695885E-003  0.5914838E+03  0.7818608E-02  0.9923234E-01
          1   -1    0    0  502    0  0.00000000000E+00  0.00000000000E+00  0.87463965167E+02  0.87463965167E+02  0.00000000000E+00 0.  1.
         13   -1    0    0    0    0 -0.00000000000E+00 -0.00000000000E+00 -0.10000000000E+04  0.10000000000E+04  0.00000000000E+00 0.  1.
    9000005    2    1    2  501    0  0.12013953903E-02 -0.57221417018E-03 -0.91253599497E+03  0.10874626339E+04  0.59148375965E+03 0.  0.
         13    1    3    3    0    0 -0.49721672870E+02  0.24371098035E+03 -0.16212642111E+03  0.29690446800E+03  0.00000000000E+00 0.  1.
          1    1    3    3  501    0  0.49722874265E+02 -0.24371155256E+03 -0.75040957386E+03  0.79055816586E+03  0.00000000000E+00 0.  1.
         21    1    1    2  502  501 -0.12013953903E-02  0.57221417016E-03 -0.39862827860E-04  0.13313034911E-02  0.00000000000E+00 0. -1.
<mgrwt>
<rscale>  1 0.59148376E+03</rscale>
<asrwt>0</asrwt>
<pdfrwt beam="1">  1        1 0.31805145E+00 0.59148376E+03</pdfrwt>
<pdfrwt beam="2">0</pdfrwt>
<totfact> 0.30883704E+00</totfact>
</mgrwt>
</event>
<event>
 6    1  0.3695885E-003  0.6863190E+03  0.7818608E-02  0.9740919E-01
          1   -1    0    0  502    0  0.00000000000E+00  0.00000000000E+00  0.11776004029E+03  0.11776004029E+03  0.00000000000E+00 0.  1.
         13   -1    0    0    0    0 -0.00000000000E+00 -0.00000000000E+00 -0.10000000000E+04  0.10000000000E+04  0.00000000000E+00 0.  1.
    9000005    2    1    2  501    0  0.14529111388E-03  0.19471213943E-04 -0.88224155433E+03  0.11177584389E+04  0.68631899847E+03 0.  0.
         13    1    3    3    0    0 -0.33604608218E+03  0.20953281413E+02 -0.54905812163E+03  0.64407362179E+03  0.00000000000E+00 0.  1.
          3    1    3    3  501    0  0.33604622747E+03 -0.20953261942E+02 -0.33318343270E+03  0.47368481716E+03  0.00000000000E+00 0.  1.
         21    1    1    2  502  501 -0.14529111387E-03 -0.19471213942E-04  0.15946152591E-02  0.16013389587E-02  0.00000000000E+00 0. -1.
<mgrwt>
<rscale>  1 0.68631900E+03</rscale>
<asrwt>0</asrwt>
<pdfrwt beam="1">  1        1 0.42821923E+00 0.68631900E+03</pdfrwt>
<pdfrwt beam="2">0</pdfrwt>
<totfact> 0.99197067E-01</totfact>
</mgrwt>
</event>
<event>
 6    1  0.3695885E-003  0.6357252E+03  0.7818608E-02  0.9833940E-01
          3   -1    0    0  502    0  0.00000000000E+00  0.00000000000E+00  0.10104086656E+03  0.10104086656E+03  0.00000000000E+00 0.  1.
         13   -1    0    0    0    0 -0.00000000000E+00 -0.00000000000E+00 -0.10000000000E+04  0.10000000000E+04  0.00000000000E+00 0.  1.
    9000005    2    1    2  501    0  0.55269422757E-02  0.95973990407E-02 -0.89895315373E+03  0.11010282803E+04  0.63572517747E+03 0.  0.
         13    1    3    3    0    0 -0.28552536674E+03 -0.10184283736E+03 -0.28391688536E+03  0.41533780994E+03  0.00000000000E+00 0.  1.
          3    1    3    3  501    0  0.28553089368E+03  0.10185243476E+03 -0.61503626837E+03  0.68569047035E+03  0.00000000000E+00 0.  1.
         21    1    1    2  502  501 -0.55269422757E-02 -0.95973990407E-02 -0.59797074552E-02  0.12586264756E-01  0.00000000000E+00 0. -1.
<mgrwt>
<rscale>  1 0.63572518E+03</rscale>
<asrwt>0</asrwt>
<pdfrwt beam="1">  1        3 0.36742211E+00 0.63572518E+03</pdfrwt>
<pdfrwt beam="2">0</pdfrwt>
<totfact> 0.88187485E-02</totfact>
</mgrwt>
</event>
<event>
 6    1  0.3695885E-003  0.6452826E+03  0.7818608E-02  0.9815671E-01
          1   -1    0    0  502    0  0.00000000000E+00  0.00000000000E+00  0.10410870036E+03  0.10410870036E+03  0.00000000000E+00 0.  1.
         13   -1    0    0    0    0 -0.00000000000E+00 -0.00000000000E+00 -0.10000000000E+04  0.10000000000E+04  0.00000000000E+00 0.  1.
    9000005    2    1    2  501    0  0.35798855550E-02  0.19586487041E-02 -0.89590217740E+03  0.11040970824E+04  0.64528261701E+03 0.  0.
         13    1    3    3    0    0  0.27854662672E+03 -0.88596528932E+02 -0.68168633022E+03  0.74171006533E+03  0.00000000000E+00 0.  1.
          3    1    3    3  501    0 -0.27854304683E+03  0.88598487581E+02 -0.21421584718E+03  0.36238701705E+03  0.00000000000E+00 0.  1.
         21    1    1    2  502  501 -0.35798855550E-02 -0.19586487041E-02  0.10877765237E-01  0.11617988719E-01  0.00000000000E+00 0. -1.
<mgrwt>
<rscale>  1 0.64528262E+03</rscale>
<asrwt>0</asrwt>
<pdfrwt beam="1">  1        1 0.37857789E+00 0.64528262E+03</pdfrwt>
<pdfrwt beam="2">0</pdfrwt>
<totfact> 0.16662889E+00</totfact>
</mgrwt>
</event>
<event>
 6    1  0.3695885E-003  0.6471099E+03  0.7818608E-02  0.9812217E-01
          1   -1    0    0  502    0  0.00000000000E+00  0.00000000000E+00  0.10469352454E+03  0.10469352454E+03  0.00000000000E+00 0.  1.
         13   -1    0    0    0    0 -0.00000000000E+00 -0.00000000000E+00 -0.10000000000E+04  0.10000000000E+04  0.00000000000E+00 0.  1.
    9000005    2    1    2  501    0  0.10264239871E-02 -0.94505373775E-03 -0.89531208417E+03  0.11046877449E+04  0.64710994866E+03 0.  0.
         13    1    3    3    0    0  0.30907408404E+03 -0.23217062495E+02 -0.28914043657E+03  0.42387263827E+03  0.00000000000E+00 0.  1.
          1    1    3    3  501    0 -0.30907305761E+03  0.23216117441E+02 -0.60617164760E+03  0.68081510662E+03  0.00000000000E+00 0.  1.
         21    1    1    2  502  501 -0.10264239870E-02  0.94505373775E-03  0.56087104992E-02  0.57796458570E-02  0.00000000000E+00 0. -1.
<mgrwt>
<rscale>  1 0.64710995E+03</rscale>
<asrwt>0</asrwt>
<pdfrwt beam="1">  1        1 0.38070453E+00 0.64710995E+03</pdfrwt>
<pdfrwt beam="2">0</pdfrwt>
<totfact> 0.16301323E+00</totfact>
</mgrwt>
</event>
<event>
 6    1  0.3695885E-003  0.6480088E+03  0.7818608E-02  0.9810523E-01
          1   -1    0    0  502    0  0.00000000000E+00  0.00000000000E+00  0.10498294685E+03  0.10498294685E+03  0.00000000000E+00 0.  1.
         13   -1    0    0    0    0 -0.00000000000E+00 -0.00000000000E+00 -0.10000000000E+04  0.10000000000E+04  0.00000000000E+00 0.  1.
    9000005    2    1    2  501    0  0.28464828594E-02 -0.39425056111E-02 -0.89501948903E+03  0.11049775082E+04  0.64800880223E+03 0.  0.
         13    1    3    3    0    0 -0.13395008265E+03  0.16562248040E+02 -0.94977734849E+03  0.95931952154E+03  0.00000000000E+00 0.  1.
          1    1    3    3  501    0  0.13395292913E+03 -0.16566190546E+02  0.54757859462E+02  0.14565798662E+03  0.00000000000E+00 0.  1.
         21    1    1    2  502  501 -0.28464828594E-02  0.39425056111E-02  0.24358741131E-02  0.54386853060E-02  0.00000000000E+00 0. -1.
<mgrwt>
<rscale>  1 0.64800880E+03</rscale>
<asrwt>0</asrwt>
<pdfrwt beam="1">  1        1 0.38175698E+00 0.64800880E+03</pdfrwt>
<pdfrwt beam="2">0</pdfrwt>
<totfact> 0.16125180E+00</totfact>
</mgrwt>
</event>
<event>
 6    1  0.3695885E-003  0.6492793E+03  0.7818608E-02  0.9808133E-01
          1   -1    0    0  502    0  0.00000000000E+00  0.00000000000E+00  0.10540594900E+03  0.10540594900E+03  0.00000000000E+00 0.  1.
         13   -1    0    0    0    0 -0.00000000000E+00 -0.00000000000E+00 -0.10000000000E+04  0.10000000000E+04  0.00000000000E+00 0.  1.
    9000005    2    1    2  501    0  0.16842082125E-03 -0.67931012154E-03 -0.89460909755E+03  0.11053908862E+04  0.64927927261E+03 0.  0.
         13    1    3    3    0    0 -0.22639322703E+01  0.29320805751E+03 -0.21008559892E+03  0.36071047844E+03  0.00000000000E+00 0.  1.
          3    1    3    3  501    0  0.22641006912E+01 -0.29320873682E+03 -0.68452349863E+03  0.74468040775E+03  0.00000000000E+00 0.  1.
         21    1    1    2  502  501 -0.16842082125E-03  0.67931012155E-03  0.15046547462E-01  0.15062815750E-01  0.00000000000E+00 0. -1.
<mgrwt>
<rscale>  1 0.64927927E+03</rscale>
<asrwt>0</asrwt>
<pdfrwt beam="1">  1        1 0.38329517E+00 0.64927927E+03</pdfrwt>
<pdfrwt beam="2">0</pdfrwt>
<totfact> 0.15871120E+00</totfact>
</mgrwt>
</event>
<event>
 6    1  0.3695885E-003  0.6465255E+03  0.7818608E-02  0.9813321E-01
          1   -1    0    0  502    0  0.00000000000E+00  0.00000000000E+00  0.10450266736E+03  0.10450266736E+03  0.00000000000E+00 0.  1.
         13   -1    0    0    0    0 -0.00000000000E+00 -0.00000000000E+00 -0.10000000000E+04  0.10000000000E+04  0.00000000000E+00 0.  1.
    9000005    2    1    2  501    0  0.21348052101E-03  0.27540626206E-05 -0.89550118998E+03  0.11044988041E+04  0.64652550379E+03 0.  0.
         13    1    3    3    0    0 -0.24863709916E+03 -0.17707001313E+03 -0.62954893658E+03  0.69964709689E+03  0.00000000000E+00 0.  1.
          3    1    3    3  501    0  0.24863731264E+03  0.17707001589E+03 -0.26595225339E+03  0.40485170723E+03  0.00000000000E+00 0.  1.
         21    1    1    2  502  501 -0.21348052100E-03 -0.27540626071E-05  0.38573333167E-02  0.38632372220E-02  0.00000000000E+00 0. -1.
<mgrwt>
<rscale>  1 0.64652550E+03</rscale>
<asrwt>0</asrwt>
<pdfrwt beam="1">  1        1 0.38001050E+00 0.64652550E+03</pdfrwt>
<pdfrwt beam="2">0</pdfrwt>
<totfact> 0.16418455E+00</totfact>
</mgrwt>
</event>
<event>
 6    1  0.3695885E-003  0.5060082E+03  0.7818608E-02  0.1012222E+00
          1   -1    0    0  502    0  0.00000000000E+00  0.00000000000E+00  0.64011740078E+02  0.64011740078E+02  0.00000000000E+00 0.  1.
         13   -1    0    0    0    0 -0.00000000000E+00 -0.00000000000E+00 -0.10000000000E+04  0.10000000000E+04  0.00000000000E+00 0.  1.
    9000005    2    1    2  501    0 -0.53314191152E-03 -0.15654372544E-03 -0.93598879489E+03  0.10640109688E+04  0.50600821878E+03 0.  0.
         13    1    3    3    0    0  0.15145876571E+03 -0.19440515948E+03 -0.58838319382E+03  0.63790901115E+03  0.00000000000E+00 0.  1.
          1    1    3    3  501    0 -0.15145929885E+03  0.19440500294E+03 -0.34760560107E+03  0.42610195760E+03  0.00000000000E+00 0.  1.
         21    1    1    2  502  501  0.53314191150E-03  0.15654372545E-03  0.53496853656E-03  0.77132196318E-03  0.00000000000E+00 0. -1.
<mgrwt>
<rscale>  1 0.50600822E+03</rscale>
<asrwt>0</asrwt>
<pdfrwt beam="1">  1        1 0.23277045E+00 0.50600822E+03</pdfrwt>
<pdfrwt beam="2">0</pdfrwt>
<totfact> 0.73375314E+00</totfact>
</mgrwt>
</event>
<event>
 6    1  0.3695885E-003  0.6506403E+03  0.7818608E-02  0.9805578E-01
          1   -1    0    0  502    0  0.00000000000E+00  0.00000000000E+00  0.10600230985E+03  0.10600230985E+03  0.00000000000E+00 0.  1.
         13   -1    0    0    0    0 -0.00000000000E+00 -0.00000000000E+00 -0.10000000000E+04  0.10000000000E+04  0.00000000000E+00 0.  1.
    9000005    2    1    2  501    0 -0.49573882121E-02  0.35923540248E-02 -0.89416673407E+03  0.11058331551E+04  0.65064031427E+03 0.  0.
         13    1    3    3    0    0 -0.25821669868E+03  0.16844819143E+03 -0.27058629645E+03  0.41020433994E+03  0.00000000000E+00 0.  1.
          3    1    3    3  501    0  0.25821174129E+03 -0.16844459908E+03 -0.62358043762E+03  0.69562881516E+03  0.00000000000E+00 0.  1.
         21    1    1    2  502  501  0.49573882120E-02 -0.35923540248E-02  0.16904392758E+00  0.16915475210E+00  0.00000000000E+00 0. -1.
<mgrwt>
<rscale>  1 0.65064031E+03</rscale>
<asrwt>0</asrwt>
<pdfrwt beam="1">  1        1 0.38546376E+00 0.65064031E+03</pdfrwt>
<pdfrwt beam="2">0</pdfrwt>
<totfact> 0.15520630E+00</totfact>
</mgrwt>
</event>
<event>
 6    1  0.3695885E-003  0.6515871E+03  0.7818608E-02  0.9803806E-01
          1   -1    0    0  502    0  0.00000000000E+00  0.00000000000E+00  0.10614583394E+03  0.10614583394E+03  0.00000000000E+00 0.  1.
         13   -1    0    0    0    0 -0.00000000000E+00 -0.00000000000E+00 -0.10000000000E+04  0.10000000000E+04  0.00000000000E+00 0.  1.
    9000005    2    1    2  501    0 -0.69292818839E-03 -0.55035586161E-03 -0.89385852378E+03  0.11061413873E+04  0.65158706873E+03 0.  0.
         13    1    3    3    0    0 -0.12354604180E+02  0.32465727240E+03 -0.40582441050E+03  0.51985424200E+03  0.00000000000E+00 0.  1.
          3    1    3    3  501    0  0.12353911252E+02 -0.32465782276E+03 -0.48803411328E+03  0.58628714528E+03  0.00000000000E+00 0.  1.
         21    1    1    2  502  501  0.69292818839E-03  0.55035586156E-03  0.43577146250E-02  0.44466524264E-02  0.00000000000E+00 0.  1.
<mgrwt>
<rscale>  1 0.65158707E+03</rscale>
<asrwt>0</asrwt>
<pdfrwt beam="1">  1        1 0.38598566E+00 0.65158707E+03</pdfrwt>
<pdfrwt beam="2">0</pdfrwt>
<totfact> 0.15435617E+00</totfact>
</mgrwt>
</event>
<event>
 6    1  0.3695885E-003  0.5862567E+03  0.7818608E-02  0.9934336E-01
          1   -1    0    0  502    0  0.00000000000E+00  0.00000000000E+00  0.90625319900E+02  0.90625319900E+02  0.00000000000E+00 0.  1.
         13   -1    0    0    0    0 -0.00000000000E+00 -0.00000000000E+00 -0.10000000000E+04  0.10000000000E+04  0.00000000000E+00 0.  1.
    9000005    2    1    2  501    0  0.55429602360E+00  0.10326281395E+01 -0.91399633813E+03  0.10858573761E+04  0.58625554290E+03 0.  0.
         13    1    3    3    0    0  0.12232671711E+03 -0.52442904174E+02 -0.94081578419E+03  0.95018336320E+03  0.00000000000E+00 0.  1.
          3    1    3    3  501    0 -0.12177242109E+03  0.53475532313E+02  0.26819446061E+02  0.13567401292E+03  0.00000000000E+00 0.  1.
         21    1    1    2  502  501 -0.55429602360E+00 -0.10326281395E+01  0.46216580315E+01  0.47679437828E+01  0.00000000000E+00 0. -1.
<mgrwt>
<rscale>  1 0.58625671E+03</rscale>
<asrwt>0</asrwt>
<pdfrwt beam="1">  1        1 0.32954731E+00 0.58625671E+03</pdfrwt>
<pdfrwt beam="2">0</pdfrwt>
<totfact> 0.27569395E+00</totfact>
</mgrwt>
</event>
<event>
 6    1  0.3695885E-003  0.6611088E+03  0.7818608E-02  0.9786155E-01
          1   -1    0    0  502    0  0.00000000000E+00  0.00000000000E+00  0.10937890811E+03  0.10937890811E+03  0.00000000000E+00 0.  1.
         13   -1    0    0    0    0 -0.00000000000E+00 -0.00000000000E+00 -0.10000000000E+04  0.10000000000E+04  0.00000000000E+00 0.  1.
    9000005    2    1    2  501    0 -0.83482456674E-01  0.26370039350E+00 -0.89049621292E+03  0.11090754250E+04  0.66110870263E+03 0.  0.
         13    1    3    3    0    0 -0.17791917084E+03  0.24694379149E+03 -0.22855457489E+03  0.38062272818E+03  0.00000000000E+00 0.  1.
          1    1    3    3  501    0  0.17783568838E+03 -0.24668009109E+03 -0.66194163803E+03  0.72845269686E+03  0.00000000000E+00 0.  1.
         21    1    1    2  502  501  0.83482456674E-01 -0.26370039350E+00 -0.12487896390E+00  0.30348306993E+00  0.00000000000E+00 0.  1.
<mgrwt>
<rscale>  1 0.66110876E+03</rscale>
<asrwt>0</asrwt>
<pdfrwt beam="1">  1        1 0.39774232E+00 0.66110876E+03</pdfrwt>
<pdfrwt beam="2">0</pdfrwt>
<totfact> 0.13663577E+00</totfact>
</mgrwt>
</event>
<event>
 6    1  0.3695885E-003  0.6404432E+03  0.7818608E-02  0.9824879E-01
          1   -1    0    0  502    0  0.00000000000E+00  0.00000000000E+00  0.10293856248E+03  0.10293856248E+03  0.00000000000E+00 0.  1.
         13   -1    0    0    0    0 -0.00000000000E+00 -0.00000000000E+00 -0.10000000000E+04  0.10000000000E+04  0.00000000000E+00 0.  1.
    9000005    2    1    2  501    0  0.30061567878E+00 -0.57985077327E-01 -0.89739196610E+03  0.11024880281E+04  0.64044314161E+03 0.  0.
         13    1    3    3    0    0  0.16210136797E+03 -0.66979670488E+02 -0.91018187617E+03  0.92692727734E+03  0.00000000000E+00 0.  1.
          3    1    3    3  501    0 -0.16180075229E+03  0.66921685411E+02  0.12789910076E+02  0.17556075080E+03  0.00000000000E+00 0.  1.
         21    1    1    2  502  501 -0.30061567878E+00  0.57985077327E-01  0.33052857496E+00  0.45053434319E+00  0.00000000000E+00 0. -1.
<mgrwt>
<rscale>  1 0.64044321E+03</rscale>
<asrwt>0</asrwt>
<pdfrwt beam="1">  1        1 0.37432283E+00 0.64044321E+03</pdfrwt>
<pdfrwt beam="2">0</pdfrwt>
<totfact> 0.17413168E+00</totfact>
</mgrwt>
</event>
<event>
 6    1  0.3695885E-003  0.6542654E+03  0.7818608E-02  0.9798808E-01
          3   -1    0    0  502    0  0.00000000000E+00  0.00000000000E+00  0.10840020003E+03  0.10840020003E+03  0.00000000000E+00 0.  1.
         13   -1    0    0    0    0 -0.00000000000E+00 -0.00000000000E+00 -0.10000000000E+04  0.10000000000E+04  0.00000000000E+00 0.  1.
    9000005    2    1    2  501    0 -0.45140483436E-01  0.21410675159E-01 -0.89298370004E+03  0.11070153984E+04  0.65426539059E+03 0.  0.
         13    1    3    3    0    0  0.24432552369E+03 -0.17847055275E+03 -0.65680174761E+03  0.72314261068E+03  0.00000000000E+00 0.  1.
          1    1    3    3  501    0 -0.24437066417E+03  0.17849196343E+03 -0.23618195243E+03  0.38387278774E+03  0.00000000000E+00 0.  1.
         21    1    1    2  502  501  0.45140483436E-01 -0.21410675159E-01  0.13839000648E+01  0.13848015993E+01  0.00000000000E+00 0.  1.
<mgrwt>
<rscale>  1 0.65426539E+03</rscale>
<asrwt>0</asrwt>
<pdfrwt beam="1">  1        3 0.39418338E+00 0.65426539E+03</pdfrwt>
<pdfrwt beam="2">0</pdfrwt>
<totfact> 0.63504710E-02</totfact>
</mgrwt>
</event>
<event>
 6    1  0.3695885E-003  0.5266143E+03  0.7818608E-02  0.1007057E+00
          1   -1    0    0  502    0  0.00000000000E+00  0.00000000000E+00  0.69934143144E+02  0.69934143144E+02  0.00000000000E+00 0.  1.
         13   -1    0    0    0    0 -0.00000000000E+00 -0.00000000000E+00 -0.10000000000E+04  0.10000000000E+04  0.00000000000E+00 0.  1.
    9000005    2    1    2  501    0  0.13202008764E+01 -0.13080236611E+01 -0.92335690024E+03  0.10629725374E+04  0.52661104821E+03 0.  0.
         13    1    3    3    0    0  0.19833423778E+03  0.62331689885E+02 -0.78954234477E+03  0.81645503467E+03  0.00000000000E+00 0.  1.
          3    1    3    3  501    0 -0.19701403691E+03 -0.63639713546E+02 -0.13381455547E+03  0.24651750269E+03  0.00000000000E+00 0.  1.
         21    1    1    2  502  501 -0.13202008764E+01  0.13080236611E+01 -0.67089566179E+01  0.69616057883E+01  0.00000000000E+00 0. -1.
<mgrwt>
<rscale>  1 0.52661433E+03</rscale>
<asrwt>0</asrwt>
<pdfrwt beam="1">  1        1 0.25430651E+00 0.52661433E+03</pdfrwt>
<pdfrwt beam="2">0</pdfrwt>
<totfact> 0.58888795E+00</totfact>
</mgrwt>
</event>
<event>
 6    1  0.3695885E-003  0.6532864E+03  0.7818608E-02  0.9800632E-01
          1   -1    0    0  502    0  0.00000000000E+00  0.00000000000E+00  0.10671133971E+03  0.10671133971E+03  0.00000000000E+00 0.  1.
         13   -1    0    0    0    0 -0.00000000000E+00 -0.00000000000E+00 -0.10000000000E+04  0.10000000000E+04  0.00000000000E+00 0.  1.
    9000005    2    1    2  501    0 -0.28805268286E-02 -0.38985035869E-03 -0.89330407366E+03  0.11066956546E+04  0.65328638741E+03 0.  0.
         13    1    3    3    0    0  0.69101567164E+02  0.16476342316E+03  0.16580406955E+02  0.17943500798E+03  0.00000000000E+00 0.  1.
          1    1    3    3  501    0 -0.69104447691E+02 -0.16476381301E+03 -0.90988448062E+03  0.92726064666E+03  0.00000000000E+00 0.  1.
         21    1    1    2  502  501  0.28805268286E-02  0.38985035869E-03  0.15413372885E-01  0.15685071941E-01  0.00000000000E+00 0.  1.
<mgrwt>
<rscale>  1 0.65328639E+03</rscale>
<asrwt>0</asrwt>
<pdfrwt beam="1">  1        1 0.38804205E+00 0.65328639E+03</pdfrwt>
<pdfrwt beam="2">0</pdfrwt>
<totfact> 0.15110615E+00</totfact>
</mgrwt>
</event>
<event>
 6    1  0.3695885E-003  0.6519628E+03  0.7818608E-02  0.9803103E-01
          1   -1    0    0  502    0  0.00000000000E+00  0.00000000000E+00  0.10626388819E+03  0.10626388819E+03  0.00000000000E+00 0.  1.
         13   -1    0    0    0    0 -0.00000000000E+00 -0.00000000000E+00 -0.10000000000E+04  0.10000000000E+04  0.00000000000E+00 0.  1.
    9000005    2    1    2  501    0 -0.91955274115E-05 -0.14412858434E-04 -0.89373612355E+03  0.11062638675E+04  0.65196279488E+03 0.  0.
         13    1    3    3    0    0 -0.68320724101E+02 -0.20986261973E+03 -0.39794366999E+02  0.22426241804E+03  0.00000000000E+00 0.  1.
          1    1    3    3  501    0  0.68320714905E+02  0.20986260531E+03 -0.85394175655E+03  0.88200144941E+03  0.00000000000E+00 0.  1.
         21    1    1    2  502  501  0.91955274049E-05  0.14412858432E-04  0.11738291225E-04  0.20738266400E-04  0.00000000000E+00 0. -1.
<mgrwt>
<rscale>  1 0.65196279E+03</rscale>
<asrwt>0</asrwt>
<pdfrwt beam="1">  1        1 0.38641495E+00 0.65196279E+03</pdfrwt>
<pdfrwt beam="2">0</pdfrwt>
<totfact> 0.15367167E+00</totfact>
</mgrwt>
</event>
<event>
 6    1  0.3695885E-003  0.6363843E+03  0.7818608E-02  0.9832669E-01
          1   -1    0    0  502    0  0.00000000000E+00  0.00000000000E+00  0.10226390880E+03  0.10226390880E+03  0.00000000000E+00 0.  1.
         13   -1    0    0    0    0 -0.00000000000E+00 -0.00000000000E+00 -0.10000000000E+04  0.10000000000E+04  0.00000000000E+00 0.  1.
    9000005    2    1    2  501    0 -0.97889981173E-02  0.11990813862E-01 -0.89875369579E+03  0.11012461865E+04  0.63638428431E+03 0.  0.
         13    1    3    3    0    0  0.27291804522E+02 -0.31603970653E+03 -0.49232557059E+03  0.58567090260E+03  0.00000000000E+00 0.  1.
          3    1    3    3  501    0 -0.27301593520E+02  0.31605169734E+03 -0.40642812520E+03  0.51557528388E+03  0.00000000000E+00 0.  1.
         21    1    1    2  502  501  0.97889981173E-02 -0.11990813862E-01  0.10176045875E+01  0.10177223102E+01  0.00000000000E+00 0.  1.
<mgrwt>
<rscale>  1 0.63638428E+03</rscale>
<asrwt>0</asrwt>
<pdfrwt beam="1">  1        1 0.37186954E+00 0.63638428E+03</pdfrwt>
<pdfrwt beam="2">0</pdfrwt>
<totfact> 0.17864438E+00</totfact>
</mgrwt>
</event>
<event>
 6    1  0.3695885E-003  0.6519144E+03  0.7818608E-02  0.9803194E-01
          1   -1    0    0  502    0  0.00000000000E+00  0.00000000000E+00  0.10626416021E+03  0.10626416021E+03  0.00000000000E+00 0.  1.
         13   -1    0    0    0    0 -0.00000000000E+00 -0.00000000000E+00 -0.10000000000E+04  0.10000000000E+04  0.00000000000E+00 0.  1.
    9000005    2    1    2  501    0  0.72469552208E-04  0.30016079899E-03 -0.89375190754E+03  0.11062480895E+04  0.65191438338E+03 0.  0.
         13    1    3    3    0    0 -0.26749158286E+03 -0.18619830607E+03 -0.45560455328E+03  0.56017592331E+03  0.00000000000E+00 0.  1.
          3    1    3    3  501    0  0.26749165533E+03  0.18619860623E+03 -0.43814735426E+03  0.54607216618E+03  0.00000000000E+00 0.  1.
         21    1    1    2  502  501 -0.72469552216E-04 -0.30016079899E-03  0.16067750565E-01  0.16070717363E-01  0.00000000000E+00 0. -1.
<mgrwt>
<rscale>  1 0.65191438E+03</rscale>
<asrwt>0</asrwt>
<pdfrwt beam="1">  1        1 0.38641594E+00 0.65191438E+03</pdfrwt>
<pdfrwt beam="2">0</pdfrwt>
<totfact> 0.15367150E+00</totfact>
</mgrwt>
</event>
<event>
 6    1  0.3695885E-003  0.6434242E+03  0.7818608E-02  0.9819197E-01
          1   -1    0    0  502    0  0.00000000000E+00  0.00000000000E+00  0.10349942412E+03  0.10349942412E+03  0.00000000000E+00 0.  1.
         13   -1    0    0    0    0 -0.00000000000E+00 -0.00000000000E+00 -0.10000000000E+04  0.10000000000E+04  0.00000000000E+00 0.  1.
    9000005    2    1    2  501    0 -0.23293656123E-03  0.23916683628E-03 -0.89650128471E+03  0.11034986406E+04  0.64342419626E+03 0.  0.
         13    1    3    3    0    0  0.54115574692E+02 -0.18912606981E+03 -0.88483347354E+03  0.90643667269E+03  0.00000000000E+00 0.  1.
          1    1    3    3  501    0 -0.54115807628E+02  0.18912630897E+03 -0.11667811170E+02  0.19706196792E+03  0.00000000000E+00 0.  1.
         21    1    1    2  502  501  0.23293656123E-03 -0.23916683627E-03  0.70882719571E-03  0.78351529054E-03  0.00000000000E+00 0. -1.
<mgrwt>
<rscale>  1 0.64342420E+03</rscale>
<asrwt>0</asrwt>
<pdfrwt beam="1">  1        1 0.37636234E+00 0.64342420E+03</pdfrwt>
<pdfrwt beam="2">0</pdfrwt>
<totfact> 0.17047550E+00</totfact>
</mgrwt>
</event>
<event>
 6    1  0.3695885E-003  0.6498201E+03  0.7818608E-02  0.9807117E-01
          1   -1    0    0  502    0  0.00000000000E+00  0.00000000000E+00  0.10559108040E+03  0.10559108040E+03  0.00000000000E+00 0.  1.
         13   -1    0    0    0    0 -0.00000000000E+00 -0.00000000000E+00 -0.10000000000E+04  0.10000000000E+04  0.00000000000E+00 0.  1.
    9000005    2    1    2  501    0 -0.12468485582E-02  0.90969963039E-02 -0.89443249223E+03  0.11055657826E+04  0.64982014158E+03 0.  0.
         13    1    3    3    0    0  0.18538167401E+03  0.13441108724E+03 -0.83939443420E+03  0.87006650413E+03  0.00000000000E+00 0.  1.
          1    1    3    3  501    0 -0.18538292086E+03 -0.13440199024E+03 -0.55038058027E+02  0.23549927847E+03  0.00000000000E+00 0.  1.
         21    1    1    2  502  501  0.12468485581E-02 -0.90969963039E-02  0.23572626915E-01  0.25297800552E-01  0.00000000000E+00 0. -1.
<mgrwt>
<rscale>  1 0.64982014E+03</rscale>
<asrwt>0</asrwt>
<pdfrwt beam="1">  1        1 0.38396837E+00 0.64982014E+03</pdfrwt>
<pdfrwt beam="2">0</pdfrwt>
<totfact> 0.15761174E+00</totfact>
</mgrwt>
</event>
<event>
 6    1  0.3695885E-003  0.6489026E+03  0.7818608E-02  0.9808841E-01
          1   -1    0    0  502    0  0.00000000000E+00  0.00000000000E+00  0.10748028847E+03  0.10748028847E+03  0.00000000000E+00 0.  1.
         13   -1    0    0    0    0 -0.00000000000E+00 -0.00000000000E+00 -0.10000000000E+04  0.10000000000E+04  0.00000000000E+00 0.  1.
    9000005    2    1    2  501    0  0.99732703265E-01  0.27190649667E+00 -0.89472086564E+03  0.11052601625E+04  0.64890254707E+03 0.  0.
         13    1    3    3    0    0 -0.45308734948E+02 -0.31004519928E+03 -0.30467654854E+03  0.43704542817E+03  0.00000000000E+00 0.  1.
          3    1    3    3  501    0  0.45408467651E+02  0.31031710578E+03 -0.59004431710E+03  0.66821473436E+03  0.00000000000E+00 0.  1.
         21    1    1    2  502  501 -0.99732703265E-01 -0.27190649667E+00  0.22011541110E+01  0.22201259368E+01  0.00000000000E+00 0. -1.
<mgrwt>
<rscale>  1 0.64890261E+03</rscale>
<asrwt>0</asrwt>
<pdfrwt beam="1">  1        1 0.39083824E+00 0.64890261E+03</pdfrwt>
<pdfrwt beam="2">0</pdfrwt>
<totfact> 0.14697421E+00</totfact>
</mgrwt>
</event>
<event>
 6    1  0.3695885E-003  0.6761596E+03  0.7818608E-02  0.9758894E-01
          1   -1    0    0  502    0  0.00000000000E+00  0.00000000000E+00  0.12144170598E+03  0.12144170598E+03  0.00000000000E+00 0.  1.
         13   -1    0    0    0    0 -0.00000000000E+00 -0.00000000000E+00 -0.10000000000E+04  0.10000000000E+04  0.00000000000E+00 0.  1.
    9000005    2    1    2  501    0  0.86143971840E-01  0.19205512422E+00 -0.88570033582E+03  0.11142965631E+04  0.67615952358E+03 0.  0.
         13    1    3    3    0    0  0.11476678116E+03 -0.20484465615E+02  0.80129109105E+02  0.14146272129E+03  0.00000000000E+00 0.  1.
          3    1    3    3  501    0 -0.11468063719E+03  0.20676520740E+02 -0.96582944492E+03  0.97283384179E+03  0.00000000000E+00 0.  1.
         21    1    1    2  502  501 -0.86143971840E-01 -0.19205512422E+00  0.71420417981E+01  0.71451428957E+01  0.00000000000E+00 0.  1.
<mgrwt>
<rscale>  1 0.67615956E+03</rscale>
<asrwt>0</asrwt>
<pdfrwt beam="1">  1        1 0.44160713E+00 0.67615956E+03</pdfrwt>
<pdfrwt beam="2">0</pdfrwt>
<totfact> 0.86360102E-01</totfact>
</mgrwt>
</event>
<event>
 6    1  0.3695885E-003  0.6471141E+03  0.7818608E-02  0.9812209E-01
          1   -1    0    0  502    0  0.00000000000E+00  0.00000000000E+00  0.10480184043E+03  0.10480184043E+03  0.00000000000E+00 0.  1.
         13   -1    0    0    0    0 -0.00000000000E+00 -0.00000000000E+00 -0.10000000000E+04  0.10000000000E+04  0.00000000000E+00 0.  1.
    9000005    2    1    2  501    0 -0.39649688852E-02 -0.52079281825E-02 -0.89531072448E+03  0.11046890854E+04  0.64711411816E+03 0.  0.
         13    1    3    3    0    0 -0.12448131071E+03  0.21597631123E+03 -0.95530881084E+02  0.26695975908E+03  0.00000000000E+00 0.  1.
          3    1    3    3  501    0  0.12447734574E+03 -0.21598151916E+03 -0.79977984340E+03  0.83772932629E+03  0.00000000000E+00 0.  1.
         21    1    1    2  502  501  0.39649688852E-02  0.52079281825E-02  0.11256490840E+00  0.11275505353E+00  0.00000000000E+00 0. -1.
<mgrwt>
<rscale>  1 0.64711412E+03</rscale>
<asrwt>0</asrwt>
<pdfrwt beam="1">  1        1 0.38109841E+00 0.64711412E+03</pdfrwt>
<pdfrwt beam="2">0</pdfrwt>
<totfact> 0.16236181E+00</totfact>
</mgrwt>
</event>
<event>
 6    1  0.3695885E-003  0.6730935E+03  0.7818608E-02  0.9764385E-01
          1   -1    0    0  502    0  0.00000000000E+00  0.00000000000E+00  0.11326509127E+03  0.11326509127E+03  0.00000000000E+00 0.  1.
         13   -1    0    0    0    0 -0.00000000000E+00 -0.00000000000E+00 -0.10000000000E+04  0.10000000000E+04  0.00000000000E+00 0.  1.
    9000005    2    1    2  501    0  0.11992695090E-03  0.11933693077E-03 -0.88673628206E+03  0.11132637076E+04  0.67309349177E+03 0.  0.
         13    1    3    3    0    0  0.19809070902E+03 -0.23143564904E+02 -0.89173287340E+03  0.91376313731E+03  0.00000000000E+00 0.  1.
          3    1    3    3  501    0 -0.19809058909E+03  0.23143684241E+02  0.49965913443E+01  0.19950057026E+03  0.00000000000E+00 0.  1.
         21    1    1    2  502  501 -0.11992695090E-03 -0.11933693077E-03  0.13733233606E-02  0.13837054706E-02  0.00000000000E+00 0.  1.
<mgrwt>
<rscale>  1 0.67309349E+03</rscale>
<asrwt>0</asrwt>
<pdfrwt beam="1">  1        1 0.41187393E+00 0.67309349E+03</pdfrwt>
<pdfrwt beam="2">0</pdfrwt>
<totfact> 0.11786638E+00</totfact>
</mgrwt>
</event>
<event>
 6    1  0.3695885E-003  0.6128665E+03  0.7818608E-02  0.9879066E-01
          1   -1    0    0  502    0  0.00000000000E+00  0.00000000000E+00  0.99370242955E+02  0.99370242955E+02  0.00000000000E+00 0.  1.
         13   -1    0    0    0    0 -0.00000000000E+00 -0.00000000000E+00 -0.10000000000E+04  0.10000000000E+04  0.00000000000E+00 0.  1.
    9000005    2    1    2  501    0 -0.88241008224E+00  0.46004395990E+00 -0.90604911825E+03  0.10938602735E+04  0.61286564832E+03 0.  0.
         13    1    3    3    0    0  0.35701564976E+02  0.68362826839E+02 -0.98234600769E+03  0.98536884296E+03  0.00000000000E+00 0.  1.
          1    1    3    3  501    0 -0.36583975059E+02 -0.67902782879E+02  0.76296889447E+02  0.10849143051E+03  0.00000000000E+00 0.  1.
         21    1    1    2  502  501  0.88241008224E+00 -0.46004395990E+00  0.54193612017E+01  0.55099694947E+01  0.00000000000E+00 0.  1.
<mgrwt>
<rscale>  1 0.61286646E+03</rscale>
<asrwt>0</asrwt>
<pdfrwt beam="1">  1        1 0.36134710E+00 0.61286646E+03</pdfrwt>
<pdfrwt beam="2">0</pdfrwt>
<totfact> 0.19952552E+00</totfact>
</mgrwt>
</event>
<event>
 6    1  0.3695885E-003  0.6338186E+03  0.7818608E-02  0.9837625E-01
          1   -1    0    0  502    0  0.00000000000E+00  0.00000000000E+00  0.10043156717E+03  0.10043156717E+03  0.00000000000E+00 0.  1.
         13   -1    0    0    0    0 -0.00000000000E+00 -0.00000000000E+00 -0.10000000000E+04  0.10000000000E+04  0.00000000000E+00 0.  1.
    9000005    2    1    2  501    0 -0.63557237411E-04 -0.47676612724E-04 -0.89956846090E+03  0.11004314829E+04  0.63381861185E+03 0.  0.
         13    1    3    3    0    0 -0.32684346881E+02  0.31124065717E+03 -0.53646323395E+03  0.62107311533E+03  0.00000000000E+00 0.  1.
          3    1    3    3  501    0  0.32684283324E+02 -0.31124070484E+03 -0.36310522695E+03  0.47935836757E+03  0.00000000000E+00 0.  1.
         21    1    1    2  502  501  0.63557237410E-04  0.47676612709E-04  0.28067684547E-04  0.84263733258E-04  0.00000000000E+00 0.  1.
<mgrwt>
<rscale>  1 0.63381861E+03</rscale>
<asrwt>0</asrwt>
<pdfrwt beam="1">  1        1 0.36520647E+00 0.63381861E+03</pdfrwt>
<pdfrwt beam="2">0</pdfrwt>
<totfact> 0.19117688E+00</totfact>
</mgrwt>
</event>
<event>
 6    1  0.3695885E-003  0.6496629E+03  0.7818608E-02  0.9807412E-01
          1   -1    0    0  502    0  0.00000000000E+00  0.00000000000E+00  0.11401994900E+03  0.11401994900E+03  0.00000000000E+00 0.  1.
         13   -1    0    0    0    0 -0.00000000000E+00 -0.00000000000E+00 -0.10000000000E+04  0.10000000000E+04  0.00000000000E+00 0.  1.
    9000005    2    1    2  501    0 -0.20003834919E+01  0.23283735665E+01 -0.89417724335E+03  0.11052668456E+04  0.64965562762E+03 0.  0.
         13    1    3    3    0    0 -0.58625926615E+02  0.28569778056E+03 -0.69664958155E+03  0.75523563248E+03  0.00000000000E+00 0.  1.
          3    1    3    3  501    0  0.56625543123E+02 -0.28336940699E+03 -0.19752766180E+03  0.35003121307E+03  0.00000000000E+00 0.  1.
         21    1    1    2  502  501  0.20003834919E+01 -0.23283735665E+01  0.81971923483E+01  0.87531034482E+01  0.00000000000E+00 0.  1.
<mgrwt>
<rscale>  1 0.64966288E+03</rscale>
<asrwt>0</asrwt>
<pdfrwt beam="1">  1        1 0.41461887E+00 0.64966288E+03</pdfrwt>
<pdfrwt beam="2">0</pdfrwt>
<totfact> 0.11508355E+00</totfact>
</mgrwt>
</event>
<event>
 6    1  0.3695885E-003  0.6446876E+03  0.7818608E-02  0.9816799E-01
          1   -1    0    0  502    0  0.00000000000E+00  0.00000000000E+00  0.10390949756E+03  0.10390949756E+03  0.00000000000E+00 0.  1.
         13   -1    0    0    0    0 -0.00000000000E+00 -0.00000000000E+00 -0.10000000000E+04  0.10000000000E+04  0.00000000000E+00 0.  1.
    9000005    2    1    2  501    0  0.82366598616E-03  0.22890334317E-02 -0.89609406169E+03  0.11039051864E+04  0.64468759341E+03 0.  0.
         13    1    3    3    0    0  0.28058095176E+03  0.98965531031E+01 -0.17686301153E+03  0.33181943448E+03  0.00000000000E+00 0.  1.
          1    1    3    3  501    0 -0.28058012810E+03 -0.98942640696E+01 -0.71923105016E+03  0.77208575189E+03  0.00000000000E+00 0.  1.
         21    1    1    2  502  501 -0.82366598617E-03 -0.22890334317E-02  0.35592553638E-02  0.43111945506E-02  0.00000000000E+00 0. -1.
<mgrwt>
<rscale>  1 0.64468759E+03</rscale>
<asrwt>0</asrwt>
<pdfrwt beam="1">  1        1 0.37785352E+00 0.64468759E+03</pdfrwt>
<pdfrwt beam="2">0</pdfrwt>
<totfact> 0.16787695E+00</totfact>
</mgrwt>
</event>
<event>
 6    1  0.3695885E-003  0.6445256E+03  0.7818608E-02  0.9817106E-01
          1   -1    0    0  502    0  0.00000000000E+00  0.00000000000E+00  0.10704078180E+03  0.10704078180E+03  0.00000000000E+00 0.  1.
         13   -1    0    0    0    0 -0.00000000000E+00 -0.00000000000E+00 -0.10000000000E+04  0.10000000000E+04  0.00000000000E+00 0.  1.
    9000005    2    1    2  501    0 -0.97322014759E-01 -0.84304335526E-01 -0.89614523830E+03  0.11038521610E+04  0.64452563063E+03 0.  0.
         13    1    3    3    0    0  0.27310169877E+03 -0.36504579760E+02 -0.16188649596E+03  0.31956902195E+03  0.00000000000E+00 0.  1.
          1    1    3    3  501    0 -0.27319902079E+03  0.36420275424E+02 -0.73425874234E+03  0.78428313901E+03  0.00000000000E+00 0.  1.
         21    1    1    2  502  501  0.97322014759E-01  0.84304335526E-01  0.31860201052E+01  0.31886208471E+01  0.00000000000E+00 0.  1.
<mgrwt>
<rscale>  1 0.64452564E+03</rscale>
<asrwt>0</asrwt>
<pdfrwt beam="1">  1        1 0.38924003E+00 0.64452564E+03</pdfrwt>
<pdfrwt beam="2">0</pdfrwt>
<totfact> 0.14951448E+00</totfact>
</mgrwt>
</event>
<event>
 6    1  0.3695885E-003  0.6558688E+03  0.7818608E-02  0.9795829E-01
          1   -1    0    0  502    0  0.00000000000E+00  0.00000000000E+00  0.10772775569E+03  0.10772775569E+03  0.00000000000E+00 0.  1.
         13   -1    0    0    0    0 -0.00000000000E+00 -0.00000000000E+00 -0.10000000000E+04  0.10000000000E+04  0.00000000000E+00 0.  1.
    9000005    2    1    2  501    0  0.11339097864E-01 -0.16251385206E-01 -0.89245844330E+03  0.11075405052E+04  0.65586881101E+03 0.  0.
         13    1    3    3    0    0  0.15428328123E+03  0.27179980056E+03 -0.61390229570E+03  0.68887915567E+03  0.00000000000E+00 0.  1.
          3    1    3    3  501    0 -0.15427194213E+03 -0.27181605195E+03 -0.27855614760E+03  0.41866134953E+03  0.00000000000E+00 0.  1.
         21    1    1    2  502  501 -0.11339097864E-01  0.16251385206E-01  0.18619898828E+00  0.18725048971E+00  0.00000000000E+00 0. -1.
<mgrwt>
<rscale>  1 0.65586881E+03</rscale>
<asrwt>0</asrwt>
<pdfrwt beam="1">  1        1 0.39173812E+00 0.65586881E+03</pdfrwt>
<pdfrwt beam="2">0</pdfrwt>
<totfact> 0.14544002E+00</totfact>
</mgrwt>
</event>
<event>
 6    1  0.3695885E-003  0.6369266E+03  0.7818608E-02  0.9831624E-01
          1   -1    0    0  502    0  0.00000000000E+00  0.00000000000E+00  0.10141931704E+03  0.10141931704E+03  0.00000000000E+00 0.  1.
         13   -1    0    0    0    0 -0.00000000000E+00 -0.00000000000E+00 -0.10000000000E+04  0.10000000000E+04  0.00000000000E+00 0.  1.
    9000005    2    1    2  501    0  0.19722553793E-03 -0.16076245538E-03 -0.89858107562E+03  0.11014188491E+04  0.63692662984E+03 0.  0.
         13    1    3    3    0    0  0.19578581759E+03  0.23467614181E+03 -0.60409562316E+03  0.67700553899E+03  0.00000000000E+00 0.  1.
          1    1    3    3  501    0 -0.19578562036E+03 -0.23467630258E+03 -0.29448545246E+03  0.42441331016E+03  0.00000000000E+00 0.  1.
         21    1    1    2  502  501 -0.19722553791E-03  0.16076245539E-03  0.39266179673E-03  0.46789503789E-03  0.00000000000E+00 0. -1.
<mgrwt>
<rscale>  1 0.63692663E+03</rscale>
<asrwt>0</asrwt>
<pdfrwt beam="1">  1        1 0.36879829E+00 0.63692663E+03</pdfrwt>
<pdfrwt beam="2">0</pdfrwt>
<totfact> 0.18426211E+00</totfact>
</mgrwt>
</event>
<event>
 6    1  0.3695885E-003  0.6536111E+03  0.7818608E-02  0.9800027E-01
          1   -1    0    0  502    0  0.00000000000E+00  0.00000000000E+00  0.10680899911E+03  0.10680899911E+03  0.00000000000E+00 0.  1.
         13   -1    0    0    0    0 -0.00000000000E+00 -0.00000000000E+00 -0.10000000000E+04  0.10000000000E+04  0.00000000000E+00 0.  1.
    9000005    2    1    2  501    0  0.16759465795E-01  0.29536674337E-02 -0.89318428512E+03  0.11067907041E+04  0.65361111933E+03 0.  0.
         13    1    3    3    0    0 -0.23611991463E+03  0.22229579865E+03 -0.37820802888E+03  0.49820613132E+03  0.00000000000E+00 0.  1.
          1    1    3    3  501    0  0.23613667410E+03 -0.22229284498E+03 -0.51497625624E+03  0.60858457282E+03  0.00000000000E+00 0.  1.
         21    1    1    2  502  501 -0.16759465795E-01 -0.29536674337E-02 -0.67157730648E-02  0.18294957035E-01  0.00000000000E+00 0.  1.
<mgrwt>
<rscale>  1 0.65361112E+03</rscale>
<asrwt>0</asrwt>
<pdfrwt beam="1">  1        1 0.38839718E+00 0.65361112E+03</pdfrwt>
<pdfrwt beam="2">0</pdfrwt>
<totfact> 0.15055064E+00</totfact>
</mgrwt>
</event>
<event>
 6    1  0.3695885E-003  0.6086109E+03  0.7818608E-02  0.9887700E-01
          1   -1    0    0  502    0  0.00000000000E+00  0.00000000000E+00  0.92620905047E+02  0.92620905047E+02  0.00000000000E+00 0.  1.
         13   -1    0    0    0    0 -0.00000000000E+00 -0.00000000000E+00 -0.10000000000E+04  0.10000000000E+04  0.00000000000E+00 0.  1.
    9000005    2    1    2  501    0  0.25237456334E-02  0.48199325398E-02 -0.90739775614E+03  0.10926014669E+04  0.60861094109E+03 0.  0.
         13    1    3    3    0    0  0.43287492304E+02  0.90731337052E+02  0.61931328329E+02  0.11807401044E+03  0.00000000000E+00 0.  1.
          1    1    3    3  501    0 -0.43284968558E+02 -0.90726517120E+02 -0.96932908447E+03  0.97452745647E+03  0.00000000000E+00 0.  1.
         21    1    1    2  502  501 -0.25237456334E-02 -0.48199325397E-02  0.18661190266E-01  0.19438134268E-01  0.00000000000E+00 0.  1.
<mgrwt>
<rscale>  1 0.60861094E+03</rscale>
<asrwt>0</asrwt>
<pdfrwt beam="1">  1        1 0.33680400E+00 0.60861094E+03</pdfrwt>
<pdfrwt beam="2">0</pdfrwt>
<totfact> 0.25539844E+00</totfact>
</mgrwt>
</event>
<event>
 6    1  0.5710853E-003  0.5133587E+03  0.7818608E-02  0.1010350E+00
          1   -1    0    0  502    0  0.00000000000E+00  0.00000000000E+00  0.65884319716E+02  0.65884319716E+02  0.00000000000E+00 0.  1.
         13   -1    0    0    0    0 -0.00000000000E+00 -0.00000000000E+00 -0.10000000000E+04  0.10000000000E+04  0.00000000000E+00 0.  1.
    9000005    2    1    2  501    0 -0.11445544601E-06 -0.10135177234E-03 -0.93411553759E+03  0.10658841447E+04  0.51335871702E+03 0.  0.
         13    1    3    3    0    0  0.81374301968E+02  0.22679777817E+03 -0.65072779208E+03  0.69390609494E+03  0.00000000000E+00 0.  1.
          1    1    3    3  501    0 -0.81374302082E+02 -0.22679787952E+03 -0.28338774551E+03  0.37197804975E+03  0.00000000000E+00 0.  1.
         21    1    1    2  502  501  0.11445544932E-06  0.10135177236E-03 -0.14269300344E-03  0.17502425001E-03  0.00000000000E+00 0.  1.
<mgrwt>
<rscale>  1 0.51335872E+03</rscale>
<asrwt>0</asrwt>
<pdfrwt beam="1">  1        1 0.23957985E+00 0.51335872E+03</pdfrwt>
<pdfrwt beam="2">0</pdfrwt>
<totfact> 0.68418998E+00</totfact>
</mgrwt>
</event>
<event>
 6    1  0.3695885E-003  0.6311207E+03  0.7818608E-02  0.9842864E-01
          1   -1    0    0  502    0  0.00000000000E+00  0.00000000000E+00  0.10183889035E+03  0.10183889035E+03  0.00000000000E+00 0.  1.
         13   -1    0    0    0    0 -0.00000000000E+00 -0.00000000000E+00 -0.10000000000E+04  0.10000000000E+04  0.00000000000E+00 0.  1.
    9000005    2    1    2  501    0  0.27623208601E+00 -0.92979903907E+00 -0.90030672483E+03  0.10994842152E+04  0.63111995685E+03 0.  0.
         13    1    3    3    0    0 -0.24508309706E+03  0.17238836749E+03 -0.27924312974E+03  0.40958539918E+03  0.00000000000E+00 0.  1.
          1    1    3    3  501    0  0.24535932915E+03 -0.17331816653E+03 -0.62106359509E+03  0.68989881605E+03  0.00000000000E+00 0.  1.
         21    1    1    2  502  501 -0.27623208601E+00  0.92979903907E+00  0.21456151825E+01  0.23546751219E+01  0.00000000000E+00 0. -1.
<mgrwt>
<rscale>  1 0.63112070E+03</rscale>
<asrwt>0</asrwt>
<pdfrwt beam="1">  1        1 0.37032402E+00 0.63112070E+03</pdfrwt>
<pdfrwt beam="2">0</pdfrwt>
<totfact> 0.18163468E+00</totfact>
</mgrwt>
</event>
<event>
 6    1  0.3695885E-003  0.6501988E+03  0.7818608E-02  0.9806406E-01
          1   -1    0    0  502    0  0.00000000000E+00  0.00000000000E+00  0.10638978387E+03  0.10638978387E+03  0.00000000000E+00 0.  1.
         13   -1    0    0    0    0 -0.00000000000E+00 -0.00000000000E+00 -0.10000000000E+04  0.10000000000E+04  0.00000000000E+00 0.  1.
    9000005    2    1    2  501    0  0.83866308175E-02 -0.90460825113E-02 -0.89431031281E+03  0.11056895785E+04  0.65019882214E+03 0.  0.
         13    1    3    3    0    0 -0.28842664802E+03 -0.13375494521E+03 -0.33171479596E+03  0.45947254816E+03  0.00000000000E+00 0.  1.
          3    1    3    3  501    0  0.28843503465E+03  0.13374589912E+03 -0.56259551685E+03  0.64621703036E+03  0.00000000000E+00 0.  1.
         21    1    1    2  502  501 -0.83866308175E-02  0.90460825113E-02  0.70009667572E+00  0.70020534313E+00  0.00000000000E+00 0.  1.
<mgrwt>
<rscale>  1 0.65019882E+03</rscale>
<asrwt>0</asrwt>
<pdfrwt beam="1">  1        1 0.38687276E+00 0.65019882E+03</pdfrwt>
<pdfrwt beam="2">0</pdfrwt>
<totfact> 0.15300619E+00</totfact>
</mgrwt>
</event>
<event>
 6    1  0.3695885E-003  0.6580165E+03  0.7818608E-02  0.9791852E-01
          1   -1    0    0  502    0  0.00000000000E+00  0.00000000000E+00  0.10851333250E+03  0.10851333250E+03  0.00000000000E+00 0.  1.
         13   -1    0    0    0    0 -0.00000000000E+00 -0.00000000000E+00 -0.10000000000E+04  0.10000000000E+04  0.00000000000E+00 0.  1.
    9000005    2    1    2  501    0 -0.41204474517E-01 -0.19165125634E+00 -0.89171308422E+03  0.11082138454E+04  0.65801646186E+03 0.  0.
         13    1    3    3    0    0 -0.20046891635E+03 -0.99830737340E+02 -0.39891452554E+02  0.22747591197E+03  0.00000000000E+00 0.  1.
          3    1    3    3  501    0  0.20042771187E+03  0.99639086083E+02 -0.85182163166E+03  0.88073793340E+03  0.00000000000E+00 0.  1.
         21    1    1    2  502  501  0.41204474517E-01  0.19165125634E+00  0.22641671186E+00  0.29948712858E+00  0.00000000000E+00 0. -1.
<mgrwt>
<rscale>  1 0.65801649E+03</rscale>
<asrwt>0</asrwt>
<pdfrwt beam="1">  1        1 0.39459477E+00 0.65801649E+03</pdfrwt>
<pdfrwt beam="2">0</pdfrwt>
<totfact> 0.14119534E+00</totfact>
</mgrwt>
</event>
<event>
 6    1  0.3695885E-003  0.6548665E+03  0.7818608E-02  0.9797690E-01
          1   -1    0    0  502    0  0.00000000000E+00  0.00000000000E+00  0.10721263501E+03  0.10721263501E+03  0.00000000000E+00 0.  1.
         13   -1    0    0    0    0 -0.00000000000E+00 -0.00000000000E+00 -0.10000000000E+04  0.10000000000E+04  0.00000000000E+00 0.  1.
    9000005    2    1    2  501    0 -0.10881233732E-03 -0.68252377304E-04 -0.89278741755E+03  0.11072124962E+04  0.65486650462E+03 0.  0.
         13    1    3    3    0    0  0.20851458485E+03 -0.21917834680E+03 -0.23457732611E+03  0.38281066041E+03  0.00000000000E+00 0.  1.
          3    1    3    3  501    0 -0.20851469367E+03  0.21917827854E+03 -0.65821009144E+03  0.72440183582E+03  0.00000000000E+00 0.  1.
         21    1    1    2  502  501  0.10881233733E-03  0.68252377298E-04  0.52559792469E-04  0.13878416173E-03  0.00000000000E+00 0. -1.
<mgrwt>
<rscale>  1 0.65486650E+03</rscale>
<asrwt>0</asrwt>
<pdfrwt beam="1">  1        1 0.38986495E+00 0.65486650E+03</pdfrwt>
<pdfrwt beam="2">0</pdfrwt>
<totfact> 0.14827752E+00</totfact>
</mgrwt>
</event>
<event>
 6    1  0.3695885E-003  0.6592205E+03  0.7818608E-02  0.9789630E-01
          1   -1    0    0  502    0  0.00000000000E+00  0.00000000000E+00  0.11006539051E+03  0.11006539051E+03  0.00000000000E+00 0.  1.
         13   -1    0    0    0    0 -0.00000000000E+00 -0.00000000000E+00 -0.10000000000E+04  0.10000000000E+04  0.00000000000E+00 0.  1.
    9000005    2    1    2  501    0  0.23783347715E+00  0.29417017973E-01 -0.89134587356E+03  0.11086339240E+04  0.65922048942E+03 0.  0.
         13    1    3    3    0    0  0.63441699625E+02 -0.32341650311E+03 -0.45415831925E+03  0.56114424409E+03  0.00000000000E+00 0.  1.
          1    1    3    3  501    0 -0.63203866147E+02  0.32344592013E+03 -0.43718755432E+03  0.54748967990E+03  0.00000000000E+00 0.  1.
         21    1    1    2  502  501 -0.23783347715E+00 -0.29417017973E-01  0.14112640692E+01  0.14314665197E+01  0.00000000000E+00 0.  1.
<mgrwt>
<rscale>  1 0.65922053E+03</rscale>
<asrwt>0</asrwt>
<pdfrwt beam="1">  1        1 0.40023863E+00 0.65922053E+03</pdfrwt>
<pdfrwt beam="2">0</pdfrwt>
<totfact> 0.13322736E+00</totfact>
</mgrwt>
</event>
<event>
 6    1  0.3695885E-003  0.6524934E+03  0.7818608E-02  0.9802112E-01
          1   -1    0    0  502    0  0.00000000000E+00  0.00000000000E+00  0.11349345399E+03  0.11349345399E+03  0.00000000000E+00 0.  1.
         13   -1    0    0    0    0 -0.00000000000E+00 -0.00000000000E+00 -0.10000000000E+04  0.10000000000E+04  0.00000000000E+00 0.  1.
    9000005    2    1    2  501    0 -0.23437500412E+00 -0.11652527625E-01 -0.89356092395E+03  0.11064351741E+04  0.65249338275E+03 0.  0.
         13    1    3    3    0    0  0.72926156825E+02  0.14095713244E+03 -0.93003439407E+03  0.94347819884E+03  0.00000000000E+00 0.  1.
          3    1    3    3  501    0 -0.73160531829E+02 -0.14096878497E+03  0.36473470119E+02  0.16295697523E+03  0.00000000000E+00 0.  1.
         21    1    1    2  502  501  0.23437500412E+00  0.11652527625E-01  0.70543779383E+01  0.70582799265E+01  0.00000000000E+00 0.  1.
<mgrwt>
<rscale>  1 0.65249342E+03</rscale>
<asrwt>0</asrwt>
<pdfrwt beam="1">  1        1 0.41270434E+00 0.65249342E+03</pdfrwt>
<pdfrwt beam="2">0</pdfrwt>
<totfact> 0.11732070E+00</totfact>
</mgrwt>
</event>
<event>
 6    1  0.3695885E-003  0.6533042E+03  0.7818608E-02  0.9800599E-01
          1   -1    0    0  502    0  0.00000000000E+00  0.00000000000E+00  0.11388764249E+03  0.11388764249E+03  0.00000000000E+00 0.  1.
         13   -1    0    0    0    0 -0.00000000000E+00 -0.00000000000E+00 -0.10000000000E+04  0.10000000000E+04  0.00000000000E+00 0.  1.
    9000005    2    1    2  501    0 -0.20010711791E+02 -0.63105732765E+01 -0.86633041890E+03  0.10850505654E+04  0.65296713759E+03 0.  0.
         13    1    3    3    0    0  0.15631147612E+03 -0.22693360591E+03 -0.71143819739E+03  0.76293934736E+03  0.00000000000E+00 0.  1.
          1    1    3    3  501    0 -0.17632218791E+03  0.22062303263E+03 -0.15489222151E+03  0.32211121800E+03  0.00000000000E+00 0.  1.
         21    1    1    2  502  501  0.20010711791E+02  0.63105732765E+01 -0.19781938616E+02  0.28837077121E+02  0.00000000000E+00 0. -1.
<mgrwt>
<rscale>  1 0.65330417E+03</rscale>
<asrwt>0</asrwt>
<pdfrwt beam="1">  1        1 0.41413776E+00 0.65330417E+03</pdfrwt>
<pdfrwt beam="2">0</pdfrwt>
<totfact> 0.11557581E+00</totfact>
</mgrwt>
</event>
<event>
 6    1  0.3695885E-003  0.6746415E+03  0.7818608E-02  0.9761609E-01
          1   -1    0    0  502    0  0.00000000000E+00  0.00000000000E+00  0.11384991285E+03  0.11384991285E+03  0.00000000000E+00 0.  1.
         13   -1    0    0    0    0 -0.00000000000E+00 -0.00000000000E+00 -0.10000000000E+04  0.10000000000E+04  0.00000000000E+00 0.  1.
    9000005    2    1    2  501    0  0.28324276109E-02 -0.11636110719E-02 -0.88621467037E+03  0.11137852571E+04  0.67464150250E+03 0.  0.
         13    1    3    3    0    0 -0.15421885289E+03  0.21849812475E+03 -0.10372174084E+03  0.28685028260E+03  0.00000000000E+00 0.  1.
          1    1    3    3  501    0  0.15422168532E+03 -0.21849928837E+03 -0.78249292953E+03  0.82693497447E+03  0.00000000000E+00 0.  1.
         21    1    1    2  502  501 -0.28324276109E-02  0.11636110720E-02  0.64583219356E-01  0.64655772049E-01  0.00000000000E+00 0.  1.
<mgrwt>
<rscale>  1 0.67464150E+03</rscale>
<asrwt>0</asrwt>
<pdfrwt beam="1">  1        1 0.41400056E+00 0.67464150E+03</pdfrwt>
<pdfrwt beam="2">0</pdfrwt>
<totfact> 0.11526709E+00</totfact>
</mgrwt>
</event>
<event>
 6    1  0.3695885E-003  0.5815835E+03  0.7818608E-02  0.9944369E-01
          1   -1    0    0  502    0  0.00000000000E+00  0.00000000000E+00  0.84567847890E+02  0.84567847890E+02  0.00000000000E+00 0.  1.
         13   -1    0    0    0    0 -0.00000000000E+00 -0.00000000000E+00 -0.10000000000E+04  0.10000000000E+04  0.00000000000E+00 0.  1.
    9000005    2    1    2  501    0 -0.12690622060E-01 -0.12169171656E-02 -0.91543432569E+03  0.10845549151E+04  0.58158349274E+03 0.  0.
         13    1    3    3    0    0  0.47085777753E+02 -0.27308306701E+03 -0.29335571224E+03  0.40354554372E+03  0.00000000000E+00 0.  1.
          3    1    3    3  501    0 -0.47098468375E+02  0.27308185010E+03 -0.62207861345E+03  0.68100937137E+03  0.00000000000E+00 0.  1.
         21    1    1    2  502  501  0.12690622060E-01  0.12169171655E-02  0.21735830982E-02  0.12932797034E-01  0.00000000000E+00 0. -1.
<mgrwt>
<rscale>  1 0.58158349E+03</rscale>
<asrwt>0</asrwt>
<pdfrwt beam="1">  1        1 0.30752010E+00 0.58158349E+03</pdfrwt>
<pdfrwt beam="2">0</pdfrwt>
<totfact> 0.34354058E+00</totfact>
</mgrwt>
</event>
<event>
 6    1  0.3695885E-003  0.6559777E+03  0.7818608E-02  0.9795627E-01
          1   -1    0    0  502    0  0.00000000000E+00  0.00000000000E+00  0.10968176826E+03  0.10968176826E+03  0.00000000000E+00 0.  1.
         13   -1    0    0    0    0 -0.00000000000E+00 -0.00000000000E+00 -0.10000000000E+04  0.10000000000E+04  0.00000000000E+00 0.  1.
    9000005    2    1    2  501    0  0.56320924446E+01  0.22310103017E+01 -0.88511166453E+03  0.11016938890E+04  0.65594974548E+03 0.  0.
         13    1    3    3    0    0  0.47953225021E+02  0.32592027496E+03 -0.45439674679E+03  0.56124855538E+03  0.00000000000E+00 0.  1.
          1    1    3    3  501    0 -0.42321132576E+02 -0.32368926466E+03 -0.43071491774E+03  0.54044533367E+03  0.00000000000E+00 0.  1.
         21    1    1    2  502  501 -0.56320924446E+01 -0.22310103017E+01 -0.52065672041E+01  0.79878792130E+01  0.00000000000E+00 0. -1.
<mgrwt>
<rscale>  1 0.65597772E+03</rscale>
<asrwt>0</asrwt>
<pdfrwt beam="1">  1        1 0.39884363E+00 0.65597772E+03</pdfrwt>
<pdfrwt beam="2">0</pdfrwt>
<totfact> 0.13523107E+00</totfact>
</mgrwt>
</event>
<event>
 6    1  0.3695885E-003  0.6625428E+03  0.7818608E-02  0.9783524E-01
          1   -1    0    0  502    0  0.00000000000E+00  0.00000000000E+00  0.11143133093E+03  0.11143133093E+03  0.00000000000E+00 0.  1.
         13   -1    0    0    0    0 -0.00000000000E+00 -0.00000000000E+00 -0.10000000000E+04  0.10000000000E+04  0.00000000000E+00 0.  1.
    9000005    2    1    2  501    0 -0.50598228549E-01 -0.24095409227E-01 -0.89025874992E+03  0.11097403212E+04  0.66254278009E+03 0.  0.
         13    1    3    3    0    0 -0.21348524439E+03  0.16925605299E+02 -0.21781047084E+02  0.21525993520E+03  0.00000000000E+00 0.  1.
          1    1    3    3  501    0  0.21343464617E+03 -0.16949700708E+02 -0.86847770284E+03  0.89448038596E+03  0.00000000000E+00 0.  1.
         21    1    1    2  502  501  0.50598228549E-01  0.24095409227E-01  0.16900808514E+01  0.16910097734E+01  0.00000000000E+00 0. -1.
<mgrwt>
<rscale>  1 0.66254278E+03</rscale>
<asrwt>0</asrwt>
<pdfrwt beam="1">  1        1 0.40520569E+00 0.66254278E+03</pdfrwt>
<pdfrwt beam="2">0</pdfrwt>
<totfact> 0.12651440E+00</totfact>
</mgrwt>
</event>
<event>
 6    1  0.3695885E-003  0.6499257E+03  0.7818608E-02  0.9806919E-01
          1   -1    0    0  502    0  0.00000000000E+00  0.00000000000E+00  0.10991792964E+03  0.10991792964E+03  0.00000000000E+00 0.  1.
         13   -1    0    0    0    0 -0.00000000000E+00 -0.00000000000E+00 -0.10000000000E+04  0.10000000000E+04  0.00000000000E+00 0.  1.
    9000005    2    1    2  501    0  0.12701391118E+00  0.50360522594E-01 -0.89439796553E+03  0.11055998722E+04  0.64992564039E+03 0.  0.
         13    1    3    3    0    0 -0.12705917103E+03  0.29030728843E+03 -0.56959297435E+03  0.65181171444E+03  0.00000000000E+00 0.  1.
          3    1    3    3  501    0  0.12718618495E+03 -0.29025692791E+03 -0.32480499119E+03  0.45378815778E+03  0.00000000000E+00 0.  1.
         21    1    1    2  502  501 -0.12701391118E+00 -0.50360522594E-01  0.43158951727E+01  0.43180574171E+01  0.00000000000E+00 0. -1.
<mgrwt>
<rscale>  1 0.64992565E+03</rscale>
<asrwt>0</asrwt>
<pdfrwt beam="1">  1        1 0.39970241E+00 0.64992565E+03</pdfrwt>
<pdfrwt beam="2">0</pdfrwt>
<totfact> 0.13419841E+00</totfact>
</mgrwt>
</event>
<event>
 6    1  0.3695885E-003  0.6489473E+03  0.7818608E-02  0.9808756E-01
          1   -1    0    0  502    0  0.00000000000E+00  0.00000000000E+00  0.10528316983E+03  0.10528316983E+03  0.00000000000E+00 0.  1.
         13   -1    0    0    0    0 -0.00000000000E+00 -0.00000000000E+00 -0.10000000000E+04  0.10000000000E+04  0.00000000000E+00 0.  1.
    9000005    2    1    2  501    0 -0.46726994469E-05 -0.10236403341E-04 -0.89471684128E+03  0.11052831540E+04  0.64894732026E+03 0.  0.
         13    1    3    3    0    0  0.17465356991E+03  0.26697380710E+03 -0.54818216418E+03  0.63425749368E+03  0.00000000000E+00 0.  1.
          3    1    3    3  501    0 -0.17465357459E+03 -0.26697381734E+03 -0.34653467710E+03  0.47102566034E+03  0.00000000000E+00 0.  1.
         21    1    1    2  502  501  0.46726994412E-05  0.10236403312E-04  0.11117465583E-04  0.15818220943E-04  0.00000000000E+00 0.  1.
<mgrwt>
<rscale>  1 0.64894732E+03</rscale>
<asrwt>0</asrwt>
<pdfrwt beam="1">  1        1 0.38284870E+00 0.64894732E+03</pdfrwt>
<pdfrwt beam="2">0</pdfrwt>
<totfact> 0.15944360E+00</totfact>
</mgrwt>
</event>
<event>
 6    1  0.3695885E-003  0.6462892E+03  0.7818608E-02  0.9813767E-01
          1   -1    0    0  502    0  0.00000000000E+00  0.00000000000E+00  0.10462158946E+03  0.10462158946E+03  0.00000000000E+00 0.  1.
         13   -1    0    0    0    0 -0.00000000000E+00 -0.00000000000E+00 -0.10000000000E+04  0.10000000000E+04  0.00000000000E+00 0.  1.
    9000005    2    1    2  501    0  0.10002561083E+00  0.78354847530E-01 -0.89555493941E+03  0.11044040876E+04  0.64628919464E+03 0.  0.
         13    1    3    3    0    0 -0.74640428069E+01 -0.16558700139E+03  0.26232043078E+02  0.16781801765E+03  0.00000000000E+00 0.  1.
          3    1    3    3  501    0  0.75640684177E+01  0.16566535623E+03 -0.92178698249E+03  0.93658606998E+03  0.00000000000E+00 0.  1.
         21    1    1    2  502  501 -0.10002561083E+00 -0.78354847530E-01  0.17652887077E+00  0.21750183257E+00  0.00000000000E+00 0. -1.
<mgrwt>
<rscale>  1 0.64628921E+03</rscale>
<asrwt>0</asrwt>
<pdfrwt beam="1">  1        1 0.38044295E+00 0.64628921E+03</pdfrwt>
<pdfrwt beam="2">0</pdfrwt>
<totfact> 0.16347182E+00</totfact>
</mgrwt>
</event>
<event>
 6    1  0.3695885E-003  0.6506412E+03  0.7818608E-02  0.9805577E-01
          1   -1    0    0  502    0  0.00000000000E+00  0.00000000000E+00  0.10584092091E+03  0.10584092091E+03  0.00000000000E+00 0.  1.
         13   -1    0    0    0    0 -0.00000000000E+00 -0.00000000000E+00 -0.10000000000E+04  0.10000000000E+04  0.00000000000E+00 0.  1.
    9000005    2    1    2  501    0  0.26205874942E-02  0.36300659324E-02 -0.89416576959E+03  0.11058328706E+04  0.65064115622E+03 0.  0.
         13    1    3    3    0    0 -0.63182283180E+02 -0.17102708256E+03  0.10836700407E+02  0.18264637404E+03  0.00000000000E+00 0.  1.
          3    1    3    3  501    0  0.63184903768E+02  0.17103071262E+03 -0.90500246999E+03  0.92318649655E+03  0.00000000000E+00 0.  1.
         21    1    1    2  502  501 -0.26205874942E-02 -0.36300659324E-02  0.66904926563E-02  0.80503136257E-02  0.00000000000E+00 0.  1.
<mgrwt>
<rscale>  1 0.65064116E+03</rscale>
<asrwt>0</asrwt>
<pdfrwt beam="1">  1        1 0.38487689E+00 0.65064116E+03</pdfrwt>
<pdfrwt beam="2">0</pdfrwt>
<totfact> 0.15613683E+00</totfact>
</mgrwt>
</event>
<event>
 6    1  0.3695885E-003  0.6580012E+03  0.7818608E-02  0.9791880E-01
          3   -1    0    0  502    0  0.00000000000E+00  0.00000000000E+00  0.11077175344E+03  0.11077175344E+03  0.00000000000E+00 0.  1.
         13   -1    0    0    0    0 -0.00000000000E+00 -0.00000000000E+00 -0.10000000000E+04  0.10000000000E+04  0.00000000000E+00 0.  1.
    9000005    2    1    2  501    0 -0.42020429085E+01  0.21461295715E+01 -0.88903294288E+03  0.11060493409E+04  0.65798427635E+03 0.  0.
         13    1    3    3    0    0 -0.21855776941E+01  0.13546977018E+03 -0.94987229590E+03  0.95948643237E+03  0.00000000000E+00 0.  1.
          3    1    3    3  501    0 -0.20164652144E+01 -0.13332364061E+03  0.60839353022E+02  0.14656290852E+03  0.00000000000E+00 0.  1.
         21    1    1    2  502  501  0.42020429085E+01 -0.21461295715E+01 -0.19530368287E+00  0.47224125478E+01  0.00000000000E+00 0.  1.
<mgrwt>
<rscale>  1 0.65800119E+03</rscale>
<asrwt>0</asrwt>
<pdfrwt beam="1">  1        3 0.40280723E+00 0.65800119E+03</pdfrwt>
<pdfrwt beam="2">0</pdfrwt>
<totfact> 0.57189175E-02</totfact>
</mgrwt>
</event>
<event>
 6    1  0.3695885E-003  0.6469743E+03  0.7818608E-02  0.9812473E-01
          1   -1    0    0  502    0  0.00000000000E+00  0.00000000000E+00  0.10464815109E+03  0.10464815109E+03  0.00000000000E+00 0.  1.
         13   -1    0    0    0    0 -0.00000000000E+00 -0.00000000000E+00 -0.10000000000E+04  0.10000000000E+04  0.00000000000E+00 0.  1.
    9000005    2    1    2  501    0 -0.34781703753E-02  0.30239626710E-03 -0.89535526223E+03  0.11046432685E+04  0.64697426919E+03 0.  0.
         13    1    3    3    0    0 -0.88149332128E+02 -0.29211461135E+03 -0.26423879662E+03  0.40363769963E+03  0.00000000000E+00 0.  1.
          1    1    3    3  501    0  0.88145853957E+02  0.29211491375E+03 -0.63111646561E+03  0.70100556886E+03  0.00000000000E+00 0.  1.
         21    1    1    2  502  501  0.34781703753E-02 -0.30239626707E-03  0.34133202535E-02  0.48826087100E-02  0.00000000000E+00 0. -1.
<mgrwt>
<rscale>  1 0.64697427E+03</rscale>
<asrwt>0</asrwt>
<pdfrwt beam="1">  1        1 0.38053953E+00 0.64697427E+03</pdfrwt>
<pdfrwt beam="2">0</pdfrwt>
<totfact> 0.16329088E+00</totfact>
</mgrwt>
</event>
<event>
 6    1  0.3695885E-003  0.6468727E+03  0.7818608E-02  0.9812665E-01
          1   -1    0    0  502    0  0.00000000000E+00  0.00000000000E+00  0.10461701805E+03  0.10461701805E+03  0.00000000000E+00 0.  1.
         13   -1    0    0    0    0 -0.00000000000E+00 -0.00000000000E+00 -0.10000000000E+04  0.10000000000E+04  0.00000000000E+00 0.  1.
    9000005    2    1    2  501    0 -0.17218170815E-03  0.11554642296E-03 -0.89538893876E+03  0.11046110576E+04  0.64687265902E+03 0.  0.
         13    1    3    3    0    0 -0.92848993331E+02 -0.23588819422E+03 -0.79069555684E+03  0.83033947235E+03  0.00000000000E+00 0.  1.
          1    1    3    3  501    0  0.92848821149E+02  0.23588830977E+03 -0.10469338192E+03  0.27427158528E+03  0.00000000000E+00 0.  1.
         21    1    1    2  502  501  0.17218170814E-03 -0.11554642297E-03  0.59568097414E-02  0.59604177548E-02  0.00000000000E+00 0. -1.
<mgrwt>
<rscale>  1 0.64687266E+03</rscale>
<asrwt>0</asrwt>
<pdfrwt beam="1">  1        1 0.38042632E+00 0.64687266E+03</pdfrwt>
<pdfrwt beam="2">0</pdfrwt>
<totfact> 0.16348190E+00</totfact>
</mgrwt>
</event>
<event>
 6    1  0.3695885E-003  0.6354470E+03  0.7818608E-02  0.9834477E-01
          1   -1    0    0  502    0  0.00000000000E+00  0.00000000000E+00  0.10318141645E+03  0.10318141645E+03  0.00000000000E+00 0.  1.
         13   -1    0    0    0    0 -0.00000000000E+00 -0.00000000000E+00 -0.10000000000E+04  0.10000000000E+04  0.00000000000E+00 0.  1.
    9000005    2    1    2  501    0 -0.72394415145E+00 -0.79573749394E+00 -0.89890831101E+03  0.11008310433E+04  0.63544604561E+03 0.  0.
         13    1    3    3    0    0 -0.26384300642E+03  0.17459760720E+03 -0.50160500781E+03  0.59304724966E+03  0.00000000000E+00 0.  1.
          1    1    3    3  501    0  0.26311906227E+03 -0.17539334469E+03 -0.39730330321E+03  0.50778379359E+03  0.00000000000E+00 0.  1.
         21    1    1    2  502  501  0.72394415145E+00  0.79573749394E+00  0.20897274607E+01  0.23503731945E+01  0.00000000000E+00 0. -1.
<mgrwt>
<rscale>  1 0.63544696E+03</rscale>
<asrwt>0</asrwt>
<pdfrwt beam="1">  1        1 0.37520594E+00 0.63544696E+03</pdfrwt>
<pdfrwt beam="2">0</pdfrwt>
<totfact> 0.17273909E+00</totfact>
</mgrwt>
</event>
<event>
 6    1  0.4558283E-003  0.6904352E+03  0.7818608E-02  0.9733731E-01
          1   -1    0    0  502    0  0.00000000000E+00  0.00000000000E+00  0.11917521989E+03  0.11917521989E+03  0.00000000000E+00 0.  1.
         13   -1    0    0    0    0 -0.00000000000E+00 -0.00000000000E+00 -0.10000000000E+04  0.10000000000E+04  0.00000000000E+00 0.  1.
    9000005    2    1    2  501    0 -0.49738743343E-04  0.31906665754E-06 -0.88082479553E+03  0.11191751678E+04  0.69043517858E+03 0.  0.
         13    1    3    3    0    0 -0.21807333300E+03  0.13673952641E+03 -0.67513346688E+02  0.26610473245E+03  0.00000000000E+00 0.  1.
          3    1    3    3  501    0  0.21807328326E+03 -0.13673952609E+03 -0.81331144885E+03  0.85307043536E+03  0.00000000000E+00 0.  1.
         21    1    1    2  502  501  0.49738743348E-04 -0.31906664136E-06  0.15419202474E-04  0.52074909489E-04  0.00000000000E+00 0.  1.
<mgrwt>
<rscale>  1 0.69043518E+03</rscale>
<asrwt>0</asrwt>
<pdfrwt beam="1">  1        1 0.43336535E+00 0.69043518E+03</pdfrwt>
<pdfrwt beam="2">0</pdfrwt>
<totfact> 0.93918652E-01</totfact>
</mgrwt>
</event>
<event>
 6    1  0.3695885E-003  0.6465548E+03  0.7818608E-02  0.9813265E-01
          1   -1    0    0  502    0  0.00000000000E+00  0.00000000000E+00  0.10450828075E+03  0.10450828075E+03  0.00000000000E+00 0.  1.
         13   -1    0    0    0    0 -0.00000000000E+00 -0.00000000000E+00 -0.10000000000E+04  0.10000000000E+04  0.00000000000E+00 0.  1.
    9000005    2    1    2  501    0 -0.56590235715E-05  0.65682144736E-05 -0.89549171865E+03  0.11045082721E+04  0.64655479649E+03 0.  0.
         13    1    3    3    0    0  0.10801582123E+03 -0.98874185355E+02  0.44601967980E+02  0.15307794653E+03  0.00000000000E+00 0.  1.
          3    1    3    3  501    0 -0.10801582689E+03  0.98874191923E+02 -0.94009368663E+03  0.95143032553E+03  0.00000000000E+00 0.  1.
         21    1    1    2  502  501  0.56590235717E-05 -0.65682144755E-05 -0.60071875651E-06  0.86906186319E-05  0.00000000000E+00 0. -1.
<mgrwt>
<rscale>  1 0.64655480E+03</rscale>
<asrwt>0</asrwt>
<pdfrwt beam="1">  1        1 0.38003091E+00 0.64655480E+03</pdfrwt>
<pdfrwt beam="2">0</pdfrwt>
<totfact> 0.16414962E+00</totfact>
</mgrwt>
</event>
<event>
 6    1  0.3695885E-003  0.6490732E+03  0.7818608E-02  0.9808520E-01
          1   -1    0    0  502    0  0.00000000000E+00  0.00000000000E+00  0.10583454642E+03  0.10583454642E+03  0.00000000000E+00 0.  1.
         13   -1    0    0    0    0 -0.00000000000E+00 -0.00000000000E+00 -0.10000000000E+04  0.10000000000E+04  0.00000000000E+00 0.  1.
    9000005    2    1    2  501    0  0.85343011971E+00 -0.29413841586E+00 -0.89419099458E+03  0.11049314890E+04  0.64907260435E+03 0.  0.
         13    1    3    3    0    0 -0.20090565921E+03  0.21114104460E+03 -0.68822396652E+03  0.74739270314E+03  0.00000000000E+00 0.  1.
          3    1    3    3  501    0  0.20175908933E+03 -0.21143518301E+03 -0.20596702806E+03  0.35753878585E+03  0.00000000000E+00 0.  1.
         21    1    1    2  502  501 -0.85343011971E+00  0.29413841586E+00  0.25541007720E-01  0.90305742896E+00  0.00000000000E+00 0.  1.
<mgrwt>
<rscale>  1 0.64907323E+03</rscale>
<asrwt>0</asrwt>
<pdfrwt beam="1">  1        1 0.38485371E+00 0.64907323E+03</pdfrwt>
<pdfrwt beam="2">0</pdfrwt>
<totfact> 0.15621894E+00</totfact>
</mgrwt>
</event>
<event>
 6    1  0.3695885E-003  0.6825412E+03  0.7818608E-02  0.9747564E-01
          1   -1    0    0  502    0  0.00000000000E+00  0.00000000000E+00  0.15172756201E+03  0.15172756201E+03  0.00000000000E+00 0.  1.
         13   -1    0    0    0    0 -0.00000000000E+00 -0.00000000000E+00 -0.10000000000E+04  0.10000000000E+04  0.00000000000E+00 0.  1.
    9000005    2    1    2  501    0  0.61318772615E+02 -0.73223279081E+02 -0.76246442173E+03  0.10233349760E+04  0.67582604147E+03 0.  0.
         13    1    3    3    0    0 -0.14996151468E+03  0.17703917827E+03 -0.62763463561E+03  0.66914614423E+03  0.00000000000E+00 0.  1.
          1    1    3    3  501    0  0.21128028729E+03 -0.25026245735E+03 -0.13482978612E+03  0.35418883181E+03  0.00000000000E+00 0.  1.
         21    1    1    2  502  501 -0.61318772615E+02  0.73223279081E+02 -0.85808016266E+02  0.12839258596E+03  0.00000000000E+00 0.  1.
<mgrwt>
<rscale>  1 0.68254119E+03</rscale>
<asrwt>0</asrwt>
<pdfrwt beam="1">  1        1 0.55173775E+00 0.68254119E+03</pdfrwt>
<pdfrwt beam="2">0</pdfrwt>
<totfact> 0.25453872E-01</totfact>
</mgrwt>
</event>
<event>
 6    1  0.3695885E-003  0.6678630E+03  0.7818608E-02  0.9773826E-01
          1   -1    0    0  502    0  0.00000000000E+00  0.00000000000E+00  0.11388227109E+03  0.11388227109E+03  0.00000000000E+00 0.  1.
         13   -1    0    0    0    0 -0.00000000000E+00 -0.00000000000E+00 -0.10000000000E+04  0.10000000000E+04  0.00000000000E+00 0.  1.
    9000005    2    1    2  501    0  0.21651047997E-01 -0.37943636910E-01 -0.88848954404E+03  0.11115100537E+04  0.66786295572E+03 0.  0.
         13    1    3    3    0    0 -0.30507517562E+03  0.13572782623E+03 -0.44814952566E+03  0.55886572890E+03  0.00000000000E+00 0.  1.
          3    1    3    3  501    0  0.30509682667E+03 -0.13576576987E+03 -0.44034001838E+03  0.55264432477E+03  0.00000000000E+00 0.  1.
         21    1    1    2  502  501 -0.21651047997E-01  0.37943636910E-01  0.23718151283E+01  0.23722174206E+01  0.00000000000E+00 0. -1.
<mgrwt>
<rscale>  1 0.66786296E+03</rscale>
<asrwt>0</asrwt>
<pdfrwt beam="1">  1        1 0.41411822E+00 0.66786296E+03</pdfrwt>
<pdfrwt beam="2">0</pdfrwt>
<totfact> 0.11527518E+00</totfact>
</mgrwt>
</event>
<event>
 6    1  0.3695885E-003  0.6584377E+03  0.7818608E-02  0.9791074E-01
          1   -1    0    0  502    0  0.00000000000E+00  0.00000000000E+00  0.10859736576E+03  0.10859736576E+03  0.00000000000E+00 0.  1.
         13   -1    0    0    0    0 -0.00000000000E+00 -0.00000000000E+00 -0.10000000000E+04  0.10000000000E+04  0.00000000000E+00 0.  1.
    9000005    2    1    2  501    0  0.17517410083E-02  0.25727485236E-02 -0.89161492026E+03  0.11083850569E+04  0.65843774830E+03 0.  0.
         13    1    3    3    0    0  0.76164300197E+02 -0.32669980061E+02 -0.98215335114E+03  0.98564371523E+03  0.00000000000E+00 0.  1.
          3    1    3    3  501    0 -0.76162548456E+02  0.32672552810E+02  0.90538430883E+02  0.12274134170E+03  0.00000000000E+00 0.  1.
         21    1    1    2  502  501 -0.17517410083E-02 -0.25727485236E-02  0.21228601337E+00  0.21230882955E+00  0.00000000000E+00 0. -1.
<mgrwt>
<rscale>  1 0.65843775E+03</rscale>
<asrwt>0</asrwt>
<pdfrwt beam="1">  1        1 0.39490034E+00 0.65843775E+03</pdfrwt>
<pdfrwt beam="2">0</pdfrwt>
<totfact> 0.14074328E+00</totfact>
</mgrwt>
</event>
<event>
 6    1  0.3695885E-003  0.7547168E+03  0.7818608E-02  0.9627979E-01
          1   -1    0    0  502    0  0.00000000000E+00  0.00000000000E+00  0.14240606984E+03  0.14240606984E+03  0.00000000000E+00 0.  1.
         13   -1    0    0    0    0 -0.00000000000E+00 -0.00000000000E+00 -0.10000000000E+04  0.10000000000E+04  0.00000000000E+00 0.  1.
    9000005    2    1    2  501    0 -0.17056407030E-01 -0.13353594100E-02 -0.85758124119E+03  0.11423847693E+04  0.75471675185E+03 0.  0.
         13    1    3    3    0    0 -0.29972457113E+03 -0.19395639030E+03 -0.24371812754E+03  0.43226430060E+03  0.00000000000E+00 0.  1.
          3    1    3    3  501    0  0.29970751473E+03  0.19395505494E+03 -0.61386311365E+03  0.71012046867E+03  0.00000000000E+00 0.  1.
         21    1    1    2  502  501  0.17056407030E-01  0.13353594100E-02 -0.12688976489E-01  0.21300571116E-01  0.00000000000E+00 0.  1.
<mgrwt>
<rscale>  1 0.75471675E+03</rscale>
<asrwt>0</asrwt>
<pdfrwt beam="1">  1        1 0.51784135E+00 0.75471675E+03</pdfrwt>
<pdfrwt beam="2">0</pdfrwt>
<totfact> 0.37033436E-01</totfact>
</mgrwt>
</event>
<event>
 6    1  0.3695885E-003  0.6399422E+03  0.7818608E-02  0.9825837E-01
          1   -1    0    0  502    0  0.00000000000E+00  0.00000000000E+00  0.10334393738E+03  0.10334393738E+03  0.00000000000E+00 0.  1.
         13   -1    0    0    0    0 -0.00000000000E+00 -0.00000000000E+00 -0.10000000000E+04  0.10000000000E+04  0.00000000000E+00 0.  1.
    9000005    2    1    2  501    0 -0.73201032093E-02  0.28753431014E-01 -0.89761825104E+03  0.11023812916E+04  0.63994217440E+03 0.  0.
         13    1    3    3    0    0 -0.12366517964E+03  0.28499890062E+03 -0.58084505518E+03  0.65870966908E+03  0.00000000000E+00 0.  1.
          1    1    3    3  501    0  0.12365785953E+03 -0.28497014719E+03 -0.31677319586E+03  0.44367162252E+03  0.00000000000E+00 0.  1.
         21    1    1    2  502  501  0.73201032093E-02 -0.28753431014E-01  0.96218842226E+00  0.96264578306E+00  0.00000000000E+00 0.  1.
<mgrwt>
<rscale>  1 0.63994218E+03</rscale>
<asrwt>0</asrwt>
<pdfrwt beam="1">  1        1 0.37579693E+00 0.63994218E+03</pdfrwt>
<pdfrwt beam="2">0</pdfrwt>
<totfact> 0.17156526E+00</totfact>
</mgrwt>
</event>
<event>
 6    1  0.3695885E-003  0.6489922E+03  0.7818608E-02  0.9808672E-01
          1   -1    0    0  502    0  0.00000000000E+00  0.00000000000E+00  0.10533363639E+03  0.10533363639E+03  0.00000000000E+00 0.  1.
         13   -1    0    0    0    0 -0.00000000000E+00 -0.00000000000E+00 -0.10000000000E+04  0.10000000000E+04  0.00000000000E+00 0.  1.
    9000005    2    1    2  501    0  0.34270480212E-01  0.10803684943E-01 -0.89469209091E+03  0.11052894427E+04  0.64899215202E+03 0.  0.
         13    1    3    3    0    0 -0.24384244742E+03  0.14494541570E+03 -0.71565604520E+03  0.76982588144E+03  0.00000000000E+00 0.  1.
          3    1    3    3  501    0  0.24387671790E+03 -0.14493461202E+03 -0.17903604571E+03  0.33546356129E+03  0.00000000000E+00 0.  1.
         21    1    1    2  502  501 -0.34270480212E-01 -0.10803684943E-01  0.25727297595E-01  0.44193656375E-01  0.00000000000E+00 0. -1.
<mgrwt>
<rscale>  1 0.64899215E+03</rscale>
<asrwt>0</asrwt>
<pdfrwt beam="1">  1        1 0.38303221E+00 0.64899215E+03</pdfrwt>
<pdfrwt beam="2">0</pdfrwt>
<totfact> 0.15914486E+00</totfact>
</mgrwt>
</event>
<event>
 6    1  0.3695885E-003  0.6557535E+03  0.7818608E-02  0.9796043E-01
          1   -1    0    0  502    0  0.00000000000E+00  0.00000000000E+00  0.10769229041E+03  0.10769229041E+03  0.00000000000E+00 0.  1.
         13   -1    0    0    0    0 -0.00000000000E+00 -0.00000000000E+00 -0.10000000000E+04  0.10000000000E+04  0.00000000000E+00 0.  1.
    9000005    2    1    2  501    0  0.62731349003E-02  0.24697754878E-02 -0.89249676992E+03  0.11075031099E+04  0.65575350101E+03 0.  0.
         13    1    3    3    0    0  0.32997404246E+02  0.43937914909E+02  0.99671532322E+02  0.11381468890E+03  0.00000000000E+00 0.  1.
          1    1    3    3  501    0 -0.32991131111E+02 -0.43935445133E+02 -0.99216830225E+03  0.99368842101E+03  0.00000000000E+00 0.  1.
         21    1    1    2  502  501 -0.62731349003E-02 -0.24697754878E-02  0.18906033521E+00  0.18918050207E+00  0.00000000000E+00 0.  1.
<mgrwt>
<rscale>  1 0.65575350E+03</rscale>
<asrwt>0</asrwt>
<pdfrwt beam="1">  1        1 0.39160915E+00 0.65575350E+03</pdfrwt>
<pdfrwt beam="2">0</pdfrwt>
<totfact> 0.14563496E+00</totfact>
</mgrwt>
</event>
<event>
 6    1  0.3695885E-003  0.6427171E+03  0.7818608E-02  0.9820542E-01
          1   -1    0    0  502    0  0.00000000000E+00  0.00000000000E+00  0.10634044143E+03  0.10634044143E+03  0.00000000000E+00 0.  1.
         13   -1    0    0    0    0 -0.00000000000E+00 -0.00000000000E+00 -0.10000000000E+04  0.10000000000E+04  0.00000000000E+00 0.  1.
    9000005    2    1    2  501    0 -0.33640953988E+01  0.82988721757E+01 -0.88592162470E+03  0.10945055761E+04  0.64265476156E+03 0.  0.
         13    1    3    3    0    0  0.31948794351E+02 -0.28654113381E+03 -0.66368679745E+03  0.72360673845E+03  0.00000000000E+00 0.  1.
          1    1    3    3  501    0 -0.35312889750E+02  0.29484000599E+03 -0.22223482725E+03  0.37089883763E+03  0.00000000000E+00 0.  1.
         21    1    1    2  502  501  0.33640953988E+01 -0.82988721757E+01 -0.77379338677E+01  0.11834865347E+02  0.00000000000E+00 0.  1.
<mgrwt>
<rscale>  1 0.64271715E+03</rscale>
<asrwt>0</asrwt>
<pdfrwt beam="1">  1        1 0.38669333E+00 0.64271715E+03</pdfrwt>
<pdfrwt beam="2">0</pdfrwt>
<totfact> 0.15350006E+00</totfact>
</mgrwt>
</event>
<event>
 6    1  0.3695885E-003  0.6673263E+03  0.7818608E-02  0.9774800E-01
          1   -1    0    0  502    0  0.00000000000E+00  0.00000000000E+00  0.11133260612E+03  0.11133260612E+03  0.00000000000E+00 0.  1.
         13   -1    0    0    0    0 -0.00000000000E+00 -0.00000000000E+00 -0.10000000000E+04  0.10000000000E+04  0.00000000000E+00 0.  1.
    9000005    2    1    2  501    0 -0.22743344574E-03 -0.97273304078E-04 -0.88866887619E+03  0.11113311033E+04  0.66732634421E+03 0.  0.
         13    1    3    3    0    0 -0.14920456338E+02 -0.15440555870E+03 -0.93629618566E+03  0.94905966296E+03  0.00000000000E+00 0.  1.
          1    1    3    3  501    0  0.14920228905E+02  0.15440546143E+03  0.47627309466E+02  0.16227144036E+03  0.00000000000E+00 0.  1.
         21    1    1    2  502  501  0.22743344574E-03  0.97273304066E-04  0.14823147316E-02  0.15028123740E-02  0.00000000000E+00 0.  1.
<mgrwt>
<rscale>  1 0.66732634E+03</rscale>
<asrwt>0</asrwt>
<pdfrwt beam="1">  1        1 0.40484669E+00 0.66732634E+03</pdfrwt>
<pdfrwt beam="2">0</pdfrwt>
<totfact> 0.12686858E+00</totfact>
</mgrwt>
</event>
<event>
 6    1  0.3695885E-003  0.6536122E+03  0.7818608E-02  0.9800025E-01
          1   -1    0    0  502    0  0.00000000000E+00  0.00000000000E+00  0.10684389553E+03  0.10684389553E+03  0.00000000000E+00 0.  1.
         13   -1    0    0    0    0 -0.00000000000E+00 -0.00000000000E+00 -0.10000000000E+04  0.10000000000E+04  0.00000000000E+00 0.  1.
    9000005    2    1    2  501    0 -0.33645898668E-04  0.94640694027E-03 -0.89319776858E+03  0.11068022207E+04  0.65361219530E+03 0.  0.
         13    1    3    3    0    0  0.19514397167E+03 -0.18025059872E+03 -0.76891880001E+03  0.81351556163E+03  0.00000000000E+00 0.  1.
          1    1    3    3  501    0 -0.19514400532E+03  0.18025154512E+03 -0.12427896858E+03  0.29328665902E+03  0.00000000000E+00 0.  1.
         21    1    1    2  502  501  0.33645898673E-04 -0.94640694028E-03  0.41664109017E-01  0.41674870105E-01  0.00000000000E+00 0.  1.
<mgrwt>
<rscale>  1 0.65361220E+03</rscale>
<asrwt>0</asrwt>
<pdfrwt beam="1">  1        1 0.38852408E+00 0.65361220E+03</pdfrwt>
<pdfrwt beam="2">0</pdfrwt>
<totfact> 0.15035581E+00</totfact>
</mgrwt>
</event>
<event>
 6    1  0.3695885E-003  0.6543063E+03  0.7818608E-02  0.9798732E-01
          1   -1    0    0  502    0  0.00000000000E+00  0.00000000000E+00  0.10702944730E+03  0.10702944730E+03  0.00000000000E+00 0.  1.
         13   -1    0    0    0    0 -0.00000000000E+00 -0.00000000000E+00 -0.10000000000E+04  0.10000000000E+04  0.00000000000E+00 0.  1.
    9000005    2    1    2  501    0  0.99743345110E-04 -0.67197817674E-03 -0.89297023756E+03  0.11070286984E+04  0.65430626925E+03 0.  0.
         13    1    3    3    0    0 -0.48947752020E+02  0.28577312306E+03 -0.70289071555E+03  0.76034039633E+03  0.00000000000E+00 0.  1.
          1    1    3    3  501    0  0.48947851763E+02 -0.28577379504E+03 -0.19007952201E+03  0.34668830210E+03  0.00000000000E+00 0.  1.
         21    1    1    2  502  501 -0.99743345107E-04  0.67197817677E-03 -0.31513817363E-03  0.74887614025E-03  0.00000000000E+00 0.  1.
<mgrwt>
<rscale>  1 0.65430627E+03</rscale>
<asrwt>0</asrwt>
<pdfrwt beam="1">  1        1 0.38919881E+00 0.65430627E+03</pdfrwt>
<pdfrwt beam="2">0</pdfrwt>
<totfact> 0.14930483E+00</totfact>
</mgrwt>
</event>
<event>
 6    1  0.3695885E-003  0.4739870E+03  0.7818608E-02  0.1020801E+00
          3   -1    0    0  502    0  0.00000000000E+00  0.00000000000E+00  0.72106159875E+02  0.72106159875E+02  0.00000000000E+00 0.  1.
         13   -1    0    0    0    0 -0.00000000000E+00 -0.00000000000E+00 -0.10000000000E+04  0.10000000000E+04  0.00000000000E+00 0.  1.
    9000005    2    1    2  501    0  0.97921271369E+00  0.38425428887E+00 -0.94381574652E+03  0.10561495433E+04  0.47398585206E+03 0.  0.
         13    1    3    3    0    0  0.88407880493E+02 -0.19294155700E+03 -0.23682564783E+03  0.31800752385E+03  0.00000000000E+00 0.  1.
          1    1    3    3  501    0 -0.87428667780E+02  0.19332581129E+03 -0.70699009868E+03  0.73814201947E+03  0.00000000000E+00 0.  1.
         21    1    1    2  502  501 -0.97921271369E+00 -0.38425428887E+00  0.15921906393E+02  0.15956616561E+02  0.00000000000E+00 0. -1.
<mgrwt>
<rscale>  1 0.47398702E+03</rscale>
<asrwt>0</asrwt>
<pdfrwt beam="1">  1        3 0.26220477E+00 0.47398702E+03</pdfrwt>
<pdfrwt beam="2">0</pdfrwt>
<totfact> 0.33364339E-01</totfact>
</mgrwt>
</event>
<event>
 6    1  0.3695885E-003  0.6520801E+03  0.7818608E-02  0.9802884E-01
          1   -1    0    0  502    0  0.00000000000E+00  0.00000000000E+00  0.10630400283E+03  0.10630400283E+03  0.00000000000E+00 0.  1.
         13   -1    0    0    0    0 -0.00000000000E+00 -0.00000000000E+00 -0.10000000000E+04  0.10000000000E+04  0.00000000000E+00 0.  1.
    9000005    2    1    2  501    0  0.11677111113E-02 -0.27636936616E-03 -0.89369767584E+03  0.11063019394E+04  0.65208009112E+03 0.  0.
         13    1    3    3    0    0 -0.68065141912E+02 -0.14637596675E+03 -0.92744135979E+03  0.94138528937E+03  0.00000000000E+00 0.  1.
          1    1    3    3  501    0  0.68066309623E+02  0.14637569039E+03  0.33743683946E+02  0.16491665000E+03  0.00000000000E+00 0.  1.
         21    1    1    2  502  501 -0.11677111113E-02  0.27636936617E-03  0.16786703396E-02  0.20634590801E-02  0.00000000000E+00 0.  1.
<mgrwt>
<rscale>  1 0.65208009E+03</rscale>
<asrwt>0</asrwt>
<pdfrwt beam="1">  1        1 0.38656083E+00 0.65208009E+03</pdfrwt>
<pdfrwt beam="2">0</pdfrwt>
<totfact> 0.15344003E+00</totfact>
</mgrwt>
</event>
<event>
 6    1  0.3695885E-003  0.6474033E+03  0.7818608E-02  0.9811664E-01
          1   -1    0    0  502    0  0.00000000000E+00  0.00000000000E+00  0.10591343346E+03  0.10591343346E+03  0.00000000000E+00 0.  1.
         13   -1    0    0    0    0 -0.00000000000E+00 -0.00000000000E+00 -0.10000000000E+04  0.10000000000E+04  0.00000000000E+00 0.  1.
    9000005    2    1    2  501    0 -0.10424315738E-01  0.71964800799E-01 -0.89521593539E+03  0.11047817261E+04  0.64740334105E+03 0.  0.
         13    1    3    3    0    0 -0.31493361607E+03 -0.31724201960E+01 -0.57523120445E+03  0.65580804001E+03  0.00000000000E+00 0.  1.
          1    1    3    3  501    0  0.31492319175E+03  0.32443849968E+01 -0.31998473095E+03  0.44897368606E+03  0.00000000000E+00 0.  1.
         21    1    1    2  502  501  0.10424315738E-01 -0.71964800799E-01  0.11293688508E+01  0.11317073827E+01  0.00000000000E+00 0. -1.
<mgrwt>
<rscale>  1 0.64740335E+03</rscale>
<asrwt>0</asrwt>
<pdfrwt beam="1">  1        1 0.38514057E+00 0.64740335E+03</pdfrwt>
<pdfrwt beam="2">0</pdfrwt>
<totfact> 0.15581140E+00</totfact>
</mgrwt>
</event>
<event>
 6    1  0.3695885E-003  0.6527981E+03  0.7818608E-02  0.9801543E-01
          1   -1    0    0  502    0  0.00000000000E+00  0.00000000000E+00  0.10757785977E+03  0.10757785977E+03  0.00000000000E+00 0.  1.
         13   -1    0    0    0    0 -0.00000000000E+00 -0.00000000000E+00 -0.10000000000E+04  0.10000000000E+04  0.00000000000E+00 0.  1.
    9000005    2    1    2  501    0 -0.74603227933E-01 -0.90629144004E+00 -0.89323935280E+03  0.11063552535E+04  0.65279750194E+03 0.  0.
         13    1    3    3    0    0 -0.15970028995E+03  0.24816488806E+03 -0.68121129906E+03  0.74238724952E+03  0.00000000000E+00 0.  1.
          3    1    3    3  501    0  0.15962568672E+03 -0.24907117950E+03 -0.21202805373E+03  0.36396800394E+03  0.00000000000E+00 0.  1.
         21    1    1    2  502  501  0.74603227933E-01  0.90629144004E+00  0.81721256155E+00  0.12226063089E+01  0.00000000000E+00 0. -1.
<mgrwt>
<rscale>  1 0.65279814E+03</rscale>
<asrwt>0</asrwt>
<pdfrwt beam="1">  1        1 0.39119304E+00 0.65279814E+03</pdfrwt>
<pdfrwt beam="2">0</pdfrwt>
<totfact> 0.14633597E+00</totfact>
</mgrwt>
</event>
<event>
 6    1  0.3695885E-003  0.5722871E+03  0.7818608E-02  0.9964630E-01
          1   -1    0    0  502    0  0.00000000000E+00  0.00000000000E+00  0.81879061527E+02  0.81879061527E+02  0.00000000000E+00 0.  1.
         13   -1    0    0    0    0 -0.00000000000E+00 -0.00000000000E+00 -0.10000000000E+04  0.10000000000E+04  0.00000000000E+00 0.  1.
    9000005    2    1    2  501    0 -0.12956575516E-02 -0.54584959663E-03 -0.91812127178E+03  0.10818776166E+04  0.57228708498E+03 0.  0.
         13    1    3    3    0    0  0.15319600660E+03  0.42553544592E+02 -0.90880368221E+03  0.92260715008E+03  0.00000000000E+00 0.  1.
          3    1    3    3  501    0 -0.15319730226E+03 -0.42554090442E+02 -0.93175895757E+01  0.15927046653E+03  0.00000000000E+00 0.  1.
         21    1    1    2  502  501  0.12956575516E-02  0.54584959663E-03  0.33330798623E-03  0.14449133146E-02  0.00000000000E+00 0. -1.
<mgrwt>
<rscale>  1 0.57228708E+03</rscale>
<asrwt>0</asrwt>
<pdfrwt beam="1">  1        1 0.29774267E+00 0.57228708E+03</pdfrwt>
<pdfrwt beam="2">0</pdfrwt>
<totfact> 0.37920602E+00</totfact>
</mgrwt>
</event>
<event>
 6    1  0.3695885E-003  0.6487182E+03  0.7818608E-02  0.9809187E-01
          1   -1    0    0  502    0  0.00000000000E+00  0.00000000000E+00  0.10531219298E+03  0.10531219298E+03  0.00000000000E+00 0.  1.
         13   -1    0    0    0    0 -0.00000000000E+00 -0.00000000000E+00 -0.10000000000E+04  0.10000000000E+04  0.00000000000E+00 0.  1.
    9000005    2    1    2  501    0  0.32564157834E-03 -0.14095271351E-02 -0.89479116895E+03  0.11052088209E+04  0.64871819908E+03 0.  0.
         13    1    3    3    0    0  0.27002502570E+03 -0.53460173731E+02 -0.15508934246E+03  0.31594969350E+03  0.00000000000E+00 0.  1.
          3    1    3    3  501    0 -0.27002470006E+03  0.53458764204E+02 -0.73970182649E+03  0.78925912742E+03  0.00000000000E+00 0.  1.
         21    1    1    2  502  501 -0.32564157834E-03  0.14095271351E-02  0.10336192712E+00  0.10337205031E+00  0.00000000000E+00 0.  1.
<mgrwt>
<rscale>  1 0.64871820E+03</rscale>
<asrwt>0</asrwt>
<pdfrwt beam="1">  1        1 0.38295424E+00 0.64871820E+03</pdfrwt>
<pdfrwt beam="2">0</pdfrwt>
<totfact> 0.15927921E+00</totfact>
</mgrwt>
</event>
<event>
 6    1  0.3695885E-003  0.6494137E+03  0.7818608E-02  0.9807880E-01
          1   -1    0    0  502    0  0.00000000000E+00  0.00000000000E+00  0.10543457791E+03  0.10543457791E+03  0.00000000000E+00 0.  1.
         13   -1    0    0    0    0 -0.00000000000E+00 -0.00000000000E+00 -0.10000000000E+04  0.10000000000E+04  0.00000000000E+00 0.  1.
    9000005    2    1    2  501    0 -0.28593163933E-04  0.45133653458E-04 -0.89456541643E+03  0.11054345242E+04  0.64941373790E+03 0.  0.
         13    1    3    3    0    0 -0.12587077194E+03 -0.67851364175E+02 -0.94351903128E+03  0.95429315267E+03  0.00000000000E+00 0.  1.
          3    1    3    3  501    0  0.12587074335E+03  0.67851409309E+02  0.48953614847E+02  0.15114137151E+03  0.00000000000E+00 0.  1.
         21    1    1    2  502  501  0.28593163930E-04 -0.45133653458E-04 -0.56596553468E-05  0.53727529225E-04  0.00000000000E+00 0. -1.
<mgrwt>
<rscale>  1 0.64941374E+03</rscale>
<asrwt>0</asrwt>
<pdfrwt beam="1">  1        1 0.38339927E+00 0.64941374E+03</pdfrwt>
<pdfrwt beam="2">0</pdfrwt>
<totfact> 0.15853922E+00</totfact>
</mgrwt>
</event>
<event>
 6    1  0.3695885E-003  0.6439244E+03  0.7818608E-02  0.9818247E-01
          1   -1    0    0  502    0  0.00000000000E+00  0.00000000000E+00  0.10366279500E+03  0.10366279500E+03  0.00000000000E+00 0.  1.
         13   -1    0    0    0    0 -0.00000000000E+00 -0.00000000000E+00 -0.10000000000E+04  0.10000000000E+04  0.00000000000E+00 0.  1.
    9000005    2    1    2  501    0 -0.39006544019E-02  0.34168181264E-03 -0.89633891718E+03  0.11036585214E+04  0.64392443459E+03 0.  0.
         13    1    3    3    0    0 -0.26101875905E+03 -0.16930231087E+03 -0.30614497350E+03  0.43648460436E+03  0.00000000000E+00 0.  1.
          1    1    3    3  501    0  0.26101485840E+03  0.16930265255E+03 -0.59019394368E+03  0.66717391707E+03  0.00000000000E+00 0.  1.
         21    1    1    2  502  501  0.39006544019E-02 -0.34168181266E-03  0.17121720381E-02  0.42735681008E-02  0.00000000000E+00 0. -1.
<mgrwt>
<rscale>  1 0.64392443E+03</rscale>
<asrwt>0</asrwt>
<pdfrwt beam="1">  1        1 0.37695641E+00 0.64392443E+03</pdfrwt>
<pdfrwt beam="2">0</pdfrwt>
<totfact> 0.16943579E+00</totfact>
</mgrwt>
</event>
<event>
 6    1  0.3695885E-003  0.6341115E+03  0.7818608E-02  0.9837058E-01
          1   -1    0    0  502    0  0.00000000000E+00  0.00000000000E+00  0.10055784196E+03  0.10055784196E+03  0.00000000000E+00 0.  1.
         13   -1    0    0    0    0 -0.00000000000E+00 -0.00000000000E+00 -0.10000000000E+04  0.10000000000E+04  0.00000000000E+00 0.  1.
    9000005    2    1    2  501    0  0.11987561519E-02 -0.34430703417E-02 -0.89947555171E+03  0.11005242499E+04  0.63411147001E+03 0.  0.
         13    1    3    3    0    0 -0.70058022877E+02  0.17900789483E+03 -0.12147737728E+02  0.19261235815E+03  0.00000000000E+00 0.  1.
          3    1    3    3  501    0  0.70059221633E+02 -0.17901133790E+03 -0.88732781398E+03  0.90791189171E+03  0.00000000000E+00 0.  1.
         21    1    1    2  502  501 -0.11987561519E-02  0.34430703417E-02  0.33393668922E-01  0.33592095406E-01  0.00000000000E+00 0. -1.
<mgrwt>
<rscale>  1 0.63411147E+03</rscale>
<asrwt>0</asrwt>
<pdfrwt beam="1">  1        1 0.36566565E+00 0.63411147E+03</pdfrwt>
<pdfrwt beam="2">0</pdfrwt>
<totfact> 0.19028284E+00</totfact>
</mgrwt>
</event>
<event>
 6    1  0.3695885E-003  0.6601242E+03  0.7818608E-02  0.9787965E-01
          1   -1    0    0  502    0  0.00000000000E+00  0.00000000000E+00  0.11456039783E+03  0.11456039783E+03  0.00000000000E+00 0.  1.
         13   -1    0    0    0    0 -0.00000000000E+00 -0.00000000000E+00 -0.10000000000E+04  0.10000000000E+04  0.00000000000E+00 0.  1.
    9000005    2    1    2  501    0 -0.81027827281E+01 -0.27491656255E+00 -0.88760618109E+03  0.11061684534E+04  0.66007437757E+03 0.  0.
         13    1    3    3    0    0  0.68641066396E+02 -0.28289647636E+03 -0.18485505159E+03  0.34483822646E+03  0.00000000000E+00 0.  1.
          3    1    3    3  501    0 -0.76743849124E+02  0.28262155979E+03 -0.70275112950E+03  0.76133022694E+03  0.00000000000E+00 0.  1.
         21    1    1    2  502  501  0.81027827281E+01  0.27491656255E+00  0.21665789257E+01  0.83919444288E+01  0.00000000000E+00 0.  1.
<mgrwt>
<rscale>  1 0.66012417E+03</rscale>
<asrwt>0</asrwt>
<pdfrwt beam="1">  1        1 0.41658414E+00 0.66012417E+03</pdfrwt>
<pdfrwt beam="2">0</pdfrwt>
<totfact> 0.11253498E+00</totfact>
</mgrwt>
</event>
<event>
 6    1  0.3695885E-003  0.4605568E+03  0.7818608E-02  0.1024620E+00
          1   -1    0    0  502    0  0.00000000000E+00  0.00000000000E+00  0.53033965170E+02  0.53033965170E+02  0.00000000000E+00 0.  1.
         13   -1    0    0    0    0 -0.00000000000E+00 -0.00000000000E+00 -0.10000000000E+04  0.10000000000E+04  0.00000000000E+00 0.  1.
    9000005    2    1    2  501    0 -0.85630625969E-03 -0.17688877729E-01 -0.94695532732E+03  0.10530132702E+04  0.46055678807E+03 0.  0.
         13    1    3    3    0    0  0.12030549781E+03 -0.15524028424E+03 -0.19857213765E+03  0.27929169788E+03  0.00000000000E+00 0.  1.
          1    1    3    3  501    0 -0.12030635412E+03  0.15522259536E+03 -0.74838318966E+03  0.77372157235E+03  0.00000000000E+00 0.  1.
         21    1    1    2  502  501  0.85630625969E-03  0.17688877729E-01 -0.10707513778E-01  0.20694939164E-01  0.00000000000E+00 0. -1.
<mgrwt>
<rscale>  1 0.46055679E+03</rscale>
<asrwt>0</asrwt>
<pdfrwt beam="1">  1        1 0.19285119E+00 0.46055679E+03</pdfrwt>
<pdfrwt beam="2">0</pdfrwt>
<totfact> 0.11149423E+01</totfact>
</mgrwt>
</event>
<event>
 6    1  0.3695885E-003  0.6679003E+03  0.7818608E-02  0.9773758E-01
          1   -1    0    0  502    0  0.00000000000E+00  0.00000000000E+00  0.11944657582E+03  0.11944657582E+03  0.00000000000E+00 0.  1.
         13   -1    0    0    0    0 -0.00000000000E+00 -0.00000000000E+00 -0.10000000000E+04  0.10000000000E+04  0.00000000000E+00 0.  1.
    9000005    2    1    2  501    0  0.67904033286E+01  0.11002386198E+02 -0.88209295954E+03  0.11064261208E+04  0.66777511894E+03 0.  0.
         13    1    3    3    0    0  0.30946123085E+03 -0.12782002832E+03 -0.43306521448E+03  0.54740267905E+03  0.00000000000E+00 0.  1.
          3    1    3    3  501    0 -0.30267082753E+03  0.13882241452E+03 -0.44902774506E+03  0.55902344176E+03  0.00000000000E+00 0.  1.
         21    1    1    2  502  501 -0.67904033286E+01 -0.11002386198E+02  0.15395353534E+01  0.13020455004E+02  0.00000000000E+00 0. -1.
<mgrwt>
<rscale>  1 0.66790027E+03</rscale>
<asrwt>0</asrwt>
<pdfrwt beam="1">  1        1 0.43435210E+00 0.66790027E+03</pdfrwt>
<pdfrwt beam="2">0</pdfrwt>
<totfact> 0.93361188E-01</totfact>
</mgrwt>
</event>
<event>
 6    1  0.3695885E-003  0.6591303E+03  0.7818608E-02  0.9789796E-01
          1   -1    0    0  502    0  0.00000000000E+00  0.00000000000E+00  0.10864495906E+03  0.10864495906E+03  0.00000000000E+00 0.  1.
         13   -1    0    0    0    0 -0.00000000000E+00 -0.00000000000E+00 -0.10000000000E+04  0.10000000000E+04  0.00000000000E+00 0.  1.
    9000005    2    1    2  501    0  0.42703580301E-01 -0.41866262518E-01 -0.89135184915E+03  0.11085850711E+04  0.65913028857E+03 0.  0.
         13    1    3    3    0    0  0.68591595466E+02  0.59138822900E+02  0.87276662713E+02  0.12577528850E+03  0.00000000000E+00 0.  1.
          3    1    3    3  501    0 -0.68548891886E+02 -0.59180689162E+02 -0.97862851186E+03  0.98280978260E+03  0.00000000000E+00 0.  1.
         21    1    1    2  502  501 -0.42703580301E-01  0.41866262518E-01 -0.31917967257E-02  0.59887956002E-01  0.00000000000E+00 0. -1.
<mgrwt>
<rscale>  1 0.65913029E+03</rscale>
<asrwt>0</asrwt>
<pdfrwt beam="1">  1        1 0.39507341E+00 0.65913029E+03</pdfrwt>
<pdfrwt beam="2">0</pdfrwt>
<totfact> 0.14047598E+00</totfact>
</mgrwt>
</event>
<event>
 6    1  0.3695885E-003  0.6544894E+03  0.7818608E-02  0.9798391E-01
          1   -1    0    0  502    0  0.00000000000E+00  0.00000000000E+00  0.10708977340E+03  0.10708977340E+03  0.00000000000E+00 0.  1.
         13   -1    0    0    0    0 -0.00000000000E+00 -0.00000000000E+00 -0.10000000000E+04  0.10000000000E+04  0.00000000000E+00 0.  1.
    9000005    2    1    2  501    0 -0.88568517891E-03  0.25511908477E-03 -0.89291055425E+03  0.11070887952E+04  0.65448937543E+03 0.  0.
         13    1    3    3    0    0 -0.48056067804E+02 -0.15641524871E+02  0.10044837202E+03  0.11244517951E+03  0.00000000000E+00 0.  1.
          1    1    3    3  501    0  0.48055182119E+02  0.15641779990E+02 -0.99335892628E+03  0.99464361569E+03  0.00000000000E+00 0.  1.
         21    1    1    2  502  501  0.88568517890E-03 -0.25511908477E-03  0.32765172728E-03  0.97820224797E-03  0.00000000000E+00 0.  1.
<mgrwt>
<rscale>  1 0.65448938E+03</rscale>
<asrwt>0</asrwt>
<pdfrwt beam="1">  1        1 0.38941818E+00 0.65448938E+03</pdfrwt>
<pdfrwt beam="2">0</pdfrwt>
<totfact> 0.14896582E+00</totfact>
</mgrwt>
</event>
<event>
 6    1  0.3695885E-003  0.6539876E+03  0.7818608E-02  0.9799325E-01
          1   -1    0    0  502    0  0.00000000000E+00  0.00000000000E+00  0.10692496494E+03  0.10692496494E+03  0.00000000000E+00 0.  1.
         13   -1    0    0    0    0 -0.00000000000E+00 -0.00000000000E+00 -0.10000000000E+04  0.10000000000E+04  0.00000000000E+00 0.  1.
    9000005    2    1    2  501    0  0.33742390713E-05 -0.76474162825E-05 -0.89307503791E+03  0.11069249561E+04  0.65398764141E+03 0.  0.
         13    1    3    3    0    0  0.11958458818E+03  0.29451176781E+03 -0.57640690133E+03  0.65824203072E+03  0.00000000000E+00 0.  1.
          1    1    3    3  501    0 -0.11958458481E+03 -0.29451177546E+03 -0.31666813658E+03  0.44868292539E+03  0.00000000000E+00 0.  1.
         21    1    1    2  502  501 -0.33742390634E-05  0.76474162982E-05  0.28519329125E-05  0.88318733365E-05  0.00000000000E+00 0.  1.
<mgrwt>
<rscale>  1 0.65398764E+03</rscale>
<asrwt>0</asrwt>
<pdfrwt beam="1">  1        1 0.38881887E+00 0.65398764E+03</pdfrwt>
<pdfrwt beam="2">0</pdfrwt>
<totfact> 0.14989376E+00</totfact>
</mgrwt>
</event>
<event>
 6    1  0.3695885E-003  0.6443296E+03  0.7818608E-02  0.9817478E-01
          3   -1    0    0  502    0  0.00000000000E+00  0.00000000000E+00  0.10379084035E+03  0.10379084035E+03  0.00000000000E+00 0.  1.
         13   -1    0    0    0    0 -0.00000000000E+00 -0.00000000000E+00 -0.10000000000E+04  0.10000000000E+04  0.00000000000E+00 0.  1.
    9000005    2    1    2  501    0 -0.63823493298E-03  0.83059649592E-03 -0.89620934317E+03  0.11037897769E+04  0.64432963986E+03 0.  0.
         13    1    3    3    0    0  0.29600833953E+03  0.68307376668E+02 -0.63183760056E+03  0.70107459536E+03  0.00000000000E+00 0.  1.
          3    1    3    3  501    0 -0.29600897776E+03 -0.68306546072E+02 -0.26437174261E+03  0.40271518154E+03  0.00000000000E+00 0.  1.
         21    1    1    2  502  501  0.63823493295E-03 -0.83059649591E-03  0.18352016383E-03  0.10634444128E-02  0.00000000000E+00 0.  1.
<mgrwt>
<rscale>  1 0.64432964E+03</rscale>
<asrwt>0</asrwt>
<pdfrwt beam="1">  1        3 0.37742203E+00 0.64432964E+03</pdfrwt>
<pdfrwt beam="2">0</pdfrwt>
<totfact> 0.77957373E-02</totfact>
</mgrwt>
</event>
<event>
 6    1  0.3695885E-003  0.6531528E+03  0.7818608E-02  0.9800881E-01
          1   -1    0    0  502    0  0.00000000000E+00  0.00000000000E+00  0.10749220997E+03  0.10749220997E+03  0.00000000000E+00 0.  1.
         13   -1    0    0    0    0 -0.00000000000E+00 -0.00000000000E+00 -0.10000000000E+04  0.10000000000E+04  0.00000000000E+00 0.  1.
    9000005    2    1    2  501    0  0.22032397886E+00  0.93272273173E-01 -0.89332895805E+03  0.11066368976E+04  0.65315276815E+03 0.  0.
         13    1    3    3    0    0  0.46071324487E+02 -0.64701793294E+02  0.90041418920E+02  0.12006808950E+03  0.00000000000E+00 0.  1.
          3    1    3    3  501    0 -0.45851000508E+02  0.64795065567E+02 -0.98337037697E+03  0.98656880808E+03  0.00000000000E+00 0.  1.
         21    1    1    2  502  501 -0.22032397886E+00 -0.93272273173E-01  0.82116801597E+00  0.85531238916E+00  0.00000000000E+00 0.  1.
<mgrwt>
<rscale>  1 0.65315281E+03</rscale>
<asrwt>0</asrwt>
<pdfrwt beam="1">  1        1 0.39088159E+00 0.65315281E+03</pdfrwt>
<pdfrwt beam="2">0</pdfrwt>
<totfact> 0.14679263E+00</totfact>
</mgrwt>
</event>
<event>
 6    1  0.3695885E-003  0.6541575E+03  0.7818608E-02  0.9799009E-01
          1   -1    0    0  502    0  0.00000000000E+00  0.00000000000E+00  0.11082816782E+03  0.11082816782E+03  0.00000000000E+00 0.  1.
         13   -1    0    0    0    0 -0.00000000000E+00 -0.00000000000E+00 -0.10000000000E+04  0.10000000000E+04  0.00000000000E+00 0.  1.
    9000005    2    1    2  501    0  0.11871833049E+01  0.22334290328E+00 -0.89291423719E+03  0.11068956265E+04  0.65415642900E+03 0.  0.
         13    1    3    3    0    0  0.76494305698E+02  0.23273509422E+03 -0.81400263969E+03  0.85006899738E+03  0.00000000000E+00 0.  1.
          3    1    3    3  501    0 -0.75307122393E+02 -0.23251175132E+03 -0.78911597507E+02  0.25682662908E+03  0.00000000000E+00 0.  1.
         21    1    1    2  502  501 -0.11871833049E+01 -0.22334290328E+00  0.37424050150E+01  0.39325413600E+01  0.00000000000E+00 0.  1.
<mgrwt>
<rscale>  1 0.65415754E+03</rscale>
<asrwt>0</asrwt>
<pdfrwt beam="1">  1        1 0.40301237E+00 0.65415754E+03</pdfrwt>
<pdfrwt beam="2">0</pdfrwt>
<totfact> 0.12960811E+00</totfact>
</mgrwt>
</event>
<event>
 6    1  0.3695885E-003  0.6245406E+03  0.7818608E-02  0.9855761E-01
          3   -1    0    0  502    0  0.00000000000E+00  0.00000000000E+00  0.97655397996E+02  0.97655397996E+02  0.00000000000E+00 0.  1.
         13   -1    0    0    0    0 -0.00000000000E+00 -0.00000000000E+00 -0.10000000000E+04  0.10000000000E+04  0.00000000000E+00 0.  1.
    9000005    2    1    2  501    0 -0.21859913593E-02  0.10930575383E-02 -0.90248724850E+03  0.10975127306E+04  0.62454059918E+03 0.  0.
         13    1    3    3    0    0 -0.10461154344E+03  0.13590147195E+02  0.65252269447E+02  0.12404082307E+03  0.00000000000E+00 0.  1.
          3    1    3    3  501    0  0.10460935745E+03 -0.13589054138E+02 -0.96773951795E+03  0.97347190749E+03  0.00000000000E+00 0.  1.
         21    1    1    2  502  501  0.21859913593E-02 -0.10930575383E-02  0.14264650056E+00  0.14266743656E+00  0.00000000000E+00 0.  1.
<mgrwt>
<rscale>  1 0.62454060E+03</rscale>
<asrwt>0</asrwt>
<pdfrwt beam="1">  1        3 0.35511129E+00 0.62454060E+03</pdfrwt>
<pdfrwt beam="2">0</pdfrwt>
<totfact> 0.10270052E-01</totfact>
</mgrwt>
</event>
<event>
 6    1  0.3695885E-003  0.6205603E+03  0.7818608E-02  0.9863645E-01
          1   -1    0    0  502    0  0.00000000000E+00  0.00000000000E+00  0.96273836717E+02  0.96273836717E+02  0.00000000000E+00 0.  1.
         13   -1    0    0    0    0 -0.00000000000E+00 -0.00000000000E+00 -0.10000000000E+04  0.10000000000E+04  0.00000000000E+00 0.  1.
    9000005    2    1    2  501    0 -0.48968603082E-04  0.48775091599E-04 -0.90372620895E+03  0.10962737539E+04  0.62056029740E+03 0.  0.
         13    1    3    3    0    0 -0.68762622212E+02  0.11336313545E+03 -0.94743495997E+03  0.95666739365E+03  0.00000000000E+00 0.  1.
          3    1    3    3  501    0  0.68762573243E+02 -0.11336308668E+03  0.43708751028E+02  0.13960636023E+03  0.00000000000E+00 0.  1.
         21    1    1    2  502  501  0.48968603092E-04 -0.48775091595E-04  0.45662966697E-04  0.82837432218E-04  0.00000000000E+00 0. -1.
<mgrwt>
<rscale>  1 0.62056030E+03</rscale>
<asrwt>0</asrwt>
<pdfrwt beam="1">  1        1 0.35008742E+00 0.62056030E+03</pdfrwt>
<pdfrwt beam="2">0</pdfrwt>
<totfact> 0.22311975E+00</totfact>
</mgrwt>
</event>
<event>
 6    1  0.3695885E-003  0.6528067E+03  0.7818608E-02  0.9801527E-01
          1   -1    0    0  502    0  0.00000000000E+00  0.00000000000E+00  0.10653980820E+03  0.10653980820E+03  0.00000000000E+00 0.  1.
         13   -1    0    0    0    0 -0.00000000000E+00 -0.00000000000E+00 -0.10000000000E+04  0.10000000000E+04  0.00000000000E+00 0.  1.
    9000005    2    1    2  501    0  0.39792639754E-04  0.16725860030E-03 -0.89346084224E+03  0.11065391354E+04  0.65280669544E+03 0.  0.
         13    1    3    3    0    0  0.45575473131E+02  0.31783643297E+03 -0.34728333542E+03  0.47297234267E+03  0.00000000000E+00 0.  1.
          3    1    3    3  501    0 -0.45575433339E+02 -0.31783626571E+03 -0.54617750682E+03  0.63356679275E+03  0.00000000000E+00 0.  1.
         21    1    1    2  502  501 -0.39792639754E-04 -0.16725860031E-03  0.65043279381E-03  0.67277166470E-03  0.00000000000E+00 0.  1.
<mgrwt>
<rscale>  1 0.65280670E+03</rscale>
<asrwt>0</asrwt>
<pdfrwt beam="1">  1        1 0.38741830E+00 0.65280670E+03</pdfrwt>
<pdfrwt beam="2">0</pdfrwt>
<totfact> 0.15208403E+00</totfact>
</mgrwt>
</event>
<event>
 6    1  0.3695885E-003  0.6481699E+03  0.7818608E-02  0.9810219E-01
          1   -1    0    0  502    0  0.00000000000E+00  0.00000000000E+00  0.10535485934E+03  0.10535485934E+03  0.00000000000E+00 0.  1.
         13   -1    0    0    0    0 -0.00000000000E+00 -0.00000000000E+00 -0.10000000000E+04  0.10000000000E+04  0.00000000000E+00 0.  1.
    9000005    2    1    2  501    0  0.77542914865E-02  0.65005822532E-03 -0.89496889224E+03  0.11050310143E+04  0.64816990391E+03 0.  0.
         13    1    3    3    0    0  0.25618880799E+03 -0.19837168069E+03 -0.43556852428E+03  0.54286643696E+03  0.00000000000E+00 0.  1.
          3    1    3    3  501    0 -0.25618105370E+03  0.19837233075E+03 -0.45940036796E+03  0.56216457730E+03  0.00000000000E+00 0.  1.
         21    1    1    2  502  501 -0.77542914866E-02 -0.65005822533E-03  0.32375157642E+00  0.32384507846E+00  0.00000000000E+00 0.  1.
<mgrwt>
<rscale>  1 0.64816990E+03</rscale>
<asrwt>0</asrwt>
<pdfrwt beam="1">  1        1 0.38310939E+00 0.64816990E+03</pdfrwt>
<pdfrwt beam="2">0</pdfrwt>
<totfact> 0.15904405E+00</totfact>
</mgrwt>
</event>
<event>
 6    1  0.3695885E-003  0.6461801E+03  0.7818608E-02  0.9813973E-01
          1   -1    0    0  502    0  0.00000000000E+00  0.00000000000E+00  0.10438747012E+03  0.10438747012E+03  0.00000000000E+00 0.  1.
         13   -1    0    0    0    0 -0.00000000000E+00 -0.00000000000E+00 -0.10000000000E+04  0.10000000000E+04  0.00000000000E+00 0.  1.
    9000005    2    1    2  501    0  0.35286357928E-04 -0.18221800318E-04 -0.89561280806E+03  0.11043871891E+04  0.64618013086E+03 0.  0.
         13    1    3    3    0    0 -0.17170097039E+03  0.80959208142E+02 -0.97672560805E+00  0.18983300717E+03  0.00000000000E+00 0.  1.
          3    1    3    3  501    0  0.17170100568E+03 -0.80959226364E+02 -0.89463608246E+03  0.91455418195E+03  0.00000000000E+00 0.  1.
         21    1    1    2  502  501 -0.35286357947E-04  0.18221800322E-04  0.27817992835E-03  0.28100041566E-03  0.00000000000E+00 0.  1.
<mgrwt>
<rscale>  1 0.64618013E+03</rscale>
<asrwt>0</asrwt>
<pdfrwt beam="1">  1        1 0.37959160E+00 0.64618013E+03</pdfrwt>
<pdfrwt beam="2">0</pdfrwt>
<totfact> 0.16489518E+00</totfact>
</mgrwt>
</event>
<event>
 6    1  0.3695885E-003  0.6298294E+03  0.7818608E-02  0.9845382E-01
          1   -1    0    0  502    0  0.00000000000E+00  0.00000000000E+00  0.99179082045E+02  0.99179082045E+02  0.00000000000E+00 0.  1.
         13   -1    0    0    0    0 -0.00000000000E+00 -0.00000000000E+00 -0.10000000000E+04  0.10000000000E+04  0.00000000000E+00 0.  1.
    9000005    2    1    2  501    0 -0.44453130746E-02 -0.22132684079E-01 -0.90080345459E+03  0.10991505411E+04  0.62982937982E+03 0.  0.
         13    1    3    3    0    0 -0.29873775788E+03  0.99576493246E+02 -0.45609758416E+03  0.55424248507E+03  0.00000000000E+00 0.  1.
          1    1    3    3  501    0  0.29873331256E+03 -0.99598625930E+02 -0.44470587043E+03  0.54490805602E+03  0.00000000000E+00 0.  1.
         21    1    1    2  502  501  0.44453130746E-02  0.22132684079E-01 -0.17463365479E-01  0.28540946843E-01  0.00000000000E+00 0.  1.
<mgrwt>
<rscale>  1 0.62982938E+03</rscale>
<asrwt>0</asrwt>
<pdfrwt beam="1">  1        1 0.36065197E+00 0.62982938E+03</pdfrwt>
<pdfrwt beam="2">0</pdfrwt>
<totfact> 0.20030480E+00</totfact>
</mgrwt>
</event>
<event>
 6    1  0.3695885E-003  0.6544260E+03  0.7818608E-02  0.9798509E-01
          1   -1    0    0  502    0  0.00000000000E+00  0.00000000000E+00  0.10706884863E+03  0.10706884863E+03  0.00000000000E+00 0.  1.
         13   -1    0    0    0    0 -0.00000000000E+00 -0.00000000000E+00 -0.10000000000E+04  0.10000000000E+04  0.00000000000E+00 0.  1.
    9000005    2    1    2  501    0  0.50432750584E-04  0.19854255484E-04 -0.89293164766E+03  0.11070683494E+04  0.65442601021E+03 0.  0.
         13    1    3    3    0    0  0.21017978679E+03  0.61933616654E+02 -0.35363700581E+02  0.22195023533E+03  0.00000000000E+00 0.  1.
          1    1    3    3  501    0 -0.21017973636E+03 -0.61933596800E+02 -0.85756794707E+03  0.88511811406E+03  0.00000000000E+00 0.  1.
         21    1    1    2  502  501 -0.50432750583E-04 -0.19854255481E-04  0.49628415255E-03  0.49923502868E-03  0.00000000000E+00 0. -1.
<mgrwt>
<rscale>  1 0.65442601E+03</rscale>
<asrwt>0</asrwt>
<pdfrwt beam="1">  1        1 0.38934209E+00 0.65442601E+03</pdfrwt>
<pdfrwt beam="2">0</pdfrwt>
<totfact> 0.14908333E+00</totfact>
</mgrwt>
</event>
<event>
 6    1  0.3695885E-003  0.6513935E+03  0.7818608E-02  0.9804168E-01
          1   -1    0    0  502    0  0.00000000000E+00  0.00000000000E+00  0.11061955404E+03  0.11061955404E+03  0.00000000000E+00 0.  1.
         13   -1    0    0    0    0 -0.00000000000E+00 -0.00000000000E+00 -0.10000000000E+04  0.10000000000E+04  0.00000000000E+00 0.  1.
    9000005    2    1    2  501    0  0.15045206309E+00 -0.32787024665E+00 -0.89391371148E+03  0.11060719579E+04  0.65139336984E+03 0.  0.
         13    1    3    3    0    0  0.31767727314E+03  0.59432853474E+02 -0.37792815341E+03  0.49727336856E+03  0.00000000000E+00 0.  1.
          3    1    3    3  501    0 -0.31752682108E+03 -0.59760723721E+02 -0.51598555807E+03  0.60879858930E+03  0.00000000000E+00 0.  1.
         21    1    1    2  502  501 -0.15045206309E+00  0.32787024665E+00  0.45332655198E+01  0.45475961777E+01  0.00000000000E+00 0.  1.
<mgrwt>
<rscale>  1 0.65139347E+03</rscale>
<asrwt>0</asrwt>
<pdfrwt beam="1">  1        1 0.40225377E+00 0.65139347E+03</pdfrwt>
<pdfrwt beam="2">0</pdfrwt>
<totfact> 0.13069153E+00</totfact>
</mgrwt>
</event>
<event>
 6    1  0.3695885E-003  0.6540266E+03  0.7818608E-02  0.9799253E-01
          1   -1    0    0  502    0  0.00000000000E+00  0.00000000000E+00  0.10693768486E+03  0.10693768486E+03  0.00000000000E+00 0.  1.
         13   -1    0    0    0    0 -0.00000000000E+00 -0.00000000000E+00 -0.10000000000E+04  0.10000000000E+04  0.00000000000E+00 0.  1.
    9000005    2    1    2  501    0  0.49669507689E-05  0.10408978142E-05 -0.89306231315E+03  0.11069376794E+04  0.65402655216E+03 0.  0.
         13    1    3    3    0    0  0.16365242571E+03 -0.26700112321E+03 -0.28716692845E+03  0.42489594142E+03  0.00000000000E+00 0.  1.
          1    1    3    3  501    0 -0.16365242075E+03  0.26700112425E+03 -0.60589538470E+03  0.68204173799E+03  0.00000000000E+00 0.  1.
         21    1    1    2  502  501 -0.49669507454E-05 -0.10408978398E-05 -0.19897220251E-05  0.54509688824E-05  0.00000000000E+00 0.  1.
<mgrwt>
<rscale>  1 0.65402655E+03</rscale>
<asrwt>0</asrwt>
<pdfrwt beam="1">  1        1 0.38886513E+00 0.65402655E+03</pdfrwt>
<pdfrwt beam="2">0</pdfrwt>
<totfact> 0.14982194E+00</totfact>
</mgrwt>
</event>
<event>
 6    1  0.3695885E-003  0.6522610E+03  0.7818608E-02  0.9802546E-01
          1   -1    0    0  502    0  0.00000000000E+00  0.00000000000E+00  0.10637966023E+03  0.10637966023E+03  0.00000000000E+00 0.  1.
         13   -1    0    0    0    0 -0.00000000000E+00 -0.00000000000E+00 -0.10000000000E+04  0.10000000000E+04  0.00000000000E+00 0.  1.
    9000005    2    1    2  501    0 -0.80110279080E-02  0.49261810562E-02 -0.89363757032E+03  0.11063600303E+04  0.65226099790E+03 0.  0.
         13    1    3    3    0    0  0.40331542836E+02 -0.32136724282E+03 -0.51152974979E+03  0.60544712653E+03  0.00000000000E+00 0.  1.
          3    1    3    3  501    0 -0.40339553864E+02  0.32137216900E+03 -0.38210782053E+03  0.50091290373E+03  0.00000000000E+00 0.  1.
         21    1    1    2  502  501  0.80110279080E-02 -0.49261810562E-02  0.17230555890E-01  0.19629974127E-01  0.00000000000E+00 0.  1.
<mgrwt>
<rscale>  1 0.65226100E+03</rscale>
<asrwt>0</asrwt>
<pdfrwt beam="1">  1        1 0.38683594E+00 0.65226100E+03</pdfrwt>
<pdfrwt beam="2">0</pdfrwt>
<totfact> 0.15300519E+00</totfact>
</mgrwt>
</event>
<event>
 6    1  0.3695885E-003  0.6557213E+03  0.7818608E-02  0.9796102E-01
          1   -1    0    0  502    0  0.00000000000E+00  0.00000000000E+00  0.10749274410E+03  0.10749274410E+03  0.00000000000E+00 0.  1.
         13   -1    0    0    0    0 -0.00000000000E+00 -0.00000000000E+00 -0.10000000000E+04  0.10000000000E+04  0.00000000000E+00 0.  1.
    9000005    2    1    2  501    0  0.24578846876E-04 -0.86607604601E-04 -0.89250738029E+03  0.11074925905E+04  0.65572129311E+03 0.  0.
         13    1    3    3    0    0  0.14454865307E+03 -0.27406932125E+03 -0.26525553766E+03  0.40788332427E+03  0.00000000000E+00 0.  1.
          1    1    3    3  501    0 -0.14454862849E+03  0.27406923465E+03 -0.62725184263E+03  0.69960926628E+03  0.00000000000E+00 0.  1.
         21    1    1    2  502  501 -0.24578846887E-04  0.86607604598E-04  0.12438869881E-03  0.15354981368E-03  0.00000000000E+00 0.  1.
<mgrwt>
<rscale>  1 0.65572129E+03</rscale>
<asrwt>0</asrwt>
<pdfrwt beam="1">  1        1 0.39088353E+00 0.65572129E+03</pdfrwt>
<pdfrwt beam="2">0</pdfrwt>
<totfact> 0.14671968E+00</totfact>
</mgrwt>
</event>
<event>
 6    1  0.3695885E-003  0.6583023E+03  0.7818608E-02  0.9791324E-01
          1   -1    0    0  502    0  0.00000000000E+00  0.00000000000E+00  0.11061698929E+03  0.11061698929E+03  0.00000000000E+00 0.  1.
         13   -1    0    0    0    0 -0.00000000000E+00 -0.00000000000E+00 -0.10000000000E+04  0.10000000000E+04  0.00000000000E+00 0.  1.
    9000005    2    1    2  501    0 -0.10699815854E+00 -0.62949858290E-01 -0.89165763110E+03  0.11083389838E+04  0.65830232903E+03 0.  0.
         13    1    3    3    0    0  0.32506878698E+03 -0.51196404070E+02 -0.45293474208E+03  0.55985772178E+03  0.00000000000E+00 0.  1.
          3    1    3    3  501    0 -0.32517578514E+03  0.51133454212E+02 -0.43872288902E+03  0.54848126197E+03  0.00000000000E+00 0.  1.
         21    1    1    2  502  501  0.10699815854E+00  0.62949858290E-01  0.22746203861E+01  0.22780055293E+01  0.00000000000E+00 0.  1.
<mgrwt>
<rscale>  1 0.65830234E+03</rscale>
<asrwt>0</asrwt>
<pdfrwt beam="1">  1        1 0.40224445E+00 0.65830234E+03</pdfrwt>
<pdfrwt beam="2">0</pdfrwt>
<totfact> 0.13053268E+00</totfact>
</mgrwt>
</event>
<event>
 6    1  0.3695885E-003  0.5838629E+03  0.7818608E-02  0.9939463E-01
          1   -1    0    0  502    0  0.00000000000E+00  0.00000000000E+00  0.98572583483E+02  0.98572583483E+02  0.00000000000E+00 0.  1.
         13   -1    0    0    0    0 -0.00000000000E+00 -0.00000000000E+00 -0.10000000000E+04  0.10000000000E+04  0.00000000000E+00 0.  1.
    9000005    2    1    2  501    0 -0.12881831906E+00  0.17229593360E+00 -0.91477508884E+03  0.10852231776E+04  0.58386285706E+03 0.  0.
         13    1    3    3    0    0  0.15166703725E+03 -0.21039174012E+03 -0.70591838562E+03  0.75205607613E+03  0.00000000000E+00 0.  1.
          3    1    3    3  501    0 -0.15179585557E+03  0.21056403605E+03 -0.20885670322E+03  0.33316710151E+03  0.00000000000E+00 0.  1.
         21    1    1    2  502  501  0.12881831906E+00 -0.17229593360E+00  0.13347672319E+02  0.13349405844E+02  0.00000000000E+00 0. -1.
<mgrwt>
<rscale>  1 0.58386290E+03</rscale>
<asrwt>0</asrwt>
<pdfrwt beam="1">  1        1 0.35844651E+00 0.58386290E+03</pdfrwt>
<pdfrwt beam="2">0</pdfrwt>
<totfact> 0.20657915E+00</totfact>
</mgrwt>
</event>
<event>
 6    1  0.3695885E-003  0.5233266E+03  0.7818608E-02  0.1007863E+00
          1   -1    0    0  502    0  0.00000000000E+00  0.00000000000E+00  0.70604197349E+02  0.70604197349E+02  0.00000000000E+00 0.  1.
         13   -1    0    0    0    0 -0.00000000000E+00 -0.00000000000E+00 -0.10000000000E+04  0.10000000000E+04  0.00000000000E+00 0.  1.
    9000005    2    1    2  501    0 -0.83012431813E+00  0.55193636576E-01 -0.93144554821E+03  0.10683920469E+04  0.52332596386E+03 0.  0.
         13    1    3    3    0    0 -0.74580314002E+02  0.25021358372E+03 -0.50546190445E+03  0.56891194184E+03  0.00000000000E+00 0.  1.
          3    1    3    3  501    0  0.73750189684E+02 -0.25015839008E+03 -0.42598364376E+03  0.49948010506E+03  0.00000000000E+00 0.  1.
         21    1    1    2  502  501  0.83012431813E+00 -0.55193636576E-01  0.20497455629E+01  0.22121504455E+01  0.00000000000E+00 0. -1.
<mgrwt>
<rscale>  1 0.52332663E+03</rscale>
<asrwt>0</asrwt>
<pdfrwt beam="1">  1        1 0.25674308E+00 0.52332663E+03</pdfrwt>
<pdfrwt beam="2">0</pdfrwt>
<totfact> 0.57503228E+00</totfact>
</mgrwt>
</event>
<event>
 6    1  0.3695885E-003  0.6502082E+03  0.7818608E-02  0.9806389E-01
          1   -1    0    0  502    0  0.00000000000E+00  0.00000000000E+00  0.10569269793E+03  0.10569269793E+03  0.00000000000E+00 0.  1.
         13   -1    0    0    0    0 -0.00000000000E+00 -0.00000000000E+00 -0.10000000000E+04  0.10000000000E+04  0.00000000000E+00 0.  1.
    9000005    2    1    2  501    0  0.68904358556E-05  0.65990740694E-05 -0.89430731562E+03  0.11056926814E+04  0.65020822114E+03 0.  0.
         13    1    3    3    0    0  0.84928368288E+00 -0.11664428775E+03 -0.96318840823E+03  0.97022601537E+03  0.00000000000E+00 0.  1.
          1    1    3    3  501    0 -0.84927679244E+00  0.11664429435E+03  0.68881092610E+02  0.13546666599E+03  0.00000000000E+00 0.  1.
         21    1    1    2  502  501 -0.68904358556E-05 -0.65990740649E-05  0.13549089784E-04  0.16571171315E-04  0.00000000000E+00 0.  1.
<mgrwt>
<rscale>  1 0.65020822E+03</rscale>
<asrwt>0</asrwt>
<pdfrwt beam="1">  1        1 0.38433789E+00 0.65020822E+03</pdfrwt>
<pdfrwt beam="2">0</pdfrwt>
<totfact> 0.15700869E+00</totfact>
</mgrwt>
</event>
<event>
 6    1  0.3695885E-003  0.6525323E+03  0.7818608E-02  0.9802039E-01
          1   -1    0    0  502    0  0.00000000000E+00  0.00000000000E+00  0.10745551825E+03  0.10745551825E+03  0.00000000000E+00 0.  1.
         13   -1    0    0    0    0 -0.00000000000E+00 -0.00000000000E+00 -0.10000000000E+04  0.10000000000E+04  0.00000000000E+00 0.  1.
    9000005    2    1    2  501    0 -0.53977211112E-01  0.16871080856E-01 -0.89354952713E+03  0.11064488831E+04  0.65253227522E+03 0.  0.
         13    1    3    3    0    0 -0.11457407620E+03 -0.73727638770E+02  0.55907960450E+02  0.14727078358E+03  0.00000000000E+00 0.  1.
          3    1    3    3  501    0  0.11452009899E+03  0.73744509851E+02 -0.94945748758E+03  0.95917809948E+03  0.00000000000E+00 0.  1.
         21    1    1    2  502  501  0.53977211112E-01 -0.16871080856E-01  0.10050453779E+01  0.10066351794E+01  0.00000000000E+00 0.  1.
<mgrwt>
<rscale>  1 0.65253228E+03</rscale>
<asrwt>0</asrwt>
<pdfrwt beam="1">  1        1 0.39074816E+00 0.65253228E+03</pdfrwt>
<pdfrwt beam="2">0</pdfrwt>
<totfact> 0.14700982E+00</totfact>
</mgrwt>
</event>
<event>
 6    1  0.3695885E-003  0.6607786E+03  0.7818608E-02  0.9786762E-01
          1   -1    0    0  502    0  0.00000000000E+00  0.00000000000E+00  0.11095374324E+03  0.11095374324E+03  0.00000000000E+00 0.  1.
         13   -1    0    0    0    0 -0.00000000000E+00 -0.00000000000E+00 -0.10000000000E+04  0.10000000000E+04  0.00000000000E+00 0.  1.
    9000005    2    1    2  501    0 -0.13284010943E+00  0.83769944225E+00 -0.89073120116E+03  0.11090673646E+04  0.66077804674E+03 0.  0.
         13    1    3    3    0    0  0.11221418419E+02  0.27746158440E+03 -0.14429377538E+03  0.31294016147E+03  0.00000000000E+00 0.  1.
          3    1    3    3  501    0 -0.11354258528E+02 -0.27662388496E+03 -0.74643742578E+03  0.79612720310E+03  0.00000000000E+00 0.  1.
         21    1    1    2  502  501  0.13284010943E+00 -0.83769944225E+00  0.16849443957E+01  0.18863786648E+01  0.00000000000E+00 0.  1.
<mgrwt>
<rscale>  1 0.66077859E+03</rscale>
<asrwt>0</asrwt>
<pdfrwt beam="1">  1        1 0.40346901E+00 0.66077859E+03</pdfrwt>
<pdfrwt beam="2">0</pdfrwt>
<totfact> 0.12883903E+00</totfact>
</mgrwt>
</event>
<event>
 6    1  0.3695885E-003  0.6416525E+03  0.7818608E-02  0.9822570E-01
          1   -1    0    0  502    0  0.00000000000E+00  0.00000000000E+00  0.10293402603E+03  0.10293402603E+03  0.00000000000E+00 0.  1.
         13   -1    0    0    0    0 -0.00000000000E+00 -0.00000000000E+00 -0.10000000000E+04  0.10000000000E+04  0.00000000000E+00 0.  1.
    9000005    2    1    2  501    0  0.29086685284E-02  0.92124519503E-03 -0.89706993021E+03  0.11029290299E+04  0.64165254257E+03 0.  0.
         13    1    3    3    0    0  0.24345496044E+03 -0.10245195045E+03 -0.13551268307E+03  0.29686765939E+03  0.00000000000E+00 0.  1.
          1    1    3    3  501    0 -0.24345205178E+03  0.10245287170E+03 -0.76155724714E+03  0.80606137056E+03  0.00000000000E+00 0.  1.
         21    1    1    2  502  501 -0.29086685284E-02 -0.92124519504E-03  0.39562418313E-02  0.49960879441E-02  0.00000000000E+00 0.  1.
<mgrwt>
<rscale>  1 0.64165254E+03</rscale>
<asrwt>0</asrwt>
<pdfrwt beam="1">  1        1 0.37430634E+00 0.64165254E+03</pdfrwt>
<pdfrwt beam="2">0</pdfrwt>
<totfact> 0.17412226E+00</totfact>
</mgrwt>
</event>
<event>
 6    1  0.3695885E-003  0.6405742E+03  0.7818608E-02  0.9824629E-01
          1   -1    0    0  502    0  0.00000000000E+00  0.00000000000E+00  0.10486457296E+03  0.10486457296E+03  0.00000000000E+00 0.  1.
         13   -1    0    0    0    0 -0.00000000000E+00 -0.00000000000E+00 -0.10000000000E+04  0.10000000000E+04  0.00000000000E+00 0.  1.
    9000005    2    1    2  501    0 -0.99735488944E-02 -0.61107718259E-01 -0.89741571921E+03  0.11025834403E+04  0.64057416901E+03 0.  0.
         13    1    3    3    0    0  0.31327967252E+03 -0.17550574118E+02 -0.55931362064E+03  0.64131419920E+03  0.00000000000E+00 0.  1.
          3    1    3    3  501    0 -0.31328964607E+03  0.17489466400E+02 -0.33810209857E+03  0.46126924115E+03  0.00000000000E+00 0.  1.
         21    1    1    2  502  501  0.99735488944E-02  0.61107718259E-01  0.22802921730E+01  0.22811326176E+01  0.00000000000E+00 0. -1.
<mgrwt>
<rscale>  1 0.64057417E+03</rscale>
<asrwt>0</asrwt>
<pdfrwt beam="1">  1        1 0.38132652E+00 0.64057417E+03</pdfrwt>
<pdfrwt beam="2">0</pdfrwt>
<totfact> 0.16218176E+00</totfact>
</mgrwt>
</event>
<event>
 6    1  0.3695885E-003  0.6297153E+03  0.7818608E-02  0.9845604E-01
          1   -1    0    0  502    0  0.00000000000E+00  0.00000000000E+00  0.99247084710E+02  0.99247084710E+02  0.00000000000E+00 0.  1.
         13   -1    0    0    0    0 -0.00000000000E+00 -0.00000000000E+00 -0.10000000000E+04  0.10000000000E+04  0.00000000000E+00 0.  1.
    9000005    2    1    2  501    0 -0.29431657947E-02  0.64065365121E-02 -0.90086453360E+03  0.10991352440E+04  0.62971531389E+03 0.  0.
         13    1    3    3    0    0 -0.13456725430E+02 -0.11510226084E+02  0.98265498200E+02  0.99848269390E+02  0.00000000000E+00 0.  1.
          1    1    3    3  501    0  0.13453782264E+02  0.11516632620E+02 -0.99913003180E+03  0.99928697457E+03  0.00000000000E+00 0.  1.
         21    1    1    2  502  501  0.29431657947E-02 -0.64065365121E-02  0.11161831457E+00  0.11184075323E+00  0.00000000000E+00 0. -1.
<mgrwt>
<rscale>  1 0.62971531E+03</rscale>
<asrwt>0</asrwt>
<pdfrwt beam="1">  1        1 0.36089925E+00 0.62971531E+03</pdfrwt>
<pdfrwt beam="2">0</pdfrwt>
<totfact> 0.19981059E+00</totfact>
</mgrwt>
</event>
<event>
 6    1  0.3695885E-003  0.6498136E+03  0.7818608E-02  0.9807129E-01
          1   -1    0    0  502    0  0.00000000000E+00  0.00000000000E+00  0.11949565751E+03  0.11949565751E+03  0.00000000000E+00 0.  1.
         13   -1    0    0    0    0 -0.00000000000E+00 -0.00000000000E+00 -0.10000000000E+04  0.10000000000E+04  0.00000000000E+00 0.  1.
    9000005    2    1    2  501    0 -0.27861544476E+02 -0.91567822834E+01 -0.87460053970E+03  0.10895796549E+04  0.64915145235E+03 0.  0.
         13    1    3    3    0    0 -0.23716482036E+03  0.21047057638E+03 -0.28429319933E+03  0.42587279641E+03  0.00000000000E+00 0.  1.
          1    1    3    3  501    0  0.20930327588E+03 -0.21962735866E+03 -0.59030734037E+03  0.66370685853E+03  0.00000000000E+00 0.  1.
         21    1    1    2  502  501  0.27861544476E+02  0.91567822834E+01 -0.59038027888E+01  0.29916002570E+02  0.00000000000E+00 0. -1.
<mgrwt>
<rscale>  1 0.64981360E+03</rscale>
<asrwt>0</asrwt>
<pdfrwt beam="1">  1        1 0.43453058E+00 0.64981360E+03</pdfrwt>
<pdfrwt beam="2">0</pdfrwt>
<totfact> 0.93525307E-01</totfact>
</mgrwt>
</event>
<event>
 6    1  0.3695885E-003  0.6459934E+03  0.7818608E-02  0.9814326E-01
          1   -1    0    0  502    0  0.00000000000E+00  0.00000000000E+00  0.10442287847E+03  0.10442287847E+03  0.00000000000E+00 0.  1.
         13   -1    0    0    0    0 -0.00000000000E+00 -0.00000000000E+00 -0.10000000000E+04  0.10000000000E+04  0.00000000000E+00 0.  1.
    9000005    2    1    2  501    0 -0.24104574636E-01 -0.80366523469E-02 -0.89567126255E+03  0.11043253687E+04  0.64599342783E+03 0.  0.
         13    1    3    3    0    0 -0.22127383627E+03 -0.21515545453E+03 -0.61074697379E+03  0.68429952961E+03  0.00000000000E+00 0.  1.
          3    1    3    3  501    0  0.22124973170E+03  0.21514741788E+03 -0.28492428876E+03  0.42002583911E+03  0.00000000000E+00 0.  1.
         21    1    1    2  502  501  0.24104574636E-01  0.80366523469E-02  0.94141025417E-01  0.97509748056E-01  0.00000000000E+00 0. -1.
<mgrwt>
<rscale>  1 0.64599343E+03</rscale>
<asrwt>0</asrwt>
<pdfrwt beam="1">  1        1 0.37972036E+00 0.64599343E+03</pdfrwt>
<pdfrwt beam="2">0</pdfrwt>
<totfact> 0.16468530E+00</totfact>
</mgrwt>
</event>
<event>
 6    1  0.3695885E-003  0.6459985E+03  0.7818608E-02  0.9814317E-01
          1   -1    0    0  502    0  0.00000000000E+00  0.00000000000E+00  0.10432962918E+03  0.10432962918E+03  0.00000000000E+00 0.  1.
         13   -1    0    0    0    0 -0.00000000000E+00 -0.00000000000E+00 -0.10000000000E+04  0.10000000000E+04  0.00000000000E+00 0.  1.
    9000005    2    1    2  501    0 -0.61899564173E-04  0.21098387576E-02 -0.89567024740E+03  0.11043275148E+04  0.64599850458E+03 0.  0.
         13    1    3    3    0    0 -0.31667697826E+03  0.23835817364E+02 -0.54862459431E+03  0.63390961519E+03  0.00000000000E+00 0.  1.
          3    1    3    3  501    0  0.31667691636E+03 -0.23833707525E+02 -0.34704565309E+03  0.47041789964E+03  0.00000000000E+00 0.  1.
         21    1    1    2  502  501  0.61899564224E-04 -0.21098387576E-02 -0.12341422724E-03  0.21143514870E-02  0.00000000000E+00 0.  1.
<mgrwt>
<rscale>  1 0.64599850E+03</rscale>
<asrwt>0</asrwt>
<pdfrwt beam="1">  1        1 0.37938127E+00 0.64599850E+03</pdfrwt>
<pdfrwt beam="2">0</pdfrwt>
<totfact> 0.16525334E+00</totfact>
</mgrwt>
</event>
<event>
 6    1  0.3695885E-003  0.6418484E+03  0.7818608E-02  0.9822196E-01
          1   -1    0    0  502    0  0.00000000000E+00  0.00000000000E+00  0.10403661920E+03  0.10403661920E+03  0.00000000000E+00 0.  1.
         13   -1    0    0    0    0 -0.00000000000E+00 -0.00000000000E+00 -0.10000000000E+04  0.10000000000E+04  0.00000000000E+00 0.  1.
    9000005    2    1    2  501    0 -0.86325616132E+00  0.22692449871E+01 -0.89513769475E+03  0.11014721619E+04  0.64184385648E+03 0.  0.
         13    1    3    3    0    0 -0.24626905961E+03  0.20680767019E+03 -0.47642411486E+03  0.57480240030E+03  0.00000000000E+00 0.  1.
          1    1    3    3  501    0  0.24540580345E+03 -0.20453842521E+03 -0.41871357989E+03  0.52666976156E+03  0.00000000000E+00 0.  1.
         21    1    1    2  502  501  0.86325616132E+00 -0.22692449871E+01 -0.82568604724E+00  0.25644573422E+01  0.00000000000E+00 0. -1.
<mgrwt>
<rscale>  1 0.64184845E+03</rscale>
<asrwt>0</asrwt>
<pdfrwt beam="1">  1        1 0.37831578E+00 0.64184845E+03</pdfrwt>
<pdfrwt beam="2">0</pdfrwt>
<totfact> 0.16717839E+00</totfact>
</mgrwt>
</event>
<event>
 6    1  0.3695885E-003  0.6465612E+03  0.7818608E-02  0.9813253E-01
          1   -1    0    0  502    0  0.00000000000E+00  0.00000000000E+00  0.10451103255E+03  0.10451103255E+03  0.00000000000E+00 0.  1.
         13   -1    0    0    0    0 -0.00000000000E+00 -0.00000000000E+00 -0.10000000000E+04  0.10000000000E+04  0.00000000000E+00 0.  1.
    9000005    2    1    2  501    0 -0.67450309933E-03  0.19839200700E-02 -0.89548548023E+03  0.11045069642E+04  0.64656120253E+03 0.  0.
         13    1    3    3    0    0 -0.27160439923E+03 -0.26240772288E+02 -0.15159940460E+03  0.31215365974E+03  0.00000000000E+00 0.  1.
          3    1    3    3  501    0  0.27160372473E+03  0.26242756208E+02 -0.74388607564E+03  0.79235330445E+03  0.00000000000E+00 0.  1.
         21    1    1    2  502  501  0.67450309935E-03 -0.19839200700E-02 -0.34872189585E-02  0.40683644551E-02  0.00000000000E+00 0.  1.
<mgrwt>
<rscale>  1 0.64656120E+03</rscale>
<asrwt>0</asrwt>
<pdfrwt beam="1">  1        1 0.38004092E+00 0.64656120E+03</pdfrwt>
<pdfrwt beam="2">0</pdfrwt>
<totfact> 0.16413274E+00</totfact>
</mgrwt>
</event>
<event>
 6    1  0.3695885E-003  0.6520765E+03  0.7818608E-02  0.9802891E-01
          1   -1    0    0  502    0  0.00000000000E+00  0.00000000000E+00  0.10631314058E+03  0.10631314058E+03  0.00000000000E+00 0.  1.
         13   -1    0    0    0    0 -0.00000000000E+00 -0.00000000000E+00 -0.10000000000E+04  0.10000000000E+04  0.00000000000E+00 0.  1.
    9000005    2    1    2  501    0  0.17517757790E-02 -0.61546051871E-02 -0.89369812794E+03  0.11063001819E+04  0.65207648979E+03 0.  0.
         13    1    3    3    0    0  0.13351644504E+03 -0.28329450332E+03 -0.60067700833E+03  0.67741810209E+03  0.00000000000E+00 0.  1.
          3    1    3    3  501    0 -0.13351469326E+03  0.28328834872E+03 -0.29302111961E+03  0.42888207980E+03  0.00000000000E+00 0.  1.
         21    1    1    2  502  501 -0.17517757790E-02  0.61546051871E-02  0.11268523350E-01  0.12958684419E-01  0.00000000000E+00 0.  1.
<mgrwt>
<rscale>  1 0.65207649E+03</rscale>
<asrwt>0</asrwt>
<pdfrwt beam="1">  1        1 0.38659405E+00 0.65207649E+03</pdfrwt>
<pdfrwt beam="2">0</pdfrwt>
<totfact> 0.15338817E+00</totfact>
</mgrwt>
</event>
<event>
 6    1  0.3695885E-003  0.6467051E+03  0.7818608E-02  0.9812982E-01
          1   -1    0    0  502    0  0.00000000000E+00  0.00000000000E+00  0.10462781401E+03  0.10462781401E+03  0.00000000000E+00 0.  1.
         13   -1    0    0    0    0 -0.00000000000E+00 -0.00000000000E+00 -0.10000000000E+04  0.10000000000E+04  0.00000000000E+00 0.  1.
    9000005    2    1    2  501    0 -0.49316657740E-01 -0.26154469693E-01 -0.89543081124E+03  0.11045468627E+04  0.64670505729E+03 0.  0.
         13    1    3    3    0    0  0.27084532208E+03  0.12694792028E+03 -0.23802991464E+03  0.38227111220E+03  0.00000000000E+00 0.  1.
          1    1    3    3  501    0 -0.27089463874E+03 -0.12697407475E+03 -0.65740089660E+03  0.72227575053E+03  0.00000000000E+00 0.  1.
         21    1    1    2  502  501  0.49316657740E-01  0.26154469692E-01  0.58625250318E-01  0.80951275409E-01  0.00000000000E+00 0. -1.
<mgrwt>
<rscale>  1 0.64670506E+03</rscale>
<asrwt>0</asrwt>
<pdfrwt beam="1">  1        1 0.38046558E+00 0.64670506E+03</pdfrwt>
<pdfrwt beam="2">0</pdfrwt>
<totfact> 0.16342173E+00</totfact>
</mgrwt>
</event>
<event>
 6    1  0.3695885E-003  0.6445929E+03  0.7818608E-02  0.9816978E-01
          1   -1    0    0  502    0  0.00000000000E+00  0.00000000000E+00  0.10387518610E+03  0.10387518610E+03  0.00000000000E+00 0.  1.
         13   -1    0    0    0    0 -0.00000000000E+00 -0.00000000000E+00 -0.10000000000E+04  0.10000000000E+04  0.00000000000E+00 0.  1.
    9000005    2    1    2  501    0  0.60809153013E-04  0.38036774242E-04 -0.89612499421E+03  0.11038749920E+04  0.64459288921E+03 0.  0.
         13    1    3    3    0    0 -0.18959788879E+03 -0.22793466025E+03 -0.66450029470E+03  0.72764153979E+03  0.00000000000E+00 0.  1.
          3    1    3    3  501    0  0.18959794960E+03  0.22793469828E+03 -0.23162469951E+03  0.37623345226E+03  0.00000000000E+00 0.  1.
         21    1    1    2  502  501 -0.60809152999E-04 -0.38036774259E-04  0.18030611274E-03  0.19404855984E-03  0.00000000000E+00 0.  1.
<mgrwt>
<rscale>  1 0.64459289E+03</rscale>
<asrwt>0</asrwt>
<pdfrwt beam="1">  1        1 0.37772875E+00 0.64459289E+03</pdfrwt>
<pdfrwt beam="2">0</pdfrwt>
<totfact> 0.16809258E+00</totfact>
</mgrwt>
</event>
<event>
 6    1  0.3695885E-003  0.6490833E+03  0.7818608E-02  0.9808501E-01
          1   -1    0    0  502    0  0.00000000000E+00  0.00000000000E+00  0.10532883770E+03  0.10532883770E+03  0.00000000000E+00 0.  1.
         13   -1    0    0    0    0 -0.00000000000E+00 -0.00000000000E+00 -0.10000000000E+04  0.10000000000E+04  0.00000000000E+00 0.  1.
    9000005    2    1    2  501    0 -0.13213561691E-03  0.20199885864E-03 -0.89467270127E+03  0.11053272799E+04  0.64908331772E+03 0.  0.
         13    1    3    3    0    0  0.30493349233E+02 -0.13280127880E+03 -0.94893140238E+03  0.95866408633E+03  0.00000000000E+00 0.  1.
          1    1    3    3  501    0 -0.30493481368E+02  0.13280148080E+03  0.54258701109E+02  0.14666319359E+03  0.00000000000E+00 0.  1.
         21    1    1    2  502  501  0.13213561691E-03 -0.20199885864E-03  0.15389716861E-02  0.15577859965E-02  0.00000000000E+00 0. -1.
<mgrwt>
<rscale>  1 0.64908332E+03</rscale>
<asrwt>0</asrwt>
<pdfrwt beam="1">  1        1 0.38301476E+00 0.64908332E+03</pdfrwt>
<pdfrwt beam="2">0</pdfrwt>
<totfact> 0.15917044E+00</totfact>
</mgrwt>
</event>
<event>
 6    1  0.3695885E-003  0.6523119E+03  0.7818608E-02  0.9802451E-01
          1   -1    0    0  502    0  0.00000000000E+00  0.00000000000E+00  0.11031473807E+03  0.11031473807E+03  0.00000000000E+00 0.  1.
         13   -1    0    0    0    0 -0.00000000000E+00 -0.00000000000E+00 -0.10000000000E+04  0.10000000000E+04  0.00000000000E+00 0.  1.
    9000005    2    1    2  501    0 -0.12743360243E+01 -0.21420383732E+01 -0.89318109862E+03  0.11060213554E+04  0.65230709897E+03 0.  0.
         13    1    3    3    0    0  0.27155582425E+03  0.59063293209E+02 -0.73269228062E+03  0.78362555877E+03  0.00000000000E+00 0.  1.
          1    1    3    3  501    0 -0.27283016027E+03 -0.61205331583E+02 -0.16048881801E+03  0.32239579661E+03  0.00000000000E+00 0.  1.
         21    1    1    2  502  501  0.12743360243E+01  0.21420383732E+01  0.34958366979E+01  0.42933826889E+01  0.00000000000E+00 0. -1.
<mgrwt>
<rscale>  1 0.65231186E+03</rscale>
<asrwt>0</asrwt>
<pdfrwt beam="1">  1        1 0.40114535E+00 0.65231186E+03</pdfrwt>
<pdfrwt beam="2">0</pdfrwt>
<totfact> 0.13216515E+00</totfact>
</mgrwt>
</event>
<event>
 6    1  0.3695885E-003  0.6023157E+03  0.7818608E-02  0.9900613E-01
          1   -1    0    0  502    0  0.00000000000E+00  0.00000000000E+00  0.97912927140E+02  0.97912927140E+02  0.00000000000E+00 0.  1.
         13   -1    0    0    0    0 -0.00000000000E+00 -0.00000000000E+00 -0.10000000000E+04  0.10000000000E+04  0.00000000000E+00 0.  1.
    9000005    2    1    2  501    0 -0.90671865294E-01  0.19166277664E+00 -0.90930224179E+03  0.10906946435E+04  0.60231569255E+03 0.  0.
         13    1    3    3    0    0 -0.28865154198E+03 -0.79102993880E+02 -0.51555216906E+03  0.59613004903E+03  0.00000000000E+00 0.  1.
          1    1    3    3  501    0  0.28856087012E+03  0.79294656657E+02 -0.39375007272E+03  0.49456459447E+03  0.00000000000E+00 0.  1.
         21    1    1    2  502  501  0.90671865294E-01 -0.19166277664E+00  0.72151689281E+01  0.72182836373E+01  0.00000000000E+00 0.  1.
<mgrwt>
<rscale>  1 0.60231573E+03</rscale>
<asrwt>0</asrwt>
<pdfrwt beam="1">  1        1 0.35604776E+00 0.60231573E+03</pdfrwt>
<pdfrwt beam="2">0</pdfrwt>
<totfact> 0.21086049E+00</totfact>
</mgrwt>
</event>
<event>
 6    1  0.3695885E-003  0.6556866E+03  0.7818608E-02  0.9796167E-01
          1   -1    0    0  502    0  0.00000000000E+00  0.00000000000E+00  0.10971206399E+03  0.10971206399E+03  0.00000000000E+00 0.  1.
         13   -1    0    0    0    0 -0.00000000000E+00 -0.00000000000E+00 -0.10000000000E+04  0.10000000000E+04  0.00000000000E+00 0.  1.
    9000005    2    1    2  501    0 -0.15011073467E+01 -0.15440658474E+00 -0.89223256124E+03  0.11072506148E+04  0.65568491179E+03 0.  0.
         13    1    3    3    0    0 -0.19313903818E+03 -0.86124508724E+02 -0.87081397981E+03  0.89612337684E+03  0.00000000000E+00 0.  1.
          1    1    3    3  501    0  0.19163793083E+03  0.85970102139E+02 -0.21418581427E+02  0.21112723800E+03  0.00000000000E+00 0.  1.
         21    1    1    2  502  501  0.15011073467E+01  0.15440658474E+00  0.19446252286E+01  0.24614491544E+01  0.00000000000E+00 0. -1.
<mgrwt>
<rscale>  1 0.65568665E+03</rscale>
<asrwt>0</asrwt>
<pdfrwt beam="1">  1        1 0.39895380E+00 0.65568665E+03</pdfrwt>
<pdfrwt beam="2">0</pdfrwt>
<totfact> 0.13508572E+00</totfact>
</mgrwt>
</event>
<event>
 6    1  0.3695885E-003  0.6447329E+03  0.7818608E-02  0.9816713E-01
          1   -1    0    0  502    0  0.00000000000E+00  0.00000000000E+00  0.10392290593E+03  0.10392290593E+03  0.00000000000E+00 0.  1.
         13   -1    0    0    0    0 -0.00000000000E+00 -0.00000000000E+00 -0.10000000000E+04  0.10000000000E+04  0.00000000000E+00 0.  1.
    9000005    2    1    2  501    0  0.14701782414E-02  0.52736838700E-03 -0.89607963417E+03  0.11039199240E+04  0.64473288106E+03 0.  0.
         13    1    3    3    0    0 -0.44846119307E+02  0.31236765992E+03 -0.33530031921E+03  0.46044655873E+03  0.00000000000E+00 0.  1.
          1    1    3    3  501    0  0.44847589485E+02 -0.31236713255E+03 -0.56077931496E+03  0.64347336531E+03  0.00000000000E+00 0.  1.
         21    1    1    2  502  501 -0.14701782414E-02 -0.52736838699E-03  0.25401016730E-02  0.29818883256E-02  0.00000000000E+00 0.  1.
<mgrwt>
<rscale>  1 0.64473288E+03</rscale>
<asrwt>0</asrwt>
<pdfrwt beam="1">  1        1 0.37790227E+00 0.64473288E+03</pdfrwt>
<pdfrwt beam="2">0</pdfrwt>
<totfact> 0.16779251E+00</totfact>
</mgrwt>
</event>
<event>
 6    1  0.3695885E-003  0.6436213E+03  0.7818608E-02  0.9818823E-01
          1   -1    0    0  502    0  0.00000000000E+00  0.00000000000E+00  0.10554917718E+03  0.10554917718E+03  0.00000000000E+00 0.  1.
         13   -1    0    0    0    0 -0.00000000000E+00 -0.00000000000E+00 -0.10000000000E+04  0.10000000000E+04  0.00000000000E+00 0.  1.
    9000005    2    1    2  501    0  0.10030646607E+00  0.14800844016E+01 -0.89612781683E+03  0.11033101997E+04  0.64361955531E+03 0.  0.
         13    1    3    3    0    0 -0.36142848384E+02 -0.89799514669E+02  0.77956165505E+02  0.12428765854E+03  0.00000000000E+00 0.  1.
          3    1    3    3  501    0  0.36243154851E+02  0.91279599071E+02 -0.97408398233E+03  0.97902254117E+03  0.00000000000E+00 0.  1.
         21    1    1    2  502  501 -0.10030646607E+00 -0.14800844016E+01  0.16769940077E+01  0.22389774731E+01  0.00000000000E+00 0.  1.
<mgrwt>
<rscale>  1 0.64362126E+03</rscale>
<asrwt>0</asrwt>
<pdfrwt beam="1">  1        1 0.38381600E+00 0.64362126E+03</pdfrwt>
<pdfrwt beam="2">0</pdfrwt>
<totfact> 0.15803766E+00</totfact>
</mgrwt>
</event>
<event>
 6    1  0.3695885E-003  0.6495026E+03  0.7818608E-02  0.9807713E-01
          1   -1    0    0  502    0  0.00000000000E+00  0.00000000000E+00  0.10546855251E+03  0.10546855251E+03  0.00000000000E+00 0.  1.
         13   -1    0    0    0    0 -0.00000000000E+00 -0.00000000000E+00 -0.10000000000E+04  0.10000000000E+04  0.00000000000E+00 0.  1.
    9000005    2    1    2  501    0  0.21334789064E-02 -0.55660870170E-02 -0.89453463375E+03  0.11054617934E+04  0.64950255250E+03 0.  0.
         13    1    3    3    0    0  0.16818411770E+02 -0.19491536387E+03 -0.60914594395E+01  0.19573442192E+03  0.00000000000E+00 0.  1.
          3    1    3    3  501    0 -0.16816278291E+02  0.19490979778E+03 -0.88844317431E+03  0.90972737150E+03  0.00000000000E+00 0.  1.
         21    1    1    2  502  501 -0.21334789064E-02  0.55660870170E-02  0.31862555316E-02  0.67590887875E-02  0.00000000000E+00 0.  1.
<mgrwt>
<rscale>  1 0.64950255E+03</rscale>
<asrwt>0</asrwt>
<pdfrwt beam="1">  1        1 0.38352282E+00 0.64950255E+03</pdfrwt>
<pdfrwt beam="2">0</pdfrwt>
<totfact> 0.15833742E+00</totfact>
</mgrwt>
</event>
<event>
 6    1  0.3695885E-003  0.6390413E+03  0.7818608E-02  0.9827562E-01
          1   -1    0    0  502    0  0.00000000000E+00  0.00000000000E+00  0.10210713828E+03  0.10210713828E+03  0.00000000000E+00 0.  1.
         13   -1    0    0    0    0 -0.00000000000E+00 -0.00000000000E+00 -0.10000000000E+04  0.10000000000E+04  0.00000000000E+00 0.  1.
    9000005    2    1    2  501    0  0.14385465875E-01 -0.16272152943E-01 -0.89789634440E+03  0.11020851416E+04  0.63904132386E+03 0.  0.
         13    1    3    3    0    0 -0.57030693414E+02  0.10297919965E+03  0.63332776871E+02  0.13367219673E+03  0.00000000000E+00 0.  1.
          3    1    3    3  501    0  0.57045078880E+02 -0.10299547180E+03 -0.96122912127E+03  0.96841294488E+03  0.00000000000E+00 0.  1.
         21    1    1    2  502  501 -0.14385465875E-01  0.16272152943E-01  0.34826808930E-02  0.21996673750E-01  0.00000000000E+00 0. -1.
<mgrwt>
<rscale>  1 0.63904132E+03</rscale>
<asrwt>0</asrwt>
<pdfrwt beam="1">  1        1 0.37129947E+00 0.63904132E+03</pdfrwt>
<pdfrwt beam="2">0</pdfrwt>
<totfact> 0.17959066E+00</totfact>
</mgrwt>
</event>
<event>
 6    1  0.3695885E-003  0.6319021E+03  0.7818608E-02  0.9841344E-01
          1   -1    0    0  502    0  0.00000000000E+00  0.00000000000E+00  0.99991237507E+02  0.99991237507E+02  0.00000000000E+00 0.  1.
         13   -1    0    0    0    0 -0.00000000000E+00 -0.00000000000E+00 -0.10000000000E+04  0.10000000000E+04  0.00000000000E+00 0.  1.
    9000005    2    1    2  501    0 -0.10590929042E-02 -0.38203744614E-02 -0.90017489638E+03  0.10998250563E+04  0.63190213676E+03 0.  0.
         13    1    3    3    0    0 -0.28810391701E+03  0.12631867065E+03 -0.39890848577E+03  0.50802387106E+03  0.00000000000E+00 0.  1.
          1    1    3    3  501    0  0.28810285791E+03 -0.12632249103E+03 -0.50126641061E+03  0.59180118527E+03  0.00000000000E+00 0.  1.
         21    1    1    2  502  501  0.10590929042E-02  0.38203744614E-02  0.16613388361E+00  0.16618117890E+00  0.00000000000E+00 0.  1.
<mgrwt>
<rscale>  1 0.63190214E+03</rscale>
<asrwt>0</asrwt>
<pdfrwt beam="1">  1        1 0.36360527E+00 0.63190214E+03</pdfrwt>
<pdfrwt beam="2">0</pdfrwt>
<totfact> 0.19435759E+00</totfact>
</mgrwt>
</event>
<event>
 6    1  0.3695885E-003  0.6518362E+03  0.7818608E-02  0.9803340E-01
          1   -1    0    0  502    0  0.00000000000E+00  0.00000000000E+00  0.10751484245E+03  0.10751484245E+03  0.00000000000E+00 0.  1.
         13   -1    0    0    0    0 -0.00000000000E+00 -0.00000000000E+00 -0.10000000000E+04  0.10000000000E+04  0.00000000000E+00 0.  1.
    9000005    2    1    2  501    0  0.14179272107E+01  0.94740028964E+00 -0.89312314217E+03  0.11056940983E+04  0.65183401558E+03 0.  0.
         13    1    3    3    0    0 -0.17199522189E+03 -0.96324290521E+02 -0.67001410010E+01  0.19724506885E+03  0.00000000000E+00 0.  1.
          1    1    3    3  501    0  0.17341314910E+03  0.97271690811E+02 -0.88642300116E+03  0.90844902945E+03  0.00000000000E+00 0.  1.
         21    1    1    2  502  501 -0.14179272107E+01 -0.94740028964E+00  0.63798461869E+00  0.18207441493E+01  0.00000000000E+00 0. -1.
<mgrwt>
<rscale>  1 0.65183625E+03</rscale>
<asrwt>0</asrwt>
<pdfrwt beam="1">  1        1 0.39096389E+00 0.65183625E+03</pdfrwt>
<pdfrwt beam="2">0</pdfrwt>
<totfact> 0.14670526E+00</totfact>
</mgrwt>
</event>
<event>
 6    1  0.3695885E-003  0.6449860E+03  0.7818608E-02  0.9816233E-01
          1   -1    0    0  502    0  0.00000000000E+00  0.00000000000E+00  0.10400261527E+03  0.10400261527E+03  0.00000000000E+00 0.  1.
         13   -1    0    0    0    0 -0.00000000000E+00 -0.00000000000E+00 -0.10000000000E+04  0.10000000000E+04  0.00000000000E+00 0.  1.
    9000005    2    1    2  501    0  0.20273605543E-04 -0.15869574827E-03 -0.89599826339E+03  0.11040017222E+04  0.64498598011E+03 0.  0.
         13    1    3    3    0    0  0.24575838189E+03  0.20728254547E+03 -0.49124925516E+03  0.58710226249E+03  0.00000000000E+00 0.  1.
          1    1    3    3  501    0 -0.24575836161E+03 -0.20728270416E+03 -0.40474900823E+03  0.51689945967E+03  0.00000000000E+00 0.  1.
         21    1    1    2  502  501 -0.20273605546E-04  0.15869574828E-03  0.87866306037E-03  0.89310925046E-03  0.00000000000E+00 0. -1.
<mgrwt>
<rscale>  1 0.64498598E+03</rscale>
<asrwt>0</asrwt>
<pdfrwt beam="1">  1        1 0.37819213E+00 0.64498598E+03</pdfrwt>
<pdfrwt beam="2">0</pdfrwt>
<totfact> 0.16729182E+00</totfact>
</mgrwt>
</event>
<event>
 6    1  0.3695885E-003  0.6398076E+03  0.7818608E-02  0.9826095E-01
          1   -1    0    0  502    0  0.00000000000E+00  0.00000000000E+00  0.12468979500E+03  0.12468979500E+03  0.00000000000E+00 0.  1.
         13   -1    0    0    0    0 -0.00000000000E+00 -0.00000000000E+00 -0.10000000000E+04  0.10000000000E+04  0.00000000000E+00 0.  1.
    9000005    2    1    2  501    0 -0.14915194814E+02 -0.24549577706E+02 -0.88700250406E+03  0.10936760132E+04  0.63916244800E+03 0.  0.
         13    1    3    3    0    0 -0.25122098077E+03  0.12981021632E+03 -0.70036231333E+03  0.75529467321E+03  0.00000000000E+00 0.  1.
          3    1    3    3  501    0  0.23630578595E+03 -0.15435979403E+03 -0.18664019073E+03  0.33838134003E+03  0.00000000000E+00 0.  1.
         21    1    1    2  502  501  0.14915194814E+02  0.24549577706E+02  0.11692299063E+02  0.31013781763E+02  0.00000000000E+00 0. -1.
<mgrwt>
<rscale>  1 0.63980761E+03</rscale>
<asrwt>0</asrwt>
<pdfrwt beam="1">  1        1 0.45341839E+00 0.63980761E+03</pdfrwt>
<pdfrwt beam="2">0</pdfrwt>
<totfact> 0.76781217E-01</totfact>
</mgrwt>
</event>
<event>
 6    1  0.3695885E-003  0.6380031E+03  0.7818608E-02  0.9829555E-01
          1   -1    0    0  502    0  0.00000000000E+00  0.00000000000E+00  0.10178171694E+03  0.10178171694E+03  0.00000000000E+00 0.  1.
         13   -1    0    0    0    0 -0.00000000000E+00 -0.00000000000E+00 -0.10000000000E+04  0.10000000000E+04  0.00000000000E+00 0.  1.
    9000005    2    1    2  501    0 -0.13621922132E-01  0.11017491556E-01 -0.89823363350E+03  0.11017584236E+04  0.63800310611E+03 0.  0.
         13    1    3    3    0    0  0.16293771322E+03  0.24917962710E+03 -0.25129094335E+03  0.38959764266E+03  0.00000000000E+00 0.  1.
          1    1    3    3  501    0 -0.16295133514E+03 -0.24916860961E+03 -0.64694269014E+03  0.71216078098E+03  0.00000000000E+00 0.  1.
         21    1    1    2  502  501  0.13621922132E-01 -0.11017491556E-01  0.15350436152E-01  0.23293298882E-01  0.00000000000E+00 0. -1.
<mgrwt>
<rscale>  1 0.63800311E+03</rscale>
<asrwt>0</asrwt>
<pdfrwt beam="1">  1        1 0.37011611E+00 0.63800311E+03</pdfrwt>
<pdfrwt beam="2">0</pdfrwt>
<totfact> 0.18178777E+00</totfact>
</mgrwt>
</event>
<event>
 6    1  0.3695885E-003  0.6606559E+03  0.7818608E-02  0.9786987E-01
          1   -1    0    0  502    0  0.00000000000E+00  0.00000000000E+00  0.10912096221E+03  0.10912096221E+03  0.00000000000E+00 0.  1.
         13   -1    0    0    0    0 -0.00000000000E+00 -0.00000000000E+00 -0.10000000000E+04  0.10000000000E+04  0.00000000000E+00 0.  1.
    9000005    2    1    2  501    0 -0.67023830945E-03 -0.46334573187E-03 -0.89088341476E+03  0.11091165100E+04  0.66065586666E+03 0.  0.
         13    1    3    3    0    0 -0.95410925483E+02 -0.31604406994E+03 -0.42632615345E+03  0.53920412458E+03  0.00000000000E+00 0.  1.
          3    1    3    3  501    0  0.95410255245E+02  0.31604360659E+03 -0.46455726131E+03  0.56991238546E+03  0.00000000000E+00 0.  1.
         21    1    1    2  502  501  0.67023830946E-03  0.46334573189E-03  0.43769738388E-02  0.44521689820E-02  0.00000000000E+00 0. -1.
<mgrwt>
<rscale>  1 0.66065587E+03</rscale>
<asrwt>0</asrwt>
<pdfrwt beam="1">  1        1 0.39680434E+00 0.66065587E+03</pdfrwt>
<pdfrwt beam="2">0</pdfrwt>
<totfact> 0.13796771E+00</totfact>
</mgrwt>
</event>
<event>
 6    1  0.3695885E-003  0.6301445E+03  0.7818608E-02  0.9844767E-01
          1   -1    0    0  502    0  0.00000000000E+00  0.00000000000E+00  0.99898628653E+02  0.99898628653E+02  0.00000000000E+00 0.  1.
         13   -1    0    0    0    0 -0.00000000000E+00 -0.00000000000E+00 -0.10000000000E+04  0.10000000000E+04  0.00000000000E+00 0.  1.
    9000005    2    1    2  501    0 -0.52693122149E+00 -0.32161058735E+00 -0.90055854226E+03  0.10991304522E+04  0.63014417536E+03 0.  0.
         13    1    3    3    0    0  0.15133961789E+03 -0.11749535195E+03 -0.88631469638E+03  0.90678695331E+03  0.00000000000E+00 0.  1.
          1    1    3    3  501    0 -0.15186654911E+03  0.11717374136E+03 -0.14243845877E+02  0.19234349885E+03  0.00000000000E+00 0.  1.
         21    1    1    2  502  501  0.52693122149E+00  0.32161058735E+00  0.45717091269E+00  0.76817649371E+00  0.00000000000E+00 0.  1.
<mgrwt>
<rscale>  1 0.63014448E+03</rscale>
<asrwt>0</asrwt>
<pdfrwt beam="1">  1        1 0.36326851E+00 0.63014448E+03</pdfrwt>
<pdfrwt beam="2">0</pdfrwt>
<totfact> 0.19508088E+00</totfact>
</mgrwt>
</event>
<event>
 6    1  0.3695885E-003  0.6454126E+03  0.7818608E-02  0.9815425E-01
          1   -1    0    0  502    0  0.00000000000E+00  0.00000000000E+00  0.10506343911E+03  0.10506343911E+03  0.00000000000E+00 0.  1.
         13   -1    0    0    0    0 -0.00000000000E+00 -0.00000000000E+00 -0.10000000000E+04  0.10000000000E+04  0.00000000000E+00 0.  1.
    9000005    2    1    2  501    0 -0.94680821757E-02  0.22900180247E-01 -0.89586046368E+03  0.11041392041E+04  0.64541258969E+03 0.  0.
         13    1    3    3    0    0 -0.28349970257E+03  0.10890457848E+03 -0.63465806390E+03  0.70357881338E+03  0.00000000000E+00 0.  1.
          1    1    3    3  501    0  0.28349023449E+03 -0.10888167830E+03 -0.26120239979E+03  0.40056039067E+03  0.00000000000E+00 0.  1.
         21    1    1    2  502  501  0.94680821756E-02 -0.22900180247E-01  0.92390279837E+00  0.92423505867E+00  0.00000000000E+00 0.  1.
<mgrwt>
<rscale>  1 0.64541259E+03</rscale>
<asrwt>0</asrwt>
<pdfrwt beam="1">  1        1 0.38204968E+00 0.64541259E+03</pdfrwt>
<pdfrwt beam="2">0</pdfrwt>
<totfact> 0.16084957E+00</totfact>
</mgrwt>
</event>
<event>
 6    1  0.3695885E-003  0.6564815E+03  0.7818608E-02  0.9794693E-01
          1   -1    0    0  502    0  0.00000000000E+00  0.00000000000E+00  0.10775277370E+03  0.10775277370E+03  0.00000000000E+00 0.  1.
         13   -1    0    0    0    0 -0.00000000000E+00 -0.00000000000E+00 -0.10000000000E+04  0.10000000000E+04  0.00000000000E+00 0.  1.
    9000005    2    1    2  501    0 -0.16585396098E-02 -0.15138637910E-02 -0.89225788200E+03  0.11077418840E+04  0.65648149515E+03 0.  0.
         13    1    3    3    0    0 -0.89502683107E+02  0.92335560748E+02  0.63467486885E+02  0.14340400257E+03  0.00000000000E+00 0.  1.
          3    1    3    3  501    0  0.89501024567E+02 -0.92337074611E+02 -0.95572536889E+03  0.96433788139E+03  0.00000000000E+00 0.  1.
         21    1    1    2  502  501  0.16585396098E-02  0.15138637910E-02  0.10655696943E-01  0.10889738957E-01  0.00000000000E+00 0. -1.
<mgrwt>
<rscale>  1 0.65648150E+03</rscale>
<asrwt>0</asrwt>
<pdfrwt beam="1">  1        1 0.39182909E+00 0.65648150E+03</pdfrwt>
<pdfrwt beam="2">0</pdfrwt>
<totfact> 0.14528831E+00</totfact>
</mgrwt>
</event>
<event>
 6    1  0.3695885E-003  0.6457368E+03  0.7818608E-02  0.9814812E-01
          1   -1    0    0  502    0  0.00000000000E+00  0.00000000000E+00  0.10503577907E+03  0.10503577907E+03  0.00000000000E+00 0.  1.
         13   -1    0    0    0    0 -0.00000000000E+00 -0.00000000000E+00 -0.10000000000E+04  0.10000000000E+04  0.00000000000E+00 0.  1.
    9000005    2    1    2  501    0 -0.37605002022E+00  0.87986068636E-01 -0.89570366133E+03  0.11042015565E+04  0.64573669506E+03 0.  0.
         13    1    3    3    0    0 -0.99056215997E+02  0.14593526384E+03 -0.91055672233E+03  0.92748195655E+03  0.00000000000E+00 0.  1.
          1    1    3    3  501    0  0.98680165976E+02 -0.14584727777E+03  0.14853060998E+02  0.17671959996E+03  0.00000000000E+00 0.  1.
         21    1    1    2  502  501  0.37605002022E+00 -0.87986068636E-01  0.73944040033E+00  0.83422255521E+00  0.00000000000E+00 0. -1.
<mgrwt>
<rscale>  1 0.64573681E+03</rscale>
<asrwt>0</asrwt>
<pdfrwt beam="1">  1        1 0.38194909E+00 0.64573681E+03</pdfrwt>
<pdfrwt beam="2">0</pdfrwt>
<totfact> 0.16100452E+00</totfact>
</mgrwt>
</event>
<event>
 6    1  0.3695885E-003  0.6565937E+03  0.7818608E-02  0.9794485E-01
          1   -1    0    0  502    0  0.00000000000E+00  0.00000000000E+00  0.10783527007E+03  0.10783527007E+03  0.00000000000E+00 0.  1.
         13   -1    0    0    0    0 -0.00000000000E+00 -0.00000000000E+00 -0.10000000000E+04  0.10000000000E+04  0.00000000000E+00 0.  1.
    9000005    2    1    2  501    0 -0.18638224870E-01  0.11290866283E-02 -0.89221947693E+03  0.11077774264E+04  0.65659365748E+03 0.  0.
         13    1    3    3    0    0  0.29292206973E+03  0.12885387676E+03 -0.56969771729E+03  0.65342340758E+03  0.00000000000E+00 0.  1.
          1    1    3    3  501    0 -0.29294070796E+03 -0.12885274767E+03 -0.32252175964E+03  0.45435401880E+03  0.00000000000E+00 0.  1.
         21    1    1    2  502  501  0.18638224870E-01 -0.11290866283E-02  0.54746996069E-01  0.57843684543E-01  0.00000000000E+00 0. -1.
<mgrwt>
<rscale>  1 0.65659366E+03</rscale>
<asrwt>0</asrwt>
<pdfrwt beam="1">  1        1 0.39212908E+00 0.65659366E+03</pdfrwt>
<pdfrwt beam="2">0</pdfrwt>
<totfact> 0.14484043E+00</totfact>
</mgrwt>
</event>
<event>
 6    1  0.3695885E-003  0.6522597E+03  0.7818608E-02  0.9802548E-01
          1   -1    0    0  502    0  0.00000000000E+00  0.00000000000E+00  0.10712106344E+03  0.10712106344E+03  0.00000000000E+00 0.  1.
         13   -1    0    0    0    0 -0.00000000000E+00 -0.00000000000E+00 -0.10000000000E+04  0.10000000000E+04  0.00000000000E+00 0.  1.
    9000005    2    1    2  501    0 -0.19231756476E-01 -0.10859236632E+00 -0.89363489355E+03  0.11063571046E+04  0.65225969346E+03 0.  0.
         13    1    3    3    0    0  0.11859755997E+03  0.74053929201E+01  0.68332554312E+02  0.13707501251E+03  0.00000000000E+00 0.  1.
          3    1    3    3  501    0 -0.11861679173E+03 -0.75139852864E+01 -0.96196744787E+03  0.96928209207E+03  0.00000000000E+00 0.  1.
         21    1    1    2  502  501  0.19231756476E-01  0.10859236632E+00  0.75595699583E+00  0.76395886148E+00  0.00000000000E+00 0. -1.
<mgrwt>
<rscale>  1 0.65225970E+03</rscale>
<asrwt>0</asrwt>
<pdfrwt beam="1">  1        1 0.38953196E+00 0.65225970E+03</pdfrwt>
<pdfrwt beam="2">0</pdfrwt>
<totfact> 0.14885447E+00</totfact>
</mgrwt>
</event>
<event>
 6    1  0.3695885E-003  0.6441019E+03  0.7818608E-02  0.9817910E-01
          1   -1    0    0  502    0  0.00000000000E+00  0.00000000000E+00  0.10371718250E+03  0.10371718250E+03  0.00000000000E+00 0.  1.
         13   -1    0    0    0    0 -0.00000000000E+00 -0.00000000000E+00 -0.10000000000E+04  0.10000000000E+04  0.00000000000E+00 0.  1.
    9000005    2    1    2  501    0 -0.25912291326E-03  0.57275297507E-04 -0.89628314309E+03  0.11037167625E+04  0.64410187017E+03 0.  0.
         13    1    3    3    0    0 -0.63864686074E+02  0.34374516212E+02  0.89540160928E+02  0.11522910184E+03  0.00000000000E+00 0.  1.
          1    1    3    3  501    0  0.63864426951E+02 -0.34374458937E+02 -0.98582330402E+03  0.98848766062E+03  0.00000000000E+00 0.  1.
         21    1    1    2  502  501  0.25912291325E-03 -0.57275297511E-04  0.32558838518E-03  0.42003921298E-03  0.00000000000E+00 0. -1.
<mgrwt>
<rscale>  1 0.64410187E+03</rscale>
<asrwt>0</asrwt>
<pdfrwt beam="1">  1        1 0.37715419E+00 0.64410187E+03</pdfrwt>
<pdfrwt beam="2">0</pdfrwt>
<totfact> 0.16909066E+00</totfact>
</mgrwt>
</event>
