<event>
 6    1  0.1284012E-001  0.3000000E+03  0.7818608E-02  0.1093470E+00
         21   -1    0    0  501  502  0.00000000000E+00  0.00000000000E+00  0.94450046012E+00  0.94450046012E+00  0.00000000000E+00 0. -1.
         13   -1    0    0    0    0 -0.00000000000E+00 -0.00000000000E+00 -0.10000000000E+04  0.10000000000E+04  0.00000000000E+00 0.  1.
    9000005    2    1    2  501    0  0.28632350333E+02  0.10452674126E+02 -0.44624234550E+03  0.44729167318E+03  0.29223435535E+01 0.  0.
         13    1    3    3    0    0  0.11374270287E+02  0.51039911212E+01 -0.16599827835E+03  0.16646577175E+03  0.00000000000E+00 0.  1.
          1    1    3    3  501    0  0.17258080046E+02  0.53486830045E+01 -0.28024406716E+03  0.28082590143E+03  0.00000000000E+00 0.  1.
         -1    1    1    2    0  502 -0.28632350333E+02 -0.10452674126E+02 -0.55281315404E+03  0.55365282728E+03  0.00000000000E+00 0. -1.
<mgrwt>
<rscale>  1 0.30000000E+03</rscale>
<asrwt>0</asrwt>
<pdfrwt beam="1">  1       21 0.34345544E-02 0.30000000E+03</pdfrwt>
<pdfrwt beam="2">0</pdfrwt>
<totfact> 0.54305267E+04</totfact>
</mgrwt>
</event>
<event>
 6    1  0.1284012E-001  0.3000000E+03  0.7818608E-02  0.1093470E+00
         21   -1    0    0  501  502  0.00000000000E+00  0.00000000000E+00  0.36753358599E+01  0.36753358599E+01  0.00000000000E+00 0. -1.
         13   -1    0    0    0    0 -0.00000000000E+00 -0.00000000000E+00 -0.10000000000E+04  0.10000000000E+04  0.00000000000E+00 0.  1.
    9000005    2    1    2  501    0  0.33041359730E+02  0.25214585596E+02 -0.86322965150E+03  0.86424151941E+03  0.45239216036E+01 0.  0.
         13    1    3    3    0    0  0.11179599780E+02  0.96811072922E+01 -0.26743038470E+03  0.26783897765E+03  0.00000000000E+00 0.  1.
          3    1    3    3  501    0  0.21861759950E+02  0.15533478304E+02 -0.59579926680E+03  0.59640254176E+03  0.00000000000E+00 0.  1.
         -1    1    1    2    0  502 -0.33041359730E+02 -0.25214585596E+02 -0.13309501264E+03  0.13943381645E+03  0.00000000000E+00 0. -1.
<mgrwt>
<rscale>  1 0.30000000E+03</rscale>
<asrwt>0</asrwt>
<pdfrwt beam="1">  1       21 0.13364886E-01 0.30000000E+03</pdfrwt>
<pdfrwt beam="2">0</pdfrwt>
<totfact> 0.50922156E+03</totfact>
</mgrwt>
</event>
<event>
 6    1  0.1284012E-001  0.3000000E+03  0.7818608E-02  0.1093470E+00
         21   -1    0    0  501  502  0.00000000000E+00  0.00000000000E+00  0.21071437659E+01  0.21071437659E+01  0.00000000000E+00 0. -1.
         13   -1    0    0    0    0 -0.00000000000E+00 -0.00000000000E+00 -0.10000000000E+04  0.10000000000E+04  0.00000000000E+00 0.  1.
    9000005    2    1    2  501    0  0.34954120993E+02  0.11433369179E+02 -0.79654268114E+03  0.79742591474E+03  0.74386904731E+01 0.  0.
         13    1    3    3    0    0  0.30855315964E+02  0.92130205961E+01 -0.63496187049E+03  0.63577787572E+03  0.00000000000E+00 0.  1.
          1    1    3    3  501    0  0.40988050290E+01  0.22203485828E+01 -0.16158081065E+03  0.16164803902E+03  0.00000000000E+00 0.  1.
         -3    1    1    2    0  502 -0.34954120993E+02 -0.11433369179E+02 -0.20135017509E+03  0.20468122903E+03  0.00000000000E+00 0. -1.
<mgrwt>
<rscale>  1 0.30000000E+03</rscale>
<asrwt>0</asrwt>
<pdfrwt beam="1">  1       21 0.76623571E-02 0.30000000E+03</pdfrwt>
<pdfrwt beam="2">0</pdfrwt>
<totfact> 0.13777767E+04</totfact>
</mgrwt>
</event>
<event>
 6    1  0.1284012E-001  0.3000000E+03  0.7818608E-02  0.1093470E+00
         21   -1    0    0  501  502  0.00000000000E+00  0.00000000000E+00  0.12908908789E+01  0.12908908789E+01  0.00000000000E+00 0. -1.
         13   -1    0    0    0    0 -0.00000000000E+00 -0.00000000000E+00 -0.10000000000E+04  0.10000000000E+04  0.00000000000E+00 0.  1.
    9000005    2    1    2  501    0  0.34018947436E+02  0.10559718115E+02 -0.55677354148E+03  0.55792214776E+03  0.33985341145E+01 0.  0.
         13    1    3    3    0    0  0.82853333243E+01  0.14066784019E+01 -0.11726241709E+03  0.11756317432E+03  0.00000000000E+00 0.  1.
          3    1    3    3  501    0  0.25733614111E+02  0.91530397132E+01 -0.43951112439E+03  0.44035897344E+03  0.00000000000E+00 0.  1.
         -3    1    1    2    0  502 -0.34018947436E+02 -0.10559718115E+02 -0.44193556764E+03  0.44336874312E+03  0.00000000000E+00 0. -1.
<mgrwt>
<rscale>  1 0.30000000E+03</rscale>
<asrwt>0</asrwt>
<pdfrwt beam="1">  1       21 0.46941585E-02 0.30000000E+03</pdfrwt>
<pdfrwt beam="2">0</pdfrwt>
<totfact> 0.32072075E+04</totfact>
</mgrwt>
</event>
<event>
 6    1  0.1284012E-001  0.3000000E+03  0.7818608E-02  0.1093470E+00
         21   -1    0    0  501  502  0.00000000000E+00  0.00000000000E+00  0.96226452941E+00  0.96226452941E+00  0.00000000000E+00 0. -1.
         13   -1    0    0    0    0 -0.00000000000E+00 -0.00000000000E+00 -0.10000000000E+04  0.10000000000E+04  0.00000000000E+00 0.  1.
    9000005    2    1    2  501    0 -0.12034945575E+02 -0.28521358449E+02 -0.48843147870E+03  0.48941846655E+03  0.26111697782E+01 0.  0.
         13    1    3    3    0    0 -0.71054323976E+01 -0.19905673073E+02 -0.33617231798E+03  0.33683608828E+03  0.00000000000E+00 0.  1.
          1    1    3    3  501    0 -0.49295131778E+01 -0.86156853769E+01 -0.15225916072E+03  0.15258237827E+03  0.00000000000E+00 0.  1.
         -1    1    1    2    0  502  0.12034945575E+02  0.28521358449E+02 -0.51060625677E+03  0.51154379798E+03  0.00000000000E+00 0. -1.
<mgrwt>
<rscale>  1 0.30000000E+03</rscale>
<asrwt>0</asrwt>
<pdfrwt beam="1">  1       21 0.34991511E-02 0.30000000E+03</pdfrwt>
<pdfrwt beam="2">0</pdfrwt>
<totfact> 0.52638183E+04</totfact>
</mgrwt>
</event>
<event>
 6    1  0.1284012E-001  0.3000000E+03  0.7818608E-02  0.1093470E+00
         21   -1    0    0  501  502  0.00000000000E+00  0.00000000000E+00  0.14587690613E+01  0.14587690613E+01  0.00000000000E+00 0. -1.
         13   -1    0    0    0    0 -0.00000000000E+00 -0.00000000000E+00 -0.10000000000E+04  0.10000000000E+04  0.00000000000E+00 0.  1.
    9000005    2    1    2  501    0  0.34934855358E+02 -0.21023878402E+01 -0.69762648160E+03  0.69851562171E+03  0.40622406439E+01 0.  0.
         13    1    3    3    0    0  0.30065935726E+02 -0.53449285158E+00 -0.60830347588E+03  0.60904627488E+03  0.00000000000E+00 0.  1.
          1    1    3    3  501    0  0.48689196325E+01 -0.15678949886E+01 -0.89323005718E+02  0.89469346838E+02  0.00000000000E+00 0.  1.
         -1    1    1    2    0  502 -0.34934855358E+02  0.21023878402E+01 -0.30091474934E+03  0.30294314735E+03  0.00000000000E+00 0. -1.
<mgrwt>
<rscale>  1 0.30000000E+03</rscale>
<asrwt>0</asrwt>
<pdfrwt beam="1">  1       21 0.53046260E-02 0.30000000E+03</pdfrwt>
<pdfrwt beam="2">0</pdfrwt>
<totfact> 0.26037981E+04</totfact>
</mgrwt>
</event>
<event>
 6    1  0.1284012E-001  0.3000000E+03  0.7818608E-02  0.1093470E+00
         21   -1    0    0  501  502  0.00000000000E+00  0.00000000000E+00  0.99167083805E+00  0.99167083805E+00  0.00000000000E+00 0. -1.
         13   -1    0    0    0    0 -0.00000000000E+00 -0.00000000000E+00 -0.10000000000E+04  0.10000000000E+04  0.00000000000E+00 0.  1.
    9000005    2    1    2  501    0 -0.87296779542E-01 -0.31237691479E+02 -0.54748645351E+03  0.54839051620E+03  0.38652928508E+01 0.  0.
         13    1    3    3    0    0 -0.15375840790E+01 -0.10085275573E+02 -0.19568040804E+03  0.19594616362E+03  0.00000000000E+00 0.  1.
          1    1    3    3  501    0  0.14502872995E+01 -0.21152415906E+02 -0.35180604547E+03  0.35244435258E+03  0.00000000000E+00 0.  1.
         -1    1    1    2    0  502  0.87296779542E-01  0.31237691479E+02 -0.45152187565E+03  0.45260115464E+03  0.00000000000E+00 0. -1.
<mgrwt>
<rscale>  1 0.30000000E+03</rscale>
<asrwt>0</asrwt>
<pdfrwt beam="1">  1       21 0.36060834E-02 0.30000000E+03</pdfrwt>
<pdfrwt beam="2">0</pdfrwt>
<totfact> 0.50048401E+04</totfact>
</mgrwt>
</event>
<event>
 6    1  0.1284012E-001  0.3000000E+03  0.7818608E-02  0.1093470E+00
         21   -1    0    0  501  502  0.00000000000E+00  0.00000000000E+00  0.20262529112E+01  0.20262529112E+01  0.00000000000E+00 0. -1.
         13   -1    0    0    0    0 -0.00000000000E+00 -0.00000000000E+00 -0.10000000000E+04  0.10000000000E+04  0.00000000000E+00 0.  1.
    9000005    2    1    2  501    0  0.20497825918E+02 -0.27624036830E+02 -0.82180695412E+03  0.82253255602E+03  0.31444549956E+01 0.  0.
         13    1    3    3    0    0  0.10188945455E+02 -0.12991616210E+02 -0.35854074652E+03  0.35892069265E+03  0.00000000000E+00 0.  1.
          1    1    3    3  501    0  0.10308880463E+02 -0.14632420621E+02 -0.46326620761E+03  0.46361186337E+03  0.00000000000E+00 0.  1.
         -3    1    1    2    0  502 -0.20497825918E+02  0.27624036830E+02 -0.17616679297E+03  0.17949369689E+03  0.00000000000E+00 0. -1.
<mgrwt>
<rscale>  1 0.30000000E+03</rscale>
<asrwt>0</asrwt>
<pdfrwt beam="1">  1       21 0.73682079E-02 0.30000000E+03</pdfrwt>
<pdfrwt beam="2">0</pdfrwt>
<totfact> 0.14755163E+04</totfact>
</mgrwt>
</event>
<event>
 6    1  0.1284012E-001  0.3000000E+03  0.7818608E-02  0.1093470E+00
         21   -1    0    0  501  502  0.00000000000E+00  0.00000000000E+00  0.91851357147E+00  0.91851357147E+00  0.00000000000E+00 0. -1.
         13   -1    0    0    0    0 -0.00000000000E+00 -0.00000000000E+00 -0.10000000000E+04  0.10000000000E+04  0.00000000000E+00 0.  1.
    9000005    2    1    2  501    0  0.26514934962E+02 -0.14123072887E+02 -0.55536027827E+03  0.55618149742E+03  0.32119201031E+01 0.  0.
         13    1    3    3    0    0  0.12934985232E+02 -0.60129550052E+01 -0.28932811379E+03  0.28967952448E+03  0.00000000000E+00 0.  1.
          1    1    3    3  501    0  0.13579949730E+02 -0.81101178814E+01 -0.26603216448E+03  0.26650197295E+03  0.00000000000E+00 0.  1.
         -1    1    1    2    0  502 -0.26514934962E+02  0.14123072887E+02 -0.44372120816E+03  0.44473701615E+03  0.00000000000E+00 0. -1.
<mgrwt>
<rscale>  1 0.30000000E+03</rscale>
<asrwt>0</asrwt>
<pdfrwt beam="1">  1       21 0.33400564E-02 0.30000000E+03</pdfrwt>
<pdfrwt beam="2">0</pdfrwt>
<totfact> 0.56896457E+04</totfact>
</mgrwt>
</event>
<event>
 6    1  0.1284012E-001  0.3000000E+03  0.7818608E-02  0.1093470E+00
         21   -1    0    0  501  502  0.00000000000E+00  0.00000000000E+00  0.10794549001E+01  0.10794549001E+01  0.00000000000E+00 0. -1.
         13   -1    0    0    0    0 -0.00000000000E+00 -0.00000000000E+00 -0.10000000000E+04  0.10000000000E+04  0.00000000000E+00 0.  1.
    9000005    2    1    2  501    0 -0.19741107937E+02  0.23123967521E+02 -0.68485387578E+03  0.68554450914E+03  0.46918682962E+01 0.  0.
         13    1    3    3    0    0 -0.15739023301E+02  0.17643904109E+02 -0.48583975113E+03  0.48641472838E+03  0.00000000000E+00 0.  1.
          3    1    3    3  501    0 -0.40020846352E+01  0.54800634125E+01 -0.19901412465E+03  0.19912978076E+03  0.00000000000E+00 0.  1.
         -3    1    1    2    0  502  0.19741107937E+02 -0.23123967521E+02 -0.31406666932E+03  0.31553494576E+03  0.00000000000E+00 0. -1.
<mgrwt>
<rscale>  1 0.30000000E+03</rscale>
<asrwt>0</asrwt>
<pdfrwt beam="1">  1       21 0.39252988E-02 0.30000000E+03</pdfrwt>
<pdfrwt beam="2">0</pdfrwt>
<totfact> 0.43402985E+04</totfact>
</mgrwt>
</event>
<event>
 6    1  0.1284012E-001  0.3000000E+03  0.7818608E-02  0.1093470E+00
         21   -1    0    0  501  502  0.00000000000E+00  0.00000000000E+00  0.82769648053E+01  0.82769648053E+01  0.00000000000E+00 0. -1.
         13   -1    0    0    0    0 -0.00000000000E+00 -0.00000000000E+00 -0.10000000000E+04  0.10000000000E+04  0.00000000000E+00 0.  1.
    9000005    2    1    2  501    0  0.37489696343E+02 -0.86803234679E+01 -0.95266278050E+03  0.95344514152E+03  0.32309753627E+01 0.  0.
         13    1    3    3    0    0  0.67867123680E+01 -0.26780638635E+01 -0.19701059342E+03  0.19714564518E+03  0.00000000000E+00 0.  1.
          3    1    3    3  501    0  0.30702983975E+02 -0.60022596044E+01 -0.75565218707E+03  0.75629949635E+03  0.00000000000E+00 0.  1.
         -1    1    1    2    0  502 -0.37489696343E+02  0.86803234679E+01 -0.39060254697E+02  0.54831823282E+02  0.00000000000E+00 0. -1.
<mgrwt>
<rscale>  1 0.30000000E+03</rscale>
<asrwt>0</asrwt>
<pdfrwt beam="1">  1       21 0.30098117E-01 0.30000000E+03</pdfrwt>
<pdfrwt beam="2">0</pdfrwt>
<totfact> 0.10801989E+03</totfact>
</mgrwt>
</event>
<event>
 6    1  0.1284012E-001  0.3000000E+03  0.7818608E-02  0.1093470E+00
         21   -1    0    0  501  502  0.00000000000E+00  0.00000000000E+00  0.11487765783E+01  0.11487765783E+01  0.00000000000E+00 0. -1.
         13   -1    0    0    0    0 -0.00000000000E+00 -0.00000000000E+00 -0.10000000000E+04  0.10000000000E+04  0.00000000000E+00 0.  1.
    9000005    2    1    2  501    0 -0.31535140971E+02 -0.12950699732E+01 -0.68020360923E+03  0.68094189915E+03  0.29627160440E+01 0.  0.
         13    1    3    3    0    0 -0.16445699668E+02  0.62985251536E+00 -0.33841698208E+03  0.33881692920E+03  0.00000000000E+00 0.  1.
          1    1    3    3  501    0 -0.15089441302E+02 -0.19249224885E+01 -0.34178662715E+03  0.34212496995E+03  0.00000000000E+00 0.  1.
         -1    1    1    2    0  502  0.31535140971E+02  0.12950699732E+01 -0.31864761419E+03  0.32020687743E+03  0.00000000000E+00 0. -1.
<mgrwt>
<rscale>  1 0.30000000E+03</rscale>
<asrwt>0</asrwt>
<pdfrwt beam="1">  1       21 0.41773782E-02 0.30000000E+03</pdfrwt>
<pdfrwt beam="2">0</pdfrwt>
<totfact> 0.39081193E+04</totfact>
</mgrwt>
</event>
<event>
 6    1  0.1284012E-001  0.3000000E+03  0.7818608E-02  0.1093470E+00
         21   -1    0    0  501  502  0.00000000000E+00  0.00000000000E+00  0.23659919449E+01  0.23659919449E+01  0.00000000000E+00 0. -1.
         13   -1    0    0    0    0 -0.00000000000E+00 -0.00000000000E+00 -0.10000000000E+04  0.10000000000E+04  0.00000000000E+00 0.  1.
    9000005    2    1    2  501    0  0.35424743323E+02  0.18889011514E+02 -0.78135970796E+03  0.78239717580E+03  0.32619438232E+01 0.  0.
         13    1    3    3    0    0  0.11125379569E+01  0.27869076076E-01 -0.18786507609E+02  0.18819441691E+02  0.00000000000E+00 0.  1.
          1    1    3    3  501    0  0.34312205366E+02  0.18861142438E+02 -0.76257320035E+03  0.76357773411E+03  0.00000000000E+00 0.  1.
         -1    1    1    2    0  502 -0.35424743323E+02 -0.18889011514E+02 -0.21627430010E+03  0.21996881615E+03  0.00000000000E+00 0. -1.
<mgrwt>
<rscale>  1 0.30000000E+03</rscale>
<asrwt>0</asrwt>
<pdfrwt beam="1">  1       21 0.86036252E-02 0.30000000E+03</pdfrwt>
<pdfrwt beam="2">0</pdfrwt>
<totfact> 0.11238428E+04</totfact>
</mgrwt>
</event>
<event>
 6    1  0.1284012E-001  0.3000000E+03  0.7818608E-02  0.1093470E+00
         21   -1    0    0  501  502  0.00000000000E+00  0.00000000000E+00  0.20549545918E+01  0.20549545918E+01  0.00000000000E+00 0. -1.
         13   -1    0    0    0    0 -0.00000000000E+00 -0.00000000000E+00 -0.10000000000E+04  0.10000000000E+04  0.00000000000E+00 0.  1.
    9000005    2    1    2  501    0 -0.87910903006E+01 -0.35942621951E+02 -0.78787940803E+03  0.78875533587E+03  0.34442587272E+01 0.  0.
         13    1    3    3    0    0 -0.44310248483E+01 -0.13575891201E+02 -0.33121863851E+03  0.33152635687E+03  0.00000000000E+00 0.  1.
          1    1    3    3  501    0 -0.43600654524E+01 -0.22366730750E+02 -0.45666076952E+03  0.45722897900E+03  0.00000000000E+00 0.  1.
         -3    1    1    2    0  502  0.87910903006E+01  0.35942621951E+02 -0.21006563737E+03  0.21329961872E+03  0.00000000000E+00 0. -1.
<mgrwt>
<rscale>  1 0.30000000E+03</rscale>
<asrwt>0</asrwt>
<pdfrwt beam="1">  1       21 0.74725779E-02 0.30000000E+03</pdfrwt>
<pdfrwt beam="2">0</pdfrwt>
<totfact> 0.14396491E+04</totfact>
</mgrwt>
</event>
<event>
 6    1  0.1284012E-001  0.3000000E+03  0.7818608E-02  0.1093470E+00
         21   -1    0    0  501  502  0.00000000000E+00  0.00000000000E+00  0.17884386009E+01  0.17884386009E+01  0.00000000000E+00 0. -1.
         13   -1    0    0    0    0 -0.00000000000E+00 -0.00000000000E+00 -0.10000000000E+04  0.10000000000E+04  0.00000000000E+00 0.  1.
    9000005    2    1    2  501    0 -0.35393765948E+02  0.13511894194E+02 -0.72000566087E+03  0.72101484112E+03  0.43542483695E+01 0.  0.
         13    1    3    3    0    0 -0.19195604263E+02  0.49996917070E+01 -0.37424287007E+03  0.37476818694E+03  0.00000000000E+00 0.  1.
          3    1    3    3  501    0 -0.16198161685E+02  0.85122024868E+01 -0.34576279080E+03  0.34624665418E+03  0.00000000000E+00 0.  1.
         -1    1    1    2    0  502  0.35393765948E+02 -0.13511894194E+02 -0.27820590053E+03  0.28077359748E+03  0.00000000000E+00 0. -1.
<mgrwt>
<rscale>  1 0.30000000E+03</rscale>
<asrwt>0</asrwt>
<pdfrwt beam="1">  1       21 0.65034268E-02 0.30000000E+03</pdfrwt>
<pdfrwt beam="2">0</pdfrwt>
<totfact> 0.18333307E+04</totfact>
</mgrwt>
</event>
<event>
 6    1  0.1284012E-001  0.3000000E+03  0.7818608E-02  0.1093470E+00
         21   -1    0    0  501  502  0.00000000000E+00  0.00000000000E+00  0.36831527552E+01  0.36831527552E+01  0.00000000000E+00 0. -1.
         13   -1    0    0    0    0 -0.00000000000E+00 -0.00000000000E+00 -0.10000000000E+04  0.10000000000E+04  0.00000000000E+00 0.  1.
    9000005    2    1    2  501    0  0.57930209106E+02  0.19700441505E+01 -0.64626470974E+03  0.64886448192E+03  0.26927016340E+01 0.  0.
         13    1    3    3    0    0  0.51408068719E+02  0.94621174913E+00 -0.57595784013E+03  0.57824831903E+03  0.00000000000E+00 0.  1.
          1    1    3    3  501    0  0.65221403867E+01  0.10238324013E+01 -0.70306869602E+02  0.70616162890E+02  0.00000000000E+00 0.  1.
         -1    1    1    2    0  502 -0.57930209106E+02 -0.19700441505E+01 -0.35005213751E+03  0.35481867084E+03  0.00000000000E+00 0. -1.
<mgrwt>
<rscale>  1 0.30000000E+03</rscale>
<asrwt>0</asrwt>
<pdfrwt beam="1">  1       21 0.13393311E-01 0.30000000E+03</pdfrwt>
<pdfrwt beam="2">0</pdfrwt>
<totfact> 0.50724542E+03</totfact>
</mgrwt>
</event>
<event>
 6    1  0.1284012E-001  0.3000000E+03  0.7818608E-02  0.1093470E+00
         21   -1    0    0  501  502  0.00000000000E+00  0.00000000000E+00  0.19735740675E+01  0.19735740675E+01  0.00000000000E+00 0. -1.
         13   -1    0    0    0    0 -0.00000000000E+00 -0.00000000000E+00 -0.10000000000E+04  0.10000000000E+04  0.00000000000E+00 0.  1.
    9000005    2    1    2  501    0 -0.42383807981E+02 -0.13003241009E+02 -0.52077730271E+03  0.52266970691E+03  0.30252351105E+01 0.  0.
         13    1    3    3    0    0 -0.39505135547E+02 -0.11406528852E+02 -0.47722772087E+03  0.47899588954E+03  0.00000000000E+00 0.  1.
          3    1    3    3  501    0 -0.28786724341E+01 -0.15967121565E+01 -0.43549581839E+02  0.43673817363E+02  0.00000000000E+00 0.  1.
         -3    1    1    2    0  502  0.42383807981E+02  0.13003241009E+02 -0.47724912323E+03  0.47930386716E+03  0.00000000000E+00 0. -1.
<mgrwt>
<rscale>  1 0.30000000E+03</rscale>
<asrwt>0</asrwt>
<pdfrwt beam="1">  1       21 0.71766481E-02 0.30000000E+03</pdfrwt>
<pdfrwt beam="2">0</pdfrwt>
<totfact> 0.15449711E+04</totfact>
</mgrwt>
</event>
<event>
 6    1  0.1284012E-001  0.3000000E+03  0.7818608E-02  0.1093470E+00
         21   -1    0    0  501  502  0.00000000000E+00  0.00000000000E+00  0.49151190754E+01  0.49151190754E+01  0.00000000000E+00 0. -1.
         13   -1    0    0    0    0 -0.00000000000E+00 -0.00000000000E+00 -0.10000000000E+04  0.10000000000E+04  0.00000000000E+00 0.  1.
    9000005    2    1    2  501    0  0.30316037825E+02  0.17877227277E+02 -0.93202243744E+03  0.93269649833E+03  0.42751253158E+01 0.  0.
         13    1    3    3    0    0  0.29493794571E+00 -0.13507246958E+00 -0.37234416612E+01  0.37375460891E+01  0.00000000000E+00 0.  1.
          1    1    3    3  501    0  0.30021099879E+02  0.18012299747E+02 -0.92829899578E+03  0.92895895224E+03  0.00000000000E+00 0.  1.
         -1    1    1    2    0  502 -0.30316037825E+02 -0.17877227277E+02 -0.63062443487E+02  0.72218620750E+02  0.00000000000E+00 0. -1.
<mgrwt>
<rscale>  1 0.30000000E+03</rscale>
<asrwt>0</asrwt>
<pdfrwt beam="1">  1       21 0.17873198E-01 0.30000000E+03</pdfrwt>
<pdfrwt beam="2">0</pdfrwt>
<totfact> 0.29688045E+03</totfact>
</mgrwt>
</event>
<event>
 6    1  0.1284012E-001  0.3000000E+03  0.7818608E-02  0.1093470E+00
         21   -1    0    0  501  502  0.00000000000E+00  0.00000000000E+00  0.22993149140E+01  0.22993149140E+01  0.00000000000E+00 0. -1.
         13   -1    0    0    0    0 -0.00000000000E+00 -0.00000000000E+00 -0.10000000000E+04  0.10000000000E+04  0.00000000000E+00 0.  1.
    9000005    2    1    2  501    0  0.23319068945E+02 -0.38471717358E+02 -0.33363846120E+03  0.33671499328E+03  0.62057952296E+01 0.  0.
         13    1    3    3    0    0  0.16590554517E+02 -0.23619900866E+02 -0.19595406247E+03  0.19806852556E+03  0.00000000000E+00 0.  1.
          3    1    3    3  501    0  0.67285144277E+01 -0.14851816492E+02 -0.13768439872E+03  0.13864646772E+03  0.00000000000E+00 0.  1.
         -1    1    1    2    0  502 -0.23319068945E+02  0.38471717358E+02 -0.66406222389E+03  0.66558432164E+03  0.00000000000E+00 0. -1.
<mgrwt>
<rscale>  1 0.30000000E+03</rscale>
<asrwt>0</asrwt>
<pdfrwt beam="1">  1       21 0.83611628E-02 0.30000000E+03</pdfrwt>
<pdfrwt beam="2">0</pdfrwt>
<totfact> 0.11819368E+04</totfact>
</mgrwt>
</event>
<event>
 6    1  0.1284012E-001  0.3000000E+03  0.7818608E-02  0.1093470E+00
         21   -1    0    0  501  502  0.00000000000E+00  0.00000000000E+00  0.13980710935E+01  0.13980710935E+01  0.00000000000E+00 0. -1.
         13   -1    0    0    0    0 -0.00000000000E+00 -0.00000000000E+00 -0.10000000000E+04  0.10000000000E+04  0.00000000000E+00 0.  1.
    9000005    2    1    2  501    0  0.62573772375E+01 -0.33597105804E+02 -0.70095850339E+03  0.70179912410E+03  0.33566084013E+01 0.  0.
         13    1    3    3    0    0  0.59925105400E+01 -0.32760884771E+02 -0.69097581639E+03  0.69177797347E+03  0.00000000000E+00 0.  1.
          1    1    3    3  501    0  0.26486669744E+00 -0.83622103353E+00 -0.99826870050E+01  0.10021150624E+02  0.00000000000E+00 0.  1.
         -1    1    1    2    0  502 -0.62573772375E+01  0.33597105804E+02 -0.29764342551E+03  0.29959894699E+03  0.00000000000E+00 0. -1.
<mgrwt>
<rscale>  1 0.30000000E+03</rscale>
<asrwt>0</asrwt>
<pdfrwt beam="1">  1       21 0.50839056E-02 0.30000000E+03</pdfrwt>
<pdfrwt beam="2">0</pdfrwt>
<totfact> 0.27998621E+04</totfact>
</mgrwt>
</event>
<event>
 6    1  0.1284012E-001  0.3000000E+03  0.7818608E-02  0.1093470E+00
         21   -1    0    0  501  502  0.00000000000E+00  0.00000000000E+00  0.27237837159E+01  0.27237837159E+01  0.00000000000E+00 0. -1.
         13   -1    0    0    0    0 -0.00000000000E+00 -0.00000000000E+00 -0.10000000000E+04  0.10000000000E+04  0.00000000000E+00 0.  1.
    9000005    2    1    2  501    0  0.30129283740E+02  0.14840993148E+02 -0.88226000448E+03  0.88290409504E+03  0.29827368686E+01 0.  0.
         13    1    3    3    0    0  0.29567759212E+02  0.14674281545E+02 -0.85338976458E+03  0.85402791361E+03  0.00000000000E+00 0.  1.
          1    1    3    3  501    0  0.56152452789E+00  0.16671160368E+00 -0.28870239892E+02  0.28876181430E+02  0.00000000000E+00 0.  1.
         -1    1    1    2    0  502 -0.30129283740E+02 -0.14840993148E+02 -0.11501621181E+03  0.11981968868E+03  0.00000000000E+00 0. -1.
<mgrwt>
<rscale>  1 0.30000000E+03</rscale>
<asrwt>0</asrwt>
<pdfrwt beam="1">  1       21 0.99046889E-02 0.30000000E+03</pdfrwt>
<pdfrwt beam="2">0</pdfrwt>
<totfact> 0.87516420E+03</totfact>
</mgrwt>
</event>
<event>
 6    1  0.1284012E-001  0.3000000E+03  0.7818608E-02  0.1093470E+00
         21   -1    0    0  501  502  0.00000000000E+00  0.00000000000E+00  0.10314016560E+01  0.10314016560E+01  0.00000000000E+00 0. -1.
         13   -1    0    0    0    0 -0.00000000000E+00 -0.00000000000E+00 -0.10000000000E+04  0.10000000000E+04  0.00000000000E+00 0.  1.
    9000005    2    1    2  501    0  0.21498386517E+01  0.30717569250E+02 -0.63751381080E+03  0.63826735395E+03  0.36284012196E+01 0.  0.
         13    1    3    3    0    0  0.12012302827E+01  0.28894367739E+02 -0.60180412726E+03  0.60249857679E+03  0.00000000000E+00 0.  1.
          3    1    3    3  501    0  0.94860836901E+00  0.18232015112E+01 -0.35709683537E+02  0.35768777165E+02  0.00000000000E+00 0.  1.
         -1    1    1    2    0  502 -0.21498386517E+01 -0.30717569250E+02 -0.36145478754E+03  0.36276404770E+03  0.00000000000E+00 0. -1.
<mgrwt>
<rscale>  1 0.30000000E+03</rscale>
<asrwt>0</asrwt>
<pdfrwt beam="1">  1       21 0.37505594E-02 0.30000000E+03</pdfrwt>
<pdfrwt beam="2">0</pdfrwt>
<totfact> 0.46855536E+04</totfact>
</mgrwt>
</event>
<event>
 6    1  0.1284012E-001  0.3000000E+03  0.7818608E-02  0.1093470E+00
         21   -1    0    0  501  502  0.00000000000E+00  0.00000000000E+00  0.26777369036E+01  0.26777369036E+01  0.00000000000E+00 0. -1.
         13   -1    0    0    0    0 -0.00000000000E+00 -0.00000000000E+00 -0.10000000000E+04  0.10000000000E+04  0.00000000000E+00 0.  1.
    9000005    2    1    2  501    0 -0.40512338716E+02 -0.21898031614E+02 -0.72660476218E+03  0.72807122082E+03  0.35282824452E+01 0.  0.
         13    1    3    3    0    0 -0.36990219000E+02 -0.18822706937E+02 -0.64907307127E+03  0.65039866424E+03  0.00000000000E+00 0.  1.
          3    1    3    3  501    0 -0.35221197160E+01 -0.30753246773E+01 -0.77531690915E+02  0.77672556577E+02  0.00000000000E+00 0.  1.
         -1    1    1    2    0  502  0.40512338716E+02  0.21898031614E+02 -0.27071750091E+03  0.27460651609E+03  0.00000000000E+00 0. -1.
<mgrwt>
<rscale>  1 0.30000000E+03</rscale>
<asrwt>0</asrwt>
<pdfrwt beam="1">  1       21 0.97372456E-02 0.30000000E+03</pdfrwt>
<pdfrwt beam="2">0</pdfrwt>
<totfact> 0.90220837E+03</totfact>
</mgrwt>
</event>
<event>
 6    1  0.1284012E-001  0.3000000E+03  0.7818608E-02  0.1093470E+00
         21   -1    0    0  501  502  0.00000000000E+00  0.00000000000E+00  0.13235480073E+01  0.13235480073E+01  0.00000000000E+00 0. -1.
         13   -1    0    0    0    0 -0.00000000000E+00 -0.00000000000E+00 -0.10000000000E+04  0.10000000000E+04  0.00000000000E+00 0.  1.
    9000005    2    1    2  501    0 -0.30574916196E+02  0.14214476668E+02 -0.68587306125E+03  0.68670816677E+03  0.30615879472E+01 0.  0.
         13    1    3    3    0    0 -0.23904377519E+02  0.99822301227E+01 -0.50899722899E+03  0.50965600488E+03  0.00000000000E+00 0.  1.
          1    1    3    3  501    0 -0.66705386769E+01  0.42322465451E+01 -0.17687583225E+03  0.17705216190E+03  0.00000000000E+00 0.  1.
         -3    1    1    2    0  502  0.30574916196E+02 -0.14214476668E+02 -0.31280339075E+03  0.31461538124E+03  0.00000000000E+00 0. -1.
<mgrwt>
<rscale>  1 0.30000000E+03</rscale>
<asrwt>0</asrwt>
<pdfrwt beam="1">  1       21 0.48129120E-02 0.30000000E+03</pdfrwt>
<pdfrwt beam="2">0</pdfrwt>
<totfact> 0.30737705E+04</totfact>
</mgrwt>
</event>
<event>
 6    1  0.1284012E-001  0.3000000E+03  0.7818608E-02  0.1093470E+00
         21   -1    0    0  501  502  0.00000000000E+00  0.00000000000E+00  0.43888926137E+01  0.43888926137E+01  0.00000000000E+00 0. -1.
         13   -1    0    0    0    0 -0.00000000000E+00 -0.00000000000E+00 -0.10000000000E+04  0.10000000000E+04  0.00000000000E+00 0.  1.
    9000005    2    1    2  501    0 -0.22074616132E+02  0.30954090817E+02 -0.90901234575E+03  0.90981199304E+03  0.29955869894E+01 0.  0.
         13    1    3    3    0    0 -0.91579335760E+01  0.14519516802E+02 -0.38313819970E+03  0.38352257324E+03  0.00000000000E+00 0.  1.
          3    1    3    3  501    0 -0.12916682556E+02  0.16434574015E+02 -0.52587414605E+03  0.52628941980E+03  0.00000000000E+00 0.  1.
         -1    1    1    2    0  502  0.22074616132E+02 -0.30954090817E+02 -0.86598761640E+02  0.94576899575E+02  0.00000000000E+00 0. -1.
<mgrwt>
<rscale>  1 0.30000000E+03</rscale>
<asrwt>0</asrwt>
<pdfrwt beam="1">  1       21 0.15959643E-01 0.30000000E+03</pdfrwt>
<pdfrwt beam="2">0</pdfrwt>
<totfact> 0.36698976E+03</totfact>
</mgrwt>
</event>
<event>
 6    1  0.1284012E-001  0.3000000E+03  0.7818608E-02  0.1093470E+00
         21   -1    0    0  501  502  0.00000000000E+00  0.00000000000E+00  0.25821395279E+01  0.25821395279E+01  0.00000000000E+00 0. -1.
         13   -1    0    0    0    0 -0.00000000000E+00 -0.00000000000E+00 -0.10000000000E+04  0.10000000000E+04  0.00000000000E+00 0.  1.
    9000005    2    1    2  501    0 -0.16271507805E+02  0.46251431382E+02 -0.37097282991E+03  0.37422130912E+03  0.40976577616E+01 0.  0.
         13    1    3    3    0    0 -0.13264585306E+02  0.33945961726E+02 -0.28476279922E+03  0.28708557846E+03  0.00000000000E+00 0.  1.
          1    1    3    3  501    0 -0.30069224990E+01  0.12305469656E+02 -0.86210030689E+02  0.87135730660E+02  0.00000000000E+00 0.  1.
         -1    1    1    2    0  502  0.16271507805E+02 -0.46251431382E+02 -0.62644503056E+03  0.62836083041E+03  0.00000000000E+00 0. -1.
<mgrwt>
<rscale>  1 0.30000000E+03</rscale>
<asrwt>0</asrwt>
<pdfrwt beam="1">  1       21 0.93896181E-02 0.30000000E+03</pdfrwt>
<pdfrwt beam="2">0</pdfrwt>
<totfact> 0.96259295E+03</totfact>
</mgrwt>
</event>
<event>
 6    1  0.1284012E-001  0.3000000E+03  0.7818608E-02  0.1093470E+00
         21   -1    0    0  501  502  0.00000000000E+00  0.00000000000E+00  0.13003654574E+01  0.13003654574E+01  0.00000000000E+00 0. -1.
         13   -1    0    0    0    0 -0.00000000000E+00 -0.00000000000E+00 -0.10000000000E+04  0.10000000000E+04  0.00000000000E+00 0.  1.
    9000005    2    1    2  501    0 -0.20906279137E+01  0.31235755521E+02 -0.74687543599E+03  0.74753773991E+03  0.31164974383E+01 0.  0.
         13    1    3    3    0    0 -0.14394848798E+01  0.49586441648E+01 -0.13041541502E+03  0.13051758787E+03  0.00000000000E+00 0.  1.
          3    1    3    3  501    0 -0.65114303392E+00  0.26277111357E+02 -0.61646002096E+03  0.61702015203E+03  0.00000000000E+00 0.  1.
         -1    1    1    2    0  502  0.20906279137E+01 -0.31235755521E+02 -0.25182419856E+03  0.25376262555E+03  0.00000000000E+00 0. -1.
<mgrwt>
<rscale>  1 0.30000000E+03</rscale>
<asrwt>0</asrwt>
<pdfrwt beam="1">  1       21 0.47286116E-02 0.30000000E+03</pdfrwt>
<pdfrwt beam="2">0</pdfrwt>
<totfact> 0.31675745E+04</totfact>
</mgrwt>
</event>
<event>
 6    1  0.1284012E-001  0.3000000E+03  0.7818608E-02  0.1093470E+00
         21   -1    0    0  501  502  0.00000000000E+00  0.00000000000E+00  0.21965174621E+01  0.21965174621E+01  0.00000000000E+00 0. -1.
         13   -1    0    0    0    0 -0.00000000000E+00 -0.00000000000E+00 -0.10000000000E+04  0.10000000000E+04  0.00000000000E+00 0.  1.
    9000005    2    1    2  501    0  0.24280927241E+02  0.26705070496E+02 -0.18160543067E+03  0.18520081118E+03  0.40104604924E+01 0.  0.
         13    1    3    3    0    0  0.29385451778E+01  0.49423143845E+01 -0.24495554461E+02  0.25161353453E+02  0.00000000000E+00 0.  1.
          1    1    3    3  501    0  0.21342382063E+02  0.21762756111E+02 -0.15710987621E+03  0.16003945773E+03  0.00000000000E+00 0.  1.
         -1    1    1    2    0  502 -0.24280927241E+02 -0.26705070496E+02 -0.81619805186E+03  0.81699570628E+03  0.00000000000E+00 0. -1.
<mgrwt>
<rscale>  1 0.30000000E+03</rscale>
<asrwt>0</asrwt>
<pdfrwt beam="1">  1       21 0.79873531E-02 0.30000000E+03</pdfrwt>
<pdfrwt beam="2">0</pdfrwt>
<totfact> 0.12809414E+04</totfact>
</mgrwt>
</event>
<event>
 6    1  0.1284012E-001  0.3000000E+03  0.7818608E-02  0.1093470E+00
         21   -1    0    0  501  502  0.00000000000E+00  0.00000000000E+00  0.94527843283E+00  0.94527843283E+00  0.00000000000E+00 0. -1.
         13   -1    0    0    0    0 -0.00000000000E+00 -0.00000000000E+00 -0.10000000000E+04  0.10000000000E+04  0.00000000000E+00 0.  1.
    9000005    2    1    2  501    0  0.22144100285E+02  0.20575926339E+02 -0.58367068172E+03  0.58446282925E+03  0.34064860067E+01 0.  0.
         13    1    3    3    0    0  0.19333815628E+02  0.19237018140E+02 -0.53159612846E+03  0.53229531567E+03  0.00000000000E+00 0.  1.
          1    1    3    3  501    0  0.28102846572E+01  0.13389081986E+01 -0.52074553265E+02  0.52167513577E+02  0.00000000000E+00 0.  1.
         -3    1    1    2    0  502 -0.22144100285E+02 -0.20575926339E+02 -0.41538403984E+03  0.41648244919E+03  0.00000000000E+00 0. -1.
<mgrwt>
<rscale>  1 0.30000000E+03</rscale>
<asrwt>0</asrwt>
<pdfrwt beam="1">  1       21 0.34373834E-02 0.30000000E+03</pdfrwt>
<pdfrwt beam="2">0</pdfrwt>
<totfact> 0.54230547E+04</totfact>
</mgrwt>
</event>
<event>
 6    1  0.1284012E-001  0.3000000E+03  0.7818608E-02  0.1093470E+00
         21   -1    0    0  501  502  0.00000000000E+00  0.00000000000E+00  0.68782651176E+01  0.68782651176E+01  0.00000000000E+00 0. -1.
         13   -1    0    0    0    0 -0.00000000000E+00 -0.00000000000E+00 -0.10000000000E+04  0.10000000000E+04  0.00000000000E+00 0.  1.
    9000005    2    1    2  501    0  0.26267297593E+02  0.39904714890E+02 -0.90803403636E+03  0.90929612724E+03  0.33583668004E+01 0.  0.
         13    1    3    3    0    0  0.84477809087E+01  0.13843010026E+02 -0.28047317164E+03  0.28094162016E+03  0.00000000000E+00 0.  1.
          1    1    3    3  501    0  0.17819516684E+02  0.26061704865E+02 -0.62756086472E+03  0.62835450708E+03  0.00000000000E+00 0.  1.
         -1    1    1    2    0  502 -0.26267297593E+02 -0.39904714890E+02 -0.85087698518E+02  0.97582137876E+02  0.00000000000E+00 0. -1.
<mgrwt>
<rscale>  1 0.30000000E+03</rscale>
<asrwt>0</asrwt>
<pdfrwt beam="1">  1       21 0.25011926E-01 0.30000000E+03</pdfrwt>
<pdfrwt beam="2">0</pdfrwt>
<totfact> 0.15581427E+03</totfact>
</mgrwt>
</event>
<event>
 6    1  0.1284012E-001  0.3000000E+03  0.7818608E-02  0.1093470E+00
         21   -1    0    0  501  502  0.00000000000E+00  0.00000000000E+00  0.51800087480E+01  0.51800087480E+01  0.00000000000E+00 0. -1.
         13   -1    0    0    0    0 -0.00000000000E+00 -0.00000000000E+00 -0.10000000000E+04  0.10000000000E+04  0.00000000000E+00 0.  1.
    9000005    2    1    2  501    0 -0.25290475900E+02 -0.46728052332E+02 -0.83628635954E+03  0.83797943630E+03  0.33972707032E+01 0.  0.
         13    1    3    3    0    0 -0.22032915859E+02 -0.39078547185E+02 -0.68971838353E+03  0.69117583205E+03  0.00000000000E+00 0.  1.
          1    1    3    3  501    0 -0.32575600416E+01 -0.76495051474E+01 -0.14656797602E+03  0.14680360425E+03  0.00000000000E+00 0.  1.
         -1    1    1    2    0  502  0.25290475900E+02  0.46728052332E+02 -0.15853363171E+03  0.16720057245E+03  0.00000000000E+00 0. -1.
<mgrwt>
<rscale>  1 0.30000000E+03</rscale>
<asrwt>0</asrwt>
<pdfrwt beam="1">  1       21 0.18836435E-01 0.30000000E+03</pdfrwt>
<pdfrwt beam="2">0</pdfrwt>
<totfact> 0.26887682E+03</totfact>
</mgrwt>
</event>
<event>
 6    1  0.1284012E-001  0.3000000E+03  0.7818608E-02  0.1093470E+00
         21   -1    0    0  501  502  0.00000000000E+00  0.00000000000E+00  0.22044170780E+01  0.22044170780E+01  0.00000000000E+00 0. -1.
         13   -1    0    0    0    0 -0.00000000000E+00 -0.00000000000E+00 -0.10000000000E+04  0.10000000000E+04  0.00000000000E+00 0.  1.
    9000005    2    1    2  501    0 -0.30403637846E+02 -0.10711428962E+01 -0.88041687780E+03  0.88094729788E+03  0.29553977826E+01 0.  0.
         13    1    3    3    0    0 -0.10192033559E+02  0.88469767178E-01 -0.25794554581E+03  0.25814683801E+03  0.00000000000E+00 0.  1.
          3    1    3    3  501    0 -0.20211604287E+02 -0.11596126634E+01 -0.62247133200E+03  0.62280045987E+03  0.00000000000E+00 0.  1.
         -3    1    1    2    0  502  0.30403637846E+02  0.10711428962E+01 -0.11737870512E+03  0.12125711920E+03  0.00000000000E+00 0. -1.
<mgrwt>
<rscale>  1 0.30000000E+03</rscale>
<asrwt>0</asrwt>
<pdfrwt beam="1">  1       21 0.80160790E-02 0.30000000E+03</pdfrwt>
<pdfrwt beam="2">0</pdfrwt>
<totfact> 0.12728896E+04</totfact>
</mgrwt>
</event>
<event>
 6    1  0.1284012E-001  0.3000000E+03  0.7818608E-02  0.1093470E+00
         21   -1    0    0  501  502  0.00000000000E+00  0.00000000000E+00  0.24203469545E+01  0.24203469545E+01  0.00000000000E+00 0. -1.
         13   -1    0    0    0    0 -0.00000000000E+00 -0.00000000000E+00 -0.10000000000E+04  0.10000000000E+04  0.00000000000E+00 0.  1.
    9000005    2    1    2  501    0 -0.16246299545E+02  0.34832697382E+02 -0.81131615173E+03  0.81223267391E+03  0.32801605433E+01 0.  0.
         13    1    3    3    0    0 -0.66401091778E+01  0.11209387517E+02 -0.25616459341E+03  0.25649569263E+03  0.00000000000E+00 0.  1.
          1    1    3    3  501    0 -0.96061903670E+01  0.23623309865E+02 -0.55515155832E+03  0.55573698128E+03  0.00000000000E+00 0.  1.
         -3    1    1    2    0  502  0.16246299545E+02 -0.34832697382E+02 -0.18626350131E+03  0.19018767304E+03  0.00000000000E+00 0. -1.
<mgrwt>
<rscale>  1 0.30000000E+03</rscale>
<asrwt>0</asrwt>
<pdfrwt beam="1">  1       21 0.88012802E-02 0.30000000E+03</pdfrwt>
<pdfrwt beam="2">0</pdfrwt>
<totfact> 0.10796415E+04</totfact>
</mgrwt>
</event>
<event>
 6    1  0.1284012E-001  0.3000000E+03  0.7818608E-02  0.1093470E+00
         21   -1    0    0  501  502  0.00000000000E+00  0.00000000000E+00  0.44282811933E+01  0.44282811933E+01  0.00000000000E+00 0. -1.
         13   -1    0    0    0    0 -0.00000000000E+00 -0.00000000000E+00 -0.10000000000E+04  0.10000000000E+04  0.00000000000E+00 0.  1.
    9000005    2    1    2  501    0  0.38838222882E+01  0.40600550903E+02 -0.10186102013E+03  0.10978740255E+03  0.37573298646E+01 0.  0.
         13    1    3    3    0    0  0.12160929608E+01  0.19913093634E+02 -0.45117898782E+02  0.49331885942E+02  0.00000000000E+00 0.  1.
          1    1    3    3  501    0  0.26677293274E+01  0.20687457270E+02 -0.56743121349E+02  0.60455516609E+02  0.00000000000E+00 0.  1.
         -1    1    1    2    0  502 -0.38838222882E+01 -0.40600550903E+02 -0.89371069868E+03  0.89464087864E+03  0.00000000000E+00 0. -1.
<mgrwt>
<rscale>  1 0.30000000E+03</rscale>
<asrwt>0</asrwt>
<pdfrwt beam="1">  1       21 0.16102875E-01 0.30000000E+03</pdfrwt>
<pdfrwt beam="2">0</pdfrwt>
<totfact> 0.36092794E+03</totfact>
</mgrwt>
</event>
<event>
 6    1  0.1284012E-001  0.3000000E+03  0.7818608E-02  0.1093470E+00
         21   -1    0    0  501  502  0.00000000000E+00  0.00000000000E+00  0.24248957482E+01  0.24248957482E+01  0.00000000000E+00 0. -1.
         13   -1    0    0    0    0 -0.00000000000E+00 -0.00000000000E+00 -0.10000000000E+04  0.10000000000E+04  0.00000000000E+00 0.  1.
    9000005    2    1    2  501    0  0.31314986195E+02  0.20625164809E+02 -0.82345687298E+03  0.82431486166E+03  0.27827507367E+01 0.  0.
         13    1    3    3    0    0  0.23742752594E+02  0.14598289468E+02 -0.62938696995E+03  0.63000379864E+03  0.00000000000E+00 0.  1.
          1    1    3    3  501    0  0.75722336014E+01  0.60268753403E+01 -0.19406990303E+03  0.19431106301E+03  0.00000000000E+00 0.  1.
         -1    1    1    2    0  502 -0.31314986195E+02 -0.20625164809E+02 -0.17411823127E+03  0.17811003409E+03  0.00000000000E+00 0. -1.
<mgrwt>
<rscale>  1 0.30000000E+03</rscale>
<asrwt>0</asrwt>
<pdfrwt beam="1">  1       21 0.88178213E-02 0.30000000E+03</pdfrwt>
<pdfrwt beam="2">0</pdfrwt>
<totfact> 0.10760627E+04</totfact>
</mgrwt>
</event>
<event>
 6    1  0.1284012E-001  0.3000000E+03  0.7818608E-02  0.1093470E+00
         21   -1    0    0  501  502  0.00000000000E+00  0.00000000000E+00  0.18116213703E+01  0.18116213703E+01  0.00000000000E+00 0. -1.
         13   -1    0    0    0    0 -0.00000000000E+00 -0.00000000000E+00 -0.10000000000E+04  0.10000000000E+04  0.00000000000E+00 0.  1.
    9000005    2    1    2  501    0  0.33606033824E+02 -0.20958460826E+02 -0.67877764344E+03  0.67995475824E+03  0.55462987429E+01 0.  0.
         13    1    3    3    0    0  0.12273179105E+02 -0.64340103419E+01 -0.19739953731E+03  0.19788533232E+03  0.00000000000E+00 0.  1.
          3    1    3    3  501    0  0.21332854719E+02 -0.14524450485E+02 -0.48137810612E+03  0.48206942592E+03  0.00000000000E+00 0.  1.
         -3    1    1    2    0  502 -0.33606033824E+02  0.20958460826E+02 -0.31941073519E+03  0.32185686313E+03  0.00000000000E+00 0. -1.
<mgrwt>
<rscale>  1 0.30000000E+03</rscale>
<asrwt>0</asrwt>
<pdfrwt beam="1">  1       21 0.65877280E-02 0.30000000E+03</pdfrwt>
<pdfrwt beam="2">0</pdfrwt>
<totfact> 0.17928848E+04</totfact>
</mgrwt>
</event>
<event>
 6    1  0.1284012E-001  0.3000000E+03  0.7818608E-02  0.1093470E+00
         21   -1    0    0  501  502  0.00000000000E+00  0.00000000000E+00  0.15855866704E+01  0.15855866704E+01  0.00000000000E+00 0. -1.
         13   -1    0    0    0    0 -0.00000000000E+00 -0.00000000000E+00 -0.10000000000E+04  0.10000000000E+04  0.00000000000E+00 0.  1.
    9000005    2    1    2  501    0  0.31793724804E+02  0.62158040783E+01 -0.78990135205E+03  0.79057095713E+03  0.29690275758E+01 0.  0.
         13    1    3    3    0    0  0.24505776068E+02  0.40858836267E+01 -0.57825287194E+03  0.57878632621E+03  0.00000000000E+00 0.  1.
          3    1    3    3  501    0  0.72879487360E+01  0.21299204516E+01 -0.21164848011E+03  0.21178463092E+03  0.00000000000E+00 0.  1.
         -3    1    1    2    0  502 -0.31793724804E+02 -0.62158040783E+01 -0.20851306128E+03  0.21101462954E+03  0.00000000000E+00 0. -1.
<mgrwt>
<rscale>  1 0.30000000E+03</rscale>
<asrwt>0</asrwt>
<pdfrwt beam="1">  1       21 0.57657819E-02 0.30000000E+03</pdfrwt>
<pdfrwt beam="2">0</pdfrwt>
<totfact> 0.22568321E+04</totfact>
</mgrwt>
</event>
<event>
 6    1  0.1284012E-001  0.3000000E+03  0.7818608E-02  0.1093470E+00
         21   -1    0    0  501  502  0.00000000000E+00  0.00000000000E+00  0.17895272626E+01  0.17895272626E+01  0.00000000000E+00 0. -1.
         13   -1    0    0    0    0 -0.00000000000E+00 -0.00000000000E+00 -0.10000000000E+04  0.10000000000E+04  0.00000000000E+00 0.  1.
    9000005    2    1    2  501    0 -0.35105344605E+02 -0.53179472812E+01 -0.77108512147E+03  0.77190566317E+03  0.23286248903E+01 0.  0.
         13    1    3    3    0    0 -0.31704990278E+01 -0.57003623077E+00 -0.56841257126E+02  0.56932464526E+02  0.00000000000E+00 0.  1.
          3    1    3    3  501    0 -0.31934845577E+02 -0.47479110504E+01 -0.71424386435E+03  0.71497319864E+03  0.00000000000E+00 0.  1.
         -1    1    1    2    0  502  0.35105344605E+02  0.53179472812E+01 -0.22712535126E+03  0.22988386409E+03  0.00000000000E+00 0. -1.
<mgrwt>
<rscale>  1 0.30000000E+03</rscale>
<asrwt>0</asrwt>
<pdfrwt beam="1">  1       21 0.65073856E-02 0.30000000E+03</pdfrwt>
<pdfrwt beam="2">0</pdfrwt>
<totfact> 0.18314000E+04</totfact>
</mgrwt>
</event>
<event>
 6    1  0.1284012E-001  0.3000000E+03  0.7818608E-02  0.1093470E+00
         21   -1    0    0  501  502  0.00000000000E+00  0.00000000000E+00  0.13770515582E+01  0.13770515582E+01  0.00000000000E+00 0. -1.
         13   -1    0    0    0    0 -0.00000000000E+00 -0.00000000000E+00 -0.10000000000E+04  0.10000000000E+04  0.00000000000E+00 0.  1.
    9000005    2    1    2  501    0  0.48805812445E+01  0.34514942271E+02 -0.33266451282E+03  0.33450694479E+03  0.37572218087E+01 0.  0.
         13    1    3    3    0    0  0.53296165848E+01  0.31942663040E+02 -0.30195304052E+03  0.30368466740E+03  0.00000000000E+00 0.  1.
          1    1    3    3  501    0 -0.44903534028E+00  0.25722792302E+01 -0.30711472296E+02  0.30822277394E+02  0.00000000000E+00 0.  1.
         -1    1    1    2    0  502 -0.48805812445E+01 -0.34514942271E+02 -0.66595843563E+03  0.66687010676E+03  0.00000000000E+00 0. -1.
<mgrwt>
<rscale>  1 0.30000000E+03</rscale>
<asrwt>0</asrwt>
<pdfrwt beam="1">  1       21 0.50074708E-02 0.30000000E+03</pdfrwt>
<pdfrwt beam="2">0</pdfrwt>
<totfact> 0.28731432E+04</totfact>
</mgrwt>
</event>
<event>
 6    1  0.1284012E-001  0.3000000E+03  0.7818608E-02  0.1093470E+00
         21   -1    0    0  501  502  0.00000000000E+00  0.00000000000E+00  0.51212677381E+01  0.51212677381E+01  0.00000000000E+00 0. -1.
         13   -1    0    0    0    0 -0.00000000000E+00 -0.00000000000E+00 -0.10000000000E+04  0.10000000000E+04  0.00000000000E+00 0.  1.
    9000005    2    1    2  501    0 -0.13604462294E+02  0.45652988903E+02 -0.87240095547E+03  0.87370558147E+03  0.29562124960E+01 0.  0.
         13    1    3    3    0    0 -0.10800051946E+02  0.39224537354E+02 -0.73260105148E+03  0.73372985906E+03  0.00000000000E+00 0.  1.
          3    1    3    3  501    0 -0.28044103474E+01  0.64284515489E+01 -0.13979990400E+03  0.13997572241E+03  0.00000000000E+00 0.  1.
         -3    1    1    2    0  502  0.13604462294E+02 -0.45652988903E+02 -0.12247777679E+03  0.13141568627E+03  0.00000000000E+00 0. -1.
<mgrwt>
<rscale>  1 0.30000000E+03</rscale>
<asrwt>0</asrwt>
<pdfrwt beam="1">  1       21 0.18622831E-01 0.30000000E+03</pdfrwt>
<pdfrwt beam="2">0</pdfrwt>
<totfact> 0.27474163E+03</totfact>
</mgrwt>
</event>
<event>
 6    1  0.1284012E-001  0.3000000E+03  0.7818608E-02  0.1093470E+00
         21   -1    0    0  501  502  0.00000000000E+00  0.00000000000E+00  0.15743506699E+01  0.15743506699E+01  0.00000000000E+00 0. -1.
         13   -1    0    0    0    0 -0.00000000000E+00 -0.00000000000E+00 -0.10000000000E+04  0.10000000000E+04  0.00000000000E+00 0.  1.
    9000005    2    1    2  501    0 -0.14385427571E+02  0.36610732098E+02 -0.44511014227E+03  0.44686241048E+03  0.39609242931E+01 0.  0.
         13    1    3    3    0    0 -0.55224709380E+01  0.14398182564E+02 -0.15315931285E+03  0.15393368851E+03  0.00000000000E+00 0.  1.
          3    1    3    3  501    0 -0.88629566334E+01  0.22212549534E+02 -0.29195082942E+03  0.29292872197E+03  0.00000000000E+00 0.  1.
         -1    1    1    2    0  502  0.14385427571E+02 -0.36610732098E+02 -0.55331550706E+03  0.55471194019E+03  0.00000000000E+00 0. -1.
<mgrwt>
<rscale>  1 0.30000000E+03</rscale>
<asrwt>0</asrwt>
<pdfrwt beam="1">  1       21 0.57249236E-02 0.30000000E+03</pdfrwt>
<pdfrwt beam="2">0</pdfrwt>
<totfact> 0.22846183E+04</totfact>
</mgrwt>
</event>
<event>
 6    1  0.1284012E-001  0.3000000E+03  0.7818608E-02  0.1093470E+00
         21   -1    0    0  501  502  0.00000000000E+00  0.00000000000E+00  0.27693020292E+01  0.27693020292E+01  0.00000000000E+00 0. -1.
         13   -1    0    0    0    0 -0.00000000000E+00 -0.00000000000E+00 -0.10000000000E+04  0.10000000000E+04  0.00000000000E+00 0.  1.
    9000005    2    1    2  501    0  0.29507470737E+02 -0.27519230825E+02 -0.17780996937E+03  0.18235579083E+03  0.30414384890E+01 0.  0.
         13    1    3    3    0    0  0.38498082138E+01 -0.42937930887E+01 -0.29879283332E+02  0.30430728792E+02  0.00000000000E+00 0.  1.
          1    1    3    3  501    0  0.25657662523E+02 -0.23225437736E+02 -0.14793068604E+03  0.15192506204E+03  0.00000000000E+00 0.  1.
         -3    1    1    2    0  502 -0.29507470737E+02  0.27519230825E+02 -0.81942072860E+03  0.82041351120E+03  0.00000000000E+00 0. -1.
<mgrwt>
<rscale>  1 0.30000000E+03</rscale>
<asrwt>0</asrwt>
<pdfrwt beam="1">  1       21 0.10070210E-01 0.30000000E+03</pdfrwt>
<pdfrwt beam="2">0</pdfrwt>
<totfact> 0.84962910E+03</totfact>
</mgrwt>
</event>
<event>
 6    1  0.1284012E-001  0.3000000E+03  0.7818608E-02  0.1093470E+00
         21   -1    0    0  501  502  0.00000000000E+00  0.00000000000E+00  0.21163893973E+01  0.21163893973E+01  0.00000000000E+00 0. -1.
         13   -1    0    0    0    0 -0.00000000000E+00 -0.00000000000E+00 -0.10000000000E+04  0.10000000000E+04  0.00000000000E+00 0.  1.
    9000005    2    1    2  501    0  0.24803820632E+02  0.18886328125E+02 -0.86718971760E+03  0.86775561917E+03  0.31441025926E+01 0.  0.
         13    1    3    3    0    0  0.23008667932E+02  0.18018804258E+02 -0.82743341123E+03  0.82794934998E+03  0.00000000000E+00 0.  1.
          1    1    3    3  501    0  0.17951527003E+01  0.86752386669E+00 -0.39756306366E+02  0.39806269188E+02  0.00000000000E+00 0.  1.
         -3    1    1    2    0  502 -0.24803820632E+02 -0.18886328125E+02 -0.13069389301E+03  0.13436077023E+03  0.00000000000E+00 0. -1.
<mgrwt>
<rscale>  1 0.30000000E+03</rscale>
<asrwt>0</asrwt>
<pdfrwt beam="1">  1       21 0.76959777E-02 0.30000000E+03</pdfrwt>
<pdfrwt beam="2">0</pdfrwt>
<totfact> 0.13672446E+04</totfact>
</mgrwt>
</event>
<event>
 6    1  0.1284012E-001  0.3000000E+03  0.7818608E-02  0.1093470E+00
         21   -1    0    0  501  502  0.00000000000E+00  0.00000000000E+00  0.11100755210E+01  0.11100755210E+01  0.00000000000E+00 0. -1.
         13   -1    0    0    0    0 -0.00000000000E+00 -0.00000000000E+00 -0.10000000000E+04  0.10000000000E+04  0.00000000000E+00 0.  1.
    9000005    2    1    2  501    0  0.24874339522E+02 -0.21378481356E+02 -0.55472616973E+03  0.55573695861E+03  0.68316581531E+01 0.  0.
         13    1    3    3    0    0  0.10365772179E+02 -0.12025002814E+02 -0.22516797893E+03  0.22572697814E+03  0.00000000000E+00 0.  1.
          1    1    3    3  501    0  0.14508567343E+02 -0.93534785419E+01 -0.32955819079E+03  0.33000998047E+03  0.00000000000E+00 0.  1.
         -3    1    1    2    0  502 -0.24874339522E+02  0.21378481356E+02 -0.44416375475E+03  0.44537311691E+03  0.00000000000E+00 0. -1.
<mgrwt>
<rscale>  1 0.30000000E+03</rscale>
<asrwt>0</asrwt>
<pdfrwt beam="1">  1       21 0.40366468E-02 0.30000000E+03</pdfrwt>
<pdfrwt beam="2">0</pdfrwt>
<totfact> 0.41406332E+04</totfact>
</mgrwt>
</event>
<event>
 6    1  0.1284012E-001  0.3000000E+03  0.7818608E-02  0.1093470E+00
         21   -1    0    0  501  502  0.00000000000E+00  0.00000000000E+00  0.45132379618E+01  0.45132379618E+01  0.00000000000E+00 0. -1.
         13   -1    0    0    0    0 -0.00000000000E+00 -0.00000000000E+00 -0.10000000000E+04  0.10000000000E+04  0.00000000000E+00 0.  1.
    9000005    2    1    2  501    0 -0.84450161449E+01  0.50233383366E+02 -0.82505701029E+03  0.82663403349E+03  0.31692263299E+01 0.  0.
         13    1    3    3    0    0 -0.39654195174E+01  0.26858048934E+02 -0.46360575594E+03  0.46440001753E+03  0.00000000000E+00 0.  1.
          3    1    3    3  501    0 -0.44795966275E+01  0.23375334432E+02 -0.36145125435E+03  0.36223401595E+03  0.00000000000E+00 0.  1.
         -1    1    1    2    0  502  0.84450161449E+01 -0.50233383366E+02 -0.17042975175E+03  0.17787920447E+03  0.00000000000E+00 0. -1.
<mgrwt>
<rscale>  1 0.30000000E+03</rscale>
<asrwt>0</asrwt>
<pdfrwt beam="1">  1       21 0.16411809E-01 0.30000000E+03</pdfrwt>
<pdfrwt beam="2">0</pdfrwt>
<totfact> 0.34835290E+03</totfact>
</mgrwt>
</event>
<event>
 6    1  0.1284012E-001  0.3000000E+03  0.7818608E-02  0.1093470E+00
         21   -1    0    0  501  502  0.00000000000E+00  0.00000000000E+00  0.55063132857E+01  0.55063132857E+01  0.00000000000E+00 0. -1.
         13   -1    0    0    0    0 -0.00000000000E+00 -0.00000000000E+00 -0.10000000000E+04  0.10000000000E+04  0.00000000000E+00 0.  1.
    9000005    2    1    2  501    0 -0.85629650719E+01  0.35229130711E+02 -0.93579687659E+03  0.93651550564E+03  0.55751267285E+01 0.  0.
         13    1    3    3    0    0 -0.17723875858E+01  0.61779669921E+01 -0.22711277049E+03  0.22720369529E+03  0.00000000000E+00 0.  1.
          1    1    3    3  501    0 -0.67905774862E+01  0.29051163719E+02 -0.70868410610E+03  0.70931181034E+03  0.00000000000E+00 0.  1.
         -3    1    1    2    0  502  0.85629650719E+01 -0.35229130711E+02 -0.58696810123E+02  0.68990807649E+02  0.00000000000E+00 0. -1.
<mgrwt>
<rscale>  1 0.30000000E+03</rscale>
<asrwt>0</asrwt>
<pdfrwt beam="1">  1       21 0.20023000E-01 0.30000000E+03</pdfrwt>
<pdfrwt beam="2">0</pdfrwt>
<totfact> 0.23939635E+03</totfact>
</mgrwt>
</event>
<event>
 6    1  0.1284012E-001  0.3000000E+03  0.7818608E-02  0.1093470E+00
         21   -1    0    0  501  502  0.00000000000E+00  0.00000000000E+00  0.98791813869E+00  0.98791813869E+00  0.00000000000E+00 0. -1.
         13   -1    0    0    0    0 -0.00000000000E+00 -0.00000000000E+00 -0.10000000000E+04  0.10000000000E+04  0.00000000000E+00 0.  1.
    9000005    2    1    2  501    0  0.26948568651E+02 -0.14283094060E+02 -0.61539558500E+03  0.61616088064E+03  0.35032358682E+01 0.  0.
         13    1    3    3    0    0  0.26716491198E+02 -0.14472840987E+02 -0.61103743909E+03  0.61179243702E+03  0.00000000000E+00 0.  1.
          1    1    3    3  501    0  0.23207745292E+00  0.18974692708E+00 -0.43581459150E+01  0.43684436195E+01  0.00000000000E+00 0.  1.
         -3    1    1    2    0  502 -0.26948568651E+02  0.14283094060E+02 -0.38361649686E+03  0.38482703750E+03  0.00000000000E+00 0. -1.
<mgrwt>
<rscale>  1 0.30000000E+03</rscale>
<asrwt>0</asrwt>
<pdfrwt beam="1">  1       21 0.35924372E-02 0.30000000E+03</pdfrwt>
<pdfrwt beam="2">0</pdfrwt>
<totfact> 0.50367621E+04</totfact>
</mgrwt>
</event>
<event>
 6    1  0.1284012E-001  0.3000000E+03  0.7818608E-02  0.1093470E+00
         21   -1    0    0  501  502  0.00000000000E+00  0.00000000000E+00  0.17125843724E+01  0.17125843724E+01  0.00000000000E+00 0. -1.
         13   -1    0    0    0    0 -0.00000000000E+00 -0.00000000000E+00 -0.10000000000E+04  0.10000000000E+04  0.00000000000E+00 0.  1.
    9000005    2    1    2  501    0 -0.33169008603E+02  0.89025101316E+01 -0.77780982276E+03  0.77857628797E+03  0.36712366557E+01 0.  0.
         13    1    3    3    0    0 -0.24284878227E+02  0.62687227816E+01 -0.60237311617E+03  0.60289503504E+03  0.00000000000E+00 0.  1.
          3    1    3    3  501    0 -0.88841303763E+01  0.26337873501E+01 -0.17543670660E+03  0.17568125293E+03  0.00000000000E+00 0.  1.
         -3    1    1    2    0  502  0.33169008603E+02 -0.89025101316E+01 -0.22047759286E+03  0.22313629640E+03  0.00000000000E+00 0. -1.
<mgrwt>
<rscale>  1 0.30000000E+03</rscale>
<asrwt>0</asrwt>
<pdfrwt beam="1">  1       21 0.62275927E-02 0.30000000E+03</pdfrwt>
<pdfrwt beam="2">0</pdfrwt>
<totfact> 0.19760197E+04</totfact>
</mgrwt>
</event>
<event>
 6    1  0.1284012E-001  0.3000000E+03  0.7818608E-02  0.1093470E+00
         21   -1    0    0  501  502  0.00000000000E+00  0.00000000000E+00  0.11941430545E+01  0.11941430545E+01  0.00000000000E+00 0. -1.
         13   -1    0    0    0    0 -0.00000000000E+00 -0.00000000000E+00 -0.10000000000E+04  0.10000000000E+04  0.00000000000E+00 0.  1.
    9000005    2    1    2  501    0 -0.32547641974E+02 -0.83113700667E+01 -0.60947943576E+03  0.61042120373E+03  0.45205625623E+01 0.  0.
         13    1    3    3    0    0 -0.33104545198E+01 -0.19416444157E+01 -0.88456617887E+02  0.88539834765E+02  0.00000000000E+00 0.  1.
          1    1    3    3  501    0 -0.29237187454E+02 -0.63697256510E+01 -0.52102281787E+03  0.52188136897E+03  0.00000000000E+00 0.  1.
         -1    1    1    2    0  502  0.32547641974E+02  0.83113700667E+01 -0.38932642119E+03  0.39077293932E+03  0.00000000000E+00 0. -1.
<mgrwt>
<rscale>  1 0.30000000E+03</rscale>
<asrwt>0</asrwt>
<pdfrwt beam="1">  1       21 0.43423475E-02 0.30000000E+03</pdfrwt>
<pdfrwt beam="2">0</pdfrwt>
<totfact> 0.36604793E+04</totfact>
</mgrwt>
</event>
<event>
 6    1  0.1284012E-001  0.3000000E+03  0.7818608E-02  0.1093470E+00
         21   -1    0    0  501  502  0.00000000000E+00  0.00000000000E+00  0.11670065466E+01  0.11670065466E+01  0.00000000000E+00 0. -1.
         13   -1    0    0    0    0 -0.00000000000E+00 -0.00000000000E+00 -0.10000000000E+04  0.10000000000E+04  0.00000000000E+00 0.  1.
    9000005    2    1    2  501    0 -0.33000800266E+02  0.26628681642E+01 -0.38325200977E+03  0.38469633315E+03  0.36086093611E+01 0.  0.
         13    1    3    3    0    0 -0.14248877862E+02  0.28446339377E+01 -0.17416454780E+03  0.17476959739E+03  0.00000000000E+00 0.  1.
          3    1    3    3  501    0 -0.18751922403E+02 -0.18176577344E+00 -0.20908746197E+03  0.20992673576E+03  0.00000000000E+00 0.  1.
         -3    1    1    2    0  502  0.33000800266E+02 -0.26628681642E+01 -0.61558098369E+03  0.61647067340E+03  0.00000000000E+00 0. -1.
<mgrwt>
<rscale>  1 0.30000000E+03</rscale>
<asrwt>0</asrwt>
<pdfrwt beam="1">  1       21 0.42436691E-02 0.30000000E+03</pdfrwt>
<pdfrwt beam="2">0</pdfrwt>
<totfact> 0.38055689E+04</totfact>
</mgrwt>
</event>
<event>
 6    1  0.1284012E-001  0.3000000E+03  0.7818608E-02  0.1093470E+00
         21   -1    0    0  501  502  0.00000000000E+00  0.00000000000E+00  0.40327401838E+01  0.40327401838E+01  0.00000000000E+00 0. -1.
         13   -1    0    0    0    0 -0.00000000000E+00 -0.00000000000E+00 -0.10000000000E+04  0.10000000000E+04  0.00000000000E+00 0.  1.
    9000005    2    1    2  501    0  0.44834647155E+02 -0.43625854601E+02 -0.41358644335E+03  0.41830176425E+03  0.30428736983E+01 0.  0.
         13    1    3    3    0    0  0.32416538352E+02 -0.32994501802E+02 -0.29989275740E+03  0.30343884895E+03  0.00000000000E+00 0.  1.
          3    1    3    3  501    0  0.12418108803E+02 -0.10631352799E+02 -0.11369368594E+03  0.11486291530E+03  0.00000000000E+00 0.  1.
         -3    1    1    2    0  502 -0.44834647155E+02  0.43625854601E+02 -0.58238081647E+03  0.58573097593E+03  0.00000000000E+00 0. -1.
<mgrwt>
<rscale>  1 0.30000000E+03</rscale>
<asrwt>0</asrwt>
<pdfrwt beam="1">  1       21 0.14664541E-01 0.30000000E+03</pdfrwt>
<pdfrwt beam="2">0</pdfrwt>
<totfact> 0.42938520E+03</totfact>
</mgrwt>
</event>
<event>
 6    1  0.1284012E-001  0.3000000E+03  0.7818608E-02  0.1093470E+00
         21   -1    0    0  501  502  0.00000000000E+00  0.00000000000E+00  0.10431942717E+01  0.10431942717E+01  0.00000000000E+00 0. -1.
         13   -1    0    0    0    0 -0.00000000000E+00 -0.00000000000E+00 -0.10000000000E+04  0.10000000000E+04  0.00000000000E+00 0.  1.
    9000005    2    1    2  501    0  0.20902132626E+01  0.32134825333E+02 -0.49159410477E+03  0.49265955339E+03  0.34140463960E+01 0.  0.
         13    1    3    3    0    0 -0.30871421318E+00  0.90985052940E+00 -0.23051352836E+02  0.23071367537E+02  0.00000000000E+00 0.  1.
          3    1    3    3  501    0  0.23989274758E+01  0.31224974803E+02 -0.46854275193E+03  0.46958818585E+03  0.00000000000E+00 0.  1.
         -3    1    1    2    0  502 -0.20902132626E+01 -0.32134825333E+02 -0.50736270096E+03  0.50838364088E+03  0.00000000000E+00 0. -1.
<mgrwt>
<rscale>  1 0.30000000E+03</rscale>
<asrwt>0</asrwt>
<pdfrwt beam="1">  1       21 0.37934417E-02 0.30000000E+03</pdfrwt>
<pdfrwt beam="2">0</pdfrwt>
<totfact> 0.45969295E+04</totfact>
</mgrwt>
</event>
<event>
 6    1  0.1284012E-001  0.3000000E+03  0.7818608E-02  0.1093470E+00
         21   -1    0    0  501  502  0.00000000000E+00  0.00000000000E+00  0.13113743031E+01  0.13113743031E+01  0.00000000000E+00 0. -1.
         13   -1    0    0    0    0 -0.00000000000E+00 -0.00000000000E+00 -0.10000000000E+04  0.10000000000E+04  0.00000000000E+00 0.  1.
    9000005    2    1    2  501    0 -0.49434746344E+01 -0.35737241376E+02 -0.50128421640E+03  0.50260030088E+03  0.44281457252E+01 0.  0.
         13    1    3    3    0    0 -0.32892419035E+01 -0.93994065963E+01 -0.13654629380E+03  0.13690894166E+03  0.00000000000E+00 0.  1.
          3    1    3    3  501    0 -0.16542327308E+01 -0.26337834780E+02 -0.36473792260E+03  0.36569135922E+03  0.00000000000E+00 0.  1.
         -3    1    1    2    0  502  0.49434746344E+01  0.35737241376E+02 -0.49740440930E+03  0.49871107342E+03  0.00000000000E+00 0. -1.
<mgrwt>
<rscale>  1 0.30000000E+03</rscale>
<asrwt>0</asrwt>
<pdfrwt beam="1">  1       21 0.47686439E-02 0.30000000E+03</pdfrwt>
<pdfrwt beam="2">0</pdfrwt>
<totfact> 0.31224788E+04</totfact>
</mgrwt>
</event>
<event>
 6    1  0.1284012E-001  0.3000000E+03  0.7818608E-02  0.1093470E+00
         21   -1    0    0  501  502  0.00000000000E+00  0.00000000000E+00  0.18511492370E+01  0.18511492370E+01  0.00000000000E+00 0. -1.
         13   -1    0    0    0    0 -0.00000000000E+00 -0.00000000000E+00 -0.10000000000E+04  0.10000000000E+04  0.00000000000E+00 0.  1.
    9000005    2    1    2  501    0 -0.32600814989E+02 -0.23904577460E+02 -0.66902686026E+03  0.67025572316E+03  0.33989292319E+01 0.  0.
         13    1    3    3    0    0 -0.12004698610E+02 -0.98285547856E+01 -0.28058604533E+03  0.28101466530E+03  0.00000000000E+00 0.  1.
          3    1    3    3  501    0 -0.20596116379E+02 -0.14076022675E+02 -0.38844081492E+03  0.38924105786E+03  0.00000000000E+00 0.  1.
         -3    1    1    2    0  502  0.32600814989E+02  0.23904577460E+02 -0.32912199051E+03  0.33159542608E+03  0.00000000000E+00 0. -1.
<mgrwt>
<rscale>  1 0.30000000E+03</rscale>
<asrwt>0</asrwt>
<pdfrwt beam="1">  1       21 0.67314660E-02 0.30000000E+03</pdfrwt>
<pdfrwt beam="2">0</pdfrwt>
<totfact> 0.17270217E+04</totfact>
</mgrwt>
</event>
<event>
 6    1  0.1284012E-001  0.3000000E+03  0.7818608E-02  0.1093470E+00
         21   -1    0    0  501  502  0.00000000000E+00  0.00000000000E+00  0.11911086495E+01  0.11911086495E+01  0.00000000000E+00 0. -1.
         13   -1    0    0    0    0 -0.00000000000E+00 -0.00000000000E+00 -0.10000000000E+04  0.10000000000E+04  0.00000000000E+00 0.  1.
    9000005    2    1    2  501    0 -0.43137737486E+01  0.33405476779E+02 -0.60454890915E+03  0.60549492711E+03  0.31919703735E+01 0.  0.
         13    1    3    3    0    0 -0.11735673358E+01  0.90526808924E+01 -0.19049216377E+03  0.19071075677E+03  0.00000000000E+00 0.  1.
          3    1    3    3  501    0 -0.31402064129E+01  0.24352795886E+02 -0.41405674538E+03  0.41478417034E+03  0.00000000000E+00 0.  1.
         -1    1    1    2    0  502  0.43137737486E+01 -0.33405476779E+02 -0.39425998220E+03  0.39569618154E+03  0.00000000000E+00 0. -1.
<mgrwt>
<rscale>  1 0.30000000E+03</rscale>
<asrwt>0</asrwt>
<pdfrwt beam="1">  1       21 0.43313133E-02 0.30000000E+03</pdfrwt>
<pdfrwt beam="2">0</pdfrwt>
<totfact> 0.36762734E+04</totfact>
</mgrwt>
</event>
<event>
 6    1  0.1284012E-001  0.3000000E+03  0.7818608E-02  0.1093470E+00
         21   -1    0    0  501  502  0.00000000000E+00  0.00000000000E+00  0.15819920995E+01  0.15819920995E+01  0.00000000000E+00 0. -1.
         13   -1    0    0    0    0 -0.00000000000E+00 -0.00000000000E+00 -0.10000000000E+04  0.10000000000E+04  0.00000000000E+00 0.  1.
    9000005    2    1    2  501    0 -0.11801240048E+02  0.30975473628E+02 -0.22432774426E+03  0.22678234994E+03  0.29237244576E+01 0.  0.
         13    1    3    3    0    0 -0.26093278037E+01  0.43988751654E+01 -0.38736044725E+02  0.39072238933E+02  0.00000000000E+00 0.  1.
          3    1    3    3  501    0 -0.91919122448E+01  0.26576598462E+02 -0.18559169954E+03  0.18771011101E+03  0.00000000000E+00 0.  1.
         -3    1    1    2    0  502  0.11801240048E+02 -0.30975473628E+02 -0.77409026364E+03  0.77479964216E+03  0.00000000000E+00 0. -1.
<mgrwt>
<rscale>  1 0.30000000E+03</rscale>
<asrwt>0</asrwt>
<pdfrwt beam="1">  1       21 0.57527107E-02 0.30000000E+03</pdfrwt>
<pdfrwt beam="2">0</pdfrwt>
<totfact> 0.22656648E+04</totfact>
</mgrwt>
</event>
<event>
 6    1  0.1284012E-001  0.3000000E+03  0.7818608E-02  0.1093470E+00
         21   -1    0    0  501  502  0.00000000000E+00  0.00000000000E+00  0.15083746418E+01  0.15083746418E+01  0.00000000000E+00 0. -1.
         13   -1    0    0    0    0 -0.00000000000E+00 -0.00000000000E+00 -0.10000000000E+04  0.10000000000E+04  0.00000000000E+00 0.  1.
    9000005    2    1    2  501    0  0.75559820665E+01  0.34864276946E+02 -0.69520527296E+03  0.69613119438E+03  0.39569646948E+01 0.  0.
         13    1    3    3    0    0  0.70688651790E+01  0.25139517698E+02 -0.52084003242E+03  0.52149429870E+03  0.00000000000E+00 0.  1.
          1    1    3    3  501    0  0.48711688753E+00  0.97247592476E+01 -0.17436524053E+03  0.17463689568E+03  0.00000000000E+00 0.  1.
         -3    1    1    2    0  502 -0.75559820665E+01 -0.34864276946E+02 -0.30328635240E+03  0.30537718026E+03  0.00000000000E+00 0. -1.
<mgrwt>
<rscale>  1 0.30000000E+03</rscale>
<asrwt>0</asrwt>
<pdfrwt beam="1">  1       21 0.54850103E-02 0.30000000E+03</pdfrwt>
<pdfrwt beam="2">0</pdfrwt>
<totfact> 0.24588934E+04</totfact>
</mgrwt>
</event>
<event>
 6    1  0.1284012E-001  0.3000000E+03  0.7818608E-02  0.1093470E+00
         21   -1    0    0  501  502  0.00000000000E+00  0.00000000000E+00  0.20083398177E+01  0.20083398177E+01  0.00000000000E+00 0. -1.
         13   -1    0    0    0    0 -0.00000000000E+00 -0.00000000000E+00 -0.10000000000E+04  0.10000000000E+04  0.00000000000E+00 0.  1.
    9000005    2    1    2  501    0 -0.97897688309E+00  0.37628486471E+02 -0.76740721304E+03  0.76837176593E+03  0.80298615626E+01 0.  0.
         13    1    3    3    0    0  0.18490194493E+01  0.60132805662E+01 -0.17719676298E+03  0.17730840709E+03  0.00000000000E+00 0.  1.
          3    1    3    3  501    0 -0.28279963323E+01  0.31615205904E+02 -0.59021045006E+03  0.59106335884E+03  0.00000000000E+00 0.  1.
         -1    1    1    2    0  502  0.97897688309E+00 -0.37628486471E+02 -0.23058444715E+03  0.23363657388E+03  0.00000000000E+00 0. -1.
<mgrwt>
<rscale>  1 0.30000000E+03</rscale>
<asrwt>0</asrwt>
<pdfrwt beam="1">  1       21 0.73030693E-02 0.30000000E+03</pdfrwt>
<pdfrwt beam="2">0</pdfrwt>
<totfact> 0.14985924E+04</totfact>
</mgrwt>
</event>
<event>
 6    1  0.1284012E-001  0.3000000E+03  0.7818608E-02  0.1093470E+00
         21   -1    0    0  501  502  0.00000000000E+00  0.00000000000E+00  0.76921974659E+01  0.76921974659E+01  0.00000000000E+00 0. -1.
         13   -1    0    0    0    0 -0.00000000000E+00 -0.00000000000E+00 -0.10000000000E+04  0.10000000000E+04  0.00000000000E+00 0.  1.
    9000005    2    1    2  501    0 -0.59494386039E+02 -0.45561912286E+02 -0.75778647182E+03  0.76148958907E+03  0.32538541038E+01 0.  0.
         13    1    3    3    0    0 -0.33805848087E+01 -0.30891843888E+01 -0.53582079524E+02  0.53777417751E+02  0.00000000000E+00 0.  1.
          1    1    3    3  501    0 -0.56113801230E+02 -0.42472727897E+02 -0.70420439230E+03  0.70771217132E+03  0.00000000000E+00 0.  1.
         -1    1    1    2    0  502  0.59494386039E+02  0.45561912286E+02 -0.23452133071E+03  0.24620260840E+03  0.00000000000E+00 0. -1.
<mgrwt>
<rscale>  1 0.30000000E+03</rscale>
<asrwt>0</asrwt>
<pdfrwt beam="1">  1       21 0.27971686E-01 0.30000000E+03</pdfrwt>
<pdfrwt beam="2">0</pdfrwt>
<totfact> 0.12499041E+03</totfact>
</mgrwt>
</event>
<event>
 6    1  0.1284012E-001  0.3000000E+03  0.7818608E-02  0.1093470E+00
         21   -1    0    0  501  502  0.00000000000E+00  0.00000000000E+00  0.15752112967E+01  0.15752112967E+01  0.00000000000E+00 0. -1.
         13   -1    0    0    0    0 -0.00000000000E+00 -0.00000000000E+00 -0.10000000000E+04  0.10000000000E+04  0.00000000000E+00 0.  1.
    9000005    2    1    2  501    0 -0.19232288641E+02 -0.30843492201E+02 -0.29868179054E+03  0.30088878685E+03  0.14311216270E+01 0.  0.
         13    1    3    3    0    0 -0.19227658566E+02 -0.30646968298E+02 -0.29692972664E+03  0.29912572955E+03  0.00000000000E+00 0.  1.
          3    1    3    3  501    0 -0.46300745962E-02 -0.19652390301E+00 -0.17520639079E+01  0.17630572933E+01  0.00000000000E+00 0.  1.
         -3    1    1    2    0  502  0.19232288641E+02  0.30843492201E+02 -0.69974299816E+03  0.70068642445E+03  0.00000000000E+00 0. -1.
<mgrwt>
<rscale>  1 0.30000000E+03</rscale>
<asrwt>0</asrwt>
<pdfrwt beam="1">  1       21 0.57280532E-02 0.30000000E+03</pdfrwt>
<pdfrwt beam="2">0</pdfrwt>
<totfact> 0.22824715E+04</totfact>
</mgrwt>
</event>
<event>
 6    1  0.1284012E-001  0.3000000E+03  0.7818608E-02  0.1093470E+00
         21   -1    0    0  501  502  0.00000000000E+00  0.00000000000E+00  0.17830817847E+01  0.17830817847E+01  0.00000000000E+00 0. -1.
         13   -1    0    0    0    0 -0.00000000000E+00 -0.00000000000E+00 -0.10000000000E+04  0.10000000000E+04  0.00000000000E+00 0.  1.
    9000005    2    1    2  501    0  0.38721226678E+02  0.87361055406E+01 -0.66808257339E+03  0.66927091875E+03  0.36857666940E+01 0.  0.
         13    1    3    3    0    0  0.14370938884E+02  0.39825078847E+01 -0.22399764548E+03  0.22449349531E+03  0.00000000000E+00 0.  1.
          3    1    3    3  501    0  0.24350287794E+02  0.47535976559E+01 -0.44408492791E+03  0.44477742344E+03  0.00000000000E+00 0.  1.
         -1    1    1    2    0  502 -0.38721226678E+02 -0.87361055406E+01 -0.33013434482E+03  0.33251216304E+03  0.00000000000E+00 0. -1.
<mgrwt>
<rscale>  1 0.30000000E+03</rscale>
<asrwt>0</asrwt>
<pdfrwt beam="1">  1       21 0.64839474E-02 0.30000000E+03</pdfrwt>
<pdfrwt beam="2">0</pdfrwt>
<totfact> 0.18428768E+04</totfact>
</mgrwt>
</event>
<event>
 6    1  0.1284012E-001  0.3000000E+03  0.7818608E-02  0.1093470E+00
         21   -1    0    0  501  502  0.00000000000E+00  0.00000000000E+00  0.24334389743E+01  0.24334389743E+01  0.00000000000E+00 0. -1.
         13   -1    0    0    0    0 -0.00000000000E+00 -0.00000000000E+00 -0.10000000000E+04  0.10000000000E+04  0.00000000000E+00 0.  1.
    9000005    2    1    2  501    0 -0.27738505952E+02  0.18080522007E+02 -0.86831133775E+03  0.86900464623E+03  0.10400284615E+02 0.  0.
         13    1    3    3    0    0 -0.21768472028E+02  0.18199218636E+02 -0.66376795427E+03  0.66437412280E+03  0.00000000000E+00 0.  1.
          3    1    3    3  501    0 -0.59700339239E+01 -0.11869662848E+00 -0.20454338348E+03  0.20463052343E+03  0.00000000000E+00 0.  1.
         -3    1    1    2    0  502  0.27738505952E+02 -0.18080522007E+02 -0.12925522328E+03  0.13342879274E+03  0.00000000000E+00 0. -1.
<mgrwt>
<rscale>  1 0.30000000E+03</rscale>
<asrwt>0</asrwt>
<pdfrwt beam="1">  1       21 0.88488877E-02 0.30000000E+03</pdfrwt>
<pdfrwt beam="2">0</pdfrwt>
<totfact> 0.10693898E+04</totfact>
</mgrwt>
</event>
<event>
 6    1  0.1284012E-001  0.3000000E+03  0.7818608E-02  0.1093470E+00
         21   -1    0    0  501  502  0.00000000000E+00  0.00000000000E+00  0.18355263851E+01  0.18355263851E+01  0.00000000000E+00 0. -1.
         13   -1    0    0    0    0 -0.00000000000E+00 -0.00000000000E+00 -0.10000000000E+04  0.10000000000E+04  0.00000000000E+00 0.  1.
    9000005    2    1    2  501    0  0.28745470468E+02 -0.13107635428E+02 -0.83697845733E+03  0.83758253851E+03  0.36685977447E+01 0.  0.
         13    1    3    3    0    0  0.27364292985E+02 -0.11493335412E+02 -0.77967313555E+03  0.78023784809E+03  0.00000000000E+00 0.  1.
          1    1    3    3  501    0  0.13811774833E+01 -0.16143000169E+01 -0.57305321777E+02  0.57344690424E+02  0.00000000000E+00 0.  1.
         -3    1    1    2    0  502 -0.28745470468E+02  0.13107635428E+02 -0.16118601629E+03  0.16425298787E+03  0.00000000000E+00 0. -1.
<mgrwt>
<rscale>  1 0.30000000E+03</rscale>
<asrwt>0</asrwt>
<pdfrwt beam="1">  1       21 0.66746555E-02 0.30000000E+03</pdfrwt>
<pdfrwt beam="2">0</pdfrwt>
<totfact> 0.17526011E+04</totfact>
</mgrwt>
</event>
<event>
 6    1  0.1284012E-001  0.3000000E+03  0.7818608E-02  0.1093470E+00
         21   -1    0    0  501  502  0.00000000000E+00  0.00000000000E+00  0.27461595894E+01  0.27461595894E+01  0.00000000000E+00 0. -1.
         13   -1    0    0    0    0 -0.00000000000E+00 -0.00000000000E+00 -0.10000000000E+04  0.10000000000E+04  0.00000000000E+00 0.  1.
    9000005    2    1    2  501    0  0.41843479251E+02  0.24142764678E+02 -0.30521624343E+03  0.30902446794E+03  0.23273772051E+01 0.  0.
         13    1    3    3    0    0  0.38325026584E+02  0.22627700022E+02 -0.28371072881E+03  0.28718042780E+03  0.00000000000E+00 0.  1.
          3    1    3    3  501    0  0.35184526674E+01  0.15150646561E+01 -0.21505514626E+02  0.21844040135E+02  0.00000000000E+00 0.  1.
         -3    1    1    2    0  502 -0.41843479251E+02 -0.24142764678E+02 -0.69203759698E+03  0.69372169165E+03  0.00000000000E+00 0. -1.
<mgrwt>
<rscale>  1 0.30000000E+03</rscale>
<asrwt>0</asrwt>
<pdfrwt beam="1">  1       21 0.99860559E-02 0.30000000E+03</pdfrwt>
<pdfrwt beam="2">0</pdfrwt>
<totfact> 0.86246740E+03</totfact>
</mgrwt>
</event>
<event>
 6    1  0.1284012E-001  0.3000000E+03  0.7818608E-02  0.1093470E+00
         21   -1    0    0  501  502  0.00000000000E+00  0.00000000000E+00  0.58449646706E+01  0.58449646706E+01  0.00000000000E+00 0. -1.
         13   -1    0    0    0    0 -0.00000000000E+00 -0.00000000000E+00 -0.10000000000E+04  0.10000000000E+04  0.00000000000E+00 0.  1.
    9000005    2    1    2  501    0  0.63014473089E+02 -0.48691642413E+01 -0.77985881769E+03  0.78242293918E+03  0.33686272685E+01 0.  0.
         13    1    3    3    0    0  0.11859538666E+02  0.17486240166E+00 -0.13731135378E+03  0.13782266544E+03  0.00000000000E+00 0.  1.
          1    1    3    3  501    0  0.51154934423E+02 -0.50440266429E+01 -0.64254746392E+03  0.64460027374E+03  0.00000000000E+00 0.  1.
         -3    1    1    2    0  502 -0.63014473089E+02  0.48691642413E+01 -0.21429621764E+03  0.22342202549E+03  0.00000000000E+00 0. -1.
<mgrwt>
<rscale>  1 0.30000000E+03</rscale>
<asrwt>0</asrwt>
<pdfrwt beam="1">  1       21 0.21254462E-01 0.30000000E+03</pdfrwt>
<pdfrwt beam="2">0</pdfrwt>
<totfact> 0.21355179E+03</totfact>
</mgrwt>
</event>
<event>
 6    1  0.1284012E-001  0.3000000E+03  0.7818608E-02  0.1093470E+00
         21   -1    0    0  501  502  0.00000000000E+00  0.00000000000E+00  0.64103009395E+01  0.64103009395E+01  0.00000000000E+00 0. -1.
         13   -1    0    0    0    0 -0.00000000000E+00 -0.00000000000E+00 -0.10000000000E+04  0.10000000000E+04  0.00000000000E+00 0.  1.
    9000005    2    1    2  501    0 -0.59424083290E+02  0.22672170756E+02 -0.80234222542E+03  0.80486416434E+03  0.28332589685E+01 0.  0.
         13    1    3    3    0    0 -0.11410965361E+02  0.50925985411E+01 -0.14663543717E+03  0.14716689888E+03  0.00000000000E+00 0.  1.
          1    1    3    3  501    0 -0.48013117929E+02  0.17579572215E+02 -0.65570678824E+03  0.65769726547E+03  0.00000000000E+00 0.  1.
         -1    1    1    2    0  502  0.59424083290E+02 -0.22672170756E+02 -0.19124747364E+03  0.20154613660E+03  0.00000000000E+00 0. -1.
<mgrwt>
<rscale>  1 0.30000000E+03</rscale>
<asrwt>0</asrwt>
<pdfrwt beam="1">  1       21 0.23310234E-01 0.30000000E+03</pdfrwt>
<pdfrwt beam="2">0</pdfrwt>
<totfact> 0.17872986E+03</totfact>
</mgrwt>
</event>
<event>
 6    1  0.1284012E-001  0.3000000E+03  0.7818608E-02  0.1093470E+00
         21   -1    0    0  501  502  0.00000000000E+00  0.00000000000E+00  0.16410319581E+01  0.16410319581E+01  0.00000000000E+00 0. -1.
         13   -1    0    0    0    0 -0.00000000000E+00 -0.00000000000E+00 -0.10000000000E+04  0.10000000000E+04  0.00000000000E+00 0.  1.
    9000005    2    1    2  501    0 -0.34005316454E+02 -0.21108681973E+02 -0.57235511532E+03  0.57376111827E+03  0.30829866186E+01 0.  0.
         13    1    3    3    0    0 -0.25778351362E+02 -0.14811190609E+02 -0.43685291325E+03  0.43786340631E+03  0.00000000000E+00 0.  1.
          3    1    3    3  501    0 -0.82269650925E+01 -0.62974913636E+01 -0.13550220206E+03  0.13589771196E+03  0.00000000000E+00 0.  1.
         -1    1    1    2    0  502  0.34005316454E+02  0.21108681973E+02 -0.42600385272E+03  0.42787991369E+03  0.00000000000E+00 0. -1.
<mgrwt>
<rscale>  1 0.30000000E+03</rscale>
<asrwt>0</asrwt>
<pdfrwt beam="1">  1       21 0.59674015E-02 0.30000000E+03</pdfrwt>
<pdfrwt beam="2">0</pdfrwt>
<totfact> 0.21270559E+04</totfact>
</mgrwt>
</event>
<event>
 6    1  0.1284012E-001  0.3000000E+03  0.7818608E-02  0.1093470E+00
         21   -1    0    0  501  502  0.00000000000E+00  0.00000000000E+00  0.32612157222E+01  0.32612157222E+01  0.00000000000E+00 0. -1.
         13   -1    0    0    0    0 -0.00000000000E+00 -0.00000000000E+00 -0.10000000000E+04  0.10000000000E+04  0.00000000000E+00 0.  1.
    9000005    2    1    2  501    0  0.35939501714E+02  0.27973338760E+02 -0.79926057250E+03  0.80059942951E+03  0.82357944147E+01 0.  0.
         13    1    3    3    0    0  0.30559870736E+02  0.23596752927E+02 -0.72065063026E+03  0.72168417146E+03  0.00000000000E+00 0.  1.
          1    1    3    3  501    0  0.53796309780E+01  0.43765858332E+01 -0.78609942244E+02  0.78915258047E+02  0.00000000000E+00 0.  1.
         -1    1    1    2    0  502 -0.35939501714E+02 -0.27973338760E+02 -0.19747821177E+03  0.20266178621E+03  0.00000000000E+00 0. -1.
<mgrwt>
<rscale>  1 0.30000000E+03</rscale>
<asrwt>0</asrwt>
<pdfrwt beam="1">  1       21 0.11858991E-01 0.30000000E+03</pdfrwt>
<pdfrwt beam="2">0</pdfrwt>
<totfact> 0.63314105E+03</totfact>
</mgrwt>
</event>
<event>
 6    1  0.1284012E-001  0.3000000E+03  0.7818608E-02  0.1093470E+00
         21   -1    0    0  501  502  0.00000000000E+00  0.00000000000E+00  0.14102228621E+01  0.14102228621E+01  0.00000000000E+00 0. -1.
         13   -1    0    0    0    0 -0.00000000000E+00 -0.00000000000E+00 -0.10000000000E+04  0.10000000000E+04  0.00000000000E+00 0.  1.
    9000005    2    1    2  501    0 -0.23763316284E+02 -0.19775733187E+02 -0.78307305441E+03  0.78368738851E+03  0.25960622724E+01 0.  0.
         13    1    3    3    0    0 -0.20888298249E+02 -0.16510626409E+02 -0.68743803890E+03  0.68795347162E+03  0.00000000000E+00 0.  1.
          3    1    3    3  501    0 -0.28750180343E+01 -0.32651067782E+01 -0.95635015511E+02  0.95733916888E+02  0.00000000000E+00 0.  1.
         -1    1    1    2    0  502  0.23763316284E+02  0.19775733187E+02 -0.21551672272E+03  0.21772283435E+03  0.00000000000E+00 0. -1.
<mgrwt>
<rscale>  1 0.30000000E+03</rscale>
<asrwt>0</asrwt>
<pdfrwt beam="1">  1       21 0.51280939E-02 0.30000000E+03</pdfrwt>
<pdfrwt beam="2">0</pdfrwt>
<totfact> 0.27588144E+04</totfact>
</mgrwt>
</event>
<event>
 6    1  0.1284012E-001  0.3000000E+03  0.7818608E-02  0.1093470E+00
         21   -1    0    0  501  502  0.00000000000E+00  0.00000000000E+00  0.14012251284E+01  0.14012251284E+01  0.00000000000E+00 0. -1.
         13   -1    0    0    0    0 -0.00000000000E+00 -0.00000000000E+00 -0.10000000000E+04  0.10000000000E+04  0.00000000000E+00 0.  1.
    9000005    2    1    2  501    0 -0.19483970463E+02  0.25544749238E+02 -0.75512705596E+03  0.75581898386E+03  0.36477932390E+01 0.  0.
         13    1    3    3    0    0 -0.17977470430E+02  0.22750317057E+02 -0.70037448272E+03  0.70097445204E+03  0.00000000000E+00 0.  1.
          3    1    3    3  501    0 -0.15065000329E+01  0.27944321814E+01 -0.54752573244E+02  0.54844531819E+02  0.00000000000E+00 0.  1.
         -1    1    1    2    0  502  0.19483970463E+02 -0.25544749238E+02 -0.24347171891E+03  0.24558224127E+03  0.00000000000E+00 0. -1.
<mgrwt>
<rscale>  1 0.30000000E+03</rscale>
<asrwt>0</asrwt>
<pdfrwt beam="1">  1       21 0.50953748E-02 0.30000000E+03</pdfrwt>
<pdfrwt beam="2">0</pdfrwt>
<totfact> 0.27891173E+04</totfact>
</mgrwt>
</event>
<event>
 6    1  0.1284012E-001  0.3000000E+03  0.7818608E-02  0.1093470E+00
         21   -1    0    0  501  502  0.00000000000E+00  0.00000000000E+00  0.30719423387E+01  0.30719423387E+01  0.00000000000E+00 0. -1.
         13   -1    0    0    0    0 -0.00000000000E+00 -0.00000000000E+00 -0.10000000000E+04  0.10000000000E+04  0.00000000000E+00 0.  1.
    9000005    2    1    2  501    0 -0.40345666912E+02  0.10149856165E+02 -0.82963984689E+03  0.83068824856E+03  0.31461602668E+01 0.  0.
         13    1    3    3    0    0 -0.32753732325E+02  0.94901267536E+01 -0.67901318332E+03  0.67986893782E+03  0.00000000000E+00 0.  1.
          1    1    3    3  501    0 -0.75919345871E+01  0.65972941122E+00 -0.15062666356E+03  0.15081931073E+03  0.00000000000E+00 0.  1.
         -1    1    1    2    0  502  0.40345666912E+02 -0.10149856165E+02 -0.16728821077E+03  0.17238369378E+03  0.00000000000E+00 0. -1.
<mgrwt>
<rscale>  1 0.30000000E+03</rscale>
<asrwt>0</asrwt>
<pdfrwt beam="1">  1       21 0.11170723E-01 0.30000000E+03</pdfrwt>
<pdfrwt beam="2">0</pdfrwt>
<totfact> 0.70537068E+03</totfact>
</mgrwt>
</event>
<event>
 6    1  0.1284012E-001  0.3000000E+03  0.7818608E-02  0.1093470E+00
         21   -1    0    0  501  502  0.00000000000E+00  0.00000000000E+00  0.38347664353E+01  0.38347664353E+01  0.00000000000E+00 0. -1.
         13   -1    0    0    0    0 -0.00000000000E+00 -0.00000000000E+00 -0.10000000000E+04  0.10000000000E+04  0.00000000000E+00 0.  1.
    9000005    2    1    2  501    0  0.31162640314E+02 -0.12354389055E+02 -0.91993978266E+03  0.92056376040E+03  0.49691210447E+01 0.  0.
         13    1    3    3    0    0  0.25976116283E+02 -0.99102515518E+01 -0.80665108956E+03  0.80713007129E+03  0.00000000000E+00 0.  1.
          3    1    3    3  501    0  0.51865240309E+01 -0.24441375034E+01 -0.11328869310E+03  0.11343368911E+03  0.00000000000E+00 0.  1.
         -3    1    1    2    0  502 -0.31162640314E+02  0.12354389055E+02 -0.76225450905E+02  0.83271006034E+02  0.00000000000E+00 0. -1.
<mgrwt>
<rscale>  1 0.30000000E+03</rscale>
<asrwt>0</asrwt>
<pdfrwt beam="1">  1       21 0.13944635E-01 0.30000000E+03</pdfrwt>
<pdfrwt beam="2">0</pdfrwt>
<totfact> 0.47108432E+03</totfact>
</mgrwt>
</event>
<event>
 6    1  0.1284012E-001  0.3000000E+03  0.7818608E-02  0.1093470E+00
         21   -1    0    0  501  502  0.00000000000E+00  0.00000000000E+00  0.28632346066E+01  0.28632346066E+01  0.00000000000E+00 0. -1.
         13   -1    0    0    0    0 -0.00000000000E+00 -0.00000000000E+00 -0.10000000000E+04  0.10000000000E+04  0.00000000000E+00 0.  1.
    9000005    2    1    2  501    0 -0.45083941432E+02 -0.98490810284E+01 -0.75195777596E+03  0.75337916091E+03  0.31775909209E+01 0.  0.
         13    1    3    3    0    0 -0.84613855824E+01 -0.20984506867E+01 -0.16299306698E+03  0.16322603476E+03  0.00000000000E+00 0.  1.
          3    1    3    3  501    0 -0.36622555849E+02 -0.77506303417E+01 -0.58896470898E+03  0.59015312614E+03  0.00000000000E+00 0.  1.
         -3    1    1    2    0  502  0.45083941432E+02  0.98490810284E+01 -0.24517898943E+03  0.24948407370E+03  0.00000000000E+00 0. -1.
<mgrwt>
<rscale>  1 0.30000000E+03</rscale>
<asrwt>0</asrwt>
<pdfrwt beam="1">  1       21 0.10411784E-01 0.30000000E+03</pdfrwt>
<pdfrwt beam="2">0</pdfrwt>
<totfact> 0.80039730E+03</totfact>
</mgrwt>
</event>
<event>
 6    1  0.1284012E-001  0.3000000E+03  0.7818608E-02  0.1093470E+00
         21   -1    0    0  501  502  0.00000000000E+00  0.00000000000E+00  0.23156134649E+01  0.23156134649E+01  0.00000000000E+00 0. -1.
         13   -1    0    0    0    0 -0.00000000000E+00 -0.00000000000E+00 -0.10000000000E+04  0.10000000000E+04  0.00000000000E+00 0.  1.
    9000005    2    1    2  501    0 -0.38843302704E+02  0.13526504692E+02 -0.75840506732E+03  0.75952689647E+03  0.33304408734E+01 0.  0.
         13    1    3    3    0    0 -0.16840253564E+02  0.76050280916E+01 -0.34330651745E+03  0.34380342569E+03  0.00000000000E+00 0.  1.
          1    1    3    3  501    0 -0.22003049140E+02  0.59214766000E+01 -0.41509854986E+03  0.41572347078E+03  0.00000000000E+00 0.  1.
         -1    1    1    2    0  502  0.38843302704E+02 -0.13526504692E+02 -0.23927931922E+03  0.24278871700E+03  0.00000000000E+00 0. -1.
<mgrwt>
<rscale>  1 0.30000000E+03</rscale>
<asrwt>0</asrwt>
<pdfrwt beam="1">  1       21 0.84204304E-02 0.30000000E+03</pdfrwt>
<pdfrwt beam="2">0</pdfrwt>
<totfact> 0.11673199E+04</totfact>
</mgrwt>
</event>
<event>
 6    1  0.1284012E-001  0.3000000E+03  0.7818608E-02  0.1093470E+00
         21   -1    0    0  501  502  0.00000000000E+00  0.00000000000E+00  0.88034172285E+01  0.88034172285E+01  0.00000000000E+00 0. -1.
         13   -1    0    0    0    0 -0.00000000000E+00 -0.00000000000E+00 -0.10000000000E+04  0.10000000000E+04  0.00000000000E+00 0.  1.
    9000005    2    1    2  501    0  0.20275597327E+02 -0.62627062941E+02 -0.13648621195E+03  0.15156187201E+03  0.30440326823E+01 0.  0.
         13    1    3    3    0    0  0.52389485527E+01 -0.19259729012E+02 -0.43761078407E+02  0.48097980487E+02  0.00000000000E+00 0.  1.
          3    1    3    3  501    0  0.15036648775E+02 -0.43367333929E+02 -0.92725133544E+02  0.10346389152E+03  0.00000000000E+00 0.  1.
         -1    1    1    2    0  502 -0.20275597327E+02  0.62627062941E+02 -0.85471037082E+03  0.85724154522E+03  0.00000000000E+00 0. -1.
<mgrwt>
<rscale>  1 0.30000000E+03</rscale>
<asrwt>0</asrwt>
<pdfrwt beam="1">  1       21 0.32012494E-01 0.30000000E+03</pdfrwt>
<pdfrwt beam="2">0</pdfrwt>
<totfact> 0.95421423E+02</totfact>
</mgrwt>
</event>
<event>
 6    1  0.1284012E-001  0.3000000E+03  0.7818608E-02  0.1093470E+00
         21   -1    0    0  501  502  0.00000000000E+00  0.00000000000E+00  0.26443762886E+01  0.26443762886E+01  0.00000000000E+00 0. -1.
         13   -1    0    0    0    0 -0.00000000000E+00 -0.00000000000E+00 -0.10000000000E+04  0.10000000000E+04  0.00000000000E+00 0.  1.
    9000005    2    1    2  501    0 -0.61924399805E+01 -0.40303150884E+02 -0.80376397433E+03  0.80480500459E+03  0.34465485872E+01 0.  0.
         13    1    3    3    0    0 -0.17778963222E-01 -0.87767346345E+01 -0.18284811201E+03  0.18305863392E+03  0.00000000000E+00 0.  1.
          1    1    3    3  501    0 -0.61746610173E+01 -0.31526416250E+02 -0.62091586232E+03  0.62174637067E+03  0.00000000000E+00 0.  1.
         -1    1    1    2    0  502  0.61924399805E+01  0.40303150884E+02 -0.19359164938E+03  0.19783937169E+03  0.00000000000E+00 0. -1.
<mgrwt>
<rscale>  1 0.30000000E+03</rscale>
<asrwt>0</asrwt>
<pdfrwt beam="1">  1       21 0.96159341E-02 0.30000000E+03</pdfrwt>
<pdfrwt beam="2">0</pdfrwt>
<totfact> 0.92260912E+03</totfact>
</mgrwt>
</event>
<event>
 6    1  0.1284012E-001  0.3000000E+03  0.7818608E-02  0.1093470E+00
         21   -1    0    0  501  502  0.00000000000E+00  0.00000000000E+00  0.20361952753E+01  0.20361952753E+01  0.00000000000E+00 0. -1.
         13   -1    0    0    0    0 -0.00000000000E+00 -0.00000000000E+00 -0.10000000000E+04  0.10000000000E+04  0.00000000000E+00 0.  1.
    9000005    2    1    2  501    0  0.30269243949E+02 -0.48794605840E+01 -0.86637204323E+03  0.86691984557E+03  0.30765378035E+01 0.  0.
         13    1    3    3    0    0  0.18147751970E+01 -0.64213697841E+00 -0.38478596080E+02  0.38526719368E+02  0.00000000000E+00 0.  1.
          3    1    3    3  501    0  0.28454468752E+02 -0.42373236055E+01 -0.82789344715E+03  0.82839312620E+03  0.00000000000E+00 0.  1.
         -3    1    1    2    0  502 -0.30269243949E+02  0.48794605840E+01 -0.13159176150E+03  0.13511634971E+03  0.00000000000E+00 0. -1.
<mgrwt>
<rscale>  1 0.30000000E+03</rscale>
<asrwt>0</asrwt>
<pdfrwt beam="1">  1       21 0.74043621E-02 0.30000000E+03</pdfrwt>
<pdfrwt beam="2">0</pdfrwt>
<totfact> 0.14629400E+04</totfact>
</mgrwt>
</event>
<event>
 6    1  0.1284012E-001  0.3000000E+03  0.7818608E-02  0.1093470E+00
         21   -1    0    0  501  502  0.00000000000E+00  0.00000000000E+00  0.51336251948E+01  0.51336251948E+01  0.00000000000E+00 0. -1.
         13   -1    0    0    0    0 -0.00000000000E+00 -0.00000000000E+00 -0.10000000000E+04  0.10000000000E+04  0.00000000000E+00 0.  1.
    9000005    2    1    2  501    0  0.57517021161E+02  0.32293850865E+02 -0.69322732347E+03  0.69636637010E+03  0.33013447998E+01 0.  0.
         13    1    3    3    0    0  0.40608887233E+02  0.21555502918E+02 -0.49387864488E+03  0.49601394869E+03  0.00000000000E+00 0.  1.
          3    1    3    3  501    0  0.16908133928E+02  0.10738347947E+02 -0.19934867859E+03  0.20035242141E+03  0.00000000000E+00 0.  1.
         -3    1    1    2    0  502 -0.57517021161E+02 -0.32293850865E+02 -0.30163905134E+03  0.30876725510E+03  0.00000000000E+00 0. -1.
<mgrwt>
<rscale>  1 0.30000000E+03</rscale>
<asrwt>0</asrwt>
<pdfrwt beam="1">  1       21 0.18667767E-01 0.30000000E+03</pdfrwt>
<pdfrwt beam="2">0</pdfrwt>
<totfact> 0.27349239E+03</totfact>
</mgrwt>
</event>
<event>
 6    1  0.1284012E-001  0.3000000E+03  0.7818608E-02  0.1093470E+00
         21   -1    0    0  501  502  0.00000000000E+00  0.00000000000E+00  0.37735629979E+01  0.37735629979E+01  0.00000000000E+00 0. -1.
         13   -1    0    0    0    0 -0.00000000000E+00 -0.00000000000E+00 -0.10000000000E+04  0.10000000000E+04  0.00000000000E+00 0.  1.
    9000005    2    1    2  501    0 -0.31428338497E+02 -0.41914941567E+02 -0.75969525967E+03  0.76151006877E+03  0.40117925913E+01 0.  0.
         13    1    3    3    0    0 -0.21107575254E+02 -0.27701344474E+02 -0.47709907519E+03  0.47836849997E+03  0.00000000000E+00 0.  1.
          3    1    3    3  501    0 -0.10320763243E+02 -0.14213597093E+02 -0.28259618449E+03  0.28314156880E+03  0.00000000000E+00 0.  1.
         -1    1    1    2    0  502  0.31428338497E+02  0.41914941567E+02 -0.23653117733E+03  0.24226349423E+03  0.00000000000E+00 0. -1.
<mgrwt>
<rscale>  1 0.30000000E+03</rscale>
<asrwt>0</asrwt>
<pdfrwt beam="1">  1       21 0.13722076E-01 0.30000000E+03</pdfrwt>
<pdfrwt beam="2">0</pdfrwt>
<totfact> 0.48520200E+03</totfact>
</mgrwt>
</event>
<event>
 6    1  0.1284012E-001  0.3000000E+03  0.7818608E-02  0.1093470E+00
         21   -1    0    0  501  502  0.00000000000E+00  0.00000000000E+00  0.24570390558E+01  0.24570390558E+01  0.00000000000E+00 0. -1.
         13   -1    0    0    0    0 -0.00000000000E+00 -0.00000000000E+00 -0.10000000000E+04  0.10000000000E+04  0.00000000000E+00 0.  1.
    9000005    2    1    2  501    0  0.41256606576E+02 -0.27318716023E+02 -0.48471795276E+03  0.48725037290E+03  0.36072611570E+01 0.  0.
         13    1    3    3    0    0  0.23714488848E+02 -0.17732073294E+02 -0.28426052991E+03  0.28579862188E+03  0.00000000000E+00 0.  1.
          3    1    3    3  501    0  0.17542117728E+02 -0.95866427289E+01 -0.20045742285E+03  0.20145175102E+03  0.00000000000E+00 0.  1.
         -1    1    1    2    0  502 -0.41256606576E+02  0.27318716023E+02 -0.51282500818E+03  0.51520666615E+03  0.00000000000E+00 0. -1.
<mgrwt>
<rscale>  1 0.30000000E+03</rscale>
<asrwt>0</asrwt>
<pdfrwt beam="1">  1       21 0.89347063E-02 0.30000000E+03</pdfrwt>
<pdfrwt beam="2">0</pdfrwt>
<totfact> 0.10512789E+04</totfact>
</mgrwt>
</event>
<event>
 6    1  0.1284012E-001  0.3000000E+03  0.7818608E-02  0.1093470E+00
         21   -1    0    0  501  502  0.00000000000E+00  0.00000000000E+00  0.24804362671E+01  0.24804362671E+01  0.00000000000E+00 0. -1.
         13   -1    0    0    0    0 -0.00000000000E+00 -0.00000000000E+00 -0.10000000000E+04  0.10000000000E+04  0.00000000000E+00 0.  1.
    9000005    2    1    2  501    0  0.10233199549E+02  0.28566401672E+02 -0.89511253633E+03  0.89567239846E+03  0.90462699923E+01 0.  0.
         13    1    3    3    0    0  0.10676297792E+02  0.20441104408E+02 -0.72285119630E+03  0.72321896689E+03  0.00000000000E+00 0.  1.
          1    1    3    3  501    0 -0.44309824325E+00  0.81252972643E+01 -0.17226134003E+03  0.17245343157E+03  0.00000000000E+00 0.  1.
         -1    1    1    2    0  502 -0.10233199549E+02 -0.28566401672E+02 -0.10240702741E+03  0.10680803780E+03  0.00000000000E+00 0. -1.
<mgrwt>
<rscale>  1 0.30000000E+03</rscale>
<asrwt>0</asrwt>
<pdfrwt beam="1">  1       21 0.90197873E-02 0.30000000E+03</pdfrwt>
<pdfrwt beam="2">0</pdfrwt>
<totfact> 0.10337784E+04</totfact>
</mgrwt>
</event>
<event>
 6    1  0.1284012E-001  0.3000000E+03  0.7818608E-02  0.1093470E+00
         21   -1    0    0  501  502  0.00000000000E+00  0.00000000000E+00  0.12836193777E+01  0.12836193777E+01  0.00000000000E+00 0. -1.
         13   -1    0    0    0    0 -0.00000000000E+00 -0.00000000000E+00 -0.10000000000E+04  0.10000000000E+04  0.00000000000E+00 0.  1.
    9000005    2    1    2  501    0 -0.34142309470E+02  0.12690809806E+01 -0.62813992282E+03  0.62913550513E+03  0.91876716084E+01 0.  0.
         13    1    3    3    0    0 -0.27973151766E+02 -0.14036870951E+01 -0.54743262173E+03  0.54814865036E+03  0.00000000000E+00 0.  1.
          3    1    3    3  501    0 -0.61691577035E+01  0.26727680757E+01 -0.80707301085E+02  0.80986854762E+02  0.00000000000E+00 0.  1.
         -3    1    1    2    0  502  0.34142309470E+02 -0.12690809806E+01 -0.37057645780E+03  0.37214811425E+03  0.00000000000E+00 0. -1.
<mgrwt>
<rscale>  1 0.30000000E+03</rscale>
<asrwt>0</asrwt>
<pdfrwt beam="1">  1       21 0.46677167E-02 0.30000000E+03</pdfrwt>
<pdfrwt beam="2">0</pdfrwt>
<totfact> 0.32381544E+04</totfact>
</mgrwt>
</event>
<event>
 6    1  0.1284012E-001  0.3000000E+03  0.7818608E-02  0.1093470E+00
         21   -1    0    0  501  502  0.00000000000E+00  0.00000000000E+00  0.10885277146E+02  0.10885277146E+02  0.00000000000E+00 0. -1.
         13   -1    0    0    0    0 -0.00000000000E+00 -0.00000000000E+00 -0.10000000000E+04  0.10000000000E+04  0.00000000000E+00 0.  1.
    9000005    2    1    2  501    0  0.30734435205E+02  0.10169271389E+02 -0.97504007448E+03  0.97558491858E+03  0.38427770135E+01 0.  0.
         13    1    3    3    0    0  0.93404167045E+01  0.48566872777E+01 -0.33470725956E+03  0.33487278241E+03  0.00000000000E+00 0.  1.
          1    1    3    3  501    0  0.21394018500E+02  0.53125841109E+01 -0.64033281492E+03  0.64071213617E+03  0.00000000000E+00 0.  1.
         -1    1    1    2    0  502 -0.30734435205E+02 -0.10169271389E+02 -0.14074648377E+02  0.35300358566E+02  0.00000000000E+00 0. -1.
<mgrwt>
<rscale>  1 0.30000000E+03</rscale>
<asrwt>0</asrwt>
<pdfrwt beam="1">  1       21 0.39582909E-01 0.30000000E+03</pdfrwt>
<pdfrwt beam="2">0</pdfrwt>
<totfact> 0.61736985E+02</totfact>
</mgrwt>
</event>
<event>
 6    1  0.1284012E-001  0.3000000E+03  0.7818608E-02  0.1093470E+00
         21   -1    0    0  501  502  0.00000000000E+00  0.00000000000E+00  0.16640028636E+01  0.16640028636E+01  0.00000000000E+00 0. -1.
         13   -1    0    0    0    0 -0.00000000000E+00 -0.00000000000E+00 -0.10000000000E+04  0.10000000000E+04  0.00000000000E+00 0.  1.
    9000005    2    1    2  501    0  0.24844305287E+01  0.32050997927E+02 -0.80690675591E+03  0.80755425746E+03  0.34535705559E+01 0.  0.
         13    1    3    3    0    0  0.22657317040E+01  0.25599998570E+02 -0.67622413635E+03  0.67671232888E+03  0.00000000000E+00 0.  1.
          3    1    3    3  501    0  0.21869882465E+00  0.64509993563E+01 -0.13068261956E+03  0.13084192859E+03  0.00000000000E+00 0.  1.
         -1    1    1    2    0  502 -0.24844305287E+01 -0.32050997927E+02 -0.19142924123E+03  0.19410974540E+03  0.00000000000E+00 0. -1.
<mgrwt>
<rscale>  1 0.30000000E+03</rscale>
<asrwt>0</asrwt>
<pdfrwt beam="1">  1       21 0.60509323E-02 0.30000000E+03</pdfrwt>
<pdfrwt beam="2">0</pdfrwt>
<totfact> 0.20766655E+04</totfact>
</mgrwt>
</event>
<event>
 6    1  0.1284012E-001  0.3000000E+03  0.7818608E-02  0.1093470E+00
         21   -1    0    0  501  502  0.00000000000E+00  0.00000000000E+00  0.10222367796E+01  0.10222367796E+01  0.00000000000E+00 0. -1.
         13   -1    0    0    0    0 -0.00000000000E+00 -0.00000000000E+00 -0.10000000000E+04  0.10000000000E+04  0.00000000000E+00 0.  1.
    9000005    2    1    2  501    0  0.11910170830E+02 -0.29551233633E+02 -0.52562674042E+03  0.52660014795E+03  0.30196031824E+01 0.  0.
         13    1    3    3    0    0  0.73679000845E+01 -0.21895900998E+02 -0.37986144409E+03  0.38056331029E+03  0.00000000000E+00 0.  1.
          1    1    3    3  501    0  0.45422707457E+01 -0.76553326347E+01 -0.14576529633E+03  0.14603683766E+03  0.00000000000E+00 0.  1.
         -3    1    1    2    0  502 -0.11910170830E+02  0.29551233633E+02 -0.47335102280E+03  0.47442208883E+03  0.00000000000E+00 0. -1.
<mgrwt>
<rscale>  1 0.30000000E+03</rscale>
<asrwt>0</asrwt>
<pdfrwt beam="1">  1       21 0.37172325E-02 0.30000000E+03</pdfrwt>
<pdfrwt beam="2">0</pdfrwt>
<totfact> 0.47563006E+04</totfact>
</mgrwt>
</event>
<event>
 6    1  0.1284012E-001  0.3000000E+03  0.7818608E-02  0.1093470E+00
         21   -1    0    0  501  502  0.00000000000E+00  0.00000000000E+00  0.20957029977E+01  0.20957029977E+01  0.00000000000E+00 0. -1.
         13   -1    0    0    0    0 -0.00000000000E+00 -0.00000000000E+00 -0.10000000000E+04  0.10000000000E+04  0.00000000000E+00 0.  1.
    9000005    2    1    2  501    0 -0.39455636724E+02 -0.22544330164E+02 -0.55357978601E+03  0.55545349142E+03  0.36065999585E+01 0.  0.
         13    1    3    3    0    0 -0.19990086731E+02 -0.10755845476E+02 -0.25563351824E+03  0.25663941129E+03  0.00000000000E+00 0.  1.
          1    1    3    3  501    0 -0.19465549993E+02 -0.11788484688E+02 -0.29794626776E+03  0.29881408013E+03  0.00000000000E+00 0.  1.
         -1    1    1    2    0  502  0.39455636724E+02  0.22544330164E+02 -0.44432451100E+03  0.44664221158E+03  0.00000000000E+00 0. -1.
<mgrwt>
<rscale>  1 0.30000000E+03</rscale>
<asrwt>0</asrwt>
<pdfrwt beam="1">  1       21 0.76207542E-02 0.30000000E+03</pdfrwt>
<pdfrwt beam="2">0</pdfrwt>
<totfact> 0.13909839E+04</totfact>
</mgrwt>
</event>
<event>
 6    1  0.1284012E-001  0.3000000E+03  0.7818608E-02  0.1093470E+00
         21   -1    0    0  501  502  0.00000000000E+00  0.00000000000E+00  0.37683948574E+01  0.37683948574E+01  0.00000000000E+00 0. -1.
         13   -1    0    0    0    0 -0.00000000000E+00 -0.00000000000E+00 -0.10000000000E+04  0.10000000000E+04  0.00000000000E+00 0.  1.
    9000005    2    1    2  501    0 -0.18755109889E+02  0.41119478855E+02 -0.83633153592E+03  0.83760402495E+03  0.93540876117E+01 0.  0.
         13    1    3    3    0    0 -0.86499522939E+01  0.25378113685E+02 -0.55876305556E+03  0.55940595508E+03  0.00000000000E+00 0.  1.
          1    1    3    3  501    0 -0.10105157595E+02  0.15741365170E+02 -0.27756848036E+03  0.27819806987E+03  0.00000000000E+00 0.  1.
         -1    1    1    2    0  502  0.18755109889E+02 -0.41119478855E+02 -0.15990006922E+03  0.16616436991E+03  0.00000000000E+00 0. -1.
<mgrwt>
<rscale>  1 0.30000000E+03</rscale>
<asrwt>0</asrwt>
<pdfrwt beam="1">  1       21 0.13703283E-01 0.30000000E+03</pdfrwt>
<pdfrwt beam="2">0</pdfrwt>
<totfact> 0.48642302E+03</totfact>
</mgrwt>
</event>
<event>
 6    1  0.1284012E-001  0.3000000E+03  0.7818608E-02  0.1093470E+00
         21   -1    0    0  501  502  0.00000000000E+00  0.00000000000E+00  0.19389007722E+01  0.19389007722E+01  0.00000000000E+00 0. -1.
         13   -1    0    0    0    0 -0.00000000000E+00 -0.00000000000E+00 -0.10000000000E+04  0.10000000000E+04  0.00000000000E+00 0.  1.
    9000005    2    1    2  501    0 -0.43867169407E+02  0.17734682804E+01 -0.52990035490E+03  0.53172410276E+03  0.29430578715E+01 0.  0.
         13    1    3    3    0    0 -0.65116867519E+01  0.12931848382E+01 -0.82594775141E+02  0.82861156593E+02  0.00000000000E+00 0.  1.
          1    1    3    3  501    0 -0.37355482655E+02  0.48028344224E+00 -0.44730557976E+03  0.44886294617E+03  0.00000000000E+00 0.  1.
         -1    1    1    2    0  502  0.43867169407E+02 -0.17734682804E+01 -0.46816074433E+03  0.47021479801E+03  0.00000000000E+00 0. -1.
<mgrwt>
<rscale>  1 0.30000000E+03</rscale>
<asrwt>0</asrwt>
<pdfrwt beam="1">  1       21 0.70505631E-02 0.30000000E+03</pdfrwt>
<pdfrwt beam="2">0</pdfrwt>
<totfact> 0.15934382E+04</totfact>
</mgrwt>
</event>
<event>
 6    1  0.1284012E-001  0.3000000E+03  0.7818608E-02  0.1093470E+00
         21   -1    0    0  501  502  0.00000000000E+00  0.00000000000E+00  0.57657215499E+01  0.57657215499E+01  0.00000000000E+00 0. -1.
         13   -1    0    0    0    0 -0.00000000000E+00 -0.00000000000E+00 -0.10000000000E+04  0.10000000000E+04  0.00000000000E+00 0.  1.
    9000005    2    1    2  501    0 -0.14609784975E+02 -0.28406230568E+02 -0.95329940294E+03  0.95384247257E+03  0.39180440928E+01 0.  0.
         13    1    3    3    0    0 -0.14701398209E+01 -0.56752931656E+01 -0.15188182244E+03  0.15199492838E+03  0.00000000000E+00 0.  1.
          3    1    3    3  501    0 -0.13139645154E+02 -0.22730937403E+02 -0.80141758050E+03  0.80184754419E+03  0.00000000000E+00 0.  1.
         -1    1    1    2    0  502  0.14609784975E+02  0.28406230568E+02 -0.40934875505E+02  0.51923248981E+02  0.00000000000E+00 0. -1.
<mgrwt>
<rscale>  1 0.30000000E+03</rscale>
<asrwt>0</asrwt>
<pdfrwt beam="1">  1       21 0.20966304E-01 0.30000000E+03</pdfrwt>
<pdfrwt beam="2">0</pdfrwt>
<totfact> 0.21921598E+03</totfact>
</mgrwt>
</event>
<event>
 6    1  0.1284012E-001  0.3000000E+03  0.7818608E-02  0.1093470E+00
         21   -1    0    0  501  502  0.00000000000E+00  0.00000000000E+00  0.11251812927E+01  0.11251812927E+01  0.00000000000E+00 0. -1.
         13   -1    0    0    0    0 -0.00000000000E+00 -0.00000000000E+00 -0.10000000000E+04  0.10000000000E+04  0.00000000000E+00 0.  1.
    9000005    2    1    2  501    0  0.29431749936E+02  0.81571161964E+01 -0.70124314750E+03  0.70193063229E+03  0.56474931352E+01 0.  0.
         13    1    3    3    0    0  0.10826998350E+02  0.78542579927E+00 -0.21070104432E+03  0.21098049878E+03  0.00000000000E+00 0.  1.
          1    1    3    3  501    0  0.18604751585E+02  0.73716903972E+01 -0.49054210318E+03  0.49095013351E+03  0.00000000000E+00 0.  1.
         -1    1    1    2    0  502 -0.29431749936E+02 -0.81571161964E+01 -0.29763167121E+03  0.29919454900E+03  0.00000000000E+00 0. -1.
<mgrwt>
<rscale>  1 0.30000000E+03</rscale>
<asrwt>0</asrwt>
<pdfrwt beam="1">  1       21 0.40915770E-02 0.30000000E+03</pdfrwt>
<pdfrwt beam="2">0</pdfrwt>
<totfact> 0.40473739E+04</totfact>
</mgrwt>
</event>
<event>
 6    1  0.1284012E-001  0.3000000E+03  0.7818608E-02  0.1093470E+00
         21   -1    0    0  501  502  0.00000000000E+00  0.00000000000E+00  0.18644476458E+01  0.18644476458E+01  0.00000000000E+00 0. -1.
         13   -1    0    0    0    0 -0.00000000000E+00 -0.00000000000E+00 -0.10000000000E+04  0.10000000000E+04  0.00000000000E+00 0.  1.
    9000005    2    1    2  501    0 -0.40196870025E+02  0.13520878996E+02 -0.58938296007E+03  0.59091763329E+03  0.35739594021E+01 0.  0.
         13    1    3    3    0    0 -0.14029056063E+02  0.65212215445E+01 -0.21687344650E+03  0.21742454447E+03  0.00000000000E+00 0.  1.
          3    1    3    3  501    0 -0.26167813962E+02  0.69996574516E+01 -0.37250951357E+03  0.37349308881E+03  0.00000000000E+00 0.  1.
         -1    1    1    2    0  502  0.40196870025E+02 -0.13520878996E+02 -0.40875259229E+03  0.41094681436E+03  0.00000000000E+00 0. -1.
<mgrwt>
<rscale>  1 0.30000000E+03</rscale>
<asrwt>0</asrwt>
<pdfrwt beam="1">  1       21 0.67798239E-02 0.30000000E+03</pdfrwt>
<pdfrwt beam="2">0</pdfrwt>
<totfact> 0.17056973E+04</totfact>
</mgrwt>
</event>
<event>
 6    1  0.1284012E-001  0.3000000E+03  0.7818608E-02  0.1093470E+00
         21   -1    0    0  501  502  0.00000000000E+00  0.00000000000E+00  0.14830425262E+01  0.14830425262E+01  0.00000000000E+00 0. -1.
         13   -1    0    0    0    0 -0.00000000000E+00 -0.00000000000E+00 -0.10000000000E+04  0.10000000000E+04  0.00000000000E+00 0.  1.
    9000005    2    1    2  501    0 -0.29340494992E+02 -0.18378927070E+02 -0.71728837661E+03  0.71813138062E+03  0.33786112722E+01 0.  0.
         13    1    3    3    0    0 -0.24603926672E+02 -0.16686299966E+02 -0.62314354715E+03  0.62385227913E+03  0.00000000000E+00 0.  1.
          1    1    3    3  501    0 -0.47365683200E+01 -0.16926271042E+01 -0.94144829451E+02  0.94279101493E+02  0.00000000000E+00 0.  1.
         -3    1    1    2    0  502  0.29340494992E+02  0.18378927070E+02 -0.28122858087E+03  0.28335166190E+03  0.00000000000E+00 0. -1.
<mgrwt>
<rscale>  1 0.30000000E+03</rscale>
<asrwt>0</asrwt>
<pdfrwt beam="1">  1       21 0.53928933E-02 0.30000000E+03</pdfrwt>
<pdfrwt beam="2">0</pdfrwt>
<totfact> 0.25312908E+04</totfact>
</mgrwt>
</event>
<event>
 6    1  0.1284012E-001  0.3000000E+03  0.7818608E-02  0.1093470E+00
         21   -1    0    0  501  502  0.00000000000E+00  0.00000000000E+00  0.39972533483E+01  0.39972533483E+01  0.00000000000E+00 0. -1.
         13   -1    0    0    0    0 -0.00000000000E+00 -0.00000000000E+00 -0.10000000000E+04  0.10000000000E+04  0.00000000000E+00 0.  1.
    9000005    2    1    2  501    0  0.31227083205E+02  0.52785305223E+02 -0.61763164767E+03  0.62068783823E+03  0.48084458390E+01 0.  0.
         13    1    3    3    0    0  0.14165347552E+02  0.19475620639E+02 -0.24763641353E+03  0.24880464259E+03  0.00000000000E+00 0.  1.
          1    1    3    3  501    0  0.17061735652E+02  0.33309684584E+02 -0.36999523414E+03  0.37188319563E+03  0.00000000000E+00 0.  1.
         -3    1    1    2    0  502 -0.31227083205E+02 -0.52785305223E+02 -0.37837109899E+03  0.38330941512E+03  0.00000000000E+00 0. -1.
<mgrwt>
<rscale>  1 0.30000000E+03</rscale>
<asrwt>0</asrwt>
<pdfrwt beam="1">  1       21 0.14535497E-01 0.30000000E+03</pdfrwt>
<pdfrwt beam="2">0</pdfrwt>
<totfact> 0.43644539E+03</totfact>
</mgrwt>
</event>
<event>
 6    1  0.1284012E-001  0.3000000E+03  0.7818608E-02  0.1093470E+00
         21   -1    0    0  501  502  0.00000000000E+00  0.00000000000E+00  0.14801287605E+01  0.14801287605E+01  0.00000000000E+00 0. -1.
         13   -1    0    0    0    0 -0.00000000000E+00 -0.00000000000E+00 -0.10000000000E+04  0.10000000000E+04  0.00000000000E+00 0.  1.
    9000005    2    1    2  501    0 -0.35120784150E+02  0.97787528178E+00 -0.30232890236E+03  0.30440316682E+03  0.49088744386E+01 0.  0.
         13    1    3    3    0    0 -0.90869720701E+01  0.16691363897E+01 -0.93939939202E+02  0.94393173773E+02  0.00000000000E+00 0.  1.
          1    1    3    3  501    0 -0.26033812080E+02 -0.69126110794E+00 -0.20838896316E+03  0.21000999305E+03  0.00000000000E+00 0.  1.
         -3    1    1    2    0  502  0.35120784150E+02 -0.97787528178E+00 -0.69619096888E+03  0.69707696194E+03  0.00000000000E+00 0. -1.
<mgrwt>
<rscale>  1 0.30000000E+03</rscale>
<asrwt>0</asrwt>
<pdfrwt beam="1">  1       21 0.53822978E-02 0.30000000E+03</pdfrwt>
<pdfrwt beam="2">0</pdfrwt>
<totfact> 0.25398287E+04</totfact>
</mgrwt>
</event>
<event>
 6    1  0.1284012E-001  0.3000000E+03  0.7818608E-02  0.1093470E+00
         21   -1    0    0  501  502  0.00000000000E+00  0.00000000000E+00  0.10800927291E+01  0.10800927291E+01  0.00000000000E+00 0. -1.
         13   -1    0    0    0    0 -0.00000000000E+00 -0.00000000000E+00 -0.10000000000E+04  0.10000000000E+04  0.00000000000E+00 0.  1.
    9000005    2    1    2  501    0 -0.29703800847E+02  0.13881502722E+02 -0.47221483948E+03  0.47335550515E+03  0.18888422005E+01 0.  0.
         13    1    3    3    0    0 -0.13846880021E+02  0.75110268776E+01 -0.22573946101E+03  0.22628843512E+03  0.00000000000E+00 0.  1.
          3    1    3    3  501    0 -0.15856920825E+02  0.63704758444E+01 -0.24647537847E+03  0.24706707003E+03  0.00000000000E+00 0.  1.
         -1    1    1    2    0  502  0.29703800847E+02 -0.13881502722E+02 -0.52670506779E+03  0.52772458758E+03  0.00000000000E+00 0. -1.
<mgrwt>
<rscale>  1 0.30000000E+03</rscale>
<asrwt>0</asrwt>
<pdfrwt beam="1">  1       21 0.39276182E-02 0.30000000E+03</pdfrwt>
<pdfrwt beam="2">0</pdfrwt>
<totfact> 0.43359869E+04</totfact>
</mgrwt>
</event>
<event>
 6    1  0.1284012E-001  0.3000000E+03  0.7818608E-02  0.1093470E+00
         21   -1    0    0  501  502  0.00000000000E+00  0.00000000000E+00  0.17925486608E+01  0.17925486608E+01  0.00000000000E+00 0. -1.
         13   -1    0    0    0    0 -0.00000000000E+00 -0.00000000000E+00 -0.10000000000E+04  0.10000000000E+04  0.00000000000E+00 0.  1.
    9000005    2    1    2  501    0 -0.39200210288E+02  0.84193136584E+00 -0.68688669402E+03  0.68801240385E+03  0.32205752626E+01 0.  0.
         13    1    3    3    0    0 -0.64043336696E+00 -0.12013253927E+00 -0.63097111004E+01  0.63432673675E+01  0.00000000000E+00 0.  1.
          1    1    3    3  501    0 -0.38559776921E+02  0.96206390510E+00 -0.68057698292E+03  0.68166913649E+03  0.00000000000E+00 0.  1.
         -1    1    1    2    0  502  0.39200210288E+02 -0.84193136584E+00 -0.31132075732E+03  0.31378014481E+03  0.00000000000E+00 0. -1.
<mgrwt>
<rscale>  1 0.30000000E+03</rscale>
<asrwt>0</asrwt>
<pdfrwt beam="1">  1       21 0.65183725E-02 0.30000000E+03</pdfrwt>
<pdfrwt beam="2">0</pdfrwt>
<totfact> 0.18260581E+04</totfact>
</mgrwt>
</event>
<event>
 6    1  0.1284012E-001  0.3000000E+03  0.7818608E-02  0.1093470E+00
         21   -1    0    0  501  502  0.00000000000E+00  0.00000000000E+00  0.96222141371E+01  0.96222141371E+01  0.00000000000E+00 0. -1.
         13   -1    0    0    0    0 -0.00000000000E+00 -0.00000000000E+00 -0.10000000000E+04  0.10000000000E+04  0.00000000000E+00 0.  1.
    9000005    2    1    2  501    0  0.30300411149E+02  0.57237096071E+02 -0.87430089919E+03  0.87670102056E+03  0.29012139603E+01 0.  0.
         13    1    3    3    0    0  0.21065697282E+02  0.36862873285E+02 -0.57057467310E+03  0.57215215862E+03  0.00000000000E+00 0.  1.
          1    1    3    3  501    0  0.92347138674E+01  0.20374222786E+02 -0.30372622609E+03  0.30454886194E+03  0.00000000000E+00 0.  1.
         -1    1    1    2    0  502 -0.30300411149E+02 -0.57237096071E+02 -0.11607688667E+03  0.13292119358E+03  0.00000000000E+00 0. -1.
<mgrwt>
<rscale>  1 0.30000000E+03</rscale>
<asrwt>0</asrwt>
<pdfrwt beam="1">  1       21 0.34989943E-01 0.30000000E+03</pdfrwt>
<pdfrwt beam="2">0</pdfrwt>
<totfact> 0.79626230E+02</totfact>
</mgrwt>
</event>
<event>
 6    1  0.1284012E-001  0.3000000E+03  0.7818608E-02  0.1093470E+00
         21   -1    0    0  501  502  0.00000000000E+00  0.00000000000E+00  0.28966184289E+01  0.28966184289E+01  0.00000000000E+00 0. -1.
         13   -1    0    0    0    0 -0.00000000000E+00 -0.00000000000E+00 -0.10000000000E+04  0.10000000000E+04  0.00000000000E+00 0.  1.
    9000005    2    1    2  501    0  0.38095342662E+02 -0.89415825876E+00 -0.14606337394E+03  0.15100393197E+03  0.39526715565E+01 0.  0.
         13    1    3    3    0    0  0.12011189285E+02 -0.19950165869E+01 -0.43843925917E+02  0.45503171308E+02  0.00000000000E+00 0.  1.
          1    1    3    3  501    0  0.26084153377E+02  0.11008583282E+01 -0.10221944802E+03  0.10550076066E+03  0.00000000000E+00 0.  1.
         -3    1    1    2    0  502 -0.38095342662E+02  0.89415825876E+00 -0.85104000763E+03  0.85189268646E+03  0.00000000000E+00 0. -1.
<mgrwt>
<rscale>  1 0.30000000E+03</rscale>
<asrwt>0</asrwt>
<pdfrwt beam="1">  1       21 0.10533180E-01 0.30000000E+03</pdfrwt>
<pdfrwt beam="2">0</pdfrwt>
<totfact> 0.78394016E+03</totfact>
</mgrwt>
</event>
<event>
 6    1  0.1284012E-001  0.3000000E+03  0.7818608E-02  0.1093470E+00
         21   -1    0    0  501  502  0.00000000000E+00  0.00000000000E+00  0.18944116997E+01  0.18944116997E+01  0.00000000000E+00 0. -1.
         13   -1    0    0    0    0 -0.00000000000E+00 -0.00000000000E+00 -0.10000000000E+04  0.10000000000E+04  0.00000000000E+00 0.  1.
    9000005    2    1    2  501    0  0.20253105753E+02  0.37408722648E+02 -0.60241268276E+03  0.60392145242E+03  0.32372087409E+01 0.  0.
         13    1    3    3    0    0  0.41736672543E+01  0.91039673658E+01 -0.12540757657E+03  0.12580684393E+03  0.00000000000E+00 0.  1.
          1    1    3    3  501    0  0.16079438499E+02  0.28304755282E+02 -0.47700510619E+03  0.47811460849E+03  0.00000000000E+00 0.  1.
         -1    1    1    2    0  502 -0.20253105753E+02 -0.37408722648E+02 -0.39569290554E+03  0.39797295928E+03  0.00000000000E+00 0. -1.
<mgrwt>
<rscale>  1 0.30000000E+03</rscale>
<asrwt>0</asrwt>
<pdfrwt beam="1">  1       21 0.68887843E-02 0.30000000E+03</pdfrwt>
<pdfrwt beam="2">0</pdfrwt>
<totfact> 0.16591048E+04</totfact>
</mgrwt>
</event>
<event>
 6    1  0.1284012E-001  0.3000000E+03  0.7818608E-02  0.1093470E+00
         21   -1    0    0  501  502  0.00000000000E+00  0.00000000000E+00  0.14053373508E+01  0.14053373508E+01  0.00000000000E+00 0. -1.
         13   -1    0    0    0    0 -0.00000000000E+00 -0.00000000000E+00 -0.10000000000E+04  0.10000000000E+04  0.00000000000E+00 0.  1.
    9000005    2    1    2  501    0 -0.34731601477E+02 -0.13873463234E+02 -0.52695620817E+03  0.52828633660E+03  0.22024965738E+01 0.  0.
         13    1    3    3    0    0 -0.18815555259E+02 -0.86946836901E+01 -0.29122883323E+03  0.29196550473E+03  0.00000000000E+00 0.  1.
          1    1    3    3  501    0 -0.15916046218E+02 -0.51787795438E+01 -0.23572737494E+03  0.23632083188E+03  0.00000000000E+00 0.  1.
         -3    1    1    2    0  502  0.34731601477E+02  0.13873463234E+02 -0.47163845448E+03  0.47311900075E+03  0.00000000000E+00 0. -1.
<mgrwt>
<rscale>  1 0.30000000E+03</rscale>
<asrwt>0</asrwt>
<pdfrwt beam="1">  1       21 0.51103284E-02 0.30000000E+03</pdfrwt>
<pdfrwt beam="2">0</pdfrwt>
<totfact> 0.27752042E+04</totfact>
</mgrwt>
</event>
<event>
 6    1  0.1284012E-001  0.3000000E+03  0.7818608E-02  0.1093470E+00
         21   -1    0    0  501  502  0.00000000000E+00  0.00000000000E+00  0.17755272483E+01  0.17755272483E+01  0.00000000000E+00 0. -1.
         13   -1    0    0    0    0 -0.00000000000E+00 -0.00000000000E+00 -0.10000000000E+04  0.10000000000E+04  0.00000000000E+00 0.  1.
    9000005    2    1    2  501    0 -0.12432895148E+02 -0.29232800593E+02 -0.82778563925E+03  0.82840156877E+03  0.33107527111E+01 0.  0.
         13    1    3    3    0    0 -0.11186923569E+02 -0.27114417153E+02 -0.73886661259E+03  0.73944858515E+03  0.00000000000E+00 0.  1.
          1    1    3    3  501    0 -0.12459715790E+01 -0.21183834400E+01 -0.88919026655E+02  0.88952983620E+02  0.00000000000E+00 0.  1.
         -3    1    1    2    0  502  0.12432895148E+02  0.29232800593E+02 -0.17043883351E+03  0.17337395848E+03  0.00000000000E+00 0. -1.
<mgrwt>
<rscale>  1 0.30000000E+03</rscale>
<asrwt>0</asrwt>
<pdfrwt beam="1">  1       21 0.64564763E-02 0.30000000E+03</pdfrwt>
<pdfrwt beam="2">0</pdfrwt>
<totfact> 0.18564703E+04</totfact>
</mgrwt>
</event>
<event>
 6    1  0.1284012E-001  0.3000000E+03  0.7818608E-02  0.1093470E+00
         21   -1    0    0  501  502  0.00000000000E+00  0.00000000000E+00  0.12699426354E+01  0.12699426354E+01  0.00000000000E+00 0. -1.
         13   -1    0    0    0    0 -0.00000000000E+00 -0.00000000000E+00 -0.10000000000E+04  0.10000000000E+04  0.00000000000E+00 0.  1.
    9000005    2    1    2  501    0  0.94832546276E+01 -0.34173504534E+02 -0.45753742035E+03  0.45891652383E+03  0.24747310414E+01 0.  0.
         13    1    3    3    0    0  0.91111447443E+01 -0.31898597204E+02 -0.41978173030E+03  0.42109053012E+03  0.00000000000E+00 0.  1.
          3    1    3    3  501    0  0.37210988333E+00 -0.22749073297E+01 -0.37755690041E+02  0.37825993703E+02  0.00000000000E+00 0.  1.
         -1    1    1    2    0  502 -0.94832546276E+01  0.34173504534E+02 -0.54119263702E+03  0.54235341881E+03  0.00000000000E+00 0. -1.
<mgrwt>
<rscale>  1 0.30000000E+03</rscale>
<asrwt>0</asrwt>
<pdfrwt beam="1">  1       21 0.46179830E-02 0.30000000E+03</pdfrwt>
<pdfrwt beam="2">0</pdfrwt>
<totfact> 0.32976447E+04</totfact>
</mgrwt>
</event>
<event>
 6    1  0.1284012E-001  0.3000000E+03  0.7818608E-02  0.1093470E+00
         21   -1    0    0  501  502  0.00000000000E+00  0.00000000000E+00  0.20488260303E+01  0.20488260303E+01  0.00000000000E+00 0. -1.
         13   -1    0    0    0    0 -0.00000000000E+00 -0.00000000000E+00 -0.10000000000E+04  0.10000000000E+04  0.00000000000E+00 0.  1.
    9000005    2    1    2  501    0 -0.19685428235E+02 -0.29517502589E+02 -0.80969603714E+03  0.81047952894E+03  0.32550316467E+01 0.  0.
         13    1    3    3    0    0 -0.35042667778E+01 -0.73414198796E+01 -0.16912703213E+03  0.16932256001E+03  0.00000000000E+00 0.  1.
          3    1    3    3  501    0 -0.16181161457E+02 -0.22176082710E+02 -0.64056900501E+03  0.64115696893E+03  0.00000000000E+00 0.  1.
         -3    1    1    2    0  502  0.19685428235E+02  0.29517502589E+02 -0.18825513683E+03  0.19156929709E+03  0.00000000000E+00 0. -1.
<mgrwt>
<rscale>  1 0.30000000E+03</rscale>
<asrwt>0</asrwt>
<pdfrwt beam="1">  1       21 0.74502922E-02 0.30000000E+03</pdfrwt>
<pdfrwt beam="2">0</pdfrwt>
<totfact> 0.14471958E+04</totfact>
</mgrwt>
</event>
<event>
 6    1  0.1284012E-001  0.3000000E+03  0.7818608E-02  0.1093470E+00
         21   -1    0    0  501  502  0.00000000000E+00  0.00000000000E+00  0.15065093047E+01  0.15065093047E+01  0.00000000000E+00 0. -1.
         13   -1    0    0    0    0 -0.00000000000E+00 -0.00000000000E+00 -0.10000000000E+04  0.10000000000E+04  0.00000000000E+00 0.  1.
    9000005    2    1    2  501    0 -0.99672078304E+01  0.30251413145E+02 -0.21548175352E+03  0.21784722506E+03  0.32456335128E+01 0.  0.
         13    1    3    3    0    0 -0.49032819133E+01  0.19621273764E+02 -0.13276790655E+03  0.13429949206E+03  0.00000000000E+00 0.  1.
          1    1    3    3  501    0 -0.50639259171E+01  0.10630139381E+02 -0.82713846970E+02  0.83547733000E+02  0.00000000000E+00 0.  1.
         -1    1    1    2    0  502  0.99672078304E+01 -0.30251413145E+02 -0.78301173718E+03  0.78365928425E+03  0.00000000000E+00 0. -1.
<mgrwt>
<rscale>  1 0.30000000E+03</rscale>
<asrwt>0</asrwt>
<pdfrwt beam="1">  1       21 0.54782272E-02 0.30000000E+03</pdfrwt>
<pdfrwt beam="2">0</pdfrwt>
<totfact> 0.24641149E+04</totfact>
</mgrwt>
</event>
<event>
 6    1  0.1284012E-001  0.3000000E+03  0.7818608E-02  0.1093470E+00
         21   -1    0    0  501  502  0.00000000000E+00  0.00000000000E+00  0.24852934473E+01  0.24852934473E+01  0.00000000000E+00 0. -1.
         13   -1    0    0    0    0 -0.00000000000E+00 -0.00000000000E+00 -0.10000000000E+04  0.10000000000E+04  0.00000000000E+00 0.  1.
    9000005    2    1    2  501    0 -0.32250509625E+02  0.33752887673E+02 -0.67355226838E+03  0.67517654907E+03  0.33706647111E+01 0.  0.
         13    1    3    3    0    0 -0.20310500785E+02  0.18916288372E+02 -0.40459371094E+03  0.40554458860E+03  0.00000000000E+00 0.  1.
          1    1    3    3  501    0 -0.11940008840E+02  0.14836599301E+02 -0.26895855744E+03  0.26963196047E+03  0.00000000000E+00 0.  1.
         -3    1    1    2    0  502  0.32250509625E+02 -0.33752887673E+02 -0.32396243817E+03  0.32730874438E+03  0.00000000000E+00 0. -1.
<mgrwt>
<rscale>  1 0.30000000E+03</rscale>
<asrwt>0</asrwt>
<pdfrwt beam="1">  1       21 0.90374498E-02 0.30000000E+03</pdfrwt>
<pdfrwt beam="2">0</pdfrwt>
<totfact> 0.10302007E+04</totfact>
</mgrwt>
</event>
<event>
 6    1  0.1284012E-001  0.3000000E+03  0.7818608E-02  0.1093470E+00
         21   -1    0    0  501  502  0.00000000000E+00  0.00000000000E+00  0.11870333289E+01  0.11870333289E+01  0.00000000000E+00 0. -1.
         13   -1    0    0    0    0 -0.00000000000E+00 -0.00000000000E+00 -0.10000000000E+04  0.10000000000E+04  0.00000000000E+00 0.  1.
    9000005    2    1    2  501    0 -0.27456996236E+02 -0.14330247381E+02 -0.71733383119E+03  0.71800909220E+03  0.31604550401E+01 0.  0.
         13    1    3    3    0    0 -0.13230583214E+02 -0.83905133221E+01 -0.38169357993E+03  0.38201497092E+03  0.00000000000E+00 0.  1.
          3    1    3    3  501    0 -0.14226413022E+02 -0.59397340587E+01 -0.33564025126E+03  0.33599412128E+03  0.00000000000E+00 0.  1.
         -3    1    1    2    0  502  0.27456996236E+02  0.14330247381E+02 -0.28147913548E+03  0.28317794113E+03  0.00000000000E+00 0. -1.
<mgrwt>
<rscale>  1 0.30000000E+03</rscale>
<asrwt>0</asrwt>
<pdfrwt beam="1">  1       21 0.43164939E-02 0.30000000E+03</pdfrwt>
<pdfrwt beam="2">0</pdfrwt>
<totfact> 0.36976523E+04</totfact>
</mgrwt>
</event>
<event>
 6    1  0.1284012E-001  0.3000000E+03  0.7818608E-02  0.1093470E+00
         21   -1    0    0  501  502  0.00000000000E+00  0.00000000000E+00  0.20982864439E+01  0.20982864439E+01  0.00000000000E+00 0. -1.
         13   -1    0    0    0    0 -0.00000000000E+00 -0.00000000000E+00 -0.10000000000E+04  0.10000000000E+04  0.00000000000E+00 0.  1.
    9000005    2    1    2  501    0  0.81135861608E+01 -0.42662837161E+02 -0.65684897262E+03  0.65829177101E+03  0.33963203538E+01 0.  0.
         13    1    3    3    0    0  0.33124060970E+01 -0.13536411440E+02 -0.18990262194E+03  0.19041326710E+03  0.00000000000E+00 0.  1.
          1    1    3    3  501    0  0.48011800638E+01 -0.29126425722E+02 -0.46694635068E+03  0.46787850390E+03  0.00000000000E+00 0.  1.
         -3    1    1    2    0  502 -0.81135861608E+01  0.42662837161E+02 -0.34105274094E+03  0.34380651544E+03  0.00000000000E+00 0. -1.
<mgrwt>
<rscale>  1 0.30000000E+03</rscale>
<asrwt>0</asrwt>
<pdfrwt beam="1">  1       21 0.76301486E-02 0.30000000E+03</pdfrwt>
<pdfrwt beam="2">0</pdfrwt>
<totfact> 0.13879845E+04</totfact>
</mgrwt>
</event>
<event>
 6    1  0.1284012E-001  0.3000000E+03  0.7818608E-02  0.1093470E+00
         21   -1    0    0  501  502  0.00000000000E+00  0.00000000000E+00  0.16070986423E+01  0.16070986423E+01  0.00000000000E+00 0. -1.
         13   -1    0    0    0    0 -0.00000000000E+00 -0.00000000000E+00 -0.10000000000E+04  0.10000000000E+04  0.00000000000E+00 0.  1.
    9000005    2    1    2  501    0  0.10225074391E+02 -0.30685223747E+02 -0.79355476874E+03  0.79423112203E+03  0.52696398447E+01 0.  0.
         13    1    3    3    0    0  0.10805959500E+01 -0.78357630987E+01 -0.23815301898E+03  0.23828434133E+03  0.00000000000E+00 0.  1.
          3    1    3    3  501    0  0.91444784409E+01 -0.22849460648E+02 -0.55540174976E+03  0.55594678070E+03  0.00000000000E+00 0.  1.
         -1    1    1    2    0  502 -0.10225074391E+02  0.30685223747E+02 -0.20483813261E+03  0.20737597661E+03  0.00000000000E+00 0. -1.
<mgrwt>
<rscale>  1 0.30000000E+03</rscale>
<asrwt>0</asrwt>
<pdfrwt beam="1">  1       21 0.58440074E-02 0.30000000E+03</pdfrwt>
<pdfrwt beam="2">0</pdfrwt>
<totfact> 0.22050569E+04</totfact>
</mgrwt>
</event>
<event>
 6    1  0.1284012E-001  0.3000000E+03  0.7818608E-02  0.1093470E+00
         21   -1    0    0  501  502  0.00000000000E+00  0.00000000000E+00  0.61096777089E+01  0.61096777089E+01  0.00000000000E+00 0. -1.
         13   -1    0    0    0    0 -0.00000000000E+00 -0.00000000000E+00 -0.10000000000E+04  0.10000000000E+04  0.00000000000E+00 0.  1.
    9000005    2    1    2  501    0 -0.35138456720E+02  0.28186143511E+02 -0.90799304449E+03  0.90911734729E+03  0.37165133684E+01 0.  0.
         13    1    3    3    0    0 -0.24857534884E+02  0.20858719636E+02 -0.68290187392E+03  0.68367240154E+03  0.00000000000E+00 0.  1.
          1    1    3    3  501    0 -0.10280921836E+02  0.73274238752E+01 -0.22509117057E+03  0.22544494575E+03  0.00000000000E+00 0.  1.
         -3    1    1    2    0  502  0.35138456720E+02 -0.28186143511E+02 -0.85897277799E+02  0.96992330418E+02  0.00000000000E+00 0. -1.
<mgrwt>
<rscale>  1 0.30000000E+03</rscale>
<asrwt>0</asrwt>
<pdfrwt beam="1">  1       21 0.22217057E-01 0.30000000E+03</pdfrwt>
<pdfrwt beam="2">0</pdfrwt>
<totfact> 0.19611495E+03</totfact>
</mgrwt>
</event>
<event>
 6    1  0.1284012E-001  0.3000000E+03  0.7818608E-02  0.1093470E+00
         21   -1    0    0  501  502  0.00000000000E+00  0.00000000000E+00  0.63536032171E+01  0.63536032171E+01  0.00000000000E+00 0. -1.
         13   -1    0    0    0    0 -0.00000000000E+00 -0.00000000000E+00 -0.10000000000E+04  0.10000000000E+04  0.00000000000E+00 0.  1.
    9000005    2    1    2  501    0  0.28556462225E+02  0.23444342650E+02 -0.94265620585E+03  0.94338449723E+03  0.29117784932E+01 0.  0.
         13    1    3    3    0    0  0.28257966690E+02  0.22872504035E+02 -0.93200718964E+03  0.93271596194E+03  0.00000000000E+00 0.  1.
          3    1    3    3  501    0  0.29849553463E+00  0.57183861521E+00 -0.10649016215E+02  0.10668535295E+02  0.00000000000E+00 0.  1.
         -1    1    1    2    0  502 -0.28556462225E+02 -0.23444342650E+02 -0.50990190932E+02  0.62969105984E+02  0.00000000000E+00 0. -1.
<mgrwt>
<rscale>  1 0.30000000E+03</rscale>
<asrwt>0</asrwt>
<pdfrwt beam="1">  1       21 0.23104060E-01 0.30000000E+03</pdfrwt>
<pdfrwt beam="2">0</pdfrwt>
<totfact> 0.18183217E+03</totfact>
</mgrwt>
</event>
<event>
 6    1  0.1284012E-001  0.3000000E+03  0.7818608E-02  0.1093470E+00
         21   -1    0    0  501  502  0.00000000000E+00  0.00000000000E+00  0.19059970754E+01  0.19059970754E+01  0.00000000000E+00 0. -1.
         13   -1    0    0    0    0 -0.00000000000E+00 -0.00000000000E+00 -0.10000000000E+04  0.10000000000E+04  0.00000000000E+00 0.  1.
    9000005    2    1    2  501    0  0.30850166550E+02  0.25551182413E+02 -0.69715209629E+03  0.69830983954E+03  0.33152592416E+01 0.  0.
         13    1    3    3    0    0  0.15893522646E+02  0.15004248932E+02 -0.36467840273E+03  0.36533281945E+03  0.00000000000E+00 0.  1.
          1    1    3    3  501    0  0.14956643905E+02  0.10546933481E+02 -0.33247369356E+03  0.33297702010E+03  0.00000000000E+00 0.  1.
         -1    1    1    2    0  502 -0.30850166550E+02 -0.25551182413E+02 -0.30094190663E+03  0.30359615753E+03  0.00000000000E+00 0. -1.
<mgrwt>
<rscale>  1 0.30000000E+03</rscale>
<asrwt>0</asrwt>
<pdfrwt beam="1">  1       21 0.69309131E-02 0.30000000E+03</pdfrwt>
<pdfrwt beam="2">0</pdfrwt>
<totfact> 0.16416114E+04</totfact>
</mgrwt>
</event>
<event>
 6    1  0.1284012E-001  0.3000000E+03  0.7818608E-02  0.1093470E+00
         21   -1    0    0  501  502  0.00000000000E+00  0.00000000000E+00  0.19700393500E+01  0.19700393500E+01  0.00000000000E+00 0. -1.
         13   -1    0    0    0    0 -0.00000000000E+00 -0.00000000000E+00 -0.10000000000E+04  0.10000000000E+04  0.00000000000E+00 0.  1.
    9000005    2    1    2  501    0 -0.39802484416E+02  0.13399212162E+01 -0.71948953064E+03  0.72059696973E+03  0.29622518045E+01 0.  0.
         13    1    3    3    0    0 -0.14656559124E+02  0.41038405357E+00 -0.23966893739E+03  0.24011701875E+03  0.00000000000E+00 0.  1.
          1    1    3    3  501    0 -0.25145925292E+02  0.92953716267E+00 -0.47982059324E+03  0.48047995098E+03  0.00000000000E+00 0.  1.
         -1    1    1    2    0  502  0.39802484416E+02 -0.13399212162E+01 -0.27854043001E+03  0.28137306962E+03  0.00000000000E+00 0. -1.
<mgrwt>
<rscale>  1 0.30000000E+03</rscale>
<asrwt>0</asrwt>
<pdfrwt beam="1">  1       21 0.71637946E-02 0.30000000E+03</pdfrwt>
<pdfrwt beam="2">0</pdfrwt>
<totfact> 0.15498085E+04</totfact>
</mgrwt>
</event>
<event>
 6    1  0.1284012E-001  0.3000000E+03  0.7818608E-02  0.1093470E+00
         21   -1    0    0  501  502  0.00000000000E+00  0.00000000000E+00  0.57320883280E+01  0.57320883280E+01  0.00000000000E+00 0. -1.
         13   -1    0    0    0    0 -0.00000000000E+00 -0.00000000000E+00 -0.10000000000E+04  0.10000000000E+04  0.00000000000E+00 0.  1.
    9000005    2    1    2  501    0 -0.31789699127E+02  0.24671913503E+02 -0.92290837200E+03  0.92380851303E+03  0.65587624432E+01 0.  0.
         13    1    3    3    0    0 -0.11960782765E+02  0.57111138967E+01 -0.27386887645E+03  0.27418942108E+03  0.00000000000E+00 0.  1.
          3    1    3    3  501    0 -0.19828916361E+02  0.18960799606E+02 -0.64903949555E+03  0.64961909195E+03  0.00000000000E+00 0.  1.
         -1    1    1    2    0  502  0.31789699127E+02 -0.24671913503E+02 -0.71359539677E+02  0.81923575296E+02  0.00000000000E+00 0. -1.
<mgrwt>
<rscale>  1 0.30000000E+03</rscale>
<asrwt>0</asrwt>
<pdfrwt beam="1">  1       21 0.20844002E-01 0.30000000E+03</pdfrwt>
<pdfrwt beam="2">0</pdfrwt>
<totfact> 0.22168724E+03</totfact>
</mgrwt>
</event>
<event>
 6    1  0.1284012E-001  0.3000000E+03  0.7818608E-02  0.1093470E+00
         21   -1    0    0  501  502  0.00000000000E+00  0.00000000000E+00  0.12937903113E+01  0.12937903113E+01  0.00000000000E+00 0. -1.
         13   -1    0    0    0    0 -0.00000000000E+00 -0.00000000000E+00 -0.10000000000E+04  0.10000000000E+04  0.00000000000E+00 0.  1.
    9000005    2    1    2  501    0 -0.31801731982E+02  0.39223438627E+01 -0.72585291816E+03  0.72656546335E+03  0.28598582040E+01 0.  0.
         13    1    3    3    0    0 -0.11694790977E+02  0.21101130547E+00 -0.27856073713E+03  0.27880619959E+03  0.00000000000E+00 0.  1.
          3    1    3    3  501    0 -0.20106941006E+02  0.37113325572E+01 -0.44729218104E+03  0.44775926376E+03  0.00000000000E+00 0.  1.
         -3    1    1    2    0  502  0.31801731982E+02 -0.39223438627E+01 -0.27285329152E+03  0.27472832696E+03  0.00000000000E+00 0. -1.
<mgrwt>
<rscale>  1 0.30000000E+03</rscale>
<asrwt>0</asrwt>
<pdfrwt beam="1">  1       21 0.47047020E-02 0.30000000E+03</pdfrwt>
<pdfrwt beam="2">0</pdfrwt>
<totfact> 0.31949968E+04</totfact>
</mgrwt>
</event>
<event>
 6    1  0.1284012E-001  0.3000000E+03  0.7818608E-02  0.1093470E+00
         21   -1    0    0  501  502  0.00000000000E+00  0.00000000000E+00  0.21444824151E+01  0.21444824151E+01  0.00000000000E+00 0. -1.
         13   -1    0    0    0    0 -0.00000000000E+00 -0.00000000000E+00 -0.10000000000E+04  0.10000000000E+04  0.00000000000E+00 0.  1.
    9000005    2    1    2  501    0  0.41129311541E+02 -0.14414215493E+02 -0.66642041182E+03  0.66785625467E+03  0.40523739181E+01 0.  0.
         13    1    3    3    0    0  0.40126809349E+02 -0.13366236136E+02 -0.63988530760E+03  0.64128154814E+03  0.00000000000E+00 0.  1.
          1    1    3    3  501    0  0.10025021917E+01 -0.10479793564E+01 -0.26535104222E+02  0.26574706535E+02  0.00000000000E+00 0.  1.
         -1    1    1    2    0  502 -0.41129311541E+02  0.14414215493E+02 -0.33143510576E+03  0.33428822774E+03  0.00000000000E+00 0. -1.
<mgrwt>
<rscale>  1 0.30000000E+03</rscale>
<asrwt>0</asrwt>
<pdfrwt beam="1">  1       21 0.77981343E-02 0.30000000E+03</pdfrwt>
<pdfrwt beam="2">0</pdfrwt>
<totfact> 0.13359931E+04</totfact>
</mgrwt>
</event>
<event>
 6    1  0.1284012E-001  0.3000000E+03  0.7818608E-02  0.1093470E+00
         21   -1    0    0  501  502  0.00000000000E+00  0.00000000000E+00  0.99285261792E+00  0.99285261792E+00  0.00000000000E+00 0. -1.
         13   -1    0    0    0    0 -0.00000000000E+00 -0.00000000000E+00 -0.10000000000E+04  0.10000000000E+04  0.00000000000E+00 0.  1.
    9000005    2    1    2  501    0  0.31096118647E+02  0.24141596543E+01 -0.56268512231E+03  0.56355747874E+03  0.31125883898E+01 0.  0.
         13    1    3    3    0    0  0.56017951334E+01 -0.50411291008E+00 -0.88509155148E+02  0.88687681126E+02  0.00000000000E+00 0.  1.
          1    1    3    3  501    0  0.25494323514E+02  0.29182725643E+01 -0.47417596717E+03  0.47486979761E+03  0.00000000000E+00 0.  1.
         -1    1    1    2    0  502 -0.31096118647E+02 -0.24141596543E+01 -0.43632202507E+03  0.43743537388E+03  0.00000000000E+00 0. -1.
<mgrwt>
<rscale>  1 0.30000000E+03</rscale>
<asrwt>0</asrwt>
<pdfrwt beam="1">  1       21 0.36103808E-02 0.30000000E+03</pdfrwt>
<pdfrwt beam="2">0</pdfrwt>
<totfact> 0.49948535E+04</totfact>
</mgrwt>
</event>
<event>
 6    1  0.1284012E-001  0.3000000E+03  0.7818608E-02  0.1093470E+00
         21   -1    0    0  501  502  0.00000000000E+00  0.00000000000E+00  0.99052467495E+00  0.99052467495E+00  0.00000000000E+00 0. -1.
         13   -1    0    0    0    0 -0.00000000000E+00 -0.00000000000E+00 -0.10000000000E+04  0.10000000000E+04  0.00000000000E+00 0.  1.
    9000005    2    1    2  501    0  0.90317318895E+01 -0.30041555487E+02 -0.51898062644E+03  0.51993775938E+03  0.32118174010E+01 0.  0.
         13    1    3    3    0    0  0.75820704695E+01 -0.22436964063E+02 -0.37160005977E+03  0.37235401108E+03  0.00000000000E+00 0.  1.
          3    1    3    3  501    0  0.14496614200E+01 -0.76045914237E+01 -0.14738056667E+03  0.14758374829E+03  0.00000000000E+00 0.  1.
         -3    1    1    2    0  502 -0.90317318895E+01  0.30041555487E+02 -0.48002884889E+03  0.48105276530E+03  0.00000000000E+00 0. -1.
<mgrwt>
<rscale>  1 0.30000000E+03</rscale>
<asrwt>0</asrwt>
<pdfrwt beam="1">  1       21 0.36019155E-02 0.30000000E+03</pdfrwt>
<pdfrwt beam="2">0</pdfrwt>
<totfact> 0.50145559E+04</totfact>
</mgrwt>
</event>
<event>
 6    1  0.1284012E-001  0.3000000E+03  0.7818608E-02  0.1093470E+00
         21   -1    0    0  501  502  0.00000000000E+00  0.00000000000E+00  0.14510400903E+01  0.14510400903E+01  0.00000000000E+00 0. -1.
         13   -1    0    0    0    0 -0.00000000000E+00 -0.00000000000E+00 -0.10000000000E+04  0.10000000000E+04  0.00000000000E+00 0.  1.
    9000005    2    1    2  501    0 -0.94535991749E+01 -0.36654679453E+02 -0.54830558929E+03  0.54961918105E+03  0.30477632083E+01 0.  0.
         13    1    3    3    0    0 -0.54406014273E+01 -0.24929475658E+02 -0.38408619177E+03  0.38493282740E+03  0.00000000000E+00 0.  1.
          3    1    3    3  501    0 -0.40129977476E+01 -0.11725203795E+02 -0.16421939752E+03  0.16468635365E+03  0.00000000000E+00 0.  1.
         -3    1    1    2    0  502  0.94535991749E+01  0.36654679453E+02 -0.45024337062E+03  0.45183185904E+03  0.00000000000E+00 0. -1.
<mgrwt>
<rscale>  1 0.30000000E+03</rscale>
<asrwt>0</asrwt>
<pdfrwt beam="1">  1       21 0.52765205E-02 0.30000000E+03</pdfrwt>
<pdfrwt beam="2">0</pdfrwt>
<totfact> 0.26275610E+04</totfact>
</mgrwt>
</event>
<event>
 6    1  0.1284012E-001  0.3000000E+03  0.7818608E-02  0.1093470E+00
         21   -1    0    0  501  502  0.00000000000E+00  0.00000000000E+00  0.13546002671E+01  0.13546002671E+01  0.00000000000E+00 0. -1.
         13   -1    0    0    0    0 -0.00000000000E+00 -0.00000000000E+00 -0.10000000000E+04  0.10000000000E+04  0.00000000000E+00 0.  1.
    9000005    2    1    2  501    0  0.26245774813E+02 -0.22030547477E+02 -0.67175094227E+03  0.67266907878E+03  0.77572793804E+01 0.  0.
         13    1    3    3    0    0  0.21463574559E+02 -0.16725633987E+02 -0.46560876993E+03  0.46640321450E+03  0.00000000000E+00 0.  1.
          1    1    3    3  501    0  0.47822002543E+01 -0.53049134903E+01 -0.20614217234E+03  0.20626586427E+03  0.00000000000E+00 0.  1.
         -1    1    1    2    0  502 -0.26245774813E+02  0.22030547477E+02 -0.32689445746E+03  0.32868552149E+03  0.00000000000E+00 0. -1.
<mgrwt>
<rscale>  1 0.30000000E+03</rscale>
<asrwt>0</asrwt>
<pdfrwt beam="1">  1       21 0.49258295E-02 0.30000000E+03</pdfrwt>
<pdfrwt beam="2">0</pdfrwt>
<totfact> 0.29547683E+04</totfact>
</mgrwt>
</event>
<event>
 6    1  0.1284012E-001  0.3000000E+03  0.7818608E-02  0.1093470E+00
         21   -1    0    0  501  502  0.00000000000E+00  0.00000000000E+00  0.13184070105E+01  0.13184070105E+01  0.00000000000E+00 0. -1.
         13   -1    0    0    0    0 -0.00000000000E+00 -0.00000000000E+00 -0.10000000000E+04  0.10000000000E+04  0.00000000000E+00 0.  1.
    9000005    2    1    2  501    0  0.13520870238E+02 -0.28353453495E+02 -0.25092037660E+03  0.25289769043E+03  0.30780154693E+01 0.  0.
         13    1    3    3    0    0  0.12738950499E+01 -0.49465195530E+01 -0.45404925800E+02  0.45691335625E+02  0.00000000000E+00 0.  1.
          3    1    3    3  501    0  0.12246975188E+02 -0.23406933942E+02 -0.20551545080E+03  0.20720635481E+03  0.00000000000E+00 0.  1.
         -1    1    1    2    0  502 -0.13520870238E+02  0.28353453495E+02 -0.74776121639E+03  0.74842071658E+03  0.00000000000E+00 0. -1.
<mgrwt>
<rscale>  1 0.30000000E+03</rscale>
<asrwt>0</asrwt>
<pdfrwt beam="1">  1       21 0.47942174E-02 0.30000000E+03</pdfrwt>
<pdfrwt beam="2">0</pdfrwt>
<totfact> 0.30941942E+04</totfact>
</mgrwt>
</event>
<event>
 6    1  0.1284012E-001  0.3000000E+03  0.7818608E-02  0.1093470E+00
         21   -1    0    0  501  502  0.00000000000E+00  0.00000000000E+00  0.17478388283E+01  0.17478388283E+01  0.00000000000E+00 0. -1.
         13   -1    0    0    0    0 -0.00000000000E+00 -0.00000000000E+00 -0.10000000000E+04  0.10000000000E+04  0.00000000000E+00 0.  1.
    9000005    2    1    2  501    0 -0.40675043632E+02 -0.75923981313E+01 -0.56589267617E+03  0.56741291282E+03  0.32846617616E+01 0.  0.
         13    1    3    3    0    0 -0.36019464880E+02 -0.62378640872E+01 -0.51146669754E+03  0.51277138716E+03  0.00000000000E+00 0.  1.
          1    1    3    3  501    0 -0.46555787519E+01 -0.13545340441E+01 -0.54425978630E+02  0.54641525655E+02  0.00000000000E+00 0.  1.
         -3    1    1    2    0  502  0.40675043632E+02  0.75923981313E+01 -0.43235948500E+03  0.43433492601E+03  0.00000000000E+00 0. -1.
<mgrwt>
<rscale>  1 0.30000000E+03</rscale>
<asrwt>0</asrwt>
<pdfrwt beam="1">  1       21 0.63557910E-02 0.30000000E+03</pdfrwt>
<pdfrwt beam="2">0</pdfrwt>
<totfact> 0.19076410E+04</totfact>
</mgrwt>
</event>
<event>
 6    1  0.1284012E-001  0.3000000E+03  0.7818608E-02  0.1093470E+00
         21   -1    0    0  501  502  0.00000000000E+00  0.00000000000E+00  0.18222150075E+01  0.18222150075E+01  0.00000000000E+00 0. -1.
         13   -1    0    0    0    0 -0.00000000000E+00 -0.00000000000E+00 -0.10000000000E+04  0.10000000000E+04  0.00000000000E+00 0.  1.
    9000005    2    1    2  501    0  0.38973110314E+02  0.10787816227E+02 -0.65723118108E+03  0.65848583909E+03  0.39363175802E+01 0.  0.
         13    1    3    3    0    0  0.29967762271E+02  0.95444739279E+01 -0.52715553484E+03  0.52809291008E+03  0.00000000000E+00 0.  1.
          1    1    3    3  501    0  0.90053480432E+01  0.12433422995E+01 -0.13007564623E+03  0.13039292901E+03  0.00000000000E+00 0.  1.
         -1    1    1    2    0  502 -0.38973110314E+02 -0.10787816227E+02 -0.34094660392E+03  0.34333637592E+03  0.00000000000E+00 0. -1.
<mgrwt>
<rscale>  1 0.30000000E+03</rscale>
<asrwt>0</asrwt>
<pdfrwt beam="1">  1       21 0.66262504E-02 0.30000000E+03</pdfrwt>
<pdfrwt beam="2">0</pdfrwt>
<totfact> 0.17748588E+04</totfact>
</mgrwt>
</event>
<event>
 6    1  0.1284012E-001  0.3000000E+03  0.7818608E-02  0.1093470E+00
         21   -1    0    0  501  502  0.00000000000E+00  0.00000000000E+00  0.21667770214E+01  0.21667770214E+01  0.00000000000E+00 0. -1.
         13   -1    0    0    0    0 -0.00000000000E+00 -0.00000000000E+00 -0.10000000000E+04  0.10000000000E+04  0.00000000000E+00 0.  1.
    9000005    2    1    2  501    0 -0.46220896789E+02  0.20063723631E+01 -0.44936054054E+03  0.45174631936E+03  0.30732444510E+01 0.  0.
         13    1    3    3    0    0 -0.35991106651E+02  0.13737094097E+01 -0.36158703138E+03  0.36337642755E+03  0.00000000000E+00 0.  1.
          3    1    3    3  501    0 -0.10229790138E+02  0.63266295334E+00 -0.87773509164E+02  0.88369891816E+02  0.00000000000E+00 0.  1.
         -3    1    1    2    0  502  0.46220896789E+02 -0.20063723631E+01 -0.54847268244E+03  0.55042045766E+03  0.00000000000E+00 0. -1.
<mgrwt>
<rscale>  1 0.30000000E+03</rscale>
<asrwt>0</asrwt>
<pdfrwt beam="1">  1       21 0.78792058E-02 0.30000000E+03</pdfrwt>
<pdfrwt beam="2">0</pdfrwt>
<totfact> 0.13119685E+04</totfact>
</mgrwt>
</event>
<event>
 6    1  0.1284012E-001  0.3000000E+03  0.7818608E-02  0.1093470E+00
         21   -1    0    0  501  502  0.00000000000E+00  0.00000000000E+00  0.15875837606E+01  0.15875837606E+01  0.00000000000E+00 0. -1.
         13   -1    0    0    0    0 -0.00000000000E+00 -0.00000000000E+00 -0.10000000000E+04  0.10000000000E+04  0.00000000000E+00 0.  1.
    9000005    2    1    2  501    0  0.23093429093E+02 -0.31251662183E+02 -0.39327490443E+03  0.39520372756E+03  0.32959019900E+01 0.  0.
         13    1    3    3    0    0  0.17695379947E+02 -0.21560971333E+02 -0.28583287054E+03  0.28719058452E+03  0.00000000000E+00 0.  1.
          1    1    3    3  501    0  0.53980491453E+01 -0.96906908502E+01 -0.10744203389E+03  0.10801314304E+03  0.00000000000E+00 0.  1.
         -3    1    1    2    0  502 -0.23093429093E+02  0.31251662183E+02 -0.60513751181E+03  0.60638385620E+03  0.00000000000E+00 0. -1.
<mgrwt>
<rscale>  1 0.30000000E+03</rscale>
<asrwt>0</asrwt>
<pdfrwt beam="1">  1       21 0.57730440E-02 0.30000000E+03</pdfrwt>
<pdfrwt beam="2">0</pdfrwt>
<totfact> 0.22519475E+04</totfact>
</mgrwt>
</event>
<event>
 6    1  0.1284012E-001  0.3000000E+03  0.7818608E-02  0.1093470E+00
         21   -1    0    0  501  502  0.00000000000E+00  0.00000000000E+00  0.17052434428E+01  0.17052434428E+01  0.00000000000E+00 0. -1.
         13   -1    0    0    0    0 -0.00000000000E+00 -0.00000000000E+00 -0.10000000000E+04  0.10000000000E+04  0.00000000000E+00 0.  1.
    9000005    2    1    2  501    0 -0.20205339453E+02 -0.35659960052E+02 -0.55426758976E+03  0.55579043841E+03  0.32499040978E+01 0.  0.
         13    1    3    3    0    0 -0.91390196597E+01 -0.18356490116E+02 -0.29309860857E+03  0.29381503835E+03  0.00000000000E+00 0.  1.
          3    1    3    3  501    0 -0.11066319793E+02 -0.17303469936E+02 -0.26116898119E+03  0.26197540007E+03  0.00000000000E+00 0.  1.
         -3    1    1    2    0  502  0.20205339453E+02  0.35659960052E+02 -0.44402716680E+03  0.44591480503E+03  0.00000000000E+00 0. -1.
<mgrwt>
<rscale>  1 0.30000000E+03</rscale>
<asrwt>0</asrwt>
<pdfrwt beam="1">  1       21 0.62008983E-02 0.30000000E+03</pdfrwt>
<pdfrwt beam="2">0</pdfrwt>
<totfact> 0.19907359E+04</totfact>
</mgrwt>
</event>
<event>
 6    1  0.1284012E-001  0.3000000E+03  0.7818608E-02  0.1093470E+00
         21   -1    0    0  501  502  0.00000000000E+00  0.00000000000E+00  0.54950504922E+01  0.54950504922E+01  0.00000000000E+00 0. -1.
         13   -1    0    0    0    0 -0.00000000000E+00 -0.00000000000E+00 -0.10000000000E+04  0.10000000000E+04  0.00000000000E+00 0.  1.
    9000005    2    1    2  501    0 -0.25225735744E+02 -0.34376346068E+02 -0.90842524440E+03  0.90943368186E+03  0.38892309604E+01 0.  0.
         13    1    3    3    0    0 -0.20382954550E+01 -0.23475755650E+01 -0.90216948745E+02  0.90270502382E+02  0.00000000000E+00 0.  1.
          3    1    3    3  501    0 -0.23187440288E+02 -0.32028770503E+02 -0.81820829566E+03  0.81916317948E+03  0.00000000000E+00 0.  1.
         -1    1    1    2    0  502  0.25225735744E+02  0.34376346068E+02 -0.86079705104E+02  0.96061368633E+02  0.00000000000E+00 0. -1.
<mgrwt>
<rscale>  1 0.30000000E+03</rscale>
<asrwt>0</asrwt>
<pdfrwt beam="1">  1       21 0.19982044E-01 0.30000000E+03</pdfrwt>
<pdfrwt beam="2">0</pdfrwt>
<totfact> 0.24033393E+03</totfact>
</mgrwt>
</event>
<event>
 6    1  0.1284012E-001  0.3000000E+03  0.7818608E-02  0.1093470E+00
         21   -1    0    0  501  502  0.00000000000E+00  0.00000000000E+00  0.10869301959E+01  0.10869301959E+01  0.00000000000E+00 0. -1.
         13   -1    0    0    0    0 -0.00000000000E+00 -0.00000000000E+00 -0.10000000000E+04  0.10000000000E+04  0.00000000000E+00 0.  1.
    9000005    2    1    2  501    0  0.43345567572E+01  0.31748242414E+02 -0.61363135238E+03  0.61447505627E+03  0.30690188385E+01 0.  0.
         13    1    3    3    0    0  0.24520395338E+01  0.10336904928E+02 -0.22273094947E+03  0.22298416974E+03  0.00000000000E+00 0.  1.
          1    1    3    3  501    0  0.18825172234E+01  0.21411337486E+02 -0.39090040290E+03  0.39149088653E+03  0.00000000000E+00 0.  1.
         -3    1    1    2    0  502 -0.43345567572E+01 -0.31748242414E+02 -0.38528171743E+03  0.38661187393E+03  0.00000000000E+00 0. -1.
<mgrwt>
<rscale>  1 0.30000000E+03</rscale>
<asrwt>0</asrwt>
<pdfrwt beam="1">  1       21 0.39524818E-02 0.30000000E+03</pdfrwt>
<pdfrwt beam="2">0</pdfrwt>
<totfact> 0.42901856E+04</totfact>
</mgrwt>
</event>
<event>
 6    1  0.1284012E-001  0.3000000E+03  0.7818608E-02  0.1093470E+00
         21   -1    0    0  501  502  0.00000000000E+00  0.00000000000E+00  0.16808528816E+01  0.16808528816E+01  0.00000000000E+00 0. -1.
         13   -1    0    0    0    0 -0.00000000000E+00 -0.00000000000E+00 -0.10000000000E+04  0.10000000000E+04  0.00000000000E+00 0.  1.
    9000005    2    1    2  501    0 -0.20164703174E+02  0.26484472630E+02 -0.79099839155E+03  0.79170481084E+03  0.31637822092E+01 0.  0.
         13    1    3    3    0    0 -0.13860916129E+02  0.20454821748E+02 -0.59072407765E+03  0.59124061146E+03  0.00000000000E+00 0.  1.
          3    1    3    3  501    0 -0.63037870451E+01  0.60296508825E+01 -0.20027431390E+03  0.20046419937E+03  0.00000000000E+00 0.  1.
         -3    1    1    2    0  502  0.20164703174E+02 -0.26484472630E+02 -0.20732075556E+03  0.20997604204E+03  0.00000000000E+00 0. -1.
<mgrwt>
<rscale>  1 0.30000000E+03</rscale>
<asrwt>0</asrwt>
<pdfrwt beam="1">  1       21 0.61122052E-02 0.30000000E+03</pdfrwt>
<pdfrwt beam="2">0</pdfrwt>
<totfact> 0.20408730E+04</totfact>
</mgrwt>
</event>
<event>
 6    1  0.1284012E-001  0.3000000E+03  0.7818608E-02  0.1093470E+00
         21   -1    0    0  501  502  0.00000000000E+00  0.00000000000E+00  0.24603868437E+01  0.24603868437E+01  0.00000000000E+00 0. -1.
         13   -1    0    0    0    0 -0.00000000000E+00 -0.00000000000E+00 -0.10000000000E+04  0.10000000000E+04  0.00000000000E+00 0.  1.
    9000005    2    1    2  501    0 -0.32338498857E+02 -0.68030056392E+01 -0.87232605268E+03  0.87295944043E+03  0.36582869540E+01 0.  0.
         13    1    3    3    0    0 -0.13446710970E+01 -0.28073129622E+00 -0.21327634167E+02  0.21371825603E+02  0.00000000000E+00 0.  1.
          3    1    3    3  501    0 -0.30993827760E+02 -0.65222743430E+01 -0.85099841851E+03  0.85158761483E+03  0.00000000000E+00 0.  1.
         -3    1    1    2    0  502  0.32338498857E+02  0.68030056392E+01 -0.12521356048E+03  0.12950094641E+03  0.00000000000E+00 0. -1.
<mgrwt>
<rscale>  1 0.30000000E+03</rscale>
<asrwt>0</asrwt>
<pdfrwt beam="1">  1       21 0.89468801E-02 0.30000000E+03</pdfrwt>
<pdfrwt beam="2">0</pdfrwt>
<totfact> 0.10487475E+04</totfact>
</mgrwt>
</event>
<event>
 6    1  0.1284012E-001  0.3000000E+03  0.7818608E-02  0.1093470E+00
         21   -1    0    0  501  502  0.00000000000E+00  0.00000000000E+00  0.41829862396E+01  0.41829862396E+01  0.00000000000E+00 0. -1.
         13   -1    0    0    0    0 -0.00000000000E+00 -0.00000000000E+00 -0.10000000000E+04  0.10000000000E+04  0.00000000000E+00 0.  1.
    9000005    2    1    2  501    0 -0.42029967865E+02  0.48598965751E+02 -0.52862218020E+03  0.53259058789E+03  0.91075377727E+01 0.  0.
         13    1    3    3    0    0 -0.85144209135E+01  0.14565241821E+02 -0.11814009504E+03  0.11933869318E+03  0.00000000000E+00 0.  1.
          3    1    3    3  501    0 -0.33515546951E+02  0.34033723930E+02 -0.41048208516E+03  0.41325189471E+03  0.00000000000E+00 0.  1.
         -3    1    1    2    0  502  0.42029967865E+02 -0.48598965751E+02 -0.46719483356E+03  0.47159239835E+03  0.00000000000E+00 0. -1.
<mgrwt>
<rscale>  1 0.30000000E+03</rscale>
<asrwt>0</asrwt>
<pdfrwt beam="1">  1       21 0.15210891E-01 0.30000000E+03</pdfrwt>
<pdfrwt beam="2">0</pdfrwt>
<totfact> 0.40128962E+03</totfact>
</mgrwt>
</event>
<event>
 6    1  0.1284012E-001  0.3000000E+03  0.7818608E-02  0.1093470E+00
         21   -1    0    0  501  502  0.00000000000E+00  0.00000000000E+00  0.11751413762E+01  0.11751413762E+01  0.00000000000E+00 0. -1.
         13   -1    0    0    0    0 -0.00000000000E+00 -0.00000000000E+00 -0.10000000000E+04  0.10000000000E+04  0.00000000000E+00 0.  1.
    9000005    2    1    2  501    0 -0.32533512905E+02  0.66463925426E+01 -0.37901635198E+03  0.38047780056E+03  0.27124989106E+01 0.  0.
         13    1    3    3    0    0 -0.37795563673E+01  0.13760164068E+01 -0.53880935081E+02  0.54030858153E+02  0.00000000000E+00 0.  1.
          1    1    3    3  501    0 -0.28753956537E+02  0.52703761358E+01 -0.32513541690E+03  0.32644694240E+03  0.00000000000E+00 0.  1.
         -3    1    1    2    0  502  0.32533512905E+02 -0.66463925426E+01 -0.61980850664E+03  0.62069734082E+03  0.00000000000E+00 0. -1.
<mgrwt>
<rscale>  1 0.30000000E+03</rscale>
<asrwt>0</asrwt>
<pdfrwt beam="1">  1       21 0.42732504E-02 0.30000000E+03</pdfrwt>
<pdfrwt beam="2">0</pdfrwt>
<totfact> 0.37611512E+04</totfact>
</mgrwt>
</event>
<event>
 6    1  0.1284012E-001  0.3000000E+03  0.7818608E-02  0.1093470E+00
         21   -1    0    0  501  502  0.00000000000E+00  0.00000000000E+00  0.15855894098E+01  0.15855894098E+01  0.00000000000E+00 0. -1.
         13   -1    0    0    0    0 -0.00000000000E+00 -0.00000000000E+00 -0.10000000000E+04  0.10000000000E+04  0.00000000000E+00 0.  1.
    9000005    2    1    2  501    0  0.28970179176E+02 -0.12097593521E+02 -0.80669523666E+03  0.80731293384E+03  0.33682697967E+01 0.  0.
         13    1    3    3    0    0  0.23992583439E+02 -0.97566213264E+01 -0.63023597395E+03  0.63076795938E+03  0.00000000000E+00 0.  1.
          3    1    3    3  501    0  0.49775957368E+01 -0.23409721947E+01 -0.17645926271E+03  0.17654497445E+03  0.00000000000E+00 0.  1.
         -3    1    1    2    0  502 -0.28970179176E+02  0.12097593521E+02 -0.19171917393E+03  0.19427265557E+03  0.00000000000E+00 0. -1.
<mgrwt>
<rscale>  1 0.30000000E+03</rscale>
<asrwt>0</asrwt>
<pdfrwt beam="1">  1       21 0.57657918E-02 0.30000000E+03</pdfrwt>
<pdfrwt beam="2">0</pdfrwt>
<totfact> 0.22568253E+04</totfact>
</mgrwt>
</event>
<event>
 6    1  0.1284012E-001  0.3000000E+03  0.7818608E-02  0.1093470E+00
         21   -1    0    0  501  502  0.00000000000E+00  0.00000000000E+00  0.13471781094E+01  0.13471781094E+01  0.00000000000E+00 0. -1.
         13   -1    0    0    0    0 -0.00000000000E+00 -0.00000000000E+00 -0.10000000000E+04  0.10000000000E+04  0.00000000000E+00 0.  1.
    9000005    2    1    2  501    0  0.35141401090E+02 -0.82922989336E+01 -0.42147244429E+03  0.42303855066E+03  0.43489951497E+01 0.  0.
         13    1    3    3    0    0  0.17058186970E+02 -0.62341540675E+01 -0.20672053584E+03  0.20751680982E+03  0.00000000000E+00 0.  1.
          1    1    3    3  501    0  0.18083214120E+02 -0.20581448661E+01 -0.21475190845E+03  0.21552174084E+03  0.00000000000E+00 0.  1.
         -1    1    1    2    0  502 -0.35141401090E+02  0.82922989336E+01 -0.57718037760E+03  0.57830862744E+03  0.00000000000E+00 0. -1.
<mgrwt>
<rscale>  1 0.30000000E+03</rscale>
<asrwt>0</asrwt>
<pdfrwt beam="1">  1       21 0.48988398E-02 0.30000000E+03</pdfrwt>
<pdfrwt beam="2">0</pdfrwt>
<totfact> 0.29825500E+04</totfact>
</mgrwt>
</event>
<event>
 6    1  0.1284012E-001  0.3000000E+03  0.7818608E-02  0.1093470E+00
         21   -1    0    0  501  502  0.00000000000E+00  0.00000000000E+00  0.16721025412E+01  0.16721025412E+01  0.00000000000E+00 0. -1.
         13   -1    0    0    0    0 -0.00000000000E+00 -0.00000000000E+00 -0.10000000000E+04  0.10000000000E+04  0.00000000000E+00 0.  1.
    9000005    2    1    2  501    0  0.20605318251E+02  0.25868037775E+02 -0.79286917468E+03  0.79356871169E+03  0.40046840638E+01 0.  0.
         13    1    3    3    0    0  0.83246315757E+01  0.13632148972E+02 -0.37375249513E+03  0.37409365484E+03  0.00000000000E+00 0.  1.
          3    1    3    3  501    0  0.12280686675E+02  0.12235888803E+02 -0.41911667955E+03  0.41947505685E+03  0.00000000000E+00 0.  1.
         -1    1    1    2    0  502 -0.20605318251E+02 -0.25868037775E+02 -0.20545872278E+03  0.20810339085E+03  0.00000000000E+00 0. -1.
<mgrwt>
<rscale>  1 0.30000000E+03</rscale>
<asrwt>0</asrwt>
<pdfrwt beam="1">  1       21 0.60803857E-02 0.30000000E+03</pdfrwt>
<pdfrwt beam="2">0</pdfrwt>
<totfact> 0.20593395E+04</totfact>
</mgrwt>
</event>
<event>
 6    1  0.1284012E-001  0.3000000E+03  0.7818608E-02  0.1093470E+00
         21   -1    0    0  501  502  0.00000000000E+00  0.00000000000E+00  0.34846386565E+01  0.34846386565E+01  0.00000000000E+00 0. -1.
         13   -1    0    0    0    0 -0.00000000000E+00 -0.00000000000E+00 -0.10000000000E+04  0.10000000000E+04  0.00000000000E+00 0.  1.
    9000005    2    1    2  501    0 -0.14168155500E+02 -0.49512132451E+02 -0.74258508850E+03  0.74438471323E+03  0.48784973605E+01 0.  0.
         13    1    3    3    0    0 -0.10808385478E+02 -0.43364255512E+02 -0.65070765458E+03  0.65224054733E+03  0.00000000000E+00 0.  1.
          3    1    3    3  501    0 -0.33597700219E+01 -0.61478769397E+01 -0.91877433921E+02  0.92144165900E+02  0.00000000000E+00 0.  1.
         -1    1    1    2    0  502  0.14168155500E+02  0.49512132451E+02 -0.25393027284E+03  0.25909992543E+03  0.00000000000E+00 0. -1.
<mgrwt>
<rscale>  1 0.30000000E+03</rscale>
<asrwt>0</asrwt>
<pdfrwt beam="1">  1       21 0.12671440E-01 0.30000000E+03</pdfrwt>
<pdfrwt beam="2">0</pdfrwt>
<totfact> 0.56126372E+03</totfact>
</mgrwt>
</event>
<event>
 6    1  0.1284012E-001  0.3000000E+03  0.7818608E-02  0.1093470E+00
         21   -1    0    0  501  502  0.00000000000E+00  0.00000000000E+00  0.29691506982E+01  0.29691506982E+01  0.00000000000E+00 0. -1.
         13   -1    0    0    0    0 -0.00000000000E+00 -0.00000000000E+00 -0.10000000000E+04  0.10000000000E+04  0.00000000000E+00 0.  1.
    9000005    2    1    2  501    0  0.14466380723E+02  0.52277273977E+02 -0.54353236090E+03  0.54623830159E+03  0.25817108930E+01 0.  0.
         13    1    3    3    0    0  0.16905556319E+01  0.54694317607E+01 -0.50018103473E+02  0.50344645566E+02  0.00000000000E+00 0.  1.
          1    1    3    3  501    0  0.12775825091E+02  0.46807842216E+02 -0.49351425743E+03  0.49589365602E+03  0.00000000000E+00 0.  1.
         -3    1    1    2    0  502 -0.14466380723E+02 -0.52277273977E+02 -0.45349848840E+03  0.45673084911E+03  0.00000000000E+00 0. -1.
<mgrwt>
<rscale>  1 0.30000000E+03</rscale>
<asrwt>0</asrwt>
<pdfrwt beam="1">  1       21 0.10796934E-01 0.30000000E+03</pdfrwt>
<pdfrwt beam="2">0</pdfrwt>
<totfact> 0.74990593E+03</totfact>
</mgrwt>
</event>
<event>
 6    1  0.1284012E-001  0.3000000E+03  0.7818608E-02  0.1093470E+00
         21   -1    0    0  501  502  0.00000000000E+00  0.00000000000E+00  0.16570262314E+01  0.16570262314E+01  0.00000000000E+00 0. -1.
         13   -1    0    0    0    0 -0.00000000000E+00 -0.00000000000E+00 -0.10000000000E+04  0.10000000000E+04  0.00000000000E+00 0.  1.
    9000005    2    1    2  501    0 -0.27222292398E+02  0.26355078436E+02 -0.32005555223E+03  0.32231214359E+03  0.37306869632E+01 0.  0.
         13    1    3    3    0    0 -0.17199388878E+02  0.14093936903E+02 -0.18639912164E+03  0.18772077824E+03  0.00000000000E+00 0.  1.
          3    1    3    3  501    0 -0.10022903520E+02  0.12261141533E+02 -0.13365643059E+03  0.13459136534E+03  0.00000000000E+00 0.  1.
         -3    1    1    2    0  502  0.27222292398E+02 -0.26355078436E+02 -0.67828742153E+03  0.67934488264E+03  0.00000000000E+00 0. -1.
<mgrwt>
<rscale>  1 0.30000000E+03</rscale>
<asrwt>0</asrwt>
<pdfrwt beam="1">  1       21 0.60255626E-02 0.30000000E+03</pdfrwt>
<pdfrwt beam="2">0</pdfrwt>
<totfact> 0.20917717E+04</totfact>
</mgrwt>
</event>
<event>
 6    1  0.1284012E-001  0.3000000E+03  0.7818608E-02  0.1093470E+00
         21   -1    0    0  501  502  0.00000000000E+00  0.00000000000E+00  0.16887505001E+01  0.16887505001E+01  0.00000000000E+00 0. -1.
         13   -1    0    0    0    0 -0.00000000000E+00 -0.00000000000E+00 -0.10000000000E+04  0.10000000000E+04  0.00000000000E+00 0.  1.
    9000005    2    1    2  501    0  0.25305000091E+02 -0.26850952662E+02 -0.28156449561E+03  0.28399297518E+03  0.34825392735E+01 0.  0.
         13    1    3    3    0    0  0.12984883988E+02 -0.14239644623E+02 -0.13388036461E+03  0.13526021854E+03  0.00000000000E+00 0.  1.
          3    1    3    3  501    0  0.12320116103E+02 -0.12611308039E+02 -0.14768413100E+03  0.14873275665E+03  0.00000000000E+00 0.  1.
         -3    1    1    2    0  502 -0.25305000091E+02  0.26850952662E+02 -0.71674675389E+03  0.71769577532E+03  0.00000000000E+00 0. -1.
<mgrwt>
<rscale>  1 0.30000000E+03</rscale>
<asrwt>0</asrwt>
<pdfrwt beam="1">  1       21 0.61409239E-02 0.30000000E+03</pdfrwt>
<pdfrwt beam="2">0</pdfrwt>
<totfact> 0.20244260E+04</totfact>
</mgrwt>
</event>
<event>
 6    1  0.1284012E-001  0.3000000E+03  0.7818608E-02  0.1093470E+00
         21   -1    0    0  501  502  0.00000000000E+00  0.00000000000E+00  0.13295778636E+01  0.13295778636E+01  0.00000000000E+00 0. -1.
         13   -1    0    0    0    0 -0.00000000000E+00 -0.00000000000E+00 -0.10000000000E+04  0.10000000000E+04  0.00000000000E+00 0.  1.
    9000005    2    1    2  501    0  0.33847680827E+02 -0.13062019031E+02 -0.45929804434E+03  0.46073837949E+03  0.29797573868E+01 0.  0.
         13    1    3    3    0    0  0.23300884904E+02 -0.85823032753E+01 -0.29689073287E+03  0.29792733079E+03  0.00000000000E+00 0.  1.
          1    1    3    3  501    0  0.10546795923E+02 -0.44797157559E+01 -0.16240731148E+03  0.16281104870E+03  0.00000000000E+00 0.  1.
         -1    1    1    2    0  502 -0.33847680827E+02  0.13062019031E+02 -0.53937237779E+03  0.54059119838E+03  0.00000000000E+00 0. -1.
<mgrwt>
<rscale>  1 0.30000000E+03</rscale>
<asrwt>0</asrwt>
<pdfrwt beam="1">  1       21 0.48348388E-02 0.30000000E+03</pdfrwt>
<pdfrwt beam="2">0</pdfrwt>
<totfact> 0.30500830E+04</totfact>
</mgrwt>
</event>
<event>
 6    1  0.1284012E-001  0.3000000E+03  0.7818608E-02  0.1093470E+00
         21   -1    0    0  501  502  0.00000000000E+00  0.00000000000E+00  0.17195601719E+01  0.17195601719E+01  0.00000000000E+00 0. -1.
         13   -1    0    0    0    0 -0.00000000000E+00 -0.00000000000E+00 -0.10000000000E+04  0.10000000000E+04  0.00000000000E+00 0.  1.
    9000005    2    1    2  501    0  0.26325695950E+02 -0.19619549151E+02 -0.80448528203E+03  0.80516287073E+03  0.35651693191E+01 0.  0.
         13    1    3    3    0    0  0.61600383833E+00 -0.13403943272E+01 -0.38888174518E+02  0.38916143630E+02  0.00000000000E+00 0.  1.
          1    1    3    3  501    0  0.25709692112E+02 -0.18279154824E+02 -0.76559710751E+03  0.76624672710E+03  0.00000000000E+00 0.  1.
         -1    1    1    2    0  502 -0.26325695950E+02  0.19619549151E+02 -0.19379515780E+03  0.19655668944E+03  0.00000000000E+00 0. -1.
<mgrwt>
<rscale>  1 0.30000000E+03</rscale>
<asrwt>0</asrwt>
<pdfrwt beam="1">  1       21 0.62529593E-02 0.30000000E+03</pdfrwt>
<pdfrwt beam="2">0</pdfrwt>
<totfact> 0.19621912E+04</totfact>
</mgrwt>
</event>
<event>
 6    1  0.1284012E-001  0.3000000E+03  0.7818608E-02  0.1093470E+00
         21   -1    0    0  501  502  0.00000000000E+00  0.00000000000E+00  0.22987138164E+01  0.22987138164E+01  0.00000000000E+00 0. -1.
         13   -1    0    0    0    0 -0.00000000000E+00 -0.00000000000E+00 -0.10000000000E+04  0.10000000000E+04  0.00000000000E+00 0.  1.
    9000005    2    1    2  501    0  0.38643677601E+02 -0.11243104400E+02 -0.76512676488E+03  0.76626767947E+03  0.11289333438E+02 0.  0.
         13    1    3    3    0    0  0.23858562553E+02 -0.12142692843E+02 -0.52873064784E+03  0.52940794663E+03  0.00000000000E+00 0.  1.
          3    1    3    3  501    0  0.14785115048E+02  0.89958844283E+00 -0.23639611704E+03  0.23685973283E+03  0.00000000000E+00 0.  1.
         -3    1    1    2    0  502 -0.38643677601E+02  0.11243104400E+02 -0.23257452131E+03  0.23603103435E+03  0.00000000000E+00 0. -1.
<mgrwt>
<rscale>  1 0.30000000E+03</rscale>
<asrwt>0</asrwt>
<pdfrwt beam="1">  1       21 0.83589770E-02 0.30000000E+03</pdfrwt>
<pdfrwt beam="2">0</pdfrwt>
<totfact> 0.11824812E+04</totfact>
</mgrwt>
</event>
<event>
 6    1  0.1284012E-001  0.3000000E+03  0.7818608E-02  0.1093470E+00
         21   -1    0    0  501  502  0.00000000000E+00  0.00000000000E+00  0.11849824584E+01  0.11849824584E+01  0.00000000000E+00 0. -1.
         13   -1    0    0    0    0 -0.00000000000E+00 -0.00000000000E+00 -0.10000000000E+04  0.10000000000E+04  0.00000000000E+00 0.  1.
    9000005    2    1    2  501    0 -0.16583302323E+02  0.28994001234E+02 -0.61718209075E+03  0.61809315426E+03  0.31234872471E+01 0.  0.
         13    1    3    3    0    0 -0.80105097199E+01  0.16738764573E+02 -0.35557961647E+03  0.35606350298E+03  0.00000000000E+00 0.  1.
          1    1    3    3  501    0 -0.85727926036E+01  0.12255236662E+02 -0.26160247428E+03  0.26202965127E+03  0.00000000000E+00 0.  1.
         -3    1    1    2    0  502  0.16583302323E+02 -0.28994001234E+02 -0.38163292679E+03  0.38309182820E+03  0.00000000000E+00 0. -1.
<mgrwt>
<rscale>  1 0.30000000E+03</rscale>
<asrwt>0</asrwt>
<pdfrwt beam="1">  1       21 0.43090362E-02 0.30000000E+03</pdfrwt>
<pdfrwt beam="2">0</pdfrwt>
<totfact> 0.37084840E+04</totfact>
</mgrwt>
</event>
<event>
 6    1  0.1284012E-001  0.3000000E+03  0.7818608E-02  0.1093470E+00
         21   -1    0    0  501  502  0.00000000000E+00  0.00000000000E+00  0.45079872798E+01  0.45079872798E+01  0.00000000000E+00 0. -1.
         13   -1    0    0    0    0 -0.00000000000E+00 -0.00000000000E+00 -0.10000000000E+04  0.10000000000E+04  0.00000000000E+00 0.  1.
    9000005    2    1    2  501    0  0.61971702807E+02  0.67210158183E+01 -0.31473014369E+03  0.32089816704E+03  0.59081520265E+01 0.  0.
         13    1    3    3    0    0  0.17003501639E+02  0.44580541185E+01 -0.91117729075E+02  0.92797811754E+02  0.00000000000E+00 0.  1.
          3    1    3    3  501    0  0.44968201168E+02  0.22629616998E+01 -0.22361241461E+03  0.22810035528E+03  0.00000000000E+00 0.  1.
         -3    1    1    2    0  502 -0.61971702807E+02 -0.67210158183E+01 -0.68076186903E+03  0.68360982024E+03  0.00000000000E+00 0. -1.
<mgrwt>
<rscale>  1 0.30000000E+03</rscale>
<asrwt>0</asrwt>
<pdfrwt beam="1">  1       21 0.16392716E-01 0.30000000E+03</pdfrwt>
<pdfrwt beam="2">0</pdfrwt>
<totfact> 0.34911097E+03</totfact>
</mgrwt>
</event>
<event>
 6    1  0.1284012E-001  0.3000000E+03  0.7818608E-02  0.1093470E+00
         21   -1    0    0  501  502  0.00000000000E+00  0.00000000000E+00  0.25376892058E+01  0.25376892058E+01  0.00000000000E+00 0. -1.
         13   -1    0    0    0    0 -0.00000000000E+00 -0.00000000000E+00 -0.10000000000E+04  0.10000000000E+04  0.00000000000E+00 0.  1.
    9000005    2    1    2  501    0  0.72252940930E+01 -0.49451006726E+02 -0.48888011044E+03  0.49150592751E+03  0.87582793078E+01 0.  0.
         13    1    3    3    0    0  0.18694238861E+01 -0.57712250888E+01 -0.37728853983E+02  0.38213455844E+02  0.00000000000E+00 0.  1.
          3    1    3    3  501    0  0.53558702069E+01 -0.43679781637E+02 -0.45115125646E+03  0.45329247167E+03  0.00000000000E+00 0.  1.
         -3    1    1    2    0  502 -0.72252940930E+01  0.49451006726E+02 -0.50858220035E+03  0.51103176169E+03  0.00000000000E+00 0. -1.
<mgrwt>
<rscale>  1 0.30000000E+03</rscale>
<asrwt>0</asrwt>
<pdfrwt beam="1">  1       21 0.92279802E-02 0.30000000E+03</pdfrwt>
<pdfrwt beam="2">0</pdfrwt>
<totfact> 0.99276661E+03</totfact>
</mgrwt>
</event>
<event>
 6    1  0.1284012E-001  0.3000000E+03  0.7818608E-02  0.1093470E+00
         21   -1    0    0  501  502  0.00000000000E+00  0.00000000000E+00  0.17566969226E+01  0.17566969226E+01  0.00000000000E+00 0. -1.
         13   -1    0    0    0    0 -0.00000000000E+00 -0.00000000000E+00 -0.10000000000E+04  0.10000000000E+04  0.00000000000E+00 0.  1.
    9000005    2    1    2  501    0 -0.19543347737E+02  0.26033336386E+02 -0.81003007163E+03  0.81074911190E+03  0.10282434434E+02 0.  0.
         13    1    3    3    0    0 -0.32664226910E+01  0.20441210182E+01 -0.43279964834E+02  0.43451159984E+02  0.00000000000E+00 0.  1.
          3    1    3    3  501    0 -0.16276925046E+02  0.23989215368E+02 -0.76675010679E+03  0.76729795191E+03  0.00000000000E+00 0.  1.
         -1    1    1    2    0  502  0.19543347737E+02 -0.26033336386E+02 -0.18821323145E+03  0.19100758502E+03  0.00000000000E+00 0. -1.
<mgrwt>
<rscale>  1 0.30000000E+03</rscale>
<asrwt>0</asrwt>
<pdfrwt beam="1">  1       21 0.63880023E-02 0.30000000E+03</pdfrwt>
<pdfrwt beam="2">0</pdfrwt>
<totfact> 0.18910356E+04</totfact>
</mgrwt>
</event>
<event>
 6    1  0.1284012E-001  0.3000000E+03  0.7818608E-02  0.1093470E+00
         21   -1    0    0  501  502  0.00000000000E+00  0.00000000000E+00  0.34676421428E+01  0.34676421428E+01  0.00000000000E+00 0. -1.
         13   -1    0    0    0    0 -0.00000000000E+00 -0.00000000000E+00 -0.10000000000E+04  0.10000000000E+04  0.00000000000E+00 0.  1.
    9000005    2    1    2  501    0  0.29084933633E+02  0.27207663219E+02 -0.86702901931E+03  0.86797850975E+03  0.78219406979E+01 0.  0.
         13    1    3    3    0    0  0.67558301701E+01  0.23356549718E+01 -0.16196441256E+03  0.16212207580E+03  0.00000000000E+00 0.  1.
          1    1    3    3  501    0  0.22329103463E+02  0.24872008247E+02 -0.70506460674E+03  0.70585643394E+03  0.00000000000E+00 0.  1.
         -1    1    1    2    0  502 -0.29084933633E+02 -0.27207663219E+02 -0.12950333855E+03  0.13548913240E+03  0.00000000000E+00 0. -1.
<mgrwt>
<rscale>  1 0.30000000E+03</rscale>
<asrwt>0</asrwt>
<pdfrwt beam="1">  1       21 0.12609634E-01 0.30000000E+03</pdfrwt>
<pdfrwt beam="2">0</pdfrwt>
<totfact> 0.56628799E+03</totfact>
</mgrwt>
</event>
<event>
 6    1  0.1284012E-001  0.3000000E+03  0.7818608E-02  0.1093470E+00
         21   -1    0    0  501  502  0.00000000000E+00  0.00000000000E+00  0.18737423909E+01  0.18737423909E+01  0.00000000000E+00 0. -1.
         13   -1    0    0    0    0 -0.00000000000E+00 -0.00000000000E+00 -0.10000000000E+04  0.10000000000E+04  0.00000000000E+00 0.  1.
    9000005    2    1    2  501    0 -0.87547012418E+01 -0.31785632116E+02 -0.82316077458E+03  0.82382910907E+03  0.37106523553E+01 0.  0.
         13    1    3    3    0    0 -0.33800914749E+00 -0.10000991169E+01 -0.47978306943E+02  0.47989919625E+02  0.00000000000E+00 0.  1.
          3    1    3    3  501    0 -0.84166920943E+01 -0.30785532999E+02 -0.77518246764E+03  0.77583918945E+03  0.00000000000E+00 0.  1.
         -1    1    1    2    0  502  0.87547012418E+01  0.31785632116E+02 -0.17496548303E+03  0.17804463332E+03  0.00000000000E+00 0. -1.
<mgrwt>
<rscale>  1 0.30000000E+03</rscale>
<asrwt>0</asrwt>
<pdfrwt beam="1">  1       21 0.68136231E-02 0.30000000E+03</pdfrwt>
<pdfrwt beam="2">0</pdfrwt>
<totfact> 0.16910320E+04</totfact>
</mgrwt>
</event>
<event>
 6    1  0.1284012E-001  0.3000000E+03  0.7818608E-02  0.1093470E+00
         21   -1    0    0  501  502  0.00000000000E+00  0.00000000000E+00  0.10639770516E+02  0.10639770516E+02  0.00000000000E+00 0. -1.
         13   -1    0    0    0    0 -0.00000000000E+00 -0.00000000000E+00 -0.10000000000E+04  0.10000000000E+04  0.00000000000E+00 0.  1.
    9000005    2    1    2  501    0 -0.54491920684E+02  0.40238726302E+02 -0.87574412805E+03  0.87836300378E+03  0.22943571046E+01 0.  0.
         13    1    3    3    0    0 -0.86505836557E+01  0.56838711934E+01 -0.12618389683E+03  0.12660772018E+03  0.00000000000E+00 0.  1.
          3    1    3    3  501    0 -0.45841337028E+02  0.34554855109E+02 -0.74956023122E+03  0.75175528359E+03  0.00000000000E+00 0.  1.
         -3    1    1    2    0  502  0.54491920684E+02 -0.40238726302E+02 -0.11361610143E+03  0.13227676674E+03  0.00000000000E+00 0. -1.
<mgrwt>
<rscale>  1 0.30000000E+03</rscale>
<asrwt>0</asrwt>
<pdfrwt beam="1">  1       21 0.38690156E-01 0.30000000E+03</pdfrwt>
<pdfrwt beam="2">0</pdfrwt>
<totfact> 0.64736165E+02</totfact>
</mgrwt>
</event>
<event>
 6    1  0.1284012E-001  0.3000000E+03  0.7818608E-02  0.1093470E+00
         21   -1    0    0  501  502  0.00000000000E+00  0.00000000000E+00  0.96951162977E+00  0.96951162977E+00  0.00000000000E+00 0. -1.
         13   -1    0    0    0    0 -0.00000000000E+00 -0.00000000000E+00 -0.10000000000E+04  0.10000000000E+04  0.00000000000E+00 0.  1.
    9000005    2    1    2  501    0  0.17480123123E+02  0.25509176721E+02 -0.54295492102E+03  0.54384677544E+03  0.36050107975E+01 0.  0.
         13    1    3    3    0    0  0.18225527783E+01  0.38658869615E+01 -0.58494929020E+02  0.58650861048E+02  0.00000000000E+00 0.  1.
          3    1    3    3  501    0  0.15657570345E+02  0.21643289760E+02 -0.48445999200E+03  0.48519591440E+03  0.00000000000E+00 0.  1.
         -3    1    1    2    0  502 -0.17480123123E+02 -0.25509176721E+02 -0.45607556735E+03  0.45712273619E+03  0.00000000000E+00 0. -1.
<mgrwt>
<rscale>  1 0.30000000E+03</rscale>
<asrwt>0</asrwt>
<pdfrwt beam="1">  1       21 0.35255043E-02 0.30000000E+03</pdfrwt>
<pdfrwt beam="2">0</pdfrwt>
<totfact> 0.51980823E+04</totfact>
</mgrwt>
</event>
<event>
 6    1  0.1284012E-001  0.3000000E+03  0.7818608E-02  0.1093470E+00
         21   -1    0    0  501  502  0.00000000000E+00  0.00000000000E+00  0.37326066537E+01  0.37326066537E+01  0.00000000000E+00 0. -1.
         13   -1    0    0    0    0 -0.00000000000E+00 -0.00000000000E+00 -0.10000000000E+04  0.10000000000E+04  0.00000000000E+00 0.  1.
    9000005    2    1    2  501    0  0.36523157756E+02  0.14918505453E+02 -0.88118703183E+03  0.88207738702E+03  0.36645285222E+01 0.  0.
         13    1    3    3    0    0  0.13447729531E+02  0.51289541072E+01 -0.28383741753E+03  0.28420208865E+03  0.00000000000E+00 0.  1.
          1    1    3    3  501    0  0.23075428225E+02  0.97895513454E+01 -0.59734961430E+03  0.59787529837E+03  0.00000000000E+00 0.  1.
         -1    1    1    2    0  502 -0.36523157756E+02 -0.14918505453E+02 -0.11508036152E+03  0.12165521963E+03  0.00000000000E+00 0. -1.
<mgrwt>
<rscale>  1 0.30000000E+03</rscale>
<asrwt>0</asrwt>
<pdfrwt beam="1">  1       21 0.13573144E-01 0.30000000E+03</pdfrwt>
<pdfrwt beam="2">0</pdfrwt>
<totfact> 0.49500605E+03</totfact>
</mgrwt>
</event>
<event>
 6    1  0.1284012E-001  0.3000000E+03  0.7818608E-02  0.1093470E+00
         21   -1    0    0  501  502  0.00000000000E+00  0.00000000000E+00  0.26563818156E+01  0.26563818156E+01  0.00000000000E+00 0. -1.
         13   -1    0    0    0    0 -0.00000000000E+00 -0.00000000000E+00 -0.10000000000E+04  0.10000000000E+04  0.00000000000E+00 0.  1.
    9000005    2    1    2  501    0  0.16395194210E+02  0.38478794280E+02 -0.79126465606E+03  0.79237571548E+03  0.31778227371E+01 0.  0.
         13    1    3    3    0    0  0.13513819226E+02  0.32659025346E+02 -0.68767698489E+03  0.68858468673E+03  0.00000000000E+00 0.  1.
          1    1    3    3  501    0  0.28813749841E+01  0.58197689343E+01 -0.10358767117E+03  0.10379102875E+03  0.00000000000E+00 0.  1.
         -3    1    1    2    0  502 -0.16395194210E+02 -0.38478794280E+02 -0.20607896213E+03  0.21028066633E+03  0.00000000000E+00 0. -1.
<mgrwt>
<rscale>  1 0.30000000E+03</rscale>
<asrwt>0</asrwt>
<pdfrwt beam="1">  1       21 0.96595906E-02 0.30000000E+03</pdfrwt>
<pdfrwt beam="2">0</pdfrwt>
<totfact> 0.91518683E+03</totfact>
</mgrwt>
</event>
<event>
 6    1  0.1284012E-001  0.3000000E+03  0.7818608E-02  0.1093470E+00
         21   -1    0    0  501  502  0.00000000000E+00  0.00000000000E+00  0.11246651909E+01  0.11246651909E+01  0.00000000000E+00 0. -1.
         13   -1    0    0    0    0 -0.00000000000E+00 -0.00000000000E+00 -0.10000000000E+04  0.10000000000E+04  0.00000000000E+00 0.  1.
    9000005    2    1    2  501    0 -0.25248392949E+02 -0.20181863610E+02 -0.62097056850E+03  0.62184007367E+03  0.59867616183E+01 0.  0.
         13    1    3    3    0    0 -0.98756704342E+01 -0.82575875131E+01 -0.30456235123E+03  0.30483428679E+03  0.00000000000E+00 0.  1.
          1    1    3    3  501    0 -0.15372722515E+02 -0.11924276097E+02 -0.31640821727E+03  0.31700578688E+03  0.00000000000E+00 0.  1.
         -1    1    1    2    0  502  0.25248392949E+02  0.20181863610E+02 -0.37790476631E+03  0.37928459152E+03  0.00000000000E+00 0. -1.
<mgrwt>
<rscale>  1 0.30000000E+03</rscale>
<asrwt>0</asrwt>
<pdfrwt beam="1">  1       21 0.40897002E-02 0.30000000E+03</pdfrwt>
<pdfrwt beam="2">0</pdfrwt>
<totfact> 0.40505059E+04</totfact>
</mgrwt>
</event>
<event>
 6    1  0.1284012E-001  0.3000000E+03  0.7818608E-02  0.1093470E+00
         21   -1    0    0  501  502  0.00000000000E+00  0.00000000000E+00  0.11557237120E+01  0.11557237120E+01  0.00000000000E+00 0. -1.
         13   -1    0    0    0    0 -0.00000000000E+00 -0.00000000000E+00 -0.10000000000E+04  0.10000000000E+04  0.00000000000E+00 0.  1.
    9000005    2    1    2  501    0  0.13377929677E+02 -0.29439736520E+02 -0.35037637096E+03  0.35188205928E+03  0.34227510715E+01 0.  0.
         13    1    3    3    0    0  0.27419325618E+01 -0.49738381003E+01 -0.49303331701E+02  0.49629384203E+02  0.00000000000E+00 0.  1.
          3    1    3    3  501    0  0.10635997115E+02 -0.24465898420E+02 -0.30107303926E+03  0.30225267507E+03  0.00000000000E+00 0.  1.
         -3    1    1    2    0  502 -0.13377929677E+02  0.29439736520E+02 -0.64846790533E+03  0.64927366444E+03  0.00000000000E+00 0. -1.
<mgrwt>
<rscale>  1 0.30000000E+03</rscale>
<asrwt>0</asrwt>
<pdfrwt beam="1">  1       21 0.42026405E-02 0.30000000E+03</pdfrwt>
<pdfrwt beam="2">0</pdfrwt>
<totfact> 0.38685378E+04</totfact>
</mgrwt>
</event>
<event>
 6    1  0.1284012E-001  0.3000000E+03  0.7818608E-02  0.1093470E+00
         21   -1    0    0  501  502  0.00000000000E+00  0.00000000000E+00  0.50289464295E+01  0.50289464295E+01  0.00000000000E+00 0. -1.
         13   -1    0    0    0    0 -0.00000000000E+00 -0.00000000000E+00 -0.10000000000E+04  0.10000000000E+04  0.00000000000E+00 0.  1.
    9000005    2    1    2  501    0  0.38240443221E+02  0.31894070413E+02 -0.85516458137E+03  0.85661933457E+03  0.32649488561E+01 0.  0.
         13    1    3    3    0    0  0.13766714641E+02  0.99940215620E+01 -0.31000317044E+03  0.31046959365E+03  0.00000000000E+00 0.  1.
          1    1    3    3  501    0  0.24473728581E+02  0.21900048851E+02 -0.54516141094E+03  0.54614974092E+03  0.00000000000E+00 0.  1.
         -1    1    1    2    0  502 -0.38240443221E+02 -0.31894070413E+02 -0.13980647220E+03  0.14840961186E+03  0.00000000000E+00 0. -1.
<mgrwt>
<rscale>  1 0.30000000E+03</rscale>
<asrwt>0</asrwt>
<pdfrwt beam="1">  1       21 0.18287116E-01 0.30000000E+03</pdfrwt>
<pdfrwt beam="2">0</pdfrwt>
<totfact> 0.28434519E+03</totfact>
</mgrwt>
</event>
<event>
 6    1  0.1284012E-001  0.3000000E+03  0.7818608E-02  0.1093470E+00
         21   -1    0    0  501  502  0.00000000000E+00  0.00000000000E+00  0.16270386806E+01  0.16270386806E+01  0.00000000000E+00 0. -1.
         13   -1    0    0    0    0 -0.00000000000E+00 -0.00000000000E+00 -0.10000000000E+04  0.10000000000E+04  0.00000000000E+00 0.  1.
    9000005    2    1    2  501    0 -0.36303133842E+02  0.84660507468E+00 -0.71314884709E+03  0.71410064058E+03  0.63097150373E+01 0.  0.
         13    1    3    3    0    0 -0.19146584041E+02  0.33181601234E+01 -0.40192306018E+03  0.40239252997E+03  0.00000000000E+00 0.  1.
          1    1    3    3  501    0 -0.17156549801E+02 -0.24715550487E+01 -0.31122578691E+03  0.31170811061E+03  0.00000000000E+00 0.  1.
         -3    1    1    2    0  502  0.36303133842E+02 -0.84660507468E+00 -0.28522411423E+03  0.28752639810E+03  0.00000000000E+00 0. -1.
<mgrwt>
<rscale>  1 0.30000000E+03</rscale>
<asrwt>0</asrwt>
<pdfrwt beam="1">  1       21 0.59165168E-02 0.30000000E+03</pdfrwt>
<pdfrwt beam="2">0</pdfrwt>
<totfact> 0.21586922E+04</totfact>
</mgrwt>
</event>
<event>
 6    1  0.1284012E-001  0.3000000E+03  0.7818608E-02  0.1093470E+00
         21   -1    0    0  501  502  0.00000000000E+00  0.00000000000E+00  0.81540669893E+01  0.81540669893E+01  0.00000000000E+00 0. -1.
         13   -1    0    0    0    0 -0.00000000000E+00 -0.00000000000E+00 -0.10000000000E+04  0.10000000000E+04  0.00000000000E+00 0.  1.
    9000005    2    1    2  501    0 -0.95726369455E+01  0.36454513172E+02 -0.95392060803E+03  0.95468541090E+03  0.62562337445E+01 0.  0.
         13    1    3    3    0    0 -0.72962418615E+01  0.34139045732E+02 -0.88526012752E+03  0.88594819429E+03  0.00000000000E+00 0.  1.
          1    1    3    3  501    0 -0.22763950839E+01  0.23154674392E+01 -0.68660480505E+02  0.68737216609E+02  0.00000000000E+00 0.  1.
         -3    1    1    2    0  502  0.95726369455E+01 -0.36454513172E+02 -0.37925324982E+02  0.53468656086E+02  0.00000000000E+00 0. -1.
<mgrwt>
<rscale>  1 0.30000000E+03</rscale>
<asrwt>0</asrwt>
<pdfrwt beam="1">  1       21 0.29651215E-01 0.30000000E+03</pdfrwt>
<pdfrwt beam="2">0</pdfrwt>
<totfact> 0.11129933E+03</totfact>
</mgrwt>
</event>
<event>
 6    1  0.1284012E-001  0.3000000E+03  0.7818608E-02  0.1093470E+00
         21   -1    0    0  501  502  0.00000000000E+00  0.00000000000E+00  0.14953236078E+01  0.14953236078E+01  0.00000000000E+00 0. -1.
         13   -1    0    0    0    0 -0.00000000000E+00 -0.00000000000E+00 -0.10000000000E+04  0.10000000000E+04  0.00000000000E+00 0.  1.
    9000005    2    1    2  501    0 -0.22574784132E+02  0.30559282741E+02 -0.58695022232E+03  0.58819088459E+03  0.38029725153E+01 0.  0.
         13    1    3    3    0    0 -0.74859211715E+00  0.19744352244E+00 -0.97221595514E+01  0.97529359910E+01  0.00000000000E+00 0.  1.
          1    1    3    3  501    0 -0.21826192015E+02  0.30361839219E+02 -0.57722806277E+03  0.57843794860E+03  0.00000000000E+00 0.  1.
         -1    1    1    2    0  502  0.22574784132E+02 -0.30559282741E+02 -0.41155445407E+03  0.41330443901E+03  0.00000000000E+00 0. -1.
<mgrwt>
<rscale>  1 0.30000000E+03</rscale>
<asrwt>0</asrwt>
<pdfrwt beam="1">  1       21 0.54375519E-02 0.30000000E+03</pdfrwt>
<pdfrwt beam="2">0</pdfrwt>
<totfact> 0.24957876E+04</totfact>
</mgrwt>
</event>
<event>
 6    1  0.1284012E-001  0.3000000E+03  0.7818608E-02  0.1093470E+00
         21   -1    0    0  501  502  0.00000000000E+00  0.00000000000E+00  0.27148425554E+01  0.27148425554E+01  0.00000000000E+00 0. -1.
         13   -1    0    0    0    0 -0.00000000000E+00 -0.00000000000E+00 -0.10000000000E+04  0.10000000000E+04  0.00000000000E+00 0.  1.
    9000005    2    1    2  501    0  0.33583927219E+02 -0.96347106404E+01 -0.86995741402E+03  0.87068052103E+03  0.61611416407E+01 0.  0.
         13    1    3    3    0    0  0.40100426118E+01 -0.32382059312E+01 -0.14647996453E+03  0.14657061925E+03  0.00000000000E+00 0.  1.
          1    1    3    3  501    0  0.29573884607E+02 -0.63965047092E+01 -0.72347744949E+03  0.72410990177E+03  0.00000000000E+00 0.  1.
         -1    1    1    2    0  502 -0.33583927219E+02  0.96347106404E+01 -0.12732774342E+03  0.13203432153E+03  0.00000000000E+00 0. -1.
<mgrwt>
<rscale>  1 0.30000000E+03</rscale>
<asrwt>0</asrwt>
<pdfrwt beam="1">  1       21 0.98721756E-02 0.30000000E+03</pdfrwt>
<pdfrwt beam="2">0</pdfrwt>
<totfact> 0.88031769E+03</totfact>
</mgrwt>
</event>
<event>
 6    1  0.1284012E-001  0.3000000E+03  0.7818608E-02  0.1093470E+00
         21   -1    0    0  501  502  0.00000000000E+00  0.00000000000E+00  0.16231667285E+01  0.16231667285E+01  0.00000000000E+00 0. -1.
         13   -1    0    0    0    0 -0.00000000000E+00 -0.00000000000E+00 -0.10000000000E+04  0.10000000000E+04  0.00000000000E+00 0.  1.
    9000005    2    1    2  501    0 -0.35879570562E+02 -0.17911214371E+02 -0.53985752373E+03  0.54135355834E+03  0.30617013602E+01 0.  0.
         13    1    3    3    0    0 -0.39812786681E+01 -0.15751753829E+01 -0.70416899379E+02  0.70546945189E+02  0.00000000000E+00 0.  1.
          1    1    3    3  501    0 -0.31898291894E+02 -0.16336038988E+02 -0.46944062436E+03  0.47080661316E+03  0.00000000000E+00 0.  1.
         -3    1    1    2    0  502  0.35879570562E+02  0.17911214371E+02 -0.45851930954E+03  0.46026960838E+03  0.00000000000E+00 0. -1.
<mgrwt>
<rscale>  1 0.30000000E+03</rscale>
<asrwt>0</asrwt>
<pdfrwt beam="1">  1       21 0.59024369E-02 0.30000000E+03</pdfrwt>
<pdfrwt beam="2">0</pdfrwt>
<totfact> 0.21675756E+04</totfact>
</mgrwt>
</event>
<event>
 6    1  0.1284012E-001  0.3000000E+03  0.7818608E-02  0.1093470E+00
         21   -1    0    0  501  502  0.00000000000E+00  0.00000000000E+00  0.10155510108E+01  0.10155510108E+01  0.00000000000E+00 0. -1.
         13   -1    0    0    0    0 -0.00000000000E+00 -0.00000000000E+00 -0.10000000000E+04  0.10000000000E+04  0.00000000000E+00 0.  1.
    9000005    2    1    2  501    0 -0.13909469977E+02  0.26581957792E+02 -0.37147060590E+03  0.37278494279E+03  0.88390434532E+01 0.  0.
         13    1    3    3    0    0 -0.72337197960E+01  0.77359770119E+01 -0.16831406456E+03  0.16864695779E+03  0.00000000000E+00 0.  1.
          1    1    3    3  501    0 -0.66757501806E+01  0.18845980780E+02 -0.20315654134E+03  0.20413798501E+03  0.00000000000E+00 0.  1.
         -3    1    1    2    0  502  0.13909469977E+02 -0.26581957792E+02 -0.62751384309E+03  0.62823060822E+03  0.00000000000E+00 0. -1.
<mgrwt>
<rscale>  1 0.30000000E+03</rscale>
<asrwt>0</asrwt>
<pdfrwt beam="1">  1       21 0.36929206E-02 0.30000000E+03</pdfrwt>
<pdfrwt beam="2">0</pdfrwt>
<totfact> 0.48089773E+04</totfact>
</mgrwt>
</event>
<event>
 6    1  0.1284012E-001  0.3000000E+03  0.7818608E-02  0.1093470E+00
         21   -1    0    0  501  502  0.00000000000E+00  0.00000000000E+00  0.25042094803E+01  0.25042094803E+01  0.00000000000E+00 0. -1.
         13   -1    0    0    0    0 -0.00000000000E+00 -0.00000000000E+00 -0.10000000000E+04  0.10000000000E+04  0.00000000000E+00 0.  1.
    9000005    2    1    2  501    0 -0.48372165088E+02 -0.12572653025E+02 -0.49177840005E+03  0.49432312268E+03  0.33788902880E+01 0.  0.
         13    1    3    3    0    0 -0.42993411543E+01 -0.15068243011E+01 -0.54467699353E+02  0.54657891714E+02  0.00000000000E+00 0.  1.
          1    1    3    3  501    0 -0.44072823934E+02 -0.11065828724E+02 -0.43731070069E+03  0.43966523096E+03  0.00000000000E+00 0.  1.
         -1    1    1    2    0  502  0.48372165088E+02  0.12572653025E+02 -0.50571739047E+03  0.50818108680E+03  0.00000000000E+00 0. -1.
<mgrwt>
<rscale>  1 0.30000000E+03</rscale>
<asrwt>0</asrwt>
<pdfrwt beam="1">  1       21 0.91062355E-02 0.30000000E+03</pdfrwt>
<pdfrwt beam="2">0</pdfrwt>
<totfact> 0.10164441E+04</totfact>
</mgrwt>
</event>
<event>
 6    1  0.1284012E-001  0.3000000E+03  0.7818608E-02  0.1093470E+00
         21   -1    0    0  501  502  0.00000000000E+00  0.00000000000E+00  0.13510635645E+01  0.13510635645E+01  0.00000000000E+00 0. -1.
         13   -1    0    0    0    0 -0.00000000000E+00 -0.00000000000E+00 -0.10000000000E+04  0.10000000000E+04  0.00000000000E+00 0.  1.
    9000005    2    1    2  501    0 -0.24970958808E+02 -0.19829892637E+02 -0.74760913558E+03  0.74829424181E+03  0.28424090405E+01 0.  0.
         13    1    3    3    0    0 -0.11790805606E+02 -0.77379781884E+01 -0.34390468706E+03  0.34419374368E+03  0.00000000000E+00 0.  1.
          3    1    3    3  501    0 -0.13180153202E+02 -0.12091914449E+02 -0.40370444852E+03  0.40410049813E+03  0.00000000000E+00 0.  1.
         -1    1    1    2    0  502  0.24970958808E+02  0.19829892637E+02 -0.25103980085E+03  0.25305682176E+03  0.00000000000E+00 0. -1.
<mgrwt>
<rscale>  1 0.30000000E+03</rscale>
<asrwt>0</asrwt>
<pdfrwt beam="1">  1       21 0.49129688E-02 0.30000000E+03</pdfrwt>
<pdfrwt beam="2">0</pdfrwt>
<totfact> 0.29679558E+04</totfact>
</mgrwt>
</event>
<event>
 6    1  0.1284012E-001  0.3000000E+03  0.7818608E-02  0.1093470E+00
         21   -1    0    0  501  502  0.00000000000E+00  0.00000000000E+00  0.11434774104E+01  0.11434774104E+01  0.00000000000E+00 0. -1.
         13   -1    0    0    0    0 -0.00000000000E+00 -0.00000000000E+00 -0.10000000000E+04  0.10000000000E+04  0.00000000000E+00 0.  1.
    9000005    2    1    2  501    0 -0.31452255879E+02 -0.46992161026E+01 -0.34012967592E+03  0.34164943987E+03  0.49815949459E+01 0.  0.
         13    1    3    3    0    0 -0.66641446659E+00 -0.76535242198E+00 -0.64297367940E+01  0.65093308267E+01  0.00000000000E+00 0.  1.
          3    1    3    3  501    0 -0.30785841412E+02 -0.39338636806E+01 -0.33369993913E+03  0.33514010905E+03  0.00000000000E+00 0.  1.
         -3    1    1    2    0  502  0.31452255879E+02  0.46992161026E+01 -0.65872684666E+03  0.65949403754E+03  0.00000000000E+00 0. -1.
<mgrwt>
<rscale>  1 0.30000000E+03</rscale>
<asrwt>0</asrwt>
<pdfrwt beam="1">  1       21 0.41581084E-02 0.30000000E+03</pdfrwt>
<pdfrwt beam="2">0</pdfrwt>
<totfact> 0.39387370E+04</totfact>
</mgrwt>
</event>
<event>
 6    1  0.1284012E-001  0.3000000E+03  0.7818608E-02  0.1093470E+00
         21   -1    0    0  501  502  0.00000000000E+00  0.00000000000E+00  0.10025236844E+02  0.10025236844E+02  0.00000000000E+00 0. -1.
         13   -1    0    0    0    0 -0.00000000000E+00 -0.00000000000E+00 -0.10000000000E+04  0.10000000000E+04  0.00000000000E+00 0.  1.
    9000005    2    1    2  501    0 -0.67788512354E+02 -0.51411446041E+02 -0.76113059673E+03  0.76587759361E+03  0.32068551352E+01 0.  0.
         13    1    3    3    0    0 -0.50524413226E+02 -0.37987627957E+02 -0.57762391544E+03  0.58107242570E+03  0.00000000000E+00 0.  1.
          1    1    3    3  501    0 -0.17264099129E+02 -0.13423818084E+02 -0.18350668128E+03  0.18480516791E+03  0.00000000000E+00 0.  1.
         -1    1    1    2    0  502  0.67788512354E+02  0.51411446041E+02 -0.22884416643E+03  0.24414764324E+03  0.00000000000E+00 0. -1.
<mgrwt>
<rscale>  1 0.30000000E+03</rscale>
<asrwt>0</asrwt>
<pdfrwt beam="1">  1       21 0.36455484E-01 0.30000000E+03</pdfrwt>
<pdfrwt beam="2">0</pdfrwt>
<totfact> 0.73200355E+02</totfact>
</mgrwt>
</event>
<event>
 6    1  0.1284012E-001  0.3000000E+03  0.7818608E-02  0.1093470E+00
         21   -1    0    0  501  502  0.00000000000E+00  0.00000000000E+00  0.18140581252E+01  0.18140581252E+01  0.00000000000E+00 0. -1.
         13   -1    0    0    0    0 -0.00000000000E+00 -0.00000000000E+00 -0.10000000000E+04  0.10000000000E+04  0.00000000000E+00 0.  1.
    9000005    2    1    2  501    0  0.30355917329E+02  0.97097611090E+01 -0.83098110128E+03  0.83159884172E+03  0.33588222762E+01 0.  0.
         13    1    3    3    0    0  0.11113190474E+01  0.24226737952E+00 -0.17316430725E+02  0.17353745894E+02  0.00000000000E+00 0.  1.
          3    1    3    3  501    0  0.29244598282E+02  0.94674937294E+01 -0.81366467056E+03  0.81424509583E+03  0.00000000000E+00 0.  1.
         -3    1    1    2    0  502 -0.30355917329E+02 -0.97097611090E+01 -0.16720484059E+03  0.17021521641E+03  0.00000000000E+00 0. -1.
<mgrwt>
<rscale>  1 0.30000000E+03</rscale>
<asrwt>0</asrwt>
<pdfrwt beam="1">  1       21 0.65965889E-02 0.30000000E+03</pdfrwt>
<pdfrwt beam="2">0</pdfrwt>
<totfact> 0.17887136E+04</totfact>
</mgrwt>
</event>
<event>
 6    1  0.1284012E-001  0.3000000E+03  0.7818608E-02  0.1093470E+00
         21   -1    0    0  501  502  0.00000000000E+00  0.00000000000E+00  0.33022710582E+01  0.33022710582E+01  0.00000000000E+00 0. -1.
         13   -1    0    0    0    0 -0.00000000000E+00 -0.00000000000E+00 -0.10000000000E+04  0.10000000000E+04  0.00000000000E+00 0.  1.
    9000005    2    1    2  501    0 -0.32301203180E+02  0.13729986845E+02 -0.89545642542E+03  0.89614966118E+03  0.31820017516E+01 0.  0.
         13    1    3    3    0    0 -0.31966121206E+02  0.13594762683E+02 -0.89157876570E+03  0.89225520224E+03  0.00000000000E+00 0.  1.
          1    1    3    3  501    0 -0.33508197400E+00  0.13522416206E+00 -0.38776597208E+01  0.38944589372E+01  0.00000000000E+00 0.  1.
         -1    1    1    2    0  502  0.32301203180E+02 -0.13729986845E+02 -0.10124130352E+03  0.10715260988E+03  0.00000000000E+00 0. -1.
<mgrwt>
<rscale>  1 0.30000000E+03</rscale>
<asrwt>0</asrwt>
<pdfrwt beam="1">  1       21 0.12008284E-01 0.30000000E+03</pdfrwt>
<pdfrwt beam="2">0</pdfrwt>
<totfact> 0.61893630E+03</totfact>
</mgrwt>
</event>
<event>
 6    1  0.1284012E-001  0.3000000E+03  0.7818608E-02  0.1093470E+00
         21   -1    0    0  501  502  0.00000000000E+00  0.00000000000E+00  0.21730450417E+01  0.21730450417E+01  0.00000000000E+00 0. -1.
         13   -1    0    0    0    0 -0.00000000000E+00 -0.00000000000E+00 -0.10000000000E+04  0.10000000000E+04  0.00000000000E+00 0.  1.
    9000005    2    1    2  501    0 -0.37708617279E+02  0.42651263915E+01 -0.78938408607E+03  0.79030383843E+03  0.35763913694E+01 0.  0.
         13    1    3    3    0    0 -0.36690051609E+02  0.43897090909E+01 -0.75404912104E+03  0.75495397633E+03  0.00000000000E+00 0.  1.
          3    1    3    3  501    0 -0.10185656697E+01 -0.12458269931E+00 -0.35334965031E+02  0.35349862102E+02  0.00000000000E+00 0.  1.
         -1    1    1    2    0  502  0.37708617279E+02 -0.42651263915E+01 -0.20844286889E+03  0.21186920661E+03  0.00000000000E+00 0. -1.
<mgrwt>
<rscale>  1 0.30000000E+03</rscale>
<asrwt>0</asrwt>
<pdfrwt beam="1">  1       21 0.79019986E-02 0.30000000E+03</pdfrwt>
<pdfrwt beam="2">0</pdfrwt>
<totfact> 0.13053339E+04</totfact>
</mgrwt>
</event>
<event>
 6    1  0.1284012E-001  0.3000000E+03  0.7818608E-02  0.1093470E+00
         21   -1    0    0  501  502  0.00000000000E+00  0.00000000000E+00  0.25803141724E+01  0.25803141724E+01  0.00000000000E+00 0. -1.
         13   -1    0    0    0    0 -0.00000000000E+00 -0.00000000000E+00 -0.10000000000E+04  0.10000000000E+04  0.00000000000E+00 0.  1.
    9000005    2    1    2  501    0 -0.41437116144E+01 -0.31240438682E+02 -0.89171260060E+03  0.89227563058E+03  0.33620684022E+01 0.  0.
         13    1    3    3    0    0  0.39965851078E+00 -0.56731292686E+01 -0.14414030929E+03  0.14425246232E+03  0.00000000000E+00 0.  1.
          1    1    3    3  501    0 -0.45433701252E+01 -0.25567309414E+02 -0.74757229131E+03  0.74802316827E+03  0.00000000000E+00 0.  1.
         -3    1    1    2    0  502  0.41437116144E+01  0.31240438682E+02 -0.10570708523E+03  0.11030468359E+03  0.00000000000E+00 0. -1.
<mgrwt>
<rscale>  1 0.30000000E+03</rscale>
<asrwt>0</asrwt>
<pdfrwt beam="1">  1       21 0.93829804E-02 0.30000000E+03</pdfrwt>
<pdfrwt beam="2">0</pdfrwt>
<totfact> 0.96380472E+03</totfact>
</mgrwt>
</event>
<event>
 6    1  0.1284012E-001  0.3000000E+03  0.7818608E-02  0.1093470E+00
         21   -1    0    0  501  502  0.00000000000E+00  0.00000000000E+00  0.16749123663E+02  0.16749123663E+02  0.00000000000E+00 0. -1.
         13   -1    0    0    0    0 -0.00000000000E+00 -0.00000000000E+00 -0.10000000000E+04  0.10000000000E+04  0.00000000000E+00 0.  1.
    9000005    2    1    2  501    0  0.87890166521E+01  0.96850449515E+02 -0.82700767287E+03  0.83271327114E+03  0.35276844606E+01 0.  0.
         13    1    3    3    0    0  0.22158715915E+01  0.23336736739E+02 -0.21251712277E+03  0.21380608233E+03  0.00000000000E+00 0.  1.
          1    1    3    3  501    0  0.65731450606E+01  0.73513712777E+02 -0.61449055010E+03  0.61890718881E+03  0.00000000000E+00 0.  1.
         -1    1    1    2    0  502 -0.87890166521E+01 -0.96850449515E+02 -0.15624320347E+03  0.18403585252E+03  0.00000000000E+00 0. -1.
<mgrwt>
<rscale>  1 0.30000000E+03</rscale>
<asrwt>0</asrwt>
<pdfrwt beam="1">  1       21 0.60906033E-01 0.30000000E+03</pdfrwt>
<pdfrwt beam="2">0</pdfrwt>
<totfact> 0.24277893E+02</totfact>
</mgrwt>
</event>
<event>
 6    1  0.1284012E-001  0.3000000E+03  0.7818608E-02  0.1093470E+00
         21   -1    0    0  501  502  0.00000000000E+00  0.00000000000E+00  0.19029355494E+01  0.19029355494E+01  0.00000000000E+00 0. -1.
         13   -1    0    0    0    0 -0.00000000000E+00 -0.00000000000E+00 -0.10000000000E+04  0.10000000000E+04  0.00000000000E+00 0.  1.
    9000005    2    1    2  501    0  0.27484220715E+02 -0.30779478058E+02 -0.66003906473E+03  0.66133580585E+03  0.32745181914E+01 0.  0.
         13    1    3    3    0    0  0.27056744390E+02 -0.29449792387E+02 -0.63963762008E+03  0.64088660675E+03  0.00000000000E+00 0.  1.
          3    1    3    3  501    0  0.42747632531E+00 -0.13296856709E+01 -0.20401444646E+02  0.20449199096E+02  0.00000000000E+00 0.  1.
         -3    1    1    2    0  502 -0.27484220715E+02  0.30779478058E+02 -0.33805799972E+03  0.34056712970E+03  0.00000000000E+00 0. -1.
<mgrwt>
<rscale>  1 0.30000000E+03</rscale>
<asrwt>0</asrwt>
<pdfrwt beam="1">  1       21 0.69197802E-02 0.30000000E+03</pdfrwt>
<pdfrwt beam="2">0</pdfrwt>
<totfact> 0.16462066E+04</totfact>
</mgrwt>
</event>
<event>
 6    1  0.1284012E-001  0.3000000E+03  0.7818608E-02  0.1093470E+00
         21   -1    0    0  501  502  0.00000000000E+00  0.00000000000E+00  0.92600324126E+00  0.92600324126E+00  0.00000000000E+00 0. -1.
         13   -1    0    0    0    0 -0.00000000000E+00 -0.00000000000E+00 -0.10000000000E+04  0.10000000000E+04  0.00000000000E+00 0.  1.
    9000005    2    1    2  501    0 -0.29374836255E+02  0.64405572307E+01 -0.55978921386E+03  0.56061306649E+03  0.43225669483E+01 0.  0.
         13    1    3    3    0    0 -0.22153204624E+02  0.47313350880E+01 -0.38436523038E+03  0.38503218090E+03  0.00000000000E+00 0.  1.
          3    1    3    3  501    0 -0.72216316306E+01  0.17092221427E+01 -0.17542398349E+03  0.17558088560E+03  0.00000000000E+00 0.  1.
         -3    1    1    2    0  502  0.29374836255E+02 -0.64405572307E+01 -0.43928478290E+03  0.44031293675E+03  0.00000000000E+00 0. -1.
<mgrwt>
<rscale>  1 0.30000000E+03</rscale>
<asrwt>0</asrwt>
<pdfrwt beam="1">  1       21 0.33672916E-02 0.30000000E+03</pdfrwt>
<pdfrwt beam="2">0</pdfrwt>
<totfact> 0.56130189E+04</totfact>
</mgrwt>
</event>
<event>
 6    1  0.1284012E-001  0.3000000E+03  0.7818608E-02  0.1093470E+00
         21   -1    0    0  501  502  0.00000000000E+00  0.00000000000E+00  0.11110775459E+01  0.11110775459E+01  0.00000000000E+00 0. -1.
         13   -1    0    0    0    0 -0.00000000000E+00 -0.00000000000E+00 -0.10000000000E+04  0.10000000000E+04  0.00000000000E+00 0.  1.
    9000005    2    1    2  501    0  0.24494527536E+02 -0.21098817523E+02 -0.38396712105E+03  0.38534004557E+03  0.33254610861E+01 0.  0.
         13    1    3    3    0    0  0.19888857471E+02 -0.16968979364E+02 -0.29377834573E+03  0.29493936552E+03  0.00000000000E+00 0.  1.
          1    1    3    3  501    0  0.46056700656E+01 -0.41298381583E+01 -0.90188775314E+02  0.90400680045E+02  0.00000000000E+00 0.  1.
         -3    1    1    2    0  502 -0.24494527536E+02  0.21098817523E+02 -0.61492180141E+03  0.61577103198E+03  0.00000000000E+00 0. -1.
<mgrwt>
<rscale>  1 0.30000000E+03</rscale>
<asrwt>0</asrwt>
<pdfrwt beam="1">  1       21 0.40402905E-02 0.30000000E+03</pdfrwt>
<pdfrwt beam="2">0</pdfrwt>
<totfact> 0.41343435E+04</totfact>
</mgrwt>
</event>
<event>
 6    1  0.1284012E-001  0.3000000E+03  0.7818608E-02  0.1093470E+00
         21   -1    0    0  501  502  0.00000000000E+00  0.00000000000E+00  0.22820597618E+01  0.22820597618E+01  0.00000000000E+00 0. -1.
         13   -1    0    0    0    0 -0.00000000000E+00 -0.00000000000E+00 -0.10000000000E+04  0.10000000000E+04  0.00000000000E+00 0.  1.
    9000005    2    1    2  501    0  0.71729968461E+01 -0.29713847276E+02 -0.11516435079E+03  0.11919927607E+03  0.33578444229E+01 0.  0.
         13    1    3    3    0    0  0.77592870519E+00 -0.28321355108E+01 -0.15474874058E+02  0.15751024856E+02  0.00000000000E+00 0.  1.
          3    1    3    3  501    0  0.63970681409E+01 -0.26881711766E+02 -0.99689476732E+02  0.10344825121E+03  0.00000000000E+00 0.  1.
         -1    1    1    2    0  502 -0.71729968461E+01  0.29713847276E+02 -0.88255358945E+03  0.88308278369E+03  0.00000000000E+00 0. -1.
<mgrwt>
<rscale>  1 0.30000000E+03</rscale>
<asrwt>0</asrwt>
<pdfrwt beam="1">  1       21 0.82984166E-02 0.30000000E+03</pdfrwt>
<pdfrwt beam="2">0</pdfrwt>
<totfact> 0.11977187E+04</totfact>
</mgrwt>
</event>
<event>
 6    1  0.1284012E-001  0.3000000E+03  0.7818608E-02  0.1093470E+00
         21   -1    0    0  501  502  0.00000000000E+00  0.00000000000E+00  0.34147047062E+01  0.34147047062E+01  0.00000000000E+00 0. -1.
         13   -1    0    0    0    0 -0.00000000000E+00 -0.00000000000E+00 -0.10000000000E+04  0.10000000000E+04  0.00000000000E+00 0.  1.
    9000005    2    1    2  501    0  0.16340088074E+02  0.53827280212E+02 -0.63322356179E+03  0.63572444926E+03  0.30202004550E+01 0.  0.
         13    1    3    3    0    0  0.29113960554E+01  0.73538496859E+01 -0.98693718130E+02  0.99010127414E+02  0.00000000000E+00 0.  1.
          3    1    3    3  501    0  0.13428692019E+02  0.46473430526E+02 -0.53452984366E+03  0.53671432185E+03  0.00000000000E+00 0.  1.
         -3    1    1    2    0  502 -0.16340088074E+02 -0.53827280212E+02 -0.36336173351E+03  0.36769025545E+03  0.00000000000E+00 0. -1.
<mgrwt>
<rscale>  1 0.30000000E+03</rscale>
<asrwt>0</asrwt>
<pdfrwt beam="1">  1       21 0.12417134E-01 0.30000000E+03</pdfrwt>
<pdfrwt beam="2">0</pdfrwt>
<totfact> 0.58238073E+03</totfact>
</mgrwt>
</event>
<event>
 6    1  0.1284012E-001  0.3000000E+03  0.7818608E-02  0.1093470E+00
         21   -1    0    0  501  502  0.00000000000E+00  0.00000000000E+00  0.20006921527E+01  0.20006921527E+01  0.00000000000E+00 0. -1.
         13   -1    0    0    0    0 -0.00000000000E+00 -0.00000000000E+00 -0.10000000000E+04  0.10000000000E+04  0.00000000000E+00 0.  1.
    9000005    2    1    2  501    0  0.29841424542E+02  0.22368781170E+02 -0.77480677321E+03  0.77571374930E+03  0.39258177092E+01 0.  0.
         13    1    3    3    0    0  0.76082728811E+01  0.36941396903E+01 -0.16843823444E+03  0.16865044117E+03  0.00000000000E+00 0.  1.
          1    1    3    3  501    0  0.22233151660E+02  0.18674641480E+02 -0.60636853877E+03  0.60706330813E+03  0.00000000000E+00 0.  1.
         -3    1    1    2    0  502 -0.29841424542E+02 -0.22368781170E+02 -0.22319253464E+03  0.22628694286E+03  0.00000000000E+00 0. -1.
<mgrwt>
<rscale>  1 0.30000000E+03</rscale>
<asrwt>0</asrwt>
<pdfrwt beam="1">  1       21 0.72752595E-02 0.30000000E+03</pdfrwt>
<pdfrwt beam="2">0</pdfrwt>
<totfact> 0.15086114E+04</totfact>
</mgrwt>
</event>
<event>
 6    1  0.1284012E-001  0.3000000E+03  0.7818608E-02  0.1093470E+00
         21   -1    0    0  501  502  0.00000000000E+00  0.00000000000E+00  0.11674658119E+01  0.11674658119E+01  0.00000000000E+00 0. -1.
         13   -1    0    0    0    0 -0.00000000000E+00 -0.00000000000E+00 -0.10000000000E+04  0.10000000000E+04  0.00000000000E+00 0.  1.
    9000005    2    1    2  501    0 -0.21103175078E+02  0.22645340355E+02 -0.70952753772E+03  0.71021122096E+03  0.35349898475E+01 0.  0.
         13    1    3    3    0    0 -0.69941299624E+01  0.98539069135E+01 -0.29003484418E+03  0.29028645882E+03  0.00000000000E+00 0.  1.
          1    1    3    3  501    0 -0.14109045115E+02  0.12791433442E+02 -0.41949269354E+03  0.41992476214E+03  0.00000000000E+00 0.  1.
         -1    1    1    2    0  502  0.21103175078E+02 -0.22645340355E+02 -0.28930499646E+03  0.29095624485E+03  0.00000000000E+00 0. -1.
<mgrwt>
<rscale>  1 0.30000000E+03</rscale>
<asrwt>0</asrwt>
<pdfrwt beam="1">  1       21 0.42453392E-02 0.30000000E+03</pdfrwt>
<pdfrwt beam="2">0</pdfrwt>
<totfact> 0.38030395E+04</totfact>
</mgrwt>
</event>
<event>
 6    1  0.1284012E-001  0.3000000E+03  0.7818608E-02  0.1093470E+00
         21   -1    0    0  501  502  0.00000000000E+00  0.00000000000E+00  0.54962461178E+01  0.54962461178E+01  0.00000000000E+00 0. -1.
         13   -1    0    0    0    0 -0.00000000000E+00 -0.00000000000E+00 -0.10000000000E+04  0.10000000000E+04  0.00000000000E+00 0.  1.
    9000005    2    1    2  501    0  0.29307925742E+01 -0.71375091962E+02 -0.63112580388E+03  0.63516325023E+03  0.30952896768E+01 0.  0.
         13    1    3    3    0    0  0.17814456237E+01 -0.24982028934E+02 -0.21007549603E+03  0.21156320416E+03  0.00000000000E+00 0.  1.
          3    1    3    3  501    0  0.11493469505E+01 -0.46393063027E+02 -0.42105030784E+03  0.42360004607E+03  0.00000000000E+00 0.  1.
         -3    1    1    2    0  502 -0.29307925742E+01  0.71375091962E+02 -0.36337795000E+03  0.37033299589E+03  0.00000000000E+00 0. -1.
<mgrwt>
<rscale>  1 0.30000000E+03</rscale>
<asrwt>0</asrwt>
<pdfrwt beam="1">  1       21 0.19986392E-01 0.30000000E+03</pdfrwt>
<pdfrwt beam="2">0</pdfrwt>
<totfact> 0.24023415E+03</totfact>
</mgrwt>
</event>
<event>
 6    1  0.1284012E-001  0.3000000E+03  0.7818608E-02  0.1093470E+00
         21   -1    0    0  501  502  0.00000000000E+00  0.00000000000E+00  0.23857159933E+01  0.23857159933E+01  0.00000000000E+00 0. -1.
         13   -1    0    0    0    0 -0.00000000000E+00 -0.00000000000E+00 -0.10000000000E+04  0.10000000000E+04  0.00000000000E+00 0.  1.
    9000005    2    1    2  501    0 -0.22597301825E+02 -0.35453214049E+02 -0.75130723230E+03  0.75251628578E+03  0.71158005075E+01 0.  0.
         13    1    3    3    0    0 -0.92673584666E+01 -0.20781880968E+02 -0.42187865719E+03  0.42249186016E+03  0.00000000000E+00 0.  1.
          3    1    3    3  501    0 -0.13329943359E+02 -0.14671333081E+02 -0.32942857512E+03  0.33002442563E+03  0.00000000000E+00 0.  1.
         -3    1    1    2    0  502  0.22597301825E+02  0.35453214049E+02 -0.24630705170E+03  0.24986943021E+03  0.00000000000E+00 0. -1.
<mgrwt>
<rscale>  1 0.30000000E+03</rscale>
<asrwt>0</asrwt>
<pdfrwt beam="1">  1       21 0.86753492E-02 0.30000000E+03</pdfrwt>
<pdfrwt beam="2">0</pdfrwt>
<totfact> 0.11074903E+04</totfact>
</mgrwt>
</event>
<event>
 6    1  0.1284012E-001  0.3000000E+03  0.7818608E-02  0.1093470E+00
         21   -1    0    0  501  502  0.00000000000E+00  0.00000000000E+00  0.11638423253E+01  0.11638423253E+01  0.00000000000E+00 0. -1.
         13   -1    0    0    0    0 -0.00000000000E+00 -0.00000000000E+00 -0.10000000000E+04  0.10000000000E+04  0.00000000000E+00 0.  1.
    9000005    2    1    2  501    0  0.32111652530E+02  0.94022020997E+01 -0.40922610087E+03  0.41060514184E+03  0.33198253650E+01 0.  0.
         13    1    3    3    0    0  0.14786518710E+02  0.43879574185E+01 -0.20899131413E+03  0.20955969242E+03  0.00000000000E+00 0.  1.
          3    1    3    3  501    0  0.17325133820E+02  0.50142446812E+01 -0.20023478674E+03  0.20104544942E+03  0.00000000000E+00 0.  1.
         -1    1    1    2    0  502 -0.32111652530E+02 -0.94022020997E+01 -0.58961005680E+03  0.59055870048E+03  0.00000000000E+00 0. -1.
<mgrwt>
<rscale>  1 0.30000000E+03</rscale>
<asrwt>0</asrwt>
<pdfrwt beam="1">  1       21 0.42321628E-02 0.30000000E+03</pdfrwt>
<pdfrwt beam="2">0</pdfrwt>
<totfact> 0.38230666E+04</totfact>
</mgrwt>
</event>
<event>
 6    1  0.1284012E-001  0.3000000E+03  0.7818608E-02  0.1093470E+00
         21   -1    0    0  501  502  0.00000000000E+00  0.00000000000E+00  0.13753289825E+01  0.13753289825E+01  0.00000000000E+00 0. -1.
         13   -1    0    0    0    0 -0.00000000000E+00 -0.00000000000E+00 -0.10000000000E+04  0.10000000000E+04  0.00000000000E+00 0.  1.
    9000005    2    1    2  501    0 -0.33753874593E+02  0.10524734055E+01 -0.31206470639E+03  0.31398532558E+03  0.78722267542E+01 0.  0.
         13    1    3    3    0    0  0.31169309310E+00  0.37467895311E+00 -0.22208611535E+01  0.22737108799E+01  0.00000000000E+00 0.  1.
          1    1    3    3  501    0 -0.34065567686E+02  0.67779445241E+00 -0.30984384523E+03  0.31171161470E+03  0.00000000000E+00 0.  1.
         -3    1    1    2    0  502  0.33753874593E+02 -0.10524734055E+01 -0.68655996463E+03  0.68739000341E+03  0.00000000000E+00 0. -1.
<mgrwt>
<rscale>  1 0.30000000E+03</rscale>
<asrwt>0</asrwt>
<pdfrwt beam="1">  1       21 0.50012068E-02 0.30000000E+03</pdfrwt>
<pdfrwt beam="2">0</pdfrwt>
<totfact> 0.28792807E+04</totfact>
</mgrwt>
</event>
<event>
 6    1  0.1284012E-001  0.3000000E+03  0.7818608E-02  0.1093470E+00
         21   -1    0    0  501  502  0.00000000000E+00  0.00000000000E+00  0.60735802092E+01  0.60735802092E+01  0.00000000000E+00 0. -1.
         13   -1    0    0    0    0 -0.00000000000E+00 -0.00000000000E+00 -0.10000000000E+04  0.10000000000E+04  0.00000000000E+00 0.  1.
    9000005    2    1    2  501    0 -0.12701784279E+01  0.64054054074E+02 -0.78320609571E+03  0.78582919282E+03  0.33461517324E+01 0.  0.
         13    1    3    3    0    0 -0.98972044170E+00  0.38149296158E+02 -0.48622681831E+03  0.48772212087E+03  0.00000000000E+00 0.  1.
          1    1    3    3  501    0 -0.28045798622E+00  0.25904757916E+02 -0.29697927740E+03  0.29810707195E+03  0.00000000000E+00 0.  1.
         -3    1    1    2    0  502  0.12701784279E+01 -0.64054054074E+02 -0.21072032408E+03  0.22024438739E+03  0.00000000000E+00 0. -1.
<mgrwt>
<rscale>  1 0.30000000E+03</rscale>
<asrwt>0</asrwt>
<pdfrwt beam="1">  1       21 0.22085793E-01 0.30000000E+03</pdfrwt>
<pdfrwt beam="2">0</pdfrwt>
<totfact> 0.19836692E+03</totfact>
</mgrwt>
</event>
<event>
 6    1  0.1284012E-001  0.3000000E+03  0.7818608E-02  0.1093470E+00
         21   -1    0    0  501  502  0.00000000000E+00  0.00000000000E+00  0.20731974819E+01  0.20731974819E+01  0.00000000000E+00 0. -1.
         13   -1    0    0    0    0 -0.00000000000E+00 -0.00000000000E+00 -0.10000000000E+04  0.10000000000E+04  0.00000000000E+00 0.  1.
    9000005    2    1    2  501    0  0.21002441008E+02 -0.39210128409E+02 -0.60371689097E+03  0.60536172669E+03  0.31935866915E+01 0.  0.
         13    1    3    3    0    0  0.66866964438E+01 -0.98810149532E+01 -0.15231219644E+03  0.15277876669E+03  0.00000000000E+00 0.  1.
          1    1    3    3  501    0  0.14315744564E+02 -0.29329113455E+02 -0.45140469453E+03  0.45258296000E+03  0.00000000000E+00 0.  1.
         -3    1    1    2    0  502 -0.21002441008E+02  0.39210128409E+02 -0.39420991155E+03  0.39671147079E+03  0.00000000000E+00 0. -1.
<mgrwt>
<rscale>  1 0.30000000E+03</rscale>
<asrwt>0</asrwt>
<pdfrwt beam="1">  1       21 0.75389158E-02 0.30000000E+03</pdfrwt>
<pdfrwt beam="2">0</pdfrwt>
<totfact> 0.14175416E+04</totfact>
</mgrwt>
</event>
<event>
 6    1  0.1284012E-001  0.3000000E+03  0.7818608E-02  0.1093470E+00
         21   -1    0    0  501  502  0.00000000000E+00  0.00000000000E+00  0.28187465083E+01  0.28187465083E+01  0.00000000000E+00 0. -1.
         13   -1    0    0    0    0 -0.00000000000E+00 -0.00000000000E+00 -0.10000000000E+04  0.10000000000E+04  0.00000000000E+00 0.  1.
    9000005    2    1    2  501    0 -0.41838015305E+02  0.28947326388E+02 -0.63927226299E+03  0.64131188252E+03  0.48515153800E+01 0.  0.
         13    1    3    3    0    0 -0.30830985512E+01  0.23509542656E+01 -0.34933121233E+02  0.35147623557E+02  0.00000000000E+00 0.  1.
          3    1    3    3  501    0 -0.38754916754E+02  0.26596372123E+02 -0.60433914176E+03  0.60616425896E+03  0.00000000000E+00 0.  1.
         -3    1    1    2    0  502  0.41838015305E+02 -0.28947326388E+02 -0.35790899050E+03  0.36150686399E+03  0.00000000000E+00 0. -1.
<mgrwt>
<rscale>  1 0.30000000E+03</rscale>
<asrwt>0</asrwt>
<pdfrwt beam="1">  1       21 0.10250009E-01 0.30000000E+03</pdfrwt>
<pdfrwt beam="2">0</pdfrwt>
<totfact> 0.82315739E+03</totfact>
</mgrwt>
</event>
<event>
 6    1  0.1284012E-001  0.3000000E+03  0.7818608E-02  0.1093470E+00
         21   -1    0    0  501  502  0.00000000000E+00  0.00000000000E+00  0.99221904399E+00  0.99221904399E+00  0.00000000000E+00 0. -1.
         13   -1    0    0    0    0 -0.00000000000E+00 -0.00000000000E+00 -0.10000000000E+04  0.10000000000E+04  0.00000000000E+00 0.  1.
    9000005    2    1    2  501    0  0.28171820186E+02 -0.13340148864E+02 -0.56251151516E+03  0.56338440252E+03  0.33420498128E+01 0.  0.
         13    1    3    3    0    0  0.96442800614E+01 -0.44637051996E+01 -0.16435064967E+03  0.16469387617E+03  0.00000000000E+00 0.  1.
          3    1    3    3  501    0  0.18527540125E+02 -0.88764436645E+01 -0.39816086549E+03  0.39869052635E+03  0.00000000000E+00 0.  1.
         -1    1    1    2    0  502 -0.28171820186E+02  0.13340148864E+02 -0.43649626580E+03  0.43760781652E+03  0.00000000000E+00 0. -1.
<mgrwt>
<rscale>  1 0.30000000E+03</rscale>
<asrwt>0</asrwt>
<pdfrwt beam="1">  1       21 0.36080769E-02 0.30000000E+03</pdfrwt>
<pdfrwt beam="2">0</pdfrwt>
<totfact> 0.50002036E+04</totfact>
</mgrwt>
</event>
<event>
 6    1  0.1284012E-001  0.3000000E+03  0.7818608E-02  0.1093470E+00
         21   -1    0    0  501  502  0.00000000000E+00  0.00000000000E+00  0.24154376850E+01  0.24154376850E+01  0.00000000000E+00 0. -1.
         13   -1    0    0    0    0 -0.00000000000E+00 -0.00000000000E+00 -0.10000000000E+04  0.10000000000E+04  0.00000000000E+00 0.  1.
    9000005    2    1    2  501    0 -0.13898062390E+02  0.33397703707E+02 -0.83782224963E+03  0.83860896863E+03  0.32120918072E+01 0.  0.
         13    1    3    3    0    0 -0.62821670608E+01  0.12436135826E+02 -0.34988235812E+03  0.35015966018E+03  0.00000000000E+00 0.  1.
          1    1    3    3  501    0 -0.76158953291E+01  0.20961567881E+02 -0.48793989151E+03  0.48844930844E+03  0.00000000000E+00 0.  1.
         -3    1    1    2    0  502  0.13898062390E+02 -0.33397703707E+02 -0.15976231268E+03  0.16380646906E+03  0.00000000000E+00 0. -1.
<mgrwt>
<rscale>  1 0.30000000E+03</rscale>
<asrwt>0</asrwt>
<pdfrwt beam="1">  1       21 0.87834283E-02 0.30000000E+03</pdfrwt>
<pdfrwt beam="2">0</pdfrwt>
<totfact> 0.10835242E+04</totfact>
</mgrwt>
</event>
<event>
 6    1  0.1284012E-001  0.3000000E+03  0.7818608E-02  0.1093470E+00
         21   -1    0    0  501  502  0.00000000000E+00  0.00000000000E+00  0.52715561413E+01  0.52715561413E+01  0.00000000000E+00 0. -1.
         13   -1    0    0    0    0 -0.00000000000E+00 -0.00000000000E+00 -0.10000000000E+04  0.10000000000E+04  0.00000000000E+00 0.  1.
    9000005    2    1    2  501    0  0.23879453810E+01  0.71253998422E+02 -0.59148485091E+03  0.59577402278E+03  0.30859018456E+01 0.  0.
         13    1    3    3    0    0 -0.63277694576E+00  0.14618669265E+02 -0.11685049605E+03  0.11776308558E+03  0.00000000000E+00 0.  1.
          3    1    3    3  501    0  0.30207223268E+01  0.56635329156E+02 -0.47463435486E+03  0.47801093720E+03  0.00000000000E+00 0.  1.
         -3    1    1    2    0  502 -0.23879453810E+01 -0.71253998422E+02 -0.40324359295E+03  0.40949753336E+03  0.00000000000E+00 0. -1.
<mgrwt>
<rscale>  1 0.30000000E+03</rscale>
<asrwt>0</asrwt>
<pdfrwt beam="1">  1       21 0.19169335E-01 0.30000000E+03</pdfrwt>
<pdfrwt beam="2">0</pdfrwt>
<totfact> 0.26009513E+03</totfact>
</mgrwt>
</event>
<event>
 6    1  0.1284012E-001  0.3000000E+03  0.7818608E-02  0.1093470E+00
         21   -1    0    0  501  502  0.00000000000E+00  0.00000000000E+00  0.67902448885E+01  0.67902448885E+01  0.00000000000E+00 0. -1.
         13   -1    0    0    0    0 -0.00000000000E+00 -0.00000000000E+00 -0.10000000000E+04  0.10000000000E+04  0.00000000000E+00 0.  1.
    9000005    2    1    2  501    0  0.38793427336E+02  0.42402498662E+02 -0.85725890171E+03  0.85919100222E+03  0.36676734170E+01 0.  0.
         13    1    3    3    0    0  0.15688390547E+02  0.19808741441E+02 -0.37179150819E+03  0.37264921495E+03  0.00000000000E+00 0.  1.
          3    1    3    3  501    0  0.23105036789E+02  0.22593757221E+02 -0.48546739352E+03  0.48654178727E+03  0.00000000000E+00 0.  1.
         -3    1    1    2    0  502 -0.38793427336E+02 -0.42402498662E+02 -0.13595085340E+03  0.14759924267E+03  0.00000000000E+00 0. -1.
<mgrwt>
<rscale>  1 0.30000000E+03</rscale>
<asrwt>0</asrwt>
<pdfrwt beam="1">  1       21 0.24691852E-01 0.30000000E+03</pdfrwt>
<pdfrwt beam="2">0</pdfrwt>
<totfact> 0.15978831E+03</totfact>
</mgrwt>
</event>
<event>
 6    1  0.1284012E-001  0.3000000E+03  0.7818608E-02  0.1093470E+00
         21   -1    0    0  501  502  0.00000000000E+00  0.00000000000E+00  0.15871089749E+01  0.15871089749E+01  0.00000000000E+00 0. -1.
         13   -1    0    0    0    0 -0.00000000000E+00 -0.00000000000E+00 -0.10000000000E+04  0.10000000000E+04  0.00000000000E+00 0.  1.
    9000005    2    1    2  501    0  0.29500066672E+02 -0.21192956579E+02 -0.70309010500E+03  0.70403888887E+03  0.39580234450E+01 0.  0.
         13    1    3    3    0    0  0.19570296855E+02 -0.13918852138E+02 -0.49956777650E+03  0.50014467335E+03  0.00000000000E+00 0.  1.
          1    1    3    3  501    0  0.99297698166E+01 -0.72741044404E+01 -0.20352232850E+03  0.20389421551E+03  0.00000000000E+00 0.  1.
         -3    1    1    2    0  502 -0.29500066672E+02  0.21192956579E+02 -0.29532278603E+03  0.29754822011E+03  0.00000000000E+00 0. -1.
<mgrwt>
<rscale>  1 0.30000000E+03</rscale>
<asrwt>0</asrwt>
<pdfrwt beam="1">  1       21 0.57713175E-02 0.30000000E+03</pdfrwt>
<pdfrwt beam="2">0</pdfrwt>
<totfact> 0.22531072E+04</totfact>
</mgrwt>
</event>
<event>
 6    1  0.1284012E-001  0.3000000E+03  0.7818608E-02  0.1093470E+00
         21   -1    0    0  501  502  0.00000000000E+00  0.00000000000E+00  0.13237182849E+01  0.13237182849E+01  0.00000000000E+00 0. -1.
         13   -1    0    0    0    0 -0.00000000000E+00 -0.00000000000E+00 -0.10000000000E+04  0.10000000000E+04  0.00000000000E+00 0.  1.
    9000005    2    1    2  501    0  0.22655994555E+02  0.21849284022E+02 -0.74900088362E+03  0.74967219392E+03  0.39229288378E+01 0.  0.
         13    1    3    3    0    0  0.14720706598E+02  0.16350033595E+02 -0.54183043421E+03  0.54227690550E+03  0.00000000000E+00 0.  1.
          3    1    3    3  501    0  0.79352879573E+01  0.54992504272E+01 -0.20717044941E+03  0.20739528842E+03  0.00000000000E+00 0.  1.
         -1    1    1    2    0  502 -0.22655994555E+02 -0.21849284022E+02 -0.24967539810E+03  0.25165152437E+03  0.00000000000E+00 0. -1.
<mgrwt>
<rscale>  1 0.30000000E+03</rscale>
<asrwt>0</asrwt>
<pdfrwt beam="1">  1       21 0.48135312E-02 0.30000000E+03</pdfrwt>
<pdfrwt beam="2">0</pdfrwt>
<totfact> 0.30730977E+04</totfact>
</mgrwt>
</event>
<event>
 6    1  0.1284012E-001  0.3000000E+03  0.7818608E-02  0.1093470E+00
         21   -1    0    0  501  502  0.00000000000E+00  0.00000000000E+00  0.17266214546E+01  0.17266214546E+01  0.00000000000E+00 0. -1.
         13   -1    0    0    0    0 -0.00000000000E+00 -0.00000000000E+00 -0.10000000000E+04  0.10000000000E+04  0.00000000000E+00 0.  1.
    9000005    2    1    2  501    0  0.38637371894E+02  0.11056207398E+02 -0.62387518222E+03  0.62517769284E+03  0.34377908838E+01 0.  0.
         13    1    3    3    0    0  0.37505835798E+02  0.10419492588E+02 -0.59382490906E+03  0.59509938344E+03  0.00000000000E+00 0.  1.
          3    1    3    3  501    0  0.11315360968E+01  0.63671480925E+00 -0.30050273160E+02  0.30078309405E+02  0.00000000000E+00 0.  1.
         -3    1    1    2    0  502 -0.38637371894E+02 -0.11056207398E+02 -0.37439819633E+03  0.37654892861E+03  0.00000000000E+00 0. -1.
<mgrwt>
<rscale>  1 0.30000000E+03</rscale>
<asrwt>0</asrwt>
<pdfrwt beam="1">  1       21 0.62786367E-02 0.30000000E+03</pdfrwt>
<pdfrwt beam="2">0</pdfrwt>
<totfact> 0.19483455E+04</totfact>
</mgrwt>
</event>
<event>
 6    1  0.1284012E-001  0.3000000E+03  0.7818608E-02  0.1093470E+00
         21   -1    0    0  501  502  0.00000000000E+00  0.00000000000E+00  0.14440719343E+01  0.14440719343E+01  0.00000000000E+00 0. -1.
         13   -1    0    0    0    0 -0.00000000000E+00 -0.00000000000E+00 -0.10000000000E+04  0.10000000000E+04  0.00000000000E+00 0.  1.
    9000005    2    1    2  501    0  0.34666343347E+02 -0.11597478337E+02 -0.63326898962E+03  0.63433263890E+03  0.34679526731E+01 0.  0.
         13    1    3    3    0    0  0.16140707515E+01 -0.89797129089E+00 -0.22100814345E+02  0.22177862195E+02  0.00000000000E+00 0.  1.
          1    1    3    3  501    0  0.33052272596E+02 -0.10699507046E+02 -0.61116817527E+03  0.61215477671E+03  0.00000000000E+00 0.  1.
         -3    1    1    2    0  502 -0.34666343347E+02  0.11597478337E+02 -0.36528693845E+03  0.36711143303E+03  0.00000000000E+00 0. -1.
<mgrwt>
<rscale>  1 0.30000000E+03</rscale>
<asrwt>0</asrwt>
<pdfrwt beam="1">  1       21 0.52511817E-02 0.30000000E+03</pdfrwt>
<pdfrwt beam="2">0</pdfrwt>
<totfact> 0.26492738E+04</totfact>
</mgrwt>
</event>
<event>
 6    1  0.1284012E-001  0.3000000E+03  0.7818608E-02  0.1093470E+00
         21   -1    0    0  501  502  0.00000000000E+00  0.00000000000E+00  0.17305233690E+01  0.17305233690E+01  0.00000000000E+00 0. -1.
         13   -1    0    0    0    0 -0.00000000000E+00 -0.00000000000E+00 -0.10000000000E+04  0.10000000000E+04  0.00000000000E+00 0.  1.
    9000005    2    1    2  501    0 -0.69114928909E+00 -0.32781897484E+02 -0.80668349750E+03  0.80735892593E+03  0.38780995365E+01 0.  0.
         13    1    3    3    0    0  0.13743728704E+01 -0.13394998742E+02 -0.30672768724E+03  0.30702310827E+03  0.00000000000E+00 0.  1.
          1    1    3    3  501    0 -0.20655221595E+01 -0.19386898741E+02 -0.49995581026E+03  0.50033581766E+03  0.00000000000E+00 0.  1.
         -3    1    1    2    0  502  0.69114928909E+00  0.32781897484E+02 -0.19158597913E+03  0.19437159743E+03  0.00000000000E+00 0. -1.
<mgrwt>
<rscale>  1 0.30000000E+03</rscale>
<asrwt>0</asrwt>
<pdfrwt beam="1">  1       21 0.62928255E-02 0.30000000E+03</pdfrwt>
<pdfrwt beam="2">0</pdfrwt>
<totfact> 0.19407595E+04</totfact>
</mgrwt>
</event>
<event>
 6    1  0.1284012E-001  0.3000000E+03  0.7818608E-02  0.1093470E+00
         21   -1    0    0  501  502  0.00000000000E+00  0.00000000000E+00  0.34065014499E+01  0.34065014499E+01  0.00000000000E+00 0. -1.
         13   -1    0    0    0    0 -0.00000000000E+00 -0.00000000000E+00 -0.10000000000E+04  0.10000000000E+04  0.00000000000E+00 0.  1.
    9000005    2    1    2  501    0 -0.32262190801E+02 -0.12259122490E+02 -0.90280554897E+03  0.90346994895E+03  0.29923839955E+01 0.  0.
         13    1    3    3    0    0 -0.17452516552E+02 -0.50353367078E+01 -0.47547753798E+03  0.47582437314E+03  0.00000000000E+00 0.  1.
          1    1    3    3  501    0 -0.14809674249E+02 -0.72237857824E+01 -0.42732801099E+03  0.42764557581E+03  0.00000000000E+00 0.  1.
         -1    1    1    2    0  502  0.32262190801E+02  0.12259122490E+02 -0.93787949579E+02  0.99936552501E+02  0.00000000000E+00 0. -1.
<mgrwt>
<rscale>  1 0.30000000E+03</rscale>
<asrwt>0</asrwt>
<pdfrwt beam="1">  1       21 0.12387304E-01 0.30000000E+03</pdfrwt>
<pdfrwt beam="2">0</pdfrwt>
<totfact> 0.58493641E+03</totfact>
</mgrwt>
</event>
<event>
 6    1  0.1284012E-001  0.3000000E+03  0.7818608E-02  0.1093470E+00
         21   -1    0    0  501  502  0.00000000000E+00  0.00000000000E+00  0.24253058622E+01  0.24253058622E+01  0.00000000000E+00 0. -1.
         13   -1    0    0    0    0 -0.00000000000E+00 -0.00000000000E+00 -0.10000000000E+04  0.10000000000E+04  0.00000000000E+00 0.  1.
    9000005    2    1    2  501    0 -0.16449581790E+02 -0.28032355915E+02 -0.87497365837E+03  0.87558912927E+03  0.45846209716E+01 0.  0.
         13    1    3    3    0    0 -0.71232508658E+01 -0.15840893619E+02 -0.49934009932E+03  0.49964208130E+03  0.00000000000E+00 0.  1.
          1    1    3    3  501    0 -0.93263309237E+01 -0.12191462296E+02 -0.37563355905E+03  0.37594704798E+03  0.00000000000E+00 0.  1.
         -1    1    1    2    0  502  0.16449581790E+02  0.28032355915E+02 -0.12260103577E+03  0.12683617659E+03  0.00000000000E+00 0. -1.
<mgrwt>
<rscale>  1 0.30000000E+03</rscale>
<asrwt>0</asrwt>
<pdfrwt beam="1">  1       21 0.88193126E-02 0.30000000E+03</pdfrwt>
<pdfrwt beam="2">0</pdfrwt>
<totfact> 0.10757409E+04</totfact>
</mgrwt>
</event>
<event>
 6    1  0.1284012E-001  0.3000000E+03  0.7818608E-02  0.1093470E+00
         21   -1    0    0  501  502  0.00000000000E+00  0.00000000000E+00  0.29711684962E+01  0.29711684962E+01  0.00000000000E+00 0. -1.
         13   -1    0    0    0    0 -0.00000000000E+00 -0.00000000000E+00 -0.10000000000E+04  0.10000000000E+04  0.00000000000E+00 0.  1.
    9000005    2    1    2  501    0 -0.44127451493E+02  0.17245668972E+02 -0.25181668232E+03  0.25625449373E+03  0.31747427820E+01 0.  0.
         13    1    3    3    0    0 -0.26048541701E+02  0.11126151380E+02 -0.15729610560E+03  0.15982610114E+03  0.00000000000E+00 0.  1.
          1    1    3    3  501    0 -0.18078909792E+02  0.61195175924E+01 -0.94520576715E+02  0.96428392589E+02  0.00000000000E+00 0.  1.
         -1    1    1    2    0  502  0.44127451493E+02 -0.17245668972E+02 -0.74521214919E+03  0.74671667476E+03  0.00000000000E+00 0. -1.
<mgrwt>
<rscale>  1 0.30000000E+03</rscale>
<asrwt>0</asrwt>
<pdfrwt beam="1">  1       21 0.10804272E-01 0.30000000E+03</pdfrwt>
<pdfrwt beam="2">0</pdfrwt>
<totfact> 0.74899130E+03</totfact>
</mgrwt>
</event>
<event>
 6    1  0.1284012E-001  0.3000000E+03  0.7818608E-02  0.1093470E+00
         21   -1    0    0  501  502  0.00000000000E+00  0.00000000000E+00  0.20277823416E+01  0.20277823416E+01  0.00000000000E+00 0. -1.
         13   -1    0    0    0    0 -0.00000000000E+00 -0.00000000000E+00 -0.10000000000E+04  0.10000000000E+04  0.00000000000E+00 0.  1.
    9000005    2    1    2  501    0  0.42677194828E+02 -0.43680673800E+01 -0.64257899246E+03  0.64405464440E+03  0.76289220117E+01 0.  0.
         13    1    3    3    0    0  0.18306791443E+02  0.18045202013E+01 -0.25836582937E+03  0.25901987702E+03  0.00000000000E+00 0.  1.
          1    1    3    3  501    0  0.24370403385E+02 -0.61725875813E+01 -0.38421316309E+03  0.38503476738E+03  0.00000000000E+00 0.  1.
         -1    1    1    2    0  502 -0.42677194828E+02  0.43680673800E+01 -0.35539322520E+03  0.35797313794E+03  0.00000000000E+00 0. -1.
<mgrwt>
<rscale>  1 0.30000000E+03</rscale>
<asrwt>0</asrwt>
<pdfrwt beam="1">  1       21 0.73737695E-02 0.30000000E+03</pdfrwt>
<pdfrwt beam="2">0</pdfrwt>
<totfact> 0.14735711E+04</totfact>
</mgrwt>
</event>
<event>
 6    1  0.1284012E-001  0.3000000E+03  0.7818608E-02  0.1093470E+00
         21   -1    0    0  501  502  0.00000000000E+00  0.00000000000E+00  0.13484297889E+01  0.13484297889E+01  0.00000000000E+00 0. -1.
         13   -1    0    0    0    0 -0.00000000000E+00 -0.00000000000E+00 -0.10000000000E+04  0.10000000000E+04  0.00000000000E+00 0.  1.
    9000005    2    1    2  501    0  0.19642917762E+02 -0.27809786930E+02 -0.68545104828E+03  0.68630272611E+03  0.30106168038E+01 0.  0.
         13    1    3    3    0    0  0.65090002971E+01 -0.11762215739E+02 -0.27064022463E+03  0.27097388803E+03  0.00000000000E+00 0.  1.
          3    1    3    3  501    0  0.13133917465E+02 -0.16047571191E+02 -0.41481082365E+03  0.41532883808E+03  0.00000000000E+00 0.  1.
         -1    1    1    2    0  502 -0.19642917762E+02  0.27809786930E+02 -0.31320052193E+03  0.31504570368E+03  0.00000000000E+00 0. -1.
<mgrwt>
<rscale>  1 0.30000000E+03</rscale>
<asrwt>0</asrwt>
<pdfrwt beam="1">  1       21 0.49033914E-02 0.30000000E+03</pdfrwt>
<pdfrwt beam="2">0</pdfrwt>
<totfact> 0.29778363E+04</totfact>
</mgrwt>
</event>
<event>
 6    1  0.1284012E-001  0.3000000E+03  0.7818608E-02  0.1093470E+00
         21   -1    0    0  501  502  0.00000000000E+00  0.00000000000E+00  0.25912105275E+01  0.25912105275E+01  0.00000000000E+00 0. -1.
         13   -1    0    0    0    0 -0.00000000000E+00 -0.00000000000E+00 -0.10000000000E+04  0.10000000000E+04  0.00000000000E+00 0.  1.
    9000005    2    1    2  501    0  0.41544771843E+01  0.34567270739E+02 -0.86396398248E+03  0.86467938217E+03  0.49512669340E+01 0.  0.
         13    1    3    3    0    0  0.20864402749E+00  0.11012948648E+02 -0.32478457377E+03  0.32497130324E+03  0.00000000000E+00 0.  1.
          3    1    3    3  501    0  0.39458331568E+01  0.23554322091E+02 -0.53917940870E+03  0.53970807893E+03  0.00000000000E+00 0.  1.
         -3    1    1    2    0  502 -0.41544771843E+01 -0.34567270739E+02 -0.13344480700E+03  0.13791182836E+03  0.00000000000E+00 0. -1.
<mgrwt>
<rscale>  1 0.30000000E+03</rscale>
<asrwt>0</asrwt>
<pdfrwt beam="1">  1       21 0.94226036E-02 0.30000000E+03</pdfrwt>
<pdfrwt beam="2">0</pdfrwt>
<totfact> 0.95660494E+03</totfact>
</mgrwt>
</event>
<event>
 6    1  0.1284012E-001  0.3000000E+03  0.7818608E-02  0.1093470E+00
         21   -1    0    0  501  502  0.00000000000E+00  0.00000000000E+00  0.10470933874E+01  0.10470933874E+01  0.00000000000E+00 0. -1.
         13   -1    0    0    0    0 -0.00000000000E+00 -0.00000000000E+00 -0.10000000000E+04  0.10000000000E+04  0.00000000000E+00 0.  1.
    9000005    2    1    2  501    0  0.17041029973E+02 -0.27240713829E+02 -0.45419198873E+03  0.45533937780E+03  0.33366393437E+01 0.  0.
         13    1    3    3    0    0  0.16604350648E+02 -0.24984143597E+02 -0.42432179395E+03  0.42538088428E+03  0.00000000000E+00 0.  1.
          1    1    3    3  501    0  0.43667932460E+00 -0.22565702311E+01 -0.29870194778E+02  0.29958493522E+02  0.00000000000E+00 0.  1.
         -3    1    1    2    0  502 -0.17041029973E+02  0.27240713829E+02 -0.54476091789E+03  0.54570771558E+03  0.00000000000E+00 0. -1.
<mgrwt>
<rscale>  1 0.30000000E+03</rscale>
<asrwt>0</asrwt>
<pdfrwt beam="1">  1       21 0.38076203E-02 0.30000000E+03</pdfrwt>
<pdfrwt beam="2">0</pdfrwt>
<totfact> 0.45682054E+04</totfact>
</mgrwt>
</event>
<event>
 6    1  0.1284012E-001  0.3000000E+03  0.7818608E-02  0.1093470E+00
         21   -1    0    0  501  502  0.00000000000E+00  0.00000000000E+00  0.14228175029E+01  0.14228175029E+01  0.00000000000E+00 0. -1.
         13   -1    0    0    0    0 -0.00000000000E+00 -0.00000000000E+00 -0.10000000000E+04  0.10000000000E+04  0.00000000000E+00 0.  1.
    9000005    2    1    2  501    0  0.30167274378E+02 -0.99521929447E+01 -0.23227796717E+03  0.23446545363E+03  0.34473650078E+01 0.  0.
         13    1    3    3    0    0  0.26240869107E+02 -0.89720992479E+01 -0.19356348417E+03  0.19554003217E+03  0.00000000000E+00 0.  1.
          1    1    3    3  501    0  0.39264052710E+01 -0.98009369686E+00 -0.38714482992E+02  0.38925421454E+02  0.00000000000E+00 0.  1.
         -3    1    1    2    0  502 -0.30167274378E+02  0.99521929447E+01 -0.76629921533E+03  0.76695736388E+03  0.00000000000E+00 0. -1.
<mgrwt>
<rscale>  1 0.30000000E+03</rscale>
<asrwt>0</asrwt>
<pdfrwt beam="1">  1       21 0.51738927E-02 0.30000000E+03</pdfrwt>
<pdfrwt beam="2">0</pdfrwt>
<totfact> 0.27172490E+04</totfact>
</mgrwt>
</event>
<event>
 6    1  0.1284012E-001  0.3000000E+03  0.7818608E-02  0.1093470E+00
         21   -1    0    0  501  502  0.00000000000E+00  0.00000000000E+00  0.28286959180E+01  0.28286959180E+01  0.00000000000E+00 0. -1.
         13   -1    0    0    0    0 -0.00000000000E+00 -0.00000000000E+00 -0.10000000000E+04  0.10000000000E+04  0.00000000000E+00 0.  1.
    9000005    2    1    2  501    0  0.41543789483E+02  0.51204126788E+01 -0.80711585542E+03  0.80821837082E+03  0.53689646769E+01 0.  0.
         13    1    3    3    0    0  0.24740332422E+02  0.38479151244E+01 -0.52935790535E+03  0.52994969805E+03  0.00000000000E+00 0.  1.
          3    1    3    3  501    0  0.16803457061E+02  0.12724975544E+01 -0.27775795007E+03  0.27826867277E+03  0.00000000000E+00 0.  1.
         -1    1    1    2    0  502 -0.41543789483E+02 -0.51204126788E+01 -0.19005544866E+03  0.19461032510E+03  0.00000000000E+00 0. -1.
<mgrwt>
<rscale>  1 0.30000000E+03</rscale>
<asrwt>0</asrwt>
<pdfrwt beam="1">  1       21 0.10286189E-01 0.30000000E+03</pdfrwt>
<pdfrwt beam="2">0</pdfrwt>
<totfact> 0.81798257E+03</totfact>
</mgrwt>
</event>
<event>
 6    1  0.1284012E-001  0.3000000E+03  0.7818608E-02  0.1093470E+00
         21   -1    0    0  501  502  0.00000000000E+00  0.00000000000E+00  0.28188895854E+01  0.28188895854E+01  0.00000000000E+00 0. -1.
         13   -1    0    0    0    0 -0.00000000000E+00 -0.00000000000E+00 -0.10000000000E+04  0.10000000000E+04  0.00000000000E+00 0.  1.
    9000005    2    1    2  501    0  0.27742055700E+02  0.15125133606E+02 -0.90141354818E+03  0.90197337755E+03  0.33462887514E+01 0.  0.
         13    1    3    3    0    0  0.96718800213E+01  0.47384482685E+01 -0.26553040920E+03  0.26574874669E+03  0.00000000000E+00 0.  1.
          3    1    3    3  501    0  0.18070175678E+02  0.10386685337E+02 -0.63588313897E+03  0.63622463086E+03  0.00000000000E+00 0.  1.
         -3    1    1    2    0  502 -0.27742055700E+02 -0.15125133606E+02 -0.95767562239E+02  0.10084551204E+03  0.00000000000E+00 0. -1.
<mgrwt>
<rscale>  1 0.30000000E+03</rscale>
<asrwt>0</asrwt>
<pdfrwt beam="1">  1       21 0.10250529E-01 0.30000000E+03</pdfrwt>
<pdfrwt beam="2">0</pdfrwt>
<totfact> 0.82308262E+03</totfact>
</mgrwt>
</event>
<event>
 6    1  0.1284012E-001  0.3000000E+03  0.7818608E-02  0.1093470E+00
         21   -1    0    0  501  502  0.00000000000E+00  0.00000000000E+00  0.19644920567E+01  0.19644920567E+01  0.00000000000E+00 0. -1.
         13   -1    0    0    0    0 -0.00000000000E+00 -0.00000000000E+00 -0.10000000000E+04  0.10000000000E+04  0.00000000000E+00 0.  1.
    9000005    2    1    2  501    0 -0.33949429628E+01  0.36672150753E+02 -0.77703683883E+03  0.77791810394E+03  0.37356738533E+01 0.  0.
         13    1    3    3    0    0 -0.30142281421E+01  0.16488878656E+02 -0.37626880526E+03  0.37664198187E+03  0.00000000000E+00 0.  1.
          3    1    3    3  501    0 -0.38071482067E+00  0.20183272097E+02 -0.40076803357E+03  0.40127612208E+03  0.00000000000E+00 0.  1.
         -1    1    1    2    0  502  0.33949429628E+01 -0.36672150753E+02 -0.22099866911E+03  0.22404638811E+03  0.00000000000E+00 0. -1.
<mgrwt>
<rscale>  1 0.30000000E+03</rscale>
<asrwt>0</asrwt>
<pdfrwt beam="1">  1       21 0.71436225E-02 0.30000000E+03</pdfrwt>
<pdfrwt beam="2">0</pdfrwt>
<totfact> 0.15574467E+04</totfact>
</mgrwt>
</event>
<event>
 6    1  0.1284012E-001  0.3000000E+03  0.7818608E-02  0.1093470E+00
         21   -1    0    0  501  502  0.00000000000E+00  0.00000000000E+00  0.12238978048E+01  0.12238978048E+01  0.00000000000E+00 0. -1.
         13   -1    0    0    0    0 -0.00000000000E+00 -0.00000000000E+00 -0.10000000000E+04  0.10000000000E+04  0.00000000000E+00 0.  1.
    9000005    2    1    2  501    0  0.12748149477E+02 -0.31831080991E+02 -0.59215846131E+03  0.59316307034E+03  0.38796497473E+01 0.  0.
         13    1    3    3    0    0  0.40876812365E+01 -0.15312869646E+02 -0.27833131913E+03  0.27878220230E+03  0.00000000000E+00 0.  1.
          1    1    3    3  501    0  0.86604682408E+01 -0.16518211345E+02 -0.31382714218E+03  0.31438086804E+03  0.00000000000E+00 0.  1.
         -3    1    1    2    0  502 -0.12748149477E+02  0.31831080991E+02 -0.40661764088E+03  0.40806082746E+03  0.00000000000E+00 0. -1.
<mgrwt>
<rscale>  1 0.30000000E+03</rscale>
<asrwt>0</asrwt>
<pdfrwt beam="1">  1       21 0.44505469E-02 0.30000000E+03</pdfrwt>
<pdfrwt beam="2">0</pdfrwt>
<totfact> 0.35110139E+04</totfact>
</mgrwt>
</event>
<event>
 6    1  0.1284012E-001  0.3000000E+03  0.7818608E-02  0.1093470E+00
         21   -1    0    0  501  502  0.00000000000E+00  0.00000000000E+00  0.79132711314E+01  0.79132711314E+01  0.00000000000E+00 0. -1.
         13   -1    0    0    0    0 -0.00000000000E+00 -0.00000000000E+00 -0.10000000000E+04  0.10000000000E+04  0.00000000000E+00 0.  1.
    9000005    2    1    2  501    0  0.29337127922E+02  0.14737971548E+02 -0.96439957416E+03  0.96496617093E+03  0.39112032946E+01 0.  0.
         13    1    3    3    0    0  0.26975387308E+02  0.13239606528E+02 -0.84580118249E+03  0.84633480313E+03  0.00000000000E+00 0.  1.
          3    1    3    3  501    0  0.23617406138E+01  0.14983650198E+01 -0.11859839168E+03  0.11863136780E+03  0.00000000000E+00 0.  1.
         -1    1    1    2    0  502 -0.29337127922E+02 -0.14737971548E+02 -0.27687154704E+02  0.42947100201E+02  0.00000000000E+00 0. -1.
<mgrwt>
<rscale>  1 0.30000000E+03</rscale>
<asrwt>0</asrwt>
<pdfrwt beam="1">  1       21 0.28775592E-01 0.30000000E+03</pdfrwt>
<pdfrwt beam="2">0</pdfrwt>
<totfact> 0.11815161E+03</totfact>
</mgrwt>
</event>
<event>
 6    1  0.1284012E-001  0.3000000E+03  0.7818608E-02  0.1093470E+00
         21   -1    0    0  501  502  0.00000000000E+00  0.00000000000E+00  0.21661598126E+01  0.21661598126E+01  0.00000000000E+00 0. -1.
         13   -1    0    0    0    0 -0.00000000000E+00 -0.00000000000E+00 -0.10000000000E+04  0.10000000000E+04  0.00000000000E+00 0.  1.
    9000005    2    1    2  501    0 -0.34578913094E+02  0.25271725636E+02 -0.69340270035E+03  0.69473701310E+03  0.42250641884E+01 0.  0.
         13    1    3    3    0    0 -0.19352201617E+02  0.13440657309E+02 -0.34834449384E+03  0.34914043789E+03  0.00000000000E+00 0.  1.
          3    1    3    3  501    0 -0.15226711476E+02  0.11831068327E+02 -0.34505820651E+03  0.34559657522E+03  0.00000000000E+00 0.  1.
         -1    1    1    2    0  502  0.34578913094E+02 -0.25271725636E+02 -0.30443113983E+03  0.30742914671E+03  0.00000000000E+00 0. -1.
<mgrwt>
<rscale>  1 0.30000000E+03</rscale>
<asrwt>0</asrwt>
<pdfrwt beam="1">  1       21 0.78769614E-02 0.30000000E+03</pdfrwt>
<pdfrwt beam="2">0</pdfrwt>
<totfact> 0.13126247E+04</totfact>
</mgrwt>
</event>
<event>
 6    1  0.1284012E-001  0.3000000E+03  0.7818608E-02  0.1093470E+00
         21   -1    0    0  501  502  0.00000000000E+00  0.00000000000E+00  0.61599562146E+01  0.61599562146E+01  0.00000000000E+00 0. -1.
         13   -1    0    0    0    0 -0.00000000000E+00 -0.00000000000E+00 -0.10000000000E+04  0.10000000000E+04  0.00000000000E+00 0.  1.
    9000005    2    1    2  501    0 -0.15054589465E+02 -0.72578582248E+02 -0.66171086020E+03  0.66585996231E+03  0.37330457351E+01 0.  0.
         13    1    3    3    0    0 -0.45624869915E+00 -0.33719129895E+01 -0.24350901668E+02  0.24587484055E+02  0.00000000000E+00 0.  1.
          3    1    3    3  501    0 -0.14598340766E+02 -0.69206669259E+02 -0.63735995853E+03  0.64127247825E+03  0.00000000000E+00 0.  1.
         -1    1    1    2    0  502  0.15054589465E+02  0.72578582248E+02 -0.33212918358E+03  0.34029999391E+03  0.00000000000E+00 0. -1.
<mgrwt>
<rscale>  1 0.30000000E+03</rscale>
<asrwt>0</asrwt>
<pdfrwt beam="1">  1       21 0.22399888E-01 0.30000000E+03</pdfrwt>
<pdfrwt beam="2">0</pdfrwt>
<totfact> 0.19304012E+03</totfact>
</mgrwt>
</event>
<event>
 6    1  0.1284012E-001  0.3000000E+03  0.7818608E-02  0.1093470E+00
         21   -1    0    0  501  502  0.00000000000E+00  0.00000000000E+00  0.11695020121E+01  0.11695020121E+01  0.00000000000E+00 0. -1.
         13   -1    0    0    0    0 -0.00000000000E+00 -0.00000000000E+00 -0.10000000000E+04  0.10000000000E+04  0.00000000000E+00 0.  1.
    9000005    2    1    2  501    0 -0.63228102100E+01  0.32820235934E+02 -0.60179088278E+03  0.60272552620E+03  0.29406668276E+01 0.  0.
         13    1    3    3    0    0 -0.31184233057E+00  0.82940351635E+01 -0.15077419300E+03  0.15100246865E+03  0.00000000000E+00 0.  1.
          1    1    3    3  501    0 -0.60109678794E+01  0.24526200771E+02 -0.45101668978E+03  0.45172305755E+03  0.00000000000E+00 0.  1.
         -3    1    1    2    0  502  0.63228102100E+01 -0.32820235934E+02 -0.39703961521E+03  0.39844397581E+03  0.00000000000E+00 0. -1.
<mgrwt>
<rscale>  1 0.30000000E+03</rscale>
<asrwt>0</asrwt>
<pdfrwt beam="1">  1       21 0.42527436E-02 0.30000000E+03</pdfrwt>
<pdfrwt beam="2">0</pdfrwt>
<totfact> 0.37918569E+04</totfact>
</mgrwt>
</event>
<event>
 6    1  0.1284012E-001  0.3000000E+03  0.7818608E-02  0.1093470E+00
         21   -1    0    0  501  502  0.00000000000E+00  0.00000000000E+00  0.13861853157E+01  0.13861853157E+01  0.00000000000E+00 0. -1.
         13   -1    0    0    0    0 -0.00000000000E+00 -0.00000000000E+00 -0.10000000000E+04  0.10000000000E+04  0.00000000000E+00 0.  1.
    9000005    2    1    2  501    0 -0.13005867267E+01 -0.35131221405E+02 -0.66245585569E+03  0.66339496111E+03  0.30363544217E+01 0.  0.
         13    1    3    3    0    0 -0.18354878287E+01 -0.32486981413E+02 -0.60156848219E+03  0.60244784981E+03  0.00000000000E+00 0.  1.
          1    1    3    3  501    0  0.53490110198E+00 -0.26442399915E+01 -0.60887373505E+02  0.60947111307E+02  0.00000000000E+00 0.  1.
         -1    1    1    2    0  502  0.13005867267E+01  0.35131221405E+02 -0.33615795899E+03  0.33799122420E+03  0.00000000000E+00 0. -1.
<mgrwt>
<rscale>  1 0.30000000E+03</rscale>
<asrwt>0</asrwt>
<pdfrwt beam="1">  1       21 0.50406845E-02 0.30000000E+03</pdfrwt>
<pdfrwt beam="2">0</pdfrwt>
<totfact> 0.28409375E+04</totfact>
</mgrwt>
</event>
<event>
 6    1  0.1284012E-001  0.3000000E+03  0.7818608E-02  0.1093470E+00
         21   -1    0    0  501  502  0.00000000000E+00  0.00000000000E+00  0.19430140822E+01  0.19430140822E+01  0.00000000000E+00 0. -1.
         13   -1    0    0    0    0 -0.00000000000E+00 -0.00000000000E+00 -0.10000000000E+04  0.10000000000E+04  0.00000000000E+00 0.  1.
    9000005    2    1    2  501    0  0.13976691288E+02 -0.38811027757E+02 -0.66966869327E+03  0.67097396036E+03  0.69464348856E+01 0.  0.
         13    1    3    3    0    0  0.95134365637E+01 -0.24864757437E+02 -0.48212816179E+03  0.48286263681E+03  0.00000000000E+00 0.  1.
          1    1    3    3  501    0  0.44632547241E+01 -0.13946270320E+02 -0.18754053148E+03  0.18811132355E+03  0.00000000000E+00 0.  1.
         -1    1    1    2    0  502 -0.13976691288E+02  0.38811027757E+02 -0.32838829264E+03  0.33096905372E+03  0.00000000000E+00 0. -1.
<mgrwt>
<rscale>  1 0.30000000E+03</rscale>
<asrwt>0</asrwt>
<pdfrwt beam="1">  1       21 0.70655207E-02 0.30000000E+03</pdfrwt>
<pdfrwt beam="2">0</pdfrwt>
<totfact> 0.15875682E+04</totfact>
</mgrwt>
</event>
<event>
 6    1  0.1284012E-001  0.3000000E+03  0.7818608E-02  0.1093470E+00
         21   -1    0    0  501  502  0.00000000000E+00  0.00000000000E+00  0.18709313074E+01  0.18709313074E+01  0.00000000000E+00 0. -1.
         13   -1    0    0    0    0 -0.00000000000E+00 -0.00000000000E+00 -0.10000000000E+04  0.10000000000E+04  0.00000000000E+00 0.  1.
    9000005    2    1    2  501    0 -0.31920389783E+02  0.69934068245E+01 -0.82692166006E+03  0.82757292273E+03  0.31131235908E+01 0.  0.
         13    1    3    3    0    0 -0.42314004148E+01  0.51547705938E+00 -0.85627467118E+02  0.85733503317E+02  0.00000000000E+00 0.  1.
          1    1    3    3  501    0 -0.27688989368E+02  0.64779297651E+01 -0.74129419294E+03  0.74183941942E+03  0.00000000000E+00 0.  1.
         -1    1    1    2    0  502  0.31920389783E+02 -0.69934068245E+01 -0.17120740863E+03  0.17429800857E+03  0.00000000000E+00 0. -1.
<mgrwt>
<rscale>  1 0.30000000E+03</rscale>
<asrwt>0</asrwt>
<pdfrwt beam="1">  1       21 0.68034009E-02 0.30000000E+03</pdfrwt>
<pdfrwt beam="2">0</pdfrwt>
<totfact> 0.16954468E+04</totfact>
</mgrwt>
</event>
<event>
 6    1  0.1284012E-001  0.3000000E+03  0.7818608E-02  0.1093470E+00
         21   -1    0    0  501  502  0.00000000000E+00  0.00000000000E+00  0.17750484173E+01  0.17750484173E+01  0.00000000000E+00 0. -1.
         13   -1    0    0    0    0 -0.00000000000E+00 -0.00000000000E+00 -0.10000000000E+04  0.10000000000E+04  0.00000000000E+00 0.  1.
    9000005    2    1    2  501    0  0.24518369902E+02 -0.20793981626E+02 -0.82202739110E+03  0.82266859835E+03  0.45881219762E+01 0.  0.
         13    1    3    3    0    0  0.45947178694E+01 -0.53507498906E+01 -0.22179781763E+03  0.22190992285E+03  0.00000000000E+00 0.  1.
          3    1    3    3  501    0  0.19923652033E+02 -0.15443231735E+02 -0.60022957347E+03  0.60075867550E+03  0.00000000000E+00 0.  1.
         -1    1    1    2    0  502 -0.24518369902E+02  0.20793981626E+02 -0.17619756048E+03  0.17910645006E+03  0.00000000000E+00 0. -1.
<mgrwt>
<rscale>  1 0.30000000E+03</rscale>
<asrwt>0</asrwt>
<pdfrwt beam="1">  1       21 0.64547351E-02 0.30000000E+03</pdfrwt>
<pdfrwt beam="2">0</pdfrwt>
<totfact> 0.18573371E+04</totfact>
</mgrwt>
</event>
<event>
 6    1  0.1284012E-001  0.3000000E+03  0.7818608E-02  0.1093470E+00
         21   -1    0    0  501  502  0.00000000000E+00  0.00000000000E+00  0.10693505653E+01  0.10693505653E+01  0.00000000000E+00 0. -1.
         13   -1    0    0    0    0 -0.00000000000E+00 -0.00000000000E+00 -0.10000000000E+04  0.10000000000E+04  0.00000000000E+00 0.  1.
    9000005    2    1    2  501    0  0.88007708867E+01  0.31380301366E+02 -0.49772407058E+03  0.49880426959E+03  0.37778356599E+01 0.  0.
         13    1    3    3    0    0  0.44752209430E+01  0.17359294134E+02 -0.30137490586E+03  0.30190761265E+03  0.00000000000E+00 0.  1.
          3    1    3    3  501    0  0.43255499437E+01  0.14021007232E+02 -0.19634916472E+03  0.19689665694E+03  0.00000000000E+00 0.  1.
         -3    1    1    2    0  502 -0.88007708867E+01 -0.31380301366E+02 -0.50120657885E+03  0.50226508098E+03  0.00000000000E+00 0. -1.
<mgrwt>
<rscale>  1 0.30000000E+03</rscale>
<asrwt>0</asrwt>
<pdfrwt beam="1">  1       21 0.38885557E-02 0.30000000E+03</pdfrwt>
<pdfrwt beam="2">0</pdfrwt>
<totfact> 0.44095076E+04</totfact>
</mgrwt>
</event>
<event>
 6    1  0.1284012E-001  0.3000000E+03  0.7818608E-02  0.1093470E+00
         21   -1    0    0  501  502  0.00000000000E+00  0.00000000000E+00  0.25139077913E+01  0.25139077913E+01  0.00000000000E+00 0. -1.
         13   -1    0    0    0    0 -0.00000000000E+00 -0.00000000000E+00 -0.10000000000E+04  0.10000000000E+04  0.00000000000E+00 0.  1.
    9000005    2    1    2  501    0  0.25923123607E+02  0.41450057422E+02 -0.58974238422E+03  0.59184975425E+03  0.99968127333E+01 0.  0.
         13    1    3    3    0    0  0.37925824136E+01  0.41394134651E+01 -0.39064917563E+02  0.39466266727E+02  0.00000000000E+00 0.  1.
          1    1    3    3  501    0  0.22130541193E+02  0.37310643957E+02 -0.55067746666E+03  0.55238348753E+03  0.00000000000E+00 0.  1.
         -1    1    1    2    0  502 -0.25923123607E+02 -0.41450057422E+02 -0.40774370799E+03  0.41066415354E+03  0.00000000000E+00 0. -1.
<mgrwt>
<rscale>  1 0.30000000E+03</rscale>
<asrwt>0</asrwt>
<pdfrwt beam="1">  1       21 0.91415022E-02 0.30000000E+03</pdfrwt>
<pdfrwt beam="2">0</pdfrwt>
<totfact> 0.10094983E+04</totfact>
</mgrwt>
</event>
<event>
 6    1  0.1284012E-001  0.3000000E+03  0.7818608E-02  0.1093470E+00
         21   -1    0    0  501  502  0.00000000000E+00  0.00000000000E+00  0.28316466174E+01  0.28316466174E+01  0.00000000000E+00 0. -1.
         13   -1    0    0    0    0 -0.00000000000E+00 -0.00000000000E+00 -0.10000000000E+04  0.10000000000E+04  0.00000000000E+00 0.  1.
    9000005    2    1    2  501    0 -0.31475543392E+02  0.29523512759E+01 -0.90182207495E+03  0.90238096708E+03  0.29880861996E+01 0.  0.
         13    1    3    3    0    0 -0.58114071964E+00  0.46996811298E+00 -0.25559747089E+02  0.25570671986E+02  0.00000000000E+00 0.  1.
          3    1    3    3  501    0 -0.30894402672E+02  0.24823831629E+01 -0.87626232787E+03  0.87681029509E+03  0.00000000000E+00 0.  1.
         -3    1    1    2    0  502  0.31475543392E+02 -0.29523512759E+01 -0.95346278428E+02  0.10045067954E+03  0.00000000000E+00 0. -1.
<mgrwt>
<rscale>  1 0.30000000E+03</rscale>
<asrwt>0</asrwt>
<pdfrwt beam="1">  1       21 0.10296919E-01 0.30000000E+03</pdfrwt>
<pdfrwt beam="2">0</pdfrwt>
<totfact> 0.81645739E+03</totfact>
</mgrwt>
</event>
<event>
 6    1  0.1284012E-001  0.3000000E+03  0.7818608E-02  0.1093470E+00
         21   -1    0    0  501  502  0.00000000000E+00  0.00000000000E+00  0.22434205378E+01  0.22434205378E+01  0.00000000000E+00 0. -1.
         13   -1    0    0    0    0 -0.00000000000E+00 -0.00000000000E+00 -0.10000000000E+04  0.10000000000E+04  0.00000000000E+00 0.  1.
    9000005    2    1    2  501    0 -0.35309738927E+02  0.31290455795E+02 -0.48008042419E+03  0.48242184343E+03  0.52679259054E+01 0.  0.
         13    1    3    3    0    0 -0.22004495614E+02  0.19787189679E+02 -0.27456233563E+03  0.27615250651E+03  0.00000000000E+00 0.  1.
          3    1    3    3  501    0 -0.13305243313E+02  0.11503266115E+02 -0.20551808856E+03  0.20626933693E+03  0.00000000000E+00 0.  1.
         -1    1    1    2    0  502  0.35309738927E+02 -0.31290455795E+02 -0.51767615527E+03  0.51982157710E+03  0.00000000000E+00 0. -1.
<mgrwt>
<rscale>  1 0.30000000E+03</rscale>
<asrwt>0</asrwt>
<pdfrwt beam="1">  1       21 0.81579101E-02 0.30000000E+03</pdfrwt>
<pdfrwt beam="2">0</pdfrwt>
<totfact> 0.12342509E+04</totfact>
</mgrwt>
</event>
<event>
 6    1  0.1284012E-001  0.3000000E+03  0.7818608E-02  0.1093470E+00
         21   -1    0    0  501  502  0.00000000000E+00  0.00000000000E+00  0.15644424598E+01  0.15644424598E+01  0.00000000000E+00 0. -1.
         13   -1    0    0    0    0 -0.00000000000E+00 -0.00000000000E+00 -0.10000000000E+04  0.10000000000E+04  0.00000000000E+00 0.  1.
    9000005    2    1    2  501    0 -0.16633643363E+02  0.35655749198E+02 -0.45758099697E+03  0.45928069179E+03  0.32209513929E+01 0.  0.
         13    1    3    3    0    0 -0.31015161674E+01  0.72942102396E+01 -0.10775287887E+03  0.10804400868E+03  0.00000000000E+00 0.  1.
          1    1    3    3  501    0 -0.13532127196E+02  0.28361538959E+02 -0.34982811809E+03  0.35123668312E+03  0.00000000000E+00 0.  1.
         -1    1    1    2    0  502  0.16633643363E+02 -0.35655749198E+02 -0.54085456057E+03  0.54228375067E+03  0.00000000000E+00 0. -1.
<mgrwt>
<rscale>  1 0.30000000E+03</rscale>
<asrwt>0</asrwt>
<pdfrwt beam="1">  1       21 0.56888937E-02 0.30000000E+03</pdfrwt>
<pdfrwt beam="2">0</pdfrwt>
<totfact> 0.23095581E+04</totfact>
</mgrwt>
</event>
<event>
 6    1  0.1284012E-001  0.3000000E+03  0.7818608E-02  0.1093470E+00
         21   -1    0    0  501  502  0.00000000000E+00  0.00000000000E+00  0.94886893986E+00  0.94886893986E+00  0.00000000000E+00 0. -1.
         13   -1    0    0    0    0 -0.00000000000E+00 -0.00000000000E+00 -0.10000000000E+04  0.10000000000E+04  0.00000000000E+00 0.  1.
    9000005    2    1    2  501    0  0.21936035717E+02  0.21497148476E+02 -0.49109185254E+03  0.49206190144E+03  0.32233775544E+01 0.  0.
         13    1    3    3    0    0  0.15731083530E+02  0.13323379931E+02 -0.33200370430E+03  0.33264311072E+03  0.00000000000E+00 0.  1.
          3    1    3    3  501    0  0.62049521875E+01  0.81737685451E+01 -0.15908814824E+03  0.15941879072E+03  0.00000000000E+00 0.  1.
         -3    1    1    2    0  502 -0.21936035717E+02 -0.21497148476E+02 -0.50795927852E+03  0.50888696750E+03  0.00000000000E+00 0. -1.
<mgrwt>
<rscale>  1 0.30000000E+03</rscale>
<asrwt>0</asrwt>
<pdfrwt beam="1">  1       21 0.34504398E-02 0.30000000E+03</pdfrwt>
<pdfrwt beam="2">0</pdfrwt>
<totfact> 0.53887764E+04</totfact>
</mgrwt>
</event>
<event>
 6    1  0.1284012E-001  0.3000000E+03  0.7818608E-02  0.1093470E+00
         21   -1    0    0  501  502  0.00000000000E+00  0.00000000000E+00  0.24009719256E+01  0.24009719256E+01  0.00000000000E+00 0. -1.
         13   -1    0    0    0    0 -0.00000000000E+00 -0.00000000000E+00 -0.10000000000E+04  0.10000000000E+04  0.00000000000E+00 0.  1.
    9000005    2    1    2  501    0 -0.71292106313E+01 -0.32828645777E+02 -0.86356818661E+03  0.86422422970E+03  0.22272521697E+01 0.  0.
         13    1    3    3    0    0 -0.37373480448E+01 -0.12172545801E+02 -0.33057208599E+03  0.33081723456E+03  0.00000000000E+00 0.  1.
          1    1    3    3  501    0 -0.33918625865E+01 -0.20656099976E+02 -0.53299610061E+03  0.53340699514E+03  0.00000000000E+00 0.  1.
         -3    1    1    2    0  502  0.71292106313E+01  0.32828645777E+02 -0.13403084147E+03  0.13817674223E+03  0.00000000000E+00 0. -1.
<mgrwt>
<rscale>  1 0.30000000E+03</rscale>
<asrwt>0</asrwt>
<pdfrwt beam="1">  1       21 0.87308254E-02 0.30000000E+03</pdfrwt>
<pdfrwt beam="2">0</pdfrwt>
<totfact> 0.10950892E+04</totfact>
</mgrwt>
</event>
<event>
 6    1  0.1284012E-001  0.3000000E+03  0.7818608E-02  0.1093470E+00
         21   -1    0    0  501  502  0.00000000000E+00  0.00000000000E+00  0.37416466560E+01  0.37416466560E+01  0.00000000000E+00 0. -1.
         13   -1    0    0    0    0 -0.00000000000E+00 -0.00000000000E+00 -0.10000000000E+04  0.10000000000E+04  0.00000000000E+00 0.  1.
    9000005    2    1    2  501    0 -0.47060531994E+01 -0.37055109131E+02 -0.89522412932E+03  0.89602376293E+03  0.60921241298E+01 0.  0.
         13    1    3    3    0    0 -0.46003500141E+01 -0.19262677831E+02 -0.52249796845E+03  0.52287315959E+03  0.00000000000E+00 0.  1.
          3    1    3    3  501    0 -0.10570318530E+00 -0.17792431300E+02 -0.37272616086E+03  0.37315060335E+03  0.00000000000E+00 0.  1.
         -1    1    1    2    0  502  0.47060531994E+01  0.37055109131E+02 -0.10103422403E+03  0.10771788372E+03  0.00000000000E+00 0. -1.
<mgrwt>
<rscale>  1 0.30000000E+03</rscale>
<asrwt>0</asrwt>
<pdfrwt beam="1">  1       21 0.13606017E-01 0.30000000E+03</pdfrwt>
<pdfrwt beam="2">0</pdfrwt>
<totfact> 0.49281669E+03</totfact>
</mgrwt>
</event>
<event>
 6    1  0.1284012E-001  0.3000000E+03  0.7818608E-02  0.1093470E+00
         21   -1    0    0  501  502  0.00000000000E+00  0.00000000000E+00  0.20146322295E+01  0.20146322295E+01  0.00000000000E+00 0. -1.
         13   -1    0    0    0    0 -0.00000000000E+00 -0.00000000000E+00 -0.10000000000E+04  0.10000000000E+04  0.00000000000E+00 0.  1.
    9000005    2    1    2  501    0  0.10429672147E+02 -0.42768127302E+02 -0.40619378400E+03  0.40858799869E+03  0.35877204730E+01 0.  0.
         13    1    3    3    0    0  0.76016929146E+01 -0.36599621104E+02 -0.34286163100E+03  0.34489334006E+03  0.00000000000E+00 0.  1.
          1    1    3    3  501    0  0.28279792325E+01 -0.61685061980E+01 -0.63332152998E+02  0.63694658635E+02  0.00000000000E+00 0.  1.
         -3    1    1    2    0  502 -0.10429672147E+02  0.42768127302E+02 -0.59179158377E+03  0.59342663354E+03  0.00000000000E+00 0. -1.
<mgrwt>
<rscale>  1 0.30000000E+03</rscale>
<asrwt>0</asrwt>
<pdfrwt beam="1">  1       21 0.73259508E-02 0.30000000E+03</pdfrwt>
<pdfrwt beam="2">0</pdfrwt>
<totfact> 0.14904244E+04</totfact>
</mgrwt>
</event>
<event>
 6    1  0.1284012E-001  0.3000000E+03  0.7818608E-02  0.1093470E+00
         21   -1    0    0  501  502  0.00000000000E+00  0.00000000000E+00  0.18485681362E+01  0.18485681362E+01  0.00000000000E+00 0. -1.
         13   -1    0    0    0    0 -0.00000000000E+00 -0.00000000000E+00 -0.10000000000E+04  0.10000000000E+04  0.00000000000E+00 0.  1.
    9000005    2    1    2  501    0 -0.30372443347E+02  0.97170980451E+01 -0.83469407365E+03  0.83530963797E+03  0.33297712617E+01 0.  0.
         13    1    3    3    0    0 -0.13595026413E+02  0.60611427479E+01 -0.39582634328E+03  0.39610611739E+03  0.00000000000E+00 0.  1.
          3    1    3    3  501    0 -0.16777416935E+02  0.36559552972E+01 -0.43886773037E+03  0.43920352058E+03  0.00000000000E+00 0.  1.
         -1    1    1    2    0  502  0.30372443347E+02 -0.97170980451E+01 -0.16345735821E+03  0.16653893017E+03  0.00000000000E+00 0. -1.
<mgrwt>
<rscale>  1 0.30000000E+03</rscale>
<asrwt>0</asrwt>
<pdfrwt beam="1">  1       21 0.67220801E-02 0.30000000E+03</pdfrwt>
<pdfrwt beam="2">0</pdfrwt>
<totfact> 0.17312080E+04</totfact>
</mgrwt>
</event>
<event>
 6    1  0.1284012E-001  0.3000000E+03  0.7818608E-02  0.1093470E+00
         21   -1    0    0  501  502  0.00000000000E+00  0.00000000000E+00  0.11440649087E+01  0.11440649087E+01  0.00000000000E+00 0. -1.
         13   -1    0    0    0    0 -0.00000000000E+00 -0.00000000000E+00 -0.10000000000E+04  0.10000000000E+04  0.00000000000E+00 0.  1.
    9000005    2    1    2  501    0 -0.90417423670E+00 -0.31162588553E+02 -0.69189726112E+03  0.69260630064E+03  0.31214225307E+01 0.  0.
         13    1    3    3    0    0 -0.24810770734E+00 -0.45623659996E+01 -0.79412177660E+02  0.79543514517E+02  0.00000000000E+00 0.  1.
          3    1    3    3  501    0 -0.65606652936E+00 -0.26600222553E+02 -0.61248508346E+03  0.61306278612E+03  0.00000000000E+00 0.  1.
         -1    1    1    2    0  502  0.90417423670E+00  0.31162588553E+02 -0.30695867397E+03  0.30853776427E+03  0.00000000000E+00 0. -1.
<mgrwt>
<rscale>  1 0.30000000E+03</rscale>
<asrwt>0</asrwt>
<pdfrwt beam="1">  1       21 0.41602448E-02 0.30000000E+03</pdfrwt>
<pdfrwt beam="2">0</pdfrwt>
<totfact> 0.39353241E+04</totfact>
</mgrwt>
</event>
<event>
 6    1  0.1284012E-001  0.3000000E+03  0.7818608E-02  0.1093470E+00
         21   -1    0    0  501  502  0.00000000000E+00  0.00000000000E+00  0.90760210862E+00  0.90760210862E+00  0.00000000000E+00 0. -1.
         13   -1    0    0    0    0 -0.00000000000E+00 -0.00000000000E+00 -0.10000000000E+04  0.10000000000E+04  0.00000000000E+00 0.  1.
    9000005    2    1    2  501    0  0.29224198040E+02  0.68102874418E+01 -0.48745825590E+03  0.48839425690E+03  0.36007167798E+01 0.  0.
         13    1    3    3    0    0  0.10944431944E+02  0.35238003034E+01 -0.16318486718E+03  0.16358942092E+03  0.00000000000E+00 0.  1.
          1    1    3    3  501    0  0.18279766096E+02  0.32864871384E+01 -0.32427338872E+03  0.32480483598E+03  0.00000000000E+00 0.  1.
         -1    1    1    2    0  502 -0.29224198040E+02 -0.68102874418E+01 -0.51163414199E+03  0.51251334521E+03  0.00000000000E+00 0. -1.
<mgrwt>
<rscale>  1 0.30000000E+03</rscale>
<asrwt>0</asrwt>
<pdfrwt beam="1">  1       21 0.33003783E-02 0.30000000E+03</pdfrwt>
<pdfrwt beam="2">0</pdfrwt>
<totfact> 0.58042419E+04</totfact>
</mgrwt>
</event>
<event>
 6    1  0.1284012E-001  0.3000000E+03  0.7818608E-02  0.1093470E+00
         21   -1    0    0  501  502  0.00000000000E+00  0.00000000000E+00  0.12617779401E+02  0.12617779401E+02  0.00000000000E+00 0. -1.
         13   -1    0    0    0    0 -0.00000000000E+00 -0.00000000000E+00 -0.10000000000E+04  0.10000000000E+04  0.00000000000E+00 0.  1.
    9000005    2    1    2  501    0 -0.51001983956E+02 -0.10260335995E+02 -0.94239791066E+03  0.94384231137E+03  0.42438016669E+01 0.  0.
         13    1    3    3    0    0 -0.40043432972E+02 -0.81647730262E+01 -0.70703239576E+03  0.70821250250E+03  0.00000000000E+00 0.  1.
          3    1    3    3  501    0 -0.10958550984E+02 -0.20955629691E+01 -0.23536551491E+03  0.23562980888E+03  0.00000000000E+00 0.  1.
         -3    1    1    2    0  502  0.51001983956E+02  0.10260335995E+02 -0.44984309936E+02  0.68775468029E+02  0.00000000000E+00 0. -1.
<mgrwt>
<rscale>  1 0.30000000E+03</rscale>
<asrwt>0</asrwt>
<pdfrwt beam="1">  1       21 0.45882931E-01 0.30000000E+03</pdfrwt>
<pdfrwt beam="2">0</pdfrwt>
<totfact> 0.45198045E+02</totfact>
</mgrwt>
</event>
<event>
 6    1  0.1284012E-001  0.3000000E+03  0.7818608E-02  0.1093470E+00
         21   -1    0    0  501  502  0.00000000000E+00  0.00000000000E+00  0.28384156683E+01  0.28384156683E+01  0.00000000000E+00 0. -1.
         13   -1    0    0    0    0 -0.00000000000E+00 -0.00000000000E+00 -0.10000000000E+04  0.10000000000E+04  0.00000000000E+00 0.  1.
    9000005    2    1    2  501    0  0.42197572473E+02  0.16472066498E+02 -0.76215287860E+03  0.76350380499E+03  0.30142633863E+01 0.  0.
         13    1    3    3    0    0  0.24413934677E+02  0.79265325543E+01 -0.43040481349E+03  0.43116954159E+03  0.00000000000E+00 0.  1.
          3    1    3    3  501    0  0.17783637796E+02  0.85455339436E+01 -0.33174806511E+03  0.33233426340E+03  0.00000000000E+00 0.  1.
         -3    1    1    2    0  502 -0.42197572473E+02 -0.16472066498E+02 -0.23500870574E+03  0.23933461068E+03  0.00000000000E+00 0. -1.
<mgrwt>
<rscale>  1 0.30000000E+03</rscale>
<asrwt>0</asrwt>
<pdfrwt beam="1">  1       21 0.10321533E-01 0.30000000E+03</pdfrwt>
<pdfrwt beam="2">0</pdfrwt>
<totfact> 0.81297484E+03</totfact>
</mgrwt>
</event>
<event>
 6    1  0.1284012E-001  0.3000000E+03  0.7818608E-02  0.1093470E+00
         21   -1    0    0  501  502  0.00000000000E+00  0.00000000000E+00  0.26108548726E+01  0.26108548726E+01  0.00000000000E+00 0. -1.
         13   -1    0    0    0    0 -0.00000000000E+00 -0.00000000000E+00 -0.10000000000E+04  0.10000000000E+04  0.00000000000E+00 0.  1.
    9000005    2    1    2  501    0  0.35964947995E+02 -0.31910826364E+02 -0.66723128523E+03  0.66897034358E+03  0.34574956815E+01 0.  0.
         13    1    3    3    0    0  0.29338728513E+02 -0.24228380037E+02 -0.52108816972E+03  0.52247550757E+03  0.00000000000E+00 0.  1.
          1    1    3    3  501    0  0.66262194819E+01 -0.76824463271E+01 -0.14614311551E+03  0.14649483600E+03  0.00000000000E+00 0.  1.
         -3    1    1    2    0  502 -0.35964947995E+02  0.31910826364E+02 -0.33015785990E+03  0.33364051130E+03  0.00000000000E+00 0. -1.
<mgrwt>
<rscale>  1 0.30000000E+03</rscale>
<asrwt>0</asrwt>
<pdfrwt beam="1">  1       21 0.94940377E-02 0.30000000E+03</pdfrwt>
<pdfrwt beam="2">0</pdfrwt>
<totfact> 0.94382729E+03</totfact>
</mgrwt>
</event>
<event>
 6    1  0.1284012E-001  0.3000000E+03  0.7818608E-02  0.1093470E+00
         21   -1    0    0  501  502  0.00000000000E+00  0.00000000000E+00  0.35252703386E+01  0.35252703386E+01  0.00000000000E+00 0. -1.
         13   -1    0    0    0    0 -0.00000000000E+00 -0.00000000000E+00 -0.10000000000E+04  0.10000000000E+04  0.00000000000E+00 0.  1.
    9000005    2    1    2  501    0 -0.16191502629E+02  0.53795839391E+02 -0.65784162601E+03  0.66026365585E+03  0.60277052707E+01 0.  0.
         13    1    3    3    0    0 -0.13665044154E+02  0.43900044836E+02 -0.50918434148E+03  0.51125594469E+03  0.00000000000E+00 0.  1.
          1    1    3    3  501    0 -0.25264584750E+01  0.98957945556E+01 -0.14865728453E+03  0.14900771116E+03  0.00000000000E+00 0.  1.
         -3    1    1    2    0  502  0.16191502629E+02 -0.53795839391E+02 -0.33863310365E+03  0.34326161449E+03  0.00000000000E+00 0. -1.
<mgrwt>
<rscale>  1 0.30000000E+03</rscale>
<asrwt>0</asrwt>
<pdfrwt beam="1">  1       21 0.12819192E-01 0.30000000E+03</pdfrwt>
<pdfrwt beam="2">0</pdfrwt>
<totfact> 0.54952251E+03</totfact>
</mgrwt>
</event>
<event>
 6    1  0.1284012E-001  0.3000000E+03  0.7818608E-02  0.1093470E+00
         21   -1    0    0  501  502  0.00000000000E+00  0.00000000000E+00  0.15932643568E+01  0.15932643568E+01  0.00000000000E+00 0. -1.
         13   -1    0    0    0    0 -0.00000000000E+00 -0.00000000000E+00 -0.10000000000E+04  0.10000000000E+04  0.00000000000E+00 0.  1.
    9000005    2    1    2  501    0 -0.34435057280E+02  0.18446164974E+02 -0.57080415201E+03  0.57220998138E+03  0.89915885263E+01 0.  0.
         13    1    3    3    0    0 -0.24039738213E+02  0.79743911864E+01 -0.36389263830E+03  0.36477301454E+03  0.00000000000E+00 0.  1.
          3    1    3    3  501    0 -0.10395319067E+02  0.10471773788E+02 -0.20691151371E+03  0.20743696684E+03  0.00000000000E+00 0.  1.
         -1    1    1    2    0  502  0.34435057280E+02 -0.18446164974E+02 -0.42760258363E+03  0.42938328298E+03  0.00000000000E+00 0. -1.
<mgrwt>
<rscale>  1 0.30000000E+03</rscale>
<asrwt>0</asrwt>
<pdfrwt beam="1">  1       21 0.57937008E-02 0.30000000E+03</pdfrwt>
<pdfrwt beam="2">0</pdfrwt>
<totfact> 0.22381416E+04</totfact>
</mgrwt>
</event>
<event>
 6    1  0.1284012E-001  0.3000000E+03  0.7818608E-02  0.1093470E+00
         21   -1    0    0  501  502  0.00000000000E+00  0.00000000000E+00  0.19187970411E+01  0.19187970411E+01  0.00000000000E+00 0. -1.
         13   -1    0    0    0    0 -0.00000000000E+00 -0.00000000000E+00 -0.10000000000E+04  0.10000000000E+04  0.00000000000E+00 0.  1.
    9000005    2    1    2  501    0 -0.37247287595E+02 -0.18559454642E+02 -0.34485669466E+03  0.34737004253E+03  0.28271550332E+01 0.  0.
         13    1    3    3    0    0 -0.10296952646E+02 -0.63730066115E+01 -0.94925194516E+02  0.95694487829E+02  0.00000000000E+00 0.  1.
          1    1    3    3  501    0 -0.26950334949E+02 -0.12186448030E+02 -0.24993150014E+03  0.25167555470E+03  0.00000000000E+00 0.  1.
         -1    1    1    2    0  502  0.37247287595E+02  0.18559454642E+02 -0.65322450830E+03  0.65454875451E+03  0.00000000000E+00 0. -1.
<mgrwt>
<rscale>  1 0.30000000E+03</rscale>
<asrwt>0</asrwt>
<pdfrwt beam="1">  1       21 0.69774585E-02 0.30000000E+03</pdfrwt>
<pdfrwt beam="2">0</pdfrwt>
<totfact> 0.16226102E+04</totfact>
</mgrwt>
</event>
<event>
 6    1  0.1284012E-001  0.3000000E+03  0.7818608E-02  0.1093470E+00
         21   -1    0    0  501  502  0.00000000000E+00  0.00000000000E+00  0.22675908916E+01  0.22675908916E+01  0.00000000000E+00 0. -1.
         13   -1    0    0    0    0 -0.00000000000E+00 -0.00000000000E+00 -0.10000000000E+04  0.10000000000E+04  0.00000000000E+00 0.  1.
    9000005    2    1    2  501    0  0.19871991043E+02 -0.29331157335E+02 -0.83336957558E+03  0.83412968956E+03  0.35038100362E+01 0.  0.
         13    1    3    3    0    0  0.19328507614E+02 -0.28488946722E+02 -0.79186710758E+03  0.79261511931E+03  0.00000000000E+00 0.  1.
          3    1    3    3  501    0  0.54348342827E+00 -0.84221061270E+00 -0.41502468003E+02  0.41514570253E+02  0.00000000000E+00 0.  1.
         -1    1    1    2    0  502 -0.19871991043E+02  0.29331157335E+02 -0.16436283352E+03  0.16813790133E+03  0.00000000000E+00 0. -1.
<mgrwt>
<rscale>  1 0.30000000E+03</rscale>
<asrwt>0</asrwt>
<pdfrwt beam="1">  1       21 0.82458024E-02 0.30000000E+03</pdfrwt>
<pdfrwt beam="2">0</pdfrwt>
<totfact> 0.12112022E+04</totfact>
</mgrwt>
</event>
<event>
 6    1  0.1284012E-001  0.3000000E+03  0.7818608E-02  0.1093470E+00
         21   -1    0    0  501  502  0.00000000000E+00  0.00000000000E+00  0.13573012568E+01  0.13573012568E+01  0.00000000000E+00 0. -1.
         13   -1    0    0    0    0 -0.00000000000E+00 -0.00000000000E+00 -0.10000000000E+04  0.10000000000E+04  0.00000000000E+00 0.  1.
    9000005    2    1    2  501    0  0.27951173853E+02 -0.20328134146E+02 -0.67075462519E+03  0.67165275179E+03  0.33392546919E+01 0.  0.
         13    1    3    3    0    0  0.63223040800E+00 -0.22479643319E+00 -0.23941038952E+02  0.23950440389E+02  0.00000000000E+00 0.  1.
          1    1    3    3  501    0  0.27318943445E+02 -0.20103337713E+02 -0.64681358624E+03  0.64770231141E+03  0.00000000000E+00 0.  1.
         -1    1    1    2    0  502 -0.27951173853E+02  0.20328134146E+02 -0.32788807355E+03  0.32970454946E+03  0.00000000000E+00 0. -1.
<mgrwt>
<rscale>  1 0.30000000E+03</rscale>
<asrwt>0</asrwt>
<pdfrwt beam="1">  1       21 0.49356513E-02 0.30000000E+03</pdfrwt>
<pdfrwt beam="2">0</pdfrwt>
<totfact> 0.29447583E+04</totfact>
</mgrwt>
</event>
<event>
 6    1  0.1284012E-001  0.3000000E+03  0.7818608E-02  0.1093470E+00
         21   -1    0    0  501  502  0.00000000000E+00  0.00000000000E+00  0.44973904161E+01  0.44973904161E+01  0.00000000000E+00 0. -1.
         13   -1    0    0    0    0 -0.00000000000E+00 -0.00000000000E+00 -0.10000000000E+04  0.10000000000E+04  0.00000000000E+00 0.  1.
    9000005    2    1    2  501    0  0.28675382937E+02  0.48403770937E+02 -0.77074823809E+03  0.77280852549E+03  0.38688390775E+01 0.  0.
         13    1    3    3    0    0  0.27799470811E+01  0.72120983126E+01 -0.11035183366E+03  0.11062219334E+03  0.00000000000E+00 0.  1.
          3    1    3    3  501    0  0.25895435856E+02  0.41191672625E+02 -0.66039640443E+03  0.66218633215E+03  0.00000000000E+00 0.  1.
         -3    1    1    2    0  502 -0.28675382937E+02 -0.48403770937E+02 -0.22475437149E+03  0.23168886493E+03  0.00000000000E+00 0. -1.
<mgrwt>
<rscale>  1 0.30000000E+03</rscale>
<asrwt>0</asrwt>
<pdfrwt beam="1">  1       21 0.16354181E-01 0.30000000E+03</pdfrwt>
<pdfrwt beam="2">0</pdfrwt>
<totfact> 0.35064840E+03</totfact>
</mgrwt>
</event>
<event>
 6    1  0.1284012E-001  0.3000000E+03  0.7818608E-02  0.1093470E+00
         21   -1    0    0  501  502  0.00000000000E+00  0.00000000000E+00  0.20955465843E+01  0.20955465843E+01  0.00000000000E+00 0. -1.
         13   -1    0    0    0    0 -0.00000000000E+00 -0.00000000000E+00 -0.10000000000E+04  0.10000000000E+04  0.00000000000E+00 0.  1.
    9000005    2    1    2  501    0 -0.39029767841E+02  0.10175785758E+02 -0.26359233624E+03  0.26667651309E+03  0.29280567552E+01 0.  0.
         13    1    3    3    0    0 -0.18314059598E+02  0.61447804502E+01 -0.12190087450E+03  0.12342198471E+03  0.00000000000E+00 0.  1.
          1    1    3    3  501    0 -0.20715708243E+02  0.40310053078E+01 -0.14169146174E+03  0.14325452838E+03  0.00000000000E+00 0.  1.
         -1    1    1    2    0  502  0.39029767841E+02 -0.10175785758E+02 -0.73431211717E+03  0.73541903349E+03  0.00000000000E+00 0. -1.
<mgrwt>
<rscale>  1 0.30000000E+03</rscale>
<asrwt>0</asrwt>
<pdfrwt beam="1">  1       21 0.76201855E-02 0.30000000E+03</pdfrwt>
<pdfrwt beam="2">0</pdfrwt>
<totfact> 0.13911658E+04</totfact>
</mgrwt>
</event>
<event>
 6    1  0.1284012E-001  0.3000000E+03  0.7818608E-02  0.1093470E+00
         21   -1    0    0  501  502  0.00000000000E+00  0.00000000000E+00  0.17806713403E+01  0.17806713403E+01  0.00000000000E+00 0. -1.
         13   -1    0    0    0    0 -0.00000000000E+00 -0.00000000000E+00 -0.10000000000E+04  0.10000000000E+04  0.00000000000E+00 0.  1.
    9000005    2    1    2  501    0 -0.12854928104E+02 -0.37115299788E+02 -0.68056627930E+03  0.68170840696E+03  0.36189710445E+01 0.  0.
         13    1    3    3    0    0 -0.44314606041E+01 -0.16802452389E+02 -0.32179376054E+03  0.32226260189E+03  0.00000000000E+00 0.  1.
          3    1    3    3  501    0 -0.84234675000E+01 -0.20312847399E+02 -0.35877251875E+03  0.35944580508E+03  0.00000000000E+00 0.  1.
         -1    1    1    2    0  502  0.12854928104E+02  0.37115299788E+02 -0.31765304936E+03  0.32007226438E+03  0.00000000000E+00 0. -1.
<mgrwt>
<rscale>  1 0.30000000E+03</rscale>
<asrwt>0</asrwt>
<pdfrwt beam="1">  1       21 0.64751822E-02 0.30000000E+03</pdfrwt>
<pdfrwt beam="2">0</pdfrwt>
<totfact> 0.18471973E+04</totfact>
</mgrwt>
</event>
<event>
 6    1  0.1284012E-001  0.3000000E+03  0.7818608E-02  0.1093470E+00
         21   -1    0    0  501  502  0.00000000000E+00  0.00000000000E+00  0.49597240615E+01  0.49597240615E+01  0.00000000000E+00 0. -1.
         13   -1    0    0    0    0 -0.00000000000E+00 -0.00000000000E+00 -0.10000000000E+04  0.10000000000E+04  0.00000000000E+00 0.  1.
    9000005    2    1    2  501    0 -0.61154369483E+02  0.74927032117E+01 -0.73784101574E+03  0.74048390862E+03  0.10538353978E+02 0.  0.
         13    1    3    3    0    0 -0.54356885456E+02  0.91439209534E+01 -0.67756086805E+03  0.67979924404E+03  0.00000000000E+00 0.  1.
          1    1    3    3  501    0 -0.67974840273E+01 -0.16512177417E+01 -0.60280147689E+02  0.60684664575E+02  0.00000000000E+00 0.  1.
         -1    1    1    2    0  502  0.61154369483E+02 -0.74927032117E+01 -0.25719926020E+03  0.26447581544E+03  0.00000000000E+00 0. -1.
<mgrwt>
<rscale>  1 0.30000000E+03</rscale>
<asrwt>0</asrwt>
<pdfrwt beam="1">  1       21 0.18035398E-01 0.30000000E+03</pdfrwt>
<pdfrwt beam="2">0</pdfrwt>
<totfact> 0.29187311E+03</totfact>
</mgrwt>
</event>
<event>
 6    1  0.1284012E-001  0.3000000E+03  0.7818608E-02  0.1093470E+00
         21   -1    0    0  501  502  0.00000000000E+00  0.00000000000E+00  0.13418013439E+01  0.13418013439E+01  0.00000000000E+00 0. -1.
         13   -1    0    0    0    0 -0.00000000000E+00 -0.00000000000E+00 -0.10000000000E+04  0.10000000000E+04  0.00000000000E+00 0.  1.
    9000005    2    1    2  501    0  0.25205256583E+02 -0.23706836517E+02 -0.33842129122E+03  0.34019878126E+03  0.29868657004E+01 0.  0.
         13    1    3    3    0    0  0.25244117960E+02 -0.23489040587E+02 -0.33711303811E+03  0.33887195367E+03  0.00000000000E+00 0.  1.
          1    1    3    3  501    0 -0.38861376342E-01 -0.21779592949E+00 -0.13082531025E+01  0.13268275900E+01  0.00000000000E+00 0.  1.
         -1    1    1    2    0  502 -0.25205256583E+02  0.23706836517E+02 -0.66023690744E+03  0.66114302008E+03  0.00000000000E+00 0. -1.
<mgrwt>
<rscale>  1 0.30000000E+03</rscale>
<asrwt>0</asrwt>
<pdfrwt beam="1">  1       21 0.48792879E-02 0.30000000E+03</pdfrwt>
<pdfrwt beam="2">0</pdfrwt>
<totfact> 0.30029312E+04</totfact>
</mgrwt>
</event>
<event>
 6    1  0.1284012E-001  0.3000000E+03  0.7818608E-02  0.1093470E+00
         21   -1    0    0  501  502  0.00000000000E+00  0.00000000000E+00  0.14117116086E+01  0.14117116086E+01  0.00000000000E+00 0. -1.
         13   -1    0    0    0    0 -0.00000000000E+00 -0.00000000000E+00 -0.10000000000E+04  0.10000000000E+04  0.00000000000E+00 0.  1.
    9000005    2    1    2  501    0  0.80533372310E+01 -0.33056644697E+02 -0.71038025256E+03  0.71120235629E+03  0.33302191718E+01 0.  0.
         13    1    3    3    0    0  0.30306427762E+01 -0.18572737466E+02 -0.40798793649E+03  0.40842170326E+03  0.00000000000E+00 0.  1.
          1    1    3    3  501    0  0.50226944548E+01 -0.14483907231E+02 -0.30239231607E+03  0.30278065303E+03  0.00000000000E+00 0.  1.
         -1    1    1    2    0  502 -0.80533372310E+01  0.33056644697E+02 -0.28820803583E+03  0.29020935532E+03  0.00000000000E+00 0. -1.
<mgrwt>
<rscale>  1 0.30000000E+03</rscale>
<asrwt>0</asrwt>
<pdfrwt beam="1">  1       21 0.51335076E-02 0.30000000E+03</pdfrwt>
<pdfrwt beam="2">0</pdfrwt>
<totfact> 0.27538499E+04</totfact>
</mgrwt>
</event>
<event>
 6    1  0.1284012E-001  0.3000000E+03  0.7818608E-02  0.1093470E+00
         21   -1    0    0  501  502  0.00000000000E+00  0.00000000000E+00  0.33964780491E+01  0.33964780491E+01  0.00000000000E+00 0. -1.
         13   -1    0    0    0    0 -0.00000000000E+00 -0.00000000000E+00 -0.10000000000E+04  0.10000000000E+04  0.00000000000E+00 0.  1.
    9000005    2    1    2  501    0 -0.16328562798E+01  0.55209097117E+02 -0.65753281553E+03  0.65985659016E+03  0.32565999455E+01 0.  0.
         13    1    3    3    0    0 -0.20072148054E+00  0.74142540238E+01 -0.75862580600E+02  0.76224291320E+02  0.00000000000E+00 0.  1.
          3    1    3    3  501    0 -0.14321347993E+01  0.47794843093E+02 -0.58167023493E+03  0.58363229884E+03  0.00000000000E+00 0.  1.
         -3    1    1    2    0  502  0.16328562798E+01 -0.55209097117E+02 -0.33907070642E+03  0.34353988789E+03  0.00000000000E+00 0. -1.
<mgrwt>
<rscale>  1 0.30000000E+03</rscale>
<asrwt>0</asrwt>
<pdfrwt beam="1">  1       21 0.12350855E-01 0.30000000E+03</pdfrwt>
<pdfrwt beam="2">0</pdfrwt>
<totfact> 0.58808229E+03</totfact>
</mgrwt>
</event>
<event>
 6    1  0.1284012E-001  0.3000000E+03  0.7818608E-02  0.1093470E+00
         21   -1    0    0  501  502  0.00000000000E+00  0.00000000000E+00  0.25774721637E+01  0.25774721637E+01  0.00000000000E+00 0. -1.
         13   -1    0    0    0    0 -0.00000000000E+00 -0.00000000000E+00 -0.10000000000E+04  0.10000000000E+04  0.00000000000E+00 0.  1.
    9000005    2    1    2  501    0 -0.20385815361E+02 -0.22995875467E+02 -0.89742532533E+03  0.89796469921E+03  0.48984409303E+01 0.  0.
         13    1    3    3    0    0 -0.87005414104E+01 -0.10232895689E+02 -0.32389375903E+03  0.32417214364E+03  0.00000000000E+00 0.  1.
          3    1    3    3  501    0 -0.11685273950E+02 -0.12762979778E+02 -0.57353156630E+03  0.57379255556E+03  0.00000000000E+00 0.  1.
         -1    1    1    2    0  502  0.20385815361E+02  0.22995875467E+02 -0.99997202507E+02  0.10461277296E+03  0.00000000000E+00 0. -1.
<mgrwt>
<rscale>  1 0.30000000E+03</rscale>
<asrwt>0</asrwt>
<pdfrwt beam="1">  1       21 0.93726458E-02 0.30000000E+03</pdfrwt>
<pdfrwt beam="2">0</pdfrwt>
<totfact> 0.96569597E+03</totfact>
</mgrwt>
</event>
<event>
 6    1  0.1284012E-001  0.3000000E+03  0.7818608E-02  0.1093470E+00
         21   -1    0    0  501  502  0.00000000000E+00  0.00000000000E+00  0.10769212221E+01  0.10769212221E+01  0.00000000000E+00 0. -1.
         13   -1    0    0    0    0 -0.00000000000E+00 -0.00000000000E+00 -0.10000000000E+04  0.10000000000E+04  0.00000000000E+00 0.  1.
    9000005    2    1    2  501    0  0.18524551701E+02  0.26291869603E+02 -0.59359908179E+03  0.59447888390E+03  0.32942486036E+01 0.  0.
         13    1    3    3    0    0  0.31561109092E+00  0.16791327515E+01 -0.28920400249E+02  0.28970824078E+02  0.00000000000E+00 0.  1.
          3    1    3    3  501    0  0.18208940610E+02  0.24612736851E+02 -0.56467868154E+03  0.56550805982E+03  0.00000000000E+00 0.  1.
         -1    1    1    2    0  502 -0.18524551701E+02 -0.26291869603E+02 -0.40532399699E+03  0.40659803732E+03  0.00000000000E+00 0. -1.
<mgrwt>
<rscale>  1 0.30000000E+03</rscale>
<asrwt>0</asrwt>
<pdfrwt beam="1">  1       21 0.39160854E-02 0.30000000E+03</pdfrwt>
<pdfrwt beam="2">0</pdfrwt>
<totfact> 0.43574920E+04</totfact>
</mgrwt>
</event>
<event>
 6    1  0.1284012E-001  0.3000000E+03  0.7818608E-02  0.1093470E+00
         21   -1    0    0  501  502  0.00000000000E+00  0.00000000000E+00  0.20524207424E+01  0.20524207424E+01  0.00000000000E+00 0. -1.
         13   -1    0    0    0    0 -0.00000000000E+00 -0.00000000000E+00 -0.10000000000E+04  0.10000000000E+04  0.00000000000E+00 0.  1.
    9000005    2    1    2  501    0 -0.13891470668E+02 -0.37112244496E+02 -0.27964469561E+03  0.28265731073E+03  0.11122404381E+02 0.  0.
         13    1    3    3    0    0 -0.27996055706E+01 -0.22761349342E+02 -0.14692411292E+03  0.14870309941E+03  0.00000000000E+00 0.  1.
          1    1    3    3  501    0 -0.11091865098E+02 -0.14350895154E+02 -0.13272058268E+03  0.13395421132E+03  0.00000000000E+00 0.  1.
         -3    1    1    2    0  502  0.13891470668E+02  0.37112244496E+02 -0.71830288365E+03  0.71939511001E+03  0.00000000000E+00 0. -1.
<mgrwt>
<rscale>  1 0.30000000E+03</rscale>
<asrwt>0</asrwt>
<pdfrwt beam="1">  1       21 0.74633639E-02 0.30000000E+03</pdfrwt>
<pdfrwt beam="2">0</pdfrwt>
<totfact> 0.14427619E+04</totfact>
</mgrwt>
</event>
<event>
 6    1  0.1284012E-001  0.3000000E+03  0.7818608E-02  0.1093470E+00
         21   -1    0    0  501  502  0.00000000000E+00  0.00000000000E+00  0.15354166117E+01  0.15354166117E+01  0.00000000000E+00 0. -1.
         13   -1    0    0    0    0 -0.00000000000E+00 -0.00000000000E+00 -0.10000000000E+04  0.10000000000E+04  0.00000000000E+00 0.  1.
    9000005    2    1    2  501    0  0.11124346417E+02 -0.35957588526E+02 -0.61437616374E+03  0.61560716763E+03  0.98699041074E+01 0.  0.
         13    1    3    3    0    0  0.54835638693E+01 -0.79915684254E+01 -0.21162626776E+03  0.21184808671E+03  0.00000000000E+00 0.  1.
          1    1    3    3  501    0  0.56407825480E+01 -0.27966020100E+02 -0.40274989598E+03  0.40375908091E+03  0.00000000000E+00 0.  1.
         -3    1    1    2    0  502 -0.11124346417E+02  0.35957588526E+02 -0.38408841965E+03  0.38592824899E+03  0.00000000000E+00 0. -1.
<mgrwt>
<rscale>  1 0.30000000E+03</rscale>
<asrwt>0</asrwt>
<pdfrwt beam="1">  1       21 0.55833449E-02 0.30000000E+03</pdfrwt>
<pdfrwt beam="2">0</pdfrwt>
<totfact> 0.23850715E+04</totfact>
</mgrwt>
</event>
<event>
 6    1  0.1284012E-001  0.3000000E+03  0.7818608E-02  0.1093470E+00
         21   -1    0    0  501  502  0.00000000000E+00  0.00000000000E+00  0.14488366019E+01  0.14488366019E+01  0.00000000000E+00 0. -1.
         13   -1    0    0    0    0 -0.00000000000E+00 -0.00000000000E+00 -0.10000000000E+04  0.10000000000E+04  0.00000000000E+00 0.  1.
    9000005    2    1    2  501    0  0.14376123929E+02  0.35110043779E+02 -0.50613623189E+03  0.50757450756E+03  0.43136273096E+01 0.  0.
         13    1    3    3    0    0  0.96899896836E+00  0.94409729342E+00 -0.11708097003E+02  0.11786000769E+02  0.00000000000E+00 0.  1.
          1    1    3    3  501    0  0.13407124961E+02  0.34165946486E+02 -0.49442813489E+03  0.49578850679E+03  0.00000000000E+00 0.  1.
         -3    1    1    2    0  502 -0.14376123929E+02 -0.35110043779E+02 -0.49241493151E+03  0.49387432904E+03  0.00000000000E+00 0. -1.
<mgrwt>
<rscale>  1 0.30000000E+03</rscale>
<asrwt>0</asrwt>
<pdfrwt beam="1">  1       21 0.52685078E-02 0.30000000E+03</pdfrwt>
<pdfrwt beam="2">0</pdfrwt>
<totfact> 0.26343972E+04</totfact>
</mgrwt>
</event>
<event>
 6    1  0.1284012E-001  0.3000000E+03  0.7818608E-02  0.1093470E+00
         21   -1    0    0  501  502  0.00000000000E+00  0.00000000000E+00  0.17272309335E+01  0.17272309335E+01  0.00000000000E+00 0. -1.
         13   -1    0    0    0    0 -0.00000000000E+00 -0.00000000000E+00 -0.10000000000E+04  0.10000000000E+04  0.00000000000E+00 0.  1.
    9000005    2    1    2  501    0  0.70130766084E+01  0.39525352300E+02 -0.62571261520E+03  0.62701066475E+03  0.38288615572E+01 0.  0.
         13    1    3    3    0    0  0.20552011619E+01  0.45936643515E+01 -0.83000255380E+02  0.83152678833E+02  0.00000000000E+00 0.  1.
          1    1    3    3  501    0  0.49578754465E+01  0.34931687949E+02 -0.54271235982E+03  0.54385798592E+03  0.00000000000E+00 0.  1.
         -3    1    1    2    0  502 -0.70130766084E+01 -0.39525352300E+02 -0.37256015387E+03  0.37471656618E+03  0.00000000000E+00 0. -1.
<mgrwt>
<rscale>  1 0.30000000E+03</rscale>
<asrwt>0</asrwt>
<pdfrwt beam="1">  1       21 0.62808530E-02 0.30000000E+03</pdfrwt>
<pdfrwt beam="2">0</pdfrwt>
<totfact> 0.19471576E+04</totfact>
</mgrwt>
</event>
<event>
 6    1  0.1284012E-001  0.3000000E+03  0.7818608E-02  0.1093470E+00
         21   -1    0    0  501  502  0.00000000000E+00  0.00000000000E+00  0.22525981558E+01  0.22525981558E+01  0.00000000000E+00 0. -1.
         13   -1    0    0    0    0 -0.00000000000E+00 -0.00000000000E+00 -0.10000000000E+04  0.10000000000E+04  0.00000000000E+00 0.  1.
    9000005    2    1    2  501    0  0.73120838547E-01 -0.36345953345E+02 -0.82048663275E+03  0.82130394818E+03  0.45636706272E+01 0.  0.
         13    1    3    3    0    0  0.11007056850E+01 -0.65516561488E+01 -0.12088290936E+03  0.12106532751E+03  0.00000000000E+00 0.  1.
          1    1    3    3  501    0 -0.10275848465E+01 -0.29794297196E+02 -0.69960372340E+03  0.70023862066E+03  0.00000000000E+00 0.  1.
         -3    1    1    2    0  502 -0.73120838547E-01  0.36345953345E+02 -0.17726076909E+03  0.18094864998E+03  0.00000000000E+00 0. -1.
<mgrwt>
<rscale>  1 0.30000000E+03</rscale>
<asrwt>0</asrwt>
<pdfrwt beam="1">  1       21 0.81912833E-02 0.30000000E+03</pdfrwt>
<pdfrwt beam="2">0</pdfrwt>
<totfact> 0.12254207E+04</totfact>
</mgrwt>
</event>
<event>
 6    1  0.1284012E-001  0.3000000E+03  0.7818608E-02  0.1093470E+00
         21   -1    0    0  501  502  0.00000000000E+00  0.00000000000E+00  0.15437583462E+01  0.15437583462E+01  0.00000000000E+00 0. -1.
         13   -1    0    0    0    0 -0.00000000000E+00 -0.00000000000E+00 -0.10000000000E+04  0.10000000000E+04  0.00000000000E+00 0.  1.
    9000005    2    1    2  501    0 -0.33841405742E+02 -0.17723419522E+02 -0.61357418971E+03  0.61477049886E+03  0.31811401714E+01 0.  0.
         13    1    3    3    0    0 -0.42295001421E+01 -0.10809853996E+01 -0.69267423322E+02  0.69404849504E+02  0.00000000000E+00 0.  1.
          3    1    3    3  501    0 -0.29611905600E+02 -0.16642434123E+02 -0.54430676639E+03  0.54536564936E+03  0.00000000000E+00 0.  1.
         -3    1    1    2    0  502  0.33841405742E+02  0.17723419522E+02 -0.38488205194E+03  0.38677325948E+03  0.00000000000E+00 0. -1.
<mgrwt>
<rscale>  1 0.30000000E+03</rscale>
<asrwt>0</asrwt>
<pdfrwt beam="1">  1       21 0.56136786E-02 0.30000000E+03</pdfrwt>
<pdfrwt beam="2">0</pdfrwt>
<totfact> 0.23629860E+04</totfact>
</mgrwt>
</event>
<event>
 6    1  0.1284012E-001  0.3000000E+03  0.7818608E-02  0.1093470E+00
         21   -1    0    0  501  502  0.00000000000E+00  0.00000000000E+00  0.11737011237E+01  0.11737011237E+01  0.00000000000E+00 0. -1.
         13   -1    0    0    0    0 -0.00000000000E+00 -0.00000000000E+00 -0.10000000000E+04  0.10000000000E+04  0.00000000000E+00 0.  1.
    9000005    2    1    2  501    0  0.97877444635E+01  0.32529050641E+02 -0.53049932224E+03  0.53161636051E+03  0.56995429015E+01 0.  0.
         13    1    3    3    0    0  0.28429041448E+01  0.33104522778E+01 -0.58474464566E+02  0.58637054876E+02  0.00000000000E+00 0.  1.
          1    1    3    3  501    0  0.69448403187E+01  0.29218598364E+02 -0.47202485767E+03  0.47297930563E+03  0.00000000000E+00 0.  1.
         -1    1    1    2    0  502 -0.97877444635E+01 -0.32529050641E+02 -0.46832697664E+03  0.46955734061E+03  0.00000000000E+00 0. -1.
<mgrwt>
<rscale>  1 0.30000000E+03</rscale>
<asrwt>0</asrwt>
<pdfrwt beam="1">  1       21 0.42680131E-02 0.30000000E+03</pdfrwt>
<pdfrwt beam="2">0</pdfrwt>
<totfact> 0.37689564E+04</totfact>
</mgrwt>
</event>
<event>
 6    1  0.1284012E-001  0.3000000E+03  0.7818608E-02  0.1093470E+00
         21   -1    0    0  501  502  0.00000000000E+00  0.00000000000E+00  0.28109984062E+01  0.28109984062E+01  0.00000000000E+00 0. -1.
         13   -1    0    0    0    0 -0.00000000000E+00 -0.00000000000E+00 -0.10000000000E+04  0.10000000000E+04  0.00000000000E+00 0.  1.
    9000005    2    1    2  501    0 -0.23564259328E+02 -0.43891888481E+02 -0.66934001395E+03  0.67119867823E+03  0.31367489204E+01 0.  0.
         13    1    3    3    0    0 -0.15349368978E+02 -0.28645002720E+02 -0.41615262425E+03  0.41741962817E+03  0.00000000000E+00 0.  1.
          3    1    3    3  501    0 -0.82148903502E+01 -0.15246885761E+02 -0.25318738970E+03  0.25377905006E+03  0.00000000000E+00 0.  1.
         -3    1    1    2    0  502  0.23564259328E+02  0.43891888481E+02 -0.32784898764E+03  0.33161232017E+03  0.00000000000E+00 0. -1.
<mgrwt>
<rscale>  1 0.30000000E+03</rscale>
<asrwt>0</asrwt>
<pdfrwt beam="1">  1       21 0.10221834E-01 0.30000000E+03</pdfrwt>
<pdfrwt beam="2">0</pdfrwt>
<totfact> 0.82722188E+03</totfact>
</mgrwt>
</event>
<event>
 6    1  0.1284012E-001  0.3000000E+03  0.7818608E-02  0.1093470E+00
         21   -1    0    0  501  502  0.00000000000E+00  0.00000000000E+00  0.11595931461E+01  0.11595931461E+01  0.00000000000E+00 0. -1.
         13   -1    0    0    0    0 -0.00000000000E+00 -0.00000000000E+00 -0.10000000000E+04  0.10000000000E+04  0.00000000000E+00 0.  1.
    9000005    2    1    2  501    0  0.64881215037E+01 -0.33240361995E+02 -0.54020415034E+03  0.54127457145E+03  0.32588761348E+01 0.  0.
         13    1    3    3    0    0  0.27303109660E+01 -0.20098337966E+02 -0.30518705709E+03  0.30586032368E+03  0.00000000000E+00 0.  1.
          3    1    3    3  501    0  0.37578105376E+01 -0.13142024029E+02 -0.23501709325E+03  0.23541424777E+03  0.00000000000E+00 0.  1.
         -3    1    1    2    0  502 -0.64881215037E+01  0.33240361995E+02 -0.45863625652E+03  0.45988502169E+03  0.00000000000E+00 0. -1.
<mgrwt>
<rscale>  1 0.30000000E+03</rscale>
<asrwt>0</asrwt>
<pdfrwt beam="1">  1       21 0.42167112E-02 0.30000000E+03</pdfrwt>
<pdfrwt beam="2">0</pdfrwt>
<totfact> 0.38467614E+04</totfact>
</mgrwt>
</event>
<event>
 6    1  0.1284012E-001  0.3000000E+03  0.7818608E-02  0.1093470E+00
         21   -1    0    0  501  502  0.00000000000E+00  0.00000000000E+00  0.35116436046E+01  0.35116436046E+01  0.00000000000E+00 0. -1.
         13   -1    0    0    0    0 -0.00000000000E+00 -0.00000000000E+00 -0.10000000000E+04  0.10000000000E+04  0.00000000000E+00 0.  1.
    9000005    2    1    2  501    0  0.33176080446E+02 -0.32558050545E+02 -0.80930670157E+03  0.81064471831E+03  0.26159415904E+01 0.  0.
         13    1    3    3    0    0  0.24957703942E+02 -0.25125776516E+02 -0.59812696629E+03  0.59917448162E+03  0.00000000000E+00 0.  1.
          1    1    3    3  501    0  0.82183765037E+01 -0.74322740292E+01 -0.21117973528E+03  0.21147023668E+03  0.00000000000E+00 0.  1.
         -3    1    1    2    0  502 -0.33176080446E+02  0.32558050545E+02 -0.18718165483E+03  0.19286692530E+03  0.00000000000E+00 0. -1.
<mgrwt>
<rscale>  1 0.30000000E+03</rscale>
<asrwt>0</asrwt>
<pdfrwt beam="1">  1       21 0.12769640E-01 0.30000000E+03</pdfrwt>
<pdfrwt beam="2">0</pdfrwt>
<totfact> 0.55341846E+03</totfact>
</mgrwt>
</event>
<event>
 6    1  0.1284012E-001  0.3000000E+03  0.7818608E-02  0.1093470E+00
         21   -1    0    0  501  502  0.00000000000E+00  0.00000000000E+00  0.42476685448E+01  0.42476685448E+01  0.00000000000E+00 0. -1.
         13   -1    0    0    0    0 -0.00000000000E+00 -0.00000000000E+00 -0.10000000000E+04  0.10000000000E+04  0.00000000000E+00 0.  1.
    9000005    2    1    2  501    0  0.11827941986E+01 -0.36684488579E+02 -0.91274676179E+03  0.91348933395E+03  0.29935535553E+01 0.  0.
         13    1    3    3    0    0  0.12075125921E+01 -0.61275252586E+01 -0.14312639689E+03  0.14326259155E+03  0.00000000000E+00 0.  1.
          1    1    3    3  501    0 -0.24718393493E-01 -0.30556963320E+02 -0.76962036491E+03  0.77022674240E+03  0.00000000000E+00 0.  1.
         -3    1    1    2    0  502 -0.11827941986E+01  0.36684488579E+02 -0.83005569660E+02  0.90758334598E+02  0.00000000000E+00 0. -1.
<mgrwt>
<rscale>  1 0.30000000E+03</rscale>
<asrwt>0</asrwt>
<pdfrwt beam="1">  1       21 0.15446100E-01 0.30000000E+03</pdfrwt>
<pdfrwt beam="2">0</pdfrwt>
<totfact> 0.39002281E+03</totfact>
</mgrwt>
</event>
<event>
 6    1  0.1284012E-001  0.3000000E+03  0.7818608E-02  0.1093470E+00
         21   -1    0    0  501  502  0.00000000000E+00  0.00000000000E+00  0.95849226984E+00  0.95849226984E+00  0.00000000000E+00 0. -1.
         13   -1    0    0    0    0 -0.00000000000E+00 -0.00000000000E+00 -0.10000000000E+04  0.10000000000E+04  0.00000000000E+00 0.  1.
    9000005    2    1    2  501    0  0.20091216653E+02  0.23340714592E+02 -0.52885990390E+03  0.52976937257E+03  0.37873757010E+01 0.  0.
         13    1    3    3    0    0  0.23147303198E-03 -0.11422053159E+00 -0.40131404336E+01  0.40147655626E+01  0.00000000000E+00 0.  1.
          1    1    3    3  501    0  0.20090985180E+02  0.23454935123E+02 -0.52484676347E+03  0.52575460701E+03  0.00000000000E+00 0.  1.
         -3    1    1    2    0  502 -0.20091216653E+02 -0.23340714592E+02 -0.47018160383E+03  0.47118911970E+03  0.00000000000E+00 0. -1.
<mgrwt>
<rscale>  1 0.30000000E+03</rscale>
<asrwt>0</asrwt>
<pdfrwt beam="1">  1       21 0.34854338E-02 0.30000000E+03</pdfrwt>
<pdfrwt beam="2">0</pdfrwt>
<totfact> 0.52985476E+04</totfact>
</mgrwt>
</event>
<event>
 6    1  0.1284012E-001  0.3000000E+03  0.7818608E-02  0.1093470E+00
         21   -1    0    0  501  502  0.00000000000E+00  0.00000000000E+00  0.43159452478E+01  0.43159452478E+01  0.00000000000E+00 0. -1.
         13   -1    0    0    0    0 -0.00000000000E+00 -0.00000000000E+00 -0.10000000000E+04  0.10000000000E+04  0.00000000000E+00 0.  1.
    9000005    2    1    2  501    0  0.31478191259E+02  0.21327039881E+02 -0.90727952141E+03  0.90808143652E+03  0.31695777562E+01 0.  0.
         13    1    3    3    0    0  0.25666472174E+02  0.17719718795E+02 -0.71388866739E+03  0.71456965067E+03  0.00000000000E+00 0.  1.
          1    1    3    3  501    0  0.58117190846E+01  0.36073210857E+01 -0.19339085402E+03  0.19351178585E+03  0.00000000000E+00 0.  1.
         -1    1    1    2    0  502 -0.31478191259E+02 -0.21327039881E+02 -0.88404533340E+02  0.96234508728E+02  0.00000000000E+00 0. -1.
<mgrwt>
<rscale>  1 0.30000000E+03</rscale>
<asrwt>0</asrwt>
<pdfrwt beam="1">  1       21 0.15694379E-01 0.30000000E+03</pdfrwt>
<pdfrwt beam="2">0</pdfrwt>
<totfact> 0.37862651E+03</totfact>
</mgrwt>
</event>
<event>
 6    1  0.1284012E-001  0.3000000E+03  0.7818608E-02  0.1093470E+00
         21   -1    0    0  501  502  0.00000000000E+00  0.00000000000E+00  0.25618301049E+01  0.25618301049E+01  0.00000000000E+00 0. -1.
         13   -1    0    0    0    0 -0.00000000000E+00 -0.00000000000E+00 -0.10000000000E+04  0.10000000000E+04  0.00000000000E+00 0.  1.
    9000005    2    1    2  501    0  0.66806260484E+01 -0.30417056751E+02 -0.89370630317E+03  0.89425611335E+03  0.36348103916E+01 0.  0.
         13    1    3    3    0    0  0.11696376976E+01 -0.88027923693E+01 -0.29824774838E+03  0.29837991993E+03  0.00000000000E+00 0.  1.
          3    1    3    3  501    0  0.55109883508E+01 -0.21614264382E+02 -0.59545855479E+03  0.59587619342E+03  0.00000000000E+00 0.  1.
         -1    1    1    2    0  502 -0.66806260484E+01  0.30417056751E+02 -0.10373186673E+03  0.10830571675E+03  0.00000000000E+00 0. -1.
<mgrwt>
<rscale>  1 0.30000000E+03</rscale>
<asrwt>0</asrwt>
<pdfrwt beam="1">  1       21 0.93157655E-02 0.30000000E+03</pdfrwt>
<pdfrwt beam="2">0</pdfrwt>
<totfact> 0.97620568E+03</totfact>
</mgrwt>
</event>
<event>
 6    1  0.1284012E-001  0.3000000E+03  0.7818608E-02  0.1093470E+00
         21   -1    0    0  501  502  0.00000000000E+00  0.00000000000E+00  0.36246175647E+01  0.36246175647E+01  0.00000000000E+00 0. -1.
         13   -1    0    0    0    0 -0.00000000000E+00 -0.00000000000E+00 -0.10000000000E+04  0.10000000000E+04  0.00000000000E+00 0.  1.
    9000005    2    1    2  501    0 -0.32510185021E+02  0.45963730637E+02 -0.67353045988E+03  0.67590763496E+03  0.61865947227E+01 0.  0.
         13    1    3    3    0    0 -0.16164183602E+02  0.23742772816E+02 -0.37988293154E+03  0.38096724501E+03  0.00000000000E+00 0.  1.
          1    1    3    3  501    0 -0.16346001419E+02  0.22220957821E+02 -0.29364752833E+03  0.29494038995E+03  0.00000000000E+00 0.  1.
         -1    1    1    2    0  502  0.32510185021E+02 -0.45963730637E+02 -0.32284492256E+03  0.32771698260E+03  0.00000000000E+00 0. -1.
<mgrwt>
<rscale>  1 0.30000000E+03</rscale>
<asrwt>0</asrwt>
<pdfrwt beam="1">  1       21 0.13180455E-01 0.30000000E+03</pdfrwt>
<pdfrwt beam="2">0</pdfrwt>
<totfact> 0.52232925E+03</totfact>
</mgrwt>
</event>
<event>
 6    1  0.1284012E-001  0.3000000E+03  0.7818608E-02  0.1093470E+00
         21   -1    0    0  501  502  0.00000000000E+00  0.00000000000E+00  0.16373953125E+01  0.16373953125E+01  0.00000000000E+00 0. -1.
         13   -1    0    0    0    0 -0.00000000000E+00 -0.00000000000E+00 -0.10000000000E+04  0.10000000000E+04  0.00000000000E+00 0.  1.
    9000005    2    1    2  501    0  0.11627215706E+01 -0.35126829429E+02 -0.74663063593E+03  0.74746377323E+03  0.30886432882E+01 0.  0.
         13    1    3    3    0    0  0.19901679080E+01 -0.26647279205E+02 -0.55040928893E+03  0.55105755017E+03  0.00000000000E+00 0.  1.
          1    1    3    3  501    0 -0.82744633732E+00 -0.84795502241E+01 -0.19622134700E+03  0.19640622306E+03  0.00000000000E+00 0.  1.
         -1    1    1    2    0  502 -0.11627215706E+01  0.35126829429E+02 -0.25173196876E+03  0.25417362208E+03  0.00000000000E+00 0. -1.
<mgrwt>
<rscale>  1 0.30000000E+03</rscale>
<asrwt>0</asrwt>
<pdfrwt beam="1">  1       21 0.59541773E-02 0.30000000E+03</pdfrwt>
<pdfrwt beam="2">0</pdfrwt>
<totfact> 0.21352079E+04</totfact>
</mgrwt>
</event>
<event>
 6    1  0.1284012E-001  0.3000000E+03  0.7818608E-02  0.1093470E+00
         21   -1    0    0  501  502  0.00000000000E+00  0.00000000000E+00  0.16063627735E+02  0.16063627735E+02  0.00000000000E+00 0. -1.
         13   -1    0    0    0    0 -0.00000000000E+00 -0.00000000000E+00 -0.10000000000E+04  0.10000000000E+04  0.00000000000E+00 0.  1.
    9000005    2    1    2  501    0 -0.12527938016E+02 -0.72664703671E+02 -0.90514932247E+03  0.90815390803E+03  0.33341147729E+01 0.  0.
         13    1    3    3    0    0 -0.89304256847E+01 -0.47958467055E+02 -0.61615424078E+03  0.61808236950E+03  0.00000000000E+00 0.  1.
          1    1    3    3  501    0 -0.35975123314E+01 -0.24706236616E+02 -0.28899508169E+03  0.29007153853E+03  0.00000000000E+00 0.  1.
         -3    1    1    2    0  502  0.12527938016E+02  0.72664703671E+02 -0.78787049800E+02  0.10790971970E+03  0.00000000000E+00 0. -1.
<mgrwt>
<rscale>  1 0.30000000E+03</rscale>
<asrwt>0</asrwt>
<pdfrwt beam="1">  1       21 0.58413315E-01 0.30000000E+03</pdfrwt>
<pdfrwt beam="2">0</pdfrwt>
<totfact> 0.26666429E+02</totfact>
</mgrwt>
</event>
<event>
 6    1  0.1284012E-001  0.3000000E+03  0.7818608E-02  0.1093470E+00
         21   -1    0    0  501  502  0.00000000000E+00  0.00000000000E+00  0.97027291871E+00  0.97027291871E+00  0.00000000000E+00 0. -1.
         13   -1    0    0    0    0 -0.00000000000E+00 -0.00000000000E+00 -0.10000000000E+04  0.10000000000E+04  0.00000000000E+00 0.  1.
    9000005    2    1    2  501    0  0.23291504941E+02 -0.20562378995E+02 -0.51504341340E+03  0.51598773977E+03  0.28851810735E+01 0.  0.
         13    1    3    3    0    0  0.72547531546E+01 -0.70402348758E+01 -0.14724094970E+03  0.14758757949E+03  0.00000000000E+00 0.  1.
          1    1    3    3  501    0  0.16036751786E+02 -0.13522144119E+02 -0.36780246370E+03  0.36840016028E+03  0.00000000000E+00 0.  1.
         -1    1    1    2    0  502 -0.23291504941E+02  0.20562378995E+02 -0.48398631368E+03  0.48498253315E+03  0.00000000000E+00 0. -1.
<mgrwt>
<rscale>  1 0.30000000E+03</rscale>
<asrwt>0</asrwt>
<pdfrwt beam="1">  1       21 0.35282726E-02 0.30000000E+03</pdfrwt>
<pdfrwt beam="2">0</pdfrwt>
<totfact> 0.51912509E+04</totfact>
</mgrwt>
</event>
<event>
 6    1  0.1284012E-001  0.3000000E+03  0.7818608E-02  0.1093470E+00
         21   -1    0    0  501  502  0.00000000000E+00  0.00000000000E+00  0.26534241740E+01  0.26534241740E+01  0.00000000000E+00 0. -1.
         13   -1    0    0    0    0 -0.00000000000E+00 -0.00000000000E+00 -0.10000000000E+04  0.10000000000E+04  0.00000000000E+00 0.  1.
    9000005    2    1    2  501    0  0.19210323001E+02 -0.44769666599E+02 -0.66001360589E+03  0.66182077879E+03  0.39273036806E+01 0.  0.
         13    1    3    3    0    0  0.86592909829E+01 -0.19390410142E+02 -0.26191415873E+03  0.26277366281E+03  0.00000000000E+00 0.  1.
          3    1    3    3  501    0  0.10551032018E+02 -0.25379256457E+02 -0.39809944717E+03  0.39904711598E+03  0.00000000000E+00 0.  1.
         -1    1    1    2    0  502 -0.19210323001E+02  0.44769666599E+02 -0.33733296993E+03  0.34083264539E+03  0.00000000000E+00 0. -1.
<mgrwt>
<rscale>  1 0.30000000E+03</rscale>
<asrwt>0</asrwt>
<pdfrwt beam="1">  1       21 0.96488355E-02 0.30000000E+03</pdfrwt>
<pdfrwt beam="2">0</pdfrwt>
<totfact> 0.91700685E+03</totfact>
</mgrwt>
</event>
<event>
 6    1  0.1284012E-001  0.3000000E+03  0.7818608E-02  0.1093470E+00
         21   -1    0    0  501  502  0.00000000000E+00  0.00000000000E+00  0.17938136761E+01  0.17938136761E+01  0.00000000000E+00 0. -1.
         13   -1    0    0    0    0 -0.00000000000E+00 -0.00000000000E+00 -0.10000000000E+04  0.10000000000E+04  0.00000000000E+00 0.  1.
    9000005    2    1    2  501    0 -0.43116788860E+01 -0.40580593013E+02 -0.61792280304E+03  0.61932704818E+03  0.84868717121E+01 0.  0.
         13    1    3    3    0    0  0.17710924752E+01 -0.21973636691E+02 -0.31047901244E+03  0.31126065386E+03  0.00000000000E+00 0.  1.
          3    1    3    3  501    0 -0.60827713612E+01 -0.18606956321E+02 -0.30744379060E+03  0.30806639432E+03  0.00000000000E+00 0.  1.
         -3    1    1    2    0  502  0.43116788860E+01  0.40580593013E+02 -0.38028338329E+03  0.38246676549E+03  0.00000000000E+00 0. -1.
<mgrwt>
<rscale>  1 0.30000000E+03</rscale>
<asrwt>0</asrwt>
<pdfrwt beam="1">  1       21 0.65229726E-02 0.30000000E+03</pdfrwt>
<pdfrwt beam="2">0</pdfrwt>
<totfact> 0.18238286E+04</totfact>
</mgrwt>
</event>
<event>
 6    1  0.1284012E-001  0.3000000E+03  0.7818608E-02  0.1093470E+00
         21   -1    0    0  501  502  0.00000000000E+00  0.00000000000E+00  0.19546764250E+01  0.19546764250E+01  0.00000000000E+00 0. -1.
         13   -1    0    0    0    0 -0.00000000000E+00 -0.00000000000E+00 -0.10000000000E+04  0.10000000000E+04  0.00000000000E+00 0.  1.
    9000005    2    1    2  501    0  0.20173658367E+02  0.23548783894E+02 -0.85585596984E+03  0.85642346317E+03  0.31914650779E+01 0.  0.
         13    1    3    3    0    0  0.17546041004E+02  0.21923192583E+02 -0.77410518982E+03  0.77461431360E+03  0.00000000000E+00 0.  1.
          3    1    3    3  501    0  0.26276173626E+01  0.16255913103E+01 -0.81750780018E+02  0.81809149572E+02  0.00000000000E+00 0.  1.
         -3    1    1    2    0  502 -0.20173658367E+02 -0.23548783894E+02 -0.14218935374E+03  0.14553121325E+03  0.00000000000E+00 0. -1.
<mgrwt>
<rscale>  1 0.30000000E+03</rscale>
<asrwt>0</asrwt>
<pdfrwt beam="1">  1       21 0.71079293E-02 0.30000000E+03</pdfrwt>
<pdfrwt beam="2">0</pdfrwt>
<totfact> 0.15711034E+04</totfact>
</mgrwt>
</event>
<event>
 6    1  0.1284012E-001  0.3000000E+03  0.7818608E-02  0.1093470E+00
         21   -1    0    0  501  502  0.00000000000E+00  0.00000000000E+00  0.97984752852E+00  0.97984752852E+00  0.00000000000E+00 0. -1.
         13   -1    0    0    0    0 -0.00000000000E+00 -0.00000000000E+00 -0.10000000000E+04  0.10000000000E+04  0.00000000000E+00 0.  1.
    9000005    2    1    2  501    0 -0.22191907075E+02 -0.20912431245E+02 -0.39811007383E+03  0.39929659769E+03  0.40412280079E+01 0.  0.
         13    1    3    3    0    0 -0.98768339089E+00 -0.21465436598E+01 -0.39312591139E+02  0.39383537046E+02  0.00000000000E+00 0.  1.
          1    1    3    3  501    0 -0.21204223684E+02 -0.18765887585E+02 -0.35879748269E+03  0.35991306064E+03  0.00000000000E+00 0.  1.
         -3    1    1    2    0  502  0.22191907075E+02  0.20912431245E+02 -0.60091007864E+03  0.60168324984E+03  0.00000000000E+00 0. -1.
<mgrwt>
<rscale>  1 0.30000000E+03</rscale>
<asrwt>0</asrwt>
<pdfrwt beam="1">  1       21 0.35630894E-02 0.30000000E+03</pdfrwt>
<pdfrwt beam="2">0</pdfrwt>
<totfact> 0.51065125E+04</totfact>
</mgrwt>
</event>
<event>
 6    1  0.1284012E-001  0.3000000E+03  0.7818608E-02  0.1093470E+00
         21   -1    0    0  501  502  0.00000000000E+00  0.00000000000E+00  0.17525519703E+01  0.17525519703E+01  0.00000000000E+00 0. -1.
         13   -1    0    0    0    0 -0.00000000000E+00 -0.00000000000E+00 -0.10000000000E+04  0.10000000000E+04  0.00000000000E+00 0.  1.
    9000005    2    1    2  501    0 -0.35996341348E+02 -0.12393464350E+01 -0.75325685025E+03  0.75412851120E+03  0.40812224729E+01 0.  0.
         13    1    3    3    0    0 -0.17403956713E+02 -0.20193835939E+01 -0.33488468796E+03  0.33534270508E+03  0.00000000000E+00 0.  1.
          1    1    3    3  501    0 -0.18592384634E+02  0.78003715895E+00 -0.41837216229E+03  0.41878580612E+03  0.00000000000E+00 0.  1.
         -3    1    1    2    0  502  0.35996341348E+02  0.12393464350E+01 -0.24499059778E+03  0.24762404077E+03  0.00000000000E+00 0. -1.
<mgrwt>
<rscale>  1 0.30000000E+03</rscale>
<asrwt>0</asrwt>
<pdfrwt beam="1">  1       21 0.63729297E-02 0.30000000E+03</pdfrwt>
<pdfrwt beam="2">0</pdfrwt>
<totfact> 0.18987778E+04</totfact>
</mgrwt>
</event>
<event>
 6    1  0.1284012E-001  0.3000000E+03  0.7818608E-02  0.1093470E+00
         21   -1    0    0  501  502  0.00000000000E+00  0.00000000000E+00  0.15476417352E+01  0.15476417352E+01  0.00000000000E+00 0. -1.
         13   -1    0    0    0    0 -0.00000000000E+00 -0.00000000000E+00 -0.10000000000E+04  0.10000000000E+04  0.00000000000E+00 0.  1.
    9000005    2    1    2  501    0  0.12311468448E+02 -0.35417965723E+02 -0.64921271234E+03  0.65030081280E+03  0.28278460164E+01 0.  0.
         13    1    3    3    0    0  0.53208247154E+01 -0.19594701922E+02 -0.35171394799E+03  0.35229953837E+03  0.00000000000E+00 0.  1.
          1    1    3    3  501    0  0.69906437325E+01 -0.15823263802E+02 -0.29749876435E+03  0.29800127444E+03  0.00000000000E+00 0.  1.
         -1    1    1    2    0  502 -0.12311468448E+02  0.35417965723E+02 -0.34923964592E+03  0.35124682893E+03  0.00000000000E+00 0. -1.
<mgrwt>
<rscale>  1 0.30000000E+03</rscale>
<asrwt>0</asrwt>
<pdfrwt beam="1">  1       21 0.56278000E-02 0.30000000E+03</pdfrwt>
<pdfrwt beam="2">0</pdfrwt>
<totfact> 0.23528114E+04</totfact>
</mgrwt>
</event>
<event>
 6    1  0.1284012E-001  0.3000000E+03  0.7818608E-02  0.1093470E+00
         21   -1    0    0  501  502  0.00000000000E+00  0.00000000000E+00  0.64637900625E+01  0.64637900625E+01  0.00000000000E+00 0. -1.
         13   -1    0    0    0    0 -0.00000000000E+00 -0.00000000000E+00 -0.10000000000E+04  0.10000000000E+04  0.00000000000E+00 0.  1.
    9000005    2    1    2  501    0 -0.76562340547E+01  0.52450591795E+02 -0.87496397472E+03  0.87658285434E+03  0.50853678644E+01 0.  0.
         13    1    3    3    0    0 -0.71283916016E+01  0.42603721962E+02 -0.68129624968E+03  0.68266424465E+03  0.00000000000E+00 0.  1.
          1    1    3    3  501    0 -0.52784245306E+00  0.98468698333E+01 -0.19366772504E+03  0.19391860969E+03  0.00000000000E+00 0.  1.
         -3    1    1    2    0  502  0.76562340547E+01 -0.52450591795E+02 -0.11857223522E+03  0.12988093572E+03  0.00000000000E+00 0. -1.
<mgrwt>
<rscale>  1 0.30000000E+03</rscale>
<asrwt>0</asrwt>
<pdfrwt beam="1">  1       21 0.23504741E-01 0.30000000E+03</pdfrwt>
<pdfrwt beam="2">0</pdfrwt>
<totfact> 0.17587304E+03</totfact>
</mgrwt>
</event>
<event>
 6    1  0.1284012E-001  0.3000000E+03  0.7818608E-02  0.1093470E+00
         21   -1    0    0  501  502  0.00000000000E+00  0.00000000000E+00  0.17864104069E+01  0.17864104069E+01  0.00000000000E+00 0. -1.
         13   -1    0    0    0    0 -0.00000000000E+00 -0.00000000000E+00 -0.10000000000E+04  0.10000000000E+04  0.00000000000E+00 0.  1.
    9000005    2    1    2  501    0  0.32913174050E+02 -0.26408550303E+02 -0.48753210238E+03  0.48936444568E+03  0.30530782530E+01 0.  0.
         13    1    3    3    0    0  0.23468586459E+02 -0.20107566611E+02 -0.34568180302E+03  0.34706051018E+03  0.00000000000E+00 0.  1.
          3    1    3    3  501    0  0.94445875910E+01 -0.63009836923E+01 -0.14185029936E+03  0.14230393550E+03  0.00000000000E+00 0.  1.
         -3    1    1    2    0  502 -0.32913174050E+02  0.26408550303E+02 -0.51068148722E+03  0.51242196473E+03  0.00000000000E+00 0. -1.
<mgrwt>
<rscale>  1 0.30000000E+03</rscale>
<asrwt>0</asrwt>
<pdfrwt beam="1">  1       21 0.64960515E-02 0.30000000E+03</pdfrwt>
<pdfrwt beam="2">0</pdfrwt>
<totfact> 0.18369360E+04</totfact>
</mgrwt>
</event>
<event>
 6    1  0.1284012E-001  0.3000000E+03  0.7818608E-02  0.1093470E+00
         21   -1    0    0  501  502  0.00000000000E+00  0.00000000000E+00  0.16066866481E+01  0.16066866481E+01  0.00000000000E+00 0. -1.
         13   -1    0    0    0    0 -0.00000000000E+00 -0.00000000000E+00 -0.10000000000E+04  0.10000000000E+04  0.00000000000E+00 0.  1.
    9000005    2    1    2  501    0 -0.21122936085E+02  0.24767828695E+02 -0.78834637760E+03  0.78905236657E+03  0.73486284464E+01 0.  0.
         13    1    3    3    0    0 -0.72543949727E+01  0.87872331917E+01 -0.19869648703E+03  0.19902295263E+03  0.00000000000E+00 0.  1.
          3    1    3    3  501    0 -0.13868541112E+02  0.15980595503E+02 -0.58964989057E+03  0.59002941394E+03  0.00000000000E+00 0.  1.
         -1    1    1    2    0  502  0.21122936085E+02 -0.24767828695E+02 -0.21004693575E+03  0.21255432008E+03  0.00000000000E+00 0. -1.
<mgrwt>
<rscale>  1 0.30000000E+03</rscale>
<asrwt>0</asrwt>
<pdfrwt beam="1">  1       21 0.58425092E-02 0.30000000E+03</pdfrwt>
<pdfrwt beam="2">0</pdfrwt>
<totfact> 0.22060312E+04</totfact>
</mgrwt>
</event>
<event>
 6    1  0.1284012E-001  0.3000000E+03  0.7818608E-02  0.1093470E+00
         21   -1    0    0  501  502  0.00000000000E+00  0.00000000000E+00  0.97606682996E+00  0.97606682996E+00  0.00000000000E+00 0. -1.
         13   -1    0    0    0    0 -0.00000000000E+00 -0.00000000000E+00 -0.10000000000E+04  0.10000000000E+04  0.00000000000E+00 0.  1.
    9000005    2    1    2  501    0  0.29377881478E+02 -0.62131863403E+01 -0.63119781737E+03  0.63192632076E+03  0.43042561191E+01 0.  0.
         13    1    3    3    0    0  0.31729493484E+01 -0.19057238513E+01 -0.63644515200E+02  0.63752048641E+02  0.00000000000E+00 0.  1.
          3    1    3    3  501    0  0.26204932130E+02 -0.43074624890E+01 -0.56755330217E+03  0.56817427212E+03  0.00000000000E+00 0.  1.
         -1    1    1    2    0  502 -0.29377881478E+02  0.62131863403E+01 -0.36782611580E+03  0.36904974607E+03  0.00000000000E+00 0. -1.
<mgrwt>
<rscale>  1 0.30000000E+03</rscale>
<asrwt>0</asrwt>
<pdfrwt beam="1">  1       21 0.35493414E-02 0.30000000E+03</pdfrwt>
<pdfrwt beam="2">0</pdfrwt>
<totfact> 0.51397133E+04</totfact>
</mgrwt>
</event>
<event>
 6    1  0.1284012E-001  0.3000000E+03  0.7818608E-02  0.1093470E+00
         21   -1    0    0  501  502  0.00000000000E+00  0.00000000000E+00  0.16733282935E+01  0.16733282935E+01  0.00000000000E+00 0. -1.
         13   -1    0    0    0    0 -0.00000000000E+00 -0.00000000000E+00 -0.10000000000E+04  0.10000000000E+04  0.00000000000E+00 0.  1.
    9000005    2    1    2  501    0 -0.34938401948E+02  0.63151389590E+01 -0.74516841804E+03  0.74603750469E+03  0.59509870562E+01 0.  0.
         13    1    3    3    0    0 -0.23327073384E+02  0.57064864408E+01 -0.54876345274E+03  0.54928867037E+03  0.00000000000E+00 0.  1.
          3    1    3    3  501    0 -0.11611328564E+02  0.60865251825E+00 -0.19640496530E+03  0.19674883431E+03  0.00000000000E+00 0.  1.
         -1    1    1    2    0  502  0.34938401948E+02 -0.63151389590E+01 -0.25315825367E+03  0.25563582361E+03  0.00000000000E+00 0. -1.
<mgrwt>
<rscale>  1 0.30000000E+03</rscale>
<asrwt>0</asrwt>
<pdfrwt beam="1">  1       21 0.60848430E-02 0.30000000E+03</pdfrwt>
<pdfrwt beam="2">0</pdfrwt>
<totfact> 0.20567371E+04</totfact>
</mgrwt>
</event>
<event>
 6    1  0.1284012E-001  0.3000000E+03  0.7818608E-02  0.1093470E+00
         21   -1    0    0  501  502  0.00000000000E+00  0.00000000000E+00  0.58435632490E+01  0.58435632490E+01  0.00000000000E+00 0. -1.
         13   -1    0    0    0    0 -0.00000000000E+00 -0.00000000000E+00 -0.10000000000E+04  0.10000000000E+04  0.00000000000E+00 0.  1.
    9000005    2    1    2  501    0 -0.40527376202E+02  0.11819408270E+02 -0.91630519530E+03  0.91728294882E+03  0.32604626121E+01 0.  0.
         13    1    3    3    0    0 -0.76723710151E+01  0.13527821211E+01 -0.19010237088E+03  0.19026194237E+03  0.00000000000E+00 0.  1.
          1    1    3    3  501    0 -0.32855005187E+02  0.10466626149E+02 -0.72620282442E+03  0.72702100645E+03  0.00000000000E+00 0.  1.
         -1    1    1    2    0  502  0.40527376202E+02 -0.11819408270E+02 -0.77851241447E+02  0.88560614432E+02  0.00000000000E+00 0. -1.
<mgrwt>
<rscale>  1 0.30000000E+03</rscale>
<asrwt>0</asrwt>
<pdfrwt beam="1">  1       21 0.21249366E-01 0.30000000E+03</pdfrwt>
<pdfrwt beam="2">0</pdfrwt>
<totfact> 0.21365008E+03</totfact>
</mgrwt>
</event>
<event>
 6    1  0.1284012E-001  0.3000000E+03  0.7818608E-02  0.1093470E+00
         21   -1    0    0  501  502  0.00000000000E+00  0.00000000000E+00  0.39778950804E+01  0.39778950804E+01  0.00000000000E+00 0. -1.
         13   -1    0    0    0    0 -0.00000000000E+00 -0.00000000000E+00 -0.10000000000E+04  0.10000000000E+04  0.00000000000E+00 0.  1.
    9000005    2    1    2  501    0  0.50920068499E+02 -0.15653816535E+02 -0.76638708836E+03  0.76824470654E+03  0.35867223338E+01 0.  0.
         13    1    3    3    0    0  0.15699787087E+02 -0.41935786038E+01 -0.21217827879E+03  0.21279965087E+03  0.00000000000E+00 0.  1.
          1    1    3    3  501    0  0.35220281413E+02 -0.11460237931E+02 -0.55420880956E+03  0.55544505567E+03  0.00000000000E+00 0.  1.
         -3    1    1    2    0  502 -0.50920068499E+02  0.15653816535E+02 -0.22963501656E+03  0.23573318854E+03  0.00000000000E+00 0. -1.
<mgrwt>
<rscale>  1 0.30000000E+03</rscale>
<asrwt>0</asrwt>
<pdfrwt beam="1">  1       21 0.14465104E-01 0.30000000E+03</pdfrwt>
<pdfrwt beam="2">0</pdfrwt>
<totfact> 0.44036959E+03</totfact>
</mgrwt>
</event>
<event>
 6    1  0.1284012E-001  0.3000000E+03  0.7818608E-02  0.1093470E+00
         21   -1    0    0  501  502  0.00000000000E+00  0.00000000000E+00  0.37930061569E+01  0.37930061569E+01  0.00000000000E+00 0. -1.
         13   -1    0    0    0    0 -0.00000000000E+00 -0.00000000000E+00 -0.10000000000E+04  0.10000000000E+04  0.00000000000E+00 0.  1.
    9000005    2    1    2  501    0  0.39611308021E+01 -0.52030284420E+02 -0.76407755990E+03  0.76587092824E+03  0.45738537239E+01 0.  0.
         13    1    3    3    0    0  0.14959586967E+01 -0.35162311288E+02 -0.48782732784E+03  0.48909521344E+03  0.00000000000E+00 0.  1.
          1    1    3    3  501    0  0.24651721053E+01 -0.16867973132E+02 -0.27625023206E+03  0.27677571480E+03  0.00000000000E+00 0.  1.
         -3    1    1    2    0  502 -0.39611308021E+01  0.52030284420E+02 -0.23212943395E+03  0.23792207791E+03  0.00000000000E+00 0. -1.
<mgrwt>
<rscale>  1 0.30000000E+03</rscale>
<asrwt>0</asrwt>
<pdfrwt beam="1">  1       21 0.13792779E-01 0.30000000E+03</pdfrwt>
<pdfrwt beam="2">0</pdfrwt>
<totfact> 0.48064926E+03</totfact>
</mgrwt>
</event>
<event>
 6    1  0.1284012E-001  0.3000000E+03  0.7818608E-02  0.1093470E+00
         21   -1    0    0  501  502  0.00000000000E+00  0.00000000000E+00  0.27492313944E+01  0.27492313944E+01  0.00000000000E+00 0. -1.
         13   -1    0    0    0    0 -0.00000000000E+00 -0.00000000000E+00 -0.10000000000E+04  0.10000000000E+04  0.00000000000E+00 0.  1.
    9000005    2    1    2  501    0 -0.40580240777E+02 -0.32522922989E+02 -0.55461990859E+03  0.55707381733E+03  0.48475242562E+01 0.  0.
         13    1    3    3    0    0 -0.80981914564E+01 -0.62295806306E+01 -0.13086953495E+03  0.13126775521E+03  0.00000000000E+00 0.  1.
          1    1    3    3  501    0 -0.32482049321E+02 -0.26293342358E+02 -0.42375037364E+03  0.42580606212E+03  0.00000000000E+00 0.  1.
         -3    1    1    2    0  502  0.40580240777E+02  0.32522922989E+02 -0.44263086002E+03  0.44567541406E+03  0.00000000000E+00 0. -1.
<mgrwt>
<rscale>  1 0.30000000E+03</rscale>
<asrwt>0</asrwt>
<pdfrwt beam="1">  1       21 0.99972262E-02 0.30000000E+03</pdfrwt>
<pdfrwt beam="2">0</pdfrwt>
<totfact> 0.86074634E+03</totfact>
</mgrwt>
</event>
<event>
 6    1  0.1284012E-001  0.3000000E+03  0.7818608E-02  0.1093470E+00
         21   -1    0    0  501  502  0.00000000000E+00  0.00000000000E+00  0.66688096442E+01  0.66688096442E+01  0.00000000000E+00 0. -1.
         13   -1    0    0    0    0 -0.00000000000E+00 -0.00000000000E+00 -0.10000000000E+04  0.10000000000E+04  0.00000000000E+00 0.  1.
    9000005    2    1    2  501    0  0.36601486110E+02 -0.35513527284E+02 -0.88928142080E+03  0.89079286757E+03  0.94661575628E+01 0.  0.
         13    1    3    3    0    0  0.18529133500E+02 -0.15585114190E+02 -0.49753726931E+03  0.49812604723E+03  0.00000000000E+00 0.  1.
          1    1    3    3  501    0  0.18072352610E+02 -0.19928413095E+02 -0.39174415148E+03  0.39266682034E+03  0.00000000000E+00 0.  1.
         -1    1    1    2    0  502 -0.36601486110E+02  0.35513527284E+02 -0.10404976956E+03  0.11587594207E+03  0.00000000000E+00 0. -1.
<mgrwt>
<rscale>  1 0.30000000E+03</rscale>
<asrwt>0</asrwt>
<pdfrwt beam="1">  1       21 0.24250268E-01 0.30000000E+03</pdfrwt>
<pdfrwt beam="2">0</pdfrwt>
<totfact> 0.16551389E+03</totfact>
</mgrwt>
</event>
<event>
 6    1  0.1284012E-001  0.3000000E+03  0.7818608E-02  0.1093470E+00
         21   -1    0    0  501  502  0.00000000000E+00  0.00000000000E+00  0.14033568817E+01  0.14033568817E+01  0.00000000000E+00 0. -1.
         13   -1    0    0    0    0 -0.00000000000E+00 -0.00000000000E+00 -0.10000000000E+04  0.10000000000E+04  0.00000000000E+00 0.  1.
    9000005    2    1    2  501    0 -0.30925600536E+02 -0.57611956086E+01 -0.76997541332E+03  0.77062803138E+03  0.39801377749E+01 0.  0.
         13    1    3    3    0    0 -0.12580598120E+02 -0.60610821496E+00 -0.32944031760E+03  0.32968099987E+03  0.00000000000E+00 0.  1.
          3    1    3    3  501    0 -0.18345002415E+02 -0.51550873936E+01 -0.44053509572E+03  0.44094703151E+03  0.00000000000E+00 0.  1.
         -1    1    1    2    0  502  0.30925600536E+02  0.57611956086E+01 -0.22862122980E+03  0.23077532550E+03  0.00000000000E+00 0. -1.
<mgrwt>
<rscale>  1 0.30000000E+03</rscale>
<asrwt>0</asrwt>
<pdfrwt beam="1">  1       21 0.51031267E-02 0.30000000E+03</pdfrwt>
<pdfrwt beam="2">0</pdfrwt>
<totfact> 0.27818913E+04</totfact>
</mgrwt>
</event>
<event>
 6    1  0.1284012E-001  0.3000000E+03  0.7818608E-02  0.1093470E+00
         21   -1    0    0  501  502  0.00000000000E+00  0.00000000000E+00  0.10677144191E+01  0.10677144191E+01  0.00000000000E+00 0. -1.
         13   -1    0    0    0    0 -0.00000000000E+00 -0.00000000000E+00 -0.10000000000E+04  0.10000000000E+04  0.00000000000E+00 0.  1.
    9000005    2    1    2  501    0 -0.10552321551E+02  0.30795414435E+02 -0.51433816640E+03  0.51538142741E+03  0.38153986609E+01 0.  0.
         13    1    3    3    0    0 -0.68759761247E+01  0.19628000344E+02 -0.35637104899E+03  0.35697739704E+03  0.00000000000E+00 0.  1.
          3    1    3    3  501    0 -0.36763454263E+01  0.11167414091E+02 -0.15796711741E+03  0.15840403037E+03  0.00000000000E+00 0.  1.
         -1    1    1    2    0  502  0.10552321551E+02 -0.30795414435E+02 -0.48459411918E+03  0.48568628701E+03  0.00000000000E+00 0. -1.
<mgrwt>
<rscale>  1 0.30000000E+03</rscale>
<asrwt>0</asrwt>
<pdfrwt beam="1">  1       21 0.38826061E-02 0.30000000E+03</pdfrwt>
<pdfrwt beam="2">0</pdfrwt>
<totfact> 0.44208770E+04</totfact>
</mgrwt>
</event>
<event>
 6    1  0.1284012E-001  0.3000000E+03  0.7818608E-02  0.1093470E+00
         21   -1    0    0  501  502  0.00000000000E+00  0.00000000000E+00  0.27705691789E+01  0.27705691789E+01  0.00000000000E+00 0. -1.
         13   -1    0    0    0    0 -0.00000000000E+00 -0.00000000000E+00 -0.10000000000E+04  0.10000000000E+04  0.00000000000E+00 0.  1.
    9000005    2    1    2  501    0 -0.30889738882E+02  0.39158299639E+02 -0.34016989806E+03  0.34382081541E+03  0.31056665619E+01 0.  0.
         13    1    3    3    0    0 -0.30281452496E+02  0.38771946913E+02 -0.33292532347E+03  0.33654048975E+03  0.00000000000E+00 0.  1.
          1    1    3    3  501    0 -0.60828638643E+00  0.38635272571E+00 -0.72445745887E+01  0.72803256609E+01  0.00000000000E+00 0.  1.
         -1    1    1    2    0  502  0.30889738882E+02 -0.39158299639E+02 -0.65705953276E+03  0.65894975377E+03  0.00000000000E+00 0. -1.
<mgrwt>
<rscale>  1 0.30000000E+03</rscale>
<asrwt>0</asrwt>
<pdfrwt beam="1">  1       21 0.10074818E-01 0.30000000E+03</pdfrwt>
<pdfrwt beam="2">0</pdfrwt>
<totfact> 0.84893458E+03</totfact>
</mgrwt>
</event>
<event>
 6    1  0.1284012E-001  0.3000000E+03  0.7818608E-02  0.1093470E+00
         21   -1    0    0  501  502  0.00000000000E+00  0.00000000000E+00  0.32793022207E+01  0.32793022207E+01  0.00000000000E+00 0. -1.
         13   -1    0    0    0    0 -0.00000000000E+00 -0.00000000000E+00 -0.10000000000E+04  0.10000000000E+04  0.00000000000E+00 0.  1.
    9000005    2    1    2  501    0  0.20868569491E+02 -0.42347240337E+02 -0.78196917035E+03  0.78339977955E+03  0.32627080971E+01 0.  0.
         13    1    3    3    0    0  0.21388400257E+00 -0.18427951276E+00 -0.21395856871E+01  0.21581316498E+01  0.00000000000E+00 0.  1.
          3    1    3    3  501    0  0.20654685489E+02 -0.42162960824E+02 -0.77982958467E+03  0.78124164790E+03  0.00000000000E+00 0.  1.
         -1    1    1    2    0  502 -0.20868569491E+02  0.42347240337E+02 -0.21475152742E+03  0.21987952267E+03  0.00000000000E+00 0. -1.
<mgrwt>
<rscale>  1 0.30000000E+03</rscale>
<asrwt>0</asrwt>
<pdfrwt beam="1">  1       21 0.11924760E-01 0.30000000E+03</pdfrwt>
<pdfrwt beam="2">0</pdfrwt>
<totfact> 0.62682412E+03</totfact>
</mgrwt>
</event>
<event>
 6    1  0.1284012E-001  0.3000000E+03  0.7818608E-02  0.1093470E+00
         21   -1    0    0  501  502  0.00000000000E+00  0.00000000000E+00  0.39064901345E+01  0.39064901345E+01  0.00000000000E+00 0. -1.
         13   -1    0    0    0    0 -0.00000000000E+00 -0.00000000000E+00 -0.10000000000E+04  0.10000000000E+04  0.00000000000E+00 0.  1.
    9000005    2    1    2  501    0 -0.33814835013E+02 -0.51727317959E+02 -0.57129343622E+03  0.57463471019E+03  0.31147059621E+01 0.  0.
         13    1    3    3    0    0 -0.11061652657E+02 -0.18690677864E+02 -0.21127021282E+03  0.21238362560E+03  0.00000000000E+00 0.  1.
          1    1    3    3  501    0 -0.22753182356E+02 -0.33036640096E+02 -0.36002322340E+03  0.36225108459E+03  0.00000000000E+00 0.  1.
         -1    1    1    2    0  502  0.33814835013E+02  0.51727317959E+02 -0.42480007365E+03  0.42927177995E+03  0.00000000000E+00 0. -1.
<mgrwt>
<rscale>  1 0.30000000E+03</rscale>
<asrwt>0</asrwt>
<pdfrwt beam="1">  1       21 0.14205449E-01 0.30000000E+03</pdfrwt>
<pdfrwt beam="2">0</pdfrwt>
<totfact> 0.45530724E+03</totfact>
</mgrwt>
</event>
<event>
 6    1  0.1284012E-001  0.3000000E+03  0.7818608E-02  0.1093470E+00
         21   -1    0    0  501  502  0.00000000000E+00  0.00000000000E+00  0.10147970485E+01  0.10147970485E+01  0.00000000000E+00 0. -1.
         13   -1    0    0    0    0 -0.00000000000E+00 -0.00000000000E+00 -0.10000000000E+04  0.10000000000E+04  0.00000000000E+00 0.  1.
    9000005    2    1    2  501    0  0.31585065159E+02  0.15546048865E+01 -0.54835780765E+03  0.54927916359E+03  0.33587511003E+01 0.  0.
         13    1    3    3    0    0  0.17508248634E+02  0.70742419478E+00 -0.27478835636E+03  0.27534647267E+03  0.00000000000E+00 0.  1.
          1    1    3    3  501    0  0.14076816525E+02  0.84718069171E+00 -0.27356945129E+03  0.27393269093E+03  0.00000000000E+00 0.  1.
         -3    1    1    2    0  502 -0.31585065159E+02 -0.15546048865E+01 -0.45062739530E+03  0.45173563346E+03  0.00000000000E+00 0. -1.
<mgrwt>
<rscale>  1 0.30000000E+03</rscale>
<asrwt>0</asrwt>
<pdfrwt beam="1">  1       21 0.36901789E-02 0.30000000E+03</pdfrwt>
<pdfrwt beam="2">0</pdfrwt>
<totfact> 0.48149754E+04</totfact>
</mgrwt>
</event>
<event>
 6    1  0.1284012E-001  0.3000000E+03  0.7818608E-02  0.1093470E+00
         21   -1    0    0  501  502  0.00000000000E+00  0.00000000000E+00  0.43827043241E+01  0.43827043241E+01  0.00000000000E+00 0. -1.
         13   -1    0    0    0    0 -0.00000000000E+00 -0.00000000000E+00 -0.10000000000E+04  0.10000000000E+04  0.00000000000E+00 0.  1.
    9000005    2    1    2  501    0  0.52888041982E+02  0.31787738603E+02 -0.67911532423E+03  0.68192169391E+03  0.34594372866E+01 0.  0.
         13    1    3    3    0    0  0.36946043815E+01  0.29406650341E+01 -0.59949526529E+02  0.60135208850E+02  0.00000000000E+00 0.  1.
          1    1    3    3  501    0  0.49193437601E+02  0.28847073569E+02 -0.61916579770E+03  0.62178648506E+03  0.00000000000E+00 0.  1.
         -3    1    1    2    0  502 -0.52888041982E+02 -0.31787738603E+02 -0.31650197144E+03  0.32246101042E+03  0.00000000000E+00 0. -1.
<mgrwt>
<rscale>  1 0.30000000E+03</rscale>
<asrwt>0</asrwt>
<pdfrwt beam="1">  1       21 0.15937140E-01 0.30000000E+03</pdfrwt>
<pdfrwt beam="2">0</pdfrwt>
<totfact> 0.36795597E+03</totfact>
</mgrwt>
</event>
<event>
 6    1  0.1284012E-001  0.3000000E+03  0.7818608E-02  0.1093470E+00
         21   -1    0    0  501  502  0.00000000000E+00  0.00000000000E+00  0.10143187855E+01  0.10143187855E+01  0.00000000000E+00 0. -1.
         13   -1    0    0    0    0 -0.00000000000E+00 -0.00000000000E+00 -0.10000000000E+04  0.10000000000E+04  0.00000000000E+00 0.  1.
    9000005    2    1    2  501    0 -0.10910282180E+02 -0.29835751535E+02 -0.50039672786E+03  0.50141432806E+03  0.31995004229E+01 0.  0.
         13    1    3    3    0    0 -0.88603442868E+00 -0.60825542015E+01 -0.97028009446E+02  0.97222513544E+02  0.00000000000E+00 0.  1.
          1    1    3    3  501    0 -0.10024247751E+02 -0.23753197333E+02 -0.40336871841E+03  0.40419181451E+03  0.00000000000E+00 0.  1.
         -1    1    1    2    0  502  0.10910282180E+02  0.29835751535E+02 -0.49858895336E+03  0.49959999073E+03  0.00000000000E+00 0. -1.
<mgrwt>
<rscale>  1 0.30000000E+03</rscale>
<asrwt>0</asrwt>
<pdfrwt beam="1">  1       21 0.36884397E-02 0.30000000E+03</pdfrwt>
<pdfrwt beam="2">0</pdfrwt>
<totfact> 0.48187862E+04</totfact>
</mgrwt>
</event>
<event>
 6    1  0.1284012E-001  0.3000000E+03  0.7818608E-02  0.1093470E+00
         21   -1    0    0  501  502  0.00000000000E+00  0.00000000000E+00  0.14447442444E+01  0.14447442444E+01  0.00000000000E+00 0. -1.
         13   -1    0    0    0    0 -0.00000000000E+00 -0.00000000000E+00 -0.10000000000E+04  0.10000000000E+04  0.00000000000E+00 0.  1.
    9000005    2    1    2  501    0 -0.44516598973E+01 -0.29690026247E+02 -0.80552446225E+03  0.80609326056E+03  0.39205242953E+01 0.  0.
         13    1    3    3    0    0 -0.14140211988E+01 -0.13936574007E+02 -0.42482500408E+03  0.42505589238E+03  0.00000000000E+00 0.  1.
          1    1    3    3  501    0 -0.30376386985E+01 -0.15753452239E+02 -0.38069945816E+03  0.38103736818E+03  0.00000000000E+00 0.  1.
         -3    1    1    2    0  502  0.44516598973E+01  0.29690026247E+02 -0.19303079351E+03  0.19535148368E+03  0.00000000000E+00 0. -1.
<mgrwt>
<rscale>  1 0.30000000E+03</rscale>
<asrwt>0</asrwt>
<pdfrwt beam="1">  1       21 0.52536265E-02 0.30000000E+03</pdfrwt>
<pdfrwt beam="2">0</pdfrwt>
<totfact> 0.26471668E+04</totfact>
</mgrwt>
</event>
<event>
 6    1  0.1284012E-001  0.3000000E+03  0.7818608E-02  0.1093470E+00
         21   -1    0    0  501  502  0.00000000000E+00  0.00000000000E+00  0.10172418035E+02  0.10172418035E+02  0.00000000000E+00 0. -1.
         13   -1    0    0    0    0 -0.00000000000E+00 -0.00000000000E+00 -0.10000000000E+04  0.10000000000E+04  0.00000000000E+00 0.  1.
    9000005    2    1    2  501    0 -0.23600766563E+02 -0.23118728079E+02 -0.97212495577E+03  0.97269102606E+03  0.30709561482E+01 0.  0.
         13    1    3    3    0    0 -0.16101952575E+02 -0.16204420564E+02 -0.71115699846E+03  0.71152381027E+03  0.00000000000E+00 0.  1.
          3    1    3    3  501    0 -0.74988139880E+01 -0.69143075150E+01 -0.26096795731E+03  0.26116721579E+03  0.00000000000E+00 0.  1.
         -3    1    1    2    0  502  0.23600766563E+02  0.23118728079E+02 -0.17702626194E+02  0.37481391976E+02  0.00000000000E+00 0. -1.
<mgrwt>
<rscale>  1 0.30000000E+03</rscale>
<asrwt>0</asrwt>
<pdfrwt beam="1">  1       21 0.36990689E-01 0.30000000E+03</pdfrwt>
<pdfrwt beam="2">0</pdfrwt>
<totfact> 0.71036952E+02</totfact>
</mgrwt>
</event>
<event>
 6    1  0.1284012E-001  0.3000000E+03  0.7818608E-02  0.1093470E+00
         21   -1    0    0  501  502  0.00000000000E+00  0.00000000000E+00  0.88610621673E+01  0.88610621673E+01  0.00000000000E+00 0. -1.
         13   -1    0    0    0    0 -0.00000000000E+00 -0.00000000000E+00 -0.10000000000E+04  0.10000000000E+04  0.00000000000E+00 0.  1.
    9000005    2    1    2  501    0 -0.16462858168E+02 -0.29612967168E+02 -0.96618310063E+03  0.96678081342E+03  0.27209828149E+01 0.  0.
         13    1    3    3    0    0 -0.11255460048E+02 -0.20844813165E+02 -0.70879743019E+03  0.70919319559E+03  0.00000000000E+00 0.  1.
          1    1    3    3  501    0 -0.52073981202E+01 -0.87681540037E+01 -0.25738567043E+03  0.25758761784E+03  0.00000000000E+00 0.  1.
         -1    1    1    2    0  502  0.16462858168E+02  0.29612967168E+02 -0.24955837208E+02  0.42080248743E+02  0.00000000000E+00 0. -1.
<mgrwt>
<rscale>  1 0.30000000E+03</rscale>
<asrwt>0</asrwt>
<pdfrwt beam="1">  1       21 0.32222112E-01 0.30000000E+03</pdfrwt>
<pdfrwt beam="2">0</pdfrwt>
<totfact> 0.94169974E+02</totfact>
</mgrwt>
</event>
<event>
 6    1  0.1284012E-001  0.3000000E+03  0.7818608E-02  0.1093470E+00
         21   -1    0    0  501  502  0.00000000000E+00  0.00000000000E+00  0.10711832599E+01  0.10711832599E+01  0.00000000000E+00 0. -1.
         13   -1    0    0    0    0 -0.00000000000E+00 -0.00000000000E+00 -0.10000000000E+04  0.10000000000E+04  0.00000000000E+00 0.  1.
    9000005    2    1    2  501    0  0.29775124817E+02  0.13434397687E+02 -0.49171386485E+03  0.49280545697E+03  0.27663035907E+01 0.  0.
         13    1    3    3    0    0  0.26043915968E+02  0.11660042241E+02 -0.41439811035E+03  0.41537938803E+03  0.00000000000E+00 0.  1.
          1    1    3    3  501    0  0.37312088487E+01  0.17743554458E+01 -0.77315754500E+02  0.77426068934E+02  0.00000000000E+00 0.  1.
         -3    1    1    2    0  502 -0.29775124817E+02 -0.13434397687E+02 -0.50721495189E+03  0.50826572629E+03  0.00000000000E+00 0. -1.
<mgrwt>
<rscale>  1 0.30000000E+03</rscale>
<asrwt>0</asrwt>
<pdfrwt beam="1">  1       21 0.38952201E-02 0.30000000E+03</pdfrwt>
<pdfrwt beam="2">0</pdfrwt>
<totfact> 0.43968268E+04</totfact>
</mgrwt>
</event>
<event>
 6    1  0.1284012E-001  0.3000000E+03  0.7818608E-02  0.1093470E+00
         21   -1    0    0  501  502  0.00000000000E+00  0.00000000000E+00  0.59902362266E+02  0.59902362266E+02  0.00000000000E+00 0. -1.
         13   -1    0    0    0    0 -0.00000000000E+00 -0.00000000000E+00 -0.10000000000E+04  0.10000000000E+04  0.00000000000E+00 0.  1.
    9000005    2    1    2  501    0 -0.16686556025E+03  0.16375298464E+03 -0.31335135434E+03  0.39097033364E+03  0.30944048358E+01 0.  0.
         13    1    3    3    0    0 -0.13537002947E+01  0.12050302637E+01 -0.28834976786E+01  0.34057541436E+01  0.00000000000E+00 0.  1.
          1    1    3    3  501    0 -0.16551185995E+03  0.16254795438E+03 -0.31046785666E+03  0.38756457949E+03  0.00000000000E+00 0.  1.
         -1    1    1    2    0  502  0.16686556025E+03 -0.16375298464E+03 -0.62674628340E+03  0.66893202863E+03  0.00000000000E+00 0. -1.
<mgrwt>
<rscale>  1 0.30000000E+03</rscale>
<asrwt>0</asrwt>
<pdfrwt beam="1">  1       21 0.21782723E+00 0.30000000E+03</pdfrwt>
<pdfrwt beam="2">0</pdfrwt>
<totfact> 0.69762461E+00</totfact>
</mgrwt>
</event>
<event>
 6    1  0.1284012E-001  0.3000000E+03  0.7818608E-02  0.1093470E+00
         21   -1    0    0  501  502  0.00000000000E+00  0.00000000000E+00  0.11466566532E+01  0.11466566532E+01  0.00000000000E+00 0. -1.
         13   -1    0    0    0    0 -0.00000000000E+00 -0.00000000000E+00 -0.10000000000E+04  0.10000000000E+04  0.00000000000E+00 0.  1.
    9000005    2    1    2  501    0  0.24673754980E+02 -0.22047140010E+02 -0.59667429206E+03  0.59760872800E+03  0.45946065702E+01 0.  0.
         13    1    3    3    0    0  0.23548458085E+02 -0.19474047742E+02 -0.53768721910E+03  0.53855483844E+03  0.00000000000E+00 0.  1.
          3    1    3    3  501    0  0.11252968947E+01 -0.25730922681E+01 -0.58987072953E+02  0.59053889563E+02  0.00000000000E+00 0.  1.
         -1    1    1    2    0  502 -0.24673754980E+02  0.22047140010E+02 -0.40217905129E+03  0.40353792865E+03  0.00000000000E+00 0. -1.
<mgrwt>
<rscale>  1 0.30000000E+03</rscale>
<asrwt>0</asrwt>
<pdfrwt beam="1">  1       21 0.41696693E-02 0.30000000E+03</pdfrwt>
<pdfrwt beam="2">0</pdfrwt>
<totfact> 0.39203233E+04</totfact>
</mgrwt>
</event>
<event>
 6    1  0.1284012E-001  0.3000000E+03  0.7818608E-02  0.1093470E+00
         21   -1    0    0  501  502  0.00000000000E+00  0.00000000000E+00  0.24783322213E+01  0.24783322213E+01  0.00000000000E+00 0. -1.
         13   -1    0    0    0    0 -0.00000000000E+00 -0.00000000000E+00 -0.10000000000E+04  0.10000000000E+04  0.00000000000E+00 0.  1.
    9000005    2    1    2  501    0  0.45950554851E+02  0.15323027728E+02 -0.61388954275E+03  0.61580035765E+03  0.18604046686E+01 0.  0.
         13    1    3    3    0    0  0.81941616118E+01  0.32501477811E+01 -0.10518578893E+03  0.10555452590E+03  0.00000000000E+00 0.  1.
          1    1    3    3  501    0  0.37756393240E+02  0.12072879947E+02 -0.50870375382E+03  0.51024583175E+03  0.00000000000E+00 0.  1.
         -1    1    1    2    0  502 -0.45950554851E+02 -0.15323027728E+02 -0.38363212502E+03  0.38667797457E+03  0.00000000000E+00 0. -1.
<mgrwt>
<rscale>  1 0.30000000E+03</rscale>
<asrwt>0</asrwt>
<pdfrwt beam="1">  1       21 0.90121362E-02 0.30000000E+03</pdfrwt>
<pdfrwt beam="2">0</pdfrwt>
<totfact> 0.10353341E+04</totfact>
</mgrwt>
</event>
<event>
 6    1  0.1284012E-001  0.3000000E+03  0.7818608E-02  0.1093470E+00
         21   -1    0    0  501  502  0.00000000000E+00  0.00000000000E+00  0.25244043062E+01  0.25244043062E+01  0.00000000000E+00 0. -1.
         13   -1    0    0    0    0 -0.00000000000E+00 -0.00000000000E+00 -0.10000000000E+04  0.10000000000E+04  0.00000000000E+00 0.  1.
    9000005    2    1    2  501    0  0.24859025664E+02  0.42271235376E+02 -0.60533161337E+03  0.60732605996E+03  0.37084323165E+01 0.  0.
         13    1    3    3    0    0  0.14168565336E+02  0.24736699008E+02 -0.37381754861E+03  0.37490293700E+03  0.00000000000E+00 0.  1.
          3    1    3    3  501    0  0.10690460329E+02  0.17534536368E+02 -0.23151406476E+03  0.23242312297E+03  0.00000000000E+00 0.  1.
         -1    1    1    2    0  502 -0.24859025664E+02 -0.42271235376E+02 -0.39214398233E+03  0.39519834434E+03  0.00000000000E+00 0. -1.
<mgrwt>
<rscale>  1 0.30000000E+03</rscale>
<asrwt>0</asrwt>
<pdfrwt beam="1">  1       21 0.91796714E-02 0.30000000E+03</pdfrwt>
<pdfrwt beam="2">0</pdfrwt>
<totfact> 0.10020614E+04</totfact>
</mgrwt>
</event>
<event>
 6    1  0.1284012E-001  0.3000000E+03  0.7818608E-02  0.1093470E+00
         21   -1    0    0  501  502  0.00000000000E+00  0.00000000000E+00  0.13755508335E+01  0.13755508335E+01  0.00000000000E+00 0. -1.
         13   -1    0    0    0    0 -0.00000000000E+00 -0.00000000000E+00 -0.10000000000E+04  0.10000000000E+04  0.00000000000E+00 0.  1.
    9000005    2    1    2  501    0 -0.39249644810E+01  0.33223168110E+02 -0.71447687777E+03  0.71526538573E+03  0.28598791930E+01 0.  0.
         13    1    3    3    0    0 -0.14107420666E+00  0.13077939084E+02 -0.27797429359E+03  0.27828180014E+03  0.00000000000E+00 0.  1.
          3    1    3    3  501    0 -0.37838902743E+01  0.20145229026E+02 -0.43650258418E+03  0.43698358559E+03  0.00000000000E+00 0.  1.
         -1    1    1    2    0  502  0.39249644810E+01 -0.33223168110E+02 -0.28414757139E+03  0.28611016510E+03  0.00000000000E+00 0. -1.
<mgrwt>
<rscale>  1 0.30000000E+03</rscale>
<asrwt>0</asrwt>
<pdfrwt beam="1">  1       21 0.50020136E-02 0.30000000E+03</pdfrwt>
<pdfrwt beam="2">0</pdfrwt>
<totfact> 0.28784891E+04</totfact>
</mgrwt>
</event>
<event>
 6    1  0.1284012E-001  0.3000000E+03  0.7818608E-02  0.1093470E+00
         21   -1    0    0  501  502  0.00000000000E+00  0.00000000000E+00  0.28096430135E+01  0.28096430135E+01  0.00000000000E+00 0. -1.
         13   -1    0    0    0    0 -0.00000000000E+00 -0.00000000000E+00 -0.10000000000E+04  0.10000000000E+04  0.00000000000E+00 0.  1.
    9000005    2    1    2  501    0 -0.42726330690E+02 -0.16724310829E+02 -0.74925616264E+03  0.75066562339E+03  0.29730412567E+01 0.  0.
         13    1    3    3    0    0 -0.29609636142E+02 -0.10569337954E+02 -0.49621479257E+03  0.49720977647E+03  0.00000000000E+00 0.  1.
          3    1    3    3  501    0 -0.13116694548E+02 -0.61549728759E+01 -0.25304137008E+03  0.25345584692E+03  0.00000000000E+00 0.  1.
         -1    1    1    2    0  502  0.42726330690E+02  0.16724310829E+02 -0.24793419434E+03  0.25214401962E+03  0.00000000000E+00 0. -1.
<mgrwt>
<rscale>  1 0.30000000E+03</rscale>
<asrwt>0</asrwt>
<pdfrwt beam="1">  1       21 0.10216905E-01 0.30000000E+03</pdfrwt>
<pdfrwt beam="2">0</pdfrwt>
<totfact> 0.82793603E+03</totfact>
</mgrwt>
</event>
<event>
 6    1  0.1284012E-001  0.3000000E+03  0.7818608E-02  0.1093470E+00
         21   -1    0    0  501  502  0.00000000000E+00  0.00000000000E+00  0.33633133945E+01  0.33633133945E+01  0.00000000000E+00 0. -1.
         13   -1    0    0    0    0 -0.00000000000E+00 -0.00000000000E+00 -0.10000000000E+04  0.10000000000E+04  0.00000000000E+00 0.  1.
    9000005    2    1    2  501    0  0.46482016892E+02  0.12057105373E+02 -0.77863800908E+03  0.78013837059E+03  0.57250684147E+01 0.  0.
         13    1    3    3    0    0  0.12107743134E+02  0.18913563388E+01 -0.16516852098E+03  0.16562250751E+03  0.00000000000E+00 0.  1.
          3    1    3    3  501    0  0.34374273758E+02  0.10165749034E+02 -0.61346948810E+03  0.61451586308E+03  0.00000000000E+00 0.  1.
         -1    1    1    2    0  502 -0.46482016892E+02 -0.12057105373E+02 -0.21799867753E+03  0.22322494280E+03  0.00000000000E+00 0. -1.
<mgrwt>
<rscale>  1 0.30000000E+03</rscale>
<asrwt>0</asrwt>
<pdfrwt beam="1">  1       21 0.12230256E-01 0.30000000E+03</pdfrwt>
<pdfrwt beam="2">0</pdfrwt>
<totfact> 0.59867623E+03</totfact>
</mgrwt>
</event>
<event>
 6    1  0.1284012E-001  0.3000000E+03  0.7818608E-02  0.1093470E+00
         21   -1    0    0  501  502  0.00000000000E+00  0.00000000000E+00  0.69564465240E+01  0.69564465240E+01  0.00000000000E+00 0. -1.
         13   -1    0    0    0    0 -0.00000000000E+00 -0.00000000000E+00 -0.10000000000E+04  0.10000000000E+04  0.00000000000E+00 0.  1.
    9000005    2    1    2  501    0 -0.33394535684E+02 -0.26648664983E+02 -0.92889139330E+03  0.92987956274E+03  0.33814629773E+01 0.  0.
         13    1    3    3    0    0 -0.23214075668E+02 -0.19772785779E+02 -0.68698308360E+03  0.68765951860E+03  0.00000000000E+00 0.  1.
          1    1    3    3  501    0 -0.10180460017E+02 -0.68758792042E+01 -0.24190830970E+03  0.24222004414E+03  0.00000000000E+00 0.  1.
         -3    1    1    2    0  502  0.33394535684E+02  0.26648664983E+02 -0.64152160177E+02  0.77076883787E+02  0.00000000000E+00 0. -1.
<mgrwt>
<rscale>  1 0.30000000E+03</rscale>
<asrwt>0</asrwt>
<pdfrwt beam="1">  1       21 0.25296223E-01 0.30000000E+03</pdfrwt>
<pdfrwt beam="2">0</pdfrwt>
<totfact> 0.15240194E+03</totfact>
</mgrwt>
</event>
<event>
 6    1  0.1284012E-001  0.3000000E+03  0.7818608E-02  0.1093470E+00
         21   -1    0    0  501  502  0.00000000000E+00  0.00000000000E+00  0.10750923024E+01  0.10750923024E+01  0.00000000000E+00 0. -1.
         13   -1    0    0    0    0 -0.00000000000E+00 -0.00000000000E+00 -0.10000000000E+04  0.10000000000E+04  0.00000000000E+00 0.  1.
    9000005    2    1    2  501    0  0.24597579729E+02  0.17425600488E+02 -0.69377058568E+03  0.69443547854E+03  0.37836256030E+01 0.  0.
         13    1    3    3    0    0  0.14680572905E+02  0.11715769902E+02 -0.46428302569E+03  0.46466278787E+03  0.00000000000E+00 0.  1.
          1    1    3    3  501    0  0.99170068236E+01  0.57098305862E+01 -0.22948755999E+03  0.22977269067E+03  0.00000000000E+00 0.  1.
         -3    1    1    2    0  502 -0.24597579729E+02 -0.17425600488E+02 -0.30515432202E+03  0.30663961376E+03  0.00000000000E+00 0. -1.
<mgrwt>
<rscale>  1 0.30000000E+03</rscale>
<asrwt>0</asrwt>
<pdfrwt beam="1">  1       21 0.39094348E-02 0.30000000E+03</pdfrwt>
<pdfrwt beam="2">0</pdfrwt>
<totfact> 0.43699695E+04</totfact>
</mgrwt>
</event>
<event>
 6    1  0.1284012E-001  0.3000000E+03  0.7818608E-02  0.1093470E+00
         21   -1    0    0  501  502  0.00000000000E+00  0.00000000000E+00  0.36776685185E+01  0.36776685185E+01  0.00000000000E+00 0. -1.
         13   -1    0    0    0    0 -0.00000000000E+00 -0.00000000000E+00 -0.10000000000E+04  0.10000000000E+04  0.00000000000E+00 0.  1.
    9000005    2    1    2  501    0  0.57652025466E+02  0.12344474026E+01 -0.65277347593E+03  0.65532282636E+03  0.30847977388E+01 0.  0.
         13    1    3    3    0    0  0.37569596827E+02  0.18407698330E+01 -0.43718190170E+03  0.43879708091E+03  0.00000000000E+00 0.  1.
          1    1    3    3  501    0  0.20082428639E+02 -0.60632243046E+00 -0.21559157423E+03  0.21652574545E+03  0.00000000000E+00 0.  1.
         -3    1    1    2    0  502 -0.57652025466E+02 -0.12344474026E+01 -0.34354885556E+03  0.34835484216E+03  0.00000000000E+00 0. -1.
<mgrwt>
<rscale>  1 0.30000000E+03</rscale>
<asrwt>0</asrwt>
<pdfrwt beam="1">  1       21 0.13373368E-01 0.30000000E+03</pdfrwt>
<pdfrwt beam="2">0</pdfrwt>
<totfact> 0.50863065E+03</totfact>
</mgrwt>
</event>
<event>
 6    1  0.1284012E-001  0.3000000E+03  0.7818608E-02  0.1093470E+00
         21   -1    0    0  501  502  0.00000000000E+00  0.00000000000E+00  0.22719388251E+01  0.22719388251E+01  0.00000000000E+00 0. -1.
         13   -1    0    0    0    0 -0.00000000000E+00 -0.00000000000E+00 -0.10000000000E+04  0.10000000000E+04  0.00000000000E+00 0.  1.
    9000005    2    1    2  501    0 -0.41975863201E+02 -0.74855207703E+01 -0.71653299891E+03  0.71786260502E+03  0.94432541152E+01 0.  0.
         13    1    3    3    0    0 -0.40906706323E+02 -0.56876473905E+01 -0.66001520385E+03  0.66130611464E+03  0.00000000000E+00 0.  1.
          1    1    3    3  501    0 -0.10691568773E+01 -0.17978733798E+01 -0.56517795059E+02  0.56556490374E+02  0.00000000000E+00 0.  1.
         -1    1    1    2    0  502  0.41975863201E+02  0.74855207703E+01 -0.28119506227E+03  0.28440933381E+03  0.00000000000E+00 0. -1.
<mgrwt>
<rscale>  1 0.30000000E+03</rscale>
<asrwt>0</asrwt>
<pdfrwt beam="1">  1       21 0.82616131E-02 0.30000000E+03</pdfrwt>
<pdfrwt beam="2">0</pdfrwt>
<totfact> 0.12071260E+04</totfact>
</mgrwt>
</event>
<event>
 6    1  0.1284012E-001  0.3000000E+03  0.7818608E-02  0.1093470E+00
         21   -1    0    0  501  502  0.00000000000E+00  0.00000000000E+00  0.18836836984E+01  0.18836836984E+01  0.00000000000E+00 0. -1.
         13   -1    0    0    0    0 -0.00000000000E+00 -0.00000000000E+00 -0.10000000000E+04  0.10000000000E+04  0.00000000000E+00 0.  1.
    9000005    2    1    2  501    0 -0.30846458838E+02 -0.74665600935E+01 -0.84013220652E+03  0.84074327137E+03  0.44576200096E+01 0.  0.
         13    1    3    3    0    0 -0.14735081753E+02 -0.35796823136E+01 -0.46017693378E+03  0.46042670116E+03  0.00000000000E+00 0.  1.
          3    1    3    3  501    0 -0.16111377085E+02 -0.38868777799E+01 -0.37995527274E+03  0.38031657021E+03  0.00000000000E+00 0.  1.
         -1    1    1    2    0  502  0.30846458838E+02  0.74665600935E+01 -0.15798410978E+03  0.16114041233E+03  0.00000000000E+00 0. -1.
<mgrwt>
<rscale>  1 0.30000000E+03</rscale>
<asrwt>0</asrwt>
<pdfrwt beam="1">  1       21 0.68497733E-02 0.30000000E+03</pdfrwt>
<pdfrwt beam="2">0</pdfrwt>
<totfact> 0.16755595E+04</totfact>
</mgrwt>
</event>
<event>
 6    1  0.1284012E-001  0.3000000E+03  0.7818608E-02  0.1093470E+00
         21   -1    0    0  501  502  0.00000000000E+00  0.00000000000E+00  0.14233247389E+01  0.14233247389E+01  0.00000000000E+00 0. -1.
         13   -1    0    0    0    0 -0.00000000000E+00 -0.00000000000E+00 -0.10000000000E+04  0.10000000000E+04  0.00000000000E+00 0.  1.
    9000005    2    1    2  501    0 -0.29929394819E+02  0.12749404758E+02 -0.75178036520E+03  0.75249214016E+03  0.35195890302E+01 0.  0.
         13    1    3    3    0    0 -0.14744260359E+02  0.51014617152E+01 -0.32804484024E+03  0.32841564417E+03  0.00000000000E+00 0.  1.
          1    1    3    3  501    0 -0.15185134460E+02  0.76479430426E+01 -0.42373552496E+03  0.42407649599E+03  0.00000000000E+00 0.  1.
         -3    1    1    2    0  502  0.29929394819E+02 -0.12749404758E+02 -0.24679631006E+03  0.24893118458E+03  0.00000000000E+00 0. -1.
<mgrwt>
<rscale>  1 0.30000000E+03</rscale>
<asrwt>0</asrwt>
<pdfrwt beam="1">  1       21 0.51757372E-02 0.30000000E+03</pdfrwt>
<pdfrwt beam="2">0</pdfrwt>
<totfact> 0.27155954E+04</totfact>
</mgrwt>
</event>
<event>
 6    1  0.1284012E-001  0.3000000E+03  0.7818608E-02  0.1093470E+00
         21   -1    0    0  501  502  0.00000000000E+00  0.00000000000E+00  0.32393280783E+01  0.32393280783E+01  0.00000000000E+00 0. -1.
         13   -1    0    0    0    0 -0.00000000000E+00 -0.00000000000E+00 -0.10000000000E+04  0.10000000000E+04  0.00000000000E+00 0.  1.
    9000005    2    1    2  501    0  0.33276656867E+02  0.42742164024E+02 -0.65143057479E+03  0.65368660750E+03  0.31872523733E+01 0.  0.
         13    1    3    3    0    0  0.27647822471E+02  0.33641583282E+02 -0.51636403553E+03  0.51819685005E+03  0.00000000000E+00 0.  1.
          1    1    3    3  501    0  0.56288343953E+01  0.91005807429E+01 -0.13506653926E+03  0.13548975745E+03  0.00000000000E+00 0.  1.
         -1    1    1    2    0  502 -0.33276656867E+02 -0.42742164024E+02 -0.34533009713E+03  0.34955272058E+03  0.00000000000E+00 0. -1.
<mgrwt>
<rscale>  1 0.30000000E+03</rscale>
<asrwt>0</asrwt>
<pdfrwt beam="1">  1       21 0.11779400E-01 0.30000000E+03</pdfrwt>
<pdfrwt beam="2">0</pdfrwt>
<totfact> 0.64091324E+03</totfact>
</mgrwt>
</event>
<event>
 6    1  0.1284012E-001  0.3000000E+03  0.7818608E-02  0.1093470E+00
         21   -1    0    0  501  502  0.00000000000E+00  0.00000000000E+00  0.20300249726E+01  0.20300249726E+01  0.00000000000E+00 0. -1.
         13   -1    0    0    0    0 -0.00000000000E+00 -0.00000000000E+00 -0.10000000000E+04  0.10000000000E+04  0.00000000000E+00 0.  1.
    9000005    2    1    2  501    0 -0.43131526019E+02  0.10405807769E+02 -0.58268107122E+03  0.58437767792E+03  0.33808759813E+01 0.  0.
         13    1    3    3    0    0 -0.12580471341E+01  0.85976752102E+00 -0.23933061947E+02  0.23981520739E+02  0.00000000000E+00 0.  1.
          1    1    3    3  501    0 -0.41873478885E+02  0.95460402475E+01 -0.55874800927E+03  0.56039615718E+03  0.00000000000E+00 0.  1.
         -1    1    1    2    0  502  0.43131526019E+02 -0.10405807769E+02 -0.41528890381E+03  0.41765234705E+03  0.00000000000E+00 0. -1.
<mgrwt>
<rscale>  1 0.30000000E+03</rscale>
<asrwt>0</asrwt>
<pdfrwt beam="1">  1       21 0.73819246E-02 0.30000000E+03</pdfrwt>
<pdfrwt beam="2">0</pdfrwt>
<totfact> 0.14707258E+04</totfact>
</mgrwt>
</event>
<event>
 6    1  0.1284012E-001  0.3000000E+03  0.7818608E-02  0.1093470E+00
         21   -1    0    0  501  502  0.00000000000E+00  0.00000000000E+00  0.17505362771E+01  0.17505362771E+01  0.00000000000E+00 0. -1.
         13   -1    0    0    0    0 -0.00000000000E+00 -0.00000000000E+00 -0.10000000000E+04  0.10000000000E+04  0.00000000000E+00 0.  1.
    9000005    2    1    2  501    0  0.35567214480E+02 -0.21843122120E+02 -0.52045198891E+03  0.52213342267E+03  0.32999357781E+01 0.  0.
         13    1    3    3    0    0  0.11267344721E+02 -0.55775371668E+01 -0.14440909745E+03  0.14495533589E+03  0.00000000000E+00 0.  1.
          3    1    3    3  501    0  0.24299869759E+02 -0.16265584954E+02 -0.37604289146E+03  0.37717808678E+03  0.00000000000E+00 0.  1.
         -1    1    1    2    0  502 -0.35567214480E+02  0.21843122120E+02 -0.47779747481E+03  0.47961711361E+03  0.00000000000E+00 0. -1.
<mgrwt>
<rscale>  1 0.30000000E+03</rscale>
<asrwt>0</asrwt>
<pdfrwt beam="1">  1       21 0.63655999E-02 0.30000000E+03</pdfrwt>
<pdfrwt beam="2">0</pdfrwt>
<totfact> 0.19025605E+04</totfact>
</mgrwt>
</event>
<event>
 6    1  0.1284012E-001  0.3000000E+03  0.7818608E-02  0.1093470E+00
         21   -1    0    0  501  502  0.00000000000E+00  0.00000000000E+00  0.16537183739E+01  0.16537183739E+01  0.00000000000E+00 0. -1.
         13   -1    0    0    0    0 -0.00000000000E+00 -0.00000000000E+00 -0.10000000000E+04  0.10000000000E+04  0.00000000000E+00 0.  1.
    9000005    2    1    2  501    0  0.22506489060E+02 -0.20224320003E+02 -0.83324401126E+03  0.83380162619E+03  0.37422416106E+01 0.  0.
         13    1    3    3    0    0  0.13849711440E+02 -0.11416336278E+02 -0.44691045015E+03  0.44727072081E+03  0.00000000000E+00 0.  1.
          3    1    3    3  501    0  0.86567776200E+01 -0.88079837255E+01 -0.38633356110E+03  0.38653090538E+03  0.00000000000E+00 0.  1.
         -3    1    1    2    0  502 -0.22506489060E+02  0.20224320003E+02 -0.16510227037E+03  0.16785209218E+03  0.00000000000E+00 0. -1.
<mgrwt>
<rscale>  1 0.30000000E+03</rscale>
<asrwt>0</asrwt>
<pdfrwt beam="1">  1       21 0.60135340E-02 0.30000000E+03</pdfrwt>
<pdfrwt beam="2">0</pdfrwt>
<totfact> 0.20989939E+04</totfact>
</mgrwt>
</event>
<event>
 6    1  0.1284012E-001  0.3000000E+03  0.7818608E-02  0.1093470E+00
         21   -1    0    0  501  502  0.00000000000E+00  0.00000000000E+00  0.23708724128E+01  0.23708724128E+01  0.00000000000E+00 0. -1.
         13   -1    0    0    0    0 -0.00000000000E+00 -0.00000000000E+00 -0.10000000000E+04  0.10000000000E+04  0.00000000000E+00 0.  1.
    9000005    2    1    2  501    0  0.30108915024E+02  0.23283407756E+02 -0.81101528738E+03  0.81191513163E+03  0.34235600514E+01 0.  0.
         13    1    3    3    0    0  0.11853608075E+02  0.91546000407E+01 -0.28428781122E+03  0.28468205833E+03  0.00000000000E+00 0.  1.
          1    1    3    3  501    0  0.18255306949E+02  0.14128807715E+02 -0.52672747616E+03  0.52723307330E+03  0.00000000000E+00 0.  1.
         -3    1    1    2    0  502 -0.30108915024E+02 -0.23283407756E+02 -0.18661384021E+03  0.19045574078E+03  0.00000000000E+00 0. -1.
<mgrwt>
<rscale>  1 0.30000000E+03</rscale>
<asrwt>0</asrwt>
<pdfrwt beam="1">  1       21 0.86213724E-02 0.30000000E+03</pdfrwt>
<pdfrwt beam="2">0</pdfrwt>
<totfact> 0.11197626E+04</totfact>
</mgrwt>
</event>
<event>
 6    1  0.1284012E-001  0.3000000E+03  0.7818608E-02  0.1093470E+00
         21   -1    0    0  501  502  0.00000000000E+00  0.00000000000E+00  0.20331865151E+01  0.20331865151E+01  0.00000000000E+00 0. -1.
         13   -1    0    0    0    0 -0.00000000000E+00 -0.00000000000E+00 -0.10000000000E+04  0.10000000000E+04  0.00000000000E+00 0.  1.
    9000005    2    1    2  501    0 -0.16172645046E+02  0.28205593720E+02 -0.84575912637E+03  0.84639164327E+03  0.36337315732E+01 0.  0.
         13    1    3    3    0    0 -0.10431727357E+02  0.15350166993E+02 -0.50944742410E+03  0.50978537296E+03  0.00000000000E+00 0.  1.
          1    1    3    3  501    0 -0.57409176888E+01  0.12855426727E+02 -0.33631170226E+03  0.33660627031E+03  0.00000000000E+00 0.  1.
         -1    1    1    2    0  502  0.16172645046E+02 -0.28205593720E+02 -0.15220768712E+03  0.15564154324E+03  0.00000000000E+00 0. -1.
<mgrwt>
<rscale>  1 0.30000000E+03</rscale>
<asrwt>0</asrwt>
<pdfrwt beam="1">  1       21 0.73934211E-02 0.30000000E+03</pdfrwt>
<pdfrwt beam="2">0</pdfrwt>
<totfact> 0.14667287E+04</totfact>
</mgrwt>
</event>
<event>
 6    1  0.1284012E-001  0.3000000E+03  0.7818608E-02  0.1093470E+00
         21   -1    0    0  501  502  0.00000000000E+00  0.00000000000E+00  0.16183050512E+01  0.16183050512E+01  0.00000000000E+00 0. -1.
         13   -1    0    0    0    0 -0.00000000000E+00 -0.00000000000E+00 -0.10000000000E+04  0.10000000000E+04  0.00000000000E+00 0.  1.
    9000005    2    1    2  501    0 -0.36385506551E+02  0.22415390041E+00 -0.70495851714E+03  0.70594768323E+03  0.84655324318E+01 0.  0.
         13    1    3    3    0    0 -0.20325182269E+02  0.16022910384E+01 -0.31744536821E+03  0.31809942183E+03  0.00000000000E+00 0.  1.
          3    1    3    3  501    0 -0.16060324283E+02 -0.13781371380E+01 -0.38751314894E+03  0.38784826141E+03  0.00000000000E+00 0.  1.
         -1    1    1    2    0  502  0.36385506551E+02 -0.22415390041E+00 -0.29342317781E+03  0.29567062182E+03  0.00000000000E+00 0. -1.
<mgrwt>
<rscale>  1 0.30000000E+03</rscale>
<asrwt>0</asrwt>
<pdfrwt beam="1">  1       21 0.58847581E-02 0.30000000E+03</pdfrwt>
<pdfrwt beam="2">0</pdfrwt>
<totfact> 0.21788107E+04</totfact>
</mgrwt>
</event>
<event>
 6    1  0.1284012E-001  0.3000000E+03  0.7818608E-02  0.1093470E+00
         21   -1    0    0  501  502  0.00000000000E+00  0.00000000000E+00  0.17013039658E+01  0.17013039658E+01  0.00000000000E+00 0. -1.
         13   -1    0    0    0    0 -0.00000000000E+00 -0.00000000000E+00 -0.10000000000E+04  0.10000000000E+04  0.00000000000E+00 0.  1.
    9000005    2    1    2  501    0 -0.37170202348E+02 -0.73770082305E+01 -0.69563238309E+03  0.69667189360E+03  0.33571929694E+01 0.  0.
         13    1    3    3    0    0 -0.87873046791E+01 -0.39517219238E+00 -0.15196086940E+03  0.15221523811E+03  0.00000000000E+00 0.  1.
          1    1    3    3  501    0 -0.28382897669E+02 -0.69818360382E+01 -0.54367151369E+03  0.54445665549E+03  0.00000000000E+00 0.  1.
         -3    1    1    2    0  502  0.37170202348E+02  0.73770082305E+01 -0.30266631295E+03  0.30502941036E+03  0.00000000000E+00 0. -1.
<mgrwt>
<rscale>  1 0.30000000E+03</rscale>
<asrwt>0</asrwt>
<pdfrwt beam="1">  1       21 0.61865729E-02 0.30000000E+03</pdfrwt>
<pdfrwt beam="2">0</pdfrwt>
<totfact> 0.19987035E+04</totfact>
</mgrwt>
</event>
<event>
 6    1  0.1284012E-001  0.3000000E+03  0.7818608E-02  0.1093470E+00
         21   -1    0    0  501  502  0.00000000000E+00  0.00000000000E+00  0.94593584487E+00  0.94593584487E+00  0.00000000000E+00 0. -1.
         13   -1    0    0    0    0 -0.00000000000E+00 -0.00000000000E+00 -0.10000000000E+04  0.10000000000E+04  0.00000000000E+00 0.  1.
    9000005    2    1    2  501    0 -0.30460555032E+02  0.39150831893E+00 -0.56032723495E+03  0.56116277410E+03  0.30083409192E+01 0.  0.
         13    1    3    3    0    0 -0.13458837497E+02  0.13216300154E+01 -0.23063964894E+03  0.23103578657E+03  0.00000000000E+00 0.  1.
          3    1    3    3  501    0 -0.17001717535E+02 -0.93012169645E+00 -0.32968758601E+03  0.33012698752E+03  0.00000000000E+00 0.  1.
         -1    1    1    2    0  502  0.30460555032E+02 -0.39150831893E+00 -0.43872682920E+03  0.43978316175E+03  0.00000000000E+00 0. -1.
<mgrwt>
<rscale>  1 0.30000000E+03</rscale>
<asrwt>0</asrwt>
<pdfrwt beam="1">  1       21 0.34397740E-02 0.30000000E+03</pdfrwt>
<pdfrwt beam="2">0</pdfrwt>
<totfact> 0.54167531E+04</totfact>
</mgrwt>
</event>
<event>
 6    1  0.1284012E-001  0.3000000E+03  0.7818608E-02  0.1093470E+00
         21   -1    0    0  501  502  0.00000000000E+00  0.00000000000E+00  0.20855776490E+01  0.20855776490E+01  0.00000000000E+00 0. -1.
         13   -1    0    0    0    0 -0.00000000000E+00 -0.00000000000E+00 -0.10000000000E+04  0.10000000000E+04  0.00000000000E+00 0.  1.
    9000005    2    1    2  501    0 -0.40446080020E+02  0.17955555593E+02 -0.62015793679E+03  0.62174592714E+03  0.37207507890E+01 0.  0.
         13    1    3    3    0    0 -0.39051821674E+02  0.17295841534E+02 -0.58677052794E+03  0.58832290740E+03  0.00000000000E+00 0.  1.
          3    1    3    3  501    0 -0.13942583455E+01  0.65971405906E+00 -0.33387408843E+02  0.33423019735E+02  0.00000000000E+00 0.  1.
         -3    1    1    2    0  502  0.40446080020E+02 -0.17955555593E+02 -0.37775648556E+03  0.38033965051E+03  0.00000000000E+00 0. -1.
<mgrwt>
<rscale>  1 0.30000000E+03</rscale>
<asrwt>0</asrwt>
<pdfrwt beam="1">  1       21 0.75839347E-02 0.30000000E+03</pdfrwt>
<pdfrwt beam="2">0</pdfrwt>
<totfact> 0.14028363E+04</totfact>
</mgrwt>
</event>
<event>
 6    1  0.1284012E-001  0.3000000E+03  0.7818608E-02  0.1093470E+00
         21   -1    0    0  501  502  0.00000000000E+00  0.00000000000E+00  0.18490814054E+01  0.18490814054E+01  0.00000000000E+00 0. -1.
         13   -1    0    0    0    0 -0.00000000000E+00 -0.00000000000E+00 -0.10000000000E+04  0.10000000000E+04  0.00000000000E+00 0.  1.
    9000005    2    1    2  501    0 -0.36238075012E+02 -0.19666211474E+02 -0.63897166663E+03  0.64031112628E+03  0.36864248064E+01 0.  0.
         13    1    3    3    0    0 -0.28960058400E+02 -0.14443908233E+02 -0.51568620940E+03  0.51670066579E+03  0.00000000000E+00 0.  1.
          3    1    3    3  501    0 -0.72780166125E+01 -0.52223032416E+01 -0.12328545723E+03  0.12361046049E+03  0.00000000000E+00 0.  1.
         -1    1    1    2    0  502  0.36238075012E+02  0.19666211474E+02 -0.35917925197E+03  0.36153795513E+03  0.00000000000E+00 0. -1.
<mgrwt>
<rscale>  1 0.30000000E+03</rscale>
<asrwt>0</asrwt>
<pdfrwt beam="1">  1       21 0.67239466E-02 0.30000000E+03</pdfrwt>
<pdfrwt beam="2">0</pdfrwt>
<totfact> 0.17303743E+04</totfact>
</mgrwt>
</event>
<event>
 6    1  0.1284012E-001  0.3000000E+03  0.7818608E-02  0.1093470E+00
         21   -1    0    0  501  502  0.00000000000E+00  0.00000000000E+00  0.21348781992E+01  0.21348781992E+01  0.00000000000E+00 0. -1.
         13   -1    0    0    0    0 -0.00000000000E+00 -0.00000000000E+00 -0.10000000000E+04  0.10000000000E+04  0.00000000000E+00 0.  1.
    9000005    2    1    2  501    0 -0.27749337754E+02 -0.36075430063E+02 -0.41424538569E+03  0.41674316423E+03  0.20403359913E+01 0.  0.
         13    1    3    3    0    0 -0.27413324568E+01 -0.41992043507E+01 -0.41181681882E+02  0.41485890896E+02  0.00000000000E+00 0.  1.
          1    1    3    3  501    0 -0.25008005297E+02 -0.31876225712E+02 -0.37306370381E+03  0.37525727334E+03  0.00000000000E+00 0.  1.
         -1    1    1    2    0  502  0.27749337754E+02  0.36075430063E+02 -0.58361973611E+03  0.58539171396E+03  0.00000000000E+00 0. -1.
<mgrwt>
<rscale>  1 0.30000000E+03</rscale>
<asrwt>0</asrwt>
<pdfrwt beam="1">  1       21 0.77632098E-02 0.30000000E+03</pdfrwt>
<pdfrwt beam="2">0</pdfrwt>
<totfact> 0.13465521E+04</totfact>
</mgrwt>
</event>
<event>
 6    1  0.1284012E-001  0.3000000E+03  0.7818608E-02  0.1093470E+00
         21   -1    0    0  501  502  0.00000000000E+00  0.00000000000E+00  0.18384927641E+01  0.18384927641E+01  0.00000000000E+00 0. -1.
         13   -1    0    0    0    0 -0.00000000000E+00 -0.00000000000E+00 -0.10000000000E+04  0.10000000000E+04  0.00000000000E+00 0.  1.
    9000005    2    1    2  501    0 -0.30768016140E+02 -0.26439009946E+02 -0.66010983190E+03  0.66136143442E+03  0.28748386345E+01 0.  0.
         13    1    3    3    0    0 -0.26971064275E+02 -0.22089392073E+02 -0.55665222918E+03  0.55774284737E+03  0.00000000000E+00 0.  1.
          1    1    3    3  501    0 -0.37969518650E+01 -0.43496178731E+01 -0.10345760273E+03  0.10361858704E+03  0.00000000000E+00 0.  1.
         -1    1    1    2    0  502  0.30768016140E+02  0.26439009946E+02 -0.33805167533E+03  0.34047705835E+03  0.00000000000E+00 0. -1.
<mgrwt>
<rscale>  1 0.30000000E+03</rscale>
<asrwt>0</asrwt>
<pdfrwt beam="1">  1       21 0.66854423E-02 0.30000000E+03</pdfrwt>
<pdfrwt beam="2">0</pdfrwt>
<totfact> 0.17476996E+04</totfact>
</mgrwt>
</event>
<event>
 6    1  0.1284012E-001  0.3000000E+03  0.7818608E-02  0.1093470E+00
         21   -1    0    0  501  502  0.00000000000E+00  0.00000000000E+00  0.65580819988E+01  0.65580819988E+01  0.00000000000E+00 0. -1.
         13   -1    0    0    0    0 -0.00000000000E+00 -0.00000000000E+00 -0.10000000000E+04  0.10000000000E+04  0.00000000000E+00 0.  1.
    9000005    2    1    2  501    0 -0.22202207008E+01 -0.47363559563E+02 -0.89102881600E+02  0.10097687144E+03  0.29612332523E+01 0.  0.
         13    1    3    3    0    0 -0.27219829573E+00 -0.18711435287E+02 -0.37979735559E+02  0.42339723848E+02  0.00000000000E+00 0.  1.
          1    1    3    3  501    0 -0.19480224051E+01 -0.28652124276E+02 -0.51123146041E+02  0.58637147594E+02  0.00000000000E+00 0.  1.
         -3    1    1    2    0  502  0.22202207008E+01  0.47363559563E+02 -0.90433903640E+03  0.90558121056E+03  0.00000000000E+00 0. -1.
<mgrwt>
<rscale>  1 0.30000000E+03</rscale>
<asrwt>0</asrwt>
<pdfrwt beam="1">  1       21 0.23847621E-01 0.30000000E+03</pdfrwt>
<pdfrwt beam="2">0</pdfrwt>
<totfact> 0.17099569E+03</totfact>
</mgrwt>
</event>
<event>
 6    1  0.1284012E-001  0.3000000E+03  0.7818608E-02  0.1093470E+00
         21   -1    0    0  501  502  0.00000000000E+00  0.00000000000E+00  0.26380313893E+01  0.26380313893E+01  0.00000000000E+00 0. -1.
         13   -1    0    0    0    0 -0.00000000000E+00 -0.00000000000E+00 -0.10000000000E+04  0.10000000000E+04  0.00000000000E+00 0.  1.
    9000005    2    1    2  501    0 -0.39190303450E+02  0.33538073171E+01 -0.82068142985E+03  0.82163211799E+03  0.37683029992E+01 0.  0.
         13    1    3    3    0    0 -0.14677542410E+02  0.14519598516E+01 -0.27091632612E+03  0.27131751546E+03  0.00000000000E+00 0.  1.
          1    1    3    3  501    0 -0.24512761040E+02  0.19018474656E+01 -0.54976510373E+03  0.55031460253E+03  0.00000000000E+00 0.  1.
         -1    1    1    2    0  502  0.39190303450E+02 -0.33538073171E+01 -0.17668053876E+03  0.18100591340E+03  0.00000000000E+00 0. -1.
<mgrwt>
<rscale>  1 0.30000000E+03</rscale>
<asrwt>0</asrwt>
<pdfrwt beam="1">  1       21 0.95928616E-02 0.30000000E+03</pdfrwt>
<pdfrwt beam="2">0</pdfrwt>
<totfact> 0.92656910E+03</totfact>
</mgrwt>
</event>
<event>
 6    1  0.1284012E-001  0.3000000E+03  0.7818608E-02  0.1093470E+00
         21   -1    0    0  501  502  0.00000000000E+00  0.00000000000E+00  0.51519096516E+01  0.51519096516E+01  0.00000000000E+00 0. -1.
         13   -1    0    0    0    0 -0.00000000000E+00 -0.00000000000E+00 -0.10000000000E+04  0.10000000000E+04  0.00000000000E+00 0.  1.
    9000005    2    1    2  501    0  0.32285454559E+02 -0.22080892028E+02 -0.91877137150E+03  0.91960903432E+03  0.31664730124E+01 0.  0.
         13    1    3    3    0    0  0.13160742558E+02 -0.76471652989E+01 -0.33229645763E+03  0.33264488578E+03  0.00000000000E+00 0.  1.
          3    1    3    3  501    0  0.19124712001E+02 -0.14433726729E+02 -0.58647491387E+03  0.58696414854E+03  0.00000000000E+00 0.  1.
         -3    1    1    2    0  502 -0.32285454559E+02  0.22080892028E+02 -0.76076718851E+02  0.85542875332E+02  0.00000000000E+00 0. -1.
<mgrwt>
<rscale>  1 0.30000000E+03</rscale>
<asrwt>0</asrwt>
<pdfrwt beam="1">  1       21 0.18734256E-01 0.30000000E+03</pdfrwt>
<pdfrwt beam="2">0</pdfrwt>
<totfact> 0.27165918E+03</totfact>
</mgrwt>
</event>
<event>
 6    1  0.1284012E-001  0.3000000E+03  0.7818608E-02  0.1093470E+00
         21   -1    0    0  501  502  0.00000000000E+00  0.00000000000E+00  0.15665687552E+01  0.15665687552E+01  0.00000000000E+00 0. -1.
         13   -1    0    0    0    0 -0.00000000000E+00 -0.00000000000E+00 -0.10000000000E+04  0.10000000000E+04  0.00000000000E+00 0.  1.
    9000005    2    1    2  501    0  0.39169853302E+02 -0.32186276138E+01 -0.45262141698E+03  0.45434139400E+03  0.39138498073E+01 0.  0.
         13    1    3    3    0    0  0.10385127632E+02  0.83992576401E+00 -0.11548910984E+03  0.11595814263E+03  0.00000000000E+00 0.  1.
          3    1    3    3  501    0  0.28784725671E+02 -0.40585533778E+01 -0.33713230714E+03  0.33838325137E+03  0.00000000000E+00 0.  1.
         -3    1    1    2    0  502 -0.39169853302E+02  0.32186276138E+01 -0.54581201426E+03  0.54722517475E+03  0.00000000000E+00 0. -1.
<mgrwt>
<rscale>  1 0.30000000E+03</rscale>
<asrwt>0</asrwt>
<pdfrwt beam="1">  1       21 0.56966257E-02 0.30000000E+03</pdfrwt>
<pdfrwt beam="2">0</pdfrwt>
<totfact> 0.23041710E+04</totfact>
</mgrwt>
</event>
<event>
 6    1  0.1284012E-001  0.3000000E+03  0.7818608E-02  0.1093470E+00
         21   -1    0    0  501  502  0.00000000000E+00  0.00000000000E+00  0.84252831927E+01  0.84252831927E+01  0.00000000000E+00 0. -1.
         13   -1    0    0    0    0 -0.00000000000E+00 -0.00000000000E+00 -0.10000000000E+04  0.10000000000E+04  0.00000000000E+00 0.  1.
    9000005    2    1    2  501    0 -0.25229559599E+02 -0.18090316229E+02 -0.97025129426E+03  0.97076258855E+03  0.53515506413E+01 0.  0.
         13    1    3    3    0    0 -0.98682370319E+01 -0.10350202344E+02 -0.44438495316E+03  0.44461499681E+03  0.00000000000E+00 0.  1.
          1    1    3    3  501    0 -0.15361322567E+02 -0.77401138847E+01 -0.52586634110E+03  0.52614759174E+03  0.00000000000E+00 0.  1.
         -1    1    1    2    0  502  0.25229559599E+02  0.18090316229E+02 -0.21323422551E+02  0.37662694647E+02  0.00000000000E+00 0. -1.
<mgrwt>
<rscale>  1 0.30000000E+03</rscale>
<asrwt>0</asrwt>
<pdfrwt beam="1">  1       21 0.30637458E-01 0.30000000E+03</pdfrwt>
<pdfrwt beam="2">0</pdfrwt>
<totfact> 0.10424270E+03</totfact>
</mgrwt>
</event>
<event>
 6    1  0.1284012E-001  0.3000000E+03  0.7818608E-02  0.1093470E+00
         21   -1    0    0  501  502  0.00000000000E+00  0.00000000000E+00  0.14119063906E+01  0.14119063906E+01  0.00000000000E+00 0. -1.
         13   -1    0    0    0    0 -0.00000000000E+00 -0.00000000000E+00 -0.10000000000E+04  0.10000000000E+04  0.00000000000E+00 0.  1.
    9000005    2    1    2  501    0 -0.20689486547E+02  0.25728511355E+02 -0.26379916955E+03  0.26588163912E+03  0.36101268683E+01 0.  0.
         13    1    3    3    0    0 -0.21772885038E+01  0.12209020800E+01 -0.19021103953E+02  0.19184201383E+02  0.00000000000E+00 0.  1.
          3    1    3    3  501    0 -0.18512198043E+02  0.24507609275E+02 -0.24477806560E+03  0.24669743774E+03  0.00000000000E+00 0.  1.
         -3    1    1    2    0  502  0.20689486547E+02 -0.25728511355E+02 -0.73478892406E+03  0.73553026727E+03  0.00000000000E+00 0. -1.
<mgrwt>
<rscale>  1 0.30000000E+03</rscale>
<asrwt>0</asrwt>
<pdfrwt beam="1">  1       21 0.51342159E-02 0.30000000E+03</pdfrwt>
<pdfrwt beam="2">0</pdfrwt>
<totfact> 0.27532014E+04</totfact>
</mgrwt>
</event>
<event>
 6    1  0.1284012E-001  0.3000000E+03  0.7818608E-02  0.1093470E+00
         21   -1    0    0  501  502  0.00000000000E+00  0.00000000000E+00  0.11809791418E+01  0.11809791418E+01  0.00000000000E+00 0. -1.
         13   -1    0    0    0    0 -0.00000000000E+00 -0.00000000000E+00 -0.10000000000E+04  0.10000000000E+04  0.00000000000E+00 0.  1.
    9000005    2    1    2  501    0 -0.18315333540E+02 -0.28697921732E+02 -0.50782881763E+03  0.50901190066E+03  0.66321064899E+01 0.  0.
         13    1    3    3    0    0 -0.84571772615E+01 -0.18906228550E+02 -0.28695986121E+03  0.28770632817E+03  0.00000000000E+00 0.  1.
          1    1    3    3  501    0 -0.98581562786E+01 -0.97916931826E+01 -0.22086895642E+03  0.22130557248E+03  0.00000000000E+00 0.  1.
         -1    1    1    2    0  502  0.18315333540E+02  0.28697921732E+02 -0.49099020322E+03  0.49216907848E+03  0.00000000000E+00 0. -1.
<mgrwt>
<rscale>  1 0.30000000E+03</rscale>
<asrwt>0</asrwt>
<pdfrwt beam="1">  1       21 0.42944787E-02 0.30000000E+03</pdfrwt>
<pdfrwt beam="2">0</pdfrwt>
<totfact> 0.37297699E+04</totfact>
</mgrwt>
</event>
<event>
 6    1  0.1284012E-001  0.3000000E+03  0.7818608E-02  0.1093470E+00
         21   -1    0    0  501  502  0.00000000000E+00  0.00000000000E+00  0.24369665639E+01  0.24369665639E+01  0.00000000000E+00 0. -1.
         13   -1    0    0    0    0 -0.00000000000E+00 -0.00000000000E+00 -0.10000000000E+04  0.10000000000E+04  0.00000000000E+00 0.  1.
    9000005    2    1    2  501    0  0.23009007229E+02 -0.26798563790E+02 -0.84863398662E+03  0.84937672215E+03  0.36872003755E+01 0.  0.
         13    1    3    3    0    0  0.92014413654E+01 -0.11365536209E+02 -0.39423574343E+03  0.39450686095E+03  0.00000000000E+00 0.  1.
          1    1    3    3  501    0  0.13807565864E+02 -0.15433027582E+02 -0.45439824319E+03  0.45486986120E+03  0.00000000000E+00 0.  1.
         -1    1    1    2    0  502 -0.23009007229E+02  0.26798563790E+02 -0.14892904681E+03  0.15306024441E+03  0.00000000000E+00 0. -1.
<mgrwt>
<rscale>  1 0.30000000E+03</rscale>
<asrwt>0</asrwt>
<pdfrwt beam="1">  1       21 0.88617153E-02 0.30000000E+03</pdfrwt>
<pdfrwt beam="2">0</pdfrwt>
<totfact> 0.10666528E+04</totfact>
</mgrwt>
</event>
<event>
 6    1  0.1284012E-001  0.3000000E+03  0.7818608E-02  0.1093470E+00
         21   -1    0    0  501  502  0.00000000000E+00  0.00000000000E+00  0.83054876132E+01  0.83054876132E+01  0.00000000000E+00 0. -1.
         13   -1    0    0    0    0 -0.00000000000E+00 -0.00000000000E+00 -0.10000000000E+04  0.10000000000E+04  0.00000000000E+00 0.  1.
    9000005    2    1    2  501    0  0.34238493190E+02 -0.44397115907E+02 -0.89325225928E+03  0.89501711437E+03  0.35578051150E+01 0.  0.
         13    1    3    3    0    0  0.18197657863E+02 -0.22416909973E+02 -0.43392250820E+03  0.43488207106E+03  0.00000000000E+00 0.  1.
          3    1    3    3  501    0  0.16040835327E+02 -0.21980205935E+02 -0.45932975108E+03  0.46013504331E+03  0.00000000000E+00 0.  1.
         -1    1    1    2    0  502 -0.34238493190E+02  0.44397115907E+02 -0.98442253103E+02  0.11328837325E+03  0.00000000000E+00 0. -1.
<mgrwt>
<rscale>  1 0.30000000E+03</rscale>
<asrwt>0</asrwt>
<pdfrwt beam="1">  1       21 0.30201837E-01 0.30000000E+03</pdfrwt>
<pdfrwt beam="2">0</pdfrwt>
<totfact> 0.10727853E+03</totfact>
</mgrwt>
</event>
<event>
 6    1  0.1284012E-001  0.3000000E+03  0.7818608E-02  0.1093470E+00
         21   -1    0    0  501  502  0.00000000000E+00  0.00000000000E+00  0.12782559431E+01  0.12782559431E+01  0.00000000000E+00 0. -1.
         13   -1    0    0    0    0 -0.00000000000E+00 -0.00000000000E+00 -0.10000000000E+04  0.10000000000E+04  0.00000000000E+00 0.  1.
    9000005    2    1    2  501    0 -0.34901000377E+02 -0.26692431875E+01 -0.40859092385E+03  0.41011026827E+03  0.43225461096E+01 0.  0.
         13    1    3    3    0    0 -0.11195189956E+02  0.80189205472E+00 -0.14408229007E+03  0.14451879331E+03  0.00000000000E+00 0.  1.
          3    1    3    3  501    0 -0.23705810420E+02 -0.34711352422E+01 -0.26450863378E+03  0.26559147496E+03  0.00000000000E+00 0.  1.
         -3    1    1    2    0  502  0.34901000377E+02  0.26692431875E+01 -0.59013082021E+03  0.59116798767E+03  0.00000000000E+00 0. -1.
<mgrwt>
<rscale>  1 0.30000000E+03</rscale>
<asrwt>0</asrwt>
<pdfrwt beam="1">  1       21 0.46482132E-02 0.30000000E+03</pdfrwt>
<pdfrwt beam="2">0</pdfrwt>
<totfact> 0.32612818E+04</totfact>
</mgrwt>
</event>
<event>
 6    1  0.1284012E-001  0.3000000E+03  0.7818608E-02  0.1093470E+00
         21   -1    0    0  501  502  0.00000000000E+00  0.00000000000E+00  0.39369980979E+01  0.39369980979E+01  0.00000000000E+00 0. -1.
         13   -1    0    0    0    0 -0.00000000000E+00 -0.00000000000E+00 -0.10000000000E+04  0.10000000000E+04  0.00000000000E+00 0.  1.
    9000005    2    1    2  501    0 -0.22583709245E+02  0.54942705401E+02 -0.65896812235E+03  0.66164811043E+03  0.32420615488E+01 0.  0.
         13    1    3    3    0    0 -0.85198654782E+01  0.19018457137E+02 -0.24697449738E+03  0.24785215790E+03  0.00000000000E+00 0.  1.
          1    1    3    3  501    0 -0.14063843767E+02  0.35924248265E+02 -0.41199362497E+03  0.41379595253E+03  0.00000000000E+00 0.  1.
         -3    1    1    2    0  502  0.22583709245E+02 -0.54942705401E+02 -0.33709487955E+03  0.34228888766E+03  0.00000000000E+00 0. -1.
<mgrwt>
<rscale>  1 0.30000000E+03</rscale>
<asrwt>0</asrwt>
<pdfrwt beam="1">  1       21 0.14316387E-01 0.30000000E+03</pdfrwt>
<pdfrwt beam="2">0</pdfrwt>
<totfact> 0.44883425E+03</totfact>
</mgrwt>
</event>
<event>
 6    1  0.1284012E-001  0.3000000E+03  0.7818608E-02  0.1093470E+00
         21   -1    0    0  501  502  0.00000000000E+00  0.00000000000E+00  0.17908303842E+01  0.17908303842E+01  0.00000000000E+00 0. -1.
         13   -1    0    0    0    0 -0.00000000000E+00 -0.00000000000E+00 -0.10000000000E+04  0.10000000000E+04  0.00000000000E+00 0.  1.
    9000005    2    1    2  501    0  0.16211608148E+02  0.33230137712E+02 -0.74191904516E+03  0.74284742695E+03  0.33722183410E+01 0.  0.
         13    1    3    3    0    0  0.28415528235E+01  0.67005110307E+01 -0.12194139978E+03  0.12215840639E+03  0.00000000000E+00 0.  1.
          3    1    3    3  501    0  0.13370055325E+02  0.26529626682E+02 -0.61997764538E+03  0.62068902056E+03  0.00000000000E+00 0.  1.
         -1    1    1    2    0  502 -0.16211608148E+02 -0.33230137712E+02 -0.25629012445E+03  0.25894340344E+03  0.00000000000E+00 0. -1.
<mgrwt>
<rscale>  1 0.30000000E+03</rscale>
<asrwt>0</asrwt>
<pdfrwt beam="1">  1       21 0.65121242E-02 0.30000000E+03</pdfrwt>
<pdfrwt beam="2">0</pdfrwt>
<totfact> 0.18290931E+04</totfact>
</mgrwt>
</event>
<event>
 6    1  0.1284012E-001  0.3000000E+03  0.7818608E-02  0.1093470E+00
         21   -1    0    0  501  502  0.00000000000E+00  0.00000000000E+00  0.12225989097E+01  0.12225989097E+01  0.00000000000E+00 0. -1.
         13   -1    0    0    0    0 -0.00000000000E+00 -0.00000000000E+00 -0.10000000000E+04  0.10000000000E+04  0.00000000000E+00 0.  1.
    9000005    2    1    2  501    0  0.31658278766E+02  0.10146103393E+01 -0.71039332803E+03  0.71110426160E+03  0.27044975984E+01 0.  0.
         13    1    3    3    0    0  0.97544125399E+01  0.12860359961E+01 -0.23814027432E+03  0.23834343437E+03  0.00000000000E+00 0.  1.
          3    1    3    3  501    0  0.21903866226E+02 -0.27142565680E+00 -0.47225305371E+03  0.47276082723E+03  0.00000000000E+00 0.  1.
         -1    1    1    2    0  502 -0.31658278766E+02 -0.10146103393E+01 -0.28838407306E+03  0.29011833731E+03  0.00000000000E+00 0. -1.
<mgrwt>
<rscale>  1 0.30000000E+03</rscale>
<asrwt>0</asrwt>
<pdfrwt beam="1">  1       21 0.44458236E-02 0.30000000E+03</pdfrwt>
<pdfrwt beam="2">0</pdfrwt>
<totfact> 0.35173401E+04</totfact>
</mgrwt>
</event>
<event>
 6    1  0.1284012E-001  0.3000000E+03  0.7818608E-02  0.1093470E+00
         21   -1    0    0  501  502  0.00000000000E+00  0.00000000000E+00  0.18264001814E+01  0.18264001814E+01  0.00000000000E+00 0. -1.
         13   -1    0    0    0    0 -0.00000000000E+00 -0.00000000000E+00 -0.10000000000E+04  0.10000000000E+04  0.00000000000E+00 0.  1.
    9000005    2    1    2  501    0  0.27099534235E+02  0.29866779039E+02 -0.66314487219E+03  0.66437913381E+03  0.34788910023E+01 0.  0.
         13    1    3    3    0    0  0.65861258365E+00  0.11265378997E+01 -0.32548157055E+02  0.32574305608E+02  0.00000000000E+00 0.  1.
          1    1    3    3  501    0  0.26440921651E+02  0.28740241140E+02 -0.63059671514E+03  0.63180482820E+03  0.00000000000E+00 0.  1.
         -3    1    1    2    0  502 -0.27099534235E+02 -0.29866779039E+02 -0.33502872762E+03  0.33744726637E+03  0.00000000000E+00 0. -1.
<mgrwt>
<rscale>  1 0.30000000E+03</rscale>
<asrwt>0</asrwt>
<pdfrwt beam="1">  1       21 0.66414692E-02 0.30000000E+03</pdfrwt>
<pdfrwt beam="2">0</pdfrwt>
<totfact> 0.17678142E+04</totfact>
</mgrwt>
</event>
<event>
 6    1  0.1284012E-001  0.3000000E+03  0.7818608E-02  0.1093470E+00
         21   -1    0    0  501  502  0.00000000000E+00  0.00000000000E+00  0.13259867476E+02  0.13259867476E+02  0.00000000000E+00 0. -1.
         13   -1    0    0    0    0 -0.00000000000E+00 -0.00000000000E+00 -0.10000000000E+04  0.10000000000E+04  0.00000000000E+00 0.  1.
    9000005    2    1    2  501    0 -0.96954057963E+02  0.29722281631E+02 -0.73329064200E+03  0.74027608109E+03  0.31634178766E+01 0.  0.
         13    1    3    3    0    0 -0.91915629774E+02  0.28899273382E+02 -0.69626439971E+03  0.70289954140E+03  0.00000000000E+00 0.  1.
          1    1    3    3  501    0 -0.50384281883E+01  0.82300824853E+00 -0.37026242286E+02  0.37376539688E+02  0.00000000000E+00 0.  1.
         -1    1    1    2    0  502  0.96954057963E+02 -0.29722281631E+02 -0.25344949053E+03  0.27298378638E+03  0.00000000000E+00 0. -1.
<mgrwt>
<rscale>  1 0.30000000E+03</rscale>
<asrwt>0</asrwt>
<pdfrwt beam="1">  1       21 0.48217802E-01 0.30000000E+03</pdfrwt>
<pdfrwt beam="2">0</pdfrwt>
<totfact> 0.40636693E+02</totfact>
</mgrwt>
</event>
<event>
 6    1  0.1284012E-001  0.3000000E+03  0.7818608E-02  0.1093470E+00
         21   -1    0    0  501  502  0.00000000000E+00  0.00000000000E+00  0.25579449771E+01  0.25579449771E+01  0.00000000000E+00 0. -1.
         13   -1    0    0    0    0 -0.00000000000E+00 -0.00000000000E+00 -0.10000000000E+04  0.10000000000E+04  0.00000000000E+00 0.  1.
    9000005    2    1    2  501    0  0.50432552432E+02  0.16846940660E+01 -0.52403651306E+03  0.52647067598E+03  0.32901533497E+01 0.  0.
         13    1    3    3    0    0  0.89699871632E+01  0.14815205459E+01 -0.98958906399E+02  0.99375654606E+02  0.00000000000E+00 0.  1.
          1    1    3    3  501    0  0.41462565269E+02  0.20317352017E+00 -0.42507760666E+03  0.42709502137E+03  0.00000000000E+00 0.  1.
         -1    1    1    2    0  502 -0.50432552432E+02 -0.16846940660E+01 -0.47340554196E+03  0.47608726900E+03  0.00000000000E+00 0. -1.
<mgrwt>
<rscale>  1 0.30000000E+03</rscale>
<asrwt>0</asrwt>
<pdfrwt beam="1">  1       21 0.93016377E-02 0.30000000E+03</pdfrwt>
<pdfrwt beam="2">0</pdfrwt>
<totfact> 0.97884271E+03</totfact>
</mgrwt>
</event>
<event>
 6    1  0.1284012E-001  0.3000000E+03  0.7818608E-02  0.1093470E+00
         21   -1    0    0  501  502  0.00000000000E+00  0.00000000000E+00  0.16721836563E+01  0.16721836563E+01  0.00000000000E+00 0. -1.
         13   -1    0    0    0    0 -0.00000000000E+00 -0.00000000000E+00 -0.10000000000E+04  0.10000000000E+04  0.00000000000E+00 0.  1.
    9000005    2    1    2  501    0  0.40100490060E+02  0.66862470511E+01 -0.45679658389E+03  0.45861709352E+03  0.37100148624E+01 0.  0.
         13    1    3    3    0    0  0.98101693623E+01  0.32655132397E+01 -0.11692724255E+03  0.11738348712E+03  0.00000000000E+00 0.  1.
          1    1    3    3  501    0  0.30290320698E+02  0.34207338113E+01 -0.33986934135E+03  0.34123360640E+03  0.00000000000E+00 0.  1.
         -1    1    1    2    0  502 -0.40100490060E+02 -0.66862470511E+01 -0.54153123245E+03  0.54305509013E+03  0.00000000000E+00 0. -1.
<mgrwt>
<rscale>  1 0.30000000E+03</rscale>
<asrwt>0</asrwt>
<pdfrwt beam="1">  1       21 0.60806807E-02 0.30000000E+03</pdfrwt>
<pdfrwt beam="2">0</pdfrwt>
<totfact> 0.20591672E+04</totfact>
</mgrwt>
</event>
<event>
 6    1  0.1284012E-001  0.3000000E+03  0.7818608E-02  0.1093470E+00
         21   -1    0    0  501  502  0.00000000000E+00  0.00000000000E+00  0.11992894454E+01  0.11992894454E+01  0.00000000000E+00 0. -1.
         13   -1    0    0    0    0 -0.00000000000E+00 -0.00000000000E+00 -0.10000000000E+04  0.10000000000E+04  0.00000000000E+00 0.  1.
    9000005    2    1    2  501    0 -0.18695082586E+02  0.25571341021E+02 -0.70024925424E+03  0.70097208937E+03  0.30744796141E+01 0.  0.
         13    1    3    3    0    0 -0.12430401662E+02  0.19221973820E+02 -0.51330571973E+03  0.51381588246E+03  0.00000000000E+00 0.  1.
          1    1    3    3  501    0 -0.62646809239E+01  0.63493672009E+01 -0.18694353451E+03  0.18715620691E+03  0.00000000000E+00 0.  1.
         -3    1    1    2    0  502  0.18695082586E+02 -0.25571341021E+02 -0.29855145632E+03  0.30022720007E+03  0.00000000000E+00 0. -1.
<mgrwt>
<rscale>  1 0.30000000E+03</rscale>
<asrwt>0</asrwt>
<pdfrwt beam="1">  1       21 0.43610617E-02 0.30000000E+03</pdfrwt>
<pdfrwt beam="2">0</pdfrwt>
<totfact> 0.36339315E+04</totfact>
</mgrwt>
</event>
<event>
 6    1  0.1284012E-001  0.3000000E+03  0.7818608E-02  0.1093470E+00
         21   -1    0    0  501  502  0.00000000000E+00  0.00000000000E+00  0.26567868086E+01  0.26567868086E+01  0.00000000000E+00 0. -1.
         13   -1    0    0    0    0 -0.00000000000E+00 -0.00000000000E+00 -0.10000000000E+04  0.10000000000E+04  0.00000000000E+00 0.  1.
    9000005    2    1    2  501    0 -0.13450287646E+02  0.30650964661E+02 -0.87974523286E+03  0.88038791567E+03  0.32886833471E+01 0.  0.
         13    1    3    3    0    0 -0.12806570847E+02  0.28904509233E+02 -0.84702090625E+03  0.84761069751E+03  0.00000000000E+00 0.  1.
          3    1    3    3  501    0 -0.64371679906E+00  0.17464554281E+01 -0.32724326612E+02  0.32777218156E+02  0.00000000000E+00 0.  1.
         -3    1    1    2    0  502  0.13450287646E+02 -0.30650964661E+02 -0.11759798033E+03  0.12226887114E+03  0.00000000000E+00 0. -1.
<mgrwt>
<rscale>  1 0.30000000E+03</rscale>
<asrwt>0</asrwt>
<pdfrwt beam="1">  1       21 0.96610633E-02 0.30000000E+03</pdfrwt>
<pdfrwt beam="2">0</pdfrwt>
<totfact> 0.91493805E+03</totfact>
</mgrwt>
</event>
<event>
 6    1  0.1284012E-001  0.3000000E+03  0.7818608E-02  0.1093470E+00
         21   -1    0    0  501  502  0.00000000000E+00  0.00000000000E+00  0.94559123268E+01  0.94559123268E+01  0.00000000000E+00 0. -1.
         13   -1    0    0    0    0 -0.00000000000E+00 -0.00000000000E+00 -0.10000000000E+04  0.10000000000E+04  0.00000000000E+00 0.  1.
    9000005    2    1    2  501    0  0.33229782135E+02  0.90445260205E+02 -0.44100372186E+03  0.45153192362E+03  0.10593953052E+02 0.  0.
         13    1    3    3    0    0  0.29882283911E+01  0.19391226117E+02 -0.97641666301E+02  0.99593394145E+02  0.00000000000E+00 0.  1.
          1    1    3    3  501    0  0.30241553744E+02  0.71054034088E+02 -0.34336205556E+03  0.35193852948E+03  0.00000000000E+00 0.  1.
         -1    1    1    2    0  502 -0.33229782135E+02 -0.90445260205E+02 -0.54954036581E+03  0.55792398870E+03  0.00000000000E+00 0. -1.
<mgrwt>
<rscale>  1 0.30000000E+03</rscale>
<asrwt>0</asrwt>
<pdfrwt beam="1">  1       21 0.34385208E-01 0.30000000E+03</pdfrwt>
<pdfrwt beam="2">0</pdfrwt>
<totfact> 0.82513906E+02</totfact>
</mgrwt>
</event>
<event>
 6    1  0.1284012E-001  0.3000000E+03  0.7818608E-02  0.1093470E+00
         21   -1    0    0  501  502  0.00000000000E+00  0.00000000000E+00  0.28873255273E+01  0.28873255273E+01  0.00000000000E+00 0. -1.
         13   -1    0    0    0    0 -0.00000000000E+00 -0.00000000000E+00 -0.10000000000E+04  0.10000000000E+04  0.00000000000E+00 0.  1.
    9000005    2    1    2  501    0 -0.21387506575E+02  0.29805309413E+02 -0.86373686723E+03  0.86455841364E+03  0.86077217482E+01 0.  0.
         13    1    3    3    0    0 -0.19592240410E+02  0.21799574202E+02 -0.63904824257E+03  0.63972004318E+03  0.00000000000E+00 0.  1.
          3    1    3    3  501    0 -0.17952661651E+01  0.80057352110E+01 -0.22468862466E+03  0.22483837046E+03  0.00000000000E+00 0.  1.
         -3    1    1    2    0  502  0.21387506575E+02 -0.29805309413E+02 -0.13337580724E+03  0.13832891189E+03  0.00000000000E+00 0. -1.
<mgrwt>
<rscale>  1 0.30000000E+03</rscale>
<asrwt>0</asrwt>
<pdfrwt beam="1">  1       21 0.10499388E-01 0.30000000E+03</pdfrwt>
<pdfrwt beam="2">0</pdfrwt>
<totfact> 0.78846930E+03</totfact>
</mgrwt>
</event>
<event>
 6    1  0.1284012E-001  0.3000000E+03  0.7818608E-02  0.1093470E+00
         21   -1    0    0  501  502  0.00000000000E+00  0.00000000000E+00  0.10656795620E+01  0.10656795620E+01  0.00000000000E+00 0. -1.
         13   -1    0    0    0    0 -0.00000000000E+00 -0.00000000000E+00 -0.10000000000E+04  0.10000000000E+04  0.00000000000E+00 0.  1.
    9000005    2    1    2  501    0 -0.31158994003E+02  0.51043519901E+01 -0.38131453905E+03  0.38263934468E+03  0.38926967524E+01 0.  0.
         13    1    3    3    0    0 -0.10875078546E+02  0.17320356352E+01 -0.15617530019E+03  0.15656305972E+03  0.00000000000E+00 0.  1.
          3    1    3    3  501    0 -0.20283915458E+02  0.33723163549E+01 -0.22513923886E+03  0.22607628495E+03  0.00000000000E+00 0.  1.
         -3    1    1    2    0  502  0.31158994003E+02 -0.51043519901E+01 -0.61761978139E+03  0.61842633489E+03  0.00000000000E+00 0. -1.
<mgrwt>
<rscale>  1 0.30000000E+03</rscale>
<asrwt>0</asrwt>
<pdfrwt beam="1">  1       21 0.38752066E-02 0.30000000E+03</pdfrwt>
<pdfrwt beam="2">0</pdfrwt>
<totfact> 0.44350813E+04</totfact>
</mgrwt>
</event>
<event>
 6    1  0.1284012E-001  0.3000000E+03  0.7818608E-02  0.1093470E+00
         21   -1    0    0  501  502  0.00000000000E+00  0.00000000000E+00  0.10760795411E+01  0.10760795411E+01  0.00000000000E+00 0. -1.
         13   -1    0    0    0    0 -0.00000000000E+00 -0.00000000000E+00 -0.10000000000E+04  0.10000000000E+04  0.00000000000E+00 0.  1.
    9000005    2    1    2  501    0 -0.22075308256E+02  0.23988055213E+02 -0.54965288804E+03  0.55062385500E+03  0.23635422001E+01 0.  0.
         13    1    3    3    0    0 -0.13681728385E+02  0.16460426202E+02 -0.36524956187E+03  0.36587617819E+03  0.00000000000E+00 0.  1.
          3    1    3    3  501    0 -0.83935798710E+01  0.75276290110E+01 -0.18440332617E+03  0.18474767681E+03  0.00000000000E+00 0.  1.
         -3    1    1    2    0  502  0.22075308256E+02 -0.23988055213E+02 -0.44927103242E+03  0.45045222454E+03  0.00000000000E+00 0. -1.
<mgrwt>
<rscale>  1 0.30000000E+03</rscale>
<asrwt>0</asrwt>
<pdfrwt beam="1">  1       21 0.39130248E-02 0.30000000E+03</pdfrwt>
<pdfrwt beam="2">0</pdfrwt>
<totfact> 0.43632273E+04</totfact>
</mgrwt>
</event>
<event>
 6    1  0.1284012E-001  0.3000000E+03  0.7818608E-02  0.1093470E+00
         21   -1    0    0  501  502  0.00000000000E+00  0.00000000000E+00  0.16407527004E+01  0.16407527004E+01  0.00000000000E+00 0. -1.
         13   -1    0    0    0    0 -0.00000000000E+00 -0.00000000000E+00 -0.10000000000E+04  0.10000000000E+04  0.00000000000E+00 0.  1.
    9000005    2    1    2  501    0  0.17403508314E+02 -0.35757415789E+02 -0.40863934255E+03  0.41058149937E+03  0.30952322217E+01 0.  0.
         13    1    3    3    0    0  0.12287174549E+02 -0.22855390298E+02 -0.25534739553E+03  0.25666249420E+03  0.00000000000E+00 0.  1.
          3    1    3    3  501    0  0.51163337657E+01 -0.12902025490E+02 -0.15329194702E+03  0.15391900517E+03  0.00000000000E+00 0.  1.
         -3    1    1    2    0  502 -0.17403508314E+02  0.35757415789E+02 -0.58971990475E+03  0.59105925333E+03  0.00000000000E+00 0. -1.
<mgrwt>
<rscale>  1 0.30000000E+03</rscale>
<asrwt>0</asrwt>
<pdfrwt beam="1">  1       21 0.59663860E-02 0.30000000E+03</pdfrwt>
<pdfrwt beam="2">0</pdfrwt>
<totfact> 0.21276802E+04</totfact>
</mgrwt>
</event>
<event>
 6    1  0.1284012E-001  0.3000000E+03  0.7818608E-02  0.1093470E+00
         21   -1    0    0  501  502  0.00000000000E+00  0.00000000000E+00  0.14470988451E+01  0.14470988451E+01  0.00000000000E+00 0. -1.
         13   -1    0    0    0    0 -0.00000000000E+00 -0.00000000000E+00 -0.10000000000E+04  0.10000000000E+04  0.00000000000E+00 0.  1.
    9000005    2    1    2  501    0  0.36714971109E+00 -0.37957320935E+02 -0.51817119330E+03  0.51956798719E+03  0.29350862912E+01 0.  0.
         13    1    3    3    0    0 -0.90041438100E+00 -0.66269205681E+01 -0.99005283625E+02  0.99230907523E+02  0.00000000000E+00 0.  1.
          3    1    3    3  501    0  0.12675640921E+01 -0.31330400367E+02 -0.41916590968E+03  0.42033707967E+03  0.00000000000E+00 0.  1.
         -1    1    1    2    0  502 -0.36714971109E+00  0.37957320935E+02 -0.48038170785E+03  0.48187911166E+03  0.00000000000E+00 0. -1.
<mgrwt>
<rscale>  1 0.30000000E+03</rscale>
<asrwt>0</asrwt>
<pdfrwt beam="1">  1       21 0.52621887E-02 0.30000000E+03</pdfrwt>
<pdfrwt beam="2">0</pdfrwt>
<totfact> 0.26398079E+04</totfact>
</mgrwt>
</event>
<event>
 6    1  0.1284012E-001  0.3000000E+03  0.7818608E-02  0.1093470E+00
         21   -1    0    0  501  502  0.00000000000E+00  0.00000000000E+00  0.63268679542E+01  0.63268679542E+01  0.00000000000E+00 0. -1.
         13   -1    0    0    0    0 -0.00000000000E+00 -0.00000000000E+00 -0.10000000000E+04  0.10000000000E+04  0.00000000000E+00 0.  1.
    9000005    2    1    2  501    0  0.46397465017E+01  0.32530242337E+02 -0.95503223051E+03  0.95560346916E+03  0.34183379907E+01 0.  0.
         13    1    3    3    0    0  0.26552433359E+01  0.25726908246E+02 -0.77661211886E+03  0.77704266761E+03  0.00000000000E+00 0.  1.
          3    1    3    3  501    0  0.19845031658E+01  0.68033340910E+01 -0.17842011165E+03  0.17856080155E+03  0.00000000000E+00 0.  1.
         -1    1    1    2    0  502 -0.46397465017E+01 -0.32530242337E+02 -0.38640901531E+02  0.50723398795E+02  0.00000000000E+00 0. -1.
<mgrwt>
<rscale>  1 0.30000000E+03</rscale>
<asrwt>0</asrwt>
<pdfrwt beam="1">  1       21 0.23006841E-01 0.30000000E+03</pdfrwt>
<pdfrwt beam="2">0</pdfrwt>
<totfact> 0.18332225E+03</totfact>
</mgrwt>
</event>
<event>
 6    1  0.1284012E-001  0.3000000E+03  0.7818608E-02  0.1093470E+00
         21   -1    0    0  501  502  0.00000000000E+00  0.00000000000E+00  0.13251446628E+01  0.13251446628E+01  0.00000000000E+00 0. -1.
         13   -1    0    0    0    0 -0.00000000000E+00 -0.00000000000E+00 -0.10000000000E+04  0.10000000000E+04  0.00000000000E+00 0.  1.
    9000005    2    1    2  501    0  0.25147989034E+02 -0.24011747691E+02 -0.64541310473E+03  0.64635634347E+03  0.30759721363E+01 0.  0.
         13    1    3    3    0    0  0.10904059397E+02 -0.10659141003E+02 -0.31140118246E+03  0.31177429695E+03  0.00000000000E+00 0.  1.
          3    1    3    3  501    0  0.14243929637E+02 -0.13352606688E+02 -0.33401192226E+03  0.33458204652E+03  0.00000000000E+00 0.  1.
         -3    1    1    2    0  502 -0.25147989034E+02  0.24011747691E+02 -0.35326175061E+03  0.35496880120E+03  0.00000000000E+00 0. -1.
<mgrwt>
<rscale>  1 0.30000000E+03</rscale>
<asrwt>0</asrwt>
<pdfrwt beam="1">  1       21 0.48187180E-02 0.30000000E+03</pdfrwt>
<pdfrwt beam="2">0</pdfrwt>
<totfact> 0.30674703E+04</totfact>
</mgrwt>
</event>
<event>
 6    1  0.1284012E-001  0.3000000E+03  0.7818608E-02  0.1093470E+00
         21   -1    0    0  501  502  0.00000000000E+00  0.00000000000E+00  0.15918121867E+01  0.15918121867E+01  0.00000000000E+00 0. -1.
         13   -1    0    0    0    0 -0.00000000000E+00 -0.00000000000E+00 -0.10000000000E+04  0.10000000000E+04  0.00000000000E+00 0.  1.
    9000005    2    1    2  501    0  0.39240030430E+02  0.20358060126E+01 -0.58252960344E+03  0.58386113168E+03  0.30261710387E+01 0.  0.
         13    1    3    3    0    0  0.82480173228E+01  0.12796729393E+01 -0.11077929368E+03  0.11109329080E+03  0.00000000000E+00 0.  1.
          1    1    3    3  501    0  0.30992013107E+02  0.75613307338E+00 -0.47175030976E+03  0.47276784088E+03  0.00000000000E+00 0.  1.
         -3    1    1    2    0  502 -0.39240030430E+02 -0.20358060126E+01 -0.41587858437E+03  0.41773068050E+03  0.00000000000E+00 0. -1.
<mgrwt>
<rscale>  1 0.30000000E+03</rscale>
<asrwt>0</asrwt>
<pdfrwt beam="1">  1       21 0.57884202E-02 0.30000000E+03</pdfrwt>
<pdfrwt beam="2">0</pdfrwt>
<totfact> 0.22416585E+04</totfact>
</mgrwt>
</event>
<event>
 6    1  0.1284012E-001  0.3000000E+03  0.7818608E-02  0.1093470E+00
         21   -1    0    0  501  502  0.00000000000E+00  0.00000000000E+00  0.61189249063E+01  0.61189249063E+01  0.00000000000E+00 0. -1.
         13   -1    0    0    0    0 -0.00000000000E+00 -0.00000000000E+00 -0.10000000000E+04  0.10000000000E+04  0.00000000000E+00 0.  1.
    9000005    2    1    2  501    0  0.25830084425E+02  0.37896292251E+02 -0.90441177061E+03  0.90557998383E+03  0.33367752706E+01 0.  0.
         13    1    3    3    0    0  0.17503382997E+02  0.22932822949E+02 -0.55850816949E+03  0.55925276769E+03  0.00000000000E+00 0.  1.
          1    1    3    3  501    0  0.83267014280E+01  0.14963469302E+02 -0.34590360112E+03  0.34632721614E+03  0.00000000000E+00 0.  1.
         -1    1    1    2    0  502 -0.25830084425E+02 -0.37896292251E+02 -0.89469304482E+02  0.10053894107E+03  0.00000000000E+00 0. -1.
<mgrwt>
<rscale>  1 0.30000000E+03</rscale>
<asrwt>0</asrwt>
<pdfrwt beam="1">  1       21 0.22250683E-01 0.30000000E+03</pdfrwt>
<pdfrwt beam="2">0</pdfrwt>
<totfact> 0.19554407E+03</totfact>
</mgrwt>
</event>
<event>
 6    1  0.1284012E-001  0.3000000E+03  0.7818608E-02  0.1093470E+00
         21   -1    0    0  501  502  0.00000000000E+00  0.00000000000E+00  0.39951953936E+01  0.39951953936E+01  0.00000000000E+00 0. -1.
         13   -1    0    0    0    0 -0.00000000000E+00 -0.00000000000E+00 -0.10000000000E+04  0.10000000000E+04  0.00000000000E+00 0.  1.
    9000005    2    1    2  501    0  0.47669625150E+02  0.40740519339E+02 -0.55605966320E+03  0.55960357697E+03  0.46509398756E+01 0.  0.
         13    1    3    3    0    0  0.42192064592E+02  0.33951163513E+02 -0.47861163662E+03  0.48166580793E+03  0.00000000000E+00 0.  1.
          3    1    3    3  501    0  0.54775605571E+01  0.67893558258E+01 -0.77448026583E+02  0.77937769045E+02  0.00000000000E+00 0.  1.
         -3    1    1    2    0  502 -0.47669625150E+02 -0.40740519339E+02 -0.43994514141E+03  0.44439161842E+03  0.00000000000E+00 0. -1.
<mgrwt>
<rscale>  1 0.30000000E+03</rscale>
<asrwt>0</asrwt>
<pdfrwt beam="1">  1       21 0.14528014E-01 0.30000000E+03</pdfrwt>
<pdfrwt beam="2">0</pdfrwt>
<totfact> 0.43686010E+03</totfact>
</mgrwt>
</event>
<event>
 6    1  0.1284012E-001  0.3000000E+03  0.7818608E-02  0.1093470E+00
         21   -1    0    0  501  502  0.00000000000E+00  0.00000000000E+00  0.73096564897E+01  0.73096564897E+01  0.00000000000E+00 0. -1.
         13   -1    0    0    0    0 -0.00000000000E+00 -0.00000000000E+00 -0.10000000000E+04  0.10000000000E+04  0.00000000000E+00 0.  1.
    9000005    2    1    2  501    0  0.51134885770E+02  0.98705220660E+01 -0.89572198084E+03  0.89724119094E+03  0.34181894690E+01 0.  0.
         13    1    3    3    0    0  0.50791567767E+02  0.99988416606E+01 -0.88477834812E+03  0.88629142244E+03  0.00000000000E+00 0.  1.
          1    1    3    3  501    0  0.34331800244E+00 -0.12831959457E+00 -0.10943632720E+02  0.10949768504E+02  0.00000000000E+00 0.  1.
         -3    1    1    2    0  502 -0.51134885770E+02 -0.98705220660E+01 -0.96968362673E+02  0.11006846555E+03  0.00000000000E+00 0. -1.
<mgrwt>
<rscale>  1 0.30000000E+03</rscale>
<asrwt>0</asrwt>
<pdfrwt beam="1">  1       21 0.26580625E-01 0.30000000E+03</pdfrwt>
<pdfrwt beam="2">0</pdfrwt>
<totfact> 0.13825363E+03</totfact>
</mgrwt>
</event>
<event>
 6    1  0.1284012E-001  0.3000000E+03  0.7818608E-02  0.1093470E+00
         21   -1    0    0  501  502  0.00000000000E+00  0.00000000000E+00  0.24989970114E+01  0.24989970114E+01  0.00000000000E+00 0. -1.
         13   -1    0    0    0    0 -0.00000000000E+00 -0.00000000000E+00 -0.10000000000E+04  0.10000000000E+04  0.00000000000E+00 0.  1.
    9000005    2    1    2  501    0 -0.20198977478E+02 -0.26086107537E+02 -0.87504421733E+03  0.87567570242E+03  0.41315645675E+01 0.  0.
         13    1    3    3    0    0 -0.13200237200E+02 -0.14619224743E+02 -0.55598356728E+03  0.55633236026E+03  0.00000000000E+00 0.  1.
          1    1    3    3  501    0 -0.69987402784E+01 -0.11466882794E+02 -0.31906065005E+03  0.31934334215E+03  0.00000000000E+00 0.  1.
         -1    1    1    2    0  502  0.20198977478E+02  0.26086107537E+02 -0.12245678566E+03  0.12682329459E+03  0.00000000000E+00 0. -1.
<mgrwt>
<rscale>  1 0.30000000E+03</rscale>
<asrwt>0</asrwt>
<pdfrwt beam="1">  1       21 0.90872810E-02 0.30000000E+03</pdfrwt>
<pdfrwt beam="2">0</pdfrwt>
<totfact> 0.10202070E+04</totfact>
</mgrwt>
</event>
<event>
 6    1  0.1284012E-001  0.3000000E+03  0.7818608E-02  0.1093470E+00
         21   -1    0    0  501  502  0.00000000000E+00  0.00000000000E+00  0.38433622714E+01  0.38433622714E+01  0.00000000000E+00 0. -1.
         13   -1    0    0    0    0 -0.00000000000E+00 -0.00000000000E+00 -0.10000000000E+04  0.10000000000E+04  0.00000000000E+00 0.  1.
    9000005    2    1    2  501    0 -0.43772926616E+02  0.16322608335E+01 -0.85299818747E+03  0.85413339179E+03  0.43828952077E+01 0.  0.
         13    1    3    3    0    0 -0.15634845537E+02 -0.14753361928E+00 -0.34356643063E+03  0.34392202956E+03  0.00000000000E+00 0.  1.
          3    1    3    3  501    0 -0.28138081079E+02  0.17797944527E+01 -0.50943175684E+03  0.51021136224E+03  0.00000000000E+00 0.  1.
         -3    1    1    2    0  502  0.43772926616E+02 -0.16322608335E+01 -0.14315845026E+03  0.14970997048E+03  0.00000000000E+00 0. -1.
<mgrwt>
<rscale>  1 0.30000000E+03</rscale>
<asrwt>0</asrwt>
<pdfrwt beam="1">  1       21 0.13975892E-01 0.30000000E+03</pdfrwt>
<pdfrwt beam="2">0</pdfrwt>
<totfact> 0.46915083E+03</totfact>
</mgrwt>
</event>
<event>
 6    1  0.1284012E-001  0.3000000E+03  0.7818608E-02  0.1093470E+00
         21   -1    0    0  501  502  0.00000000000E+00  0.00000000000E+00  0.10040960136E+01  0.10040960136E+01  0.00000000000E+00 0. -1.
         13   -1    0    0    0    0 -0.00000000000E+00 -0.00000000000E+00 -0.10000000000E+04  0.10000000000E+04  0.00000000000E+00 0.  1.
    9000005    2    1    2  501    0 -0.23002537805E+02 -0.20799428784E+02 -0.59701090780E+03  0.59782464447E+03  0.32478496558E+01 0.  0.
         13    1    3    3    0    0 -0.16266410744E+02 -0.13672126886E+02 -0.38267804108E+03  0.38326753880E+03  0.00000000000E+00 0.  1.
          1    1    3    3  501    0 -0.67361270608E+01 -0.71273018986E+01 -0.21433286672E+03  0.21455710568E+03  0.00000000000E+00 0.  1.
         -1    1    1    2    0  502  0.23002537805E+02  0.20799428784E+02 -0.40198499619E+03  0.40317945154E+03  0.00000000000E+00 0. -1.
<mgrwt>
<rscale>  1 0.30000000E+03</rscale>
<asrwt>0</asrwt>
<pdfrwt beam="1">  1       21 0.36512659E-02 0.30000000E+03</pdfrwt>
<pdfrwt beam="2">0</pdfrwt>
<totfact> 0.49013928E+04</totfact>
</mgrwt>
</event>
<event>
 6    1  0.1284012E-001  0.3000000E+03  0.7818608E-02  0.1093470E+00
         21   -1    0    0  501  502  0.00000000000E+00  0.00000000000E+00  0.11938500184E+01  0.11938500184E+01  0.00000000000E+00 0. -1.
         13   -1    0    0    0    0 -0.00000000000E+00 -0.00000000000E+00 -0.10000000000E+04  0.10000000000E+04  0.00000000000E+00 0.  1.
    9000005    2    1    2  501    0  0.61493374902E+01  0.33235958089E+02 -0.40260003016E+03  0.40403040458E+03  0.33675323648E+01 0.  0.
         13    1    3    3    0    0  0.12764140491E+01  0.16075282601E+02 -0.19354207218E+03  0.19421271237E+03  0.00000000000E+00 0.  1.
          3    1    3    3  501    0  0.48729234410E+01  0.17160675488E+02 -0.20905795799E+03  0.20981769221E+03  0.00000000000E+00 0.  1.
         -1    1    1    2    0  502 -0.61493374902E+01 -0.33235958089E+02 -0.59620611982E+03  0.59716344544E+03  0.00000000000E+00 0. -1.
<mgrwt>
<rscale>  1 0.30000000E+03</rscale>
<asrwt>0</asrwt>
<pdfrwt beam="1">  1       21 0.43412819E-02 0.30000000E+03</pdfrwt>
<pdfrwt beam="2">0</pdfrwt>
<totfact> 0.36619999E+04</totfact>
</mgrwt>
</event>
<event>
 6    1  0.1284012E-001  0.3000000E+03  0.7818608E-02  0.1093470E+00
         21   -1    0    0  501  502  0.00000000000E+00  0.00000000000E+00  0.13120345617E+01  0.13120345617E+01  0.00000000000E+00 0. -1.
         13   -1    0    0    0    0 -0.00000000000E+00 -0.00000000000E+00 -0.10000000000E+04  0.10000000000E+04  0.00000000000E+00 0.  1.
    9000005    2    1    2  501    0 -0.23924603785E+02 -0.26821843487E+02 -0.44574668398E+03  0.44720386940E+03  0.30653834703E+01 0.  0.
         13    1    3    3    0    0 -0.10407930058E+02 -0.94284512269E+01 -0.17228875870E+03  0.17286016625E+03  0.00000000000E+00 0.  1.
          1    1    3    3  501    0 -0.13516673727E+02 -0.17393392260E+02 -0.27345792527E+03  0.27434370315E+03  0.00000000000E+00 0.  1.
         -1    1    1    2    0  502  0.23924603785E+02  0.26821843487E+02 -0.55294128146E+03  0.55410816516E+03  0.00000000000E+00 0. -1.
<mgrwt>
<rscale>  1 0.30000000E+03</rscale>
<asrwt>0</asrwt>
<pdfrwt beam="1">  1       21 0.47710448E-02 0.30000000E+03</pdfrwt>
<pdfrwt beam="2">0</pdfrwt>
<totfact> 0.31198062E+04</totfact>
</mgrwt>
</event>
<event>
 6    1  0.1284012E-001  0.3000000E+03  0.7818608E-02  0.1093470E+00
         21   -1    0    0  501  502  0.00000000000E+00  0.00000000000E+00  0.35785643154E+01  0.35785643154E+01  0.00000000000E+00 0. -1.
         13   -1    0    0    0    0 -0.00000000000E+00 -0.00000000000E+00 -0.10000000000E+04  0.10000000000E+04  0.00000000000E+00 0.  1.
    9000005    2    1    2  501    0  0.16828681622E+02 -0.41214789518E+02 -0.83298037333E+03  0.83418303822E+03  0.48140925824E+01 0.  0.
         13    1    3    3    0    0  0.65453663934E+01 -0.22243091229E+02 -0.42174452854E+03  0.42238139670E+03  0.00000000000E+00 0.  1.
          1    1    3    3  501    0  0.10283315229E+02 -0.18971698289E+02 -0.41123584480E+03  0.41180164152E+03  0.00000000000E+00 0.  1.
         -3    1    1    2    0  502 -0.16828681622E+02  0.41214789518E+02 -0.16344106235E+03  0.16939552610E+03  0.00000000000E+00 0. -1.
<mgrwt>
<rscale>  1 0.30000000E+03</rscale>
<asrwt>0</asrwt>
<pdfrwt beam="1">  1       21 0.13012989E-01 0.30000000E+03</pdfrwt>
<pdfrwt beam="2">0</pdfrwt>
<totfact> 0.53467645E+03</totfact>
</mgrwt>
</event>
<event>
 6    1  0.1284012E-001  0.3000000E+03  0.7818608E-02  0.1093470E+00
         21   -1    0    0  501  502  0.00000000000E+00  0.00000000000E+00  0.12645306492E+01  0.12645306492E+01  0.00000000000E+00 0. -1.
         13   -1    0    0    0    0 -0.00000000000E+00 -0.00000000000E+00 -0.10000000000E+04  0.10000000000E+04  0.00000000000E+00 0.  1.
    9000005    2    1    2  501    0  0.29294526345E+02  0.18799005549E+02 -0.59761538319E+03  0.59863704102E+03  0.32540393986E+01 0.  0.
         13    1    3    3    0    0  0.26765625788E+02  0.18153801496E+02 -0.55628296130E+03  0.55722230058E+03  0.00000000000E+00 0.  1.
          1    1    3    3  501    0  0.25289005579E+01  0.64520405326E+00 -0.41332421894E+02  0.41414740443E+02  0.00000000000E+00 0.  1.
         -3    1    1    2    0  502 -0.29294526345E+02 -0.18799005549E+02 -0.40112008616E+03  0.40262748963E+03  0.00000000000E+00 0. -1.
<mgrwt>
<rscale>  1 0.30000000E+03</rscale>
<asrwt>0</asrwt>
<pdfrwt beam="1">  1       21 0.45983030E-02 0.30000000E+03</pdfrwt>
<pdfrwt beam="2">0</pdfrwt>
<totfact> 0.33216601E+04</totfact>
</mgrwt>
</event>
<event>
 6    1  0.1284012E-001  0.3000000E+03  0.7818608E-02  0.1093470E+00
         21   -1    0    0  501  502  0.00000000000E+00  0.00000000000E+00  0.11279468082E+01  0.11279468082E+01  0.00000000000E+00 0. -1.
         13   -1    0    0    0    0 -0.00000000000E+00 -0.00000000000E+00 -0.10000000000E+04  0.10000000000E+04  0.00000000000E+00 0.  1.
    9000005    2    1    2  501    0  0.88054953941E+01  0.31023423328E+02 -0.36117198607E+03  0.36261297819E+03  0.17259446737E+01 0.  0.
         13    1    3    3    0    0  0.43244554522E+01  0.17545528162E+02 -0.20870834926E+03  0.20948919190E+03  0.00000000000E+00 0.  1.
          3    1    3    3  501    0  0.44810399419E+01  0.13477895166E+02 -0.15246363682E+03  0.15312378629E+03  0.00000000000E+00 0.  1.
         -3    1    1    2    0  502 -0.88054953941E+01 -0.31023423328E+02 -0.63770006712E+03  0.63851496862E+03  0.00000000000E+00 0. -1.
<mgrwt>
<rscale>  1 0.30000000E+03</rscale>
<asrwt>0</asrwt>
<pdfrwt beam="1">  1       21 0.41016334E-02 0.30000000E+03</pdfrwt>
<pdfrwt beam="2">0</pdfrwt>
<totfact> 0.40306554E+04</totfact>
</mgrwt>
</event>
<event>
 6    1  0.1284012E-001  0.3000000E+03  0.7818608E-02  0.1093470E+00
         21   -1    0    0  501  502  0.00000000000E+00  0.00000000000E+00  0.32937997334E+01  0.32937997334E+01  0.00000000000E+00 0. -1.
         13   -1    0    0    0    0 -0.00000000000E+00 -0.00000000000E+00 -0.10000000000E+04  0.10000000000E+04  0.00000000000E+00 0.  1.
    9000005    2    1    2  501    0 -0.84592731391E+01  0.53565641920E+02 -0.33523832070E+03  0.33960667993E+03  0.26698483417E+01 0.  0.
         13    1    3    3    0    0 -0.64442827985E+01  0.43674206658E+02 -0.26677226120E+03  0.27040045202E+03  0.00000000000E+00 0.  1.
          3    1    3    3  501    0 -0.20149903406E+01  0.98914352614E+01 -0.68466059505E+02  0.69206227912E+02  0.00000000000E+00 0.  1.
         -1    1    1    2    0  502  0.84592731391E+01 -0.53565641920E+02 -0.66146787956E+03  0.66368711980E+03  0.00000000000E+00 0. -1.
<mgrwt>
<rscale>  1 0.30000000E+03</rscale>
<asrwt>0</asrwt>
<pdfrwt beam="1">  1       21 0.11977479E-01 0.30000000E+03</pdfrwt>
<pdfrwt beam="2">0</pdfrwt>
<totfact> 0.62182820E+03</totfact>
</mgrwt>
</event>
<event>
 6    1  0.1284012E-001  0.3000000E+03  0.7818608E-02  0.1093470E+00
         21   -1    0    0  501  502  0.00000000000E+00  0.00000000000E+00  0.31782564020E+01  0.31782564020E+01  0.00000000000E+00 0. -1.
         13   -1    0    0    0    0 -0.00000000000E+00 -0.00000000000E+00 -0.10000000000E+04  0.10000000000E+04  0.00000000000E+00 0.  1.
    9000005    2    1    2  501    0  0.26154955606E+02  0.22007578911E+02 -0.89711574549E+03  0.89777568864E+03  0.40138601622E+01 0.  0.
         13    1    3    3    0    0  0.12338138211E+02  0.88829506098E+01 -0.44112220335E+03  0.44138411249E+03  0.00000000000E+00 0.  1.
          1    1    3    3  501    0  0.13816817395E+02  0.13124628301E+02 -0.45599354214E+03  0.45639157616E+03  0.00000000000E+00 0.  1.
         -1    1    1    2    0  502 -0.26154955606E+02 -0.22007578911E+02 -0.99705998106E+02  0.10540256776E+03  0.00000000000E+00 0. -1.
<mgrwt>
<rscale>  1 0.30000000E+03</rscale>
<asrwt>0</asrwt>
<pdfrwt beam="1">  1       21 0.11557320E-01 0.30000000E+03</pdfrwt>
<pdfrwt beam="2">0</pdfrwt>
<totfact> 0.66336844E+03</totfact>
</mgrwt>
</event>
<event>
 6    1  0.1284012E-001  0.3000000E+03  0.7818608E-02  0.1093470E+00
         21   -1    0    0  501  502  0.00000000000E+00  0.00000000000E+00  0.12530646242E+01  0.12530646242E+01  0.00000000000E+00 0. -1.
         13   -1    0    0    0    0 -0.00000000000E+00 -0.00000000000E+00 -0.10000000000E+04  0.10000000000E+04  0.00000000000E+00 0.  1.
    9000005    2    1    2  501    0 -0.22333054848E+02  0.24884775349E+02 -0.66148897937E+03  0.66234165102E+03  0.32826000176E+01 0.  0.
         13    1    3    3    0    0 -0.61176105133E+00  0.15248043366E+00 -0.83677130563E+01  0.83914315620E+01  0.00000000000E+00 0.  1.
          1    1    3    3  501    0 -0.21721293797E+02  0.24732294916E+02 -0.65312126631E+03  0.65395021945E+03  0.00000000000E+00 0.  1.
         -3    1    1    2    0  502  0.22333054848E+02 -0.24884775349E+02 -0.33725795601E+03  0.33891141361E+03  0.00000000000E+00 0. -1.
<mgrwt>
<rscale>  1 0.30000000E+03</rscale>
<asrwt>0</asrwt>
<pdfrwt beam="1">  1       21 0.45566082E-02 0.30000000E+03</pdfrwt>
<pdfrwt beam="2">0</pdfrwt>
<totfact> 0.33734560E+04</totfact>
</mgrwt>
</event>
<event>
 6    1  0.1284012E-001  0.3000000E+03  0.7818608E-02  0.1093470E+00
         21   -1    0    0  501  502  0.00000000000E+00  0.00000000000E+00  0.55185012789E+01  0.55185012789E+01  0.00000000000E+00 0. -1.
         13   -1    0    0    0    0 -0.00000000000E+00 -0.00000000000E+00 -0.10000000000E+04  0.10000000000E+04  0.00000000000E+00 0.  1.
    9000005    2    1    2  501    0 -0.36715309763E+02 -0.22567192755E+02 -0.90670492472E+03  0.90773292410E+03  0.28193675350E+01 0.  0.
         13    1    3    3    0    0 -0.15398709792E+02 -0.78523022957E+01 -0.36590488123E+03  0.36631292773E+03  0.00000000000E+00 0.  1.
          1    1    3    3  501    0 -0.21316599971E+02 -0.14714890459E+02 -0.54080004349E+03  0.54141999637E+03  0.00000000000E+00 0.  1.
         -3    1    1    2    0  502  0.36715309763E+02  0.22567192755E+02 -0.87776574003E+02  0.97785577176E+02  0.00000000000E+00 0. -1.
<mgrwt>
<rscale>  1 0.30000000E+03</rscale>
<asrwt>0</asrwt>
<pdfrwt beam="1">  1       21 0.20067320E-01 0.30000000E+03</pdfrwt>
<pdfrwt beam="2">0</pdfrwt>
<totfact> 0.23838771E+03</totfact>
</mgrwt>
</event>
<event>
 6    1  0.1284012E-001  0.3000000E+03  0.7818608E-02  0.1093470E+00
         21   -1    0    0  501  502  0.00000000000E+00  0.00000000000E+00  0.12780603260E+01  0.12780603260E+01  0.00000000000E+00 0. -1.
         13   -1    0    0    0    0 -0.00000000000E+00 -0.00000000000E+00 -0.10000000000E+04  0.10000000000E+04  0.00000000000E+00 0.  1.
    9000005    2    1    2  501    0 -0.19816390180E+02 -0.29672626993E+02 -0.49705081978E+03  0.49833962806E+03  0.31166232814E+01 0.  0.
         13    1    3    3    0    0 -0.13037624033E+02 -0.19344855237E+02 -0.30379344183E+03  0.30468780475E+03  0.00000000000E+00 0.  1.
          3    1    3    3  501    0 -0.67787661465E+01 -0.10327771755E+02 -0.19325737796E+03  0.19365182332E+03  0.00000000000E+00 0.  1.
         -1    1    1    2    0  502  0.19816390180E+02  0.29672626993E+02 -0.50167111989E+03  0.50293843226E+03  0.00000000000E+00 0. -1.
<mgrwt>
<rscale>  1 0.30000000E+03</rscale>
<asrwt>0</asrwt>
<pdfrwt beam="1">  1       21 0.46475019E-02 0.30000000E+03</pdfrwt>
<pdfrwt beam="2">0</pdfrwt>
<totfact> 0.32621302E+04</totfact>
</mgrwt>
</event>
<event>
 6    1  0.1284012E-001  0.3000000E+03  0.7818608E-02  0.1093470E+00
         21   -1    0    0  501  502  0.00000000000E+00  0.00000000000E+00  0.11777312987E+01  0.11777312987E+01  0.00000000000E+00 0. -1.
         13   -1    0    0    0    0 -0.00000000000E+00 -0.00000000000E+00 -0.10000000000E+04  0.10000000000E+04  0.00000000000E+00 0.  1.
    9000005    2    1    2  501    0 -0.27034197374E+02 -0.17819150909E+02 -0.33959266012E+03  0.34115345387E+03  0.37595627988E+01 0.  0.
         13    1    3    3    0    0 -0.97039871847E+01 -0.85596438081E+01 -0.13124392650E+03  0.13188026051E+03  0.00000000000E+00 0.  1.
          1    1    3    3  501    0 -0.17330210189E+02 -0.92595071009E+01 -0.20834873362E+03  0.20927319336E+03  0.00000000000E+00 0.  1.
         -3    1    1    2    0  502  0.27034197374E+02  0.17819150909E+02 -0.65922960858E+03  0.66002427743E+03  0.00000000000E+00 0. -1.
<mgrwt>
<rscale>  1 0.30000000E+03</rscale>
<asrwt>0</asrwt>
<pdfrwt beam="1">  1       21 0.42826683E-02 0.30000000E+03</pdfrwt>
<pdfrwt beam="2">0</pdfrwt>
<totfact> 0.37471785E+04</totfact>
</mgrwt>
</event>
<event>
 6    1  0.1284012E-001  0.3000000E+03  0.7818608E-02  0.1093470E+00
         21   -1    0    0  501  502  0.00000000000E+00  0.00000000000E+00  0.29822428515E+01  0.29822428515E+01  0.00000000000E+00 0. -1.
         13   -1    0    0    0    0 -0.00000000000E+00 -0.00000000000E+00 -0.10000000000E+04  0.10000000000E+04  0.00000000000E+00 0.  1.
    9000005    2    1    2  501    0  0.53374103141E+01 -0.35460238553E+02 -0.87660208760E+03  0.87734049048E+03  0.30331134924E+01 0.  0.
         13    1    3    3    0    0  0.44553795979E+01 -0.33272742058E+02 -0.83033974646E+03  0.83101806257E+03  0.00000000000E+00 0.  1.
          3    1    3    3  501    0  0.88203071619E+00 -0.21874964944E+01 -0.46262341143E+02  0.46322427906E+02  0.00000000000E+00 0.  1.
         -1    1    1    2    0  502 -0.53374103141E+01  0.35460238553E+02 -0.12041566955E+03  0.12564175237E+03  0.00000000000E+00 0. -1.
<mgrwt>
<rscale>  1 0.30000000E+03</rscale>
<asrwt>0</asrwt>
<pdfrwt beam="1">  1       21 0.10844542E-01 0.30000000E+03</pdfrwt>
<pdfrwt beam="2">0</pdfrwt>
<totfact> 0.74400141E+03</totfact>
</mgrwt>
</event>
<event>
 6    1  0.1284012E-001  0.3000000E+03  0.7818608E-02  0.1093470E+00
         21   -1    0    0  501  502  0.00000000000E+00  0.00000000000E+00  0.33074550953E+01  0.33074550953E+01  0.00000000000E+00 0. -1.
         13   -1    0    0    0    0 -0.00000000000E+00 -0.00000000000E+00 -0.10000000000E+04  0.10000000000E+04  0.00000000000E+00 0.  1.
    9000005    2    1    2  501    0  0.35022480273E+02 -0.37157545278E+01 -0.89484891168E+03  0.89554611423E+03  0.28083848893E+01 0.  0.
         13    1    3    3    0    0  0.23144181449E+02 -0.37761153788E+01 -0.58926132174E+03  0.58972774861E+03  0.00000000000E+00 0.  1.
          1    1    3    3  501    0  0.11878298823E+02  0.60360850955E-01 -0.30558758994E+03  0.30581836562E+03  0.00000000000E+00 0.  1.
         -1    1    1    2    0  502 -0.35022480273E+02  0.37157545278E+01 -0.10184363322E+03  0.10776134086E+03  0.00000000000E+00 0. -1.
<mgrwt>
<rscale>  1 0.30000000E+03</rscale>
<asrwt>0</asrwt>
<pdfrwt beam="1">  1       21 0.12027135E-01 0.30000000E+03</pdfrwt>
<pdfrwt beam="2">0</pdfrwt>
<totfact> 0.61717645E+03</totfact>
</mgrwt>
</event>
<event>
 6    1  0.1284012E-001  0.3000000E+03  0.7818608E-02  0.1093470E+00
         21   -1    0    0  501  502  0.00000000000E+00  0.00000000000E+00  0.70424197192E+01  0.70424197192E+01  0.00000000000E+00 0. -1.
         13   -1    0    0    0    0 -0.00000000000E+00 -0.00000000000E+00 -0.10000000000E+04  0.10000000000E+04  0.00000000000E+00 0.  1.
    9000005    2    1    2  501    0 -0.35070482448E+02  0.33708654902E+02 -0.90667978657E+03  0.90799662303E+03  0.48394113234E+01 0.  0.
         13    1    3    3    0    0 -0.32480916697E+02  0.32610975854E+02 -0.84471218143E+03  0.84596522101E+03  0.00000000000E+00 0.  1.
          1    1    3    3  501    0 -0.25895657512E+01  0.10976790481E+01 -0.61967605140E+02  0.62031402023E+02  0.00000000000E+00 0.  1.
         -1    1    1    2    0  502  0.35070482448E+02 -0.33708654902E+02 -0.86277793708E+02  0.99045796688E+02  0.00000000000E+00 0. -1.
<mgrwt>
<rscale>  1 0.30000000E+03</rscale>
<asrwt>0</asrwt>
<pdfrwt beam="1">  1       21 0.25608853E-01 0.30000000E+03</pdfrwt>
<pdfrwt beam="2">0</pdfrwt>
<totfact> 0.14877127E+03</totfact>
</mgrwt>
</event>
<event>
 6    1  0.1284012E-001  0.3000000E+03  0.7818608E-02  0.1093470E+00
         21   -1    0    0  501  502  0.00000000000E+00  0.00000000000E+00  0.16678358905E+01  0.16678358905E+01  0.00000000000E+00 0. -1.
         13   -1    0    0    0    0 -0.00000000000E+00 -0.00000000000E+00 -0.10000000000E+04  0.10000000000E+04  0.00000000000E+00 0.  1.
    9000005    2    1    2  501    0  0.18917629310E+02  0.31541616998E+02 -0.71520335030E+03  0.71616008554E+03  0.40847934404E+01 0.  0.
         13    1    3    3    0    0  0.23809413907E+01  0.21341941208E+01 -0.50574181788E+02  0.50675156931E+02  0.00000000000E+00 0.  1.
          3    1    3    3  501    0  0.16536687919E+02  0.29407422877E+02 -0.66462916851E+03  0.66548492860E+03  0.00000000000E+00 0.  1.
         -3    1    1    2    0  502 -0.18917629310E+02 -0.31541616998E+02 -0.28312881381E+03  0.28550775036E+03  0.00000000000E+00 0. -1.
<mgrwt>
<rscale>  1 0.30000000E+03</rscale>
<asrwt>0</asrwt>
<pdfrwt beam="1">  1       21 0.60648706E-02 0.30000000E+03</pdfrwt>
<pdfrwt beam="2">0</pdfrwt>
<totfact> 0.20684382E+04</totfact>
</mgrwt>
</event>
<event>
 6    1  0.1284012E-001  0.3000000E+03  0.7818608E-02  0.1093470E+00
         21   -1    0    0  501  502  0.00000000000E+00  0.00000000000E+00  0.22731514805E+01  0.22731514805E+01  0.00000000000E+00 0. -1.
         13   -1    0    0    0    0 -0.00000000000E+00 -0.00000000000E+00 -0.10000000000E+04  0.10000000000E+04  0.00000000000E+00 0.  1.
    9000005    2    1    2  501    0 -0.36473234447E+02  0.20078816665E+02 -0.74261928933E+03  0.74379042002E+03  0.27063467602E+01 0.  0.
         13    1    3    3    0    0 -0.29411795497E+02  0.15039027733E+02 -0.59569470780E+03  0.59660993200E+03  0.00000000000E+00 0.  1.
          3    1    3    3  501    0 -0.70614389496E+01  0.50397889323E+01 -0.14692458154E+03  0.14718048801E+03  0.00000000000E+00 0.  1.
         -1    1    1    2    0  502  0.36473234447E+02 -0.20078816665E+02 -0.25510755919E+03  0.25848273146E+03  0.00000000000E+00 0. -1.
<mgrwt>
<rscale>  1 0.30000000E+03</rscale>
<asrwt>0</asrwt>
<pdfrwt beam="1">  1       21 0.82660228E-02 0.30000000E+03</pdfrwt>
<pdfrwt beam="2">0</pdfrwt>
<totfact> 0.12059929E+04</totfact>
</mgrwt>
</event>
<event>
 6    1  0.1284012E-001  0.3000000E+03  0.7818608E-02  0.1093470E+00
         21   -1    0    0  501  502  0.00000000000E+00  0.00000000000E+00  0.29175437254E+01  0.29175437254E+01  0.00000000000E+00 0. -1.
         13   -1    0    0    0    0 -0.00000000000E+00 -0.00000000000E+00 -0.10000000000E+04  0.10000000000E+04  0.00000000000E+00 0.  1.
    9000005    2    1    2  501    0 -0.74311064943E-01 -0.37914216485E+02 -0.85540309184E+03  0.85625283890E+03  0.41208333843E+01 0.  0.
         13    1    3    3    0    0 -0.50705046750E+00 -0.10999152251E+02 -0.29087747921E+03  0.29108580584E+03  0.00000000000E+00 0.  1.
          1    1    3    3  501    0  0.43273940256E+00 -0.26915064233E+02 -0.56452561263E+03  0.56516703306E+03  0.00000000000E+00 0.  1.
         -3    1    1    2    0  502  0.74311064943E-01  0.37914216485E+02 -0.14167936444E+03  0.14666470483E+03  0.00000000000E+00 0. -1.
<mgrwt>
<rscale>  1 0.30000000E+03</rscale>
<asrwt>0</asrwt>
<pdfrwt beam="1">  1       21 0.10609272E-01 0.30000000E+03</pdfrwt>
<pdfrwt beam="2">0</pdfrwt>
<totfact> 0.77388504E+03</totfact>
</mgrwt>
</event>
<event>
 6    1  0.1284012E-001  0.3000000E+03  0.7818608E-02  0.1093470E+00
         21   -1    0    0  501  502  0.00000000000E+00  0.00000000000E+00  0.41381698615E+01  0.41381698615E+01  0.00000000000E+00 0. -1.
         13   -1    0    0    0    0 -0.00000000000E+00 -0.00000000000E+00 -0.10000000000E+04  0.10000000000E+04  0.00000000000E+00 0.  1.
    9000005    2    1    2  501    0 -0.18140933867E+01  0.42523561268E+02 -0.87410236746E+03  0.87515401986E+03  0.52976877098E+01 0.  0.
         13    1    3    3    0    0  0.38662645135E+00  0.19957549665E+02 -0.45725415202E+03  0.45768964682E+03  0.00000000000E+00 0.  1.
          3    1    3    3  501    0 -0.22007198381E+01  0.22566011603E+02 -0.41684821543E+03  0.41746437304E+03  0.00000000000E+00 0.  1.
         -3    1    1    2    0  502  0.18140933867E+01 -0.42523561268E+02 -0.12175946268E+03  0.12898415000E+03  0.00000000000E+00 0. -1.
<mgrwt>
<rscale>  1 0.30000000E+03</rscale>
<asrwt>0</asrwt>
<pdfrwt beam="1">  1       21 0.15047922E-01 0.30000000E+03</pdfrwt>
<pdfrwt beam="2">0</pdfrwt>
<totfact> 0.40937909E+03</totfact>
</mgrwt>
</event>
<event>
 6    1  0.1284012E-001  0.3000000E+03  0.7818608E-02  0.1093470E+00
         21   -1    0    0  501  502  0.00000000000E+00  0.00000000000E+00  0.10458225379E+01  0.10458225379E+01  0.00000000000E+00 0. -1.
         13   -1    0    0    0    0 -0.00000000000E+00 -0.00000000000E+00 -0.10000000000E+04  0.10000000000E+04  0.00000000000E+00 0.  1.
    9000005    2    1    2  501    0 -0.20668449278E+02 -0.23107130000E+02 -0.36568979912E+03  0.36702303341E+03  0.39690833934E+01 0.  0.
         13    1    3    3    0    0 -0.71566672229E+01 -0.70883865801E+01 -0.98994400327E+02  0.99505549625E+02  0.00000000000E+00 0.  1.
          3    1    3    3  501    0 -0.13511782055E+02 -0.16018743420E+02 -0.26669539879E+03  0.26751748379E+03  0.00000000000E+00 0.  1.
         -1    1    1    2    0  502  0.20668449278E+02  0.23107130000E+02 -0.63326437834E+03  0.63402278913E+03  0.00000000000E+00 0. -1.
<mgrwt>
<rscale>  1 0.30000000E+03</rscale>
<asrwt>0</asrwt>
<pdfrwt beam="1">  1       21 0.38029991E-02 0.30000000E+03</pdfrwt>
<pdfrwt beam="2">0</pdfrwt>
<totfact> 0.45775365E+04</totfact>
</mgrwt>
</event>
<event>
 6    1  0.1284012E-001  0.3000000E+03  0.7818608E-02  0.1093470E+00
         21   -1    0    0  501  502  0.00000000000E+00  0.00000000000E+00  0.16649794313E+01  0.16649794313E+01  0.00000000000E+00 0. -1.
         13   -1    0    0    0    0 -0.00000000000E+00 -0.00000000000E+00 -0.10000000000E+04  0.10000000000E+04  0.00000000000E+00 0.  1.
    9000005    2    1    2  501    0  0.33354242408E+02  0.82027714380E+01 -0.76880602106E+03  0.76958018337E+03  0.33421066026E+01 0.  0.
         13    1    3    3    0    0  0.28486470377E+02  0.73306371478E+01 -0.63046496184E+03  0.63115076277E+03  0.00000000000E+00 0.  1.
          3    1    3    3  501    0  0.48677720315E+01  0.87213429020E+00 -0.13834105922E+03  0.13842942061E+03  0.00000000000E+00 0.  1.
         -3    1    1    2    0  502 -0.33354242408E+02 -0.82027714380E+01 -0.22952899951E+03  0.23208479606E+03  0.00000000000E+00 0. -1.
<mgrwt>
<rscale>  1 0.30000000E+03</rscale>
<asrwt>0</asrwt>
<pdfrwt beam="1">  1       21 0.60544834E-02 0.30000000E+03</pdfrwt>
<pdfrwt beam="2">0</pdfrwt>
<totfact> 0.20745646E+04</totfact>
</mgrwt>
</event>
<event>
 6    1  0.1284012E-001  0.3000000E+03  0.7818608E-02  0.1093470E+00
         21   -1    0    0  501  502  0.00000000000E+00  0.00000000000E+00  0.10438841243E+01  0.10438841243E+01  0.00000000000E+00 0. -1.
         13   -1    0    0    0    0 -0.00000000000E+00 -0.00000000000E+00 -0.10000000000E+04  0.10000000000E+04  0.00000000000E+00 0.  1.
    9000005    2    1    2  501    0 -0.16446113045E+02 -0.25201506560E+02 -0.67995196717E+03  0.68062347675E+03  0.28370556476E+01 0.  0.
         13    1    3    3    0    0 -0.15549370660E+02 -0.24717701398E+02 -0.65929525337E+03  0.65994164803E+03  0.00000000000E+00 0.  1.
          3    1    3    3  501    0 -0.89674238511E+00 -0.48380516255E+00 -0.20656713796E+02  0.20681828720E+02  0.00000000000E+00 0.  1.
         -1    1    1    2    0  502  0.16446113045E+02  0.25201506560E+02 -0.31900414871E+03  0.32042040737E+03  0.00000000000E+00 0. -1.
<mgrwt>
<rscale>  1 0.30000000E+03</rscale>
<asrwt>0</asrwt>
<pdfrwt beam="1">  1       21 0.37959503E-02 0.30000000E+03</pdfrwt>
<pdfrwt beam="2">0</pdfrwt>
<totfact> 0.45918269E+04</totfact>
</mgrwt>
</event>
<event>
 6    1  0.1284012E-001  0.3000000E+03  0.7818608E-02  0.1093470E+00
         21   -1    0    0  501  502  0.00000000000E+00  0.00000000000E+00  0.98154888323E+00  0.98154888323E+00  0.00000000000E+00 0. -1.
         13   -1    0    0    0    0 -0.00000000000E+00 -0.00000000000E+00 -0.10000000000E+04  0.10000000000E+04  0.00000000000E+00 0.  1.
    9000005    2    1    2  501    0  0.12805187433E+02 -0.28221873234E+02 -0.57083670945E+03  0.57167973098E+03  0.16489418642E+01 0.  0.
         13    1    3    3    0    0  0.55533938963E+01 -0.11931276617E+02 -0.22768629893E+03  0.22806631988E+03  0.00000000000E+00 0.  1.
          3    1    3    3  501    0  0.72517935366E+01 -0.16290596617E+02 -0.34315041052E+03  0.34361341110E+03  0.00000000000E+00 0.  1.
         -3    1    1    2    0  502 -0.12805187433E+02  0.28221873234E+02 -0.42818174167E+03  0.42930181790E+03  0.00000000000E+00 0. -1.
<mgrwt>
<rscale>  1 0.30000000E+03</rscale>
<asrwt>0</asrwt>
<pdfrwt beam="1">  1       21 0.35692762E-02 0.30000000E+03</pdfrwt>
<pdfrwt beam="2">0</pdfrwt>
<totfact> 0.50916821E+04</totfact>
</mgrwt>
</event>
<event>
 6    1  0.1284012E-001  0.3000000E+03  0.7818608E-02  0.1093470E+00
         21   -1    0    0  501  502  0.00000000000E+00  0.00000000000E+00  0.55986719466E+01  0.55986719466E+01  0.00000000000E+00 0. -1.
         13   -1    0    0    0    0 -0.00000000000E+00 -0.00000000000E+00 -0.10000000000E+04  0.10000000000E+04  0.00000000000E+00 0.  1.
    9000005    2    1    2  501    0  0.31506586992E+02 -0.14006218733E+02 -0.94340799076E+03  0.94404252169E+03  0.29675789941E+01 0.  0.
         13    1    3    3    0    0  0.54537039231E+01 -0.30172194078E+01 -0.19957196305E+03  0.19966926387E+03  0.00000000000E+00 0.  1.
          3    1    3    3  501    0  0.26052883069E+02 -0.10988999325E+02 -0.74383602772E+03  0.74437325782E+03  0.00000000000E+00 0.  1.
         -1    1    1    2    0  502 -0.31506586992E+02  0.14006218733E+02 -0.50993337289E+02  0.61556150261E+02  0.00000000000E+00 0. -1.
<mgrwt>
<rscale>  1 0.30000000E+03</rscale>
<asrwt>0</asrwt>
<pdfrwt beam="1">  1       21 0.20358850E-01 0.30000000E+03</pdfrwt>
<pdfrwt beam="2">0</pdfrwt>
<totfact> 0.23190730E+03</totfact>
</mgrwt>
</event>
<event>
 6    1  0.1284012E-001  0.3000000E+03  0.7818608E-02  0.1093470E+00
         21   -1    0    0  501  502  0.00000000000E+00  0.00000000000E+00  0.12393788484E+01  0.12393788484E+01  0.00000000000E+00 0. -1.
         13   -1    0    0    0    0 -0.00000000000E+00 -0.00000000000E+00 -0.10000000000E+04  0.10000000000E+04  0.00000000000E+00 0.  1.
    9000005    2    1    2  501    0 -0.27561805225E+01 -0.33134269653E+02 -0.66214192886E+03  0.66298264151E+03  0.29279052352E+01 0.  0.
         13    1    3    3    0    0 -0.76759349708E+00 -0.18000719563E+01 -0.45081801892E+02  0.45124254239E+02  0.00000000000E+00 0.  1.
          3    1    3    3  501    0 -0.19885870254E+01 -0.31334197696E+02 -0.61706012697E+03  0.61785838727E+03  0.00000000000E+00 0.  1.
         -1    1    1    2    0  502  0.27561805225E+01  0.33134269653E+02 -0.33661869229E+03  0.33825673734E+03  0.00000000000E+00 0. -1.
<mgrwt>
<rscale>  1 0.30000000E+03</rscale>
<asrwt>0</asrwt>
<pdfrwt beam="1">  1       21 0.45068417E-02 0.30000000E+03</pdfrwt>
<pdfrwt beam="2">0</pdfrwt>
<totfact> 0.34369466E+04</totfact>
</mgrwt>
</event>
<event>
 6    1  0.1284012E-001  0.3000000E+03  0.7818608E-02  0.1093470E+00
         21   -1    0    0  501  502  0.00000000000E+00  0.00000000000E+00  0.10434359443E+01  0.10434359443E+01  0.00000000000E+00 0. -1.
         13   -1    0    0    0    0 -0.00000000000E+00 -0.00000000000E+00 -0.10000000000E+04  0.10000000000E+04  0.00000000000E+00 0.  1.
    9000005    2    1    2  501    0 -0.21732794580E+02  0.22462141264E+02 -0.60101173831E+03  0.60187311329E+03  0.76988807058E+01 0.  0.
         13    1    3    3    0    0 -0.10751197046E+02  0.13710547156E+02 -0.26826135249E+03  0.26882656227E+03  0.00000000000E+00 0.  1.
          3    1    3    3  501    0 -0.10981597534E+02  0.87515941080E+01 -0.33275038582E+03  0.33304655102E+03  0.00000000000E+00 0.  1.
         -1    1    1    2    0  502  0.21732794580E+02 -0.22462141264E+02 -0.39794482575E+03  0.39917032266E+03  0.00000000000E+00 0. -1.
<mgrwt>
<rscale>  1 0.30000000E+03</rscale>
<asrwt>0</asrwt>
<pdfrwt beam="1">  1       21 0.37943205E-02 0.30000000E+03</pdfrwt>
<pdfrwt beam="2">0</pdfrwt>
<totfact> 0.45951409E+04</totfact>
</mgrwt>
</event>
<event>
 6    1  0.1284012E-001  0.3000000E+03  0.7818608E-02  0.1093470E+00
         21   -1    0    0  501  502  0.00000000000E+00  0.00000000000E+00  0.20978799536E+01  0.20978799536E+01  0.00000000000E+00 0. -1.
         13   -1    0    0    0    0 -0.00000000000E+00 -0.00000000000E+00 -0.10000000000E+04  0.10000000000E+04  0.00000000000E+00 0.  1.
    9000005    2    1    2  501    0  0.36158858679E+02 -0.27922163820E+02 -0.47607503339E+03  0.47827480041E+03  0.34981419864E+01 0.  0.
         13    1    3    3    0    0  0.31289660006E+02 -0.24881848023E+02 -0.40494532456E+03  0.40691383002E+03  0.00000000000E+00 0.  1.
          3    1    3    3  501    0  0.48691986726E+01 -0.30403157974E+01 -0.71129708835E+02  0.71360970388E+02  0.00000000000E+00 0.  1.
         -3    1    1    2    0  502 -0.36158858679E+02  0.27922163820E+02 -0.52182708666E+03  0.52382307954E+03  0.00000000000E+00 0. -1.
<mgrwt>
<rscale>  1 0.30000000E+03</rscale>
<asrwt>0</asrwt>
<pdfrwt beam="1">  1       21 0.76286705E-02 0.30000000E+03</pdfrwt>
<pdfrwt beam="2">0</pdfrwt>
<totfact> 0.13884558E+04</totfact>
</mgrwt>
</event>
<event>
 6    1  0.1284012E-001  0.3000000E+03  0.7818608E-02  0.1093470E+00
         21   -1    0    0  501  502  0.00000000000E+00  0.00000000000E+00  0.34440253664E+01  0.34440253664E+01  0.00000000000E+00 0. -1.
         13   -1    0    0    0    0 -0.00000000000E+00 -0.00000000000E+00 -0.10000000000E+04  0.10000000000E+04  0.00000000000E+00 0.  1.
    9000005    2    1    2  501    0 -0.28590398462E+02  0.38670565847E+02 -0.78335178578E+03  0.78488316498E+03  0.94201295407E+01 0.  0.
         13    1    3    3    0    0 -0.17204959180E+01  0.38217254896E+01 -0.12014565674E+03  0.12021873617E+03  0.00000000000E+00 0.  1.
          3    1    3    3  501    0 -0.26869902544E+02  0.34848840358E+02 -0.66320612904E+03  0.66466442881E+03  0.00000000000E+00 0.  1.
         -3    1    1    2    0  502  0.28590398462E+02 -0.38670565847E+02 -0.21320418886E+03  0.21856086039E+03  0.00000000000E+00 0. -1.
<mgrwt>
<rscale>  1 0.30000000E+03</rscale>
<asrwt>0</asrwt>
<pdfrwt beam="1">  1       21 0.12523755E-01 0.30000000E+03</pdfrwt>
<pdfrwt beam="2">0</pdfrwt>
<totfact> 0.57338307E+03</totfact>
</mgrwt>
</event>
<event>
 6    1  0.1284012E-001  0.3000000E+03  0.7818608E-02  0.1093470E+00
         21   -1    0    0  501  502  0.00000000000E+00  0.00000000000E+00  0.25935317599E+01  0.25935317599E+01  0.00000000000E+00 0. -1.
         13   -1    0    0    0    0 -0.00000000000E+00 -0.00000000000E+00 -0.10000000000E+04  0.10000000000E+04  0.00000000000E+00 0.  1.
    9000005    2    1    2  501    0  0.24771472122E+02 -0.36941272155E+02 -0.74232289805E+03  0.74366127961E+03  0.32450594731E+01 0.  0.
         13    1    3    3    0    0  0.22774718286E+02 -0.34995239163E+02 -0.70399533124E+03  0.70523243045E+03  0.00000000000E+00 0.  1.
          3    1    3    3  501    0  0.19967538357E+01 -0.19460329922E+01 -0.38327566809E+02  0.38428849160E+02  0.00000000000E+00 0.  1.
         -3    1    1    2    0  502 -0.24771472122E+02  0.36941272155E+02 -0.25508357019E+03  0.25893225215E+03  0.00000000000E+00 0. -1.
<mgrwt>
<rscale>  1 0.30000000E+03</rscale>
<asrwt>0</asrwt>
<pdfrwt beam="1">  1       21 0.94310445E-02 0.30000000E+03</pdfrwt>
<pdfrwt beam="2">0</pdfrwt>
<totfact> 0.95508161E+03</totfact>
</mgrwt>
</event>
<event>
 6    1  0.1284012E-001  0.3000000E+03  0.7818608E-02  0.1093470E+00
         21   -1    0    0  501  502  0.00000000000E+00  0.00000000000E+00  0.15132091866E+01  0.15132091866E+01  0.00000000000E+00 0. -1.
         13   -1    0    0    0    0 -0.00000000000E+00 -0.00000000000E+00 -0.10000000000E+04  0.10000000000E+04  0.00000000000E+00 0.  1.
    9000005    2    1    2  501    0  0.23692501215E+01  0.38728146862E+02 -0.50167506541E+03  0.50318864306E+03  0.39314814393E+01 0.  0.
         13    1    3    3    0    0  0.28991461073E+01  0.37314673773E+02 -0.48703371290E+03  0.48846967913E+03  0.00000000000E+00 0.  1.
          1    1    3    3  501    0 -0.52989598579E+00  0.14134730890E+01 -0.14641352511E+02  0.14718963934E+02  0.00000000000E+00 0.  1.
         -1    1    1    2    0  502 -0.23692501215E+01 -0.38728146862E+02 -0.49681172540E+03  0.49832456613E+03  0.00000000000E+00 0. -1.
<mgrwt>
<rscale>  1 0.30000000E+03</rscale>
<asrwt>0</asrwt>
<pdfrwt beam="1">  1       21 0.55025905E-02 0.30000000E+03</pdfrwt>
<pdfrwt beam="2">0</pdfrwt>
<totfact> 0.24454396E+04</totfact>
</mgrwt>
</event>
<event>
 6    1  0.1284012E-001  0.3000000E+03  0.7818608E-02  0.1093470E+00
         21   -1    0    0  501  502  0.00000000000E+00  0.00000000000E+00  0.25985793769E+01  0.25985793769E+01  0.00000000000E+00 0. -1.
         13   -1    0    0    0    0 -0.00000000000E+00 -0.00000000000E+00 -0.10000000000E+04  0.10000000000E+04  0.00000000000E+00 0.  1.
    9000005    2    1    2  501    0 -0.39805041444E+02 -0.46793850372E+01 -0.80810431036E+03  0.80910508098E+03  0.34810448474E+01 0.  0.
         13    1    3    3    0    0 -0.23655024139E+02 -0.44985751370E+01 -0.48410337219E+03  0.48470183857E+03  0.00000000000E+00 0.  1.
          3    1    3    3  501    0 -0.16150017305E+02 -0.18080990015E+00 -0.32400093817E+03  0.32440324241E+03  0.00000000000E+00 0.  1.
         -1    1    1    2    0  502  0.39805041444E+02  0.46793850372E+01 -0.18929711026E+03  0.19349349840E+03  0.00000000000E+00 0. -1.
<mgrwt>
<rscale>  1 0.30000000E+03</rscale>
<asrwt>0</asrwt>
<pdfrwt beam="1">  1       21 0.94493995E-02 0.30000000E+03</pdfrwt>
<pdfrwt beam="2">0</pdfrwt>
<totfact> 0.95178163E+03</totfact>
</mgrwt>
</event>
<event>
 6    1  0.1284012E-001  0.3000000E+03  0.7818608E-02  0.1093470E+00
         21   -1    0    0  501  502  0.00000000000E+00  0.00000000000E+00  0.20632122573E+01  0.20632122573E+01  0.00000000000E+00 0. -1.
         13   -1    0    0    0    0 -0.00000000000E+00 -0.00000000000E+00 -0.10000000000E+04  0.10000000000E+04  0.00000000000E+00 0.  1.
    9000005    2    1    2  501    0  0.13526675107E+02  0.42390977053E+02 -0.40023270772E+03  0.40270511133E+03  0.22848380637E+01 0.  0.
         13    1    3    3    0    0  0.11302112779E+02  0.36702197071E+02 -0.33884482712E+03  0.34101408459E+03  0.00000000000E+00 0.  1.
          1    1    3    3  501    0  0.22245623281E+01  0.56887799822E+01 -0.61387880595E+02  0.61691026732E+02  0.00000000000E+00 0.  1.
         -3    1    1    2    0  502 -0.13526675107E+02 -0.42390977053E+02 -0.59770408002E+03  0.59935810093E+03  0.00000000000E+00 0. -1.
<mgrwt>
<rscale>  1 0.30000000E+03</rscale>
<asrwt>0</asrwt>
<pdfrwt beam="1">  1       21 0.75026058E-02 0.30000000E+03</pdfrwt>
<pdfrwt beam="2">0</pdfrwt>
<totfact> 0.14295765E+04</totfact>
</mgrwt>
</event>
<event>
 6    1  0.1284012E-001  0.3000000E+03  0.7818608E-02  0.1093470E+00
         21   -1    0    0  501  502  0.00000000000E+00  0.00000000000E+00  0.11929579507E+01  0.11929579507E+01  0.00000000000E+00 0. -1.
         13   -1    0    0    0    0 -0.00000000000E+00 -0.00000000000E+00 -0.10000000000E+04  0.10000000000E+04  0.00000000000E+00 0.  1.
    9000005    2    1    2  501    0 -0.32849631028E+02  0.81008687955E+01 -0.40608675040E+03  0.40750780025E+03  0.33817281572E+01 0.  0.
         13    1    3    3    0    0 -0.22589019473E+02  0.42787695003E+01 -0.26328831744E+03  0.26429019991E+03  0.00000000000E+00 0.  1.
          3    1    3    3  501    0 -0.10260611555E+02  0.38220992952E+01 -0.14279843296E+03  0.14321760034E+03  0.00000000000E+00 0.  1.
         -1    1    1    2    0  502  0.32849631028E+02 -0.81008687955E+01 -0.59272029165E+03  0.59368515770E+03  0.00000000000E+00 0. -1.
<mgrwt>
<rscale>  1 0.30000000E+03</rscale>
<asrwt>0</asrwt>
<pdfrwt beam="1">  1       21 0.43380381E-02 0.30000000E+03</pdfrwt>
<pdfrwt beam="2">0</pdfrwt>
<totfact> 0.36666352E+04</totfact>
</mgrwt>
</event>
<event>
 6    1  0.1284012E-001  0.3000000E+03  0.7818608E-02  0.1093470E+00
         21   -1    0    0  501  502  0.00000000000E+00  0.00000000000E+00  0.12613967075E+01  0.12613967075E+01  0.00000000000E+00 0. -1.
         13   -1    0    0    0    0 -0.00000000000E+00 -0.00000000000E+00 -0.10000000000E+04  0.10000000000E+04  0.00000000000E+00 0.  1.
    9000005    2    1    2  501    0  0.25281942336E+02  0.23944857797E+02 -0.59169641641E+03  0.59273248130E+03  0.38226130694E+01 0.  0.
         13    1    3    3    0    0  0.17862132210E+02  0.15541265885E+02 -0.42574176292E+03  0.42639961938E+03  0.00000000000E+00 0.  1.
          1    1    3    3  501    0  0.74198101255E+01  0.84035919123E+01 -0.16595465350E+03  0.16633286193E+03  0.00000000000E+00 0.  1.
         -3    1    1    2    0  502 -0.25281942336E+02 -0.23944857797E+02 -0.40704218688E+03  0.40852891541E+03  0.00000000000E+00 0. -1.
<mgrwt>
<rscale>  1 0.30000000E+03</rscale>
<asrwt>0</asrwt>
<pdfrwt beam="1">  1       21 0.45869068E-02 0.30000000E+03</pdfrwt>
<pdfrwt beam="2">0</pdfrwt>
<totfact> 0.33356925E+04</totfact>
</mgrwt>
</event>
<event>
 6    1  0.1284012E-001  0.3000000E+03  0.7818608E-02  0.1093470E+00
         21   -1    0    0  501  502  0.00000000000E+00  0.00000000000E+00  0.17889270815E+01  0.17889270815E+01  0.00000000000E+00 0. -1.
         13   -1    0    0    0    0 -0.00000000000E+00 -0.00000000000E+00 -0.10000000000E+04  0.10000000000E+04  0.00000000000E+00 0.  1.
    9000005    2    1    2  501    0 -0.29153825204E+02  0.83667923944E+01 -0.84777780032E+03  0.84832844929E+03  0.37430498916E+01 0.  0.
         13    1    3    3    0    0 -0.24970072558E+02  0.69155109765E+01 -0.68334740411E+03  0.68383843378E+03  0.00000000000E+00 0.  1.
          1    1    3    3  501    0 -0.41837526454E+01  0.14512814180E+01 -0.16443039621E+03  0.16449001550E+03  0.00000000000E+00 0.  1.
         -3    1    1    2    0  502  0.29153825204E+02 -0.83667923944E+01 -0.15043327260E+03  0.15346047779E+03  0.00000000000E+00 0. -1.
<mgrwt>
<rscale>  1 0.30000000E+03</rscale>
<asrwt>0</asrwt>
<pdfrwt beam="1">  1       21 0.65052031E-02 0.30000000E+03</pdfrwt>
<pdfrwt beam="2">0</pdfrwt>
<totfact> 0.18324640E+04</totfact>
</mgrwt>
</event>
<event>
 6    1  0.1284012E-001  0.3000000E+03  0.7818608E-02  0.1093470E+00
         21   -1    0    0  501  502  0.00000000000E+00  0.00000000000E+00  0.19664548584E+01  0.19664548584E+01  0.00000000000E+00 0. -1.
         13   -1    0    0    0    0 -0.00000000000E+00 -0.00000000000E+00 -0.10000000000E+04  0.10000000000E+04  0.00000000000E+00 0.  1.
    9000005    2    1    2  501    0 -0.20579356446E+01 -0.43411769542E+02 -0.59548849465E+03  0.59708210778E+03  0.34175044112E+01 0.  0.
         13    1    3    3    0    0  0.55208511790E+00 -0.22359667274E+02 -0.31342476211E+03  0.31422180228E+03  0.00000000000E+00 0.  1.
          3    1    3    3  501    0 -0.26100207625E+01 -0.21052102268E+02 -0.28206373254E+03  0.28286030551E+03  0.00000000000E+00 0.  1.
         -1    1    1    2    0  502  0.20579356446E+01  0.43411769542E+02 -0.40254505049E+03  0.40488434708E+03  0.00000000000E+00 0. -1.
<mgrwt>
<rscale>  1 0.30000000E+03</rscale>
<asrwt>0</asrwt>
<pdfrwt beam="1">  1       21 0.71507600E-02 0.30000000E+03</pdfrwt>
<pdfrwt beam="2">0</pdfrwt>
<totfact> 0.15547375E+04</totfact>
</mgrwt>
</event>
<event>
 6    1  0.1284012E-001  0.3000000E+03  0.7818608E-02  0.1093470E+00
         21   -1    0    0  501  502  0.00000000000E+00  0.00000000000E+00  0.22174575138E+01  0.22174575138E+01  0.00000000000E+00 0. -1.
         13   -1    0    0    0    0 -0.00000000000E+00 -0.00000000000E+00 -0.10000000000E+04  0.10000000000E+04  0.00000000000E+00 0.  1.
    9000005    2    1    2  501    0 -0.22719204564E+02 -0.24411048336E+02 -0.85242333639E+03  0.85308208165E+03  0.33811351182E+01 0.  0.
         13    1    3    3    0    0 -0.10747487265E+02 -0.12040425071E+02 -0.37045462450E+03  0.37080602628E+03  0.00000000000E+00 0.  1.
          1    1    3    3  501    0 -0.11971717299E+02 -0.12370623265E+02 -0.48196871189E+03  0.48227605536E+03  0.00000000000E+00 0.  1.
         -3    1    1    2    0  502  0.22719204564E+02  0.24411048336E+02 -0.14535920610E+03  0.14913537587E+03  0.00000000000E+00 0. -1.
<mgrwt>
<rscale>  1 0.30000000E+03</rscale>
<asrwt>0</asrwt>
<pdfrwt beam="1">  1       21 0.80634989E-02 0.30000000E+03</pdfrwt>
<pdfrwt beam="2">0</pdfrwt>
<totfact> 0.12597669E+04</totfact>
</mgrwt>
</event>
<event>
 6    1  0.1284012E-001  0.3000000E+03  0.7818608E-02  0.1093470E+00
         21   -1    0    0  501  502  0.00000000000E+00  0.00000000000E+00  0.36177618862E+01  0.36177618862E+01  0.00000000000E+00 0. -1.
         13   -1    0    0    0    0 -0.00000000000E+00 -0.00000000000E+00 -0.10000000000E+04  0.10000000000E+04  0.00000000000E+00 0.  1.
    9000005    2    1    2  501    0  0.85092476500E+01 -0.51437519363E+02 -0.24894637964E+03  0.25436574272E+03  0.30668288542E+01 0.  0.
         13    1    3    3    0    0  0.12833082584E+01 -0.16483569493E+02 -0.79170847726E+02  0.80878786297E+02  0.00000000000E+00 0.  1.
          3    1    3    3  501    0  0.72259393915E+01 -0.34953949870E+02 -0.16977553192E+03  0.17348695642E+03  0.00000000000E+00 0.  1.
         -1    1    1    2    0  502 -0.85092476500E+01  0.51437519363E+02 -0.74743585847E+03  0.74925201917E+03  0.00000000000E+00 0. -1.
<mgrwt>
<rscale>  1 0.30000000E+03</rscale>
<asrwt>0</asrwt>
<pdfrwt beam="1">  1       21 0.13155526E-01 0.30000000E+03</pdfrwt>
<pdfrwt beam="2">0</pdfrwt>
<totfact> 0.52413992E+03</totfact>
</mgrwt>
</event>
<event>
 6    1  0.1284012E-001  0.3000000E+03  0.7818608E-02  0.1093470E+00
         21   -1    0    0  501  502  0.00000000000E+00  0.00000000000E+00  0.17118273210E+01  0.17118273210E+01  0.00000000000E+00 0. -1.
         13   -1    0    0    0    0 -0.00000000000E+00 -0.00000000000E+00 -0.10000000000E+04  0.10000000000E+04  0.00000000000E+00 0.  1.
    9000005    2    1    2  501    0  0.10989364292E+02  0.32214475223E+02 -0.78358212778E+03  0.78432455939E+03  0.23505207450E+01 0.  0.
         13    1    3    3    0    0  0.62883033748E+01  0.21829524702E+02 -0.52548923535E+03  0.52598004466E+03  0.00000000000E+00 0.  1.
          3    1    3    3  501    0  0.47010609170E+01  0.10384950521E+02 -0.25809289242E+03  0.25834451473E+03  0.00000000000E+00 0.  1.
         -1    1    1    2    0  502 -0.10989364292E+02 -0.32214475223E+02 -0.21470604490E+03  0.21738726793E+03  0.00000000000E+00 0. -1.
<mgrwt>
<rscale>  1 0.30000000E+03</rscale>
<asrwt>0</asrwt>
<pdfrwt beam="1">  1       21 0.62248397E-02 0.30000000E+03</pdfrwt>
<pdfrwt beam="2">0</pdfrwt>
<totfact> 0.19775295E+04</totfact>
</mgrwt>
</event>
<event>
 6    1  0.1284012E-001  0.3000000E+03  0.7818608E-02  0.1093470E+00
         21   -1    0    0  501  502  0.00000000000E+00  0.00000000000E+00  0.22710976204E+01  0.22710976204E+01  0.00000000000E+00 0. -1.
         13   -1    0    0    0    0 -0.00000000000E+00 -0.00000000000E+00 -0.10000000000E+04  0.10000000000E+04  0.00000000000E+00 0.  1.
    9000005    2    1    2  501    0  0.45710473240E+02 -0.13263375448E+02 -0.51252441793E+03  0.51473775904E+03  0.28839418279E+01 0.  0.
         13    1    3    3    0    0  0.28476786215E+02 -0.69123158995E+01 -0.32081079963E+03  0.32214635901E+03  0.00000000000E+00 0.  1.
          3    1    3    3  501    0  0.17233687025E+02 -0.63510595484E+01 -0.19171361829E+03  0.19259140003E+03  0.00000000000E+00 0.  1.
         -1    1    1    2    0  502 -0.45710473240E+02  0.13263375448E+02 -0.48520448445E+03  0.48753333858E+03  0.00000000000E+00 0. -1.
<mgrwt>
<rscale>  1 0.30000000E+03</rscale>
<asrwt>0</asrwt>
<pdfrwt beam="1">  1       21 0.82585542E-02 0.30000000E+03</pdfrwt>
<pdfrwt beam="2">0</pdfrwt>
<totfact> 0.12079130E+04</totfact>
</mgrwt>
</event>
<event>
 6    1  0.1284012E-001  0.3000000E+03  0.7818608E-02  0.1093470E+00
         21   -1    0    0  501  502  0.00000000000E+00  0.00000000000E+00  0.12551034415E+01  0.12551034415E+01  0.00000000000E+00 0. -1.
         13   -1    0    0    0    0 -0.00000000000E+00 -0.00000000000E+00 -0.10000000000E+04  0.10000000000E+04  0.00000000000E+00 0.  1.
    9000005    2    1    2  501    0 -0.10116211785E+02  0.32741742972E+02 -0.37898475321E+03  0.38054825254E+03  0.36290317114E+01 0.  0.
         13    1    3    3    0    0 -0.23081443268E+01  0.12801496390E+02 -0.15199977147E+03  0.15255535509E+03  0.00000000000E+00 0.  1.
          1    1    3    3  501    0 -0.78080674581E+01  0.19940246583E+02 -0.22698498175E+03  0.22799289745E+03  0.00000000000E+00 0.  1.
         -1    1    1    2    0  502  0.10116211785E+02 -0.32741742972E+02 -0.61976014335E+03  0.62070685090E+03  0.00000000000E+00 0. -1.
<mgrwt>
<rscale>  1 0.30000000E+03</rscale>
<asrwt>0</asrwt>
<pdfrwt beam="1">  1       21 0.45640221E-02 0.30000000E+03</pdfrwt>
<pdfrwt beam="2">0</pdfrwt>
<totfact> 0.33641537E+04</totfact>
</mgrwt>
</event>
<event>
 6    1  0.1284012E-001  0.3000000E+03  0.7818608E-02  0.1093470E+00
         21   -1    0    0  501  502  0.00000000000E+00  0.00000000000E+00  0.13091268226E+01  0.13091268226E+01  0.00000000000E+00 0. -1.
         13   -1    0    0    0    0 -0.00000000000E+00 -0.00000000000E+00 -0.10000000000E+04  0.10000000000E+04  0.00000000000E+00 0.  1.
    9000005    2    1    2  501    0  0.18123628929E+02  0.28803745110E+02 -0.66734268079E+03  0.66821792871E+03  0.32901360442E+01 0.  0.
         13    1    3    3    0    0  0.51497351767E+01  0.63470047049E+01 -0.18043209560E+03  0.18061712367E+03  0.00000000000E+00 0.  1.
          3    1    3    3  501    0  0.12973893752E+02  0.22456740405E+02 -0.48691058519E+03  0.48760080504E+03  0.00000000000E+00 0.  1.
         -1    1    1    2    0  502 -0.18123628929E+02 -0.28803745110E+02 -0.33134819239E+03  0.33309119811E+03  0.00000000000E+00 0. -1.
<mgrwt>
<rscale>  1 0.30000000E+03</rscale>
<asrwt>0</asrwt>
<pdfrwt beam="1">  1       21 0.47604712E-02 0.30000000E+03</pdfrwt>
<pdfrwt beam="2">0</pdfrwt>
<totfact> 0.31316032E+04</totfact>
</mgrwt>
</event>
<event>
 6    1  0.1284012E-001  0.3000000E+03  0.7818608E-02  0.1093470E+00
         21   -1    0    0  501  502  0.00000000000E+00  0.00000000000E+00  0.16703787092E+01  0.16703787092E+01  0.00000000000E+00 0. -1.
         13   -1    0    0    0    0 -0.00000000000E+00 -0.00000000000E+00 -0.10000000000E+04  0.10000000000E+04  0.00000000000E+00 0.  1.
    9000005    2    1    2  501    0  0.33914853400E+02  0.17629659977E+02 -0.67437562795E+03  0.67546919540E+03  0.38889801810E+01 0.  0.
         13    1    3    3    0    0  0.16024128443E+02  0.92996657976E+01 -0.29599615381E+03  0.29657541966E+03  0.00000000000E+00 0.  1.
          3    1    3    3  501    0  0.17890724956E+02  0.83299941791E+01 -0.37837947415E+03  0.37889377575E+03  0.00000000000E+00 0.  1.
         -1    1    1    2    0  502 -0.33914853400E+02 -0.17629659977E+02 -0.32395399334E+03  0.32620118331E+03  0.00000000000E+00 0. -1.
<mgrwt>
<rscale>  1 0.30000000E+03</rscale>
<asrwt>0</asrwt>
<pdfrwt beam="1">  1       21 0.60741172E-02 0.30000000E+03</pdfrwt>
<pdfrwt beam="2">0</pdfrwt>
<totfact> 0.20630081E+04</totfact>
</mgrwt>
</event>
<event>
 6    1  0.1284012E-001  0.3000000E+03  0.7818608E-02  0.1093470E+00
         21   -1    0    0  501  502  0.00000000000E+00  0.00000000000E+00  0.14468393465E+01  0.14468393465E+01  0.00000000000E+00 0. -1.
         13   -1    0    0    0    0 -0.00000000000E+00 -0.00000000000E+00 -0.10000000000E+04  0.10000000000E+04  0.00000000000E+00 0.  1.
    9000005    2    1    2  501    0 -0.10418607948E+02  0.35818416944E+02 -0.40807593069E+03  0.40979249305E+03  0.35236017483E+01 0.  0.
         13    1    3    3    0    0 -0.15371726325E+01  0.10642124395E+02 -0.12323294872E+03  0.12370116152E+03  0.00000000000E+00 0.  1.
          1    1    3    3  501    0 -0.88814353150E+01  0.25176292549E+02 -0.28484298197E+03  0.28609133154E+03  0.00000000000E+00 0.  1.
         -1    1    1    2    0  502  0.10418607948E+02 -0.35818416944E+02 -0.59047722996E+03  0.59165434629E+03  0.00000000000E+00 0. -1.
<mgrwt>
<rscale>  1 0.30000000E+03</rscale>
<asrwt>0</asrwt>
<pdfrwt beam="1">  1       21 0.52612451E-02 0.30000000E+03</pdfrwt>
<pdfrwt beam="2">0</pdfrwt>
<totfact> 0.26406174E+04</totfact>
</mgrwt>
</event>
<event>
 6    1  0.1284012E-001  0.3000000E+03  0.7818608E-02  0.1093470E+00
         21   -1    0    0  501  502  0.00000000000E+00  0.00000000000E+00  0.19067034002E+01  0.19067034002E+01  0.00000000000E+00 0. -1.
         13   -1    0    0    0    0 -0.00000000000E+00 -0.00000000000E+00 -0.10000000000E+04  0.10000000000E+04  0.00000000000E+00 0.  1.
    9000005    2    1    2  501    0  0.27524778896E+02 -0.21048423534E+02 -0.80328401941E+03  0.80403981869E+03  0.37635899929E+01 0.  0.
         13    1    3    3    0    0  0.97664207978E+01 -0.62072232826E+01 -0.23503841610E+03  0.23532311752E+03  0.00000000000E+00 0.  1.
          1    1    3    3  501    0  0.17758358099E+02 -0.14841200251E+02 -0.56824560331E+03  0.56871670117E+03  0.00000000000E+00 0.  1.
         -1    1    1    2    0  502 -0.27524778896E+02  0.21048423534E+02 -0.19480927719E+03  0.19786688471E+03  0.00000000000E+00 0. -1.
<mgrwt>
<rscale>  1 0.30000000E+03</rscale>
<asrwt>0</asrwt>
<pdfrwt beam="1">  1       21 0.69334815E-02 0.30000000E+03</pdfrwt>
<pdfrwt beam="2">0</pdfrwt>
<totfact> 0.16405540E+04</totfact>
</mgrwt>
</event>
<event>
 6    1  0.1284012E-001  0.3000000E+03  0.7818608E-02  0.1093470E+00
         21   -1    0    0  501  502  0.00000000000E+00  0.00000000000E+00  0.17789628169E+01  0.17789628169E+01  0.00000000000E+00 0. -1.
         13   -1    0    0    0    0 -0.00000000000E+00 -0.00000000000E+00 -0.10000000000E+04  0.10000000000E+04  0.00000000000E+00 0.  1.
    9000005    2    1    2  501    0 -0.40413795863E+00  0.32813333190E+02 -0.81325994049E+03  0.81392932760E+03  0.35130262300E+01 0.  0.
         13    1    3    3    0    0 -0.15308830903E+01  0.15073816010E+02 -0.40201901275E+03  0.40230442471E+03  0.00000000000E+00 0.  1.
          3    1    3    3  501    0  0.11267451317E+01  0.17739517180E+02 -0.41124092774E+03  0.41162490289E+03  0.00000000000E+00 0.  1.
         -3    1    1    2    0  502  0.40413795863E+00 -0.32813333190E+02 -0.18496109669E+03  0.18784963522E+03  0.00000000000E+00 0. -1.
<mgrwt>
<rscale>  1 0.30000000E+03</rscale>
<asrwt>0</asrwt>
<pdfrwt beam="1">  1       21 0.64689693E-02 0.30000000E+03</pdfrwt>
<pdfrwt beam="2">0</pdfrwt>
<totfact> 0.18502692E+04</totfact>
</mgrwt>
</event>
<event>
 6    1  0.1284012E-001  0.3000000E+03  0.7818608E-02  0.1093470E+00
         21   -1    0    0  501  502  0.00000000000E+00  0.00000000000E+00  0.18567417723E+01  0.18567417723E+01  0.00000000000E+00 0. -1.
         13   -1    0    0    0    0 -0.00000000000E+00 -0.00000000000E+00 -0.10000000000E+04  0.10000000000E+04  0.00000000000E+00 0.  1.
    9000005    2    1    2  501    0  0.21333815324E+02 -0.32160140774E+02 -0.71041347415E+03  0.71155029166E+03  0.11274173046E+02 0.  0.
         13    1    3    3    0    0  0.11571833662E+02 -0.81725551721E+01 -0.22343485645E+03  0.22388352567E+03  0.00000000000E+00 0.  1.
          1    1    3    3  501    0  0.97619816620E+01 -0.23987585602E+02 -0.48697861771E+03  0.48766676599E+03  0.00000000000E+00 0.  1.
         -1    1    1    2    0  502 -0.21333815324E+02  0.32160140774E+02 -0.28772978407E+03  0.29030645011E+03  0.00000000000E+00 0. -1.
<mgrwt>
<rscale>  1 0.30000000E+03</rscale>
<asrwt>0</asrwt>
<pdfrwt beam="1">  1       21 0.67518025E-02 0.30000000E+03</pdfrwt>
<pdfrwt beam="2">0</pdfrwt>
<totfact> 0.17180043E+04</totfact>
</mgrwt>
</event>
<event>
 6    1  0.1284012E-001  0.3000000E+03  0.7818608E-02  0.1093470E+00
         21   -1    0    0  501  502  0.00000000000E+00  0.00000000000E+00  0.70832241850E+01  0.70832241850E+01  0.00000000000E+00 0. -1.
         13   -1    0    0    0    0 -0.00000000000E+00 -0.00000000000E+00 -0.10000000000E+04  0.10000000000E+04  0.00000000000E+00 0.  1.
    9000005    2    1    2  501    0  0.48180307359E+02 -0.34244232059E+02 -0.85486956812E+03  0.85691318390E+03  0.20534845309E+01 0.  0.
         13    1    3    3    0    0  0.20507009534E+02 -0.14392563339E+02 -0.37694808411E+03  0.37777975255E+03  0.00000000000E+00 0.  1.
          3    1    3    3  501    0  0.27673297825E+02 -0.19851668720E+02 -0.47792148401E+03  0.47913343135E+03  0.00000000000E+00 0.  1.
         -3    1    1    2    0  502 -0.48180307359E+02  0.34244232059E+02 -0.13804720769E+03  0.15017004028E+03  0.00000000000E+00 0. -1.
<mgrwt>
<rscale>  1 0.30000000E+03</rscale>
<asrwt>0</asrwt>
<pdfrwt beam="1">  1       21 0.25757233E-01 0.30000000E+03</pdfrwt>
<pdfrwt beam="2">0</pdfrwt>
<totfact> 0.14709120E+03</totfact>
</mgrwt>
</event>
<event>
 6    1  0.1284012E-001  0.3000000E+03  0.7818608E-02  0.1093470E+00
         21   -1    0    0  501  502  0.00000000000E+00  0.00000000000E+00  0.18207231411E+01  0.18207231411E+01  0.00000000000E+00 0. -1.
         13   -1    0    0    0    0 -0.00000000000E+00 -0.00000000000E+00 -0.10000000000E+04  0.10000000000E+04  0.00000000000E+00 0.  1.
    9000005    2    1    2  501    0  0.30968283822E+02 -0.21270257209E+02 -0.73567385816E+03  0.73664049520E+03  0.34256595970E+01 0.  0.
         13    1    3    3    0    0  0.17148686684E+02 -0.12519943980E+02 -0.38426400142E+03  0.38485016466E+03  0.00000000000E+00 0.  1.
          3    1    3    3  501    0  0.13819597139E+02 -0.87503132297E+01 -0.35140985675E+03  0.35179033054E+03  0.00000000000E+00 0.  1.
         -1    1    1    2    0  502 -0.30968283822E+02  0.21270257209E+02 -0.26250541869E+03  0.26518022794E+03  0.00000000000E+00 0. -1.
<mgrwt>
<rscale>  1 0.30000000E+03</rscale>
<asrwt>0</asrwt>
<pdfrwt beam="1">  1       21 0.66208254E-02 0.30000000E+03</pdfrwt>
<pdfrwt beam="2">0</pdfrwt>
<totfact> 0.17773804E+04</totfact>
</mgrwt>
</event>
<event>
 6    1  0.1284012E-001  0.3000000E+03  0.7818608E-02  0.1093470E+00
         21   -1    0    0  501  502  0.00000000000E+00  0.00000000000E+00  0.26126009893E+01  0.26126009893E+01  0.00000000000E+00 0. -1.
         13   -1    0    0    0    0 -0.00000000000E+00 -0.00000000000E+00 -0.10000000000E+04  0.10000000000E+04  0.00000000000E+00 0.  1.
    9000005    2    1    2  501    0 -0.82838439717E+01  0.36561806994E+02 -0.16297056893E+03  0.16735405770E+03  0.65258327069E+01 0.  0.
         13    1    3    3    0    0 -0.33212094273E+00  0.13355570003E+01 -0.23448564465E+01  0.27188910563E+01  0.00000000000E+00 0.  1.
          3    1    3    3  501    0 -0.79517230289E+01  0.35226249993E+02 -0.16062571248E+03  0.16463516665E+03  0.00000000000E+00 0.  1.
         -1    1    1    2    0  502  0.82838439717E+01 -0.36561806994E+02 -0.83441683009E+03  0.83525854329E+03  0.00000000000E+00 0. -1.
<mgrwt>
<rscale>  1 0.30000000E+03</rscale>
<asrwt>0</asrwt>
<pdfrwt beam="1">  1       21 0.95003873E-02 0.30000000E+03</pdfrwt>
<pdfrwt beam="2">0</pdfrwt>
<totfact> 0.94270393E+03</totfact>
</mgrwt>
</event>
<event>
 6    1  0.1284012E-001  0.3000000E+03  0.7818608E-02  0.1093470E+00
         21   -1    0    0  501  502  0.00000000000E+00  0.00000000000E+00  0.40456576314E+01  0.40456576314E+01  0.00000000000E+00 0. -1.
         13   -1    0    0    0    0 -0.00000000000E+00 -0.00000000000E+00 -0.10000000000E+04  0.10000000000E+04  0.00000000000E+00 0.  1.
    9000005    2    1    2  501    0 -0.57472421200E+02 -0.27163634335E+02 -0.50131914857E+03  0.50534242206E+03  0.30220155199E+01 0.  0.
         13    1    3    3    0    0 -0.45426185453E+02 -0.21953083872E+02 -0.38846081135E+03  0.39172347156E+03  0.00000000000E+00 0.  1.
          1    1    3    3  501    0 -0.12046235748E+02 -0.52105504624E+01 -0.11285833722E+03  0.11361895050E+03  0.00000000000E+00 0.  1.
         -3    1    1    2    0  502  0.57472421200E+02  0.27163634335E+02 -0.49463519380E+03  0.49870323557E+03  0.00000000000E+00 0. -1.
<mgrwt>
<rscale>  1 0.30000000E+03</rscale>
<asrwt>0</asrwt>
<pdfrwt beam="1">  1       21 0.14711513E-01 0.30000000E+03</pdfrwt>
<pdfrwt beam="2">0</pdfrwt>
<totfact> 0.42685722E+03</totfact>
</mgrwt>
</event>
<event>
 6    1  0.1284012E-001  0.3000000E+03  0.7818608E-02  0.1093470E+00
         21   -1    0    0  501  502  0.00000000000E+00  0.00000000000E+00  0.94647654047E+00  0.94647654047E+00  0.00000000000E+00 0. -1.
         13   -1    0    0    0    0 -0.00000000000E+00 -0.00000000000E+00 -0.10000000000E+04  0.10000000000E+04  0.00000000000E+00 0.  1.
    9000005    2    1    2  501    0  0.29780298763E+02  0.59656916989E+01 -0.56902279252E+03  0.56984453358E+03  0.36603786638E+01 0.  0.
         13    1    3    3    0    0  0.87147993280E+01  0.21942363726E+01 -0.13977310624E+03  0.14006171364E+03  0.00000000000E+00 0.  1.
          3    1    3    3  501    0  0.21065499435E+02  0.37714553262E+01 -0.42924968628E+03  0.42978281994E+03  0.00000000000E+00 0.  1.
         -3    1    1    2    0  502 -0.29780298763E+02 -0.59656916989E+01 -0.43003073094E+03  0.43110194296E+03  0.00000000000E+00 0. -1.
<mgrwt>
<rscale>  1 0.30000000E+03</rscale>
<asrwt>0</asrwt>
<pdfrwt beam="1">  1       21 0.34417401E-02 0.30000000E+03</pdfrwt>
<pdfrwt beam="2">0</pdfrwt>
<totfact> 0.54115788E+04</totfact>
</mgrwt>
</event>
<event>
 6    1  0.1284012E-001  0.3000000E+03  0.7818608E-02  0.1093470E+00
         21   -1    0    0  501  502  0.00000000000E+00  0.00000000000E+00  0.61970407333E+01  0.61970407333E+01  0.00000000000E+00 0. -1.
         13   -1    0    0    0    0 -0.00000000000E+00 -0.00000000000E+00 -0.10000000000E+04  0.10000000000E+04  0.00000000000E+00 0.  1.
    9000005    2    1    2  501    0  0.31361800041E+02  0.25274209525E+02 -0.92911226725E+03  0.92999183223E+03  0.35853448279E+01 0.  0.
         13    1    3    3    0    0  0.16730498126E+02  0.13678531106E+02 -0.53918466889E+03  0.53961756731E+03  0.00000000000E+00 0.  1.
          3    1    3    3  501    0  0.14631301915E+02  0.11595678419E+02 -0.38992759836E+03  0.39037426492E+03  0.00000000000E+00 0.  1.
         -3    1    1    2    0  502 -0.31361800041E+02 -0.25274209525E+02 -0.64690692018E+02  0.76205208502E+02  0.00000000000E+00 0. -1.
<mgrwt>
<rscale>  1 0.30000000E+03</rscale>
<asrwt>0</asrwt>
<pdfrwt beam="1">  1       21 0.22534741E-01 0.30000000E+03</pdfrwt>
<pdfrwt beam="2">0</pdfrwt>
<totfact> 0.19081714E+03</totfact>
</mgrwt>
</event>
<event>
 6    1  0.1284012E-001  0.3000000E+03  0.7818608E-02  0.1093470E+00
         21   -1    0    0  501  502  0.00000000000E+00  0.00000000000E+00  0.12035405812E+01  0.12035405812E+01  0.00000000000E+00 0. -1.
         13   -1    0    0    0    0 -0.00000000000E+00 -0.00000000000E+00 -0.10000000000E+04  0.10000000000E+04  0.00000000000E+00 0.  1.
    9000005    2    1    2  501    0  0.28612803555E+02  0.12218860069E+02 -0.28363778456E+03  0.28536841760E+03  0.40924154742E+01 0.  0.
         13    1    3    3    0    0  0.24468350532E+02  0.96059725232E+01 -0.24949066124E+03  0.25087161045E+03  0.00000000000E+00 0.  1.
          3    1    3    3  501    0  0.41444530234E+01  0.26128875455E+01 -0.34147123321E+02  0.34496807146E+02  0.00000000000E+00 0.  1.
         -3    1    1    2    0  502 -0.28612803555E+02 -0.12218860069E+02 -0.71515867486E+03  0.71583512298E+03  0.00000000000E+00 0. -1.
<mgrwt>
<rscale>  1 0.30000000E+03</rscale>
<asrwt>0</asrwt>
<pdfrwt beam="1">  1       21 0.43765204E-02 0.30000000E+03</pdfrwt>
<pdfrwt beam="2">0</pdfrwt>
<totfact> 0.36122261E+04</totfact>
</mgrwt>
</event>
<event>
 6    1  0.1284012E-001  0.3000000E+03  0.7818608E-02  0.1093470E+00
         21   -1    0    0  501  502  0.00000000000E+00  0.00000000000E+00  0.23168534646E+01  0.23168534646E+01  0.00000000000E+00 0. -1.
         13   -1    0    0    0    0 -0.00000000000E+00 -0.00000000000E+00 -0.10000000000E+04  0.10000000000E+04  0.00000000000E+00 0.  1.
    9000005    2    1    2  501    0  0.13910325779E+02 -0.39626594551E+02 -0.74182770635E+03  0.74303752450E+03  0.57142574856E+01 0.  0.
         13    1    3    3    0    0  0.13412486061E+02 -0.34796025825E+02 -0.62795271248E+03  0.62905903324E+03  0.00000000000E+00 0.  1.
          3    1    3    3  501    0  0.49783971765E+00 -0.48305687264E+01 -0.11387499387E+03  0.11397849125E+03  0.00000000000E+00 0.  1.
         -1    1    1    2    0  502 -0.13910325779E+02  0.39626594551E+02 -0.25585544018E+03  0.25927932897E+03  0.00000000000E+00 0. -1.
<mgrwt>
<rscale>  1 0.30000000E+03</rscale>
<asrwt>0</asrwt>
<pdfrwt beam="1">  1       21 0.84249395E-02 0.30000000E+03</pdfrwt>
<pdfrwt beam="2">0</pdfrwt>
<totfact> 0.11662192E+04</totfact>
</mgrwt>
</event>
<event>
 6    1  0.1284012E-001  0.3000000E+03  0.7818608E-02  0.1093470E+00
         21   -1    0    0  501  502  0.00000000000E+00  0.00000000000E+00  0.37504637164E+01  0.37504637164E+01  0.00000000000E+00 0. -1.
         13   -1    0    0    0    0 -0.00000000000E+00 -0.00000000000E+00 -0.10000000000E+04  0.10000000000E+04  0.00000000000E+00 0.  1.
    9000005    2    1    2  501    0 -0.33077437589E+02  0.61645388880E+00 -0.92008263494E+03  0.92070894547E+03  0.76426600205E+01 0.  0.
         13    1    3    3    0    0 -0.10913976448E+02  0.33618026570E+01 -0.26562674284E+03  0.26587211796E+03  0.00000000000E+00 0.  1.
          1    1    3    3  501    0 -0.22163461141E+02 -0.27453487682E+01 -0.65445589210E+03  0.65483682750E+03  0.00000000000E+00 0.  1.
         -3    1    1    2    0  502  0.33077437589E+02 -0.61645388880E+00 -0.76166901343E+02  0.83041518249E+02  0.00000000000E+00 0. -1.
<mgrwt>
<rscale>  1 0.30000000E+03</rscale>
<asrwt>0</asrwt>
<pdfrwt beam="1">  1       21 0.13638079E-01 0.30000000E+03</pdfrwt>
<pdfrwt beam="2">0</pdfrwt>
<totfact> 0.49069529E+03</totfact>
</mgrwt>
</event>
<event>
 6    1  0.1284012E-001  0.3000000E+03  0.7818608E-02  0.1093470E+00
         21   -1    0    0  501  502  0.00000000000E+00  0.00000000000E+00  0.11694366079E+01  0.11694366079E+01  0.00000000000E+00 0. -1.
         13   -1    0    0    0    0 -0.00000000000E+00 -0.00000000000E+00 -0.10000000000E+04  0.10000000000E+04  0.00000000000E+00 0.  1.
    9000005    2    1    2  501    0  0.29080681511E+02  0.15639179825E+02 -0.41340694598E+03  0.41481537820E+03  0.87306945493E+01 0.  0.
         13    1    3    3    0    0  0.25960526554E+02  0.14468700543E+02 -0.32808656682E+03  0.32942994333E+03  0.00000000000E+00 0.  1.
          1    1    3    3  501    0  0.31201549568E+01  0.11704792816E+01 -0.85320379152E+02  0.85385434866E+02  0.00000000000E+00 0.  1.
         -3    1    1    2    0  502 -0.29080681511E+02 -0.15639179825E+02 -0.58542361742E+03  0.58635405841E+03  0.00000000000E+00 0. -1.
<mgrwt>
<rscale>  1 0.30000000E+03</rscale>
<asrwt>0</asrwt>
<pdfrwt beam="1">  1       21 0.42525057E-02 0.30000000E+03</pdfrwt>
<pdfrwt beam="2">0</pdfrwt>
<totfact> 0.37922153E+04</totfact>
</mgrwt>
</event>
<event>
 6    1  0.1284012E-001  0.3000000E+03  0.7818608E-02  0.1093470E+00
         21   -1    0    0  501  502  0.00000000000E+00  0.00000000000E+00  0.57781339434E+01  0.57781339434E+01  0.00000000000E+00 0. -1.
         13   -1    0    0    0    0 -0.00000000000E+00 -0.00000000000E+00 -0.10000000000E+04  0.10000000000E+04  0.00000000000E+00 0.  1.
    9000005    2    1    2  501    0 -0.25995273907E+01  0.62662060837E+02 -0.78092267193E+03  0.78344991345E+03  0.45006605756E+01 0.  0.
         13    1    3    3    0    0 -0.34120977110E+01  0.49507131979E+02 -0.60117494182E+03  0.60321961937E+03  0.00000000000E+00 0.  1.
          1    1    3    3  501    0  0.81257032034E+00  0.13154928858E+02 -0.17974773011E+03  0.18023029408E+03  0.00000000000E+00 0.  1.
         -1    1    1    2    0  502  0.25995273907E+01 -0.62662060837E+02 -0.21329919413E+03  0.22232822049E+03  0.00000000000E+00 0. -1.
<mgrwt>
<rscale>  1 0.30000000E+03</rscale>
<asrwt>0</asrwt>
<pdfrwt beam="1">  1       21 0.21011440E-01 0.30000000E+03</pdfrwt>
<pdfrwt beam="2">0</pdfrwt>
<totfact> 0.21831423E+03</totfact>
</mgrwt>
</event>
<event>
 6    1  0.1284012E-001  0.3000000E+03  0.7818608E-02  0.1093470E+00
         21   -1    0    0  501  502  0.00000000000E+00  0.00000000000E+00  0.15171405102E+01  0.15171405102E+01  0.00000000000E+00 0. -1.
         13   -1    0    0    0    0 -0.00000000000E+00 -0.00000000000E+00 -0.10000000000E+04  0.10000000000E+04  0.00000000000E+00 0.  1.
    9000005    2    1    2  501    0  0.33595572773E+02 -0.17818962101E+02 -0.60390721145E+03  0.60511315473E+03  0.34397761287E+01 0.  0.
         13    1    3    3    0    0  0.27540925597E+02 -0.13202887732E+02 -0.47383631560E+03  0.47481962134E+03  0.00000000000E+00 0.  1.
          1    1    3    3  501    0  0.60546471754E+01 -0.46160743693E+01 -0.13007089585E+03  0.13029353339E+03  0.00000000000E+00 0.  1.
         -1    1    1    2    0  502 -0.33595572773E+02  0.17818962101E+02 -0.39457564804E+03  0.39640398578E+03  0.00000000000E+00 0. -1.
<mgrwt>
<rscale>  1 0.30000000E+03</rscale>
<asrwt>0</asrwt>
<pdfrwt beam="1">  1       21 0.55168862E-02 0.30000000E+03</pdfrwt>
<pdfrwt beam="2">0</pdfrwt>
<totfact> 0.24345827E+04</totfact>
</mgrwt>
</event>
<event>
 6    1  0.1284012E-001  0.3000000E+03  0.7818608E-02  0.1093470E+00
         21   -1    0    0  501  502  0.00000000000E+00  0.00000000000E+00  0.18119054849E+01  0.18119054849E+01  0.00000000000E+00 0. -1.
         13   -1    0    0    0    0 -0.00000000000E+00 -0.00000000000E+00 -0.10000000000E+04  0.10000000000E+04  0.00000000000E+00 0.  1.
    9000005    2    1    2  501    0 -0.33268065899E+02 -0.24842791202E+02 -0.39296906862E+03  0.39517033273E+03  0.33127780232E+01 0.  0.
         13    1    3    3    0    0 -0.22381509817E+01 -0.72797403501E+00 -0.22226999706E+02  0.22351259068E+02  0.00000000000E+00 0.  1.
          1    1    3    3  501    0 -0.31029914918E+02 -0.24114817167E+02 -0.37074206891E+03  0.37281907366E+03  0.00000000000E+00 0.  1.
         -3    1    1    2    0  502  0.33268065899E+02  0.24842791202E+02 -0.60521902590E+03  0.60664157275E+03  0.00000000000E+00 0. -1.
<mgrwt>
<rscale>  1 0.30000000E+03</rscale>
<asrwt>0</asrwt>
<pdfrwt beam="1">  1       21 0.65887611E-02 0.30000000E+03</pdfrwt>
<pdfrwt beam="2">0</pdfrwt>
<totfact> 0.17923977E+04</totfact>
</mgrwt>
</event>
<event>
 6    1  0.1284012E-001  0.3000000E+03  0.7818608E-02  0.1093470E+00
         21   -1    0    0  501  502  0.00000000000E+00  0.00000000000E+00  0.13251033755E+01  0.13251033755E+01  0.00000000000E+00 0. -1.
         13   -1    0    0    0    0 -0.00000000000E+00 -0.00000000000E+00 -0.10000000000E+04  0.10000000000E+04  0.00000000000E+00 0.  1.
    9000005    2    1    2  501    0 -0.33316268235E+02  0.83151828968E+01 -0.66316365992E+03  0.66406125125E+03  0.34913575128E+01 0.  0.
         13    1    3    3    0    0 -0.16768695255E+02  0.45228856002E+01 -0.36831029933E+03  0.36871957126E+03  0.00000000000E+00 0.  1.
          1    1    3    3  501    0 -0.16547572980E+02  0.37922972967E+01 -0.29485336059E+03  0.29534167999E+03  0.00000000000E+00 0.  1.
         -3    1    1    2    0  502  0.33316268235E+02 -0.83151828968E+01 -0.33551123670E+03  0.33726385212E+03  0.00000000000E+00 0. -1.
<mgrwt>
<rscale>  1 0.30000000E+03</rscale>
<asrwt>0</asrwt>
<pdfrwt beam="1">  1       21 0.48185679E-02 0.30000000E+03</pdfrwt>
<pdfrwt beam="2">0</pdfrwt>
<totfact> 0.30676330E+04</totfact>
</mgrwt>
</event>
<event>
 6    1  0.1284012E-001  0.3000000E+03  0.7818608E-02  0.1093470E+00
         21   -1    0    0  501  502  0.00000000000E+00  0.00000000000E+00  0.45669457282E+01  0.45669457282E+01  0.00000000000E+00 0. -1.
         13   -1    0    0    0    0 -0.00000000000E+00 -0.00000000000E+00 -0.10000000000E+04  0.10000000000E+04  0.00000000000E+00 0.  1.
    9000005    2    1    2  501    0  0.95456262421E+01  0.48651304750E+02 -0.83888604373E+03  0.84035660822E+03  0.33713771019E+01 0.  0.
         13    1    3    3    0    0  0.90113325590E+01  0.39746607289E+02 -0.67952452267E+03  0.68074560140E+03  0.00000000000E+00 0.  1.
          3    1    3    3  501    0  0.53429368307E+00  0.89046974606E+01 -0.15936152106E+03  0.15961100683E+03  0.00000000000E+00 0.  1.
         -1    1    1    2    0  502 -0.95456262421E+01 -0.48651304750E+02 -0.15654701054E+03  0.16421033750E+03  0.00000000000E+00 0. -1.
<mgrwt>
<rscale>  1 0.30000000E+03</rscale>
<asrwt>0</asrwt>
<pdfrwt beam="1">  1       21 0.16607110E-01 0.30000000E+03</pdfrwt>
<pdfrwt beam="2">0</pdfrwt>
<totfact> 0.34073801E+03</totfact>
</mgrwt>
</event>
<event>
 6    1  0.1284012E-001  0.3000000E+03  0.7818608E-02  0.1093470E+00
         21   -1    0    0  501  502  0.00000000000E+00  0.00000000000E+00  0.16634309644E+01  0.16634309644E+01  0.00000000000E+00 0. -1.
         13   -1    0    0    0    0 -0.00000000000E+00 -0.00000000000E+00 -0.10000000000E+04  0.10000000000E+04  0.00000000000E+00 0.  1.
    9000005    2    1    2  501    0 -0.21819217405E+02  0.26052867361E+02 -0.77543879276E+03  0.77619004270E+03  0.32910373433E+01 0.  0.
         13    1    3    3    0    0 -0.19091805028E+02  0.22207502954E+02 -0.69009799794E+03  0.69071913030E+03  0.00000000000E+00 0.  1.
          3    1    3    3  501    0 -0.27274123767E+01  0.38453644069E+01 -0.85340794819E+02  0.85470912397E+02  0.00000000000E+00 0.  1.
         -1    1    1    2    0  502  0.21819217405E+02 -0.26052867361E+02 -0.22289777628E+03  0.22547338827E+03  0.00000000000E+00 0. -1.
<mgrwt>
<rscale>  1 0.30000000E+03</rscale>
<asrwt>0</asrwt>
<pdfrwt beam="1">  1       21 0.60488526E-02 0.30000000E+03</pdfrwt>
<pdfrwt beam="2">0</pdfrwt>
<totfact> 0.20778975E+04</totfact>
</mgrwt>
</event>
<event>
 6    1  0.1284012E-001  0.3000000E+03  0.7818608E-02  0.1093470E+00
         21   -1    0    0  501  502  0.00000000000E+00  0.00000000000E+00  0.11493390859E+01  0.11493390859E+01  0.00000000000E+00 0. -1.
         13   -1    0    0    0    0 -0.00000000000E+00 -0.00000000000E+00 -0.10000000000E+04  0.10000000000E+04  0.00000000000E+00 0.  1.
    9000005    2    1    2  501    0  0.29197421312E+02 -0.15638736488E+02 -0.60184119003E+03  0.60276061000E+03  0.32365818014E+01 0.  0.
         13    1    3    3    0    0  0.57557521327E+01 -0.34896952630E+01 -0.10109618555E+03  0.10132001475E+03  0.00000000000E+00 0.  1.
          1    1    3    3  501    0  0.23441669180E+02 -0.12149041225E+02 -0.50074500448E+03  0.50144059525E+03  0.00000000000E+00 0.  1.
         -3    1    1    2    0  502 -0.29197421312E+02  0.15638736488E+02 -0.39700947089E+03  0.39838872909E+03  0.00000000000E+00 0. -1.
<mgrwt>
<rscale>  1 0.30000000E+03</rscale>
<asrwt>0</asrwt>
<pdfrwt beam="1">  1       21 0.41794237E-02 0.30000000E+03</pdfrwt>
<pdfrwt beam="2">0</pdfrwt>
<totfact> 0.39048910E+04</totfact>
</mgrwt>
</event>
<event>
 6    1  0.1284012E-001  0.3000000E+03  0.7818608E-02  0.1093470E+00
         21   -1    0    0  501  502  0.00000000000E+00  0.00000000000E+00  0.41034522112E+01  0.41034522112E+01  0.00000000000E+00 0. -1.
         13   -1    0    0    0    0 -0.00000000000E+00 -0.00000000000E+00 -0.10000000000E+04  0.10000000000E+04  0.00000000000E+00 0.  1.
    9000005    2    1    2  501    0 -0.14689674853E+02 -0.46410616360E+02 -0.82408719564E+03  0.82553081896E+03  0.34198226945E+01 0.  0.
         13    1    3    3    0    0 -0.28474895970E+01 -0.10828977732E+02 -0.16792183736E+03  0.16829473675E+03  0.00000000000E+00 0.  1.
          3    1    3    3  501    0 -0.11842185256E+02 -0.35581638628E+02 -0.65616535828E+03  0.65723608221E+03  0.00000000000E+00 0.  1.
         -1    1    1    2    0  502  0.14689674853E+02  0.46410616360E+02 -0.17180935215E+03  0.17857263325E+03  0.00000000000E+00 0. -1.
<mgrwt>
<rscale>  1 0.30000000E+03</rscale>
<asrwt>0</asrwt>
<pdfrwt beam="1">  1       21 0.14921676E-01 0.30000000E+03</pdfrwt>
<pdfrwt beam="2">0</pdfrwt>
<totfact> 0.41581210E+03</totfact>
</mgrwt>
</event>
<event>
 6    1  0.1284012E-001  0.3000000E+03  0.7818608E-02  0.1093470E+00
         21   -1    0    0  501  502  0.00000000000E+00  0.00000000000E+00  0.19399860922E+01  0.19399860922E+01  0.00000000000E+00 0. -1.
         13   -1    0    0    0    0 -0.00000000000E+00 -0.00000000000E+00 -0.10000000000E+04  0.10000000000E+04  0.00000000000E+00 0.  1.
    9000005    2    1    2  501    0  0.35780211902E+02  0.25585868322E+02 -0.50610994834E+03  0.50802731442E+03  0.31003501724E+01 0.  0.
         13    1    3    3    0    0  0.18415799427E+02  0.11282622084E+02 -0.25041531645E+03  0.25134492225E+03  0.00000000000E+00 0.  1.
          3    1    3    3  501    0  0.17364412475E+02  0.14303246239E+02 -0.25569463189E+03  0.25668239217E+03  0.00000000000E+00 0.  1.
         -3    1    1    2    0  502 -0.35780211902E+02 -0.25585868322E+02 -0.49195006557E+03  0.49391267167E+03  0.00000000000E+00 0. -1.
<mgrwt>
<rscale>  1 0.30000000E+03</rscale>
<asrwt>0</asrwt>
<pdfrwt beam="1">  1       21 0.70545098E-02 0.30000000E+03</pdfrwt>
<pdfrwt beam="2">0</pdfrwt>
<totfact> 0.15918861E+04</totfact>
</mgrwt>
</event>
<event>
 6    1  0.1284012E-001  0.3000000E+03  0.7818608E-02  0.1093470E+00
         21   -1    0    0  501  502  0.00000000000E+00  0.00000000000E+00  0.21351072829E+01  0.21351072829E+01  0.00000000000E+00 0. -1.
         13   -1    0    0    0    0 -0.00000000000E+00 -0.00000000000E+00 -0.10000000000E+04  0.10000000000E+04  0.00000000000E+00 0.  1.
    9000005    2    1    2  501    0  0.33696292949E+02 -0.24503396898E+02 -0.71500632091E+03  0.71622458236E+03  0.27851058551E+01 0.  0.
         13    1    3    3    0    0  0.14707574073E+02 -0.99985270143E+01 -0.32684669965E+03  0.32733018246E+03  0.00000000000E+00 0.  1.
          3    1    3    3  501    0  0.18988718876E+02 -0.14504869884E+02 -0.38815962126E+03  0.38889439989E+03  0.00000000000E+00 0.  1.
         -1    1    1    2    0  502 -0.33696292949E+02  0.24503396898E+02 -0.28285857181E+03  0.28591052493E+03  0.00000000000E+00 0. -1.
<mgrwt>
<rscale>  1 0.30000000E+03</rscale>
<asrwt>0</asrwt>
<pdfrwt beam="1">  1       21 0.77640429E-02 0.30000000E+03</pdfrwt>
<pdfrwt beam="2">0</pdfrwt>
<totfact> 0.13462987E+04</totfact>
</mgrwt>
</event>
<event>
 6    1  0.1284012E-001  0.3000000E+03  0.7818608E-02  0.1093470E+00
         21   -1    0    0  501  502  0.00000000000E+00  0.00000000000E+00  0.13060144600E+01  0.13060144600E+01  0.00000000000E+00 0. -1.
         13   -1    0    0    0    0 -0.00000000000E+00 -0.00000000000E+00 -0.10000000000E+04  0.10000000000E+04  0.00000000000E+00 0.  1.
    9000005    2    1    2  501    0 -0.27294498253E+02  0.20241400542E+02 -0.65708779681E+03  0.65801387632E+03  0.79488855234E+01 0.  0.
         13    1    3    3    0    0 -0.11580137821E+02  0.67264821049E+01 -0.19342520452E+03  0.19388825363E+03  0.00000000000E+00 0.  1.
          3    1    3    3  501    0 -0.15714360431E+02  0.13514918437E+02 -0.46366259229E+03  0.46412562269E+03  0.00000000000E+00 0.  1.
         -3    1    1    2    0  502  0.27294498253E+02 -0.20241400542E+02 -0.34160618873E+03  0.34329213814E+03  0.00000000000E+00 0. -1.
<mgrwt>
<rscale>  1 0.30000000E+03</rscale>
<asrwt>0</asrwt>
<pdfrwt beam="1">  1       21 0.47491535E-02 0.30000000E+03</pdfrwt>
<pdfrwt beam="2">0</pdfrwt>
<totfact> 0.31443080E+04</totfact>
</mgrwt>
</event>
<event>
 6    1  0.1284012E-001  0.3000000E+03  0.7818608E-02  0.1093470E+00
         21   -1    0    0  501  502  0.00000000000E+00  0.00000000000E+00  0.21193675817E+01  0.21193675817E+01  0.00000000000E+00 0. -1.
         13   -1    0    0    0    0 -0.00000000000E+00 -0.00000000000E+00 -0.10000000000E+04  0.10000000000E+04  0.00000000000E+00 0.  1.
    9000005    2    1    2  501    0 -0.58308112288E+01 -0.45326739499E+02 -0.55519515026E+03  0.55708122564E+03  0.30537534661E+01 0.  0.
         13    1    3    3    0    0  0.82307759448E-01 -0.87515131970E+01 -0.10558479297E+03  0.10594689361E+03  0.00000000000E+00 0.  1.
          3    1    3    3  501    0 -0.59131189882E+01 -0.36575226302E+02 -0.44961035729E+03  0.45113433203E+03  0.00000000000E+00 0.  1.
         -1    1    1    2    0  502  0.58308112288E+01  0.45326739499E+02 -0.44268548215E+03  0.44503814194E+03  0.00000000000E+00 0. -1.
<mgrwt>
<rscale>  1 0.30000000E+03</rscale>
<asrwt>0</asrwt>
<pdfrwt beam="1">  1       21 0.77068075E-02 0.30000000E+03</pdfrwt>
<pdfrwt beam="2">0</pdfrwt>
<totfact> 0.13638784E+04</totfact>
</mgrwt>
</event>
<event>
 6    1  0.1284012E-001  0.3000000E+03  0.7818608E-02  0.1093470E+00
         21   -1    0    0  501  502  0.00000000000E+00  0.00000000000E+00  0.11501570062E+01  0.11501570062E+01  0.00000000000E+00 0. -1.
         13   -1    0    0    0    0 -0.00000000000E+00 -0.00000000000E+00 -0.10000000000E+04  0.10000000000E+04  0.00000000000E+00 0.  1.
    9000005    2    1    2  501    0 -0.28347058593E+02  0.16062988075E+02 -0.63410052744E+03  0.63494852059E+03  0.38170123376E+01 0.  0.
         13    1    3    3    0    0 -0.15619586553E+02  0.99665889003E+01 -0.32810641997E+03  0.32862916365E+03  0.00000000000E+00 0.  1.
          1    1    3    3  501    0 -0.12727472040E+02  0.60963991743E+01 -0.30599410747E+03  0.30631935693E+03  0.00000000000E+00 0.  1.
         -3    1    1    2    0  502  0.28347058593E+02 -0.16062988075E+02 -0.36474931556E+03  0.36620163642E+03  0.00000000000E+00 0. -1.
<mgrwt>
<rscale>  1 0.30000000E+03</rscale>
<asrwt>0</asrwt>
<pdfrwt beam="1">  1       21 0.41823979E-02 0.30000000E+03</pdfrwt>
<pdfrwt beam="2">0</pdfrwt>
<totfact> 0.39002043E+04</totfact>
</mgrwt>
</event>
<event>
 6    1  0.1284012E-001  0.3000000E+03  0.7818608E-02  0.1093470E+00
         21   -1    0    0  501  502  0.00000000000E+00  0.00000000000E+00  0.12765354608E+02  0.12765354608E+02  0.00000000000E+00 0. -1.
         13   -1    0    0    0    0 -0.00000000000E+00 -0.00000000000E+00 -0.10000000000E+04  0.10000000000E+04  0.00000000000E+00 0.  1.
    9000005    2    1    2  501    0 -0.57081579674E+02  0.73609949122E+02 -0.20733387256E+03  0.22732156489E+03  0.33208137670E+01 0.  0.
         13    1    3    3    0    0 -0.53586323379E+01  0.85622181068E+01 -0.22953117811E+02  0.25077323156E+02  0.00000000000E+00 0.  1.
          1    1    3    3  501    0 -0.51722947336E+02  0.65047731015E+02 -0.18438075475E+03  0.20224424173E+03  0.00000000000E+00 0.  1.
         -3    1    1    2    0  502  0.57081579674E+02 -0.73609949122E+02 -0.77990077283E+03  0.78544378972E+03  0.00000000000E+00 0. -1.
<mgrwt>
<rscale>  1 0.30000000E+03</rscale>
<asrwt>0</asrwt>
<pdfrwt beam="1">  1       21 0.46419569E-01 0.30000000E+03</pdfrwt>
<pdfrwt beam="2">0</pdfrwt>
<totfact> 0.44088997E+02</totfact>
</mgrwt>
</event>
<event>
 6    1  0.1284012E-001  0.3000000E+03  0.7818608E-02  0.1093470E+00
         21   -1    0    0  501  502  0.00000000000E+00  0.00000000000E+00  0.56284858764E+01  0.56284858764E+01  0.00000000000E+00 0. -1.
         13   -1    0    0    0    0 -0.00000000000E+00 -0.00000000000E+00 -0.10000000000E+04  0.10000000000E+04  0.00000000000E+00 0.  1.
    9000005    2    1    2  501    0  0.33086891263E+02 -0.26460287388E+02 -0.91209209086E+03  0.91308232078E+03  0.35288983619E+01 0.  0.
         13    1    3    3    0    0  0.32414310210E+02 -0.26372461361E+02 -0.90201984970E+03  0.90298726651E+03  0.00000000000E+00 0.  1.
          1    1    3    3  501    0  0.67258105234E+00 -0.87826026306E-01 -0.10072241156E+02  0.10095054263E+02  0.00000000000E+00 0.  1.
         -1    1    1    2    0  502 -0.33086891263E+02  0.26460287388E+02 -0.82279423263E+02  0.92546165099E+02  0.00000000000E+00 0. -1.
<mgrwt>
<rscale>  1 0.30000000E+03</rscale>
<asrwt>0</asrwt>
<pdfrwt beam="1">  1       21 0.20467265E-01 0.30000000E+03</pdfrwt>
<pdfrwt beam="2">0</pdfrwt>
<totfact> 0.22956384E+03</totfact>
</mgrwt>
</event>
<event>
 6    1  0.1284012E-001  0.3000000E+03  0.7818608E-02  0.1093470E+00
         21   -1    0    0  501  502  0.00000000000E+00  0.00000000000E+00  0.14735971638E+01  0.14735971638E+01  0.00000000000E+00 0. -1.
         13   -1    0    0    0    0 -0.00000000000E+00 -0.00000000000E+00 -0.10000000000E+04  0.10000000000E+04  0.00000000000E+00 0.  1.
    9000005    2    1    2  501    0 -0.29908984076E+02 -0.77129954333E+01 -0.79565151304E+03  0.79626088182E+03  0.40030107011E+01 0.  0.
         13    1    3    3    0    0 -0.26605740627E+02 -0.80626418348E+01 -0.70068770685E+03  0.70123899931E+03  0.00000000000E+00 0.  1.
          1    1    3    3  501    0 -0.33032434494E+01  0.34964640153E+00 -0.94963806186E+02  0.95021882507E+02  0.00000000000E+00 0.  1.
         -3    1    1    2    0  502  0.29908984076E+02  0.77129954333E+01 -0.20287488980E+03  0.20521271534E+03  0.00000000000E+00 0. -1.
<mgrwt>
<rscale>  1 0.30000000E+03</rscale>
<asrwt>0</asrwt>
<pdfrwt beam="1">  1       21 0.53585464E-02 0.30000000E+03</pdfrwt>
<pdfrwt beam="2">0</pdfrwt>
<totfact> 0.25591298E+04</totfact>
</mgrwt>
</event>
<event>
 6    1  0.1284012E-001  0.3000000E+03  0.7818608E-02  0.1093470E+00
         21   -1    0    0  501  502  0.00000000000E+00  0.00000000000E+00  0.10900136193E+01  0.10900136193E+01  0.00000000000E+00 0. -1.
         13   -1    0    0    0    0 -0.00000000000E+00 -0.00000000000E+00 -0.10000000000E+04  0.10000000000E+04  0.00000000000E+00 0.  1.
    9000005    2    1    2  501    0  0.29500370080E+02 -0.80718387214E+01 -0.31730409494E+03  0.31879827421E+03  0.38761527854E+01 0.  0.
         13    1    3    3    0    0  0.20619751126E+02 -0.63602878226E+01 -0.23956752820E+03  0.24053737333E+03  0.00000000000E+00 0.  1.
          3    1    3    3  501    0  0.88806189539E+01 -0.17115508988E+01 -0.77736566733E+02  0.78260900882E+02  0.00000000000E+00 0.  1.
         -1    1    1    2    0  502 -0.29500370080E+02  0.80718387214E+01 -0.68160589145E+03  0.68229173941E+03  0.00000000000E+00 0. -1.
<mgrwt>
<rscale>  1 0.30000000E+03</rscale>
<asrwt>0</asrwt>
<pdfrwt beam="1">  1       21 0.39636942E-02 0.30000000E+03</pdfrwt>
<pdfrwt beam="2">0</pdfrwt>
<totfact> 0.42697785E+04</totfact>
</mgrwt>
</event>
<event>
 6    1  0.1284012E-001  0.3000000E+03  0.7818608E-02  0.1093470E+00
         21   -1    0    0  501  502  0.00000000000E+00  0.00000000000E+00  0.26008668479E+01  0.26008668479E+01  0.00000000000E+00 0. -1.
         13   -1    0    0    0    0 -0.00000000000E+00 -0.00000000000E+00 -0.10000000000E+04  0.10000000000E+04  0.00000000000E+00 0.  1.
    9000005    2    1    2  501    0 -0.34720066369E+02  0.21258359870E+02 -0.19818223235E+03  0.20234774726E+03  0.33185435538E+01 0.  0.
         13    1    3    3    0    0 -0.30167069323E+02  0.18637572888E+02 -0.17762025544E+03  0.18112527802E+03  0.00000000000E+00 0.  1.
          3    1    3    3  501    0 -0.45529970459E+01  0.26207869826E+01 -0.20561976902E+02  0.21222469239E+02  0.00000000000E+00 0.  1.
         -3    1    1    2    0  502  0.34720066369E+02 -0.21258359870E+02 -0.79921690081E+03  0.80025311959E+03  0.00000000000E+00 0. -1.
<mgrwt>
<rscale>  1 0.30000000E+03</rscale>
<asrwt>0</asrwt>
<pdfrwt beam="1">  1       21 0.94577176E-02 0.30000000E+03</pdfrwt>
<pdfrwt beam="2">0</pdfrwt>
<totfact> 0.95029178E+03</totfact>
</mgrwt>
</event>
<event>
 6    1  0.1284012E-001  0.3000000E+03  0.7818608E-02  0.1093470E+00
         21   -1    0    0  501  502  0.00000000000E+00  0.00000000000E+00  0.32134449233E+01  0.32134449233E+01  0.00000000000E+00 0. -1.
         13   -1    0    0    0    0 -0.00000000000E+00 -0.00000000000E+00 -0.10000000000E+04  0.10000000000E+04  0.00000000000E+00 0.  1.
    9000005    2    1    2  501    0  0.54104939110E+02 -0.12229803062E+02 -0.58612022237E+03  0.58881780144E+03  0.96216268252E+01 0.  0.
         13    1    3    3    0    0  0.52385126424E+01 -0.33822182537E+01 -0.46277438475E+02  0.46695639270E+02  0.00000000000E+00 0.  1.
          1    1    3    3  501    0  0.48866426468E+02 -0.88475848085E+01 -0.53984278389E+03  0.54212216217E+03  0.00000000000E+00 0.  1.
         -3    1    1    2    0  502 -0.54104939110E+02  0.12229803062E+02 -0.41066633271E+03  0.41439564349E+03  0.00000000000E+00 0. -1.
<mgrwt>
<rscale>  1 0.30000000E+03</rscale>
<asrwt>0</asrwt>
<pdfrwt beam="1">  1       21 0.11685279E-01 0.30000000E+03</pdfrwt>
<pdfrwt beam="2">0</pdfrwt>
<totfact> 0.65028929E+03</totfact>
</mgrwt>
</event>
<event>
 6    1  0.1284012E-001  0.3000000E+03  0.7818608E-02  0.1093470E+00
         21   -1    0    0  501  502  0.00000000000E+00  0.00000000000E+00  0.12888031493E+01  0.12888031493E+01  0.00000000000E+00 0. -1.
         13   -1    0    0    0    0 -0.00000000000E+00 -0.00000000000E+00 -0.10000000000E+04  0.10000000000E+04  0.00000000000E+00 0.  1.
    9000005    2    1    2  501    0 -0.31263629999E+02 -0.68800798579E+01 -0.72480153866E+03  0.72551489048E+03  0.31362083389E+01 0.  0.
         13    1    3    3    0    0 -0.28773371713E+02 -0.71434408897E+01 -0.66234400472E+03  0.66300717663E+03  0.00000000000E+00 0.  1.
          3    1    3    3  501    0 -0.24902582863E+01  0.26336103185E+00 -0.62457533937E+02  0.62507713851E+02  0.00000000000E+00 0.  1.
         -1    1    1    2    0  502  0.31263629999E+02  0.68800798579E+01 -0.27390965819E+03  0.27577391267E+03  0.00000000000E+00 0. -1.
<mgrwt>
<rscale>  1 0.30000000E+03</rscale>
<asrwt>0</asrwt>
<pdfrwt beam="1">  1       21 0.46865668E-02 0.30000000E+03</pdfrwt>
<pdfrwt beam="2">0</pdfrwt>
<totfact> 0.32160451E+04</totfact>
</mgrwt>
</event>
<event>
 6    1  0.1284012E-001  0.3000000E+03  0.7818608E-02  0.1093470E+00
         21   -1    0    0  501  502  0.00000000000E+00  0.00000000000E+00  0.24162357605E+01  0.24162357605E+01  0.00000000000E+00 0. -1.
         13   -1    0    0    0    0 -0.00000000000E+00 -0.00000000000E+00 -0.10000000000E+04  0.10000000000E+04  0.00000000000E+00 0.  1.
    9000005    2    1    2  501    0  0.86213162641E+01  0.47422248061E+02 -0.59591203453E+03  0.59786293253E+03  0.23950976245E+01 0.  0.
         13    1    3    3    0    0  0.84474277472E+00  0.90536414353E+01 -0.10619307466E+03  0.10658166409E+03  0.00000000000E+00 0.  1.
          3    1    3    3  501    0  0.77765734893E+01  0.38368606626E+02 -0.48971895987E+03  0.49128126844E+03  0.00000000000E+00 0.  1.
         -3    1    1    2    0  502 -0.86213162641E+01 -0.47422248061E+02 -0.40167172971E+03  0.40455330323E+03  0.00000000000E+00 0. -1.
<mgrwt>
<rscale>  1 0.30000000E+03</rscale>
<asrwt>0</asrwt>
<pdfrwt beam="1">  1       21 0.87863304E-02 0.30000000E+03</pdfrwt>
<pdfrwt beam="2">0</pdfrwt>
<totfact> 0.10828916E+04</totfact>
</mgrwt>
</event>
<event>
 6    1  0.1284012E-001  0.3000000E+03  0.7818608E-02  0.1093470E+00
         21   -1    0    0  501  502  0.00000000000E+00  0.00000000000E+00  0.10955803513E+01  0.10955803513E+01  0.00000000000E+00 0. -1.
         13   -1    0    0    0    0 -0.00000000000E+00 -0.00000000000E+00 -0.10000000000E+04  0.10000000000E+04  0.00000000000E+00 0.  1.
    9000005    2    1    2  501    0  0.26586753988E+02  0.16877011133E+02 -0.65099483540E+03  0.65176369260E+03  0.31537712530E+01 0.  0.
         13    1    3    3    0    0  0.18851450819E+02  0.12248762836E+02 -0.49230732588E+03  0.49282036535E+03  0.00000000000E+00 0.  1.
          1    1    3    3  501    0  0.77353031688E+01  0.46282482972E+01 -0.15868750952E+03  0.15894332725E+03  0.00000000000E+00 0.  1.
         -3    1    1    2    0  502 -0.26586753988E+02 -0.16877011133E+02 -0.34790958424E+03  0.34933188775E+03  0.00000000000E+00 0. -1.
<mgrwt>
<rscale>  1 0.30000000E+03</rscale>
<asrwt>0</asrwt>
<pdfrwt beam="1">  1       21 0.39839370E-02 0.30000000E+03</pdfrwt>
<pdfrwt beam="2">0</pdfrwt>
<totfact> 0.42333187E+04</totfact>
</mgrwt>
</event>
<event>
 6    1  0.1284012E-001  0.3000000E+03  0.7818608E-02  0.1093470E+00
         21   -1    0    0  501  502  0.00000000000E+00  0.00000000000E+00  0.10092339747E+01  0.10092339747E+01  0.00000000000E+00 0. -1.
         13   -1    0    0    0    0 -0.00000000000E+00 -0.00000000000E+00 -0.10000000000E+04  0.10000000000E+04  0.00000000000E+00 0.  1.
    9000005    2    1    2  501    0 -0.16453797451E+02 -0.27068734034E+02 -0.48006316007E+03  0.48111568329E+03  0.28669227683E+01 0.  0.
         13    1    3    3    0    0 -0.13599950600E+02 -0.22064949732E+02 -0.40815192098E+03  0.40897409608E+03  0.00000000000E+00 0.  1.
          3    1    3    3  501    0 -0.28538468512E+01 -0.50037843019E+01 -0.71911239081E+02  0.72141587212E+02  0.00000000000E+00 0.  1.
         -1    1    1    2    0  502  0.16453797451E+02  0.27068734034E+02 -0.51892760596E+03  0.51989355068E+03  0.00000000000E+00 0. -1.
<mgrwt>
<rscale>  1 0.30000000E+03</rscale>
<asrwt>0</asrwt>
<pdfrwt beam="1">  1       21 0.36699495E-02 0.30000000E+03</pdfrwt>
<pdfrwt beam="2">0</pdfrwt>
<totfact> 0.48595982E+04</totfact>
</mgrwt>
</event>
<event>
 6    1  0.1284012E-001  0.3000000E+03  0.7818608E-02  0.1093470E+00
         21   -1    0    0  501  502  0.00000000000E+00  0.00000000000E+00  0.13595453862E+01  0.13595453862E+01  0.00000000000E+00 0. -1.
         13   -1    0    0    0    0 -0.00000000000E+00 -0.00000000000E+00 -0.10000000000E+04  0.10000000000E+04  0.00000000000E+00 0.  1.
    9000005    2    1    2  501    0  0.30456685926E+02  0.20370914377E+02 -0.54301182766E+03  0.54425996152E+03  0.38048476632E+01 0.  0.
         13    1    3    3    0    0  0.10502886042E+02  0.67468107063E+01 -0.15945086313E+03  0.15993876272E+03  0.00000000000E+00 0.  1.
          1    1    3    3  501    0  0.19953799884E+02  0.13624103670E+02 -0.38356096453E+03  0.38432119880E+03  0.00000000000E+00 0.  1.
         -1    1    1    2    0  502 -0.30456685926E+02 -0.20370914377E+02 -0.45562862695E+03  0.45709958386E+03  0.00000000000E+00 0. -1.
<mgrwt>
<rscale>  1 0.30000000E+03</rscale>
<asrwt>0</asrwt>
<pdfrwt beam="1">  1       21 0.49438118E-02 0.30000000E+03</pdfrwt>
<pdfrwt beam="2">0</pdfrwt>
<totfact> 0.29364817E+04</totfact>
</mgrwt>
</event>
<event>
 6    1  0.1284012E-001  0.3000000E+03  0.7818608E-02  0.1093470E+00
         21   -1    0    0  501  502  0.00000000000E+00  0.00000000000E+00  0.52829983557E+01  0.52829983557E+01  0.00000000000E+00 0. -1.
         13   -1    0    0    0    0 -0.00000000000E+00 -0.00000000000E+00 -0.10000000000E+04  0.10000000000E+04  0.00000000000E+00 0.  1.
    9000005    2    1    2  501    0 -0.47128544025E+02  0.49215628050E+02 -0.67184467223E+03  0.67529842477E+03  0.30693940930E+01 0.  0.
         13    1    3    3    0    0 -0.22878076176E+02  0.25749590748E+02 -0.34766805032E+03  0.34937017761E+03  0.00000000000E+00 0.  1.
          3    1    3    3  501    0 -0.24250467849E+02  0.23466037302E+02 -0.32417662191E+03  0.32592824715E+03  0.00000000000E+00 0.  1.
         -3    1    1    2    0  502  0.47128544025E+02 -0.49215628050E+02 -0.32287232941E+03  0.32998457359E+03  0.00000000000E+00 0. -1.
<mgrwt>
<rscale>  1 0.30000000E+03</rscale>
<asrwt>0</asrwt>
<pdfrwt beam="1">  1       21 0.19210944E-01 0.30000000E+03</pdfrwt>
<pdfrwt beam="2">0</pdfrwt>
<totfact> 0.25902705E+03</totfact>
</mgrwt>
</event>
<event>
 6    1  0.1284012E-001  0.3000000E+03  0.7818608E-02  0.1093470E+00
         21   -1    0    0  501  502  0.00000000000E+00  0.00000000000E+00  0.10246501377E+01  0.10246501377E+01  0.00000000000E+00 0. -1.
         13   -1    0    0    0    0 -0.00000000000E+00 -0.00000000000E+00 -0.10000000000E+04  0.10000000000E+04  0.00000000000E+00 0.  1.
    9000005    2    1    2  501    0 -0.24057100467E+02 -0.19807283243E+02 -0.60791357441E+03  0.60872325482E+03  0.37435876071E+01 0.  0.
         13    1    3    3    0    0 -0.10170369767E+02 -0.72839064400E+01 -0.21272181139E+03  0.21308932576E+03  0.00000000000E+00 0.  1.
          3    1    3    3  501    0 -0.13886730700E+02 -0.12523376803E+02 -0.39519176303E+03  0.39563392906E+03  0.00000000000E+00 0.  1.
         -1    1    1    2    0  502  0.24057100467E+02  0.19807283243E+02 -0.39106177545E+03  0.39230139532E+03  0.00000000000E+00 0. -1.
<mgrwt>
<rscale>  1 0.30000000E+03</rscale>
<asrwt>0</asrwt>
<pdfrwt beam="1">  1       21 0.37260084E-02 0.30000000E+03</pdfrwt>
<pdfrwt beam="2">0</pdfrwt>
<totfact> 0.47375088E+04</totfact>
</mgrwt>
</event>
<event>
 6    1  0.1284012E-001  0.3000000E+03  0.7818608E-02  0.1093470E+00
         21   -1    0    0  501  502  0.00000000000E+00  0.00000000000E+00  0.55426006535E+01  0.55426006535E+01  0.00000000000E+00 0. -1.
         13   -1    0    0    0    0 -0.00000000000E+00 -0.00000000000E+00 -0.10000000000E+04  0.10000000000E+04  0.00000000000E+00 0.  1.
    9000005    2    1    2  501    0 -0.90380338115E+00  0.45238776393E+02 -0.89637387653E+03  0.89752528168E+03  0.42592228746E+01 0.  0.
         13    1    3    3    0    0  0.13931236667E+01  0.15014780028E+02 -0.27692261061E+03  0.27733286260E+03  0.00000000000E+00 0.  1.
          1    1    3    3  501    0 -0.22969270479E+01  0.30223996365E+02 -0.61945126592E+03  0.62019241908E+03  0.00000000000E+00 0.  1.
         -3    1    1    2    0  502  0.90380338115E+00 -0.45238776393E+02 -0.98083522818E+02  0.10801731898E+03  0.00000000000E+00 0. -1.
<mgrwt>
<rscale>  1 0.30000000E+03</rscale>
<asrwt>0</asrwt>
<pdfrwt beam="1">  1       21 0.20154954E-01 0.30000000E+03</pdfrwt>
<pdfrwt beam="2">0</pdfrwt>
<totfact> 0.23641174E+03</totfact>
</mgrwt>
</event>
<event>
 6    1  0.1284012E-001  0.3000000E+03  0.7818608E-02  0.1093470E+00
         21   -1    0    0  501  502  0.00000000000E+00  0.00000000000E+00  0.87486684260E+01  0.87486684260E+01  0.00000000000E+00 0. -1.
         13   -1    0    0    0    0 -0.00000000000E+00 -0.00000000000E+00 -0.10000000000E+04  0.10000000000E+04  0.00000000000E+00 0.  1.
    9000005    2    1    2  501    0  0.56363448860E+02  0.15856476240E+02 -0.88890914633E+03  0.89084112377E+03  0.31892264105E+01 0.  0.
         13    1    3    3    0    0  0.20922782244E+02  0.47419228416E+01 -0.30934916466E+03  0.31009217069E+03  0.00000000000E+00 0.  1.
          3    1    3    3  501    0  0.35440666616E+02  0.11114553398E+02 -0.57955998167E+03  0.58074895308E+03  0.00000000000E+00 0.  1.
         -3    1    1    2    0  502 -0.56363448860E+02 -0.15856476240E+02 -0.10234218524E+03  0.11790754465E+03  0.00000000000E+00 0. -1.
<mgrwt>
<rscale>  1 0.30000000E+03</rscale>
<asrwt>0</asrwt>
<pdfrwt beam="1">  1       21 0.31813407E-01 0.30000000E+03</pdfrwt>
<pdfrwt beam="2">0</pdfrwt>
<totfact> 0.96631753E+02</totfact>
</mgrwt>
</event>
<event>
 6    1  0.1284012E-001  0.3000000E+03  0.7818608E-02  0.1093470E+00
         21   -1    0    0  501  502  0.00000000000E+00  0.00000000000E+00  0.36352537231E+01  0.36352537231E+01  0.00000000000E+00 0. -1.
         13   -1    0    0    0    0 -0.00000000000E+00 -0.00000000000E+00 -0.10000000000E+04  0.10000000000E+04  0.00000000000E+00 0.  1.
    9000005    2    1    2  501    0  0.24411112623E+02  0.49116666095E+02 -0.70601378066E+03  0.70814915838E+03  0.33797516679E+01 0.  0.
         13    1    3    3    0    0  0.21648000548E+02  0.44616344699E+02 -0.62588420633E+03  0.62784575644E+03  0.00000000000E+00 0.  1.
          3    1    3    3  501    0  0.27631120749E+01  0.45003213960E+01 -0.80129574330E+02  0.80303401941E+02  0.00000000000E+00 0.  1.
         -3    1    1    2    0  502 -0.24411112623E+02 -0.49116666095E+02 -0.29035096561E+03  0.29548609534E+03  0.00000000000E+00 0. -1.
<mgrwt>
<rscale>  1 0.30000000E+03</rscale>
<asrwt>0</asrwt>
<pdfrwt beam="1">  1       21 0.13219132E-01 0.30000000E+03</pdfrwt>
<pdfrwt beam="2">0</pdfrwt>
<totfact> 0.51953869E+03</totfact>
</mgrwt>
</event>
<event>
 6    1  0.1284012E-001  0.3000000E+03  0.7818608E-02  0.1093470E+00
         21   -1    0    0  501  502  0.00000000000E+00  0.00000000000E+00  0.54159683882E+01  0.54159683882E+01  0.00000000000E+00 0. -1.
         13   -1    0    0    0    0 -0.00000000000E+00 -0.00000000000E+00 -0.10000000000E+04  0.10000000000E+04  0.00000000000E+00 0.  1.
    9000005    2    1    2  501    0 -0.70787461138E+02 -0.53579213184E+01 -0.62907885826E+03  0.63308063066E+03  0.33619979808E+01 0.  0.
         13    1    3    3    0    0 -0.47372685458E+02 -0.22396728812E+01 -0.41236885954E+03  0.41508705566E+03  0.00000000000E+00 0.  1.
          3    1    3    3  501    0 -0.23414775680E+02 -0.31182484373E+01 -0.21670999873E+03  0.21799357500E+03  0.00000000000E+00 0.  1.
         -3    1    1    2    0  502  0.70787461138E+02  0.53579213184E+01 -0.36550517335E+03  0.37233533773E+03  0.00000000000E+00 0. -1.
<mgrwt>
<rscale>  1 0.30000000E+03</rscale>
<asrwt>0</asrwt>
<pdfrwt beam="1">  1       21 0.19694472E-01 0.30000000E+03</pdfrwt>
<pdfrwt beam="2">0</pdfrwt>
<totfact> 0.24706930E+03</totfact>
</mgrwt>
</event>
<event>
 6    1  0.1284012E-001  0.3000000E+03  0.7818608E-02  0.1093470E+00
         21   -1    0    0  501  502  0.00000000000E+00  0.00000000000E+00  0.12753960463E+01  0.12753960463E+01  0.00000000000E+00 0. -1.
         13   -1    0    0    0    0 -0.00000000000E+00 -0.00000000000E+00 -0.10000000000E+04  0.10000000000E+04  0.00000000000E+00 0.  1.
    9000005    2    1    2  501    0 -0.32583937121E+02  0.54385713863E+01 -0.68787963020E+03  0.68867998865E+03  0.32326624229E+01 0.  0.
         13    1    3    3    0    0 -0.95912701605E+01  0.88462354953E+00 -0.22812580227E+03  0.22832905352E+03  0.00000000000E+00 0.  1.
          1    1    3    3  501    0 -0.22992666961E+02  0.45539478368E+01 -0.45975382793E+03  0.46035093512E+03  0.00000000000E+00 0.  1.
         -1    1    1    2    0  502  0.32583937121E+02 -0.54385713863E+01 -0.31084497376E+03  0.31259540740E+03  0.00000000000E+00 0. -1.
<mgrwt>
<rscale>  1 0.30000000E+03</rscale>
<asrwt>0</asrwt>
<pdfrwt beam="1">  1       21 0.46378136E-02 0.30000000E+03</pdfrwt>
<pdfrwt beam="2">0</pdfrwt>
<totfact> 0.32737199E+04</totfact>
</mgrwt>
</event>
<event>
 6    1  0.1284012E-001  0.3000000E+03  0.7818608E-02  0.1093470E+00
         21   -1    0    0  501  502  0.00000000000E+00  0.00000000000E+00  0.32249355016E+01  0.32249355016E+01  0.00000000000E+00 0. -1.
         13   -1    0    0    0    0 -0.00000000000E+00 -0.00000000000E+00 -0.10000000000E+04  0.10000000000E+04  0.00000000000E+00 0.  1.
    9000005    2    1    2  501    0 -0.53331655300E+02  0.13833657036E+02 -0.61833452428E+03  0.62079470918E+03  0.35848995203E+01 0.  0.
         13    1    3    3    0    0 -0.49870945837E+02  0.13316938365E+02 -0.58710310526E+03  0.58936788875E+03  0.00000000000E+00 0.  1.
          3    1    3    3  501    0 -0.34607094634E+01  0.51671867102E+00 -0.31231419019E+02  0.31426820427E+02  0.00000000000E+00 0.  1.
         -3    1    1    2    0  502  0.53331655300E+02 -0.13833657036E+02 -0.37844054022E+03  0.38243022632E+03  0.00000000000E+00 0. -1.
<mgrwt>
<rscale>  1 0.30000000E+03</rscale>
<asrwt>0</asrwt>
<pdfrwt beam="1">  1       21 0.11727063E-01 0.30000000E+03</pdfrwt>
<pdfrwt beam="2">0</pdfrwt>
<totfact> 0.64610178E+03</totfact>
</mgrwt>
</event>
<event>
 6    1  0.1284012E-001  0.3000000E+03  0.7818608E-02  0.1093470E+00
         21   -1    0    0  501  502  0.00000000000E+00  0.00000000000E+00  0.13855470412E+01  0.13855470412E+01  0.00000000000E+00 0. -1.
         13   -1    0    0    0    0 -0.00000000000E+00 -0.00000000000E+00 -0.10000000000E+04  0.10000000000E+04  0.00000000000E+00 0.  1.
    9000005    2    1    2  501    0 -0.26835218708E+02 -0.15326636470E+02 -0.77790643239E+03  0.77852445781E+03  0.26228059058E+01 0.  0.
         13    1    3    3    0    0 -0.10153481288E+02 -0.69216469441E+01 -0.32986721260E+03  0.33009601683E+03  0.00000000000E+00 0.  1.
          1    1    3    3  501    0 -0.16681737420E+02 -0.84049895255E+01 -0.44803921979E+03  0.44842844098E+03  0.00000000000E+00 0.  1.
         -3    1    1    2    0  502  0.26835218708E+02  0.15326636470E+02 -0.22070802057E+03  0.22286108923E+03  0.00000000000E+00 0. -1.
<mgrwt>
<rscale>  1 0.30000000E+03</rscale>
<asrwt>0</asrwt>
<pdfrwt beam="1">  1       21 0.50383635E-02 0.30000000E+03</pdfrwt>
<pdfrwt beam="2">0</pdfrwt>
<totfact> 0.28431697E+04</totfact>
</mgrwt>
</event>
<event>
 6    1  0.1284012E-001  0.3000000E+03  0.7818608E-02  0.1093470E+00
         21   -1    0    0  501  502  0.00000000000E+00  0.00000000000E+00  0.13218130083E+01  0.13218130083E+01  0.00000000000E+00 0. -1.
         13   -1    0    0    0    0 -0.00000000000E+00 -0.00000000000E+00 -0.10000000000E+04  0.10000000000E+04  0.00000000000E+00 0.  1.
    9000005    2    1    2  501    0 -0.34697260053E+02 -0.32330920997E+01 -0.63903450027E+03  0.63999379840E+03  0.35520021707E+01 0.  0.
         13    1    3    3    0    0 -0.17969218024E+02 -0.24552984588E+01 -0.36128968344E+03  0.36174460141E+03  0.00000000000E+00 0.  1.
          3    1    3    3  501    0 -0.16728042029E+02 -0.77779364091E+00 -0.27774481683E+03  0.27824919699E+03  0.00000000000E+00 0.  1.
         -3    1    1    2    0  502  0.34697260053E+02  0.32330920997E+01 -0.35964368672E+03  0.36132801461E+03  0.00000000000E+00 0. -1.
<mgrwt>
<rscale>  1 0.30000000E+03</rscale>
<asrwt>0</asrwt>
<pdfrwt beam="1">  1       21 0.48066029E-02 0.30000000E+03</pdfrwt>
<pdfrwt beam="2">0</pdfrwt>
<totfact> 0.30806395E+04</totfact>
</mgrwt>
</event>
<event>
 6    1  0.1284012E-001  0.3000000E+03  0.7818608E-02  0.1093470E+00
         21   -1    0    0  501  502  0.00000000000E+00  0.00000000000E+00  0.11318820810E+01  0.11318820810E+01  0.00000000000E+00 0. -1.
         13   -1    0    0    0    0 -0.00000000000E+00 -0.00000000000E+00 -0.10000000000E+04  0.10000000000E+04  0.00000000000E+00 0.  1.
    9000005    2    1    2  501    0 -0.31032794274E+02  0.11670341059E+02 -0.56598678706E+03  0.56698273975E+03  0.53993394465E+01 0.  0.
         13    1    3    3    0    0 -0.24192875152E+02  0.10947184700E+02 -0.47030203247E+03  0.47105109894E+03  0.00000000000E+00 0.  1.
          3    1    3    3  501    0 -0.68399191213E+01  0.72315635828E+00 -0.95684754588E+02  0.95931640814E+02  0.00000000000E+00 0.  1.
         -3    1    1    2    0  502  0.31032794274E+02 -0.11670341059E+02 -0.43288133086E+03  0.43414914233E+03  0.00000000000E+00 0. -1.
<mgrwt>
<rscale>  1 0.30000000E+03</rscale>
<asrwt>0</asrwt>
<pdfrwt beam="1">  1       21 0.41159435E-02 0.30000000E+03</pdfrwt>
<pdfrwt beam="2">0</pdfrwt>
<totfact> 0.40070505E+04</totfact>
</mgrwt>
</event>
<event>
 6    1  0.1284012E-001  0.3000000E+03  0.7818608E-02  0.1093470E+00
         21   -1    0    0  501  502  0.00000000000E+00  0.00000000000E+00  0.18673686763E+01  0.18673686763E+01  0.00000000000E+00 0. -1.
         13   -1    0    0    0    0 -0.00000000000E+00 -0.00000000000E+00 -0.10000000000E+04  0.10000000000E+04  0.00000000000E+00 0.  1.
    9000005    2    1    2  501    0  0.14328180732E+02  0.40568290671E+02 -0.53767602956E+03  0.53940508365E+03  0.33538820369E+01 0.  0.
         13    1    3    3    0    0  0.11050939197E+02  0.27112566843E+02 -0.35591412897E+03  0.35711634202E+03  0.00000000000E+00 0.  1.
          1    1    3    3  501    0  0.32772415356E+01  0.13455723828E+02 -0.18176190060E+03  0.18228874163E+03  0.00000000000E+00 0.  1.
         -1    1    1    2    0  502 -0.14328180732E+02 -0.40568290671E+02 -0.46045660176E+03  0.46246228503E+03  0.00000000000E+00 0. -1.
<mgrwt>
<rscale>  1 0.30000000E+03</rscale>
<asrwt>0</asrwt>
<pdfrwt beam="1">  1       21 0.67904459E-02 0.30000000E+03</pdfrwt>
<pdfrwt beam="2">0</pdfrwt>
<totfact> 0.17010675E+04</totfact>
</mgrwt>
</event>
<event>
 6    1  0.1284012E-001  0.3000000E+03  0.7818608E-02  0.1093470E+00
         21   -1    0    0  501  502  0.00000000000E+00  0.00000000000E+00  0.44204351160E+01  0.44204351160E+01  0.00000000000E+00 0. -1.
         13   -1    0    0    0    0 -0.00000000000E+00 -0.00000000000E+00 -0.10000000000E+04  0.10000000000E+04  0.00000000000E+00 0.  1.
    9000005    2    1    2  501    0 -0.22005450063E+02 -0.27253604873E+02 -0.92459509039E+03  0.92526366390E+03  0.31253380873E+01 0.  0.
         13    1    3    3    0    0 -0.55370224592E+01 -0.53010516030E+01 -0.18057918231E+03  0.18074180714E+03  0.00000000000E+00 0.  1.
          1    1    3    3  501    0 -0.16468427604E+02 -0.21952553270E+02 -0.74401590808E+03  0.74452185675E+03  0.00000000000E+00 0.  1.
         -1    1    1    2    0  502  0.22005450063E+02  0.27253604873E+02 -0.70984474491E+02  0.79156771219E+02  0.00000000000E+00 0. -1.
<mgrwt>
<rscale>  1 0.30000000E+03</rscale>
<asrwt>0</asrwt>
<pdfrwt beam="1">  1       21 0.16074343E-01 0.30000000E+03</pdfrwt>
<pdfrwt beam="2">0</pdfrwt>
<totfact> 0.36212342E+03</totfact>
</mgrwt>
</event>
<event>
 6    1  0.1284012E-001  0.3000000E+03  0.7818608E-02  0.1093470E+00
         21   -1    0    0  501  502  0.00000000000E+00  0.00000000000E+00  0.25476437829E+01  0.25476437829E+01  0.00000000000E+00 0. -1.
         13   -1    0    0    0    0 -0.00000000000E+00 -0.00000000000E+00 -0.10000000000E+04  0.10000000000E+04  0.00000000000E+00 0.  1.
    9000005    2    1    2  501    0 -0.32206859057E+02 -0.18582992662E+02 -0.83744515346E+03  0.83827678720E+03  0.33132351375E+01 0.  0.
         13    1    3    3    0    0 -0.18704337165E+02 -0.10851227964E+02 -0.44979027917E+03  0.45030977850E+03  0.00000000000E+00 0.  1.
          1    1    3    3  501    0 -0.13502521892E+02 -0.77317646976E+01 -0.38765487429E+03  0.38796700870E+03  0.00000000000E+00 0.  1.
         -3    1    1    2    0  502  0.32206859057E+02  0.18582992662E+02 -0.16000720276E+03  0.16427085658E+03  0.00000000000E+00 0. -1.
<mgrwt>
<rscale>  1 0.30000000E+03</rscale>
<asrwt>0</asrwt>
<pdfrwt beam="1">  1       21 0.92641787E-02 0.30000000E+03</pdfrwt>
<pdfrwt beam="2">0</pdfrwt>
<totfact> 0.98588679E+03</totfact>
</mgrwt>
</event>
<event>
 6    1  0.1284012E-001  0.3000000E+03  0.7818608E-02  0.1093470E+00
         21   -1    0    0  501  502  0.00000000000E+00  0.00000000000E+00  0.37342102731E+01  0.37342102731E+01  0.00000000000E+00 0. -1.
         13   -1    0    0    0    0 -0.00000000000E+00 -0.00000000000E+00 -0.10000000000E+04  0.10000000000E+04  0.00000000000E+00 0.  1.
    9000005    2    1    2  501    0  0.17412131129E+02  0.29056536280E+02 -0.91573102323E+03  0.91636537586E+03  0.38380423048E+01 0.  0.
         13    1    3    3    0    0  0.58921251829E+01  0.81739472698E+01 -0.23254820844E+03  0.23276640609E+03  0.00000000000E+00 0.  1.
          3    1    3    3  501    0  0.11520005946E+02  0.20882589010E+02 -0.68318281478E+03  0.68359896977E+03  0.00000000000E+00 0.  1.
         -1    1    1    2    0  502 -0.17412131129E+02 -0.29056536280E+02 -0.80534766501E+02  0.87368834411E+02  0.00000000000E+00 0. -1.
<mgrwt>
<rscale>  1 0.30000000E+03</rscale>
<asrwt>0</asrwt>
<pdfrwt beam="1">  1       21 0.13578975E-01 0.30000000E+03</pdfrwt>
<pdfrwt beam="2">0</pdfrwt>
<totfact> 0.49461661E+03</totfact>
</mgrwt>
</event>
<event>
 6    1  0.1284012E-001  0.3000000E+03  0.7818608E-02  0.1093470E+00
         21   -1    0    0  501  502  0.00000000000E+00  0.00000000000E+00  0.20217485743E+01  0.20217485743E+01  0.00000000000E+00 0. -1.
         13   -1    0    0    0    0 -0.00000000000E+00 -0.00000000000E+00 -0.10000000000E+04  0.10000000000E+04  0.00000000000E+00 0.  1.
    9000005    2    1    2  501    0  0.15616803801E+02 -0.37654534640E+02 -0.70975510381E+03  0.71093012836E+03  0.27552640086E+01 0.  0.
         13    1    3    3    0    0  0.66326653398E+01 -0.17080879619E+02 -0.29639400045E+03  0.29695984947E+03  0.00000000000E+00 0.  1.
          1    1    3    3  501    0  0.89841384616E+01 -0.20573655021E+02 -0.41336110337E+03  0.41397027889E+03  0.00000000000E+00 0.  1.
         -1    1    1    2    0  502 -0.15616803801E+02  0.37654534640E+02 -0.28822314761E+03  0.29109162022E+03  0.00000000000E+00 0. -1.
<mgrwt>
<rscale>  1 0.30000000E+03</rscale>
<asrwt>0</asrwt>
<pdfrwt beam="1">  1       21 0.73518285E-02 0.30000000E+03</pdfrwt>
<pdfrwt beam="2">0</pdfrwt>
<totfact> 0.14812680E+04</totfact>
</mgrwt>
</event>
<event>
 6    1  0.1284012E-001  0.3000000E+03  0.7818608E-02  0.1093470E+00
         21   -1    0    0  501  502  0.00000000000E+00  0.00000000000E+00  0.20792120623E+01  0.20792120623E+01  0.00000000000E+00 0. -1.
         13   -1    0    0    0    0 -0.00000000000E+00 -0.00000000000E+00 -0.10000000000E+04  0.10000000000E+04  0.00000000000E+00 0.  1.
    9000005    2    1    2  501    0 -0.84761138469E+01 -0.33091699922E+02 -0.83042530750E+03  0.83113582647E+03  0.36967013559E+01 0.  0.
         13    1    3    3    0    0 -0.13286978898E+01 -0.87755488122E+01 -0.24977355448E+03  0.24993119896E+03  0.00000000000E+00 0.  1.
          1    1    3    3  501    0 -0.71474159570E+01 -0.24316151110E+02 -0.58065175302E+03  0.58120462752E+03  0.00000000000E+00 0.  1.
         -1    1    1    2    0  502  0.84761138469E+01  0.33091699922E+02 -0.16749548044E+03  0.17094338559E+03  0.00000000000E+00 0. -1.
<mgrwt>
<rscale>  1 0.30000000E+03</rscale>
<asrwt>0</asrwt>
<pdfrwt beam="1">  1       21 0.75607871E-02 0.30000000E+03</pdfrwt>
<pdfrwt beam="2">0</pdfrwt>
<totfact> 0.14103678E+04</totfact>
</mgrwt>
</event>
<event>
 6    1  0.1284012E-001  0.3000000E+03  0.7818608E-02  0.1093470E+00
         21   -1    0    0  501  502  0.00000000000E+00  0.00000000000E+00  0.13078670614E+01  0.13078670614E+01  0.00000000000E+00 0. -1.
         13   -1    0    0    0    0 -0.00000000000E+00 -0.00000000000E+00 -0.10000000000E+04  0.10000000000E+04  0.00000000000E+00 0.  1.
    9000005    2    1    2  501    0  0.56921321192E+01 -0.32241005697E+02 -0.70798249879E+03  0.70876047910E+03  0.55059353676E+01 0.  0.
         13    1    3    3    0    0  0.66656436289E+01 -0.30024524894E+02 -0.66277432890E+03  0.66348753865E+03  0.00000000000E+00 0.  1.
          3    1    3    3  501    0 -0.97351150968E+00 -0.22164808034E+01 -0.45208169896E+02  0.45272940452E+02  0.00000000000E+00 0.  1.
         -3    1    1    2    0  502 -0.56921321192E+01  0.32241005697E+02 -0.29070963414E+03  0.29254738796E+03  0.00000000000E+00 0. -1.
<mgrwt>
<rscale>  1 0.30000000E+03</rscale>
<asrwt>0</asrwt>
<pdfrwt beam="1">  1       21 0.47558903E-02 0.30000000E+03</pdfrwt>
<pdfrwt beam="2">0</pdfrwt>
<totfact> 0.31367359E+04</totfact>
</mgrwt>
</event>
<event>
 6    1  0.1284012E-001  0.3000000E+03  0.7818608E-02  0.1093470E+00
         21   -1    0    0  501  502  0.00000000000E+00  0.00000000000E+00  0.14156768556E+01  0.14156768556E+01  0.00000000000E+00 0. -1.
         13   -1    0    0    0    0 -0.00000000000E+00 -0.00000000000E+00 -0.10000000000E+04  0.10000000000E+04  0.00000000000E+00 0.  1.
    9000005    2    1    2  501    0 -0.65230729407E+01 -0.31290499363E+02 -0.23815105296E+03  0.24031095066E+03  0.34326594875E+01 0.  0.
         13    1    3    3    0    0 -0.38325624754E+01 -0.14312070331E+02 -0.99135025529E+02  0.10023610716E+03  0.00000000000E+00 0.  1.
          1    1    3    3  501    0 -0.26905104654E+01 -0.16978429032E+02 -0.13901602743E+03  0.14007484350E+03  0.00000000000E+00 0.  1.
         -3    1    1    2    0  502  0.65230729407E+01  0.31290499363E+02 -0.76043327019E+03  0.76110472620E+03  0.00000000000E+00 0. -1.
<mgrwt>
<rscale>  1 0.30000000E+03</rscale>
<asrwt>0</asrwt>
<pdfrwt beam="1">  1       21 0.51479267E-02 0.30000000E+03</pdfrwt>
<pdfrwt beam="2">0</pdfrwt>
<totfact> 0.27406946E+04</totfact>
</mgrwt>
</event>
<event>
 6    1  0.1284012E-001  0.3000000E+03  0.7818608E-02  0.1093470E+00
         21   -1    0    0  501  502  0.00000000000E+00  0.00000000000E+00  0.12246488562E+01  0.12246488562E+01  0.00000000000E+00 0. -1.
         13   -1    0    0    0    0 -0.00000000000E+00 -0.00000000000E+00 -0.10000000000E+04  0.10000000000E+04  0.00000000000E+00 0.  1.
    9000005    2    1    2  501    0  0.31904449334E+02  0.13712962540E+01 -0.68610379853E+03  0.68692658308E+03  0.10484933722E+02 0.  0.
         13    1    3    3    0    0  0.11226434050E+02 -0.89744759676E+00 -0.15140569183E+03  0.15182398279E+03  0.00000000000E+00 0.  1.
          3    1    3    3  501    0  0.20678015284E+02  0.22687438508E+01 -0.53469810671E+03  0.53510260028E+03  0.00000000000E+00 0.  1.
         -3    1    1    2    0  502 -0.31904449334E+02 -0.13712962540E+01 -0.31267155261E+03  0.31429806578E+03  0.00000000000E+00 0. -1.
<mgrwt>
<rscale>  1 0.30000000E+03</rscale>
<asrwt>0</asrwt>
<pdfrwt beam="1">  1       21 0.44532780E-02 0.30000000E+03</pdfrwt>
<pdfrwt beam="2">0</pdfrwt>
<totfact> 0.35073639E+04</totfact>
</mgrwt>
</event>
<event>
 6    1  0.1284012E-001  0.3000000E+03  0.7818608E-02  0.1093470E+00
         21   -1    0    0  501  502  0.00000000000E+00  0.00000000000E+00  0.53723677381E+01  0.53723677381E+01  0.00000000000E+00 0. -1.
         13   -1    0    0    0    0 -0.00000000000E+00 -0.00000000000E+00 -0.10000000000E+04  0.10000000000E+04  0.00000000000E+00 0.  1.
    9000005    2    1    2  501    0  0.25330784240E+02 -0.48730162581E+02 -0.83010039015E+03  0.83192067194E+03  0.30115299579E+01 0.  0.
         13    1    3    3    0    0  0.77582426424E+01 -0.13604870062E+02 -0.25546347997E+03  0.25594310386E+03  0.00000000000E+00 0.  1.
          1    1    3    3  501    0  0.17572541598E+02 -0.35125292519E+02 -0.57463691018E+03  0.57597756808E+03  0.00000000000E+00 0.  1.
         -1    1    1    2    0  502 -0.25330784240E+02  0.48730162581E+02 -0.16452724212E+03  0.17345169579E+03  0.00000000000E+00 0. -1.
<mgrwt>
<rscale>  1 0.30000000E+03</rscale>
<asrwt>0</asrwt>
<pdfrwt beam="1">  1       21 0.19535924E-01 0.30000000E+03</pdfrwt>
<pdfrwt beam="2">0</pdfrwt>
<totfact> 0.25090023E+03</totfact>
</mgrwt>
</event>
<event>
 6    1  0.1284012E-001  0.3000000E+03  0.7818608E-02  0.1093470E+00
         21   -1    0    0  501  502  0.00000000000E+00  0.00000000000E+00  0.12995138176E+01  0.12995138176E+01  0.00000000000E+00 0. -1.
         13   -1    0    0    0    0 -0.00000000000E+00 -0.00000000000E+00 -0.10000000000E+04  0.10000000000E+04  0.00000000000E+00 0.  1.
    9000005    2    1    2  501    0 -0.29478160522E+02  0.12252000599E+02 -0.73066558537E+03  0.73137029806E+03  0.33528752661E+01 0.  0.
         13    1    3    3    0    0 -0.26139252422E+02  0.11512920944E+02 -0.66980410181E+03  0.67041281512E+03  0.00000000000E+00 0.  1.
          3    1    3    3  501    0 -0.33389080999E+01  0.73907965488E+00 -0.60861483553E+02  0.60957482939E+02  0.00000000000E+00 0.  1.
         -1    1    1    2    0  502  0.29478160522E+02 -0.12252000599E+02 -0.26803490082E+03  0.26992921576E+03  0.00000000000E+00 0. -1.
<mgrwt>
<rscale>  1 0.30000000E+03</rscale>
<asrwt>0</asrwt>
<pdfrwt beam="1">  1       21 0.47255148E-02 0.30000000E+03</pdfrwt>
<pdfrwt beam="2">0</pdfrwt>
<totfact> 0.31711056E+04</totfact>
</mgrwt>
</event>
<event>
 6    1  0.1284012E-001  0.3000000E+03  0.7818608E-02  0.1093470E+00
         21   -1    0    0  501  502  0.00000000000E+00  0.00000000000E+00  0.20029629262E+01  0.20029629262E+01  0.00000000000E+00 0. -1.
         13   -1    0    0    0    0 -0.00000000000E+00 -0.00000000000E+00 -0.10000000000E+04  0.10000000000E+04  0.00000000000E+00 0.  1.
    9000005    2    1    2  501    0 -0.78289150350E+00 -0.37736914138E+02 -0.76785098333E+03  0.76878226560E+03  0.25202562132E+01 0.  0.
         13    1    3    3    0    0 -0.86919023839E-01 -0.19688560895E+02 -0.42514051294E+03  0.42559617330E+03  0.00000000000E+00 0.  1.
          3    1    3    3  501    0 -0.69597247966E+00 -0.18048353242E+02 -0.34271047039E+03  0.34318609230E+03  0.00000000000E+00 0.  1.
         -3    1    1    2    0  502  0.78289150350E+00  0.37736914138E+02 -0.23014605374E+03  0.23322069732E+03  0.00000000000E+00 0. -1.
<mgrwt>
<rscale>  1 0.30000000E+03</rscale>
<asrwt>0</asrwt>
<pdfrwt beam="1">  1       21 0.72835169E-02 0.30000000E+03</pdfrwt>
<pdfrwt beam="2">0</pdfrwt>
<totfact> 0.15056260E+04</totfact>
</mgrwt>
</event>
<event>
 6    1  0.1284012E-001  0.3000000E+03  0.7818608E-02  0.1093470E+00
         21   -1    0    0  501  502  0.00000000000E+00  0.00000000000E+00  0.28702026994E+01  0.28702026994E+01  0.00000000000E+00 0. -1.
         13   -1    0    0    0    0 -0.00000000000E+00 -0.00000000000E+00 -0.10000000000E+04  0.10000000000E+04  0.00000000000E+00 0.  1.
    9000005    2    1    2  501    0  0.97910169025E+01  0.38567721304E+02 -0.83409247763E+03  0.83504737724E+03  0.32446669955E+01 0.  0.
         13    1    3    3    0    0  0.62737766766E+01  0.28164389680E+02 -0.57875549117E+03  0.57947434083E+03  0.00000000000E+00 0.  1.
          1    1    3    3  501    0  0.35172402258E+01  0.10403331624E+02 -0.25533698645E+03  0.25557303641E+03  0.00000000000E+00 0.  1.
         -1    1    1    2    0  502 -0.97910169025E+01 -0.38567721304E+02 -0.16303731967E+03  0.16782282546E+03  0.00000000000E+00 0. -1.
<mgrwt>
<rscale>  1 0.30000000E+03</rscale>
<asrwt>0</asrwt>
<pdfrwt beam="1">  1       21 0.10437123E-01 0.30000000E+03</pdfrwt>
<pdfrwt beam="2">0</pdfrwt>
<totfact> 0.79691921E+03</totfact>
</mgrwt>
</event>
<event>
 6    1  0.1284012E-001  0.3000000E+03  0.7818608E-02  0.1093470E+00
         21   -1    0    0  501  502  0.00000000000E+00  0.00000000000E+00  0.98514795594E+00  0.98514795594E+00  0.00000000000E+00 0. -1.
         13   -1    0    0    0    0 -0.00000000000E+00 -0.00000000000E+00 -0.10000000000E+04  0.10000000000E+04  0.00000000000E+00 0.  1.
    9000005    2    1    2  501    0  0.31247287691E+02 -0.11514255144E+01 -0.49545293858E+03  0.49645336555E+03  0.38224399345E+01 0.  0.
         13    1    3    3    0    0  0.18196807911E+02 -0.82611008017E+00 -0.31762712104E+03  0.31814901273E+03  0.00000000000E+00 0.  1.
          3    1    3    3  501    0  0.13050479780E+02 -0.32531543428E+00 -0.17782581754E+03  0.17830435282E+03  0.00000000000E+00 0.  1.
         -1    1    1    2    0  502 -0.31247287691E+02  0.11514255144E+01 -0.50356191346E+03  0.50453178241E+03  0.00000000000E+00 0. -1.
<mgrwt>
<rscale>  1 0.30000000E+03</rscale>
<asrwt>0</asrwt>
<pdfrwt beam="1">  1       21 0.35823638E-02 0.30000000E+03</pdfrwt>
<pdfrwt beam="2">0</pdfrwt>
<totfact> 0.50605330E+04</totfact>
</mgrwt>
</event>
<event>
 6    1  0.1284012E-001  0.3000000E+03  0.7818608E-02  0.1093470E+00
         21   -1    0    0  501  502  0.00000000000E+00  0.00000000000E+00  0.20666723772E+01  0.20666723772E+01  0.00000000000E+00 0. -1.
         13   -1    0    0    0    0 -0.00000000000E+00 -0.00000000000E+00 -0.10000000000E+04  0.10000000000E+04  0.00000000000E+00 0.  1.
    9000005    2    1    2  501    0 -0.34015183292E+02 -0.22467067827E+02 -0.71985237430E+03  0.72101361968E+03  0.33759655148E+01 0.  0.
         13    1    3    3    0    0 -0.55395805038E+01 -0.43442949544E+01 -0.10537190242E+03  0.10560680693E+03  0.00000000000E+00 0.  1.
          3    1    3    3  501    0 -0.28475602789E+02 -0.18122772873E+02 -0.61448047188E+03  0.61540681275E+03  0.00000000000E+00 0.  1.
         -1    1    1    2    0  502  0.34015183292E+02  0.22467067827E+02 -0.27808095332E+03  0.28105305270E+03  0.00000000000E+00 0. -1.
<mgrwt>
<rscale>  1 0.30000000E+03</rscale>
<asrwt>0</asrwt>
<pdfrwt beam="1">  1       21 0.75151881E-02 0.30000000E+03</pdfrwt>
<pdfrwt beam="2">0</pdfrwt>
<totfact> 0.14253883E+04</totfact>
</mgrwt>
</event>
<event>
 6    1  0.1284012E-001  0.3000000E+03  0.7818608E-02  0.1093470E+00
         21   -1    0    0  501  502  0.00000000000E+00  0.00000000000E+00  0.64457500800E+01  0.64457500800E+01  0.00000000000E+00 0. -1.
         13   -1    0    0    0    0 -0.00000000000E+00 -0.00000000000E+00 -0.10000000000E+04  0.10000000000E+04  0.00000000000E+00 0.  1.
    9000005    2    1    2  501    0 -0.61321450057E+02  0.15385736940E+01 -0.82128459577E+03  0.82358098807E+03  0.38169628190E+01 0.  0.
         13    1    3    3    0    0 -0.23942729146E+02 -0.11297288640E+01 -0.32965422494E+03  0.33052449015E+03  0.00000000000E+00 0.  1.
          3    1    3    3  501    0 -0.37378720911E+02  0.26683025579E+01 -0.49163037083E+03  0.49305649792E+03  0.00000000000E+00 0.  1.
         -3    1    1    2    0  502  0.61321450057E+02 -0.15385736940E+01 -0.17226965415E+03  0.18286476201E+03  0.00000000000E+00 0. -1.
<mgrwt>
<rscale>  1 0.30000000E+03</rscale>
<asrwt>0</asrwt>
<pdfrwt beam="1">  1       21 0.23439141E-01 0.30000000E+03</pdfrwt>
<pdfrwt beam="2">0</pdfrwt>
<totfact> 0.17682910E+03</totfact>
</mgrwt>
</event>
<event>
 6    1  0.1284012E-001  0.3000000E+03  0.7818608E-02  0.1093470E+00
         21   -1    0    0  501  502  0.00000000000E+00  0.00000000000E+00  0.12185130565E+01  0.12185130565E+01  0.00000000000E+00 0. -1.
         13   -1    0    0    0    0 -0.00000000000E+00 -0.00000000000E+00 -0.10000000000E+04  0.10000000000E+04  0.00000000000E+00 0.  1.
    9000005    2    1    2  501    0 -0.26205981165E+02 -0.18827897663E+02 -0.68778241059E+03  0.68854988867E+03  0.38809405489E+01 0.  0.
         13    1    3    3    0    0 -0.17276722167E+02 -0.11383746044E+02 -0.47453907630E+03  0.47498990488E+03  0.00000000000E+00 0.  1.
          1    1    3    3  501    0 -0.89292589973E+01 -0.74441516197E+01 -0.21324333429E+03  0.21355998379E+03  0.00000000000E+00 0.  1.
         -1    1    1    2    0  502  0.26205981165E+02  0.18827897663E+02 -0.31099907636E+03  0.31266862438E+03  0.00000000000E+00 0. -1.
<mgrwt>
<rscale>  1 0.30000000E+03</rscale>
<asrwt>0</asrwt>
<pdfrwt beam="1">  1       21 0.44309659E-02 0.30000000E+03</pdfrwt>
<pdfrwt beam="2">0</pdfrwt>
<totfact> 0.35373554E+04</totfact>
</mgrwt>
</event>
<event>
 6    1  0.1284012E-001  0.3000000E+03  0.7818608E-02  0.1093470E+00
         21   -1    0    0  501  502  0.00000000000E+00  0.00000000000E+00  0.31168608394E+01  0.31168608394E+01  0.00000000000E+00 0. -1.
         13   -1    0    0    0    0 -0.00000000000E+00 -0.00000000000E+00 -0.10000000000E+04  0.10000000000E+04  0.00000000000E+00 0.  1.
    9000005    2    1    2  501    0  0.68938420539E+00  0.40862220603E+02 -0.83994137553E+03  0.84094129704E+03  0.32487553601E+01 0.  0.
         13    1    3    3    0    0  0.74021926578E+00  0.22661356070E+02 -0.49794695148E+03  0.49846288876E+03  0.00000000000E+00 0.  1.
          3    1    3    3  501    0 -0.50835060391E-01  0.18200864533E+02 -0.34199442405E+03  0.34247840828E+03  0.00000000000E+00 0.  1.
         -1    1    1    2    0  502 -0.68938420539E+00 -0.40862220603E+02 -0.15694176363E+03  0.16217556380E+03  0.00000000000E+00 0. -1.
<mgrwt>
<rscale>  1 0.30000000E+03</rscale>
<asrwt>0</asrwt>
<pdfrwt beam="1">  1       21 0.11334063E-01 0.30000000E+03</pdfrwt>
<pdfrwt beam="2">0</pdfrwt>
<totfact> 0.68715078E+03</totfact>
</mgrwt>
</event>
<event>
 6    1  0.1284012E-001  0.3000000E+03  0.7818608E-02  0.1093470E+00
         21   -1    0    0  501  502  0.00000000000E+00  0.00000000000E+00  0.41080644700E+01  0.41080644700E+01  0.00000000000E+00 0. -1.
         13   -1    0    0    0    0 -0.00000000000E+00 -0.00000000000E+00 -0.10000000000E+04  0.10000000000E+04  0.00000000000E+00 0.  1.
    9000005    2    1    2  501    0  0.32527010473E+02  0.38543078474E+02 -0.80757940452E+03  0.80915887970E+03  0.31658612554E+01 0.  0.
         13    1    3    3    0    0  0.65651321695E+00  0.14637405151E+01 -0.20866661074E+02  0.20928236674E+02  0.00000000000E+00 0.  1.
          1    1    3    3  501    0  0.31870497256E+02  0.37079337959E+02 -0.78671274345E+03  0.78823064303E+03  0.00000000000E+00 0.  1.
         -3    1    1    2    0  502 -0.32527010473E+02 -0.38543078474E+02 -0.18831253101E+03  0.19494918477E+03  0.00000000000E+00 0. -1.
<mgrwt>
<rscale>  1 0.30000000E+03</rscale>
<asrwt>0</asrwt>
<pdfrwt beam="1">  1       21 0.14938448E-01 0.30000000E+03</pdfrwt>
<pdfrwt beam="2">0</pdfrwt>
<totfact> 0.41494891E+03</totfact>
</mgrwt>
</event>
<event>
 6    1  0.1284012E-001  0.3000000E+03  0.7818608E-02  0.1093470E+00
         21   -1    0    0  501  502  0.00000000000E+00  0.00000000000E+00  0.14226706954E+01  0.14226706954E+01  0.00000000000E+00 0. -1.
         13   -1    0    0    0    0 -0.00000000000E+00 -0.00000000000E+00 -0.10000000000E+04  0.10000000000E+04  0.00000000000E+00 0.  1.
    9000005    2    1    2  501    0 -0.34410270939E+02 -0.12159673278E+02 -0.62285678142E+03  0.62393379072E+03  0.32985821936E+01 0.  0.
         13    1    3    3    0    0 -0.34372016989E+02 -0.12005932235E+02 -0.62182009424E+03  0.62288506770E+03  0.00000000000E+00 0.  1.
          3    1    3    3  501    0 -0.38253949771E-01 -0.15374104325E+00 -0.10366871764E+01  0.10487230210E+01  0.00000000000E+00 0.  1.
         -1    1    1    2    0  502  0.34410270939E+02  0.12159673278E+02 -0.37572054788E+03  0.37748887997E+03  0.00000000000E+00 0. -1.
<mgrwt>
<rscale>  1 0.30000000E+03</rscale>
<asrwt>0</asrwt>
<pdfrwt beam="1">  1       21 0.51733589E-02 0.30000000E+03</pdfrwt>
<pdfrwt beam="2">0</pdfrwt>
<totfact> 0.27177279E+04</totfact>
</mgrwt>
</event>
<event>
 6    1  0.1284012E-001  0.3000000E+03  0.7818608E-02  0.1093470E+00
         21   -1    0    0  501  502  0.00000000000E+00  0.00000000000E+00  0.74252887044E+01  0.74252887044E+01  0.00000000000E+00 0. -1.
         13   -1    0    0    0    0 -0.00000000000E+00 -0.00000000000E+00 -0.10000000000E+04  0.10000000000E+04  0.00000000000E+00 0.  1.
    9000005    2    1    2  501    0 -0.41919021341E+02  0.24267683878E+02 -0.91284630542E+03  0.91413679244E+03  0.34019334816E+01 0.  0.
         13    1    3    3    0    0 -0.22970771258E+00 -0.48103712128E-01 -0.22004175141E+01  0.22128978370E+01  0.00000000000E+00 0.  1.
          1    1    3    3  501    0 -0.41689313628E+02  0.24315787590E+02 -0.91064588790E+03  0.91192389461E+03  0.00000000000E+00 0.  1.
         -3    1    1    2    0  502  0.41919021341E+02 -0.24267683878E+02 -0.79728405878E+02  0.93288496262E+02  0.00000000000E+00 0. -1.
<mgrwt>
<rscale>  1 0.30000000E+03</rscale>
<asrwt>0</asrwt>
<pdfrwt beam="1">  1       21 0.27001107E-01 0.30000000E+03</pdfrwt>
<pdfrwt beam="2">0</pdfrwt>
<totfact> 0.13403690E+03</totfact>
</mgrwt>
</event>
<event>
 6    1  0.1284012E-001  0.3000000E+03  0.7818608E-02  0.1093470E+00
         21   -1    0    0  501  502  0.00000000000E+00  0.00000000000E+00  0.20985365317E+01  0.20985365317E+01  0.00000000000E+00 0. -1.
         13   -1    0    0    0    0 -0.00000000000E+00 -0.00000000000E+00 -0.10000000000E+04  0.10000000000E+04  0.00000000000E+00 0.  1.
    9000005    2    1    2  501    0 -0.11956074237E+02  0.28870272473E+02 -0.86507830403E+03  0.86564916120E+03  0.33996835043E+01 0.  0.
         13    1    3    3    0    0 -0.10520139907E+02  0.27345482231E+02 -0.79569341375E+03  0.79623266539E+03  0.00000000000E+00 0.  1.
          3    1    3    3  501    0 -0.14359343302E+01  0.15247902422E+01 -0.69384890276E+02  0.69416495815E+02  0.00000000000E+00 0.  1.
         -1    1    1    2    0  502  0.11956074237E+02 -0.28870272473E+02 -0.13282315944E+03  0.13644937533E+03  0.00000000000E+00 0. -1.
<mgrwt>
<rscale>  1 0.30000000E+03</rscale>
<asrwt>0</asrwt>
<pdfrwt beam="1">  1       21 0.76310580E-02 0.30000000E+03</pdfrwt>
<pdfrwt beam="2">0</pdfrwt>
<totfact> 0.13876947E+04</totfact>
</mgrwt>
</event>
<event>
 6    1  0.1284012E-001  0.3000000E+03  0.7818608E-02  0.1093470E+00
         21   -1    0    0  501  502  0.00000000000E+00  0.00000000000E+00  0.25920956020E+01  0.25920956020E+01  0.00000000000E+00 0. -1.
         13   -1    0    0    0    0 -0.00000000000E+00 -0.00000000000E+00 -0.10000000000E+04  0.10000000000E+04  0.00000000000E+00 0.  1.
    9000005    2    1    2  501    0  0.26587902472E+02 -0.33111635335E+02 -0.77474692169E+03  0.77591785761E+03  0.35259218170E+01 0.  0.
         13    1    3    3    0    0  0.18639541661E+02 -0.20760287702E+02 -0.51962323732E+03  0.52037172369E+03  0.00000000000E+00 0.  1.
          1    1    3    3  501    0  0.79483608111E+01 -0.12351347633E+02 -0.25512368438E+03  0.25554613391E+03  0.00000000000E+00 0.  1.
         -3    1    1    2    0  502 -0.26587902472E+02  0.33111635335E+02 -0.22266098270E+03  0.22667423800E+03  0.00000000000E+00 0. -1.
<mgrwt>
<rscale>  1 0.30000000E+03</rscale>
<asrwt>0</asrwt>
<pdfrwt beam="1">  1       21 0.94258221E-02 0.30000000E+03</pdfrwt>
<pdfrwt beam="2">0</pdfrwt>
<totfact> 0.95602367E+03</totfact>
</mgrwt>
</event>
<event>
 6    1  0.1284012E-001  0.3000000E+03  0.7818608E-02  0.1093470E+00
         21   -1    0    0  501  502  0.00000000000E+00  0.00000000000E+00  0.32382740536E+01  0.32382740536E+01  0.00000000000E+00 0. -1.
         13   -1    0    0    0    0 -0.00000000000E+00 -0.00000000000E+00 -0.10000000000E+04  0.10000000000E+04  0.00000000000E+00 0.  1.
    9000005    2    1    2  501    0 -0.32689064531E+02 -0.56515559798E+01 -0.90582245297E+03  0.90643710467E+03  0.36596980609E+01 0.  0.
         13    1    3    3    0    0 -0.40036011323E+01 -0.19275566452E+01 -0.12638727880E+03  0.12646536498E+03  0.00000000000E+00 0.  1.
          3    1    3    3  501    0 -0.28685463399E+02 -0.37239993346E+01 -0.77943517417E+03  0.77997173969E+03  0.00000000000E+00 0.  1.
         -3    1    1    2    0  502  0.32689064531E+02  0.56515559798E+01 -0.90939272979E+02  0.96801169388E+02  0.00000000000E+00 0. -1.
<mgrwt>
<rscale>  1 0.30000000E+03</rscale>
<asrwt>0</asrwt>
<pdfrwt beam="1">  1       21 0.11775567E-01 0.30000000E+03</pdfrwt>
<pdfrwt beam="2">0</pdfrwt>
<totfact> 0.64129110E+03</totfact>
</mgrwt>
</event>
<event>
 6    1  0.1284012E-001  0.3000000E+03  0.7818608E-02  0.1093470E+00
         21   -1    0    0  501  502  0.00000000000E+00  0.00000000000E+00  0.48975078447E+01  0.48975078447E+01  0.00000000000E+00 0. -1.
         13   -1    0    0    0    0 -0.00000000000E+00 -0.00000000000E+00 -0.10000000000E+04  0.10000000000E+04  0.00000000000E+00 0.  1.
    9000005    2    1    2  501    0  0.46385609346E+02  0.20837330407E+02 -0.84261344323E+03  0.84415321048E+03  0.33777152448E+01 0.  0.
         13    1    3    3    0    0  0.42163316354E+02  0.18809704160E+02 -0.77964188909E+03  0.78100769871E+03  0.00000000000E+00 0.  1.
          3    1    3    3  501    0  0.42222929920E+01  0.20276262473E+01 -0.62971554137E+02  0.63145511770E+02  0.00000000000E+00 0.  1.
         -1    1    1    2    0  502 -0.46385609346E+02 -0.20837330407E+02 -0.15248904892E+03  0.16074429736E+03  0.00000000000E+00 0. -1.
<mgrwt>
<rscale>  1 0.30000000E+03</rscale>
<asrwt>0</asrwt>
<pdfrwt beam="1">  1       21 0.17809157E-01 0.30000000E+03</pdfrwt>
<pdfrwt beam="2">0</pdfrwt>
<totfact> 0.29889243E+03</totfact>
</mgrwt>
</event>
<event>
 6    1  0.1284012E-001  0.3000000E+03  0.7818608E-02  0.1093470E+00
         21   -1    0    0  501  502  0.00000000000E+00  0.00000000000E+00  0.34144418721E+01  0.34144418721E+01  0.00000000000E+00 0. -1.
         13   -1    0    0    0    0 -0.00000000000E+00 -0.00000000000E+00 -0.10000000000E+04  0.10000000000E+04  0.00000000000E+00 0.  1.
    9000005    2    1    2  501    0 -0.53727190151E+02 -0.15224840937E+02 -0.64362945239E+03  0.64606808423E+03  0.51663074443E+01 0.  0.
         13    1    3    3    0    0 -0.31265536293E+02 -0.11413997638E+02 -0.37479172928E+03  0.37626673178E+03  0.00000000000E+00 0.  1.
          3    1    3    3  501    0 -0.22461653858E+02 -0.38108432987E+01 -0.26883772311E+03  0.26980135246E+03  0.00000000000E+00 0.  1.
         -3    1    1    2    0  502  0.53727190151E+02  0.15224840937E+02 -0.35295610574E+03  0.35734635764E+03  0.00000000000E+00 0. -1.
<mgrwt>
<rscale>  1 0.30000000E+03</rscale>
<asrwt>0</asrwt>
<pdfrwt beam="1">  1       21 0.12416178E-01 0.30000000E+03</pdfrwt>
<pdfrwt beam="2">0</pdfrwt>
<totfact> 0.58246236E+03</totfact>
</mgrwt>
</event>
<event>
 6    1  0.1284012E-001  0.3000000E+03  0.7818608E-02  0.1093470E+00
         21   -1    0    0  501  502  0.00000000000E+00  0.00000000000E+00  0.16177001727E+02  0.16177001727E+02  0.00000000000E+00 0. -1.
         13   -1    0    0    0    0 -0.00000000000E+00 -0.00000000000E+00 -0.10000000000E+04  0.10000000000E+04  0.00000000000E+00 0.  1.
    9000005    2    1    2  501    0  0.16565346175E+02 -0.38093303304E+02 -0.97212890029E+03  0.97302306357E+03  0.37112023923E+01 0.  0.
         13    1    3    3    0    0  0.43137572005E+01 -0.14336331075E+02 -0.34306239504E+03  0.34338891331E+03  0.00000000000E+00 0.  1.
          3    1    3    3  501    0  0.12251588974E+02 -0.23756972229E+02 -0.62906650524E+03  0.62963415026E+03  0.00000000000E+00 0.  1.
         -3    1    1    2    0  502 -0.16565346175E+02  0.38093303304E+02 -0.11694097988E+02  0.43153938155E+02  0.00000000000E+00 0. -1.
<mgrwt>
<rscale>  1 0.30000000E+03</rscale>
<asrwt>0</asrwt>
<pdfrwt beam="1">  1       21 0.58825585E-01 0.30000000E+03</pdfrwt>
<pdfrwt beam="2">0</pdfrwt>
<totfact> 0.26249993E+02</totfact>
</mgrwt>
</event>
<event>
 6    1  0.1284012E-001  0.3000000E+03  0.7818608E-02  0.1093470E+00
         21   -1    0    0  501  502  0.00000000000E+00  0.00000000000E+00  0.12844809320E+01  0.12844809320E+01  0.00000000000E+00 0. -1.
         13   -1    0    0    0    0 -0.00000000000E+00 -0.00000000000E+00 -0.10000000000E+04  0.10000000000E+04  0.00000000000E+00 0.  1.
    9000005    2    1    2  501    0  0.15804356008E+02  0.25683952950E+02 -0.76800229673E+03  0.76860866769E+03  0.47236799144E+01 0.  0.
         13    1    3    3    0    0  0.31008564851E+01  0.80342673711E+01 -0.25588677035E+03  0.25603164649E+03  0.00000000000E+00 0.  1.
          3    1    3    3  501    0  0.12703499523E+02  0.17649685579E+02 -0.51211552638E+03  0.51257702120E+03  0.00000000000E+00 0.  1.
         -3    1    1    2    0  502 -0.15804356008E+02 -0.25683952950E+02 -0.23071322233E+03  0.23267581324E+03  0.00000000000E+00 0. -1.
<mgrwt>
<rscale>  1 0.30000000E+03</rscale>
<asrwt>0</asrwt>
<pdfrwt beam="1">  1       21 0.46708496E-02 0.30000000E+03</pdfrwt>
<pdfrwt beam="2">0</pdfrwt>
<totfact> 0.32344633E+04</totfact>
</mgrwt>
</event>
<event>
 6    1  0.1284012E-001  0.3000000E+03  0.7818608E-02  0.1093470E+00
         21   -1    0    0  501  502  0.00000000000E+00  0.00000000000E+00  0.13559996143E+02  0.13559996143E+02  0.00000000000E+00 0. -1.
         13   -1    0    0    0    0 -0.00000000000E+00 -0.00000000000E+00 -0.10000000000E+04  0.10000000000E+04  0.00000000000E+00 0.  1.
    9000005    2    1    2  501    0  0.50039662282E+02 -0.59365043370E+02 -0.87087060287E+03  0.87433190048E+03  0.35339908009E+01 0.  0.
         13    1    3    3    0    0  0.14004513936E+02 -0.14284873680E+02 -0.22827185548E+03  0.22914673036E+03  0.00000000000E+00 0.  1.
          1    1    3    3  501    0  0.36035148346E+02 -0.45080169690E+02 -0.64259874738E+03  0.64518517013E+03  0.00000000000E+00 0.  1.
         -3    1    1    2    0  502 -0.50039662282E+02  0.59365043370E+02 -0.11556940099E+03  0.13922809566E+03  0.00000000000E+00 0. -1.
<mgrwt>
<rscale>  1 0.30000000E+03</rscale>
<asrwt>0</asrwt>
<pdfrwt beam="1">  1       21 0.49309181E-01 0.30000000E+03</pdfrwt>
<pdfrwt beam="2">0</pdfrwt>
<totfact> 0.38721357E+02</totfact>
</mgrwt>
</event>
<event>
 6    1  0.1284012E-001  0.3000000E+03  0.7818608E-02  0.1093470E+00
         21   -1    0    0  501  502  0.00000000000E+00  0.00000000000E+00  0.11608977235E+01  0.11608977235E+01  0.00000000000E+00 0. -1.
         13   -1    0    0    0    0 -0.00000000000E+00 -0.00000000000E+00 -0.10000000000E+04  0.10000000000E+04  0.00000000000E+00 0.  1.
    9000005    2    1    2  501    0  0.62264739997E+01 -0.29571115736E+02 -0.72690531239E+03  0.72755313842E+03  0.53866680160E+01 0.  0.
         13    1    3    3    0    0  0.59519391911E+01 -0.15935880589E+02 -0.42327992080E+03  0.42362161090E+03  0.00000000000E+00 0.  1.
          1    1    3    3  501    0  0.27453480862E+00 -0.13635235146E+02 -0.30362539158E+03  0.30393152752E+03  0.00000000000E+00 0.  1.
         -3    1    1    2    0  502 -0.62264739997E+01  0.29571115736E+02 -0.27193378989E+03  0.27360775930E+03  0.00000000000E+00 0. -1.
<mgrwt>
<rscale>  1 0.30000000E+03</rscale>
<asrwt>0</asrwt>
<pdfrwt beam="1">  1       21 0.42214552E-02 0.30000000E+03</pdfrwt>
<pdfrwt beam="2">0</pdfrwt>
<totfact> 0.38394624E+04</totfact>
</mgrwt>
</event>
<event>
 6    1  0.1284012E-001  0.3000000E+03  0.7818608E-02  0.1093470E+00
         21   -1    0    0  501  502  0.00000000000E+00  0.00000000000E+00  0.18047236643E+01  0.18047236643E+01  0.00000000000E+00 0. -1.
         13   -1    0    0    0    0 -0.00000000000E+00 -0.00000000000E+00 -0.10000000000E+04  0.10000000000E+04  0.00000000000E+00 0.  1.
    9000005    2    1    2  501    0 -0.58897414873E+01  0.32108560853E+02 -0.81916641451E+03  0.81982400462E+03  0.34835565486E+01 0.  0.
         13    1    3    3    0    0 -0.17653657642E+01  0.18916726229E+02 -0.48371802352E+03  0.48409098869E+03  0.00000000000E+00 0.  1.
          3    1    3    3  501    0 -0.41243757231E+01  0.13191834625E+02 -0.33544839098E+03  0.33573301593E+03  0.00000000000E+00 0.  1.
         -1    1    1    2    0  502  0.58897414873E+01 -0.32108560853E+02 -0.17902886183E+03  0.18198071904E+03  0.00000000000E+00 0. -1.
<mgrwt>
<rscale>  1 0.30000000E+03</rscale>
<asrwt>0</asrwt>
<pdfrwt beam="1">  1       21 0.65626453E-02 0.30000000E+03</pdfrwt>
<pdfrwt beam="2">0</pdfrwt>
<totfact> 0.18047740E+04</totfact>
</mgrwt>
</event>
<event>
 6    1  0.1284012E-001  0.3000000E+03  0.7818608E-02  0.1093470E+00
         21   -1    0    0  501  502  0.00000000000E+00  0.00000000000E+00  0.19176877090E+01  0.19176877090E+01  0.00000000000E+00 0. -1.
         13   -1    0    0    0    0 -0.00000000000E+00 -0.00000000000E+00 -0.10000000000E+04  0.10000000000E+04  0.00000000000E+00 0.  1.
    9000005    2    1    2  501    0  0.41696864483E+02 -0.14133309119E+00 -0.65062511236E+03  0.65196747087E+03  0.31460697240E+01 0.  0.
         13    1    3    3    0    0  0.18680879604E+02 -0.69501270609E+00 -0.26939798025E+03  0.27004579254E+03  0.00000000000E+00 0.  1.
          3    1    3    3  501    0  0.23015984878E+02  0.55367961490E+00 -0.38122713211E+03  0.38192167833E+03  0.00000000000E+00 0.  1.
         -3    1    1    2    0  502 -0.41696864483E+02  0.14133309119E+00 -0.34745719993E+03  0.34995021684E+03  0.00000000000E+00 0. -1.
<mgrwt>
<rscale>  1 0.30000000E+03</rscale>
<asrwt>0</asrwt>
<pdfrwt beam="1">  1       21 0.69734246E-02 0.30000000E+03</pdfrwt>
<pdfrwt beam="2">0</pdfrwt>
<totfact> 0.16242436E+04</totfact>
</mgrwt>
</event>
<event>
 6    1  0.1284012E-001  0.3000000E+03  0.7818608E-02  0.1093470E+00
         21   -1    0    0  501  502  0.00000000000E+00  0.00000000000E+00  0.14925469454E+01  0.14925469454E+01  0.00000000000E+00 0. -1.
         13   -1    0    0    0    0 -0.00000000000E+00 -0.00000000000E+00 -0.10000000000E+04  0.10000000000E+04  0.00000000000E+00 0.  1.
    9000005    2    1    2  501    0  0.34592040858E+02 -0.15878978286E+01 -0.72021750400E+03  0.72105641080E+03  0.31565456549E+01 0.  0.
         13    1    3    3    0    0  0.32630668641E+01  0.76748408877E+00 -0.66907540476E+02  0.66991459229E+02  0.00000000000E+00 0.  1.
          1    1    3    3  501    0  0.31328973994E+02 -0.23553819174E+01 -0.65330996352E+03  0.65406495157E+03  0.00000000000E+00 0.  1.
         -3    1    1    2    0  502 -0.34592040858E+02  0.15878978286E+01 -0.27828994906E+03  0.28043613615E+03  0.00000000000E+00 0. -1.
<mgrwt>
<rscale>  1 0.30000000E+03</rscale>
<asrwt>0</asrwt>
<pdfrwt beam="1">  1       21 0.54274549E-02 0.30000000E+03</pdfrwt>
<pdfrwt beam="2">0</pdfrwt>
<totfact> 0.25037471E+04</totfact>
</mgrwt>
</event>
<event>
 6    1  0.1284012E-001  0.3000000E+03  0.7818608E-02  0.1093470E+00
         21   -1    0    0  501  502  0.00000000000E+00  0.00000000000E+00  0.83880290431E+01  0.83880290431E+01  0.00000000000E+00 0. -1.
         13   -1    0    0    0    0 -0.00000000000E+00 -0.00000000000E+00 -0.10000000000E+04  0.10000000000E+04  0.00000000000E+00 0.  1.
    9000005    2    1    2  501    0 -0.68794058609E+02  0.56314775013E+01 -0.82709326243E+03  0.82997630999E+03  0.36158477381E+01 0.  0.
         13    1    3    3    0    0 -0.54552951345E+02  0.33728820124E+01 -0.66599138795E+03  0.66823044652E+03  0.00000000000E+00 0.  1.
          3    1    3    3  501    0 -0.14241107264E+02  0.22585954889E+01 -0.16110187448E+03  0.16174586347E+03  0.00000000000E+00 0.  1.
         -3    1    1    2    0  502  0.68794058609E+02 -0.56314775013E+01 -0.16451870853E+03  0.17841171905E+03  0.00000000000E+00 0. -1.
<mgrwt>
<rscale>  1 0.30000000E+03</rscale>
<asrwt>0</asrwt>
<pdfrwt beam="1">  1       21 0.30501988E-01 0.30000000E+03</pdfrwt>
<pdfrwt beam="2">0</pdfrwt>
<totfact> 0.10517354E+03</totfact>
</mgrwt>
</event>
<event>
 6    1  0.1284012E-001  0.3000000E+03  0.7818608E-02  0.1093470E+00
         21   -1    0    0  501  502  0.00000000000E+00  0.00000000000E+00  0.17165967929E+01  0.17165967929E+01  0.00000000000E+00 0. -1.
         13   -1    0    0    0    0 -0.00000000000E+00 -0.00000000000E+00 -0.10000000000E+04  0.10000000000E+04  0.00000000000E+00 0.  1.
    9000005    2    1    2  501    0 -0.14227166170E+02 -0.38500120778E+02 -0.44740651083E+03  0.44931273900E+03  0.49678900191E+01 0.  0.
         13    1    3    3    0    0 -0.97391897938E+00 -0.73792982576E+01 -0.91678288904E+02  0.91979950084E+02  0.00000000000E+00 0.  1.
          1    1    3    3  501    0 -0.13253247191E+02 -0.31120822520E+02 -0.35572822193E+03  0.35733278891E+03  0.00000000000E+00 0.  1.
         -3    1    1    2    0  502  0.14227166170E+02  0.38500120778E+02 -0.55087689237E+03  0.55240385780E+03  0.00000000000E+00 0. -1.
<mgrwt>
<rscale>  1 0.30000000E+03</rscale>
<asrwt>0</asrwt>
<pdfrwt beam="1">  1       21 0.62421833E-02 0.30000000E+03</pdfrwt>
<pdfrwt beam="2">0</pdfrwt>
<totfact> 0.19680473E+04</totfact>
</mgrwt>
</event>
<event>
 6    1  0.1284012E-001  0.3000000E+03  0.7818608E-02  0.1093470E+00
         21   -1    0    0  501  502  0.00000000000E+00  0.00000000000E+00  0.97963842240E+00  0.97963842240E+00  0.00000000000E+00 0. -1.
         13   -1    0    0    0    0 -0.00000000000E+00 -0.00000000000E+00 -0.10000000000E+04  0.10000000000E+04  0.00000000000E+00 0.  1.
    9000005    2    1    2  501    0  0.10218834480E+02  0.29445826944E+02 -0.53210278051E+03  0.53302290024E+03  0.29260636861E+01 0.  0.
         13    1    3    3    0    0  0.52221106034E+01  0.16546681152E+02 -0.27253882908E+03  0.27309060118E+03  0.00000000000E+00 0.  1.
          1    1    3    3  501    0  0.49967238764E+01  0.12899145792E+02 -0.25956395143E+03  0.25993229906E+03  0.00000000000E+00 0.  1.
         -3    1    1    2    0  502 -0.10218834480E+02 -0.29445826944E+02 -0.46691758107E+03  0.46795673819E+03  0.00000000000E+00 0. -1.
<mgrwt>
<rscale>  1 0.30000000E+03</rscale>
<asrwt>0</asrwt>
<pdfrwt beam="1">  1       21 0.35623290E-02 0.30000000E+03</pdfrwt>
<pdfrwt beam="2">0</pdfrwt>
<totfact> 0.51083399E+04</totfact>
</mgrwt>
</event>
<event>
 6    1  0.1284012E-001  0.3000000E+03  0.7818608E-02  0.1093470E+00
         21   -1    0    0  501  502  0.00000000000E+00  0.00000000000E+00  0.16695167017E+01  0.16695167017E+01  0.00000000000E+00 0. -1.
         13   -1    0    0    0    0 -0.00000000000E+00 -0.00000000000E+00 -0.10000000000E+04  0.10000000000E+04  0.00000000000E+00 0.  1.
    9000005    2    1    2  501    0 -0.17037654013E+02 -0.26295248773E+02 -0.82040101071E+03  0.82100236701E+03  0.23122498732E+01 0.  0.
         13    1    3    3    0    0 -0.28240934471E+01 -0.50555457845E+01 -0.13141894136E+03  0.13154646402E+03  0.00000000000E+00 0.  1.
          3    1    3    3  501    0 -0.14213560566E+02 -0.21239702988E+02 -0.68898206934E+03  0.68945590299E+03  0.00000000000E+00 0.  1.
         -3    1    1    2    0  502  0.17037654013E+02  0.26295248773E+02 -0.17792947259E+03  0.18066714969E+03  0.00000000000E+00 0. -1.
<mgrwt>
<rscale>  1 0.30000000E+03</rscale>
<asrwt>0</asrwt>
<pdfrwt beam="1">  1       21 0.60709826E-02 0.30000000E+03</pdfrwt>
<pdfrwt beam="2">0</pdfrwt>
<totfact> 0.20648464E+04</totfact>
</mgrwt>
</event>
<event>
 6    1  0.1284012E-001  0.3000000E+03  0.7818608E-02  0.1093470E+00
         21   -1    0    0  501  502  0.00000000000E+00  0.00000000000E+00  0.40096877269E+01  0.40096877269E+01  0.00000000000E+00 0. -1.
         13   -1    0    0    0    0 -0.00000000000E+00 -0.00000000000E+00 -0.10000000000E+04  0.10000000000E+04  0.00000000000E+00 0.  1.
    9000005    2    1    2  501    0  0.21825279174E+02 -0.34400018938E+02 -0.88219663628E+03  0.88314321259E+03  0.33652312726E+01 0.  0.
         13    1    3    3    0    0  0.19135269129E+02 -0.27870418315E+02 -0.72256657372E+03  0.72335701572E+03  0.00000000000E+00 0.  1.
          3    1    3    3  501    0  0.26900100452E+01 -0.65296006223E+01 -0.15963006256E+03  0.15978619687E+03  0.00000000000E+00 0.  1.
         -3    1    1    2    0  502 -0.21825279174E+02  0.34400018938E+02 -0.11379367600E+03  0.12086647513E+03  0.00000000000E+00 0. -1.
<mgrwt>
<rscale>  1 0.30000000E+03</rscale>
<asrwt>0</asrwt>
<pdfrwt beam="1">  1       21 0.14580713E-01 0.30000000E+03</pdfrwt>
<pdfrwt beam="2">0</pdfrwt>
<totfact> 0.43395208E+03</totfact>
</mgrwt>
</event>
<event>
 6    1  0.1284012E-001  0.3000000E+03  0.7818608E-02  0.1093470E+00
         21   -1    0    0  501  502  0.00000000000E+00  0.00000000000E+00  0.15248319647E+01  0.15248319647E+01  0.00000000000E+00 0. -1.
         13   -1    0    0    0    0 -0.00000000000E+00 -0.00000000000E+00 -0.10000000000E+04  0.10000000000E+04  0.00000000000E+00 0.  1.
    9000005    2    1    2  501    0  0.22072915048E+02 -0.20799712014E+02 -0.81098710904E+03  0.81159954701E+03  0.85960503731E+01 0.  0.
         13    1    3    3    0    0  0.12794338472E+02 -0.17306784328E+02 -0.52643345753E+03  0.52687323437E+03  0.00000000000E+00 0.  1.
          1    1    3    3  501    0  0.92785765764E+01 -0.34929276856E+01 -0.28455365151E+03  0.28472631264E+03  0.00000000000E+00 0.  1.
         -3    1    1    2    0  502 -0.22072915048E+02  0.20799712014E+02 -0.18748805900E+03  0.18992528495E+03  0.00000000000E+00 0. -1.
<mgrwt>
<rscale>  1 0.30000000E+03</rscale>
<asrwt>0</asrwt>
<pdfrwt beam="1">  1       21 0.55448552E-02 0.30000000E+03</pdfrwt>
<pdfrwt beam="2">0</pdfrwt>
<totfact> 0.24135551E+04</totfact>
</mgrwt>
</event>
<event>
 6    1  0.1284012E-001  0.3000000E+03  0.7818608E-02  0.1093470E+00
         21   -1    0    0  501  502  0.00000000000E+00  0.00000000000E+00  0.50538535538E+01  0.50538535538E+01  0.00000000000E+00 0. -1.
         13   -1    0    0    0    0 -0.00000000000E+00 -0.00000000000E+00 -0.10000000000E+04  0.10000000000E+04  0.00000000000E+00 0.  1.
    9000005    2    1    2  501    0  0.37695211417E+02 -0.25689337439E+02 -0.88284059781E+03  0.88402276227E+03  0.28021512830E+01 0.  0.
         13    1    3    3    0    0  0.95845342109E+01 -0.59479415947E+01 -0.24039933064E+03  0.24066383085E+03  0.00000000000E+00 0.  1.
          3    1    3    3  501    0  0.28110677206E+02 -0.19741395845E+02 -0.64244126717E+03  0.64335893142E+03  0.00000000000E+00 0.  1.
         -1    1    1    2    0  502 -0.37695211417E+02  0.25689337439E+02 -0.11210554863E+03  0.12103109128E+03  0.00000000000E+00 0. -1.
<mgrwt>
<rscale>  1 0.30000000E+03</rscale>
<asrwt>0</asrwt>
<pdfrwt beam="1">  1       21 0.18377688E-01 0.30000000E+03</pdfrwt>
<pdfrwt beam="2">0</pdfrwt>
<totfact> 0.28170631E+03</totfact>
</mgrwt>
</event>
<event>
 6    1  0.1284012E-001  0.3000000E+03  0.7818608E-02  0.1093470E+00
         21   -1    0    0  501  502  0.00000000000E+00  0.00000000000E+00  0.28856929343E+01  0.28856929343E+01  0.00000000000E+00 0. -1.
         13   -1    0    0    0    0 -0.00000000000E+00 -0.00000000000E+00 -0.10000000000E+04  0.10000000000E+04  0.00000000000E+00 0.  1.
    9000005    2    1    2  501    0 -0.48521073400E+02  0.22899308436E+02 -0.47541827616E+03  0.47843796288E+03  0.12938825697E+01 0.  0.
         13    1    3    3    0    0 -0.27830266280E+02  0.12872499509E+02 -0.26637262938E+03  0.26813168900E+03  0.00000000000E+00 0.  1.
          1    1    3    3  501    0 -0.20690807120E+02  0.10026808927E+02 -0.20904564678E+03  0.21030627388E+03  0.00000000000E+00 0.  1.
         -3    1    1    2    0  502  0.48521073400E+02 -0.22899308436E+02 -0.52169603091E+03  0.52444773005E+03  0.00000000000E+00 0. -1.
<mgrwt>
<rscale>  1 0.30000000E+03</rscale>
<asrwt>0</asrwt>
<pdfrwt beam="1">  1       21 0.10493451E-01 0.30000000E+03</pdfrwt>
<pdfrwt beam="2">0</pdfrwt>
<totfact> 0.78926908E+03</totfact>
</mgrwt>
</event>
<event>
 6    1  0.1284012E-001  0.3000000E+03  0.7818608E-02  0.1093470E+00
         21   -1    0    0  501  502  0.00000000000E+00  0.00000000000E+00  0.18782063262E+01  0.18782063262E+01  0.00000000000E+00 0. -1.
         13   -1    0    0    0    0 -0.00000000000E+00 -0.00000000000E+00 -0.10000000000E+04  0.10000000000E+04  0.00000000000E+00 0.  1.
    9000005    2    1    2  501    0  0.31725898693E+02 -0.19379590560E+02 -0.75595195163E+03  0.75687140321E+03  0.29776910973E+01 0.  0.
         13    1    3    3    0    0  0.12809483045E+02 -0.95183600447E+01 -0.31774255724E+03  0.31814307272E+03  0.00000000000E+00 0.  1.
          3    1    3    3  501    0  0.18916415648E+02 -0.98612305157E+01 -0.43820939439E+03  0.43872833050E+03  0.00000000000E+00 0.  1.
         -3    1    1    2    0  502 -0.31725898693E+02  0.19379590560E+02 -0.24216984204E+03  0.24500680311E+03  0.00000000000E+00 0. -1.
<mgrwt>
<rscale>  1 0.30000000E+03</rscale>
<asrwt>0</asrwt>
<pdfrwt beam="1">  1       21 0.68298556E-02 0.30000000E+03</pdfrwt>
<pdfrwt beam="2">0</pdfrwt>
<totfact> 0.16840574E+04</totfact>
</mgrwt>
</event>
<event>
 6    1  0.1284012E-001  0.3000000E+03  0.7818608E-02  0.1093470E+00
         21   -1    0    0  501  502  0.00000000000E+00  0.00000000000E+00  0.28160705864E+01  0.28160705864E+01  0.00000000000E+00 0. -1.
         13   -1    0    0    0    0 -0.00000000000E+00 -0.00000000000E+00 -0.10000000000E+04  0.10000000000E+04  0.00000000000E+00 0.  1.
    9000005    2    1    2  501    0  0.28629311433E+02 -0.40170330100E+02 -0.31422451939E+03  0.31807754484E+03  0.17271525387E+01 0.  0.
         13    1    3    3    0    0  0.69928422335E+01 -0.10955650024E+02 -0.85168470267E+02  0.86154480079E+02  0.00000000000E+00 0.  1.
          1    1    3    3  501    0  0.21636469199E+02 -0.29214680076E+02 -0.22905604912E+03  0.23192306476E+03  0.00000000000E+00 0.  1.
         -1    1    1    2    0  502 -0.28629311433E+02  0.40170330100E+02 -0.68295941003E+03  0.68473852574E+03  0.00000000000E+00 0. -1.
<mgrwt>
<rscale>  1 0.30000000E+03</rscale>
<asrwt>0</asrwt>
<pdfrwt beam="1">  1       21 0.10240278E-01 0.30000000E+03</pdfrwt>
<pdfrwt beam="2">0</pdfrwt>
<totfact> 0.82455768E+03</totfact>
</mgrwt>
</event>
<event>
 6    1  0.1284012E-001  0.3000000E+03  0.7818608E-02  0.1093470E+00
         21   -1    0    0  501  502  0.00000000000E+00  0.00000000000E+00  0.91230413799E+00  0.91230413799E+00  0.00000000000E+00 0. -1.
         13   -1    0    0    0    0 -0.00000000000E+00 -0.00000000000E+00 -0.10000000000E+04  0.10000000000E+04  0.00000000000E+00 0.  1.
    9000005    2    1    2  501    0 -0.29923084564E+02 -0.34313255057E+01 -0.49454742883E+03  0.49547383504E+03  0.31617819455E+01 0.  0.
         13    1    3    3    0    0 -0.19493206831E+02 -0.19433807724E+01 -0.34503363644E+03  0.34558931135E+03  0.00000000000E+00 0.  1.
          3    1    3    3  501    0 -0.10429877734E+02 -0.14879447333E+01 -0.14951379239E+03  0.14988452369E+03  0.00000000000E+00 0.  1.
         -1    1    1    2    0  502  0.29923084564E+02  0.34313255057E+01 -0.50454026703E+03  0.50543846910E+03  0.00000000000E+00 0. -1.
<mgrwt>
<rscale>  1 0.30000000E+03</rscale>
<asrwt>0</asrwt>
<pdfrwt beam="1">  1       21 0.33174766E-02 0.30000000E+03</pdfrwt>
<pdfrwt beam="2">0</pdfrwt>
<totfact> 0.57544210E+04</totfact>
</mgrwt>
</event>
<event>
 6    1  0.1284012E-001  0.3000000E+03  0.7818608E-02  0.1093470E+00
         21   -1    0    0  501  502  0.00000000000E+00  0.00000000000E+00  0.54598768371E+01  0.54598768371E+01  0.00000000000E+00 0. -1.
         13   -1    0    0    0    0 -0.00000000000E+00 -0.00000000000E+00 -0.10000000000E+04  0.10000000000E+04  0.00000000000E+00 0.  1.
    9000005    2    1    2  501    0  0.38822298030E+02  0.31305534961E+02 -0.86812213717E+03  0.86956022811E+03  0.34260633560E+01 0.  0.
         13    1    3    3    0    0  0.16390263349E+02  0.12608464830E+02 -0.33202897454E+03  0.33267229228E+03  0.00000000000E+00 0.  1.
          1    1    3    3  501    0  0.22432034681E+02  0.18697070131E+02 -0.53609316263E+03  0.53688793583E+03  0.00000000000E+00 0.  1.
         -3    1    1    2    0  502 -0.38822298030E+02 -0.31305534961E+02 -0.12641798599E+03  0.13589964873E+03  0.00000000000E+00 0. -1.
<mgrwt>
<rscale>  1 0.30000000E+03</rscale>
<asrwt>0</asrwt>
<pdfrwt beam="1">  1       21 0.19854139E-01 0.30000000E+03</pdfrwt>
<pdfrwt beam="2">0</pdfrwt>
<totfact> 0.24329642E+03</totfact>
</mgrwt>
</event>
<event>
 6    1  0.1284012E-001  0.3000000E+03  0.7818608E-02  0.1093470E+00
         21   -1    0    0  501  502  0.00000000000E+00  0.00000000000E+00  0.97458205474E+00  0.97458205474E+00  0.00000000000E+00 0. -1.
         13   -1    0    0    0    0 -0.00000000000E+00 -0.00000000000E+00 -0.10000000000E+04  0.10000000000E+04  0.00000000000E+00 0.  1.
    9000005    2    1    2  501    0  0.11102175281E+02  0.28852674152E+02 -0.46488811548E+03  0.46594337457E+03  0.51510470791E+01 0.  0.
         13    1    3    3    0    0  0.95565077384E+01  0.18005782517E+02 -0.30261095950E+03  0.30329676532E+03  0.00000000000E+00 0.  1.
          1    1    3    3  501    0  0.15456675426E+01  0.10846891635E+02 -0.16227715598E+03  0.16264660925E+03  0.00000000000E+00 0.  1.
         -3    1    1    2    0  502 -0.11102175281E+02 -0.28852674152E+02 -0.53413730246E+03  0.53503120749E+03  0.00000000000E+00 0. -1.
<mgrwt>
<rscale>  1 0.30000000E+03</rscale>
<asrwt>0</asrwt>
<pdfrwt beam="1">  1       21 0.35439422E-02 0.30000000E+03</pdfrwt>
<pdfrwt beam="2">0</pdfrwt>
<totfact> 0.51528447E+04</totfact>
</mgrwt>
</event>
<event>
 6    1  0.1284012E-001  0.3000000E+03  0.7818608E-02  0.1093470E+00
         21   -1    0    0  501  502  0.00000000000E+00  0.00000000000E+00  0.40222074901E+01  0.40222074901E+01  0.00000000000E+00 0. -1.
         13   -1    0    0    0    0 -0.00000000000E+00 -0.00000000000E+00 -0.10000000000E+04  0.10000000000E+04  0.00000000000E+00 0.  1.
    9000005    2    1    2  501    0 -0.23306628867E+02  0.41889860101E+02 -0.82650362737E+03  0.82789880763E+03  0.31984825810E+01 0.  0.
         13    1    3    3    0    0 -0.27149011809E+01  0.69768296540E+01 -0.11964397777E+03  0.11987797236E+03  0.00000000000E+00 0.  1.
          3    1    3    3  501    0 -0.20591727686E+02  0.34913030447E+02 -0.70685964960E+03  0.70802083527E+03  0.00000000000E+00 0.  1.
         -3    1    1    2    0  502  0.23306628867E+02 -0.41889860101E+02 -0.16947416514E+03  0.17612339986E+03  0.00000000000E+00 0. -1.
<mgrwt>
<rscale>  1 0.30000000E+03</rscale>
<asrwt>0</asrwt>
<pdfrwt beam="1">  1       21 0.14626240E-01 0.30000000E+03</pdfrwt>
<pdfrwt beam="2">0</pdfrwt>
<totfact> 0.43146293E+03</totfact>
</mgrwt>
</event>
<event>
 6    1  0.1284012E-001  0.3000000E+03  0.7818608E-02  0.1093470E+00
         21   -1    0    0  501  502  0.00000000000E+00  0.00000000000E+00  0.43120517548E+01  0.43120517548E+01  0.00000000000E+00 0. -1.
         13   -1    0    0    0    0 -0.00000000000E+00 -0.00000000000E+00 -0.10000000000E+04  0.10000000000E+04  0.00000000000E+00 0.  1.
    9000005    2    1    2  501    0  0.31951417336E+02 -0.39993543002E+02 -0.81219995793E+03  0.81381738216E+03  0.30956911177E+01 0.  0.
         13    1    3    3    0    0  0.24034216116E+02 -0.28124404751E+02 -0.59638928689E+03  0.59753561166E+03  0.00000000000E+00 0.  1.
          3    1    3    3  501    0  0.79172012200E+01 -0.11869138251E+02 -0.21581067104E+03  0.21628177050E+03  0.00000000000E+00 0.  1.
         -3    1    1    2    0  502 -0.31951417336E+02  0.39993543002E+02 -0.18348799032E+03  0.19049466959E+03  0.00000000000E+00 0. -1.
<mgrwt>
<rscale>  1 0.30000000E+03</rscale>
<asrwt>0</asrwt>
<pdfrwt beam="1">  1       21 0.15680221E-01 0.30000000E+03</pdfrwt>
<pdfrwt beam="2">0</pdfrwt>
<totfact> 0.37926311E+03</totfact>
</mgrwt>
</event>
<event>
 6    1  0.1284012E-001  0.3000000E+03  0.7818608E-02  0.1093470E+00
         21   -1    0    0  501  502  0.00000000000E+00  0.00000000000E+00  0.30370414115E+01  0.30370414115E+01  0.00000000000E+00 0. -1.
         13   -1    0    0    0    0 -0.00000000000E+00 -0.00000000000E+00 -0.10000000000E+04  0.10000000000E+04  0.00000000000E+00 0.  1.
    9000005    2    1    2  501    0  0.42985340252E+01 -0.44661601631E+02 -0.78925314361E+03  0.79053644543E+03  0.37697209956E+01 0.  0.
         13    1    3    3    0    0  0.41342634313E+01 -0.35748606960E+02 -0.60775380286E+03  0.60881831438E+03  0.00000000000E+00 0.  1.
          1    1    3    3  501    0  0.16427059388E+00 -0.89129946707E+01 -0.18149934075E+03  0.18171813105E+03  0.00000000000E+00 0.  1.
         -1    1    1    2    0  502 -0.42985340252E+01  0.44661601631E+02 -0.20770981498E+03  0.21250059598E+03  0.00000000000E+00 0. -1.
<mgrwt>
<rscale>  1 0.30000000E+03</rscale>
<asrwt>0</asrwt>
<pdfrwt beam="1">  1       21 0.11043810E-01 0.30000000E+03</pdfrwt>
<pdfrwt beam="2">0</pdfrwt>
<totfact> 0.72003378E+03</totfact>
</mgrwt>
</event>
<event>
 6    1  0.1284012E-001  0.3000000E+03  0.7818608E-02  0.1093470E+00
         21   -1    0    0  501  502  0.00000000000E+00  0.00000000000E+00  0.21313262524E+01  0.21313262524E+01  0.00000000000E+00 0. -1.
         13   -1    0    0    0    0 -0.00000000000E+00 -0.00000000000E+00 -0.10000000000E+04  0.10000000000E+04  0.00000000000E+00 0.  1.
    9000005    2    1    2  501    0  0.24824056361E+01  0.36327250203E+02 -0.80499925628E+03  0.80585487928E+03  0.72424021961E+01 0.  0.
         13    1    3    3    0    0 -0.12648540300E+01  0.27166272241E+02 -0.57512638021E+03  0.57576901568E+03  0.00000000000E+00 0.  1.
          1    1    3    3  501    0  0.37472596660E+01  0.91609779625E+01 -0.22987287607E+03  0.23008586360E+03  0.00000000000E+00 0.  1.
         -1    1    1    2    0  502 -0.24824056361E+01 -0.36327250203E+02 -0.19286941746E+03  0.19627644698E+03  0.00000000000E+00 0. -1.
<mgrwt>
<rscale>  1 0.30000000E+03</rscale>
<asrwt>0</asrwt>
<pdfrwt beam="1">  1       21 0.77502936E-02 0.30000000E+03</pdfrwt>
<pdfrwt beam="2">0</pdfrwt>
<totfact> 0.13504897E+04</totfact>
</mgrwt>
</event>
<event>
 6    1  0.1284012E-001  0.3000000E+03  0.7818608E-02  0.1093470E+00
         21   -1    0    0  501  502  0.00000000000E+00  0.00000000000E+00  0.11671572503E+01  0.11671572503E+01  0.00000000000E+00 0. -1.
         13   -1    0    0    0    0 -0.00000000000E+00 -0.00000000000E+00 -0.10000000000E+04  0.10000000000E+04  0.00000000000E+00 0.  1.
    9000005    2    1    2  501    0 -0.29812620255E+02 -0.13242461015E+02 -0.64348564038E+03  0.64432575084E+03  0.42129222728E+01 0.  0.
         13    1    3    3    0    0 -0.71610136022E+01 -0.16790821804E+01 -0.12402493099E+03  0.12424283859E+03  0.00000000000E+00 0.  1.
          3    1    3    3  501    0 -0.22651606653E+02 -0.11563378835E+02 -0.51946070939E+03  0.52008291225E+03  0.00000000000E+00 0.  1.
         -1    1    1    2    0  502  0.29812620255E+02  0.13242461015E+02 -0.35534720237E+03  0.35684140641E+03  0.00000000000E+00 0. -1.
<mgrwt>
<rscale>  1 0.30000000E+03</rscale>
<asrwt>0</asrwt>
<pdfrwt beam="1">  1       21 0.42442171E-02 0.30000000E+03</pdfrwt>
<pdfrwt beam="2">0</pdfrwt>
<totfact> 0.38047386E+04</totfact>
</mgrwt>
</event>
<event>
 6    1  0.1284012E-001  0.3000000E+03  0.7818608E-02  0.1093470E+00
         21   -1    0    0  501  502  0.00000000000E+00  0.00000000000E+00  0.42887869559E+01  0.42887869559E+01  0.00000000000E+00 0. -1.
         13   -1    0    0    0    0 -0.00000000000E+00 -0.00000000000E+00 -0.10000000000E+04  0.10000000000E+04  0.00000000000E+00 0.  1.
    9000005    2    1    2  501    0 -0.27349608069E+02 -0.58441648640E+02 -0.58202492758E+03  0.58560063315E+03  0.34143612085E+01 0.  0.
         13    1    3    3    0    0 -0.60697108251E+01 -0.12878386489E+02 -0.11603947378E+03  0.11690959628E+03  0.00000000000E+00 0.  1.
          3    1    3    3  501    0 -0.21279897244E+02 -0.45563262151E+02 -0.46598545380E+03  0.46869103686E+03  0.00000000000E+00 0.  1.
         -3    1    1    2    0  502  0.27349608069E+02  0.58441648640E+02 -0.41368628547E+03  0.41868815381E+03  0.00000000000E+00 0. -1.
<mgrwt>
<rscale>  1 0.30000000E+03</rscale>
<asrwt>0</asrwt>
<pdfrwt beam="1">  1       21 0.15595622E-01 0.30000000E+03</pdfrwt>
<pdfrwt beam="2">0</pdfrwt>
<totfact> 0.38310033E+03</totfact>
</mgrwt>
</event>
<event>
 6    1  0.1284012E-001  0.3000000E+03  0.7818608E-02  0.1093470E+00
         21   -1    0    0  501  502  0.00000000000E+00  0.00000000000E+00  0.11426132629E+01  0.11426132629E+01  0.00000000000E+00 0. -1.
         13   -1    0    0    0    0 -0.00000000000E+00 -0.00000000000E+00 -0.10000000000E+04  0.10000000000E+04  0.00000000000E+00 0.  1.
    9000005    2    1    2  501    0  0.30481689305E+02  0.11407602594E+02 -0.37079815137E+03  0.37224065755E+03  0.35456012111E+01 0.  0.
         13    1    3    3    0    0  0.87650387498E+01  0.48449214914E+01 -0.12192199154E+03  0.12233262521E+03  0.00000000000E+00 0.  1.
          1    1    3    3  501    0  0.21716650556E+02  0.65626811031E+01 -0.24887615983E+03  0.24990803234E+03  0.00000000000E+00 0.  1.
         -1    1    1    2    0  502 -0.30481689305E+02 -0.11407602594E+02 -0.62805923536E+03  0.62890195572E+03  0.00000000000E+00 0. -1.
<mgrwt>
<rscale>  1 0.30000000E+03</rscale>
<asrwt>0</asrwt>
<pdfrwt beam="1">  1       21 0.41549661E-02 0.30000000E+03</pdfrwt>
<pdfrwt beam="2">0</pdfrwt>
<totfact> 0.39437653E+04</totfact>
</mgrwt>
</event>
<event>
 6    1  0.1284012E-001  0.3000000E+03  0.7818608E-02  0.1093470E+00
         21   -1    0    0  501  502  0.00000000000E+00  0.00000000000E+00  0.15370287324E+01  0.15370287324E+01  0.00000000000E+00 0. -1.
         13   -1    0    0    0    0 -0.00000000000E+00 -0.00000000000E+00 -0.10000000000E+04  0.10000000000E+04  0.00000000000E+00 0.  1.
    9000005    2    1    2  501    0  0.80098286271E+01  0.33359890852E+02 -0.74073517988E+03  0.74153577080E+03  0.31069267242E+01 0.  0.
         13    1    3    3    0    0  0.38641053038E+01  0.22345269392E+02 -0.49188161978E+03  0.49240407214E+03  0.00000000000E+00 0.  1.
          3    1    3    3  501    0  0.41457233233E+01  0.11014621460E+02 -0.24885356010E+03  0.24913169867E+03  0.00000000000E+00 0.  1.
         -1    1    1    2    0  502 -0.80098286271E+01 -0.33359890852E+02 -0.25772779139E+03  0.26000125793E+03  0.00000000000E+00 0. -1.
<mgrwt>
<rscale>  1 0.30000000E+03</rscale>
<asrwt>0</asrwt>
<pdfrwt beam="1">  1       21 0.55892072E-02 0.30000000E+03</pdfrwt>
<pdfrwt beam="2">0</pdfrwt>
<totfact> 0.23807786E+04</totfact>
</mgrwt>
</event>
<event>
 6    1  0.1284012E-001  0.3000000E+03  0.7818608E-02  0.1093470E+00
         21   -1    0    0  501  502  0.00000000000E+00  0.00000000000E+00  0.32532793090E+01  0.32532793090E+01  0.00000000000E+00 0. -1.
         13   -1    0    0    0    0 -0.00000000000E+00 -0.00000000000E+00 -0.10000000000E+04  0.10000000000E+04  0.00000000000E+00 0.  1.
    9000005    2    1    2  501    0  0.49166979525E+02 -0.16166430594E+02 -0.70753497751E+03  0.70944691834E+03  0.55172623852E+01 0.  0.
         13    1    3    3    0    0  0.19119303403E+02 -0.90885988283E+01 -0.29476452141E+03  0.29552372742E+03  0.00000000000E+00 0.  1.
          3    1    3    3  501    0  0.30047676122E+02 -0.70778317655E+01 -0.41277045610E+03  0.41392319091E+03  0.00000000000E+00 0.  1.
         -3    1    1    2    0  502 -0.49166979525E+02  0.16166430594E+02 -0.28921174318E+03  0.29380636097E+03  0.00000000000E+00 0. -1.
<mgrwt>
<rscale>  1 0.30000000E+03</rscale>
<asrwt>0</asrwt>
<pdfrwt beam="1">  1       21 0.11830132E-01 0.30000000E+03</pdfrwt>
<pdfrwt beam="2">0</pdfrwt>
<totfact> 0.63594291E+03</totfact>
</mgrwt>
</event>
<event>
 6    1  0.1284012E-001  0.3000000E+03  0.7818608E-02  0.1093470E+00
         21   -1    0    0  501  502  0.00000000000E+00  0.00000000000E+00  0.11790668620E+01  0.11790668620E+01  0.00000000000E+00 0. -1.
         13   -1    0    0    0    0 -0.00000000000E+00 -0.00000000000E+00 -0.10000000000E+04  0.10000000000E+04  0.00000000000E+00 0.  1.
    9000005    2    1    2  501    0 -0.18741554095E+01 -0.34208845136E+02 -0.49089980321E+03  0.49210379563E+03  0.31259152376E+01 0.  0.
         13    1    3    3    0    0 -0.91016949042E+00 -0.31692040770E+02 -0.45090198433E+03  0.45201527997E+03  0.00000000000E+00 0.  1.
          1    1    3    3  501    0 -0.96398591912E+00 -0.25168043658E+01 -0.39997818875E+02  0.40088515660E+02  0.00000000000E+00 0.  1.
         -1    1    1    2    0  502  0.18741554095E+01  0.34208845136E+02 -0.50792112993E+03  0.50907527123E+03  0.00000000000E+00 0. -1.
<mgrwt>
<rscale>  1 0.30000000E+03</rscale>
<asrwt>0</asrwt>
<pdfrwt beam="1">  1       21 0.42875249E-02 0.30000000E+03</pdfrwt>
<pdfrwt beam="2">0</pdfrwt>
<totfact> 0.37400046E+04</totfact>
</mgrwt>
</event>
<event>
 6    1  0.1284012E-001  0.3000000E+03  0.7818608E-02  0.1093470E+00
         21   -1    0    0  501  502  0.00000000000E+00  0.00000000000E+00  0.33136490156E+01  0.33136490156E+01  0.00000000000E+00 0. -1.
         13   -1    0    0    0    0 -0.00000000000E+00 -0.00000000000E+00 -0.10000000000E+04  0.10000000000E+04  0.00000000000E+00 0.  1.
    9000005    2    1    2  501    0  0.88174976033E+01 -0.54245546992E+02 -0.35121824125E+03  0.35551012300E+03  0.35870513297E+01 0.  0.
         13    1    3    3    0    0  0.70168504254E+01 -0.42022400658E+02 -0.26225750219E+03  0.26569553214E+03  0.00000000000E+00 0.  1.
          1    1    3    3  501    0  0.18006471780E+01 -0.12223146333E+02 -0.88960739061E+02  0.89814590857E+02  0.00000000000E+00 0.  1.
         -3    1    1    2    0  502 -0.88174976033E+01  0.54245546992E+02 -0.64546810974E+03  0.64780352602E+03  0.00000000000E+00 0. -1.
<mgrwt>
<rscale>  1 0.30000000E+03</rscale>
<asrwt>0</asrwt>
<pdfrwt beam="1">  1       21 0.12049658E-01 0.30000000E+03</pdfrwt>
<pdfrwt beam="2">0</pdfrwt>
<totfact> 0.61508351E+03</totfact>
</mgrwt>
</event>
<event>
 6    1  0.1284012E-001  0.3000000E+03  0.7818608E-02  0.1093470E+00
         21   -1    0    0  501  502  0.00000000000E+00  0.00000000000E+00  0.15255598817E+01  0.15255598817E+01  0.00000000000E+00 0. -1.
         13   -1    0    0    0    0 -0.00000000000E+00 -0.00000000000E+00 -0.10000000000E+04  0.10000000000E+04  0.00000000000E+00 0.  1.
    9000005    2    1    2  501    0  0.55453399283E+01  0.34816419812E+02 -0.71345263221E+03  0.71433160997E+03  0.34722772491E+01 0.  0.
         13    1    3    3    0    0  0.37960915545E+00  0.43314504956E+01 -0.68052979525E+02  0.68191741353E+02  0.00000000000E+00 0.  1.
          1    1    3    3  501    0  0.51657307728E+01  0.30484969316E+02 -0.64539965268E+03  0.64613986861E+03  0.00000000000E+00 0.  1.
         -1    1    1    2    0  502 -0.55453399283E+01 -0.34816419812E+02 -0.28502180791E+03  0.28719394992E+03  0.00000000000E+00 0. -1.
<mgrwt>
<rscale>  1 0.30000000E+03</rscale>
<asrwt>0</asrwt>
<pdfrwt beam="1">  1       21 0.55475022E-02 0.30000000E+03</pdfrwt>
<pdfrwt beam="2">0</pdfrwt>
<totfact> 0.24115796E+04</totfact>
</mgrwt>
</event>
<event>
 6    1  0.1284012E-001  0.3000000E+03  0.7818608E-02  0.1093470E+00
         21   -1    0    0  501  502  0.00000000000E+00  0.00000000000E+00  0.46083345709E+01  0.46083345709E+01  0.00000000000E+00 0. -1.
         13   -1    0    0    0    0 -0.00000000000E+00 -0.00000000000E+00 -0.10000000000E+04  0.10000000000E+04  0.00000000000E+00 0.  1.
    9000005    2    1    2  501    0  0.25500796638E+02  0.22071554301E+02 -0.93357801570E+03  0.93419263014E+03  0.32426317042E+01 0.  0.
         13    1    3    3    0    0  0.97933293894E+01  0.64954229469E+01 -0.31376646986E+03  0.31398646058E+03  0.00000000000E+00 0.  1.
          3    1    3    3  501    0  0.15707467248E+02  0.15576131354E+02 -0.61981154584E+03  0.62020616955E+03  0.00000000000E+00 0.  1.
         -3    1    1    2    0  502 -0.25500796638E+02 -0.22071554301E+02 -0.61813649725E+02  0.70415704433E+02  0.00000000000E+00 0. -1.
<mgrwt>
<rscale>  1 0.30000000E+03</rscale>
<asrwt>0</asrwt>
<pdfrwt beam="1">  1       21 0.16757616E-01 0.30000000E+03</pdfrwt>
<pdfrwt beam="2">0</pdfrwt>
<totfact> 0.33503788E+03</totfact>
</mgrwt>
</event>
<event>
 6    1  0.1284012E-001  0.3000000E+03  0.7818608E-02  0.1093470E+00
         21   -1    0    0  501  502  0.00000000000E+00  0.00000000000E+00  0.12718866249E+01  0.12718866249E+01  0.00000000000E+00 0. -1.
         13   -1    0    0    0    0 -0.00000000000E+00 -0.00000000000E+00 -0.10000000000E+04  0.10000000000E+04  0.00000000000E+00 0.  1.
    9000005    2    1    2  501    0  0.15789922989E+02  0.31840234142E+02 -0.52871924161E+03  0.52992120855E+03  0.30542839794E+01 0.  0.
         13    1    3    3    0    0  0.72659414959E+01  0.11899085802E+02 -0.21969324206E+03  0.22013519199E+03  0.00000000000E+00 0.  1.
          3    1    3    3  501    0  0.85239814932E+01  0.19941148340E+02 -0.30902599955E+03  0.30978601656E+03  0.00000000000E+00 0.  1.
         -3    1    1    2    0  502 -0.15789922989E+02 -0.31840234142E+02 -0.47000887177E+03  0.47135067807E+03  0.00000000000E+00 0. -1.
<mgrwt>
<rscale>  1 0.30000000E+03</rscale>
<asrwt>0</asrwt>
<pdfrwt beam="1">  1       21 0.46250520E-02 0.30000000E+03</pdfrwt>
<pdfrwt beam="2">0</pdfrwt>
<totfact> 0.32890848E+04</totfact>
</mgrwt>
</event>
<event>
 6    1  0.1284012E-001  0.3000000E+03  0.7818608E-02  0.1093470E+00
         21   -1    0    0  501  502  0.00000000000E+00  0.00000000000E+00  0.47600254610E+01  0.47600254610E+01  0.00000000000E+00 0. -1.
         13   -1    0    0    0    0 -0.00000000000E+00 -0.00000000000E+00 -0.10000000000E+04  0.10000000000E+04  0.00000000000E+00 0.  1.
    9000005    2    1    2  501    0 -0.11248071478E+02 -0.40134028658E+02 -0.89788096502E+03  0.89885423666E+03  0.33840858369E+01 0.  0.
         13    1    3    3    0    0 -0.85667498026E+01 -0.27660787717E+02 -0.59344099357E+03  0.59414705354E+03  0.00000000000E+00 0.  1.
          3    1    3    3  501    0 -0.26813216757E+01 -0.12473240941E+02 -0.30443997146E+03  0.30470718312E+03  0.00000000000E+00 0.  1.
         -1    1    1    2    0  502  0.11248071478E+02  0.40134028658E+02 -0.97359009516E+02  0.10590578880E+03  0.00000000000E+00 0. -1.
<mgrwt>
<rscale>  1 0.30000000E+03</rscale>
<asrwt>0</asrwt>
<pdfrwt beam="1">  1       21 0.17309220E-01 0.30000000E+03</pdfrwt>
<pdfrwt beam="2">0</pdfrwt>
<totfact> 0.31531578E+03</totfact>
</mgrwt>
</event>
<event>
 6    1  0.1284012E-001  0.3000000E+03  0.7818608E-02  0.1093470E+00
         21   -1    0    0  501  502  0.00000000000E+00  0.00000000000E+00  0.19294764961E+01  0.19294764961E+01  0.00000000000E+00 0. -1.
         13   -1    0    0    0    0 -0.00000000000E+00 -0.00000000000E+00 -0.10000000000E+04  0.10000000000E+04  0.00000000000E+00 0.  1.
    9000005    2    1    2  501    0 -0.15732518102E+01 -0.42985060058E+02 -0.41321064333E+03  0.41548999117E+03  0.62214543281E+01 0.  0.
         13    1    3    3    0    0 -0.14838325543E+01 -0.41379146519E+02 -0.38189807808E+03  0.38413614457E+03  0.00000000000E+00 0.  1.
          3    1    3    3  501    0 -0.89419255841E-01 -0.16059135392E+01 -0.31312565251E+02  0.31353846601E+02  0.00000000000E+00 0.  1.
         -3    1    1    2    0  502  0.15732518102E+01  0.42985060058E+02 -0.58485988017E+03  0.58643948532E+03  0.00000000000E+00 0. -1.
<mgrwt>
<rscale>  1 0.30000000E+03</rscale>
<asrwt>0</asrwt>
<pdfrwt beam="1">  1       21 0.70162930E-02 0.30000000E+03</pdfrwt>
<pdfrwt beam="2">0</pdfrwt>
<totfact> 0.16070129E+04</totfact>
</mgrwt>
</event>
<event>
 6    1  0.1284012E-001  0.3000000E+03  0.7818608E-02  0.1093470E+00
         21   -1    0    0  501  502  0.00000000000E+00  0.00000000000E+00  0.14363807464E+01  0.14363807464E+01  0.00000000000E+00 0. -1.
         13   -1    0    0    0    0 -0.00000000000E+00 -0.00000000000E+00 -0.10000000000E+04  0.10000000000E+04  0.00000000000E+00 0.  1.
    9000005    2    1    2  501    0  0.16759700761E+02 -0.26586462459E+02 -0.77823169134E+03  0.77887428601E+03  0.35861462089E+01 0.  0.
         13    1    3    3    0    0  0.90695571780E-01 -0.14636005684E+01 -0.31258435514E+02  0.31292812962E+02  0.00000000000E+00 0.  1.
          3    1    3    3  501    0  0.16669005189E+02 -0.25122861891E+02 -0.74697325583E+03  0.74758147305E+03  0.00000000000E+00 0.  1.
         -3    1    1    2    0  502 -0.16759700761E+02  0.26586462459E+02 -0.22033192791E+03  0.22256209474E+03  0.00000000000E+00 0. -1.
<mgrwt>
<rscale>  1 0.30000000E+03</rscale>
<asrwt>0</asrwt>
<pdfrwt beam="1">  1       21 0.52232137E-02 0.30000000E+03</pdfrwt>
<pdfrwt beam="2">0</pdfrwt>
<totfact> 0.26735640E+04</totfact>
</mgrwt>
</event>
<event>
 6    1  0.1284012E-001  0.3000000E+03  0.7818608E-02  0.1093470E+00
         21   -1    0    0  501  502  0.00000000000E+00  0.00000000000E+00  0.11853417126E+01  0.11853417126E+01  0.00000000000E+00 0. -1.
         13   -1    0    0    0    0 -0.00000000000E+00 -0.00000000000E+00 -0.10000000000E+04  0.10000000000E+04  0.00000000000E+00 0.  1.
    9000005    2    1    2  501    0 -0.14124027254E+02 -0.28312186701E+02 -0.30634053472E+03  0.30798877517E+03  0.33903324387E+01 0.  0.
         13    1    3    3    0    0 -0.63751418574E+01 -0.10785526982E+02 -0.13490154957E+03  0.13548209514E+03  0.00000000000E+00 0.  1.
          3    1    3    3  501    0 -0.77488853962E+01 -0.17526659719E+02 -0.17143898515E+03  0.17250668003E+03  0.00000000000E+00 0.  1.
         -3    1    1    2    0  502  0.14124027254E+02  0.28312186701E+02 -0.69247412357E+03  0.69319656654E+03  0.00000000000E+00 0. -1.
<mgrwt>
<rscale>  1 0.30000000E+03</rscale>
<asrwt>0</asrwt>
<pdfrwt beam="1">  1       21 0.43103426E-02 0.30000000E+03</pdfrwt>
<pdfrwt beam="2">0</pdfrwt>
<totfact> 0.37065830E+04</totfact>
</mgrwt>
</event>
<event>
 6    1  0.1284012E-001  0.3000000E+03  0.7818608E-02  0.1093470E+00
         21   -1    0    0  501  502  0.00000000000E+00  0.00000000000E+00  0.18290794009E+01  0.18290794009E+01  0.00000000000E+00 0. -1.
         13   -1    0    0    0    0 -0.00000000000E+00 -0.00000000000E+00 -0.10000000000E+04  0.10000000000E+04  0.00000000000E+00 0.  1.
    9000005    2    1    2  501    0 -0.31671438002E+02  0.72765223545E+01 -0.82434359377E+03  0.82499026207E+03  0.32471767095E+01 0.  0.
         13    1    3    3    0    0 -0.22894810733E+02  0.40852649595E+01 -0.61068100761E+03  0.61112368208E+03  0.00000000000E+00 0.  1.
          3    1    3    3  501    0 -0.87766272693E+01  0.31912573949E+01 -0.21366258616E+03  0.21386657999E+03  0.00000000000E+00 0.  1.
         -3    1    1    2    0  502  0.31671438002E+02 -0.72765223545E+01 -0.17382732683E+03  0.17683881733E+03  0.00000000000E+00 0. -1.
<mgrwt>
<rscale>  1 0.30000000E+03</rscale>
<asrwt>0</asrwt>
<pdfrwt beam="1">  1       21 0.66512118E-02 0.30000000E+03</pdfrwt>
<pdfrwt beam="2">0</pdfrwt>
<totfact> 0.17633270E+04</totfact>
</mgrwt>
</event>
<event>
 6    1  0.1284012E-001  0.3000000E+03  0.7818608E-02  0.1093470E+00
         21   -1    0    0  501  502  0.00000000000E+00  0.00000000000E+00  0.12808169295E+01  0.12808169295E+01  0.00000000000E+00 0. -1.
         13   -1    0    0    0    0 -0.00000000000E+00 -0.00000000000E+00 -0.10000000000E+04  0.10000000000E+04  0.00000000000E+00 0.  1.
    9000005    2    1    2  501    0 -0.27909040679E+02  0.17996746027E+02 -0.32009117515E+03  0.32184077501E+03  0.45085070538E+01 0.  0.
         13    1    3    3    0    0 -0.14215738686E+02  0.89274488555E+01 -0.18332053092E+03  0.18408748906E+03  0.00000000000E+00 0.  1.
          1    1    3    3  501    0 -0.13693301992E+02  0.90692971714E+01 -0.13677064423E+03  0.13775328596E+03  0.00000000000E+00 0.  1.
         -3    1    1    2    0  502  0.27909040679E+02 -0.17996746027E+02 -0.67862800792E+03  0.67944004192E+03  0.00000000000E+00 0. -1.
<mgrwt>
<rscale>  1 0.30000000E+03</rscale>
<asrwt>0</asrwt>
<pdfrwt beam="1">  1       21 0.46575259E-02 0.30000000E+03</pdfrwt>
<pdfrwt beam="2">0</pdfrwt>
<totfact> 0.32502065E+04</totfact>
</mgrwt>
</event>
<event>
 6    1  0.1284012E-001  0.3000000E+03  0.7818608E-02  0.1093470E+00
         21   -1    0    0  501  502  0.00000000000E+00  0.00000000000E+00  0.55651909916E+01  0.55651909916E+01  0.00000000000E+00 0. -1.
         13   -1    0    0    0    0 -0.00000000000E+00 -0.00000000000E+00 -0.10000000000E+04  0.10000000000E+04  0.00000000000E+00 0.  1.
    9000005    2    1    2  501    0  0.57352506428E+02  0.21146230103E+02 -0.78527432080E+03  0.78765561601E+03  0.30228269713E+01 0.  0.
         13    1    3    3    0    0  0.31431608435E+02  0.10545626604E+02 -0.44037489533E+03  0.44162110987E+03  0.00000000000E+00 0.  1.
          1    1    3    3  501    0  0.25920897993E+02  0.10600603499E+02 -0.34489942547E+03  0.34603450614E+03  0.00000000000E+00 0.  1.
         -1    1    1    2    0  502 -0.57352506428E+02 -0.21146230103E+02 -0.20916048821E+03  0.21790957498E+03  0.00000000000E+00 0. -1.
<mgrwt>
<rscale>  1 0.30000000E+03</rscale>
<asrwt>0</asrwt>
<pdfrwt beam="1">  1       21 0.20237101E-01 0.30000000E+03</pdfrwt>
<pdfrwt beam="2">0</pdfrwt>
<totfact> 0.23458149E+03</totfact>
</mgrwt>
</event>
<event>
 6    1  0.1284012E-001  0.3000000E+03  0.7818608E-02  0.1093470E+00
         21   -1    0    0  501  502  0.00000000000E+00  0.00000000000E+00  0.62189509598E+01  0.62189509598E+01  0.00000000000E+00 0. -1.
         13   -1    0    0    0    0 -0.00000000000E+00 -0.00000000000E+00 -0.10000000000E+04  0.10000000000E+04  0.00000000000E+00 0.  1.
    9000005    2    1    2  501    0  0.23897723047E+02  0.32335640324E+02 -0.92965461153E+03  0.93052948809E+03  0.32766845171E+01 0.  0.
         13    1    3    3    0    0  0.57657885968E+01  0.79148129649E+01 -0.26041684041E+03  0.26060088134E+03  0.00000000000E+00 0.  1.
          3    1    3    3  501    0  0.18131934451E+02  0.24420827359E+02 -0.66923777111E+03  0.66992860675E+03  0.00000000000E+00 0.  1.
         -3    1    1    2    0  502 -0.23897723047E+02 -0.32335640324E+02 -0.64126437513E+02  0.75689462874E+02  0.00000000000E+00 0. -1.
<mgrwt>
<rscale>  1 0.30000000E+03</rscale>
<asrwt>0</asrwt>
<pdfrwt beam="1">  1       21 0.22614415E-01 0.30000000E+03</pdfrwt>
<pdfrwt beam="2">0</pdfrwt>
<totfact> 0.18952129E+03</totfact>
</mgrwt>
</event>
<event>
 6    1  0.1284012E-001  0.3000000E+03  0.7818608E-02  0.1093470E+00
         21   -1    0    0  501  502  0.00000000000E+00  0.00000000000E+00  0.36920369575E+01  0.36920369575E+01  0.00000000000E+00 0. -1.
         13   -1    0    0    0    0 -0.00000000000E+00 -0.00000000000E+00 -0.10000000000E+04  0.10000000000E+04  0.00000000000E+00 0.  1.
    9000005    2    1    2  501    0 -0.43363035805E+02  0.10841865517E+02 -0.83794411561E+03  0.83914111142E+03  0.30927439005E+01 0.  0.
         13    1    3    3    0    0 -0.29737345896E+02  0.61879626708E+01 -0.55348107509E+03  0.55431390124E+03  0.00000000000E+00 0.  1.
          1    1    3    3  501    0 -0.13625689909E+02  0.46539028460E+01 -0.28446304052E+03  0.28482721018E+03  0.00000000000E+00 0.  1.
         -3    1    1    2    0  502  0.43363035805E+02 -0.10841865517E+02 -0.15836384743E+03  0.16455092554E+03  0.00000000000E+00 0. -1.
<mgrwt>
<rscale>  1 0.30000000E+03</rscale>
<asrwt>0</asrwt>
<pdfrwt beam="1">  1       21 0.13425617E-01 0.30000000E+03</pdfrwt>
<pdfrwt beam="2">0</pdfrwt>
<totfact> 0.50501341E+03</totfact>
</mgrwt>
</event>
<event>
 6    1  0.1284012E-001  0.3000000E+03  0.7818608E-02  0.1093470E+00
         21   -1    0    0  501  502  0.00000000000E+00  0.00000000000E+00  0.13307269069E+01  0.13307269069E+01  0.00000000000E+00 0. -1.
         13   -1    0    0    0    0 -0.00000000000E+00 -0.00000000000E+00 -0.10000000000E+04  0.10000000000E+04  0.00000000000E+00 0.  1.
    9000005    2    1    2  501    0  0.24206092564E+02 -0.25590800291E+02 -0.61695322025E+03  0.61799279639E+03  0.65571665631E+01 0.  0.
         13    1    3    3    0    0  0.69381523693E+01 -0.48512548903E+01 -0.18898192375E+03  0.18917145699E+03  0.00000000000E+00 0.  1.
          1    1    3    3  501    0  0.17267940195E+02 -0.20739545400E+02 -0.42797129650E+03  0.42882133940E+03  0.00000000000E+00 0.  1.
         -3    1    1    2    0  502 -0.24206092564E+02  0.25590800291E+02 -0.38171605284E+03  0.38333793052E+03  0.00000000000E+00 0. -1.
<mgrwt>
<rscale>  1 0.30000000E+03</rscale>
<asrwt>0</asrwt>
<pdfrwt beam="1">  1       21 0.48390171E-02 0.30000000E+03</pdfrwt>
<pdfrwt beam="2">0</pdfrwt>
<totfact> 0.30456015E+04</totfact>
</mgrwt>
</event>
<event>
 6    1  0.1284012E-001  0.3000000E+03  0.7818608E-02  0.1093470E+00
         21   -1    0    0  501  502  0.00000000000E+00  0.00000000000E+00  0.22790053596E+01  0.22790053596E+01  0.00000000000E+00 0. -1.
         13   -1    0    0    0    0 -0.00000000000E+00 -0.00000000000E+00 -0.10000000000E+04  0.10000000000E+04  0.00000000000E+00 0.  1.
    9000005    2    1    2  501    0 -0.11105237228E+02  0.27919051136E+02 -0.88810631107E+03  0.88862083995E+03  0.33730874904E+01 0.  0.
         13    1    3    3    0    0 -0.32800487851E+01  0.64227456623E+01 -0.25257768010E+03  0.25268061830E+03  0.00000000000E+00 0.  1.
          1    1    3    3  501    0 -0.78251884428E+01  0.21496305473E+02 -0.63552863098E+03  0.63594022165E+03  0.00000000000E+00 0.  1.
         -1    1    1    2    0  502  0.11105237228E+02 -0.27919051136E+02 -0.10961468357E+03  0.11365816541E+03  0.00000000000E+00 0. -1.
<mgrwt>
<rscale>  1 0.30000000E+03</rscale>
<asrwt>0</asrwt>
<pdfrwt beam="1">  1       21 0.82873097E-02 0.30000000E+03</pdfrwt>
<pdfrwt beam="2">0</pdfrwt>
<totfact> 0.12005459E+04</totfact>
</mgrwt>
</event>
<event>
 6    1  0.1284012E-001  0.3000000E+03  0.7818608E-02  0.1093470E+00
         21   -1    0    0  501  502  0.00000000000E+00  0.00000000000E+00  0.30606887623E+01  0.30606887623E+01  0.00000000000E+00 0. -1.
         13   -1    0    0    0    0 -0.00000000000E+00 -0.00000000000E+00 -0.10000000000E+04  0.10000000000E+04  0.00000000000E+00 0.  1.
    9000005    2    1    2  501    0 -0.32471652632E+02 -0.12094331706E+01 -0.90426203966E+03  0.90485199454E+03  0.33800450041E+01 0.  0.
         13    1    3    3    0    0 -0.22609858388E+01 -0.68771994195E+00 -0.50104626975E+02  0.50160329544E+02  0.00000000000E+00 0.  1.
          1    1    3    3  501    0 -0.30210666793E+02 -0.52171322866E+00 -0.85415741269E+03  0.85469166500E+03  0.00000000000E+00 0.  1.
         -3    1    1    2    0  502  0.32471652632E+02  0.12094331706E+01 -0.92677271576E+02  0.98208694218E+02  0.00000000000E+00 0. -1.
<mgrwt>
<rscale>  1 0.30000000E+03</rscale>
<asrwt>0</asrwt>
<pdfrwt beam="1">  1       21 0.11129801E-01 0.30000000E+03</pdfrwt>
<pdfrwt beam="2">0</pdfrwt>
<totfact> 0.71004919E+03</totfact>
</mgrwt>
</event>
<event>
 6    1  0.1284012E-001  0.3000000E+03  0.7818608E-02  0.1093470E+00
         21   -1    0    0  501  502  0.00000000000E+00  0.00000000000E+00  0.16407024698E+01  0.16407024698E+01  0.00000000000E+00 0. -1.
         13   -1    0    0    0    0 -0.00000000000E+00 -0.00000000000E+00 -0.10000000000E+04  0.10000000000E+04  0.00000000000E+00 0.  1.
    9000005    2    1    2  501    0  0.18065157735E+02 -0.25314700158E+02 -0.81966225020E+03  0.82025763078E+03  0.30319128196E+01 0.  0.
         13    1    3    3    0    0  0.64648959902E+01 -0.81436925368E+01 -0.30983417015E+03  0.31000859279E+03  0.00000000000E+00 0.  1.
          1    1    3    3  501    0  0.11600261745E+02 -0.17171007622E+02 -0.50982808004E+03  0.51024903800E+03  0.00000000000E+00 0.  1.
         -1    1    1    2    0  502 -0.18065157735E+02  0.25314700158E+02 -0.17869704733E+03  0.18138307169E+03  0.00000000000E+00 0. -1.
<mgrwt>
<rscale>  1 0.30000000E+03</rscale>
<asrwt>0</asrwt>
<pdfrwt beam="1">  1       21 0.59662034E-02 0.30000000E+03</pdfrwt>
<pdfrwt beam="2">0</pdfrwt>
<totfact> 0.21277925E+04</totfact>
</mgrwt>
</event>
<event>
 6    1  0.1284012E-001  0.3000000E+03  0.7818608E-02  0.1093470E+00
         21   -1    0    0  501  502  0.00000000000E+00  0.00000000000E+00  0.31430084684E+01  0.31430084684E+01  0.00000000000E+00 0. -1.
         13   -1    0    0    0    0 -0.00000000000E+00 -0.00000000000E+00 -0.10000000000E+04  0.10000000000E+04  0.00000000000E+00 0.  1.
    9000005    2    1    2  501    0  0.55026178858E+01  0.46101979585E+02 -0.77869484019E+03  0.78009504142E+03  0.51911644507E+01 0.  0.
         13    1    3    3    0    0  0.69501174345E+00  0.61829663654E+01 -0.13759769275E+03  0.13773829229E+03  0.00000000000E+00 0.  1.
          3    1    3    3  501    0  0.48076061424E+01  0.39919013219E+02 -0.64109714744E+03  0.64235674913E+03  0.00000000000E+00 0.  1.
         -3    1    1    2    0  502 -0.55026178858E+01 -0.46101979585E+02 -0.21816215134E+03  0.22304796705E+03  0.00000000000E+00 0. -1.
<mgrwt>
<rscale>  1 0.30000000E+03</rscale>
<asrwt>0</asrwt>
<pdfrwt beam="1">  1       21 0.11429146E-01 0.30000000E+03</pdfrwt>
<pdfrwt beam="2">0</pdfrwt>
<totfact> 0.67686838E+03</totfact>
</mgrwt>
</event>
<event>
 6    1  0.1284012E-001  0.3000000E+03  0.7818608E-02  0.1093470E+00
         21   -1    0    0  501  502  0.00000000000E+00  0.00000000000E+00  0.16791534030E+01  0.16791534030E+01  0.00000000000E+00 0. -1.
         13   -1    0    0    0    0 -0.00000000000E+00 -0.00000000000E+00 -0.10000000000E+04  0.10000000000E+04  0.00000000000E+00 0.  1.
    9000005    2    1    2  501    0 -0.28575902336E+02  0.15644687452E+02 -0.80239673676E+03  0.80306496646E+03  0.33880306325E+01 0.  0.
         13    1    3    3    0    0 -0.93389609548E+01  0.69179754635E+01 -0.27639321044E+03  0.27663745472E+03  0.00000000000E+00 0.  1.
          1    1    3    3  501    0 -0.19236941382E+02  0.87267119887E+01 -0.52600352632E+03  0.52642751174E+03  0.00000000000E+00 0.  1.
         -3    1    1    2    0  502  0.28575902336E+02 -0.15644687452E+02 -0.19592410984E+03  0.19861418695E+03  0.00000000000E+00 0. -1.
<mgrwt>
<rscale>  1 0.30000000E+03</rscale>
<asrwt>0</asrwt>
<pdfrwt beam="1">  1       21 0.61060253E-02 0.30000000E+03</pdfrwt>
<pdfrwt beam="2">0</pdfrwt>
<totfact> 0.20444393E+04</totfact>
</mgrwt>
</event>
<event>
 6    1  0.1284012E-001  0.3000000E+03  0.7818608E-02  0.1093470E+00
         21   -1    0    0  501  502  0.00000000000E+00  0.00000000000E+00  0.63921506649E+01  0.63921506649E+01  0.00000000000E+00 0. -1.
         13   -1    0    0    0    0 -0.00000000000E+00 -0.00000000000E+00 -0.10000000000E+04  0.10000000000E+04  0.00000000000E+00 0.  1.
    9000005    2    1    2  501    0 -0.52258025285E+02 -0.55845890249E+02 -0.35120202868E+03  0.35944941512E+03  0.33693346241E+01 0.  0.
         13    1    3    3    0    0 -0.43238186171E+02 -0.47993313626E+02 -0.29605297352E+03  0.30301858363E+03  0.00000000000E+00 0.  1.
          3    1    3    3  501    0 -0.90198391140E+01 -0.78525766229E+01 -0.55149055166E+02  0.56430831492E+02  0.00000000000E+00 0.  1.
         -3    1    1    2    0  502  0.52258025285E+02  0.55845890249E+02 -0.64240582065E+03  0.64694273554E+03  0.00000000000E+00 0. -1.
<mgrwt>
<rscale>  1 0.30000000E+03</rscale>
<asrwt>0</asrwt>
<pdfrwt beam="1">  1       21 0.23244233E-01 0.30000000E+03</pdfrwt>
<pdfrwt beam="2">0</pdfrwt>
<totfact> 0.17971456E+03</totfact>
</mgrwt>
</event>
<event>
 6    1  0.1284012E-001  0.3000000E+03  0.7818608E-02  0.1093470E+00
         21   -1    0    0  501  502  0.00000000000E+00  0.00000000000E+00  0.22893129779E+01  0.22893129779E+01  0.00000000000E+00 0. -1.
         13   -1    0    0    0    0 -0.00000000000E+00 -0.00000000000E+00 -0.10000000000E+04  0.10000000000E+04  0.00000000000E+00 0.  1.
    9000005    2    1    2  501    0 -0.25642435340E+02 -0.39925737338E+02 -0.44031794003E+03  0.44288045232E+03  0.34070127257E+01 0.  0.
         13    1    3    3    0    0 -0.14405937586E+02 -0.21461220776E+02 -0.22467914924E+03  0.22616108228E+03  0.00000000000E+00 0.  1.
          3    1    3    3  501    0 -0.11236497754E+02 -0.18464516562E+02 -0.21563879079E+03  0.21671937003E+03  0.00000000000E+00 0.  1.
         -3    1    1    2    0  502  0.25642435340E+02  0.39925737338E+02 -0.55739274699E+03  0.55940886066E+03  0.00000000000E+00 0. -1.
<mgrwt>
<rscale>  1 0.30000000E+03</rscale>
<asrwt>0</asrwt>
<pdfrwt beam="1">  1       21 0.83247920E-02 0.30000000E+03</pdfrwt>
<pdfrwt beam="2">0</pdfrwt>
<totfact> 0.11910457E+04</totfact>
</mgrwt>
</event>
<event>
 6    1  0.1284012E-001  0.3000000E+03  0.7818608E-02  0.1093470E+00
         21   -1    0    0  501  502  0.00000000000E+00  0.00000000000E+00  0.20362723591E+01  0.20362723591E+01  0.00000000000E+00 0. -1.
         13   -1    0    0    0    0 -0.00000000000E+00 -0.00000000000E+00 -0.10000000000E+04  0.10000000000E+04  0.00000000000E+00 0.  1.
    9000005    2    1    2  501    0  0.22201898115E+02  0.29068756283E+02 -0.79196896195E+03  0.79281925498E+03  0.31012081947E+01 0.  0.
         13    1    3    3    0    0  0.58989882100E+01  0.10085805085E+02 -0.24845014305E+03  0.24872473763E+03  0.00000000000E+00 0.  1.
          1    1    3    3  501    0  0.16302909905E+02  0.18982951198E+02 -0.54351881890E+03  0.54409451735E+03  0.00000000000E+00 0.  1.
         -1    1    1    2    0  502 -0.22201898115E+02 -0.29068756283E+02 -0.20599476569E+03  0.20921701738E+03  0.00000000000E+00 0. -1.
<mgrwt>
<rscale>  1 0.30000000E+03</rscale>
<asrwt>0</asrwt>
<pdfrwt beam="1">  1       21 0.74046424E-02 0.30000000E+03</pdfrwt>
<pdfrwt beam="2">0</pdfrwt>
<totfact> 0.14628431E+04</totfact>
</mgrwt>
</event>
<event>
 6    1  0.1284012E-001  0.3000000E+03  0.7818608E-02  0.1093470E+00
         21   -1    0    0  501  502  0.00000000000E+00  0.00000000000E+00  0.37132473922E+01  0.37132473922E+01  0.00000000000E+00 0. -1.
         13   -1    0    0    0    0 -0.00000000000E+00 -0.00000000000E+00 -0.10000000000E+04  0.10000000000E+04  0.00000000000E+00 0.  1.
    9000005    2    1    2  501    0 -0.34439356889E+02  0.44900149593E+02 -0.68050594866E+03  0.68290238586E+03  0.80764913642E+01 0.  0.
         13    1    3    3    0    0 -0.72744949649E+01  0.55097928048E+01 -0.13073696920E+03  0.13105506938E+03  0.00000000000E+00 0.  1.
          3    1    3    3  501    0 -0.27164861924E+02  0.39390356788E+02 -0.54976897946E+03  0.55184731648E+03  0.00000000000E+00 0.  1.
         -3    1    1    2    0  502  0.34439356889E+02 -0.44900149593E+02 -0.31578080395E+03  0.32081086153E+03  0.00000000000E+00 0. -1.
<mgrwt>
<rscale>  1 0.30000000E+03</rscale>
<asrwt>0</asrwt>
<pdfrwt beam="1">  1       21 0.13502746E-01 0.30000000E+03</pdfrwt>
<pdfrwt beam="2">0</pdfrwt>
<totfact> 0.49974392E+03</totfact>
</mgrwt>
</event>
<event>
 6    1  0.1284012E-001  0.3000000E+03  0.7818608E-02  0.1093470E+00
         21   -1    0    0  501  502  0.00000000000E+00  0.00000000000E+00  0.28035336869E+01  0.28035336869E+01  0.00000000000E+00 0. -1.
         13   -1    0    0    0    0 -0.00000000000E+00 -0.00000000000E+00 -0.10000000000E+04  0.10000000000E+04  0.00000000000E+00 0.  1.
    9000005    2    1    2  501    0  0.47834956510E+01 -0.32450446016E+02 -0.89208796300E+03  0.89269581031E+03  0.29937849682E+01 0.  0.
         13    1    3    3    0    0  0.35149522245E+01 -0.13796379423E+02 -0.39182341518E+03  0.39208198589E+03  0.00000000000E+00 0.  1.
          1    1    3    3  501    0  0.12685434265E+01 -0.18654066593E+02 -0.50026454782E+03  0.50061382443E+03  0.00000000000E+00 0.  1.
         -3    1    1    2    0  502 -0.47834956510E+01  0.32450446016E+02 -0.10510850332E+03  0.11010772337E+03  0.00000000000E+00 0. -1.
<mgrwt>
<rscale>  1 0.30000000E+03</rscale>
<asrwt>0</asrwt>
<pdfrwt beam="1">  1       21 0.10194689E-01 0.30000000E+03</pdfrwt>
<pdfrwt beam="2">0</pdfrwt>
<totfact> 0.83116668E+03</totfact>
</mgrwt>
</event>
<event>
 6    1  0.1284012E-001  0.3000000E+03  0.7818608E-02  0.1093470E+00
         21   -1    0    0  501  502  0.00000000000E+00  0.00000000000E+00  0.21212455408E+01  0.21212455408E+01  0.00000000000E+00 0. -1.
         13   -1    0    0    0    0 -0.00000000000E+00 -0.00000000000E+00 -0.10000000000E+04  0.10000000000E+04  0.00000000000E+00 0.  1.
    9000005    2    1    2  501    0  0.42571330933E+02  0.17251525906E+02 -0.47413504041E+03  0.47636710968E+03  0.34136902884E+01 0.  0.
         13    1    3    3    0    0  0.16176945714E+02  0.73525403718E+01 -0.19895887459E+03  0.19975081276E+03  0.00000000000E+00 0.  1.
          1    1    3    3  501    0  0.26394385219E+02  0.98989855339E+01 -0.27517616582E+03  0.27661629692E+03  0.00000000000E+00 0.  1.
         -1    1    1    2    0  502 -0.42571330933E+02 -0.17251525906E+02 -0.52374371405E+03  0.52575413586E+03  0.00000000000E+00 0. -1.
<mgrwt>
<rscale>  1 0.30000000E+03</rscale>
<asrwt>0</asrwt>
<pdfrwt beam="1">  1       21 0.77136364E-02 0.30000000E+03</pdfrwt>
<pdfrwt beam="2">0</pdfrwt>
<totfact> 0.13617624E+04</totfact>
</mgrwt>
</event>
<event>
 6    1  0.1284012E-001  0.3000000E+03  0.7818608E-02  0.1093470E+00
         21   -1    0    0  501  502  0.00000000000E+00  0.00000000000E+00  0.23026301885E+01  0.23026301885E+01  0.00000000000E+00 0. -1.
         13   -1    0    0    0    0 -0.00000000000E+00 -0.00000000000E+00 -0.10000000000E+04  0.10000000000E+04  0.00000000000E+00 0.  1.
    9000005    2    1    2  501    0  0.25715291520E+02  0.27269374785E+02 -0.81132922670E+03  0.81220270965E+03  0.36376445638E+01 0.  0.
         13    1    3    3    0    0  0.13618846239E+02  0.12361698874E+02 -0.37269946911E+03  0.37315302337E+03  0.00000000000E+00 0.  1.
          3    1    3    3  501    0  0.12096445282E+02  0.14907675911E+02 -0.43862975759E+03  0.43904968629E+03  0.00000000000E+00 0.  1.
         -3    1    1    2    0  502 -0.25715291520E+02 -0.27269374785E+02 -0.18636814311E+03  0.19009992053E+03  0.00000000000E+00 0. -1.
<mgrwt>
<rscale>  1 0.30000000E+03</rscale>
<asrwt>0</asrwt>
<pdfrwt beam="1">  1       21 0.83732183E-02 0.30000000E+03</pdfrwt>
<pdfrwt beam="2">0</pdfrwt>
<totfact> 0.11789410E+04</totfact>
</mgrwt>
</event>
<event>
 6    1  0.1284012E-001  0.3000000E+03  0.7818608E-02  0.1093470E+00
         21   -1    0    0  501  502  0.00000000000E+00  0.00000000000E+00  0.48357625868E+01  0.48357625868E+01  0.00000000000E+00 0. -1.
         13   -1    0    0    0    0 -0.00000000000E+00 -0.00000000000E+00 -0.10000000000E+04  0.10000000000E+04  0.00000000000E+00 0.  1.
    9000005    2    1    2  501    0 -0.34953914560E+02 -0.37483091773E+02 -0.83624370286E+03  0.83785524092E+03  0.84330219810E+01 0.  0.
         13    1    3    3    0    0 -0.58178188582E+01 -0.26700902786E+01 -0.84547730029E+02  0.84789710764E+02  0.00000000000E+00 0.  1.
          3    1    3    3  501    0 -0.29136095702E+02 -0.34813001495E+02 -0.75169597283E+03  0.75306553016E+03  0.00000000000E+00 0.  1.
         -1    1    1    2    0  502  0.34953914560E+02  0.37483091773E+02 -0.15892053455E+03  0.16698052166E+03  0.00000000000E+00 0. -1.
<mgrwt>
<rscale>  1 0.30000000E+03</rscale>
<asrwt>0</asrwt>
<pdfrwt beam="1">  1       21 0.17584628E-01 0.30000000E+03</pdfrwt>
<pdfrwt beam="2">0</pdfrwt>
<totfact> 0.30610788E+03</totfact>
</mgrwt>
</event>
<event>
 6    1  0.1284012E-001  0.3000000E+03  0.7818608E-02  0.1093470E+00
         21   -1    0    0  501  502  0.00000000000E+00  0.00000000000E+00  0.74404541686E+01  0.74404541686E+01  0.00000000000E+00 0. -1.
         13   -1    0    0    0    0 -0.00000000000E+00 -0.00000000000E+00 -0.10000000000E+04  0.10000000000E+04  0.00000000000E+00 0.  1.
    9000005    2    1    2  501    0 -0.46130099298E+02  0.58117285684E+02 -0.75298640475E+03  0.75663994602E+03  0.31428059299E+01 0.  0.
         13    1    3    3    0    0 -0.37941859591E+02  0.45950753386E+02 -0.59921250912E+03  0.60216832159E+03  0.00000000000E+00 0.  1.
          3    1    3    3  501    0 -0.81882397073E+01  0.12166532298E+02 -0.15377389563E+03  0.15447162443E+03  0.00000000000E+00 0.  1.
         -3    1    1    2    0  502  0.46130099298E+02 -0.58117285684E+02 -0.23957314108E+03  0.25080050814E+03  0.00000000000E+00 0. -1.
<mgrwt>
<rscale>  1 0.30000000E+03</rscale>
<asrwt>0</asrwt>
<pdfrwt beam="1">  1       21 0.27056254E-01 0.30000000E+03</pdfrwt>
<pdfrwt beam="2">0</pdfrwt>
<totfact> 0.13349779E+03</totfact>
</mgrwt>
</event>
<event>
 6    1  0.1284012E-001  0.3000000E+03  0.7818608E-02  0.1093470E+00
         21   -1    0    0  501  502  0.00000000000E+00  0.00000000000E+00  0.11583027733E+02  0.11583027733E+02  0.00000000000E+00 0. -1.
         13   -1    0    0    0    0 -0.00000000000E+00 -0.00000000000E+00 -0.10000000000E+04  0.10000000000E+04  0.00000000000E+00 0.  1.
    9000005    2    1    2  501    0 -0.31054679292E+02  0.17199756630E+02 -0.97167887496E+03  0.97233524263E+03  0.39702998198E+01 0.  0.
         13    1    3    3    0    0 -0.29581083824E+02  0.15487180150E+02 -0.92349235098E+03  0.92409578269E+03  0.00000000000E+00 0.  1.
          1    1    3    3  501    0 -0.14735954690E+01  0.17125764798E+01 -0.48186523981E+02  0.48239459939E+02  0.00000000000E+00 0.  1.
         -1    1    1    2    0  502  0.31054679292E+02 -0.17199756630E+02 -0.16738097306E+02  0.39247785103E+02  0.00000000000E+00 0. -1.
<mgrwt>
<rscale>  1 0.30000000E+03</rscale>
<asrwt>0</asrwt>
<pdfrwt beam="1">  1       21 0.42120190E-01 0.30000000E+03</pdfrwt>
<pdfrwt beam="2">0</pdfrwt>
<totfact> 0.54196535E+02</totfact>
</mgrwt>
</event>
<event>
 6    1  0.1284012E-001  0.3000000E+03  0.7818608E-02  0.1093470E+00
         21   -1    0    0  501  502  0.00000000000E+00  0.00000000000E+00  0.17812322868E+01  0.17812322868E+01  0.00000000000E+00 0. -1.
         13   -1    0    0    0    0 -0.00000000000E+00 -0.00000000000E+00 -0.10000000000E+04  0.10000000000E+04  0.00000000000E+00 0.  1.
    9000005    2    1    2  501    0 -0.31185764321E+02  0.87890069843E+01 -0.81967428781E+03  0.82032068604E+03  0.32080070529E+01 0.  0.
         13    1    3    3    0    0 -0.29622199854E+02  0.89197580964E+01 -0.76868633183E+03  0.76930859449E+03  0.00000000000E+00 0.  1.
          3    1    3    3  501    0 -0.15635644665E+01 -0.13075111213E+00 -0.50987955980E+02  0.51012091554E+02  0.00000000000E+00 0.  1.
         -3    1    1    2    0  502  0.31185764321E+02 -0.87890069843E+01 -0.17854447990E+03  0.18146054625E+03  0.00000000000E+00 0. -1.
<mgrwt>
<rscale>  1 0.30000000E+03</rscale>
<asrwt>0</asrwt>
<pdfrwt beam="1">  1       21 0.64772220E-02 0.30000000E+03</pdfrwt>
<pdfrwt beam="2">0</pdfrwt>
<totfact> 0.18461905E+04</totfact>
</mgrwt>
</event>
<event>
 6    1  0.1284012E-001  0.3000000E+03  0.7818608E-02  0.1093470E+00
         21   -1    0    0  501  502  0.00000000000E+00  0.00000000000E+00  0.96633170736E+00  0.96633170736E+00  0.00000000000E+00 0. -1.
         13   -1    0    0    0    0 -0.00000000000E+00 -0.00000000000E+00 -0.10000000000E+04  0.10000000000E+04  0.00000000000E+00 0.  1.
    9000005    2    1    2  501    0  0.29783787729E+02  0.52453147733E+01 -0.60937379660E+03  0.61013465061E+03  0.36442501089E+01 0.  0.
         13    1    3    3    0    0  0.57300346669E+01 -0.36294120474E+00 -0.12395332334E+03  0.12408622562E+03  0.00000000000E+00 0.  1.
          1    1    3    3  501    0  0.24053753062E+02  0.56082559780E+01 -0.48542047326E+03  0.48604842499E+03  0.00000000000E+00 0.  1.
         -1    1    1    2    0  502 -0.29783787729E+02 -0.52453147733E+01 -0.38965987169E+03  0.39083168109E+03  0.00000000000E+00 0. -1.
<mgrwt>
<rscale>  1 0.30000000E+03</rscale>
<asrwt>0</asrwt>
<pdfrwt beam="1">  1       21 0.35139409E-02 0.30000000E+03</pdfrwt>
<pdfrwt beam="2">0</pdfrwt>
<totfact> 0.52267684E+04</totfact>
</mgrwt>
</event>
<event>
 6    1  0.1284012E-001  0.3000000E+03  0.7818608E-02  0.1093470E+00
         21   -1    0    0  501  502  0.00000000000E+00  0.00000000000E+00  0.13703687169E+01  0.13703687169E+01  0.00000000000E+00 0. -1.
         13   -1    0    0    0    0 -0.00000000000E+00 -0.00000000000E+00 -0.10000000000E+04  0.10000000000E+04  0.00000000000E+00 0.  1.
    9000005    2    1    2  501    0  0.16317979652E+02 -0.26958096195E+02 -0.24048567413E+03  0.24257179519E+03  0.38341820798E+01 0.  0.
         13    1    3    3    0    0  0.12956024297E+02 -0.18060839331E+02 -0.16623846886E+03  0.16771786134E+03  0.00000000000E+00 0.  1.
          3    1    3    3  501    0  0.33619553546E+01 -0.88972568640E+01 -0.74247205266E+02  0.74853933854E+02  0.00000000000E+00 0.  1.
         -1    1    1    2    0  502 -0.16317979652E+02  0.26958096195E+02 -0.75814395716E+03  0.75879857353E+03  0.00000000000E+00 0. -1.
<mgrwt>
<rscale>  1 0.30000000E+03</rscale>
<asrwt>0</asrwt>
<pdfrwt beam="1">  1       21 0.49831695E-02 0.30000000E+03</pdfrwt>
<pdfrwt beam="2">0</pdfrwt>
<totfact> 0.28970686E+04</totfact>
</mgrwt>
</event>
<event>
 6    1  0.1284012E-001  0.3000000E+03  0.7818608E-02  0.1093470E+00
         21   -1    0    0  501  502  0.00000000000E+00  0.00000000000E+00  0.36522626728E+01  0.36522626728E+01  0.00000000000E+00 0. -1.
         13   -1    0    0    0    0 -0.00000000000E+00 -0.00000000000E+00 -0.10000000000E+04  0.10000000000E+04  0.00000000000E+00 0.  1.
    9000005    2    1    2  501    0 -0.23942137064E+02 -0.55396824340E+02 -0.47842913272E+03  0.48222948309E+03  0.29673637814E+01 0.  0.
         13    1    3    3    0    0 -0.17317233417E+02 -0.42920650835E+02 -0.37083737465E+03  0.37371436590E+03  0.00000000000E+00 0.  1.
          3    1    3    3  501    0 -0.66249036473E+01 -0.12476173504E+02 -0.10759175807E+03  0.10851511719E+03  0.00000000000E+00 0.  1.
         -1    1    1    2    0  502  0.23942137064E+02  0.55396824340E+02 -0.51791860460E+03  0.52142277958E+03  0.00000000000E+00 0. -1.
<mgrwt>
<rscale>  1 0.30000000E+03</rscale>
<asrwt>0</asrwt>
<pdfrwt beam="1">  1       21 0.13280983E-01 0.30000000E+03</pdfrwt>
<pdfrwt beam="2">0</pdfrwt>
<totfact> 0.51512253E+03</totfact>
</mgrwt>
</event>
<event>
 6    1  0.1284012E-001  0.3000000E+03  0.7818608E-02  0.1093470E+00
         21   -1    0    0  501  502  0.00000000000E+00  0.00000000000E+00  0.21214989861E+01  0.21214989861E+01  0.00000000000E+00 0. -1.
         13   -1    0    0    0    0 -0.00000000000E+00 -0.00000000000E+00 -0.10000000000E+04  0.10000000000E+04  0.00000000000E+00 0.  1.
    9000005    2    1    2  501    0  0.19224048107E+02 -0.26581256408E+02 -0.84968026803E+03  0.85033598098E+03  0.62125233457E+01 0.  0.
         13    1    3    3    0    0  0.18856300573E+02 -0.22794893987E+02 -0.75236451550E+03  0.75294590208E+03  0.00000000000E+00 0.  1.
          1    1    3    3  501    0  0.36774753398E+00 -0.37863624210E+01 -0.97315752526E+02  0.97390078900E+02  0.00000000000E+00 0.  1.
         -3    1    1    2    0  502 -0.19224048107E+02  0.26581256408E+02 -0.14819823298E+03  0.15178551801E+03  0.00000000000E+00 0. -1.
<mgrwt>
<rscale>  1 0.30000000E+03</rscale>
<asrwt>0</asrwt>
<pdfrwt beam="1">  1       21 0.77145580E-02 0.30000000E+03</pdfrwt>
<pdfrwt beam="2">0</pdfrwt>
<totfact> 0.13614772E+04</totfact>
</mgrwt>
</event>
<event>
 6    1  0.1284012E-001  0.3000000E+03  0.7818608E-02  0.1093470E+00
         21   -1    0    0  501  502  0.00000000000E+00  0.00000000000E+00  0.23708548045E+01  0.23708548045E+01  0.00000000000E+00 0. -1.
         13   -1    0    0    0    0 -0.00000000000E+00 -0.00000000000E+00 -0.10000000000E+04  0.10000000000E+04  0.00000000000E+00 0.  1.
    9000005    2    1    2  501    0  0.43340967312E+02  0.46827761869E+01 -0.71981913729E+03  0.72116138069E+03  0.58119486258E+01 0.  0.
         13    1    3    3    0    0  0.41486189569E+02  0.55995873931E+01 -0.69235135408E+03  0.69361578471E+03  0.00000000000E+00 0.  1.
          3    1    3    3  501    0  0.18547777435E+01 -0.91681120620E+00 -0.27467783207E+02  0.27545595974E+02  0.00000000000E+00 0.  1.
         -1    1    1    2    0  502 -0.43340967312E+02 -0.46827761869E+01 -0.27781000791E+03  0.28120947412E+03  0.00000000000E+00 0. -1.
<mgrwt>
<rscale>  1 0.30000000E+03</rscale>
<asrwt>0</asrwt>
<pdfrwt beam="1">  1       21 0.86213084E-02 0.30000000E+03</pdfrwt>
<pdfrwt beam="2">0</pdfrwt>
<totfact> 0.11197772E+04</totfact>
</mgrwt>
</event>
<event>
 6    1  0.1284012E-001  0.3000000E+03  0.7818608E-02  0.1093470E+00
         21   -1    0    0  501  502  0.00000000000E+00  0.00000000000E+00  0.98146834986E+00  0.98146834986E+00  0.00000000000E+00 0. -1.
         13   -1    0    0    0    0 -0.00000000000E+00 -0.00000000000E+00 -0.10000000000E+04  0.10000000000E+04  0.00000000000E+00 0.  1.
    9000005    2    1    2  501    0  0.12334707927E+02 -0.27909528406E+02 -0.60672736196E+03  0.60750535903E+03  0.36854705362E+01 0.  0.
         13    1    3    3    0    0  0.49667488426E+01 -0.14679765961E+02 -0.28296734347E+03  0.28339139294E+03  0.00000000000E+00 0.  1.
          1    1    3    3  501    0  0.73679590847E+01 -0.13229762446E+02 -0.32376001850E+03  0.32411396609E+03  0.00000000000E+00 0.  1.
         -1    1    1    2    0  502 -0.12334707927E+02  0.27909528406E+02 -0.39229116969E+03  0.39347610932E+03  0.00000000000E+00 0. -1.
<mgrwt>
<rscale>  1 0.30000000E+03</rscale>
<asrwt>0</asrwt>
<pdfrwt beam="1">  1       21 0.35689833E-02 0.30000000E+03</pdfrwt>
<pdfrwt beam="2">0</pdfrwt>
<totfact> 0.50923826E+04</totfact>
</mgrwt>
</event>
<event>
 6    1  0.1284012E-001  0.3000000E+03  0.7818608E-02  0.1093470E+00
         21   -1    0    0  501  502  0.00000000000E+00  0.00000000000E+00  0.10113738864E+01  0.10113738864E+01  0.00000000000E+00 0. -1.
         13   -1    0    0    0    0 -0.00000000000E+00 -0.00000000000E+00 -0.10000000000E+04  0.10000000000E+04  0.00000000000E+00 0.  1.
    9000005    2    1    2  501    0 -0.29071846678E+02  0.97825341698E+01 -0.61346318242E+03  0.61426761119E+03  0.68375241740E+01 0.  0.
         13    1    3    3    0    0 -0.29213837632E+02  0.10104168069E+02 -0.61074638614E+03  0.61152816019E+03  0.00000000000E+00 0.  1.
          1    1    3    3  501    0  0.14199095435E+00 -0.32163389910E+00 -0.27167962749E+01  0.27394510026E+01  0.00000000000E+00 0.  1.
         -1    1    1    2    0  502  0.29071846678E+02 -0.97825341698E+01 -0.38552544370E+03  0.38674376269E+03  0.00000000000E+00 0. -1.
<mgrwt>
<rscale>  1 0.30000000E+03</rscale>
<asrwt>0</asrwt>
<pdfrwt beam="1">  1       21 0.36777310E-02 0.30000000E+03</pdfrwt>
<pdfrwt beam="2">0</pdfrwt>
<totfact> 0.48423566E+04</totfact>
</mgrwt>
</event>
<event>
 6    1  0.1284012E-001  0.3000000E+03  0.7818608E-02  0.1093470E+00
         21   -1    0    0  501  502  0.00000000000E+00  0.00000000000E+00  0.25681595755E+01  0.25681595755E+01  0.00000000000E+00 0. -1.
         13   -1    0    0    0    0 -0.00000000000E+00 -0.00000000000E+00 -0.10000000000E+04  0.10000000000E+04  0.00000000000E+00 0.  1.
    9000005    2    1    2  501    0  0.37196760065E+02  0.86972381520E+01 -0.82783051426E+03  0.82871807833E+03  0.33244709763E+01 0.  0.
         13    1    3    3    0    0  0.30979197344E+02  0.81534306078E+01 -0.67346666958E+03  0.67422810987E+03  0.00000000000E+00 0.  1.
          1    1    3    3  501    0  0.62175627216E+01  0.54380754415E+00 -0.15436384468E+03  0.15448996847E+03  0.00000000000E+00 0.  1.
         -3    1    1    2    0  502 -0.37196760065E+02 -0.86972381520E+01 -0.16960132617E+03  0.17385008124E+03  0.00000000000E+00 0. -1.
<mgrwt>
<rscale>  1 0.30000000E+03</rscale>
<asrwt>0</asrwt>
<pdfrwt beam="1">  1       21 0.93387818E-02 0.30000000E+03</pdfrwt>
<pdfrwt beam="2">0</pdfrwt>
<totfact> 0.97193237E+03</totfact>
</mgrwt>
</event>
<event>
 6    1  0.1284012E-001  0.3000000E+03  0.7818608E-02  0.1093470E+00
         21   -1    0    0  501  502  0.00000000000E+00  0.00000000000E+00  0.95119176026E+00  0.95119176026E+00  0.00000000000E+00 0. -1.
         13   -1    0    0    0    0 -0.00000000000E+00 -0.00000000000E+00 -0.10000000000E+04  0.10000000000E+04  0.00000000000E+00 0.  1.
    9000005    2    1    2  501    0  0.21620794479E+02 -0.21337649380E+02 -0.57952387327E+03  0.58032793384E+03  0.31364119707E+01 0.  0.
         13    1    3    3    0    0  0.15326057817E+01 -0.28428987642E+01 -0.58782662504E+02  0.58871320393E+02  0.00000000000E+00 0.  1.
          1    1    3    3  501    0  0.20088188697E+02 -0.18494750616E+02 -0.52074121076E+03  0.52145661345E+03  0.00000000000E+00 0.  1.
         -1    1    1    2    0  502 -0.21620794479E+02  0.21337649380E+02 -0.41952493497E+03  0.42062325792E+03  0.00000000000E+00 0. -1.
<mgrwt>
<rscale>  1 0.30000000E+03</rscale>
<asrwt>0</asrwt>
<pdfrwt beam="1">  1       21 0.34588864E-02 0.30000000E+03</pdfrwt>
<pdfrwt beam="2">0</pdfrwt>
<totfact> 0.53667798E+04</totfact>
</mgrwt>
</event>
<event>
 6    1  0.1284012E-001  0.3000000E+03  0.7818608E-02  0.1093470E+00
         21   -1    0    0  501  502  0.00000000000E+00  0.00000000000E+00  0.70917308394E+01  0.70917308394E+01  0.00000000000E+00 0. -1.
         13   -1    0    0    0    0 -0.00000000000E+00 -0.00000000000E+00 -0.10000000000E+04  0.10000000000E+04  0.00000000000E+00 0.  1.
    9000005    2    1    2  501    0  0.37757530728E+02 -0.35161712789E+02 -0.89435895222E+03  0.89585349531E+03  0.36840849151E+01 0.  0.
         13    1    3    3    0    0  0.24837928026E+02 -0.20745474096E+02 -0.56587109882E+03  0.56679572849E+03  0.00000000000E+00 0.  1.
          3    1    3    3  501    0  0.12919602702E+02 -0.14416238693E+02 -0.32848785340E+03  0.32905776682E+03  0.00000000000E+00 0.  1.
         -3    1    1    2    0  502 -0.37757530728E+02  0.35161712789E+02 -0.98549316945E+02  0.11123823553E+03  0.00000000000E+00 0. -1.
<mgrwt>
<rscale>  1 0.30000000E+03</rscale>
<asrwt>0</asrwt>
<pdfrwt beam="1">  1       21 0.25788167E-01 0.30000000E+03</pdfrwt>
<pdfrwt beam="2">0</pdfrwt>
<totfact> 0.14674444E+03</totfact>
</mgrwt>
</event>
<event>
 6    1  0.1284012E-001  0.3000000E+03  0.7818608E-02  0.1093470E+00
         21   -1    0    0  501  502  0.00000000000E+00  0.00000000000E+00  0.81538704989E+01  0.81538704989E+01  0.00000000000E+00 0. -1.
         13   -1    0    0    0    0 -0.00000000000E+00 -0.00000000000E+00 -0.10000000000E+04  0.10000000000E+04  0.00000000000E+00 0.  1.
    9000005    2    1    2  501    0 -0.10960666910E+02 -0.83396991412E+02 -0.31377427809E+03  0.32488479461E+03  0.45428822998E+01 0.  0.
         13    1    3    3    0    0 -0.29335700080E+01 -0.21353472760E+02 -0.88261863722E+02  0.90855562403E+02  0.00000000000E+00 0.  1.
          3    1    3    3  501    0 -0.80270969018E+01 -0.62043518651E+02 -0.22551241437E+03  0.23402923220E+03  0.00000000000E+00 0.  1.
         -3    1    1    2    0  502  0.10960666910E+02  0.83396991412E+02 -0.67807185141E+03  0.68326907589E+03  0.00000000000E+00 0. -1.
<mgrwt>
<rscale>  1 0.30000000E+03</rscale>
<asrwt>0</asrwt>
<pdfrwt beam="1">  1       21 0.29650501E-01 0.30000000E+03</pdfrwt>
<pdfrwt beam="2">0</pdfrwt>
<totfact> 0.11130469E+03</totfact>
</mgrwt>
</event>
<event>
 6    1  0.1284012E-001  0.3000000E+03  0.7818608E-02  0.1093470E+00
         21   -1    0    0  501  502  0.00000000000E+00  0.00000000000E+00  0.34143048619E+01  0.34143048619E+01  0.00000000000E+00 0. -1.
         13   -1    0    0    0    0 -0.00000000000E+00 -0.00000000000E+00 -0.10000000000E+04  0.10000000000E+04  0.00000000000E+00 0.  1.
    9000005    2    1    2  501    0  0.13863752978E+02  0.38840582854E+02 -0.85353908841E+03  0.85454145234E+03  0.33650842119E+01 0.  0.
         13    1    3    3    0    0  0.12657728479E+02  0.31784191034E+02 -0.69973445396E+03  0.70057030978E+03  0.00000000000E+00 0.  1.
          3    1    3    3  501    0  0.12060244983E+01  0.70563918199E+01 -0.15380463445E+03  0.15397114256E+03  0.00000000000E+00 0.  1.
         -1    1    1    2    0  502 -0.13863752978E+02 -0.38840582854E+02 -0.14304660672E+03  0.14887285252E+03  0.00000000000E+00 0. -1.
<mgrwt>
<rscale>  1 0.30000000E+03</rscale>
<asrwt>0</asrwt>
<pdfrwt beam="1">  1       21 0.12415680E-01 0.30000000E+03</pdfrwt>
<pdfrwt beam="2">0</pdfrwt>
<totfact> 0.58250491E+03</totfact>
</mgrwt>
</event>
<event>
 6    1  0.1284012E-001  0.3000000E+03  0.7818608E-02  0.1093470E+00
         21   -1    0    0  501  502  0.00000000000E+00  0.00000000000E+00  0.11994519633E+01  0.11994519633E+01  0.00000000000E+00 0. -1.
         13   -1    0    0    0    0 -0.00000000000E+00 -0.00000000000E+00 -0.10000000000E+04  0.10000000000E+04  0.00000000000E+00 0.  1.
    9000005    2    1    2  501    0 -0.31402230249E+02  0.12976065633E+02 -0.57722476918E+03  0.57825664772E+03  0.61512707423E+01 0.  0.
         13    1    3    3    0    0 -0.21906791911E+01  0.24929988433E+01 -0.75490287074E+02  0.75563202427E+02  0.00000000000E+00 0.  1.
          1    1    3    3  501    0 -0.29211551058E+02  0.10483066790E+02 -0.50173448211E+03  0.50269344529E+03  0.00000000000E+00 0.  1.
         -3    1    1    2    0  502  0.31402230249E+02 -0.12976065633E+02 -0.42157577886E+03  0.42294280424E+03  0.00000000000E+00 0. -1.
<mgrwt>
<rscale>  1 0.30000000E+03</rscale>
<asrwt>0</asrwt>
<pdfrwt beam="1">  1       21 0.43616527E-02 0.30000000E+03</pdfrwt>
<pdfrwt beam="2">0</pdfrwt>
<totfact> 0.36330980E+04</totfact>
</mgrwt>
</event>
<event>
 6    1  0.1284012E-001  0.3000000E+03  0.7818608E-02  0.1093470E+00
         21   -1    0    0  501  502  0.00000000000E+00  0.00000000000E+00  0.32348744220E+01  0.32348744220E+01  0.00000000000E+00 0. -1.
         13   -1    0    0    0    0 -0.00000000000E+00 -0.00000000000E+00 -0.10000000000E+04  0.10000000000E+04  0.00000000000E+00 0.  1.
    9000005    2    1    2  501    0 -0.21422705015E+02 -0.28336974940E+02 -0.89001060474E+03  0.89072512303E+03  0.32329256171E+01 0.  0.
         13    1    3    3    0    0 -0.11885313631E+00  0.86927557557E-01 -0.31733590177E+01  0.31767735083E+01  0.00000000000E+00 0.  1.
          1    1    3    3  501    0 -0.21303851879E+02 -0.28423902497E+02 -0.88683724573E+03  0.88754834953E+03  0.00000000000E+00 0.  1.
         -3    1    1    2    0  502  0.21422705015E+02  0.28336974940E+02 -0.10675452083E+03  0.11250975139E+03  0.00000000000E+00 0. -1.
<mgrwt>
<rscale>  1 0.30000000E+03</rscale>
<asrwt>0</asrwt>
<pdfrwt beam="1">  1       21 0.11763205E-01 0.30000000E+03</pdfrwt>
<pdfrwt beam="2">0</pdfrwt>
<totfact> 0.64251212E+03</totfact>
</mgrwt>
</event>
<event>
 6    1  0.1284012E-001  0.3000000E+03  0.7818608E-02  0.1093470E+00
         21   -1    0    0  501  502  0.00000000000E+00  0.00000000000E+00  0.20838347336E+01  0.20838347336E+01  0.00000000000E+00 0. -1.
         13   -1    0    0    0    0 -0.00000000000E+00 -0.00000000000E+00 -0.10000000000E+04  0.10000000000E+04  0.00000000000E+00 0.  1.
    9000005    2    1    2  501    0 -0.43968690235E+02 -0.30779918178E+01 -0.62780342114E+03  0.62935583321E+03  0.29848696032E+01 0.  0.
         13    1    3    3    0    0 -0.59080914573E+01  0.17007307793E+00 -0.72936867276E+02  0.73175959697E+02  0.00000000000E+00 0.  1.
          1    1    3    3  501    0 -0.38060598777E+02 -0.32480648957E+01 -0.55486655386E+03  0.55617987351E+03  0.00000000000E+00 0.  1.
         -1    1    1    2    0  502  0.43968690235E+02  0.30779918178E+01 -0.37011274413E+03  0.37272800153E+03  0.00000000000E+00 0. -1.
<mgrwt>
<rscale>  1 0.30000000E+03</rscale>
<asrwt>0</asrwt>
<pdfrwt beam="1">  1       21 0.75775968E-02 0.30000000E+03</pdfrwt>
<pdfrwt beam="2">0</pdfrwt>
<totfact> 0.14048923E+04</totfact>
</mgrwt>
</event>
<event>
 6    1  0.1284012E-001  0.3000000E+03  0.7818608E-02  0.1093470E+00
         21   -1    0    0  501  502  0.00000000000E+00  0.00000000000E+00  0.14999230303E+01  0.14999230303E+01  0.00000000000E+00 0. -1.
         13   -1    0    0    0    0 -0.00000000000E+00 -0.00000000000E+00 -0.10000000000E+04  0.10000000000E+04  0.00000000000E+00 0.  1.
    9000005    2    1    2  501    0  0.49854325178E+01 -0.36048354232E+02 -0.66852259871E+03  0.66952179944E+03  0.35547948665E+01 0.  0.
         13    1    3    3    0    0 -0.22678156169E+00 -0.77475501928E+01 -0.15456663814E+03  0.15476085289E+03  0.00000000000E+00 0.  1.
          3    1    3    3  501    0  0.52122140794E+01 -0.28300804039E+02 -0.51395596057E+03  0.51476094655E+03  0.00000000000E+00 0.  1.
         -3    1    1    2    0  502 -0.49854325178E+01  0.36048354232E+02 -0.32997747826E+03  0.33197812359E+03  0.00000000000E+00 0. -1.
<mgrwt>
<rscale>  1 0.30000000E+03</rscale>
<asrwt>0</asrwt>
<pdfrwt beam="1">  1       21 0.54542771E-02 0.30000000E+03</pdfrwt>
<pdfrwt beam="2">0</pdfrwt>
<totfact> 0.24826886E+04</totfact>
</mgrwt>
</event>
<event>
 6    1  0.1284012E-001  0.3000000E+03  0.7818608E-02  0.1093470E+00
         21   -1    0    0  501  502  0.00000000000E+00  0.00000000000E+00  0.31417149575E+01  0.31417149575E+01  0.00000000000E+00 0. -1.
         13   -1    0    0    0    0 -0.00000000000E+00 -0.00000000000E+00 -0.10000000000E+04  0.10000000000E+04  0.00000000000E+00 0.  1.
    9000005    2    1    2  501    0 -0.17174202923E+02 -0.46732086270E+02 -0.72539630653E+03  0.72715177509E+03  0.84297893243E+01 0.  0.
         13    1    3    3    0    0 -0.55121458997E+01 -0.62793998504E+01 -0.10963702859E+03  0.10995495738E+03  0.00000000000E+00 0.  1.
          3    1    3    3  501    0 -0.11662057023E+02 -0.40452686419E+02 -0.61575927794E+03  0.61719681770E+03  0.00000000000E+00 0.  1.
         -3    1    1    2    0  502  0.17174202923E+02  0.46732086270E+02 -0.27146197851E+03  0.27598993987E+03  0.00000000000E+00 0. -1.
<mgrwt>
<rscale>  1 0.30000000E+03</rscale>
<asrwt>0</asrwt>
<pdfrwt beam="1">  1       21 0.11424442E-01 0.30000000E+03</pdfrwt>
<pdfrwt beam="2">0</pdfrwt>
<totfact> 0.67737160E+03</totfact>
</mgrwt>
</event>
<event>
 6    1  0.1284012E-001  0.3000000E+03  0.7818608E-02  0.1093470E+00
         21   -1    0    0  501  502  0.00000000000E+00  0.00000000000E+00  0.29367200717E+01  0.29367200717E+01  0.00000000000E+00 0. -1.
         13   -1    0    0    0    0 -0.00000000000E+00 -0.00000000000E+00 -0.10000000000E+04  0.10000000000E+04  0.00000000000E+00 0.  1.
    9000005    2    1    2  501    0 -0.34550459915E+02  0.36686004668E+02 -0.31583303402E+03  0.31984503870E+03  0.32781372740E+01 0.  0.
         13    1    3    3    0    0 -0.98717525711E+01  0.11986271241E+02 -0.10437232425E+03  0.10552110816E+03  0.00000000000E+00 0.  1.
          3    1    3    3  501    0 -0.24678707344E+02  0.24699733426E+02 -0.21146070977E+03  0.21432393054E+03  0.00000000000E+00 0.  1.
         -1    1    1    2    0  502  0.34550459915E+02 -0.36686004668E+02 -0.68123024591E+03  0.68309168137E+03  0.00000000000E+00 0. -1.
<mgrwt>
<rscale>  1 0.30000000E+03</rscale>
<asrwt>0</asrwt>
<pdfrwt beam="1">  1       21 0.10679005E-01 0.30000000E+03</pdfrwt>
<pdfrwt beam="2">0</pdfrwt>
<totfact> 0.76484099E+03</totfact>
</mgrwt>
</event>
<event>
 6    1  0.1284012E-001  0.3000000E+03  0.7818608E-02  0.1093470E+00
         21   -1    0    0  501  502  0.00000000000E+00  0.00000000000E+00  0.13472693275E+01  0.13472693275E+01  0.00000000000E+00 0. -1.
         13   -1    0    0    0    0 -0.00000000000E+00 -0.00000000000E+00 -0.10000000000E+04  0.10000000000E+04  0.00000000000E+00 0.  1.
    9000005    2    1    2  501    0 -0.20077420057E+02 -0.29608418913E+02 -0.60830460057E+03  0.60936331055E+03  0.30652731511E+01 0.  0.
         13    1    3    3    0    0 -0.35253677617E+01 -0.33542545876E+01 -0.80061982668E+02  0.80209727031E+02  0.00000000000E+00 0.  1.
          1    1    3    3  501    0 -0.16552052295E+02 -0.26254164326E+02 -0.52824261791E+03  0.52915358352E+03  0.00000000000E+00 0.  1.
         -3    1    1    2    0  502  0.20077420057E+02  0.29608418913E+02 -0.39034813010E+03  0.39198395878E+03  0.00000000000E+00 0. -1.
<mgrwt>
<rscale>  1 0.30000000E+03</rscale>
<asrwt>0</asrwt>
<pdfrwt beam="1">  1       21 0.48991715E-02 0.30000000E+03</pdfrwt>
<pdfrwt beam="2">0</pdfrwt>
<totfact> 0.29822061E+04</totfact>
</mgrwt>
</event>
<event>
 6    1  0.1284012E-001  0.3000000E+03  0.7818608E-02  0.1093470E+00
         21   -1    0    0  501  502  0.00000000000E+00  0.00000000000E+00  0.11323431142E+01  0.11323431142E+01  0.00000000000E+00 0. -1.
         13   -1    0    0    0    0 -0.00000000000E+00 -0.00000000000E+00 -0.10000000000E+04  0.10000000000E+04  0.00000000000E+00 0.  1.
    9000005    2    1    2  501    0 -0.42832021782E+01 -0.32116953143E+02 -0.63226421410E+03  0.63309983264E+03  0.27417445572E+01 0.  0.
         13    1    3    3    0    0 -0.11471162620E+01 -0.61221964212E+01 -0.10268061206E+03  0.10286936015E+03  0.00000000000E+00 0.  1.
          3    1    3    3  501    0 -0.31360859162E+01 -0.25994756722E+02 -0.52958360204E+03  0.53023047249E+03  0.00000000000E+00 0.  1.
         -3    1    1    2    0  502  0.42832021782E+01  0.32116953143E+02 -0.36660344279E+03  0.36803251047E+03  0.00000000000E+00 0. -1.
<mgrwt>
<rscale>  1 0.30000000E+03</rscale>
<asrwt>0</asrwt>
<pdfrwt beam="1">  1       21 0.41176200E-02 0.30000000E+03</pdfrwt>
<pdfrwt beam="2">0</pdfrwt>
<totfact> 0.40042992E+04</totfact>
</mgrwt>
</event>
<event>
 6    1  0.1284012E-001  0.3000000E+03  0.7818608E-02  0.1093470E+00
         21   -1    0    0  501  502  0.00000000000E+00  0.00000000000E+00  0.15121992476E+01  0.15121992476E+01  0.00000000000E+00 0. -1.
         13   -1    0    0    0    0 -0.00000000000E+00 -0.00000000000E+00 -0.10000000000E+04  0.10000000000E+04  0.00000000000E+00 0.  1.
    9000005    2    1    2  501    0 -0.17015440223E+02 -0.27633907205E+02 -0.77431920978E+03  0.77500675735E+03  0.34752354152E+01 0.  0.
         13    1    3    3    0    0 -0.55856652636E+01 -0.61884069608E+01 -0.19634489192E+03  0.19652178663E+03  0.00000000000E+00 0.  1.
          1    1    3    3  501    0 -0.11429774960E+02 -0.21445500244E+02 -0.57797431787E+03  0.57848497072E+03  0.00000000000E+00 0.  1.
         -1    1    1    2    0  502  0.17015440223E+02  0.27633907205E+02 -0.22416859097E+03  0.22650544190E+03  0.00000000000E+00 0. -1.
<mgrwt>
<rscale>  1 0.30000000E+03</rscale>
<asrwt>0</asrwt>
<pdfrwt beam="1">  1       21 0.54989180E-02 0.30000000E+03</pdfrwt>
<pdfrwt beam="2">0</pdfrwt>
<totfact> 0.24482407E+04</totfact>
</mgrwt>
</event>
<event>
 6    1  0.1284012E-001  0.3000000E+03  0.7818608E-02  0.1093470E+00
         21   -1    0    0  501  502  0.00000000000E+00  0.00000000000E+00  0.23861253680E+01  0.23861253680E+01  0.00000000000E+00 0. -1.
         13   -1    0    0    0    0 -0.00000000000E+00 -0.00000000000E+00 -0.10000000000E+04  0.10000000000E+04  0.00000000000E+00 0.  1.
    9000005    2    1    2  501    0  0.41775934169E+01  0.48380548865E+02 -0.45215152016E+03  0.45476644900E+03  0.36600766633E+01 0.  0.
         13    1    3    3    0    0  0.27527824549E+01  0.16306825956E+02 -0.16416193790E+03  0.16499282481E+03  0.00000000000E+00 0.  1.
          3    1    3    3  501    0  0.14248109620E+01  0.32073722909E+02 -0.28798958226E+03  0.28977362419E+03  0.00000000000E+00 0.  1.
         -3    1    1    2    0  502 -0.41775934169E+01 -0.48380548865E+02 -0.54546235448E+03  0.54761967637E+03  0.00000000000E+00 0. -1.
<mgrwt>
<rscale>  1 0.30000000E+03</rscale>
<asrwt>0</asrwt>
<pdfrwt beam="1">  1       21 0.86768378E-02 0.30000000E+03</pdfrwt>
<pdfrwt beam="2">0</pdfrwt>
<totfact> 0.11071548E+04</totfact>
</mgrwt>
</event>
<event>
 6    1  0.1284012E-001  0.3000000E+03  0.7818608E-02  0.1093470E+00
         21   -1    0    0  501  502  0.00000000000E+00  0.00000000000E+00  0.54232983334E+01  0.54232983334E+01  0.00000000000E+00 0. -1.
         13   -1    0    0    0    0 -0.00000000000E+00 -0.00000000000E+00 -0.10000000000E+04  0.10000000000E+04  0.00000000000E+00 0.  1.
    9000005    2    1    2  501    0  0.38157049359E+02 -0.47557428163E+02 -0.77899783637E+03  0.78138777313E+03  0.33990502970E+01 0.  0.
         13    1    3    3    0    0  0.20985733825E+02 -0.28651895309E+02 -0.44531832199E+03  0.44673229123E+03  0.00000000000E+00 0.  1.
          3    1    3    3  501    0  0.17171315535E+02 -0.18905532855E+02 -0.33367951438E+03  0.33465548190E+03  0.00000000000E+00 0.  1.
         -3    1    1    2    0  502 -0.38157049359E+02  0.47557428163E+02 -0.21557886530E+03  0.22403552520E+03  0.00000000000E+00 0. -1.
<mgrwt>
<rscale>  1 0.30000000E+03</rscale>
<asrwt>0</asrwt>
<pdfrwt beam="1">  1       21 0.19721126E-01 0.30000000E+03</pdfrwt>
<pdfrwt beam="2">0</pdfrwt>
<totfact> 0.24643360E+03</totfact>
</mgrwt>
</event>
<event>
 6    1  0.1284012E-001  0.3000000E+03  0.7818608E-02  0.1093470E+00
         21   -1    0    0  501  502  0.00000000000E+00  0.00000000000E+00  0.94389876199E+00  0.94389876199E+00  0.00000000000E+00 0. -1.
         13   -1    0    0    0    0 -0.00000000000E+00 -0.00000000000E+00 -0.10000000000E+04  0.10000000000E+04  0.00000000000E+00 0.  1.
    9000005    2    1    2  501    0 -0.20305852911E+02  0.22455681203E+02 -0.42248483758E+03  0.42357832362E+03  0.29279645634E+01 0.  0.
         13    1    3    3    0    0 -0.18013767006E+02  0.19277840428E+02 -0.37903034444E+03  0.37994753972E+03  0.00000000000E+00 0.  1.
          3    1    3    3  501    0 -0.22920859052E+01  0.31778407757E+01 -0.43454493139E+02  0.43630783901E+02  0.00000000000E+00 0.  1.
         -1    1    1    2    0  502  0.20305852911E+02 -0.22455681203E+02 -0.57657126366E+03  0.57736557514E+03  0.00000000000E+00 0. -1.
<mgrwt>
<rscale>  1 0.30000000E+03</rscale>
<asrwt>0</asrwt>
<pdfrwt beam="1">  1       21 0.34323664E-02 0.30000000E+03</pdfrwt>
<pdfrwt beam="2">0</pdfrwt>
<totfact> 0.54363167E+04</totfact>
</mgrwt>
</event>
<event>
 6    1  0.1284012E-001  0.3000000E+03  0.7818608E-02  0.1093470E+00
         21   -1    0    0  501  502  0.00000000000E+00  0.00000000000E+00  0.75820978273E+01  0.75820978273E+01  0.00000000000E+00 0. -1.
         13   -1    0    0    0    0 -0.00000000000E+00 -0.00000000000E+00 -0.10000000000E+04  0.10000000000E+04  0.00000000000E+00 0.  1.
    9000005    2    1    2  501    0  0.46508693998E+02  0.14933844805E+02 -0.91321775006E+03  0.91452973390E+03  0.34491770221E+01 0.  0.
         13    1    3    3    0    0  0.69000991603E+01  0.21149169389E+01 -0.11366428996E+03  0.11389317387E+03  0.00000000000E+00 0.  1.
          3    1    3    3  501    0  0.39608594837E+02  0.12818927866E+02 -0.79955346010E+03  0.80063656003E+03  0.00000000000E+00 0.  1.
         -3    1    1    2    0  502 -0.46508693998E+02 -0.14933844805E+02 -0.79200152112E+02  0.93052363928E+02  0.00000000000E+00 0. -1.
<mgrwt>
<rscale>  1 0.30000000E+03</rscale>
<asrwt>0</asrwt>
<pdfrwt beam="1">  1       21 0.27571323E-01 0.30000000E+03</pdfrwt>
<pdfrwt beam="2">0</pdfrwt>
<totfact> 0.12861138E+03</totfact>
</mgrwt>
</event>
<event>
 6    1  0.1284012E-001  0.3000000E+03  0.7818608E-02  0.1093470E+00
         21   -1    0    0  501  502  0.00000000000E+00  0.00000000000E+00  0.23614311120E+01  0.23614311120E+01  0.00000000000E+00 0. -1.
         13   -1    0    0    0    0 -0.00000000000E+00 -0.00000000000E+00 -0.10000000000E+04  0.10000000000E+04  0.00000000000E+00 0.  1.
    9000005    2    1    2  501    0 -0.24306132275E+02  0.21957659565E+02 -0.86888569106E+03  0.86950726132E+03  0.27579875324E+01 0.  0.
         13    1    3    3    0    0 -0.67720143841E+01  0.78168982046E+01 -0.26759808188E+03  0.26779786688E+03  0.00000000000E+00 0.  1.
          3    1    3    3  501    0 -0.17534117891E+02  0.14140761360E+02 -0.60128760917E+03  0.60170939445E+03  0.00000000000E+00 0.  1.
         -1    1    1    2    0  502  0.24306132275E+02 -0.21957659565E+02 -0.12875287783E+03  0.13285416979E+03  0.00000000000E+00 0. -1.
<mgrwt>
<rscale>  1 0.30000000E+03</rscale>
<asrwt>0</asrwt>
<pdfrwt beam="1">  1       21 0.85870403E-02 0.30000000E+03</pdfrwt>
<pdfrwt beam="2">0</pdfrwt>
<totfact> 0.11276764E+04</totfact>
</mgrwt>
</event>
<event>
 6    1  0.1284012E-001  0.3000000E+03  0.7818608E-02  0.1093470E+00
         21   -1    0    0  501  502  0.00000000000E+00  0.00000000000E+00  0.23055111693E+01  0.23055111693E+01  0.00000000000E+00 0. -1.
         13   -1    0    0    0    0 -0.00000000000E+00 -0.00000000000E+00 -0.10000000000E+04  0.10000000000E+04  0.00000000000E+00 0.  1.
    9000005    2    1    2  501    0  0.22423543517E+02  0.24692531136E+02 -0.85901082338E+03  0.85966717319E+03  0.39392365383E+01 0.  0.
         13    1    3    3    0    0  0.90402403818E+01  0.12528457474E+02 -0.41961665245E+03  0.41990096833E+03  0.00000000000E+00 0.  1.
          1    1    3    3  501    0  0.13383303135E+02  0.12164073662E+02 -0.43939417093E+03  0.43976620486E+03  0.00000000000E+00 0.  1.
         -1    1    1    2    0  502 -0.22423543517E+02 -0.24692531136E+02 -0.13868366546E+03  0.14263833798E+03  0.00000000000E+00 0. -1.
<mgrwt>
<rscale>  1 0.30000000E+03</rscale>
<asrwt>0</asrwt>
<pdfrwt beam="1">  1       21 0.83836947E-02 0.30000000E+03</pdfrwt>
<pdfrwt beam="2">0</pdfrwt>
<totfact> 0.11763471E+04</totfact>
</mgrwt>
</event>
<event>
 6    1  0.1284012E-001  0.3000000E+03  0.7818608E-02  0.1093470E+00
         21   -1    0    0  501  502  0.00000000000E+00  0.00000000000E+00  0.19912930027E+01  0.19912930027E+01  0.00000000000E+00 0. -1.
         13   -1    0    0    0    0 -0.00000000000E+00 -0.00000000000E+00 -0.10000000000E+04  0.10000000000E+04  0.00000000000E+00 0.  1.
    9000005    2    1    2  501    0  0.62045859351E+01  0.29983845837E+02 -0.86308738847E+03  0.86363924173E+03  0.39206918798E+01 0.  0.
         13    1    3    3    0    0 -0.49385771414E+00  0.13749449824E+01 -0.34042581555E+02  0.34073915655E+02  0.00000000000E+00 0.  1.
          3    1    3    3  501    0  0.66984436492E+01  0.28608900855E+02 -0.82904480691E+03  0.82956532607E+03  0.00000000000E+00 0.  1.
         -1    1    1    2    0  502 -0.62045859351E+01 -0.29983845837E+02 -0.13492131853E+03  0.13835205128E+03  0.00000000000E+00 0. -1.
<mgrwt>
<rscale>  1 0.30000000E+03</rscale>
<asrwt>0</asrwt>
<pdfrwt beam="1">  1       21 0.72410807E-02 0.30000000E+03</pdfrwt>
<pdfrwt beam="2">0</pdfrwt>
<totfact> 0.15210650E+04</totfact>
</mgrwt>
</event>
<event>
 6    1  0.1284012E-001  0.3000000E+03  0.7818608E-02  0.1093470E+00
         21   -1    0    0  501  502  0.00000000000E+00  0.00000000000E+00  0.31329174237E+01  0.31329174237E+01  0.00000000000E+00 0. -1.
         13   -1    0    0    0    0 -0.00000000000E+00 -0.00000000000E+00 -0.10000000000E+04  0.10000000000E+04  0.00000000000E+00 0.  1.
    9000005    2    1    2  501    0  0.16058823709E+02  0.41743457124E+02 -0.19787718464E+03  0.20289216675E+03  0.30739382976E+01 0.  0.
         13    1    3    3    0    0  0.15291702196E+02  0.41016973422E+02 -0.19315201044E+03  0.19805031533E+03  0.00000000000E+00 0.  1.
          3    1    3    3  501    0  0.76712151301E+00  0.72648370203E+00 -0.47251742048E+01  0.48418514280E+01  0.00000000000E+00 0.  1.
         -3    1    1    2    0  502 -0.16058823709E+02 -0.41743457124E+02 -0.79898989793E+03  0.80024075067E+03  0.00000000000E+00 0. -1.
<mgrwt>
<rscale>  1 0.30000000E+03</rscale>
<asrwt>0</asrwt>
<pdfrwt beam="1">  1       21 0.11392451E-01 0.30000000E+03</pdfrwt>
<pdfrwt beam="2">0</pdfrwt>
<totfact> 0.68080909E+03</totfact>
</mgrwt>
</event>
<event>
 6    1  0.1284012E-001  0.3000000E+03  0.7818608E-02  0.1093470E+00
         21   -1    0    0  501  502  0.00000000000E+00  0.00000000000E+00  0.25751028057E+01  0.25751028057E+01  0.00000000000E+00 0. -1.
         13   -1    0    0    0    0 -0.00000000000E+00 -0.00000000000E+00 -0.10000000000E+04  0.10000000000E+04  0.00000000000E+00 0.  1.
    9000005    2    1    2  501    0  0.22504315425E+01 -0.31699220341E+02 -0.88838252521E+03  0.88899630240E+03  0.90005322060E+01 0.  0.
         13    1    3    3    0    0  0.24519409963E+01 -0.16808684932E+01 -0.68762519539E+02  0.68826749356E+02  0.00000000000E+00 0.  1.
          3    1    3    3  501    0 -0.20150945378E+00 -0.30018351848E+02 -0.81962000567E+03  0.82016955305E+03  0.00000000000E+00 0.  1.
         -1    1    1    2    0  502 -0.22504315425E+01  0.31699220341E+02 -0.10904237198E+03  0.11357880040E+03  0.00000000000E+00 0. -1.
<mgrwt>
<rscale>  1 0.30000000E+03</rscale>
<asrwt>0</asrwt>
<pdfrwt beam="1">  1       21 0.93640299E-02 0.30000000E+03</pdfrwt>
<pdfrwt beam="2">0</pdfrwt>
<totfact> 0.96727695E+03</totfact>
</mgrwt>
</event>
<event>
 6    1  0.1284012E-001  0.3000000E+03  0.7818608E-02  0.1093470E+00
         21   -1    0    0  501  502  0.00000000000E+00  0.00000000000E+00  0.20859859045E+01  0.20859859045E+01  0.00000000000E+00 0. -1.
         13   -1    0    0    0    0 -0.00000000000E+00 -0.00000000000E+00 -0.10000000000E+04  0.10000000000E+04  0.00000000000E+00 0.  1.
    9000005    2    1    2  501    0  0.10572971717E+02 -0.29500887906E+02 -0.86190387533E+03  0.86251217760E+03  0.81777795285E+01 0.  0.
         13    1    3    3    0    0  0.67262635556E+01 -0.14826936340E+02 -0.34240932540E+03  0.34279618841E+03  0.00000000000E+00 0.  1.
          1    1    3    3  501    0  0.38467081613E+01 -0.14673951566E+02 -0.51949454992E+03  0.51971598919E+03  0.00000000000E+00 0.  1.
         -3    1    1    2    0  502 -0.10572971717E+02  0.29500887906E+02 -0.13601013877E+03  0.13957380831E+03  0.00000000000E+00 0. -1.
<mgrwt>
<rscale>  1 0.30000000E+03</rscale>
<asrwt>0</asrwt>
<pdfrwt beam="1">  1       21 0.75854193E-02 0.30000000E+03</pdfrwt>
<pdfrwt beam="2">0</pdfrwt>
<totfact> 0.14023554E+04</totfact>
</mgrwt>
</event>
<event>
 6    1  0.1284012E-001  0.3000000E+03  0.7818608E-02  0.1093470E+00
         21   -1    0    0  501  502  0.00000000000E+00  0.00000000000E+00  0.29955299100E+01  0.29955299100E+01  0.00000000000E+00 0. -1.
         13   -1    0    0    0    0 -0.00000000000E+00 -0.00000000000E+00 -0.10000000000E+04  0.10000000000E+04  0.00000000000E+00 0.  1.
    9000005    2    1    2  501    0  0.27506929031E+02  0.20332882968E+02 -0.88985355826E+03  0.89051719786E+03  0.33863348208E+01 0.  0.
         13    1    3    3    0    0  0.18457707078E+02  0.14032503185E+02 -0.64180607761E+03  0.64222475766E+03  0.00000000000E+00 0.  1.
          1    1    3    3  501    0  0.90492219530E+01  0.63003797830E+01 -0.24804748065E+03  0.24829244020E+03  0.00000000000E+00 0.  1.
         -3    1    1    2    0  502 -0.27506929031E+02 -0.20332882968E+02 -0.10715091183E+03  0.11247833205E+03  0.00000000000E+00 0. -1.
<mgrwt>
<rscale>  1 0.30000000E+03</rscale>
<asrwt>0</asrwt>
<pdfrwt beam="1">  1       21 0.10892859E-01 0.30000000E+03</pdfrwt>
<pdfrwt beam="2">0</pdfrwt>
<totfact> 0.73808053E+03</totfact>
</mgrwt>
</event>
<event>
 6    1  0.1284012E-001  0.3000000E+03  0.7818608E-02  0.1093470E+00
         21   -1    0    0  501  502  0.00000000000E+00  0.00000000000E+00  0.92816957510E+00  0.92816957510E+00  0.00000000000E+00 0. -1.
         13   -1    0    0    0    0 -0.00000000000E+00 -0.00000000000E+00 -0.10000000000E+04  0.10000000000E+04  0.00000000000E+00 0.  1.
    9000005    2    1    2  501    0  0.19912588942E+02  0.22595730568E+02 -0.53409147928E+03  0.53497344517E+03  0.59833574619E+01 0.  0.
         13    1    3    3    0    0  0.15135597989E+02  0.14804076277E+02 -0.33099443299E+03  0.33167086346E+03  0.00000000000E+00 0.  1.
          3    1    3    3  501    0  0.47769909529E+01  0.77916542911E+01 -0.20309704629E+03  0.20330258171E+03  0.00000000000E+00 0.  1.
         -1    1    1    2    0  502 -0.19912588942E+02 -0.22595730568E+02 -0.46498035115E+03  0.46595472440E+03  0.00000000000E+00 0. -1.
<mgrwt>
<rscale>  1 0.30000000E+03</rscale>
<asrwt>0</asrwt>
<pdfrwt beam="1">  1       21 0.33751692E-02 0.30000000E+03</pdfrwt>
<pdfrwt beam="2">0</pdfrwt>
<totfact> 0.55911553E+04</totfact>
</mgrwt>
</event>
<event>
 6    1  0.1284012E-001  0.3000000E+03  0.7818608E-02  0.1093470E+00
         21   -1    0    0  501  502  0.00000000000E+00  0.00000000000E+00  0.53663224144E+01  0.53663224144E+01  0.00000000000E+00 0. -1.
         13   -1    0    0    0    0 -0.00000000000E+00 -0.00000000000E+00 -0.10000000000E+04  0.10000000000E+04  0.00000000000E+00 0.  1.
    9000005    2    1    2  501    0 -0.36149337822E+02  0.44128824872E+00 -0.93441888438E+03  0.93513249380E+03  0.52115377490E+01 0.  0.
         13    1    3    3    0    0 -0.24559976054E+02  0.25263820258E+01 -0.65733247442E+03  0.65779598430E+03  0.00000000000E+00 0.  1.
          1    1    3    3  501    0 -0.11589361768E+02 -0.20850937771E+01 -0.27708640995E+03  0.27733650950E+03  0.00000000000E+00 0.  1.
         -1    1    1    2    0  502  0.36149337822E+02 -0.44128824872E+00 -0.60214793209E+02  0.70233828612E+02  0.00000000000E+00 0. -1.
<mgrwt>
<rscale>  1 0.30000000E+03</rscale>
<asrwt>0</asrwt>
<pdfrwt beam="1">  1       21 0.19513941E-01 0.30000000E+03</pdfrwt>
<pdfrwt beam="2">0</pdfrwt>
<totfact> 0.25143819E+03</totfact>
</mgrwt>
</event>
<event>
 6    1  0.1284012E-001  0.3000000E+03  0.7818608E-02  0.1093470E+00
         21   -1    0    0  501  502  0.00000000000E+00  0.00000000000E+00  0.11180950490E+01  0.11180950490E+01  0.00000000000E+00 0. -1.
         13   -1    0    0    0    0 -0.00000000000E+00 -0.00000000000E+00 -0.10000000000E+04  0.10000000000E+04  0.00000000000E+00 0.  1.
    9000005    2    1    2  501    0  0.24834967840E+02  0.20714202609E+02 -0.58992444920E+03  0.59088394919E+03  0.93344429324E+01 0.  0.
         13    1    3    3    0    0  0.48503256362E+01  0.26731902893E+01 -0.53899654350E+02  0.54183432377E+02  0.00000000000E+00 0.  1.
          3    1    3    3  501    0  0.19984642204E+02  0.18041012319E+02 -0.53602479485E+03  0.53670051681E+03  0.00000000000E+00 0.  1.
         -3    1    1    2    0  502 -0.24834967840E+02 -0.20714202609E+02 -0.40895745575E+03  0.41023414586E+03  0.00000000000E+00 0. -1.
<mgrwt>
<rscale>  1 0.30000000E+03</rscale>
<asrwt>0</asrwt>
<pdfrwt beam="1">  1       21 0.40658088E-02 0.30000000E+03</pdfrwt>
<pdfrwt beam="2">0</pdfrwt>
<totfact> 0.40907098E+04</totfact>
</mgrwt>
</event>
<event>
 6    1  0.1284012E-001  0.3000000E+03  0.7818608E-02  0.1093470E+00
         21   -1    0    0  501  502  0.00000000000E+00  0.00000000000E+00  0.29629646734E+01  0.29629646734E+01  0.00000000000E+00 0. -1.
         13   -1    0    0    0    0 -0.00000000000E+00 -0.00000000000E+00 -0.10000000000E+04  0.10000000000E+04  0.00000000000E+00 0.  1.
    9000005    2    1    2  501    0  0.35783429396E+02  0.33459309372E+02 -0.71441312106E+03  0.71612458489E+03  0.69522898385E+01 0.  0.
         13    1    3    3    0    0  0.17110945589E+02  0.15849486287E+02 -0.29023237975E+03  0.29116803556E+03  0.00000000000E+00 0.  1.
          1    1    3    3  501    0  0.18672483808E+02  0.17609823085E+02 -0.42418074131E+03  0.42495654933E+03  0.00000000000E+00 0.  1.
         -3    1    1    2    0  502 -0.35783429396E+02 -0.33459309372E+02 -0.28262391426E+03  0.28683837978E+03  0.00000000000E+00 0. -1.
<mgrwt>
<rscale>  1 0.30000000E+03</rscale>
<asrwt>0</asrwt>
<pdfrwt beam="1">  1       21 0.10774440E-01 0.30000000E+03</pdfrwt>
<pdfrwt beam="2">0</pdfrwt>
<totfact> 0.75272048E+03</totfact>
</mgrwt>
</event>
<event>
 6    1  0.1284012E-001  0.3000000E+03  0.7818608E-02  0.1093470E+00
         21   -1    0    0  501  502  0.00000000000E+00  0.00000000000E+00  0.12280396551E+01  0.12280396551E+01  0.00000000000E+00 0. -1.
         13   -1    0    0    0    0 -0.00000000000E+00 -0.00000000000E+00 -0.10000000000E+04  0.10000000000E+04  0.00000000000E+00 0.  1.
    9000005    2    1    2  501    0  0.27555372410E+02 -0.16011081640E+02 -0.29512975015E+03  0.29686448775E+03  0.33617524852E+01 0.  0.
         13    1    3    3    0    0  0.13604384321E+02 -0.72586186280E+01 -0.15743239509E+03  0.15818573210E+03  0.00000000000E+00 0.  1.
          3    1    3    3  501    0  0.13950988089E+02 -0.87524630116E+01 -0.13769735506E+03  0.13867875565E+03  0.00000000000E+00 0.  1.
         -3    1    1    2    0  502 -0.27555372410E+02  0.16011081640E+02 -0.70364221019E+03  0.70436355190E+03  0.00000000000E+00 0. -1.
<mgrwt>
<rscale>  1 0.30000000E+03</rscale>
<asrwt>0</asrwt>
<pdfrwt beam="1">  1       21 0.44656082E-02 0.30000000E+03</pdfrwt>
<pdfrwt beam="2">0</pdfrwt>
<totfact> 0.34909581E+04</totfact>
</mgrwt>
</event>
<event>
 6    1  0.1284012E-001  0.3000000E+03  0.7818608E-02  0.1093470E+00
         21   -1    0    0  501  502  0.00000000000E+00  0.00000000000E+00  0.17250000347E+01  0.17250000347E+01  0.00000000000E+00 0. -1.
         13   -1    0    0    0    0 -0.00000000000E+00 -0.00000000000E+00 -0.10000000000E+04  0.10000000000E+04  0.00000000000E+00 0.  1.
    9000005    2    1    2  501    0  0.23915608428E+02 -0.29090972731E+02 -0.70909641077E+03  0.71010453184E+03  0.35334618322E+01 0.  0.
         13    1    3    3    0    0  0.18545766914E+02 -0.22822300611E+02 -0.57928700191E+03  0.58003295894E+03  0.00000000000E+00 0.  1.
          3    1    3    3  501    0  0.53698415138E+01 -0.62686721207E+01 -0.12980940886E+03  0.13007157290E+03  0.00000000000E+00 0.  1.
         -3    1    1    2    0  502 -0.23915608428E+02  0.29090972731E+02 -0.28917858920E+03  0.29162046820E+03  0.00000000000E+00 0. -1.
<mgrwt>
<rscale>  1 0.30000000E+03</rscale>
<asrwt>0</asrwt>
<pdfrwt beam="1">  1       21 0.62727406E-02 0.30000000E+03</pdfrwt>
<pdfrwt beam="2">0</pdfrwt>
<totfact> 0.19515114E+04</totfact>
</mgrwt>
</event>
<event>
 6    1  0.1284012E-001  0.3000000E+03  0.7818608E-02  0.1093470E+00
         21   -1    0    0  501  502  0.00000000000E+00  0.00000000000E+00  0.27285888940E+01  0.27285888940E+01  0.00000000000E+00 0. -1.
         13   -1    0    0    0    0 -0.00000000000E+00 -0.00000000000E+00 -0.10000000000E+04  0.10000000000E+04  0.00000000000E+00 0.  1.
    9000005    2    1    2  501    0  0.34930639480E+02  0.34354634415E+02 -0.66403010025E+03  0.66590495293E+03  0.96458189853E+01 0.  0.
         13    1    3    3    0    0  0.35425748131E+02  0.34115246051E+02 -0.64725598959E+03  0.64912182963E+03  0.00000000000E+00 0.  1.
          3    1    3    3  501    0 -0.49510865055E+00  0.23938836427E+00 -0.16774110661E+02  0.16783123304E+02  0.00000000000E+00 0.  1.
         -3    1    1    2    0  502 -0.34930639480E+02 -0.34354634415E+02 -0.33324131086E+03  0.33682363596E+03  0.00000000000E+00 0. -1.
<mgrwt>
<rscale>  1 0.30000000E+03</rscale>
<asrwt>0</asrwt>
<pdfrwt beam="1">  1       21 0.99221624E-02 0.30000000E+03</pdfrwt>
<pdfrwt beam="2">0</pdfrwt>
<totfact> 0.87241362E+03</totfact>
</mgrwt>
</event>
<event>
 6    1  0.1284012E-001  0.3000000E+03  0.7818608E-02  0.1093470E+00
         21   -1    0    0  501  502  0.00000000000E+00  0.00000000000E+00  0.60201594536E+01  0.60201594536E+01  0.00000000000E+00 0. -1.
         13   -1    0    0    0    0 -0.00000000000E+00 -0.00000000000E+00 -0.10000000000E+04  0.10000000000E+04  0.00000000000E+00 0.  1.
    9000005    2    1    2  501    0  0.16432272266E+02 -0.75792093528E+02 -0.49444193698E+03  0.50049807476E+03  0.33215630441E+01 0.  0.
         13    1    3    3    0    0  0.78690517526E+01 -0.28749737098E+02 -0.19135937890E+03  0.19366693382E+03  0.00000000000E+00 0.  1.
          3    1    3    3  501    0  0.85632205134E+01 -0.47042356430E+02 -0.30308255808E+03  0.30683114095E+03  0.00000000000E+00 0.  1.
         -1    1    1    2    0  502 -0.16432272266E+02  0.75792093528E+02 -0.49953790356E+03  0.50552208469E+03  0.00000000000E+00 0. -1.
<mgrwt>
<rscale>  1 0.30000000E+03</rscale>
<asrwt>0</asrwt>
<pdfrwt beam="1">  1       21 0.21891535E-01 0.30000000E+03</pdfrwt>
<pdfrwt beam="2">0</pdfrwt>
<totfact> 0.20176978E+03</totfact>
</mgrwt>
</event>
<event>
 6    1  0.1284012E-001  0.3000000E+03  0.7818608E-02  0.1093470E+00
         21   -1    0    0  501  502  0.00000000000E+00  0.00000000000E+00  0.42496460906E+01  0.42496460906E+01  0.00000000000E+00 0. -1.
         13   -1    0    0    0    0 -0.00000000000E+00 -0.00000000000E+00 -0.10000000000E+04  0.10000000000E+04  0.00000000000E+00 0.  1.
    9000005    2    1    2  501    0  0.17276784583E+02  0.58040322059E+02 -0.68291089038E+03  0.68560298250E+03  0.41230032209E+01 0.  0.
         13    1    3    3    0    0  0.11413107886E+01  0.59010422920E+01 -0.80977570656E+02  0.81200319210E+02  0.00000000000E+00 0.  1.
          3    1    3    3  501    0  0.16135473795E+02  0.52139279767E+02 -0.60193331972E+03  0.60440266329E+03  0.00000000000E+00 0.  1.
         -1    1    1    2    0  502 -0.17276784583E+02 -0.58040322059E+02 -0.31283946353E+03  0.31864666359E+03  0.00000000000E+00 0. -1.
<mgrwt>
<rscale>  1 0.30000000E+03</rscale>
<asrwt>0</asrwt>
<pdfrwt beam="1">  1       21 0.15453291E-01 0.30000000E+03</pdfrwt>
<pdfrwt beam="2">0</pdfrwt>
<totfact> 0.38968569E+03</totfact>
</mgrwt>
</event>
<event>
 6    1  0.1284012E-001  0.3000000E+03  0.7818608E-02  0.1093470E+00
         21   -1    0    0  501  502  0.00000000000E+00  0.00000000000E+00  0.16287852766E+01  0.16287852766E+01  0.00000000000E+00 0. -1.
         13   -1    0    0    0    0 -0.00000000000E+00 -0.00000000000E+00 -0.10000000000E+04  0.10000000000E+04  0.00000000000E+00 0.  1.
    9000005    2    1    2  501    0 -0.35028321247E+02  0.41684252924E+01 -0.74155899817E+03  0.74240518753E+03  0.33698133671E+01 0.  0.
         13    1    3    3    0    0 -0.31037089404E+02  0.43825738277E+01 -0.67336333608E+03  0.67409249384E+03  0.00000000000E+00 0.  1.
          1    1    3    3  501    0 -0.39912318439E+01 -0.21414853531E+00 -0.68195662089E+02  0.68312693688E+02  0.00000000000E+00 0.  1.
         -3    1    1    2    0  502  0.35028321247E+02 -0.41684252924E+01 -0.25681221655E+03  0.25922359775E+03  0.00000000000E+00 0. -1.
<mgrwt>
<rscale>  1 0.30000000E+03</rscale>
<asrwt>0</asrwt>
<pdfrwt beam="1">  1       21 0.59228680E-02 0.30000000E+03</pdfrwt>
<pdfrwt beam="2">0</pdfrwt>
<totfact> 0.21547036E+04</totfact>
</mgrwt>
</event>
<event>
 6    1  0.1284012E-001  0.3000000E+03  0.7818608E-02  0.1093470E+00
         21   -1    0    0  501  502  0.00000000000E+00  0.00000000000E+00  0.12324491633E+01  0.12324491633E+01  0.00000000000E+00 0. -1.
         13   -1    0    0    0    0 -0.00000000000E+00 -0.00000000000E+00 -0.10000000000E+04  0.10000000000E+04  0.00000000000E+00 0.  1.
    9000005    2    1    2  501    0  0.31805046391E+02  0.22871783829E+01 -0.70733348491E+03  0.70805910975E+03  0.32018529803E+01 0.  0.
         13    1    3    3    0    0  0.16819455548E+02  0.57389602971E+00 -0.34043241910E+03  0.34084814129E+03  0.00000000000E+00 0.  1.
          3    1    3    3  501    0  0.14985590842E+02  0.17132823532E+01 -0.36690106580E+03  0.36721096846E+03  0.00000000000E+00 0.  1.
         -3    1    1    2    0  502 -0.31805046391E+02 -0.22871783829E+01 -0.29143406593E+03  0.29317333942E+03  0.00000000000E+00 0. -1.
<mgrwt>
<rscale>  1 0.30000000E+03</rscale>
<asrwt>0</asrwt>
<pdfrwt beam="1">  1       21 0.44816428E-02 0.30000000E+03</pdfrwt>
<pdfrwt beam="2">0</pdfrwt>
<totfact> 0.34697999E+04</totfact>
</mgrwt>
</event>
<event>
 6    1  0.1284012E-001  0.3000000E+03  0.7818608E-02  0.1093470E+00
         21   -1    0    0  501  502  0.00000000000E+00  0.00000000000E+00  0.16128882954E+01  0.16128882954E+01  0.00000000000E+00 0. -1.
         13   -1    0    0    0    0 -0.00000000000E+00 -0.00000000000E+00 -0.10000000000E+04  0.10000000000E+04  0.00000000000E+00 0.  1.
    9000005    2    1    2  501    0  0.31686164881E+02  0.73601240138E+01 -0.20773972055E+03  0.21029659147E+03  0.32680915512E+01 0.  0.
         13    1    3    3    0    0  0.21643078400E+02  0.49879289981E+01 -0.13167150273E+03  0.13353159518E+03  0.00000000000E+00 0.  1.
          3    1    3    3  501    0  0.10043086481E+02  0.23721950157E+01 -0.76068217811E+02  0.76764996296E+02  0.00000000000E+00 0.  1.
         -3    1    1    2    0  502 -0.31686164881E+02 -0.73601240138E+01 -0.79064739116E+03  0.79131629682E+03  0.00000000000E+00 0. -1.
<mgrwt>
<rscale>  1 0.30000000E+03</rscale>
<asrwt>0</asrwt>
<pdfrwt beam="1">  1       21 0.58650607E-02 0.30000000E+03</pdfrwt>
<pdfrwt beam="2">0</pdfrwt>
<totfact> 0.21914359E+04</totfact>
</mgrwt>
</event>
<event>
 6    1  0.1284012E-001  0.3000000E+03  0.7818608E-02  0.1093470E+00
         21   -1    0    0  501  502  0.00000000000E+00  0.00000000000E+00  0.12203430376E+01  0.12203430376E+01  0.00000000000E+00 0. -1.
         13   -1    0    0    0    0 -0.00000000000E+00 -0.00000000000E+00 -0.10000000000E+04  0.10000000000E+04  0.00000000000E+00 0.  1.
    9000005    2    1    2  501    0  0.12198526985E+02 -0.27606410354E+02 -0.75031301540E+03  0.75092733490E+03  0.33650064317E+01 0.  0.
         13    1    3    3    0    0  0.75060859378E+01 -0.12894463494E+02 -0.37628831489E+03  0.37658399387E+03  0.00000000000E+00 0.  1.
          3    1    3    3  501    0  0.46924410471E+01 -0.14711946860E+02 -0.37402470051E+03  0.37434334103E+03  0.00000000000E+00 0.  1.
         -3    1    1    2    0  502 -0.12198526985E+02  0.27606410354E+02 -0.24846664156E+03  0.25029300814E+03  0.00000000000E+00 0. -1.
<mgrwt>
<rscale>  1 0.30000000E+03</rscale>
<asrwt>0</asrwt>
<pdfrwt beam="1">  1       21 0.44376204E-02 0.30000000E+03</pdfrwt>
<pdfrwt beam="2">0</pdfrwt>
<totfact> 0.35283692E+04</totfact>
</mgrwt>
</event>
<event>
 6    1  0.1284012E-001  0.3000000E+03  0.7818608E-02  0.1093470E+00
         21   -1    0    0  501  502  0.00000000000E+00  0.00000000000E+00  0.99138632929E+00  0.99138632929E+00  0.00000000000E+00 0. -1.
         13   -1    0    0    0    0 -0.00000000000E+00 -0.00000000000E+00 -0.10000000000E+04  0.10000000000E+04  0.00000000000E+00 0.  1.
    9000005    2    1    2  501    0 -0.32628705354E+01 -0.30786511336E+02 -0.41662906460E+03  0.41778953896E+03  0.31409849997E+01 0.  0.
         13    1    3    3    0    0 -0.48081612585E+00 -0.46481339123E+00 -0.88489854532E+01  0.88742199198E+01  0.00000000000E+00 0.  1.
          1    1    3    3  501    0 -0.27820544096E+01 -0.30321697945E+02 -0.40778007915E+03  0.40891531904E+03  0.00000000000E+00 0.  1.
         -1    1    1    2    0  502  0.32628705354E+01  0.30786511336E+02 -0.58237954907E+03  0.58320184737E+03  0.00000000000E+00 0. -1.
<mgrwt>
<rscale>  1 0.30000000E+03</rscale>
<asrwt>0</asrwt>
<pdfrwt beam="1">  1       21 0.36050488E-02 0.30000000E+03</pdfrwt>
<pdfrwt beam="2">0</pdfrwt>
<totfact> 0.50072491E+04</totfact>
</mgrwt>
</event>
<event>
 6    1  0.1284012E-001  0.3000000E+03  0.7818608E-02  0.1093470E+00
         21   -1    0    0  501  502  0.00000000000E+00  0.00000000000E+00  0.17873118867E+01  0.17873118867E+01  0.00000000000E+00 0. -1.
         13   -1    0    0    0    0 -0.00000000000E+00 -0.00000000000E+00 -0.10000000000E+04  0.10000000000E+04  0.00000000000E+00 0.  1.
    9000005    2    1    2  501    0  0.38797728194E+02 -0.22731697919E+01 -0.69521473643E+03  0.69630705109E+03  0.30900857904E+01 0.  0.
         13    1    3    3    0    0  0.38017451798E+02 -0.26531288576E+01 -0.67735112518E+03  0.67842237030E+03  0.00000000000E+00 0.  1.
          3    1    3    3  501    0  0.78027639610E+00  0.37995906570E+00 -0.17863611252E+02  0.17884680794E+02  0.00000000000E+00 0.  1.
         -3    1    1    2    0  502 -0.38797728194E+02  0.22731697919E+01 -0.30299795168E+03  0.30548026080E+03  0.00000000000E+00 0. -1.
<mgrwt>
<rscale>  1 0.30000000E+03</rscale>
<asrwt>0</asrwt>
<pdfrwt beam="1">  1       21 0.64993297E-02 0.30000000E+03</pdfrwt>
<pdfrwt beam="2">0</pdfrwt>
<totfact> 0.18353322E+04</totfact>
</mgrwt>
</event>
<event>
 6    1  0.1284012E-001  0.3000000E+03  0.7818608E-02  0.1093470E+00
         21   -1    0    0  501  502  0.00000000000E+00  0.00000000000E+00  0.91695500134E+01  0.91695500134E+01  0.00000000000E+00 0. -1.
         13   -1    0    0    0    0 -0.00000000000E+00 -0.00000000000E+00 -0.10000000000E+04  0.10000000000E+04  0.00000000000E+00 0.  1.
    9000005    2    1    2  501    0 -0.77031276505E+02 -0.40560245274E+02 -0.70538691278E+03  0.71074541562E+03  0.30656229064E+01 0.  0.
         13    1    3    3    0    0 -0.41888063396E+02 -0.21986612935E+02 -0.39572508595E+03  0.39854280153E+03  0.00000000000E+00 0.  1.
          1    1    3    3  501    0 -0.35143213109E+02 -0.18573632339E+02 -0.30966182683E+03  0.31220261409E+03  0.00000000000E+00 0.  1.
         -3    1    1    2    0  502  0.77031276505E+02  0.40560245274E+02 -0.28544353721E+03  0.29842413439E+03  0.00000000000E+00 0. -1.
<mgrwt>
<rscale>  1 0.30000000E+03</rscale>
<asrwt>0</asrwt>
<pdfrwt beam="1">  1       21 0.33343889E-01 0.30000000E+03</pdfrwt>
<pdfrwt beam="2">0</pdfrwt>
<totfact> 0.87850224E+02</totfact>
</mgrwt>
</event>
<event>
 6    1  0.1284012E-001  0.3000000E+03  0.7818608E-02  0.1093470E+00
         21   -1    0    0  501  502  0.00000000000E+00  0.00000000000E+00  0.22041474052E+01  0.22041474052E+01  0.00000000000E+00 0. -1.
         13   -1    0    0    0    0 -0.00000000000E+00 -0.00000000000E+00 -0.10000000000E+04  0.10000000000E+04  0.00000000000E+00 0.  1.
    9000005    2    1    2  501    0 -0.21283972075E+02 -0.41088865773E+02 -0.41987819568E+03  0.42243684880E+03  0.37268832837E+01 0.  0.
         13    1    3    3    0    0 -0.76911736035E+01 -0.11170263146E+02 -0.12343227223E+03  0.12417509718E+03  0.00000000000E+00 0.  1.
          3    1    3    3  501    0 -0.13592798472E+02 -0.29918602626E+02 -0.29644592345E+03  0.29826175163E+03  0.00000000000E+00 0.  1.
         -1    1    1    2    0  502  0.21283972075E+02  0.41088865773E+02 -0.57791765691E+03  0.57976729860E+03  0.00000000000E+00 0. -1.
<mgrwt>
<rscale>  1 0.30000000E+03</rscale>
<asrwt>0</asrwt>
<pdfrwt beam="1">  1       21 0.80150984E-02 0.30000000E+03</pdfrwt>
<pdfrwt beam="2">0</pdfrwt>
<totfact> 0.12731631E+04</totfact>
</mgrwt>
</event>
<event>
 6    1  0.1284012E-001  0.3000000E+03  0.7818608E-02  0.1093470E+00
         21   -1    0    0  501  502  0.00000000000E+00  0.00000000000E+00  0.15097686847E+01  0.15097686847E+01  0.00000000000E+00 0. -1.
         13   -1    0    0    0    0 -0.00000000000E+00 -0.00000000000E+00 -0.10000000000E+04  0.10000000000E+04  0.00000000000E+00 0.  1.
    9000005    2    1    2  501    0  0.45274959029E+01 -0.38344583211E+02 -0.54248338385E+03  0.54387121019E+03  0.41068534794E+01 0.  0.
         13    1    3    3    0    0  0.27085576151E+01 -0.92249621602E+01 -0.14511265796E+03  0.14543080730E+03  0.00000000000E+00 0.  1.
          3    1    3    3  501    0  0.18189382878E+01 -0.29119621050E+02 -0.39737072589E+03  0.39844040289E+03  0.00000000000E+00 0.  1.
         -3    1    1    2    0  502 -0.45274959029E+01  0.38344583211E+02 -0.45600684747E+03  0.45763855849E+03  0.00000000000E+00 0. -1.
<mgrwt>
<rscale>  1 0.30000000E+03</rscale>
<asrwt>0</asrwt>
<pdfrwt beam="1">  1       21 0.54900795E-02 0.30000000E+03</pdfrwt>
<pdfrwt beam="2">0</pdfrwt>
<totfact> 0.24550024E+04</totfact>
</mgrwt>
</event>
<event>
 6    1  0.1284012E-001  0.3000000E+03  0.7818608E-02  0.1093470E+00
         21   -1    0    0  501  502  0.00000000000E+00  0.00000000000E+00  0.45864203107E+01  0.45864203107E+01  0.00000000000E+00 0. -1.
         13   -1    0    0    0    0 -0.00000000000E+00 -0.00000000000E+00 -0.10000000000E+04  0.10000000000E+04  0.00000000000E+00 0.  1.
    9000005    2    1    2  501    0  0.28656650825E+02 -0.14543586606E+02 -0.93980188985E+03  0.94035730234E+03  0.33976992797E+01 0.  0.
         13    1    3    3    0    0  0.12021820859E+02 -0.67276139379E+01 -0.35714108824E+03  0.35740668974E+03  0.00000000000E+00 0.  1.
          1    1    3    3  501    0  0.16634829966E+02 -0.78159726678E+01 -0.58266080161E+03  0.58295061260E+03  0.00000000000E+00 0.  1.
         -1    1    1    2    0  502 -0.28656650825E+02  0.14543586606E+02 -0.55611689840E+02  0.64229117966E+02  0.00000000000E+00 0. -1.
<mgrwt>
<rscale>  1 0.30000000E+03</rscale>
<asrwt>0</asrwt>
<pdfrwt beam="1">  1       21 0.16677927E-01 0.30000000E+03</pdfrwt>
<pdfrwt beam="2">0</pdfrwt>
<totfact> 0.33803808E+03</totfact>
</mgrwt>
</event>
<event>
 6    1  0.1284012E-001  0.3000000E+03  0.7818608E-02  0.1093470E+00
         21   -1    0    0  501  502  0.00000000000E+00  0.00000000000E+00  0.60972194575E+01  0.60972194575E+01  0.00000000000E+00 0. -1.
         13   -1    0    0    0    0 -0.00000000000E+00 -0.00000000000E+00 -0.10000000000E+04  0.10000000000E+04  0.00000000000E+00 0.  1.
    9000005    2    1    2  501    0 -0.44585151302E+02 -0.17834369546E+02 -0.89357330279E+03  0.89486815599E+03  0.31414476610E+01 0.  0.
         13    1    3    3    0    0 -0.15990726583E+02 -0.47872448459E+01 -0.30901214810E+03  0.30946264512E+03  0.00000000000E+00 0.  1.
          3    1    3    3  501    0 -0.28594424719E+02 -0.13047124700E+02 -0.58456115469E+03  0.58540551087E+03  0.00000000000E+00 0.  1.
         -3    1    1    2    0  502  0.44585151302E+02  0.17834369546E+02 -0.10032947776E+03  0.11122906347E+03  0.00000000000E+00 0. -1.
<mgrwt>
<rscale>  1 0.30000000E+03</rscale>
<asrwt>0</asrwt>
<pdfrwt beam="1">  1       21 0.22171754E-01 0.30000000E+03</pdfrwt>
<pdfrwt beam="2">0</pdfrwt>
<totfact> 0.19688792E+03</totfact>
</mgrwt>
</event>
<event>
 6    1  0.1284012E-001  0.3000000E+03  0.7818608E-02  0.1093470E+00
         21   -1    0    0  501  502  0.00000000000E+00  0.00000000000E+00  0.13548157306E+01  0.13548157306E+01  0.00000000000E+00 0. -1.
         13   -1    0    0    0    0 -0.00000000000E+00 -0.00000000000E+00 -0.10000000000E+04  0.10000000000E+04  0.00000000000E+00 0.  1.
    9000005    2    1    2  501    0  0.19520886960E+02  0.27965615706E+02 -0.68619977191E+03  0.68705356471E+03  0.30550155573E+01 0.  0.
         13    1    3    3    0    0  0.16683641703E+02  0.21832985507E+02 -0.55603661823E+03  0.55671513719E+03  0.00000000000E+00 0.  1.
          3    1    3    3  501    0  0.28372452567E+01  0.61326301990E+01 -0.13016315367E+03  0.13033842752E+03  0.00000000000E+00 0.  1.
         -1    1    1    2    0  502 -0.19520886960E+02 -0.27965615706E+02 -0.31244541236E+03  0.31430125103E+03  0.00000000000E+00 0. -1.
<mgrwt>
<rscale>  1 0.30000000E+03</rscale>
<asrwt>0</asrwt>
<pdfrwt beam="1">  1       21 0.49266130E-02 0.30000000E+03</pdfrwt>
<pdfrwt beam="2">0</pdfrwt>
<totfact> 0.29539678E+04</totfact>
</mgrwt>
</event>
<event>
 6    1  0.1284012E-001  0.3000000E+03  0.7818608E-02  0.1093470E+00
         21   -1    0    0  501  502  0.00000000000E+00  0.00000000000E+00  0.10618216369E+01  0.10618216369E+01  0.00000000000E+00 0. -1.
         13   -1    0    0    0    0 -0.00000000000E+00 -0.00000000000E+00 -0.10000000000E+04  0.10000000000E+04  0.00000000000E+00 0.  1.
    9000005    2    1    2  501    0 -0.18431952969E+02  0.25837071996E+02 -0.60932070638E+03  0.61015382011E+03  0.29444520053E+01 0.  0.
         13    1    3    3    0    0  0.69694868889E-02  0.31307237229E+00 -0.30622526829E+01  0.30782226004E+01  0.00000000000E+00 0.  1.
          1    1    3    3  501    0 -0.18438922456E+02  0.25523999624E+02 -0.60625845370E+03  0.60707559751E+03  0.00000000000E+00 0.  1.
         -3    1    1    2    0  502  0.18431952969E+02 -0.25837071996E+02 -0.38961747198E+03  0.39090800152E+03  0.00000000000E+00 0. -1.
<mgrwt>
<rscale>  1 0.30000000E+03</rscale>
<asrwt>0</asrwt>
<pdfrwt beam="1">  1       21 0.38611777E-02 0.30000000E+03</pdfrwt>
<pdfrwt beam="2">0</pdfrwt>
<totfact> 0.44622087E+04</totfact>
</mgrwt>
</event>
<event>
 6    1  0.1284012E-001  0.3000000E+03  0.7818608E-02  0.1093470E+00
         21   -1    0    0  501  502  0.00000000000E+00  0.00000000000E+00  0.40416378695E+01  0.40416378695E+01  0.00000000000E+00 0. -1.
         13   -1    0    0    0    0 -0.00000000000E+00 -0.00000000000E+00 -0.10000000000E+04  0.10000000000E+04  0.00000000000E+00 0.  1.
    9000005    2    1    2  501    0  0.46670843204E+02  0.17770447155E+02 -0.80844532979E+03  0.80999243356E+03  0.31519454227E+01 0.  0.
         13    1    3    3    0    0  0.35121361058E+01  0.16605707853E+01 -0.76868102950E+02  0.76966212369E+02  0.00000000000E+00 0.  1.
          3    1    3    3  501    0  0.43158707098E+02  0.16109876370E+02 -0.73157722684E+03  0.73302622119E+03  0.00000000000E+00 0.  1.
         -1    1    1    2    0  502 -0.46670843204E+02 -0.17770447155E+02 -0.18751303234E+03  0.19404920431E+03  0.00000000000E+00 0. -1.
<mgrwt>
<rscale>  1 0.30000000E+03</rscale>
<asrwt>0</asrwt>
<pdfrwt beam="1">  1       21 0.14696896E-01 0.30000000E+03</pdfrwt>
<pdfrwt beam="2">0</pdfrwt>
<totfact> 0.42764153E+03</totfact>
</mgrwt>
</event>
<event>
 6    1  0.1284012E-001  0.3000000E+03  0.7818608E-02  0.1093470E+00
         21   -1    0    0  501  502  0.00000000000E+00  0.00000000000E+00  0.35494426058E+01  0.35494426058E+01  0.00000000000E+00 0. -1.
         13   -1    0    0    0    0 -0.00000000000E+00 -0.00000000000E+00 -0.10000000000E+04  0.10000000000E+04  0.00000000000E+00 0.  1.
    9000005    2    1    2  501    0  0.55374446036E+02  0.13813744788E+02 -0.64118702973E+03  0.64373098434E+03  0.34094411846E+01 0.  0.
         13    1    3    3    0    0  0.48406816168E+00 -0.87261669789E-01 -0.89176739489E+01  0.89312286525E+01  0.00000000000E+00 0.  1.
          3    1    3    3  501    0  0.54890377875E+02  0.13901006458E+02 -0.63226935578E+03  0.63479975569E+03  0.00000000000E+00 0.  1.
         -1    1    1    2    0  502 -0.55374446036E+02 -0.13813744788E+02 -0.35526352767E+03  0.35981845827E+03  0.00000000000E+00 0. -1.
<mgrwt>
<rscale>  1 0.30000000E+03</rscale>
<asrwt>0</asrwt>
<pdfrwt beam="1">  1       21 0.12907091E-01 0.30000000E+03</pdfrwt>
<pdfrwt beam="2">0</pdfrwt>
<totfact> 0.54271274E+03</totfact>
</mgrwt>
</event>
<event>
 6    1  0.1284012E-001  0.3000000E+03  0.7818608E-02  0.1093470E+00
         21   -1    0    0  501  502  0.00000000000E+00  0.00000000000E+00  0.37656991365E+01  0.37656991365E+01  0.00000000000E+00 0. -1.
         13   -1    0    0    0    0 -0.00000000000E+00 -0.00000000000E+00 -0.10000000000E+04  0.10000000000E+04  0.00000000000E+00 0.  1.
    9000005    2    1    2  501    0 -0.23259958541E+02 -0.33446265561E+02 -0.87321835176E+03  0.87417942638E+03  0.44386165741E+01 0.  0.
         13    1    3    3    0    0 -0.14867682778E+02 -0.21727637750E+02 -0.60789682114E+03  0.60846666580E+03  0.00000000000E+00 0.  1.
          3    1    3    3  501    0 -0.83922757632E+01 -0.11718627810E+02 -0.26532153061E+03  0.26571276058E+03  0.00000000000E+00 0.  1.
         -1    1    1    2    0  502  0.23259958541E+02  0.33446265561E+02 -0.12301594911E+03  0.12958627275E+03  0.00000000000E+00 0. -1.
<mgrwt>
<rscale>  1 0.30000000E+03</rscale>
<asrwt>0</asrwt>
<pdfrwt beam="1">  1       21 0.13693480E-01 0.30000000E+03</pdfrwt>
<pdfrwt beam="2">0</pdfrwt>
<totfact> 0.48706173E+03</totfact>
</mgrwt>
</event>
<event>
 6    1  0.1284012E-001  0.3000000E+03  0.7818608E-02  0.1093470E+00
         21   -1    0    0  501  502  0.00000000000E+00  0.00000000000E+00  0.21823194531E+01  0.21823194531E+01  0.00000000000E+00 0. -1.
         13   -1    0    0    0    0 -0.00000000000E+00 -0.00000000000E+00 -0.10000000000E+04  0.10000000000E+04  0.00000000000E+00 0.  1.
    9000005    2    1    2  501    0 -0.37134573180E+02  0.22017316477E+02 -0.68859664044E+03  0.68996222018E+03  0.43351227854E+01 0.  0.
         13    1    3    3    0    0 -0.23960572688E+02  0.16131052722E+02 -0.43977700010E+03  0.44072455085E+03  0.00000000000E+00 0.  1.
          3    1    3    3  501    0 -0.13174000492E+02  0.58862637554E+01 -0.24881964035E+03  0.24923766933E+03  0.00000000000E+00 0.  1.
         -1    1    1    2    0  502  0.37134573180E+02 -0.22017316477E+02 -0.30922104010E+03  0.31222009928E+03  0.00000000000E+00 0. -1.
<mgrwt>
<rscale>  1 0.30000000E+03</rscale>
<asrwt>0</asrwt>
<pdfrwt beam="1">  1       21 0.79357238E-02 0.30000000E+03</pdfrwt>
<pdfrwt beam="2">0</pdfrwt>
<totfact> 0.12956112E+04</totfact>
</mgrwt>
</event>
<event>
 6    1  0.1284012E-001  0.3000000E+03  0.7818608E-02  0.1093470E+00
         21   -1    0    0  501  502  0.00000000000E+00  0.00000000000E+00  0.16722341191E+01  0.16722341191E+01  0.00000000000E+00 0. -1.
         13   -1    0    0    0    0 -0.00000000000E+00 -0.00000000000E+00 -0.10000000000E+04  0.10000000000E+04  0.00000000000E+00 0.  1.
    9000005    2    1    2  501    0  0.16753484583E+02  0.34597811131E+02 -0.66801742386E+03  0.66913259764E+03  0.36697233234E+01 0.  0.
         13    1    3    3    0    0  0.16432499286E+02  0.32106222063E+02 -0.61680794903E+03  0.61786153992E+03  0.00000000000E+00 0.  1.
          1    1    3    3  501    0  0.32098529636E+00  0.24915890678E+01 -0.51209474823E+02  0.51271057716E+02  0.00000000000E+00 0.  1.
         -1    1    1    2    0  502 -0.16753484583E+02 -0.34597811131E+02 -0.33031034202E+03  0.33253963648E+03  0.00000000000E+00 0. -1.
<mgrwt>
<rscale>  1 0.30000000E+03</rscale>
<asrwt>0</asrwt>
<pdfrwt beam="1">  1       21 0.60808642E-02 0.30000000E+03</pdfrwt>
<pdfrwt beam="2">0</pdfrwt>
<totfact> 0.20590599E+04</totfact>
</mgrwt>
</event>
<event>
 6    1  0.1284012E-001  0.3000000E+03  0.7818608E-02  0.1093470E+00
         21   -1    0    0  501  502  0.00000000000E+00  0.00000000000E+00  0.71550970237E+01  0.71550970237E+01  0.00000000000E+00 0. -1.
         13   -1    0    0    0    0 -0.00000000000E+00 -0.00000000000E+00 -0.10000000000E+04  0.10000000000E+04  0.00000000000E+00 0.  1.
    9000005    2    1    2  501    0 -0.60128778982E+02  0.41657279165E+02 -0.74911073192E+03  0.75268084467E+03  0.32812024898E+01 0.  0.
         13    1    3    3    0    0 -0.23904458233E+01  0.12075289852E+01 -0.32950203854E+02  0.33058861014E+02  0.00000000000E+00 0.  1.
          1    1    3    3  501    0 -0.57738333158E+02  0.40449750180E+02 -0.71616052807E+03  0.71962198366E+03  0.00000000000E+00 0.  1.
         -1    1    1    2    0  502  0.60128778982E+02 -0.41657279165E+02 -0.24373417106E+03  0.25447425235E+03  0.00000000000E+00 0. -1.
<mgrwt>
<rscale>  1 0.30000000E+03</rscale>
<asrwt>0</asrwt>
<pdfrwt beam="1">  1       21 0.26018589E-01 0.30000000E+03</pdfrwt>
<pdfrwt beam="2">0</pdfrwt>
<totfact> 0.14419867E+03</totfact>
</mgrwt>
</event>
<event>
 6    1  0.1284012E-001  0.3000000E+03  0.7818608E-02  0.1093470E+00
         21   -1    0    0  501  502  0.00000000000E+00  0.00000000000E+00  0.13310701206E+01  0.13310701206E+01  0.00000000000E+00 0. -1.
         13   -1    0    0    0    0 -0.00000000000E+00 -0.00000000000E+00 -0.10000000000E+04  0.10000000000E+04  0.00000000000E+00 0.  1.
    9000005    2    1    2  501    0 -0.34564889708E+02  0.70120459428E+01 -0.62415354602E+03  0.62515867196E+03  0.34374018746E+01 0.  0.
         13    1    3    3    0    0 -0.30895581922E+02  0.59149920684E+01 -0.57232028732E+03  0.57318411998E+03  0.00000000000E+00 0.  1.
          1    1    3    3  501    0 -0.36693077858E+01  0.10970538743E+01 -0.51833258694E+02  0.51974551982E+02  0.00000000000E+00 0.  1.
         -3    1    1    2    0  502  0.34564889708E+02 -0.70120459428E+01 -0.37451538386E+03  0.37617239816E+03  0.00000000000E+00 0. -1.
<mgrwt>
<rscale>  1 0.30000000E+03</rscale>
<asrwt>0</asrwt>
<pdfrwt beam="1">  1       21 0.48402652E-02 0.30000000E+03</pdfrwt>
<pdfrwt beam="2">0</pdfrwt>
<totfact> 0.30442649E+04</totfact>
</mgrwt>
</event>
<event>
 6    1  0.1284012E-001  0.3000000E+03  0.7818608E-02  0.1093470E+00
         21   -1    0    0  501  502  0.00000000000E+00  0.00000000000E+00  0.25322736954E+01  0.25322736954E+01  0.00000000000E+00 0. -1.
         13   -1    0    0    0    0 -0.00000000000E+00 -0.00000000000E+00 -0.10000000000E+04  0.10000000000E+04  0.00000000000E+00 0.  1.
    9000005    2    1    2  501    0  0.28073036284E+02 -0.11669673735E+02 -0.89724636722E+03  0.89780120158E+03  0.84662508748E+01 0.  0.
         13    1    3    3    0    0  0.14264046184E+01  0.11475168256E+01 -0.34827515385E+02  0.34875596810E+02  0.00000000000E+00 0.  1.
          3    1    3    3  501    0  0.26646631665E+02 -0.12817190561E+02 -0.86241885184E+03  0.86292560477E+03  0.00000000000E+00 0.  1.
         -1    1    1    2    0  502 -0.28073036284E+02  0.11669673735E+02 -0.10022135908E+03  0.10473107212E+03  0.00000000000E+00 0. -1.
<mgrwt>
<rscale>  1 0.30000000E+03</rscale>
<asrwt>0</asrwt>
<pdfrwt beam="1">  1       21 0.92082874E-02 0.30000000E+03</pdfrwt>
<pdfrwt beam="2">0</pdfrwt>
<totfact> 0.99653980E+03</totfact>
</mgrwt>
</event>
<event>
 6    1  0.1284012E-001  0.3000000E+03  0.7818608E-02  0.1093470E+00
         21   -1    0    0  501  502  0.00000000000E+00  0.00000000000E+00  0.11996627362E+01  0.11996627362E+01  0.00000000000E+00 0. -1.
         13   -1    0    0    0    0 -0.00000000000E+00 -0.00000000000E+00 -0.10000000000E+04  0.10000000000E+04  0.00000000000E+00 0.  1.
    9000005    2    1    2  501    0 -0.51928387119E+01  0.31473061753E+02 -0.69225156430E+03  0.69299572150E+03  0.36500064126E+01 0.  0.
         13    1    3    3    0    0 -0.49472482023E+01  0.19234343264E+02 -0.42222363675E+03  0.42269047145E+03  0.00000000000E+00 0.  1.
          1    1    3    3  501    0 -0.24559050967E+00  0.12238718489E+02 -0.27002792755E+03  0.27030525005E+03  0.00000000000E+00 0.  1.
         -3    1    1    2    0  502  0.51928387119E+01 -0.31473061753E+02 -0.30654877296E+03  0.30820394124E+03  0.00000000000E+00 0. -1.
<mgrwt>
<rscale>  1 0.30000000E+03</rscale>
<asrwt>0</asrwt>
<pdfrwt beam="1">  1       21 0.43624191E-02 0.30000000E+03</pdfrwt>
<pdfrwt beam="2">0</pdfrwt>
<totfact> 0.36320175E+04</totfact>
</mgrwt>
</event>
<event>
 6    1  0.1284012E-001  0.3000000E+03  0.7818608E-02  0.1093470E+00
         21   -1    0    0  501  502  0.00000000000E+00  0.00000000000E+00  0.27298875992E+01  0.27298875992E+01  0.00000000000E+00 0. -1.
         13   -1    0    0    0    0 -0.00000000000E+00 -0.00000000000E+00 -0.10000000000E+04  0.10000000000E+04  0.00000000000E+00 0.  1.
    9000005    2    1    2  501    0 -0.25111894991E+02  0.27532587344E+02 -0.84991227534E+03  0.85073323375E+03  0.27401842508E+01 0.  0.
         13    1    3    3    0    0 -0.24274010719E+02  0.25724570610E+02 -0.80198423372E+03  0.80276378361E+03  0.00000000000E+00 0.  1.
          3    1    3    3  501    0 -0.83788427172E+00  0.18080167340E+01 -0.47928041615E+02  0.47969450149E+02  0.00000000000E+00 0.  1.
         -1    1    1    2    0  502  0.25111894991E+02 -0.27532587344E+02 -0.14735783706E+03  0.15199665384E+03  0.00000000000E+00 0. -1.
<mgrwt>
<rscale>  1 0.30000000E+03</rscale>
<asrwt>0</asrwt>
<pdfrwt beam="1">  1       21 0.99268849E-02 0.30000000E+03</pdfrwt>
<pdfrwt beam="2">0</pdfrwt>
<totfact> 0.87167249E+03</totfact>
</mgrwt>
</event>
<event>
 6    1  0.1284012E-001  0.3000000E+03  0.7818608E-02  0.1093470E+00
         21   -1    0    0  501  502  0.00000000000E+00  0.00000000000E+00  0.19222643474E+01  0.19222643474E+01  0.00000000000E+00 0. -1.
         13   -1    0    0    0    0 -0.00000000000E+00 -0.00000000000E+00 -0.10000000000E+04  0.10000000000E+04  0.00000000000E+00 0.  1.
    9000005    2    1    2  501    0 -0.56006633518E+01  0.32714768609E+02 -0.82592224926E+03  0.82659646758E+03  0.35404642407E+01 0.  0.
         13    1    3    3    0    0 -0.50377411138E+01  0.20549875795E+02 -0.54406142014E+03  0.54447268537E+03  0.00000000000E+00 0.  1.
          1    1    3    3  501    0 -0.56292223794E+00  0.12164892814E+02 -0.28186082912E+03  0.28212378221E+03  0.00000000000E+00 0.  1.
         -1    1    1    2    0  502  0.56006633518E+01 -0.32714768609E+02 -0.17215548640E+03  0.17532579677E+03  0.00000000000E+00 0. -1.
<mgrwt>
<rscale>  1 0.30000000E+03</rscale>
<asrwt>0</asrwt>
<pdfrwt beam="1">  1       21 0.69900669E-02 0.30000000E+03</pdfrwt>
<pdfrwt beam="2">0</pdfrwt>
<totfact> 0.16175209E+04</totfact>
</mgrwt>
</event>
<event>
 6    1  0.1284012E-001  0.3000000E+03  0.7818608E-02  0.1093470E+00
         21   -1    0    0  501  502  0.00000000000E+00  0.00000000000E+00  0.16228070707E+01  0.16228070707E+01  0.00000000000E+00 0. -1.
         13   -1    0    0    0    0 -0.00000000000E+00 -0.00000000000E+00 -0.10000000000E+04  0.10000000000E+04  0.00000000000E+00 0.  1.
    9000005    2    1    2  501    0  0.27295382228E+01  0.30926263673E+02 -0.81740251558E+03  0.81800440384E+03  0.45219530803E+01 0.  0.
         13    1    3    3    0    0 -0.72252454415E+00  0.10008367873E+02 -0.29980013450E+03  0.29996801516E+03  0.00000000000E+00 0.  1.
          1    1    3    3  501    0  0.34520627670E+01  0.20917895799E+02 -0.51760238108E+03  0.51803638868E+03  0.00000000000E+00 0.  1.
         -1    1    1    2    0  502 -0.27295382228E+01 -0.30926263673E+02 -0.18097467735E+03  0.18361840323E+03  0.00000000000E+00 0. -1.
<mgrwt>
<rscale>  1 0.30000000E+03</rscale>
<asrwt>0</asrwt>
<pdfrwt beam="1">  1       21 0.59011291E-02 0.30000000E+03</pdfrwt>
<pdfrwt beam="2">0</pdfrwt>
<totfact> 0.21684037E+04</totfact>
</mgrwt>
</event>
<event>
 6    1  0.1284012E-001  0.3000000E+03  0.7818608E-02  0.1093470E+00
         21   -1    0    0  501  502  0.00000000000E+00  0.00000000000E+00  0.31072173913E+01  0.31072173913E+01  0.00000000000E+00 0. -1.
         13   -1    0    0    0    0 -0.00000000000E+00 -0.00000000000E+00 -0.10000000000E+04  0.10000000000E+04  0.00000000000E+00 0.  1.
    9000005    2    1    2  501    0  0.41028400119E+02  0.31169635615E+02 -0.68903100381E+03  0.69096341937E+03  0.34419310803E+01 0.  0.
         13    1    3    3    0    0  0.20234428779E+02  0.13414115142E+02 -0.31441849479E+03  0.31535434112E+03  0.00000000000E+00 0.  1.
          3    1    3    3  501    0  0.20793971340E+02  0.17755520473E+02 -0.37461250902E+03  0.37560907825E+03  0.00000000000E+00 0.  1.
         -1    1    1    2    0  502 -0.41028400119E+02 -0.31169635615E+02 -0.30786177880E+03  0.31214379802E+03  0.00000000000E+00 0. -1.
<mgrwt>
<rscale>  1 0.30000000E+03</rscale>
<asrwt>0</asrwt>
<pdfrwt beam="1">  1       21 0.11298996E-01 0.30000000E+03</pdfrwt>
<pdfrwt beam="2">0</pdfrwt>
<totfact> 0.69100227E+03</totfact>
</mgrwt>
</event>
<event>
 6    1  0.1284012E-001  0.3000000E+03  0.7818608E-02  0.1093470E+00
         21   -1    0    0  501  502  0.00000000000E+00  0.00000000000E+00  0.13267891654E+01  0.13267891654E+01  0.00000000000E+00 0. -1.
         13   -1    0    0    0    0 -0.00000000000E+00 -0.00000000000E+00 -0.10000000000E+04  0.10000000000E+04  0.00000000000E+00 0.  1.
    9000005    2    1    2  501    0 -0.28811340821E+02  0.18392434133E+02 -0.33064876810E+03  0.33242841790E+03  0.34161655331E+01 0.  0.
         13    1    3    3    0    0 -0.17463170487E+02  0.93592382687E+01 -0.18351628203E+03  0.18458272789E+03  0.00000000000E+00 0.  1.
          3    1    3    3  501    0 -0.11348170334E+02  0.90331958642E+01 -0.14713248607E+03  0.14784569001E+03  0.00000000000E+00 0.  1.
         -1    1    1    2    0  502  0.28811340821E+02 -0.18392434133E+02 -0.66802444273E+03  0.66889837127E+03  0.00000000000E+00 0. -1.
<mgrwt>
<rscale>  1 0.30000000E+03</rscale>
<asrwt>0</asrwt>
<pdfrwt beam="1">  1       21 0.48246980E-02 0.30000000E+03</pdfrwt>
<pdfrwt beam="2">0</pdfrwt>
<totfact> 0.30610024E+04</totfact>
</mgrwt>
</event>
<event>
 6    1  0.1284012E-001  0.3000000E+03  0.7818608E-02  0.1093470E+00
         21   -1    0    0  501  502  0.00000000000E+00  0.00000000000E+00  0.38814087806E+01  0.38814087806E+01  0.00000000000E+00 0. -1.
         13   -1    0    0    0    0 -0.00000000000E+00 -0.00000000000E+00 -0.10000000000E+04  0.10000000000E+04  0.00000000000E+00 0.  1.
    9000005    2    1    2  501    0  0.57557476275E+02  0.16104975805E+02 -0.63817013166E+03  0.64097738150E+03  0.43189490853E+01 0.  0.
         13    1    3    3    0    0  0.45985824778E+02  0.13337873680E+02 -0.52804634548E+03  0.53021272894E+03  0.00000000000E+00 0.  1.
          1    1    3    3  501    0  0.11571651498E+02  0.27671021245E+01 -0.11012378618E+03  0.11076465255E+03  0.00000000000E+00 0.  1.
         -1    1    1    2    0  502 -0.57557476275E+02 -0.16104975805E+02 -0.35794845956E+03  0.36290402728E+03  0.00000000000E+00 0. -1.
<mgrwt>
<rscale>  1 0.30000000E+03</rscale>
<asrwt>0</asrwt>
<pdfrwt beam="1">  1       21 0.14114244E-01 0.30000000E+03</pdfrwt>
<pdfrwt beam="2">0</pdfrwt>
<totfact> 0.46073355E+03</totfact>
</mgrwt>
</event>
<event>
 6    1  0.1284012E-001  0.3000000E+03  0.7818608E-02  0.1093470E+00
         21   -1    0    0  501  502  0.00000000000E+00  0.00000000000E+00  0.14697389594E+01  0.14697389594E+01  0.00000000000E+00 0. -1.
         13   -1    0    0    0    0 -0.00000000000E+00 -0.00000000000E+00 -0.10000000000E+04  0.10000000000E+04  0.00000000000E+00 0.  1.
    9000005    2    1    2  501    0 -0.29531653477E+02 -0.13663375896E+02 -0.76343665676E+03  0.76413493500E+03  0.28042112939E+01 0.  0.
         13    1    3    3    0    0 -0.70053239241E+01 -0.27953701883E+01 -0.15217110995E+03  0.15235791860E+03  0.00000000000E+00 0.  1.
          1    1    3    3  501    0 -0.22526329552E+02 -0.10868005708E+02 -0.61126554682E+03  0.61177701640E+03  0.00000000000E+00 0.  1.
         -3    1    1    2    0  502  0.29531653477E+02  0.13663375896E+02 -0.23509360428E+03  0.23733480396E+03  0.00000000000E+00 0. -1.
<mgrwt>
<rscale>  1 0.30000000E+03</rscale>
<asrwt>0</asrwt>
<pdfrwt beam="1">  1       21 0.53445166E-02 0.30000000E+03</pdfrwt>
<pdfrwt beam="2">0</pdfrwt>
<totfact> 0.25706376E+04</totfact>
</mgrwt>
</event>
<event>
 6    1  0.1284012E-001  0.3000000E+03  0.7818608E-02  0.1093470E+00
         21   -1    0    0  501  502  0.00000000000E+00  0.00000000000E+00  0.10938514730E+01  0.10938514730E+01  0.00000000000E+00 0. -1.
         13   -1    0    0    0    0 -0.00000000000E+00 -0.00000000000E+00 -0.10000000000E+04  0.10000000000E+04  0.00000000000E+00 0.  1.
    9000005    2    1    2  501    0  0.21223325542E+02 -0.23047009592E+02 -0.63596562486E+03  0.63680355800E+03  0.92141891215E+01 0.  0.
         13    1    3    3    0    0  0.14912479194E+02 -0.20121434290E+02 -0.43770070586E+03  0.43841665350E+03  0.00000000000E+00 0.  1.
          1    1    3    3  501    0  0.63108463482E+01 -0.29255753024E+01 -0.19826491900E+03  0.19838690450E+03  0.00000000000E+00 0.  1.
         -3    1    1    2    0  502 -0.21223325542E+02  0.23047009592E+02 -0.36294052367E+03  0.36429029347E+03  0.00000000000E+00 0. -1.
<mgrwt>
<rscale>  1 0.30000000E+03</rscale>
<asrwt>0</asrwt>
<pdfrwt beam="1">  1       21 0.39776501E-02 0.30000000E+03</pdfrwt>
<pdfrwt beam="2">0</pdfrwt>
<totfact> 0.42445898E+04</totfact>
</mgrwt>
</event>
<event>
 6    1  0.1284012E-001  0.3000000E+03  0.7818608E-02  0.1093470E+00
         21   -1    0    0  501  502  0.00000000000E+00  0.00000000000E+00  0.20635042176E+01  0.20635042176E+01  0.00000000000E+00 0. -1.
         13   -1    0    0    0    0 -0.00000000000E+00 -0.00000000000E+00 -0.10000000000E+04  0.10000000000E+04  0.00000000000E+00 0.  1.
    9000005    2    1    2  501    0  0.17644378521E+01 -0.39995210009E+02 -0.73429246865E+03  0.73539722756E+03  0.45741360197E+01 0.  0.
         13    1    3    3    0    0  0.71961682488E+00 -0.10426135879E+02 -0.15746529326E+03  0.15781172561E+03  0.00000000000E+00 0.  1.
          3    1    3    3  501    0  0.10448210272E+01 -0.29569074129E+02 -0.57682717539E+03  0.57758550195E+03  0.00000000000E+00 0.  1.
         -1    1    1    2    0  502 -0.17644378521E+01  0.39995210009E+02 -0.26364402713E+03  0.26666627666E+03  0.00000000000E+00 0. -1.
<mgrwt>
<rscale>  1 0.30000000E+03</rscale>
<asrwt>0</asrwt>
<pdfrwt beam="1">  1       21 0.75036675E-02 0.30000000E+03</pdfrwt>
<pdfrwt beam="2">0</pdfrwt>
<totfact> 0.14292224E+04</totfact>
</mgrwt>
</event>
<event>
 6    1  0.1284012E-001  0.3000000E+03  0.7818608E-02  0.1093470E+00
         21   -1    0    0  501  502  0.00000000000E+00  0.00000000000E+00  0.43452085809E+01  0.43452085809E+01  0.00000000000E+00 0. -1.
         13   -1    0    0    0    0 -0.00000000000E+00 -0.00000000000E+00 -0.10000000000E+04  0.10000000000E+04  0.00000000000E+00 0.  1.
    9000005    2    1    2  501    0 -0.48281719946E+02 -0.74731720365E+01 -0.83471612679E+03  0.83615416674E+03  0.39756082184E+01 0.  0.
         13    1    3    3    0    0 -0.17334740288E+02 -0.27670649775E+01 -0.33319896584E+03  0.33366105662E+03  0.00000000000E+00 0.  1.
          3    1    3    3  501    0 -0.30946979657E+02 -0.47061070590E+01 -0.50151716095E+03  0.50249311013E+03  0.00000000000E+00 0.  1.
         -1    1    1    2    0  502  0.48281719946E+02  0.74731720365E+01 -0.16093866463E+03  0.16819104184E+03  0.00000000000E+00 0. -1.
<mgrwt>
<rscale>  1 0.30000000E+03</rscale>
<asrwt>0</asrwt>
<pdfrwt beam="1">  1       21 0.15800792E-01 0.30000000E+03</pdfrwt>
<pdfrwt beam="2">0</pdfrwt>
<totfact> 0.37389277E+03</totfact>
</mgrwt>
</event>
<event>
 6    1  0.1284012E-001  0.3000000E+03  0.7818608E-02  0.1093470E+00
         21   -1    0    0  501  502  0.00000000000E+00  0.00000000000E+00  0.37439207278E+01  0.37439207278E+01  0.00000000000E+00 0. -1.
         13   -1    0    0    0    0 -0.00000000000E+00 -0.00000000000E+00 -0.10000000000E+04  0.10000000000E+04  0.00000000000E+00 0.  1.
    9000005    2    1    2  501    0 -0.22373660734E+02 -0.51980347770E+02 -0.68840792400E+03  0.69073749276E+03  0.32057479696E+01 0.  0.
         13    1    3    3    0    0 -0.14739837049E+02 -0.35907692106E+02 -0.48797029767E+03  0.48951163067E+03  0.00000000000E+00 0.  1.
          1    1    3    3  501    0 -0.76338236845E+01 -0.16072655664E+02 -0.20043762633E+03  0.20122586209E+03  0.00000000000E+00 0.  1.
         -1    1    1    2    0  502  0.22373660734E+02  0.51980347770E+02 -0.30784815527E+03  0.31300642797E+03  0.00000000000E+00 0. -1.
<mgrwt>
<rscale>  1 0.30000000E+03</rscale>
<asrwt>0</asrwt>
<pdfrwt beam="1">  1       21 0.13614286E-01 0.30000000E+03</pdfrwt>
<pdfrwt beam="2">0</pdfrwt>
<totfact> 0.49226823E+03</totfact>
</mgrwt>
</event>
<event>
 6    1  0.1284012E-001  0.3000000E+03  0.7818608E-02  0.1093470E+00
         21   -1    0    0  501  502  0.00000000000E+00  0.00000000000E+00  0.36952794066E+01  0.36952794066E+01  0.00000000000E+00 0. -1.
         13   -1    0    0    0    0 -0.00000000000E+00 -0.00000000000E+00 -0.10000000000E+04  0.10000000000E+04  0.00000000000E+00 0.  1.
    9000005    2    1    2  501    0 -0.36508579463E+02 -0.13474686088E+02 -0.88356090843E+03  0.88442411474E+03  0.34193991679E+01 0.  0.
         13    1    3    3    0    0 -0.10214490309E+02 -0.52704932246E+01 -0.24530000612E+03  0.24556914894E+03  0.00000000000E+00 0.  1.
          1    1    3    3  501    0 -0.26294089153E+02 -0.82041928633E+01 -0.63826090231E+03  0.63885496579E+03  0.00000000000E+00 0.  1.
         -3    1    1    2    0  502  0.36508579463E+02  0.13474686088E+02 -0.11274381217E+03  0.11927116467E+03  0.00000000000E+00 0. -1.
<mgrwt>
<rscale>  1 0.30000000E+03</rscale>
<asrwt>0</asrwt>
<pdfrwt beam="1">  1       21 0.13437408E-01 0.30000000E+03</pdfrwt>
<pdfrwt beam="2">0</pdfrwt>
<totfact> 0.50420248E+03</totfact>
</mgrwt>
</event>
<event>
 6    1  0.1284012E-001  0.3000000E+03  0.7818608E-02  0.1093470E+00
         21   -1    0    0  501  502  0.00000000000E+00  0.00000000000E+00  0.24344180822E+01  0.24344180822E+01  0.00000000000E+00 0. -1.
         13   -1    0    0    0    0 -0.00000000000E+00 -0.00000000000E+00 -0.10000000000E+04  0.10000000000E+04  0.00000000000E+00 0.  1.
    9000005    2    1    2  501    0  0.78385761410E+01 -0.33182599804E+02 -0.85875164548E+03  0.85949444063E+03  0.10666613679E+02 0.  0.
         13    1    3    3    0    0 -0.62060170349E+00 -0.83488986973E+01 -0.31380685334E+03  0.31391850927E+03  0.00000000000E+00 0.  1.
          3    1    3    3  501    0  0.84591778444E+01 -0.24833701107E+02 -0.54494479214E+03  0.54557593136E+03  0.00000000000E+00 0.  1.
         -1    1    1    2    0  502 -0.78385761410E+01  0.33182599804E+02 -0.13881393644E+03  0.14293997746E+03  0.00000000000E+00 0. -1.
<mgrwt>
<rscale>  1 0.30000000E+03</rscale>
<asrwt>0</asrwt>
<pdfrwt beam="1">  1       21 0.88524481E-02 0.30000000E+03</pdfrwt>
<pdfrwt beam="2">0</pdfrwt>
<totfact> 0.10686290E+04</totfact>
</mgrwt>
</event>
<event>
 6    1  0.1284012E-001  0.3000000E+03  0.7818608E-02  0.1093470E+00
         21   -1    0    0  501  502  0.00000000000E+00  0.00000000000E+00  0.19743794234E+01  0.19743794234E+01  0.00000000000E+00 0. -1.
         13   -1    0    0    0    0 -0.00000000000E+00 -0.00000000000E+00 -0.10000000000E+04  0.10000000000E+04  0.00000000000E+00 0.  1.
    9000005    2    1    2  501    0  0.38942367445E+02  0.11558093354E+02 -0.70110071368E+03  0.70228370917E+03  0.31780390575E+01 0.  0.
         13    1    3    3    0    0  0.24820104912E+02  0.68539414261E+01 -0.41876193134E+03  0.41955282058E+03  0.00000000000E+00 0.  1.
          3    1    3    3  501    0  0.14122262533E+02  0.47041519277E+01 -0.28233878234E+03  0.28273088858E+03  0.00000000000E+00 0.  1.
         -3    1    1    2    0  502 -0.38942367445E+02 -0.11558093354E+02 -0.29692490689E+03  0.29969067026E+03  0.00000000000E+00 0. -1.
<mgrwt>
<rscale>  1 0.30000000E+03</rscale>
<asrwt>0</asrwt>
<pdfrwt beam="1">  1       21 0.71795767E-02 0.30000000E+03</pdfrwt>
<pdfrwt beam="2">0</pdfrwt>
<totfact> 0.15438722E+04</totfact>
</mgrwt>
</event>
<event>
 6    1  0.1284012E-001  0.3000000E+03  0.7818608E-02  0.1093470E+00
         21   -1    0    0  501  502  0.00000000000E+00  0.00000000000E+00  0.13573644905E+01  0.13573644905E+01  0.00000000000E+00 0. -1.
         13   -1    0    0    0    0 -0.00000000000E+00 -0.00000000000E+00 -0.10000000000E+04  0.10000000000E+04  0.00000000000E+00 0.  1.
    9000005    2    1    2  501    0 -0.57005088822E+01  0.30037167088E+02 -0.77810971651E+03  0.77871528498E+03  0.28349460848E+01 0.  0.
         13    1    3    3    0    0 -0.24194926364E+01  0.12860967141E+02 -0.36911276949E+03  0.36934468322E+03  0.00000000000E+00 0.  1.
          1    1    3    3  501    0 -0.32810162458E+01  0.17176199947E+02 -0.40899694702E+03  0.40937060176E+03  0.00000000000E+00 0.  1.
         -1    1    1    2    0  502  0.57005088822E+01 -0.30037167088E+02 -0.22053291900E+03  0.22264207951E+03  0.00000000000E+00 0. -1.
<mgrwt>
<rscale>  1 0.30000000E+03</rscale>
<asrwt>0</asrwt>
<pdfrwt beam="1">  1       21 0.49358813E-02 0.30000000E+03</pdfrwt>
<pdfrwt beam="2">0</pdfrwt>
<totfact> 0.29445246E+04</totfact>
</mgrwt>
</event>
<event>
 6    1  0.1284012E-001  0.3000000E+03  0.7818608E-02  0.1093470E+00
         21   -1    0    0  501  502  0.00000000000E+00  0.00000000000E+00  0.13782843549E+01  0.13782843549E+01  0.00000000000E+00 0. -1.
         13   -1    0    0    0    0 -0.00000000000E+00 -0.00000000000E+00 -0.10000000000E+04  0.10000000000E+04  0.00000000000E+00 0.  1.
    9000005    2    1    2  501    0  0.24837986938E+02  0.18131658302E+02 -0.77918269305E+03  0.77979496534E+03  0.29725736001E+01 0.  0.
         13    1    3    3    0    0  0.73375249514E+00  0.26293083935E+00 -0.11678745633E+02  0.11704726605E+02  0.00000000000E+00 0.  1.
          1    1    3    3  501    0  0.24104234443E+02  0.17868727463E+02 -0.76750394742E+03  0.76809023874E+03  0.00000000000E+00 0.  1.
         -3    1    1    2    0  502 -0.24837986938E+02 -0.18131658302E+02 -0.21943902259E+03  0.22158331901E+03  0.00000000000E+00 0. -1.
<mgrwt>
<rscale>  1 0.30000000E+03</rscale>
<asrwt>0</asrwt>
<pdfrwt beam="1">  1       21 0.50119537E-02 0.30000000E+03</pdfrwt>
<pdfrwt beam="2">0</pdfrwt>
<totfact> 0.28687632E+04</totfact>
</mgrwt>
</event>
<event>
 6    1  0.1284012E-001  0.3000000E+03  0.7818608E-02  0.1093470E+00
         21   -1    0    0  501  502  0.00000000000E+00  0.00000000000E+00  0.25760008589E+01  0.25760008589E+01  0.00000000000E+00 0. -1.
         13   -1    0    0    0    0 -0.00000000000E+00 -0.00000000000E+00 -0.10000000000E+04  0.10000000000E+04  0.00000000000E+00 0.  1.
    9000005    2    1    2  501    0 -0.20325308556E+02 -0.45418837259E+02 -0.59500914847E+03  0.59709640706E+03  0.34990879361E+01 0.  0.
         13    1    3    3    0    0 -0.13794382688E+02 -0.33954103863E+02 -0.42693140631E+03  0.42850156575E+03  0.00000000000E+00 0.  1.
          1    1    3    3  501    0 -0.65309258676E+01 -0.11464733395E+02 -0.16807774217E+03  0.16859484131E+03  0.00000000000E+00 0.  1.
         -3    1    1    2    0  502  0.20325308556E+02  0.45418837259E+02 -0.40241485067E+03  0.40547959380E+03  0.00000000000E+00 0. -1.
<mgrwt>
<rscale>  1 0.30000000E+03</rscale>
<asrwt>0</asrwt>
<pdfrwt beam="1">  1       21 0.93672956E-02 0.30000000E+03</pdfrwt>
<pdfrwt beam="2">0</pdfrwt>
<totfact> 0.96667725E+03</totfact>
</mgrwt>
</event>
<event>
 6    1  0.1284012E-001  0.3000000E+03  0.7818608E-02  0.1093470E+00
         21   -1    0    0  501  502  0.00000000000E+00  0.00000000000E+00  0.71218051467E+01  0.71218051467E+01  0.00000000000E+00 0. -1.
         13   -1    0    0    0    0 -0.00000000000E+00 -0.00000000000E+00 -0.10000000000E+04  0.10000000000E+04  0.00000000000E+00 0.  1.
    9000005    2    1    2  501    0  0.81552420280E+02  0.21323890873E+02 -0.50401188358E+03  0.51104139243E+03  0.54608075671E+01 0.  0.
         13    1    3    3    0    0  0.74258961854E+02  0.20912404711E+02 -0.46332395453E+03  0.46970289431E+03  0.00000000000E+00 0.  1.
          3    1    3    3  501    0  0.72934584259E+01  0.41148616231E+00 -0.40687929048E+02  0.41338498121E+02  0.00000000000E+00 0.  1.
         -1    1    1    2    0  502 -0.81552420280E+02 -0.21323890873E+02 -0.48886631128E+03  0.49608041271E+03  0.00000000000E+00 0. -1.
<mgrwt>
<rscale>  1 0.30000000E+03</rscale>
<asrwt>0</asrwt>
<pdfrwt beam="1">  1       21 0.25897528E-01 0.30000000E+03</pdfrwt>
<pdfrwt beam="2">0</pdfrwt>
<totfact> 0.14552806E+03</totfact>
</mgrwt>
</event>
<event>
 6    1  0.1284012E-001  0.3000000E+03  0.7818608E-02  0.1093470E+00
         21   -1    0    0  501  502  0.00000000000E+00  0.00000000000E+00  0.34936684170E+01  0.34936684170E+01  0.00000000000E+00 0. -1.
         13   -1    0    0    0    0 -0.00000000000E+00 -0.00000000000E+00 -0.10000000000E+04  0.10000000000E+04  0.00000000000E+00 0.  1.
    9000005    2    1    2  501    0  0.21329474367E+02  0.27128545872E+02 -0.90550476669E+03  0.90616849547E+03  0.33992925426E+01 0.  0.
         13    1    3    3    0    0  0.13355963261E+01  0.69932265938E+00 -0.47667637791E+02  0.47691472637E+02  0.00000000000E+00 0.  1.
          1    1    3    3  501    0  0.19993878040E+02  0.26429223212E+02 -0.85783712890E+03  0.85847702283E+03  0.00000000000E+00 0.  1.
         -3    1    1    2    0  502 -0.21329474367E+02 -0.27128545872E+02 -0.91001564888E+02  0.97325172951E+02  0.00000000000E+00 0. -1.
<mgrwt>
<rscale>  1 0.30000000E+03</rscale>
<asrwt>0</asrwt>
<pdfrwt beam="1">  1       21 0.12704276E-01 0.30000000E+03</pdfrwt>
<pdfrwt beam="2">0</pdfrwt>
<totfact> 0.55862185E+03</totfact>
</mgrwt>
</event>
<event>
 6    1  0.1284012E-001  0.3000000E+03  0.7818608E-02  0.1093470E+00
         21   -1    0    0  501  502  0.00000000000E+00  0.00000000000E+00  0.94001969503E+00  0.94001969503E+00  0.00000000000E+00 0. -1.
         13   -1    0    0    0    0 -0.00000000000E+00 -0.00000000000E+00 -0.10000000000E+04  0.10000000000E+04  0.00000000000E+00 0.  1.
    9000005    2    1    2  501    0 -0.30525073675E+02  0.10462518424E+01 -0.52402962616E+03  0.52492876759E+03  0.32073650716E+01 0.  0.
         13    1    3    3    0    0 -0.67173800485E+01  0.29654141770E+00 -0.94213963376E+02  0.94453597214E+02  0.00000000000E+00 0.  1.
          1    1    3    3  501    0 -0.23807693626E+02  0.74971042467E+00 -0.42981566278E+03  0.43047517038E+03  0.00000000000E+00 0.  1.
         -3    1    1    2    0  502  0.30525073675E+02 -0.10462518424E+01 -0.47503035415E+03  0.47601125210E+03  0.00000000000E+00 0. -1.
<mgrwt>
<rscale>  1 0.30000000E+03</rscale>
<asrwt>0</asrwt>
<pdfrwt beam="1">  1       21 0.34182606E-02 0.30000000E+03</pdfrwt>
<pdfrwt beam="2">0</pdfrwt>
<totfact> 0.54738759E+04</totfact>
</mgrwt>
</event>
<event>
 6    1  0.1284012E-001  0.3000000E+03  0.7818608E-02  0.1093470E+00
         21   -1    0    0  501  502  0.00000000000E+00  0.00000000000E+00  0.19797374582E+01  0.19797374582E+01  0.00000000000E+00 0. -1.
         13   -1    0    0    0    0 -0.00000000000E+00 -0.00000000000E+00 -0.10000000000E+04  0.10000000000E+04  0.00000000000E+00 0.  1.
    9000005    2    1    2  501    0  0.40851910059E+02  0.48681179785E+00 -0.69571834375E+03  0.69692963395E+03  0.42172639773E+01 0.  0.
         13    1    3    3    0    0  0.39906715150E+02  0.11001995753E+00 -0.68554072212E+03  0.68670127399E+03  0.00000000000E+00 0.  1.
          1    1    3    3  501    0  0.94519490858E+00  0.37679184032E+00 -0.10177621627E+02  0.10228359961E+02  0.00000000000E+00 0.  1.
         -3    1    1    2    0  502 -0.40851910059E+02 -0.48681179785E+00 -0.30230191880E+03  0.30505010351E+03  0.00000000000E+00 0. -1.
<mgrwt>
<rscale>  1 0.30000000E+03</rscale>
<asrwt>0</asrwt>
<pdfrwt beam="1">  1       21 0.71990605E-02 0.30000000E+03</pdfrwt>
<pdfrwt beam="2">0</pdfrwt>
<totfact> 0.15365912E+04</totfact>
</mgrwt>
</event>
<event>
 6    1  0.1284012E-001  0.3000000E+03  0.7818608E-02  0.1093470E+00
         21   -1    0    0  501  502  0.00000000000E+00  0.00000000000E+00  0.17029168688E+01  0.17029168688E+01  0.00000000000E+00 0. -1.
         13   -1    0    0    0    0 -0.00000000000E+00 -0.00000000000E+00 -0.10000000000E+04  0.10000000000E+04  0.00000000000E+00 0.  1.
    9000005    2    1    2  501    0 -0.26817228098E+01 -0.35817709263E+02 -0.26336089474E+03  0.26588955675E+03  0.69423030870E+01 0.  0.
         13    1    3    3    0    0 -0.13985271632E+01 -0.31986678868E+02 -0.21647511545E+03  0.21883002333E+03  0.00000000000E+00 0.  1.
          3    1    3    3  501    0 -0.12831956465E+01 -0.38310303944E+01 -0.46885779294E+02  0.47059533412E+02  0.00000000000E+00 0.  1.
         -1    1    1    2    0  502  0.26817228098E+01  0.35817709263E+02 -0.73493618839E+03  0.73581336012E+03  0.00000000000E+00 0. -1.
<mgrwt>
<rscale>  1 0.30000000E+03</rscale>
<asrwt>0</asrwt>
<pdfrwt beam="1">  1       21 0.61924380E-02 0.30000000E+03</pdfrwt>
<pdfrwt beam="2">0</pdfrwt>
<totfact> 0.19954354E+04</totfact>
</mgrwt>
</event>
<event>
 6    1  0.1284012E-001  0.3000000E+03  0.7818608E-02  0.1093470E+00
         21   -1    0    0  501  502  0.00000000000E+00  0.00000000000E+00  0.27617653412E+01  0.27617653412E+01  0.00000000000E+00 0. -1.
         13   -1    0    0    0    0 -0.00000000000E+00 -0.00000000000E+00 -0.10000000000E+04  0.10000000000E+04  0.00000000000E+00 0.  1.
    9000005    2    1    2  501    0  0.30405865031E+02  0.13630132051E+02 -0.88617829067E+03  0.88681087795E+03  0.33575686976E+01 0.  0.
         13    1    3    3    0    0  0.10314319973E+02  0.42576053028E+01 -0.33913988955E+03  0.33932341075E+03  0.00000000000E+00 0.  1.
          1    1    3    3  501    0  0.20091545058E+02  0.93725267487E+01 -0.54703840112E+03  0.54748746720E+03  0.00000000000E+00 0.  1.
         -1    1    1    2    0  502 -0.30405865031E+02 -0.13630132051E+02 -0.11105994399E+03  0.11595088739E+03  0.00000000000E+00 0. -1.
<mgrwt>
<rscale>  1 0.30000000E+03</rscale>
<asrwt>0</asrwt>
<pdfrwt beam="1">  1       21 0.10042804E-01 0.30000000E+03</pdfrwt>
<pdfrwt beam="2">0</pdfrwt>
<totfact> 0.85377789E+03</totfact>
</mgrwt>
</event>
<event>
 6    1  0.1284012E-001  0.3000000E+03  0.7818608E-02  0.1093470E+00
         21   -1    0    0  501  502  0.00000000000E+00  0.00000000000E+00  0.36947359335E+02  0.36947359335E+02  0.00000000000E+00 0. -1.
         13   -1    0    0    0    0 -0.00000000000E+00 -0.00000000000E+00 -0.10000000000E+04  0.10000000000E+04  0.00000000000E+00 0.  1.
    9000005    2    1    2  501    0  0.27084576551E+02  0.83232926202E+02 -0.94311857768E+03  0.94717731334E+03  0.33040954526E+01 0.  0.
         13    1    3    3    0    0  0.16003773555E+02  0.44042336522E+02 -0.50925980843E+03  0.51141118550E+03  0.00000000000E+00 0.  1.
          3    1    3    3  501    0  0.11080802997E+02  0.39190589680E+02 -0.43385876925E+03  0.43576612784E+03  0.00000000000E+00 0.  1.
         -1    1    1    2    0  502 -0.27084576551E+02 -0.83232926202E+02 -0.19934062986E+02  0.89770045997E+02  0.00000000000E+00 0. -1.
<mgrwt>
<rscale>  1 0.30000000E+03</rscale>
<asrwt>0</asrwt>
<pdfrwt beam="1">  1       21 0.13435432E+00 0.30000000E+03</pdfrwt>
<pdfrwt beam="2">0</pdfrwt>
<totfact> 0.33069782E+01</totfact>
</mgrwt>
</event>
<event>
 6    1  0.1284012E-001  0.3000000E+03  0.7818608E-02  0.1093470E+00
         21   -1    0    0  501  502  0.00000000000E+00  0.00000000000E+00  0.21634378751E+01  0.21634378751E+01  0.00000000000E+00 0. -1.
         13   -1    0    0    0    0 -0.00000000000E+00 -0.00000000000E+00 -0.10000000000E+04  0.10000000000E+04  0.00000000000E+00 0.  1.
    9000005    2    1    2  501    0  0.30807895921E+02  0.85220269318E+01 -0.86220510631E+03  0.86281623410E+03  0.56971116455E+01 0.  0.
         13    1    3    3    0    0  0.28174728937E+02  0.92701078084E+01 -0.80369428864E+03  0.80424141888E+03  0.00000000000E+00 0.  1.
          3    1    3    3  501    0  0.26331669843E+01 -0.74808087658E+00 -0.58510817672E+02  0.58574815220E+02  0.00000000000E+00 0.  1.
         -1    1    1    2    0  502 -0.30807895921E+02 -0.85220269318E+01 -0.13563145581E+03  0.13934720377E+03  0.00000000000E+00 0. -1.
<mgrwt>
<rscale>  1 0.30000000E+03</rscale>
<asrwt>0</asrwt>
<pdfrwt beam="1">  1       21 0.78670634E-02 0.30000000E+03</pdfrwt>
<pdfrwt beam="2">0</pdfrwt>
<totfact> 0.13155242E+04</totfact>
</mgrwt>
</event>
<event>
 6    1  0.1284012E-001  0.3000000E+03  0.7818608E-02  0.1093470E+00
         21   -1    0    0  501  502  0.00000000000E+00  0.00000000000E+00  0.34855568992E+01  0.34855568992E+01  0.00000000000E+00 0. -1.
         13   -1    0    0    0    0 -0.00000000000E+00 -0.00000000000E+00 -0.10000000000E+04  0.10000000000E+04  0.00000000000E+00 0.  1.
    9000005    2    1    2  501    0  0.20209993064E+02 -0.26637989606E+02 -0.91168689408E+03  0.91230584763E+03  0.33076380270E+01 0.  0.
         13    1    3    3    0    0  0.41623245541E+01 -0.78857150588E+01 -0.24616532535E+03  0.24632676844E+03  0.00000000000E+00 0.  1.
          3    1    3    3  501    0  0.16047668510E+02 -0.18752274547E+02 -0.66552156874E+03  0.66597907919E+03  0.00000000000E+00 0.  1.
         -3    1    1    2    0  502 -0.20209993064E+02  0.26637989606E+02 -0.84827549020E+02  0.91179709270E+02  0.00000000000E+00 0. -1.
<mgrwt>
<rscale>  1 0.30000000E+03</rscale>
<asrwt>0</asrwt>
<pdfrwt beam="1">  1       21 0.12674779E-01 0.30000000E+03</pdfrwt>
<pdfrwt beam="2">0</pdfrwt>
<totfact> 0.56099421E+03</totfact>
</mgrwt>
</event>
<event>
 6    1  0.1284012E-001  0.3000000E+03  0.7818608E-02  0.1093470E+00
         21   -1    0    0  501  502  0.00000000000E+00  0.00000000000E+00  0.61604830545E+01  0.61604830545E+01  0.00000000000E+00 0. -1.
         13   -1    0    0    0    0 -0.00000000000E+00 -0.00000000000E+00 -0.10000000000E+04  0.10000000000E+04  0.00000000000E+00 0.  1.
    9000005    2    1    2  501    0 -0.65831274865E+02  0.25857061391E+02 -0.71466317698E+03  0.71816434910E+03  0.37724551650E+01 0.  0.
         13    1    3    3    0    0 -0.17025852604E+02  0.73945436766E+01 -0.17247354835E+03  0.17346954722E+03  0.00000000000E+00 0.  1.
          1    1    3    3  501    0 -0.48805422261E+02  0.18462517715E+02 -0.54218962863E+03  0.54469480189E+03  0.00000000000E+00 0.  1.
         -1    1    1    2    0  502  0.65831274865E+02 -0.25857061391E+02 -0.27917633997E+03  0.28799613395E+03  0.00000000000E+00 0. -1.
<mgrwt>
<rscale>  1 0.30000000E+03</rscale>
<asrwt>0</asrwt>
<pdfrwt beam="1">  1       21 0.22401804E-01 0.30000000E+03</pdfrwt>
<pdfrwt beam="2">0</pdfrwt>
<totfact> 0.19300828E+03</totfact>
</mgrwt>
</event>
<event>
 6    1  0.1284012E-001  0.3000000E+03  0.7818608E-02  0.1093470E+00
         21   -1    0    0  501  502  0.00000000000E+00  0.00000000000E+00  0.88127323737E+01  0.88127323737E+01  0.00000000000E+00 0. -1.
         13   -1    0    0    0    0 -0.00000000000E+00 -0.00000000000E+00 -0.10000000000E+04  0.10000000000E+04  0.00000000000E+00 0.  1.
    9000005    2    1    2  501    0 -0.57551452084E+02  0.24774773816E+02 -0.87063189147E+03  0.87294677720E+03  0.10498872730E+02 0.  0.
         13    1    3    3    0    0 -0.44238188509E+02  0.23648969357E+02 -0.69293976356E+03  0.69475305469E+03  0.00000000000E+00 0.  1.
          1    1    3    3  501    0 -0.13313263574E+02  0.11258044586E+01 -0.17769212791E+03  0.17819372251E+03  0.00000000000E+00 0.  1.
         -1    1    1    2    0  502  0.57551452084E+02 -0.24774773816E+02 -0.12055537616E+03  0.13586595517E+03  0.00000000000E+00 0. -1.
<mgrwt>
<rscale>  1 0.30000000E+03</rscale>
<asrwt>0</asrwt>
<pdfrwt beam="1">  1       21 0.32046367E-01 0.30000000E+03</pdfrwt>
<pdfrwt beam="2">0</pdfrwt>
<totfact> 0.95217619E+02</totfact>
</mgrwt>
</event>
<event>
 6    1  0.1284012E-001  0.3000000E+03  0.7818608E-02  0.1093470E+00
         21   -1    0    0  501  502  0.00000000000E+00  0.00000000000E+00  0.13744201666E+01  0.13744201666E+01  0.00000000000E+00 0. -1.
         13   -1    0    0    0    0 -0.00000000000E+00 -0.00000000000E+00 -0.10000000000E+04  0.10000000000E+04  0.00000000000E+00 0.  1.
    9000005    2    1    2  501    0  0.27436387709E+01  0.36865288886E+02 -0.48659957556E+03  0.48801567023E+03  0.36837999482E+01 0.  0.
         13    1    3    3    0    0  0.73882859500E+00  0.15193260884E+01 -0.28586050197E+02  0.28635929971E+02  0.00000000000E+00 0.  1.
          1    1    3    3  501    0  0.20048101759E+01  0.35345962798E+02 -0.45801352536E+03  0.45937974026E+03  0.00000000000E+00 0.  1.
         -3    1    1    2    0  502 -0.27436387709E+01 -0.36865288886E+02 -0.51202600428E+03  0.51335874993E+03  0.00000000000E+00 0. -1.
<mgrwt>
<rscale>  1 0.30000000E+03</rscale>
<asrwt>0</asrwt>
<pdfrwt beam="1">  1       21 0.49979021E-02 0.30000000E+03</pdfrwt>
<pdfrwt beam="2">0</pdfrwt>
<totfact> 0.28825270E+04</totfact>
</mgrwt>
</event>
<event>
 6    1  0.1284012E-001  0.3000000E+03  0.7818608E-02  0.1093470E+00
         21   -1    0    0  501  502  0.00000000000E+00  0.00000000000E+00  0.29867178143E+01  0.29867178143E+01  0.00000000000E+00 0. -1.
         13   -1    0    0    0    0 -0.00000000000E+00 -0.00000000000E+00 -0.10000000000E+04  0.10000000000E+04  0.00000000000E+00 0.  1.
    9000005    2    1    2  501    0  0.89249343254E+01  0.43214714561E+02 -0.20630183506E+03  0.21104495315E+03  0.56885053221E+01 0.  0.
         13    1    3    3    0    0  0.93808585603E+01  0.40210167998E+02 -0.18689904320E+03  0.19140561765E+03  0.00000000000E+00 0.  1.
          3    1    3    3  501    0 -0.45592423490E+00  0.30045465631E+01 -0.19402791859E+02  0.19639335500E+02  0.00000000000E+00 0.  1.
         -3    1    1    2    0  502 -0.89249343254E+01 -0.43214714561E+02 -0.79071144713E+03  0.79194176467E+03  0.00000000000E+00 0. -1.
<mgrwt>
<rscale>  1 0.30000000E+03</rscale>
<asrwt>0</asrwt>
<pdfrwt beam="1">  1       21 0.10860815E-01 0.30000000E+03</pdfrwt>
<pdfrwt beam="2">0</pdfrwt>
<totfact> 0.74199932E+03</totfact>
</mgrwt>
</event>
<event>
 6    1  0.1284012E-001  0.3000000E+03  0.7818608E-02  0.1093470E+00
         21   -1    0    0  501  502  0.00000000000E+00  0.00000000000E+00  0.94984996354E+00  0.94984996354E+00  0.00000000000E+00 0. -1.
         13   -1    0    0    0    0 -0.00000000000E+00 -0.00000000000E+00 -0.10000000000E+04  0.10000000000E+04  0.00000000000E+00 0.  1.
    9000005    2    1    2  501    0  0.83441529150E+01  0.29556093024E+02 -0.50092887949E+03  0.50188273254E+03  0.36534082507E+01 0.  0.
         13    1    3    3    0    0  0.51480540017E+01  0.12510499045E+02 -0.23473669263E+03  0.23512619998E+03  0.00000000000E+00 0.  1.
          3    1    3    3  501    0  0.31960989133E+01  0.17045593979E+02 -0.26619218686E+03  0.26675653256E+03  0.00000000000E+00 0.  1.
         -3    1    1    2    0  502 -0.83441529150E+01 -0.29556093024E+02 -0.49812127055E+03  0.49906711742E+03  0.00000000000E+00 0. -1.
<mgrwt>
<rscale>  1 0.30000000E+03</rscale>
<asrwt>0</asrwt>
<pdfrwt beam="1">  1       21 0.34540072E-02 0.30000000E+03</pdfrwt>
<pdfrwt beam="2">0</pdfrwt>
<totfact> 0.53794692E+04</totfact>
</mgrwt>
</event>
<event>
 6    1  0.1284012E-001  0.3000000E+03  0.7818608E-02  0.1093470E+00
         21   -1    0    0  501  502  0.00000000000E+00  0.00000000000E+00  0.13965226365E+01  0.13965226365E+01  0.00000000000E+00 0. -1.
         13   -1    0    0    0    0 -0.00000000000E+00 -0.00000000000E+00 -0.10000000000E+04  0.10000000000E+04  0.00000000000E+00 0.  1.
    9000005    2    1    2  501    0  0.17380022186E+02 -0.32449508048E+02 -0.47063514595E+03  0.47214649220E+03  0.83566588851E+01 0.  0.
         13    1    3    3    0    0  0.17562657477E+02 -0.27022055922E+02 -0.39056767336E+03  0.39189507003E+03  0.00000000000E+00 0.  1.
          3    1    3    3  501    0 -0.18263529022E+00 -0.54274521252E+01 -0.80067472598E+02  0.80251422171E+02  0.00000000000E+00 0.  1.
         -1    1    1    2    0  502 -0.17380022186E+02  0.32449508048E+02 -0.52796833141E+03  0.52925003044E+03  0.00000000000E+00 0. -1.
<mgrwt>
<rscale>  1 0.30000000E+03</rscale>
<asrwt>0</asrwt>
<pdfrwt beam="1">  1       21 0.50782748E-02 0.30000000E+03</pdfrwt>
<pdfrwt beam="2">0</pdfrwt>
<totfact> 0.28051608E+04</totfact>
</mgrwt>
</event>
<event>
 6    1  0.1284012E-001  0.3000000E+03  0.7818608E-02  0.1093470E+00
         21   -1    0    0  501  502  0.00000000000E+00  0.00000000000E+00  0.18872640408E+01  0.18872640408E+01  0.00000000000E+00 0. -1.
         13   -1    0    0    0    0 -0.00000000000E+00 -0.00000000000E+00 -0.10000000000E+04  0.10000000000E+04  0.00000000000E+00 0.  1.
    9000005    2    1    2  501    0 -0.32788340221E+02 -0.24352148781E+02 -0.66860178345E+03  0.66985478034E+03  0.29965840355E+01 0.  0.
         13    1    3    3    0    0 -0.11033251891E+02 -0.90112113781E+01 -0.25425170469E+03  0.25465047401E+03  0.00000000000E+00 0.  1.
          1    1    3    3  501    0 -0.21755088331E+02 -0.15340937403E+02 -0.41435007876E+03  0.41520430633E+03  0.00000000000E+00 0.  1.
         -3    1    1    2    0  502  0.32788340221E+02  0.24352148781E+02 -0.32951095251E+03  0.33203248370E+03  0.00000000000E+00 0. -1.
<mgrwt>
<rscale>  1 0.30000000E+03</rscale>
<asrwt>0</asrwt>
<pdfrwt beam="1">  1       21 0.68627928E-02 0.30000000E+03</pdfrwt>
<pdfrwt beam="2">0</pdfrwt>
<totfact> 0.16700402E+04</totfact>
</mgrwt>
</event>
<event>
 6    1  0.1284012E-001  0.3000000E+03  0.7818608E-02  0.1093470E+00
         21   -1    0    0  501  502  0.00000000000E+00  0.00000000000E+00  0.25882518659E+01  0.25882518659E+01  0.00000000000E+00 0. -1.
         13   -1    0    0    0    0 -0.00000000000E+00 -0.00000000000E+00 -0.10000000000E+04  0.10000000000E+04  0.00000000000E+00 0.  1.
    9000005    2    1    2  501    0  0.40188823011E+02  0.30221602096E+02 -0.57192769330E+03  0.57414319395E+03  0.32609930835E+01 0.  0.
         13    1    3    3    0    0  0.22030229390E+01  0.22558924615E+01 -0.43679656723E+02  0.43793318809E+02  0.00000000000E+00 0.  1.
          1    1    3    3  501    0  0.37985800072E+02  0.27965709635E+02 -0.52824803657E+03  0.53034987514E+03  0.00000000000E+00 0.  1.
         -3    1    1    2    0  502 -0.40188823011E+02 -0.30221602096E+02 -0.42548405484E+03  0.42844505791E+03  0.00000000000E+00 0. -1.
<mgrwt>
<rscale>  1 0.30000000E+03</rscale>
<asrwt>0</asrwt>
<pdfrwt beam="1">  1       21 0.94118448E-02 0.30000000E+03</pdfrwt>
<pdfrwt beam="2">0</pdfrwt>
<totfact> 0.95855187E+03</totfact>
</mgrwt>
</event>
<event>
 6    1  0.1284012E-001  0.3000000E+03  0.7818608E-02  0.1093470E+00
         21   -1    0    0  501  502  0.00000000000E+00  0.00000000000E+00  0.12024918394E+01  0.12024918394E+01  0.00000000000E+00 0. -1.
         13   -1    0    0    0    0 -0.00000000000E+00 -0.00000000000E+00 -0.10000000000E+04  0.10000000000E+04  0.00000000000E+00 0.  1.
    9000005    2    1    2  501    0  0.30251937061E+02 -0.14478786809E+02 -0.62312819955E+03  0.62403907316E+03  0.33461595397E+01 0.  0.
         13    1    3    3    0    0  0.60014939451E+01 -0.43698956402E+01 -0.14294267034E+03  0.14313532380E+03  0.00000000000E+00 0.  1.
          3    1    3    3  501    0  0.24250443115E+02 -0.10108891169E+02 -0.48018552922E+03  0.48090374935E+03  0.00000000000E+00 0.  1.
         -3    1    1    2    0  502 -0.30251937061E+02  0.14478786809E+02 -0.37566930861E+03  0.37716341868E+03  0.00000000000E+00 0. -1.
<mgrwt>
<rscale>  1 0.30000000E+03</rscale>
<asrwt>0</asrwt>
<pdfrwt beam="1">  1       21 0.43727068E-02 0.30000000E+03</pdfrwt>
<pdfrwt beam="2">0</pdfrwt>
<totfact> 0.36175621E+04</totfact>
</mgrwt>
</event>
<event>
 6    1  0.1284012E-001  0.3000000E+03  0.7818608E-02  0.1093470E+00
         21   -1    0    0  501  502  0.00000000000E+00  0.00000000000E+00  0.11299620299E+01  0.11299620299E+01  0.00000000000E+00 0. -1.
         13   -1    0    0    0    0 -0.00000000000E+00 -0.00000000000E+00 -0.10000000000E+04  0.10000000000E+04  0.00000000000E+00 0.  1.
    9000005    2    1    2  501    0 -0.33214162953E+02  0.44447894395E+01 -0.48450562903E+03  0.48567513184E+03  0.34194092697E+01 0.  0.
         13    1    3    3    0    0 -0.25922389860E+02  0.36793280761E+01 -0.39734346984E+03  0.39820514911E+03  0.00000000000E+00 0.  1.
          3    1    3    3  501    0 -0.72917730927E+01  0.76546136337E+00 -0.87162159187E+02  0.87469982737E+02  0.00000000000E+00 0.  1.
         -3    1    1    2    0  502  0.33214162953E+02 -0.44447894395E+01 -0.51436440895E+03  0.51545483019E+03  0.00000000000E+00 0. -1.
<mgrwt>
<rscale>  1 0.30000000E+03</rscale>
<asrwt>0</asrwt>
<pdfrwt beam="1">  1       21 0.41089615E-02 0.30000000E+03</pdfrwt>
<pdfrwt beam="2">0</pdfrwt>
<totfact> 0.40185405E+04</totfact>
</mgrwt>
</event>
<event>
 6    1  0.1284012E-001  0.3000000E+03  0.7818608E-02  0.1093470E+00
         21   -1    0    0  501  502  0.00000000000E+00  0.00000000000E+00  0.10414602214E+01  0.10414602214E+01  0.00000000000E+00 0. -1.
         13   -1    0    0    0    0 -0.00000000000E+00 -0.00000000000E+00 -0.10000000000E+04  0.10000000000E+04  0.00000000000E+00 0.  1.
    9000005    2    1    2  501    0  0.15619660399E+02  0.27776289723E+02 -0.57079232583E+03  0.57169101731E+03  0.33532050377E+01 0.  0.
         13    1    3    3    0    0  0.13414478407E+02  0.24385266867E+02 -0.51564656474E+03  0.51639710417E+03  0.00000000000E+00 0.  1.
          3    1    3    3  501    0  0.22051819915E+01  0.33910228560E+01 -0.55145761090E+02  0.55293913136E+02  0.00000000000E+00 0.  1.
         -3    1    1    2    0  502 -0.15619660399E+02 -0.27776289723E+02 -0.42816621395E+03  0.42935044291E+03  0.00000000000E+00 0. -1.
<mgrwt>
<rscale>  1 0.30000000E+03</rscale>
<asrwt>0</asrwt>
<pdfrwt beam="1">  1       21 0.37871361E-02 0.30000000E+03</pdfrwt>
<pdfrwt beam="2">0</pdfrwt>
<totfact> 0.46097952E+04</totfact>
</mgrwt>
</event>
<event>
 6    1  0.1284012E-001  0.3000000E+03  0.7818608E-02  0.1093470E+00
         21   -1    0    0  501  502  0.00000000000E+00  0.00000000000E+00  0.97742152321E+00  0.97742152321E+00  0.00000000000E+00 0. -1.
         13   -1    0    0    0    0 -0.00000000000E+00 -0.00000000000E+00 -0.10000000000E+04  0.10000000000E+04  0.00000000000E+00 0.  1.
    9000005    2    1    2  501    0  0.30451517658E+02  0.24530653166E+01 -0.39842563271E+03  0.39960399035E+03  0.26555311834E+01 0.  0.
         13    1    3    3    0    0  0.26174671407E+01 -0.35347313510E+00 -0.28538938077E+02  0.28660897823E+02  0.00000000000E+00 0.  1.
          3    1    3    3  501    0  0.27834050517E+02  0.28065384517E+01 -0.36988669463E+03  0.37094309252E+03  0.00000000000E+00 0.  1.
         -1    1    1    2    0  502 -0.30451517658E+02 -0.24530653166E+01 -0.60059694577E+03  0.60137343118E+03  0.00000000000E+00 0. -1.
<mgrwt>
<rscale>  1 0.30000000E+03</rscale>
<asrwt>0</asrwt>
<pdfrwt beam="1">  1       21 0.35542676E-02 0.30000000E+03</pdfrwt>
<pdfrwt beam="2">0</pdfrwt>
<totfact> 0.51277778E+04</totfact>
</mgrwt>
</event>
<event>
 6    1  0.1284012E-001  0.3000000E+03  0.7818608E-02  0.1093470E+00
         21   -1    0    0  501  502  0.00000000000E+00  0.00000000000E+00  0.27794611819E+01  0.27794611819E+01  0.00000000000E+00 0. -1.
         13   -1    0    0    0    0 -0.00000000000E+00 -0.00000000000E+00 -0.10000000000E+04  0.10000000000E+04  0.00000000000E+00 0.  1.
    9000005    2    1    2  501    0  0.32165208729E+02  0.28986849759E+02 -0.78431601371E+03  0.78551654460E+03  0.31295945255E+01 0.  0.
         13    1    3    3    0    0  0.29055318815E+02  0.26322125773E+02 -0.69195552025E+03  0.69306529841E+03  0.00000000000E+00 0.  1.
          1    1    3    3  501    0  0.31098899140E+01  0.26647239862E+01 -0.92360493461E+02  0.92451246188E+02  0.00000000000E+00 0.  1.
         -3    1    1    2    0  502 -0.32165208729E+02 -0.28986849759E+02 -0.21290452511E+03  0.21726291658E+03  0.00000000000E+00 0. -1.
<mgrwt>
<rscale>  1 0.30000000E+03</rscale>
<asrwt>0</asrwt>
<pdfrwt beam="1">  1       21 0.10107153E-01 0.30000000E+03</pdfrwt>
<pdfrwt beam="2">0</pdfrwt>
<totfact> 0.84408517E+03</totfact>
</mgrwt>
</event>
<event>
 6    1  0.1284012E-001  0.3000000E+03  0.7818608E-02  0.1093470E+00
         21   -1    0    0  501  502  0.00000000000E+00  0.00000000000E+00  0.23780395695E+01  0.23780395695E+01  0.00000000000E+00 0. -1.
         13   -1    0    0    0    0 -0.00000000000E+00 -0.00000000000E+00 -0.10000000000E+04  0.10000000000E+04  0.00000000000E+00 0.  1.
    9000005    2    1    2  501    0 -0.38533847716E+01 -0.30281194777E+02 -0.88943155561E+03  0.88996379213E+03  0.39063874229E+01 0.  0.
         13    1    3    3    0    0 -0.19454370798E+01 -0.24330063737E+02 -0.73743195855E+03  0.73783577456E+03  0.00000000000E+00 0.  1.
          1    1    3    3  501    0 -0.19079476918E+01 -0.59511310401E+01 -0.15199959706E+03  0.15212801757E+03  0.00000000000E+00 0.  1.
         -1    1    1    2    0  502  0.38533847716E+01  0.30281194777E+02 -0.10819040482E+03  0.11241424744E+03  0.00000000000E+00 0. -1.
<mgrwt>
<rscale>  1 0.30000000E+03</rscale>
<asrwt>0</asrwt>
<pdfrwt beam="1">  1       21 0.86474349E-02 0.30000000E+03</pdfrwt>
<pdfrwt beam="2">0</pdfrwt>
<totfact> 0.11138113E+04</totfact>
</mgrwt>
</event>
<event>
 6    1  0.1284012E-001  0.3000000E+03  0.7818608E-02  0.1093470E+00
         21   -1    0    0  501  502  0.00000000000E+00  0.00000000000E+00  0.32066843526E+01  0.32066843526E+01  0.00000000000E+00 0. -1.
         13   -1    0    0    0    0 -0.00000000000E+00 -0.00000000000E+00 -0.10000000000E+04  0.10000000000E+04  0.00000000000E+00 0.  1.
    9000005    2    1    2  501    0  0.29392513119E+02  0.19221779632E+02 -0.89179289922E+03  0.89248864567E+03  0.28303554168E+01 0.  0.
         13    1    3    3    0    0  0.25128729416E+02  0.15240360487E+02 -0.75213182443E+03  0.75270578777E+03  0.00000000000E+00 0.  1.
          3    1    3    3  501    0  0.42637837030E+01  0.39814191449E+01 -0.13966107479E+03  0.13978285790E+03  0.00000000000E+00 0.  1.
         -3    1    1    2    0  502 -0.29392513119E+02 -0.19221779632E+02 -0.10500041643E+03  0.11071803868E+03  0.00000000000E+00 0. -1.
<mgrwt>
<rscale>  1 0.30000000E+03</rscale>
<asrwt>0</asrwt>
<pdfrwt beam="1">  1       21 0.11660695E-01 0.30000000E+03</pdfrwt>
<pdfrwt beam="2">0</pdfrwt>
<totfact> 0.65277202E+03</totfact>
</mgrwt>
</event>
<event>
 6    1  0.1284012E-001  0.3000000E+03  0.7818608E-02  0.1093470E+00
         21   -1    0    0  501  502  0.00000000000E+00  0.00000000000E+00  0.13350391661E+01  0.13350391661E+01  0.00000000000E+00 0. -1.
         13   -1    0    0    0    0 -0.00000000000E+00 -0.00000000000E+00 -0.10000000000E+04  0.10000000000E+04  0.00000000000E+00 0.  1.
    9000005    2    1    2  501    0  0.16080982156E+02 -0.25352050627E+02 -0.78416595229E+03  0.78474522148E+03  0.27381471628E+01 0.  0.
         13    1    3    3    0    0  0.14810696294E+02 -0.22261397760E+02 -0.67920595189E+03  0.67973204400E+03  0.00000000000E+00 0.  1.
          3    1    3    3  501    0  0.12702858620E+01 -0.30906528669E+01 -0.10496000040E+03  0.10501317748E+03  0.00000000000E+00 0.  1.
         -3    1    1    2    0  502 -0.16080982156E+02  0.25352050627E+02 -0.21449900855E+03  0.21658981769E+03  0.00000000000E+00 0. -1.
<mgrwt>
<rscale>  1 0.30000000E+03</rscale>
<asrwt>0</asrwt>
<pdfrwt beam="1">  1       21 0.48546981E-02 0.30000000E+03</pdfrwt>
<pdfrwt beam="2">0</pdfrwt>
<totfact> 0.30288742E+04</totfact>
</mgrwt>
</event>
<event>
 6    1  0.1284012E-001  0.3000000E+03  0.7818608E-02  0.1093470E+00
         21   -1    0    0  501  502  0.00000000000E+00  0.00000000000E+00  0.22834639727E+01  0.22834639727E+01  0.00000000000E+00 0. -1.
         13   -1    0    0    0    0 -0.00000000000E+00 -0.00000000000E+00 -0.10000000000E+04  0.10000000000E+04  0.00000000000E+00 0.  1.
    9000005    2    1    2  501    0  0.23234139756E+02 -0.23082312531E+02 -0.86358543083E+03  0.86421184566E+03  0.31143916431E+01 0.  0.
         13    1    3    3    0    0  0.10979006739E+02 -0.10703860265E+02 -0.36389577526E+03  0.36421867946E+03  0.00000000000E+00 0.  1.
          1    1    3    3  501    0  0.12255133017E+02 -0.12378452266E+02 -0.49968965557E+03  0.49999316621E+03  0.00000000000E+00 0.  1.
         -3    1    1    2    0  502 -0.23234139756E+02  0.23082312531E+02 -0.13413110519E+03  0.13807161831E+03  0.00000000000E+00 0. -1.
<mgrwt>
<rscale>  1 0.30000000E+03</rscale>
<asrwt>0</asrwt>
<pdfrwt beam="1">  1       21 0.83035229E-02 0.30000000E+03</pdfrwt>
<pdfrwt beam="2">0</pdfrwt>
<totfact> 0.11964224E+04</totfact>
</mgrwt>
</event>
<event>
 6    1  0.1284012E-001  0.3000000E+03  0.7818608E-02  0.1093470E+00
         21   -1    0    0  501  502  0.00000000000E+00  0.00000000000E+00  0.29976640184E+01  0.29976640184E+01  0.00000000000E+00 0. -1.
         13   -1    0    0    0    0 -0.00000000000E+00 -0.00000000000E+00 -0.10000000000E+04  0.10000000000E+04  0.00000000000E+00 0.  1.
    9000005    2    1    2  501    0  0.10084010511E+02  0.53408284671E+02 -0.55649505581E+03  0.55914994686E+03  0.27899456798E+01 0.  0.
         13    1    3    3    0    0  0.32479597087E+01  0.23000166592E+02 -0.22879888613E+03  0.22997497081E+03  0.00000000000E+00 0.  1.
          1    1    3    3  501    0  0.68360508027E+01  0.30408118079E+02 -0.32769616968E+03  0.32917497606E+03  0.00000000000E+00 0.  1.
         -3    1    1    2    0  502 -0.10084010511E+02 -0.53408284671E+02 -0.44050728017E+03  0.44384771715E+03  0.00000000000E+00 0. -1.
<mgrwt>
<rscale>  1 0.30000000E+03</rscale>
<asrwt>0</asrwt>
<pdfrwt beam="1">  1       21 0.10900619E-01 0.30000000E+03</pdfrwt>
<pdfrwt beam="2">0</pdfrwt>
<totfact> 0.73713618E+03</totfact>
</mgrwt>
</event>
<event>
 6    1  0.1284012E-001  0.3000000E+03  0.7818608E-02  0.1093470E+00
         21   -1    0    0  501  502  0.00000000000E+00  0.00000000000E+00  0.12340305619E+01  0.12340305619E+01  0.00000000000E+00 0. -1.
         13   -1    0    0    0    0 -0.00000000000E+00 -0.00000000000E+00 -0.10000000000E+04  0.10000000000E+04  0.00000000000E+00 0.  1.
    9000005    2    1    2  501    0  0.13328212943E+02 -0.32160179542E+02 -0.55702645490E+03  0.55812488248E+03  0.36047992548E+01 0.  0.
         13    1    3    3    0    0  0.11887794423E+02 -0.29909550523E+02 -0.52588836904E+03  0.52687235414E+03  0.00000000000E+00 0.  1.
          1    1    3    3  501    0  0.14404185203E+01 -0.22506290196E+01 -0.31138085866E+02  0.31252528344E+02  0.00000000000E+00 0.  1.
         -3    1    1    2    0  502 -0.13328212943E+02  0.32160179542E+02 -0.44173951454E+03  0.44310914808E+03  0.00000000000E+00 0. -1.
<mgrwt>
<rscale>  1 0.30000000E+03</rscale>
<asrwt>0</asrwt>
<pdfrwt beam="1">  1       21 0.44873933E-02 0.30000000E+03</pdfrwt>
<pdfrwt beam="2">0</pdfrwt>
<totfact> 0.34622600E+04</totfact>
</mgrwt>
</event>
<event>
 6    1  0.1284012E-001  0.3000000E+03  0.7818608E-02  0.1093470E+00
         21   -1    0    0  501  502  0.00000000000E+00  0.00000000000E+00  0.17599472914E+01  0.17599472914E+01  0.00000000000E+00 0. -1.
         13   -1    0    0    0    0 -0.00000000000E+00 -0.00000000000E+00 -0.10000000000E+04  0.10000000000E+04  0.00000000000E+00 0.  1.
    9000005    2    1    2  501    0  0.12006204333E+02 -0.27987920718E+02 -0.84324149002E+03  0.84379784081E+03  0.33336189604E+01 0.  0.
         13    1    3    3    0    0  0.35553436604E+01 -0.50789136731E+01 -0.15921279332E+03  0.15933345345E+03  0.00000000000E+00 0.  1.
          1    1    3    3  501    0  0.84508606724E+01 -0.22909007045E+02 -0.68402869670E+03  0.68446438736E+03  0.00000000000E+00 0.  1.
         -3    1    1    2    0  502 -0.12006204333E+02  0.27987920718E+02 -0.15499856269E+03  0.15796210648E+03  0.00000000000E+00 0. -1.
<mgrwt>
<rscale>  1 0.30000000E+03</rscale>
<asrwt>0</asrwt>
<pdfrwt beam="1">  1       21 0.63998218E-02 0.30000000E+03</pdfrwt>
<pdfrwt beam="2">0</pdfrwt>
<totfact> 0.18849984E+04</totfact>
</mgrwt>
</event>
<event>
 6    1  0.1284012E-001  0.3000000E+03  0.7818608E-02  0.1093470E+00
         21   -1    0    0  501  502  0.00000000000E+00  0.00000000000E+00  0.11558136213E+01  0.11558136213E+01  0.00000000000E+00 0. -1.
         13   -1    0    0    0    0 -0.00000000000E+00 -0.00000000000E+00 -0.10000000000E+04  0.10000000000E+04  0.00000000000E+00 0.  1.
    9000005    2    1    2  501    0  0.24575057696E+02 -0.19966732566E+02 -0.67902451783E+03  0.67977251558E+03  0.37112332164E+01 0.  0.
         13    1    3    3    0    0  0.10436965709E+02 -0.99009650253E+01 -0.33963293523E+03  0.33993747963E+03  0.00000000000E+00 0.  1.
          3    1    3    3  501    0  0.14138091988E+02 -0.10065767540E+02 -0.33939158260E+03  0.33983503595E+03  0.00000000000E+00 0.  1.
         -1    1    1    2    0  502 -0.24575057696E+02  0.19966732566E+02 -0.31981966855E+03  0.32138329804E+03  0.00000000000E+00 0. -1.
<mgrwt>
<rscale>  1 0.30000000E+03</rscale>
<asrwt>0</asrwt>
<pdfrwt beam="1">  1       21 0.42029675E-02 0.30000000E+03</pdfrwt>
<pdfrwt beam="2">0</pdfrwt>
<totfact> 0.38680297E+04</totfact>
</mgrwt>
</event>
<event>
 6    1  0.1284012E-001  0.3000000E+03  0.7818608E-02  0.1093470E+00
         21   -1    0    0  501  502  0.00000000000E+00  0.00000000000E+00  0.11826016663E+01  0.11826016663E+01  0.00000000000E+00 0. -1.
         13   -1    0    0    0    0 -0.00000000000E+00 -0.00000000000E+00 -0.10000000000E+04  0.10000000000E+04  0.00000000000E+00 0.  1.
    9000005    2    1    2  501    0  0.20899317015E+01 -0.33064513698E+02 -0.62924463020E+03  0.63012780676E+03  0.38233924360E+01 0.  0.
         13    1    3    3    0    0  0.40358685995E+00 -0.14097945814E+01 -0.44948915042E+02  0.44972829203E+02  0.00000000000E+00 0.  1.
          3    1    3    3  501    0  0.16863448415E+01 -0.31654719117E+02 -0.58429571516E+03  0.58515497756E+03  0.00000000000E+00 0.  1.
         -1    1    1    2    0  502 -0.20899317015E+01  0.33064513698E+02 -0.36957276813E+03  0.37105479491E+03  0.00000000000E+00 0. -1.
<mgrwt>
<rscale>  1 0.30000000E+03</rscale>
<asrwt>0</asrwt>
<pdfrwt beam="1">  1       21 0.43003788E-02 0.30000000E+03</pdfrwt>
<pdfrwt beam="2">0</pdfrwt>
<totfact> 0.37211200E+04</totfact>
</mgrwt>
</event>
<event>
 6    1  0.1284012E-001  0.3000000E+03  0.7818608E-02  0.1093470E+00
         21   -1    0    0  501  502  0.00000000000E+00  0.00000000000E+00  0.38169955497E+01  0.38169955497E+01  0.00000000000E+00 0. -1.
         13   -1    0    0    0    0 -0.00000000000E+00 -0.00000000000E+00 -0.10000000000E+04  0.10000000000E+04  0.00000000000E+00 0.  1.
    9000005    2    1    2  501    0  0.43770594830E+02 -0.16986106164E+02 -0.82418154554E+03  0.82552259115E+03  0.28170391229E+01 0.  0.
         13    1    3    3    0    0  0.42867482687E+02 -0.16471628835E+02 -0.81158847651E+03  0.81288670233E+03  0.00000000000E+00 0.  1.
          3    1    3    3  501    0  0.90311214241E+00 -0.51447732890E+00 -0.12593069033E+02  0.12635888815E+02  0.00000000000E+00 0.  1.
         -1    1    1    2    0  502 -0.43770594830E+02  0.16986106164E+02 -0.17200145891E+03  0.17829440440E+03  0.00000000000E+00 0. -1.
<mgrwt>
<rscale>  1 0.30000000E+03</rscale>
<asrwt>0</asrwt>
<pdfrwt beam="1">  1       21 0.13880013E-01 0.30000000E+03</pdfrwt>
<pdfrwt beam="2">0</pdfrwt>
<totfact> 0.47511954E+03</totfact>
</mgrwt>
</event>
<event>
 6    1  0.1284012E-001  0.3000000E+03  0.7818608E-02  0.1093470E+00
         21   -1    0    0  501  502  0.00000000000E+00  0.00000000000E+00  0.27689046688E+01  0.27689046688E+01  0.00000000000E+00 0. -1.
         13   -1    0    0    0    0 -0.00000000000E+00 -0.00000000000E+00 -0.10000000000E+04  0.10000000000E+04  0.00000000000E+00 0.  1.
    9000005    2    1    2  501    0 -0.18283842325E+02 -0.37350550518E+02 -0.80567157220E+03  0.80674744305E+03  0.23220889548E+01 0.  0.
         13    1    3    3    0    0 -0.53443348171E+01 -0.93282223632E+01 -0.19414977628E+03  0.19444719920E+03  0.00000000000E+00 0.  1.
          1    1    3    3  501    0 -0.12939507508E+02 -0.28022328155E+02 -0.61152179593E+03  0.61230024386E+03  0.00000000000E+00 0.  1.
         -1    1    1    2    0  502  0.18283842325E+02  0.37350550518E+02 -0.19155952313E+03  0.19602146162E+03  0.00000000000E+00 0. -1.
<mgrwt>
<rscale>  1 0.30000000E+03</rscale>
<asrwt>0</asrwt>
<pdfrwt beam="1">  1       21 0.10068765E-01 0.30000000E+03</pdfrwt>
<pdfrwt beam="2">0</pdfrwt>
<totfact> 0.84984707E+03</totfact>
</mgrwt>
</event>
<event>
 6    1  0.1284012E-001  0.3000000E+03  0.7818608E-02  0.1093470E+00
         21   -1    0    0  501  502  0.00000000000E+00  0.00000000000E+00  0.29647547631E+01  0.29647547631E+01  0.00000000000E+00 0. -1.
         13   -1    0    0    0    0 -0.00000000000E+00 -0.00000000000E+00 -0.10000000000E+04  0.10000000000E+04  0.00000000000E+00 0.  1.
    9000005    2    1    2  501    0 -0.24541388521E+02 -0.34283657755E+02 -0.81314061157E+03  0.81429868672E+03  0.10346403672E+02 0.  0.
         13    1    3    3    0    0 -0.53733900157E+00 -0.44647317370E+01 -0.51209492927E+02  0.51406563088E+02  0.00000000000E+00 0.  1.
          3    1    3    3  501    0 -0.24004049519E+02 -0.29818926018E+02 -0.76193111864E+03  0.76289212363E+03  0.00000000000E+00 0.  1.
         -3    1    1    2    0  502  0.24541388521E+02  0.34283657755E+02 -0.18389463367E+03  0.18866606804E+03  0.00000000000E+00 0. -1.
<mgrwt>
<rscale>  1 0.30000000E+03</rscale>
<asrwt>0</asrwt>
<pdfrwt beam="1">  1       21 0.10780949E-01 0.30000000E+03</pdfrwt>
<pdfrwt beam="2">0</pdfrwt>
<totfact> 0.75190438E+03</totfact>
</mgrwt>
</event>
<event>
 6    1  0.1284012E-001  0.3000000E+03  0.7818608E-02  0.1093470E+00
         21   -1    0    0  501  502  0.00000000000E+00  0.00000000000E+00  0.20997299169E+01  0.20997299169E+01  0.00000000000E+00 0. -1.
         13   -1    0    0    0    0 -0.00000000000E+00 -0.00000000000E+00 -0.10000000000E+04  0.10000000000E+04  0.00000000000E+00 0.  1.
    9000005    2    1    2  501    0  0.17057303983E+01 -0.31723332853E+02 -0.85977561925E+03  0.86036865170E+03  0.32896832549E+01 0.  0.
         13    1    3    3    0    0  0.42197955213E+00 -0.27483348207E+02 -0.75114323755E+03  0.75164597771E+03  0.00000000000E+00 0.  1.
          3    1    3    3  501    0  0.12837508461E+01 -0.42399846454E+01 -0.10863238170E+03  0.10872267399E+03  0.00000000000E+00 0.  1.
         -1    1    1    2    0  502 -0.17057303983E+01  0.31723332853E+02 -0.13812465084E+03  0.14173107822E+03  0.00000000000E+00 0. -1.
<mgrwt>
<rscale>  1 0.30000000E+03</rscale>
<asrwt>0</asrwt>
<pdfrwt beam="1">  1       21 0.76353976E-02 0.30000000E+03</pdfrwt>
<pdfrwt beam="2">0</pdfrwt>
<totfact> 0.13863130E+04</totfact>
</mgrwt>
</event>
<event>
 6    1  0.1284012E-001  0.3000000E+03  0.7818608E-02  0.1093470E+00
         21   -1    0    0  501  502  0.00000000000E+00  0.00000000000E+00  0.12682399381E+01  0.12682399381E+01  0.00000000000E+00 0. -1.
         13   -1    0    0    0    0 -0.00000000000E+00 -0.00000000000E+00 -0.10000000000E+04  0.10000000000E+04  0.00000000000E+00 0.  1.
    9000005    2    1    2  501    0  0.11788008530E+02  0.29710751288E+02 -0.28273653279E+03  0.28455989524E+03  0.35638625475E+01 0.  0.
         13    1    3    3    0    0  0.82270241591E+01  0.24502851756E+02 -0.22508359127E+03  0.22656278761E+03  0.00000000000E+00 0.  1.
          1    1    3    3  501    0  0.35609843707E+01  0.52078995317E+01 -0.57652941526E+02  0.57997107633E+02  0.00000000000E+00 0.  1.
         -3    1    1    2    0  502 -0.11788008530E+02 -0.29710751288E+02 -0.71599522727E+03  0.71670834470E+03  0.00000000000E+00 0. -1.
<mgrwt>
<rscale>  1 0.30000000E+03</rscale>
<asrwt>0</asrwt>
<pdfrwt beam="1">  1       21 0.46117913E-02 0.30000000E+03</pdfrwt>
<pdfrwt beam="2">0</pdfrwt>
<totfact> 0.33051709E+04</totfact>
</mgrwt>
</event>
<event>
 6    1  0.1284012E-001  0.3000000E+03  0.7818608E-02  0.1093470E+00
         21   -1    0    0  501  502  0.00000000000E+00  0.00000000000E+00  0.10955937794E+01  0.10955937794E+01  0.00000000000E+00 0. -1.
         13   -1    0    0    0    0 -0.00000000000E+00 -0.00000000000E+00 -0.10000000000E+04  0.10000000000E+04  0.00000000000E+00 0.  1.
    9000005    2    1    2  501    0 -0.31228524684E+02 -0.10608426944E+02 -0.52546811980E+03  0.52651190593E+03  0.32066618445E+01 0.  0.
         13    1    3    3    0    0 -0.24017307542E+02 -0.94409080378E+01 -0.41785707464E+03  0.41865319375E+03  0.00000000000E+00 0.  1.
          3    1    3    3  501    0 -0.72112171416E+01 -0.11675189064E+01 -0.10761104515E+03  0.10785871218E+03  0.00000000000E+00 0.  1.
         -3    1    1    2    0  502  0.31228524684E+02  0.10608426944E+02 -0.47343628642E+03  0.47458368785E+03  0.00000000000E+00 0. -1.
<mgrwt>
<rscale>  1 0.30000000E+03</rscale>
<asrwt>0</asrwt>
<pdfrwt beam="1">  1       21 0.39839858E-02 0.30000000E+03</pdfrwt>
<pdfrwt beam="2">0</pdfrwt>
<totfact> 0.42332313E+04</totfact>
</mgrwt>
</event>
<event>
 6    1  0.1284012E-001  0.3000000E+03  0.7818608E-02  0.1093470E+00
         21   -1    0    0  501  502  0.00000000000E+00  0.00000000000E+00  0.10079768637E+01  0.10079768637E+01  0.00000000000E+00 0. -1.
         13   -1    0    0    0    0 -0.00000000000E+00 -0.00000000000E+00 -0.10000000000E+04  0.10000000000E+04  0.00000000000E+00 0.  1.
    9000005    2    1    2  501    0 -0.18052086349E+02 -0.24591697007E+02 -0.36715716275E+03  0.36843709532E+03  0.32987365293E+01 0.  0.
         13    1    3    3    0    0 -0.13848640177E+02 -0.18394020440E+02 -0.29275462404E+03  0.29365863638E+03  0.00000000000E+00 0.  1.
          1    1    3    3  501    0 -0.42034461724E+01 -0.61976765677E+01 -0.74402538712E+02  0.74778458940E+02  0.00000000000E+00 0.  1.
         -3    1    1    2    0  502  0.18052086349E+02  0.24591697007E+02 -0.63183486038E+03  0.63257088155E+03  0.00000000000E+00 0. -1.
<mgrwt>
<rscale>  1 0.30000000E+03</rscale>
<asrwt>0</asrwt>
<pdfrwt beam="1">  1       21 0.36653781E-02 0.30000000E+03</pdfrwt>
<pdfrwt beam="2">0</pdfrwt>
<totfact> 0.48697721E+04</totfact>
</mgrwt>
</event>
<event>
 6    1  0.1284012E-001  0.3000000E+03  0.7818608E-02  0.1093470E+00
         21   -1    0    0  501  502  0.00000000000E+00  0.00000000000E+00  0.53789774667E+01  0.53789774667E+01  0.00000000000E+00 0. -1.
         13   -1    0    0    0    0 -0.00000000000E+00 -0.00000000000E+00 -0.10000000000E+04  0.10000000000E+04  0.00000000000E+00 0.  1.
    9000005    2    1    2  501    0  0.39198969560E+02 -0.46591632619E+02 -0.77724600664E+03  0.77963745054E+03  0.39824618285E+01 0.  0.
         13    1    3    3    0    0  0.33600005709E+02 -0.40992301952E+02 -0.69008221541E+03  0.69211472549E+03  0.00000000000E+00 0.  1.
          3    1    3    3  501    0  0.55989638512E+01 -0.55993306667E+01 -0.87163791221E+02  0.87522725049E+02  0.00000000000E+00 0.  1.
         -1    1    1    2    0  502 -0.39198969560E+02  0.46591632619E+02 -0.21737501590E+03  0.22574152693E+03  0.00000000000E+00 0. -1.
<mgrwt>
<rscale>  1 0.30000000E+03</rscale>
<asrwt>0</asrwt>
<pdfrwt beam="1">  1       21 0.19559959E-01 0.30000000E+03</pdfrwt>
<pdfrwt beam="2">0</pdfrwt>
<totfact> 0.25031395E+03</totfact>
</mgrwt>
</event>
<event>
 6    1  0.1284012E-001  0.3000000E+03  0.7818608E-02  0.1093470E+00
         21   -1    0    0  501  502  0.00000000000E+00  0.00000000000E+00  0.10874639192E+01  0.10874639192E+01  0.00000000000E+00 0. -1.
         13   -1    0    0    0    0 -0.00000000000E+00 -0.00000000000E+00 -0.10000000000E+04  0.10000000000E+04  0.00000000000E+00 0.  1.
    9000005    2    1    2  501    0  0.25314103321E+01  0.32685378786E+02 -0.54094915107E+03  0.54195218534E+03  0.33830648510E+01 0.  0.
         13    1    3    3    0    0  0.11015244910E+01  0.15566576747E+02 -0.28536540080E+03  0.28579178372E+03  0.00000000000E+00 0.  1.
          3    1    3    3  501    0  0.14298858411E+01  0.17118802039E+02 -0.25558375026E+03  0.25616040161E+03  0.00000000000E+00 0.  1.
         -1    1    1    2    0  502 -0.25314103321E+01 -0.32685378786E+02 -0.45796338501E+03  0.45913527858E+03  0.00000000000E+00 0. -1.
<mgrwt>
<rscale>  1 0.30000000E+03</rscale>
<asrwt>0</asrwt>
<pdfrwt beam="1">  1       21 0.39544226E-02 0.30000000E+03</pdfrwt>
<pdfrwt beam="2">0</pdfrwt>
<totfact> 0.42866424E+04</totfact>
</mgrwt>
</event>
<event>
 6    1  0.1284012E-001  0.3000000E+03  0.7818608E-02  0.1093470E+00
         21   -1    0    0  501  502  0.00000000000E+00  0.00000000000E+00  0.23066613781E+01  0.23066613781E+01  0.00000000000E+00 0. -1.
         13   -1    0    0    0    0 -0.00000000000E+00 -0.00000000000E+00 -0.10000000000E+04  0.10000000000E+04  0.00000000000E+00 0.  1.
    9000005    2    1    2  501    0  0.29065291916E+02 -0.14843005367E+02 -0.86625674813E+03  0.86687888238E+03  0.36245061191E+01 0.  0.
         13    1    3    3    0    0  0.10046606812E+02 -0.53637856060E+01 -0.25853351808E+03  0.25878424309E+03  0.00000000000E+00 0.  1.
          3    1    3    3  501    0  0.19018685104E+02 -0.94792197610E+01 -0.60772323005E+03  0.60809463929E+03  0.00000000000E+00 0.  1.
         -1    1    1    2    0  502 -0.29065291916E+02  0.14843005367E+02 -0.13143659050E+03  0.13542777900E+03  0.00000000000E+00 0. -1.
<mgrwt>
<rscale>  1 0.30000000E+03</rscale>
<asrwt>0</asrwt>
<pdfrwt beam="1">  1       21 0.83878772E-02 0.30000000E+03</pdfrwt>
<pdfrwt beam="2">0</pdfrwt>
<totfact> 0.11753139E+04</totfact>
</mgrwt>
</event>
<event>
 6    1  0.1284012E-001  0.3000000E+03  0.7818608E-02  0.1093470E+00
         21   -1    0    0  501  502  0.00000000000E+00  0.00000000000E+00  0.11619779587E+01  0.11619779587E+01  0.00000000000E+00 0. -1.
         13   -1    0    0    0    0 -0.00000000000E+00 -0.00000000000E+00 -0.10000000000E+04  0.10000000000E+04  0.00000000000E+00 0.  1.
    9000005    2    1    2  501    0 -0.19815954060E+02 -0.23008312893E+02 -0.72477445160E+03  0.72542134776E+03  0.40089401658E+01 0.  0.
         13    1    3    3    0    0 -0.16334192158E+02 -0.19413923832E+02 -0.56660580345E+03  0.56717355614E+03  0.00000000000E+00 0.  1.
          3    1    3    3  501    0 -0.34817619023E+01 -0.35943890618E+01 -0.15816864814E+03  0.15824779162E+03  0.00000000000E+00 0.  1.
         -1    1    1    2    0  502  0.19815954060E+02  0.23008312893E+02 -0.27406357044E+03  0.27574063020E+03  0.00000000000E+00 0. -1.
<mgrwt>
<rscale>  1 0.30000000E+03</rscale>
<asrwt>0</asrwt>
<pdfrwt beam="1">  1       21 0.42253833E-02 0.30000000E+03</pdfrwt>
<pdfrwt beam="2">0</pdfrwt>
<totfact> 0.38334349E+04</totfact>
</mgrwt>
</event>
<event>
 6    1  0.1284012E-001  0.3000000E+03  0.7818608E-02  0.1093470E+00
         21   -1    0    0  501  502  0.00000000000E+00  0.00000000000E+00  0.18148138909E+01  0.18148138909E+01  0.00000000000E+00 0. -1.
         13   -1    0    0    0    0 -0.00000000000E+00 -0.00000000000E+00 -0.10000000000E+04  0.10000000000E+04  0.00000000000E+00 0.  1.
    9000005    2    1    2  501    0  0.11374266811E+02 -0.29128256034E+02 -0.83895582872E+03  0.83954399858E+03  0.30681874383E+01 0.  0.
         13    1    3    3    0    0  0.72408814108E-01  0.76275208771E-01 -0.26699728859E+01  0.26720434419E+01  0.00000000000E+00 0.  1.
          3    1    3    3  501    0  0.11301857997E+02 -0.29204531242E+02 -0.83628585583E+03  0.83687195514E+03  0.00000000000E+00 0.  1.
         -1    1    1    2    0  502 -0.11374266811E+02  0.29128256034E+02 -0.15922935739E+03  0.16227081531E+03  0.00000000000E+00 0. -1.
<mgrwt>
<rscale>  1 0.30000000E+03</rscale>
<asrwt>0</asrwt>
<pdfrwt beam="1">  1       21 0.65993372E-02 0.30000000E+03</pdfrwt>
<pdfrwt beam="2">0</pdfrwt>
<totfact> 0.17874229E+04</totfact>
</mgrwt>
</event>
<event>
 6    1  0.1284012E-001  0.3000000E+03  0.7818608E-02  0.1093470E+00
         21   -1    0    0  501  502  0.00000000000E+00  0.00000000000E+00  0.21252658070E+01  0.21252658070E+01  0.00000000000E+00 0. -1.
         13   -1    0    0    0    0 -0.00000000000E+00 -0.00000000000E+00 -0.10000000000E+04  0.10000000000E+04  0.00000000000E+00 0.  1.
    9000005    2    1    2  501    0 -0.45656656456E+01  0.45067915420E+02 -0.58939442927E+03  0.59114093300E+03  0.31380105150E+01 0.  0.
         13    1    3    3    0    0 -0.40864738834E+01  0.33492325765E+02 -0.45362860815E+03  0.45488168713E+03  0.00000000000E+00 0.  1.
          3    1    3    3  501    0 -0.47919176210E+00  0.11575589656E+02 -0.13576582112E+03  0.13625924587E+03  0.00000000000E+00 0.  1.
         -1    1    1    2    0  502  0.45656656456E+01 -0.45067915420E+02 -0.40848030492E+03  0.41098433280E+03  0.00000000000E+00 0. -1.
<mgrwt>
<rscale>  1 0.30000000E+03</rscale>
<asrwt>0</asrwt>
<pdfrwt beam="1">  1       21 0.77282556E-02 0.30000000E+03</pdfrwt>
<pdfrwt beam="2">0</pdfrwt>
<totfact> 0.13572494E+04</totfact>
</mgrwt>
</event>
<event>
 6    1  0.1284012E-001  0.3000000E+03  0.7818608E-02  0.1093470E+00
         21   -1    0    0  501  502  0.00000000000E+00  0.00000000000E+00  0.11278112979E+01  0.11278112979E+01  0.00000000000E+00 0. -1.
         13   -1    0    0    0    0 -0.00000000000E+00 -0.00000000000E+00 -0.10000000000E+04  0.10000000000E+04  0.00000000000E+00 0.  1.
    9000005    2    1    2  501    0  0.15676797173E+02  0.26481103558E+02 -0.69759908657E+03  0.69828710584E+03  0.36586583492E+01 0.  0.
         13    1    3    3    0    0  0.14652695747E+02  0.25918423961E+02 -0.67774034977E+03  0.67839402113E+03  0.00000000000E+00 0.  1.
          1    1    3    3  501    0  0.10241014256E+01  0.56267959707E+00 -0.19858736797E+02  0.19893084709E+02  0.00000000000E+00 0.  1.
         -1    1    1    2    0  502 -0.15676797173E+02 -0.26481103558E+02 -0.30127310213E+03  0.30284070546E+03  0.00000000000E+00 0. -1.
<mgrwt>
<rscale>  1 0.30000000E+03</rscale>
<asrwt>0</asrwt>
<pdfrwt beam="1">  1       21 0.41011406E-02 0.30000000E+03</pdfrwt>
<pdfrwt beam="2">0</pdfrwt>
<totfact> 0.40314721E+04</totfact>
</mgrwt>
</event>
<event>
 6    1  0.1284012E-001  0.3000000E+03  0.7818608E-02  0.1093470E+00
         21   -1    0    0  501  502  0.00000000000E+00  0.00000000000E+00  0.17284522002E+01  0.17284522002E+01  0.00000000000E+00 0. -1.
         13   -1    0    0    0    0 -0.00000000000E+00 -0.00000000000E+00 -0.10000000000E+04  0.10000000000E+04  0.00000000000E+00 0.  1.
    9000005    2    1    2  501    0 -0.15374070340E+02  0.36955433157E+02 -0.63200353747E+03  0.63327991921E+03  0.35942467367E+01 0.  0.
         13    1    3    3    0    0 -0.15413945990E+01  0.73376481195E+01 -0.11696961764E+03  0.11720967720E+03  0.00000000000E+00 0.  1.
          3    1    3    3  501    0 -0.13832675741E+02  0.29617785037E+02 -0.51503391983E+03  0.51607024201E+03  0.00000000000E+00 0.  1.
         -3    1    1    2    0  502  0.15374070340E+02 -0.36955433157E+02 -0.36626801032E+03  0.36844853299E+03  0.00000000000E+00 0. -1.
<mgrwt>
<rscale>  1 0.30000000E+03</rscale>
<asrwt>0</asrwt>
<pdfrwt beam="1">  1       21 0.62852940E-02 0.30000000E+03</pdfrwt>
<pdfrwt beam="2">0</pdfrwt>
<totfact> 0.19447805E+04</totfact>
</mgrwt>
</event>
<event>
 6    1  0.1284012E-001  0.3000000E+03  0.7818608E-02  0.1093470E+00
         21   -1    0    0  501  502  0.00000000000E+00  0.00000000000E+00  0.10334681557E+01  0.10334681557E+01  0.00000000000E+00 0. -1.
         13   -1    0    0    0    0 -0.00000000000E+00 -0.00000000000E+00 -0.10000000000E+04  0.10000000000E+04  0.00000000000E+00 0.  1.
    9000005    2    1    2  501    0 -0.20758188459E+02  0.23449217031E+02 -0.39211487854E+03  0.39337427314E+03  0.29107781558E+01 0.  0.
         13    1    3    3    0    0 -0.11296283731E+02  0.14007645256E+02 -0.21008411396E+03  0.21085339715E+03  0.00000000000E+00 0.  1.
          3    1    3    3  501    0 -0.94619047287E+01  0.94415717749E+01 -0.18203076458E+03  0.18252087599E+03  0.00000000000E+00 0.  1.
         -3    1    1    2    0  502  0.20758188459E+02 -0.23449217031E+02 -0.60685165330E+03  0.60765919501E+03  0.00000000000E+00 0. -1.
<mgrwt>
<rscale>  1 0.30000000E+03</rscale>
<asrwt>0</asrwt>
<pdfrwt beam="1">  1       21 0.37580739E-02 0.30000000E+03</pdfrwt>
<pdfrwt beam="2">0</pdfrwt>
<totfact> 0.46698302E+04</totfact>
</mgrwt>
</event>
<event>
 6    1  0.1284012E-001  0.3000000E+03  0.7818608E-02  0.1093470E+00
         21   -1    0    0  501  502  0.00000000000E+00  0.00000000000E+00  0.29764259241E+01  0.29764259241E+01  0.00000000000E+00 0. -1.
         13   -1    0    0    0    0 -0.00000000000E+00 -0.00000000000E+00 -0.10000000000E+04  0.10000000000E+04  0.00000000000E+00 0.  1.
    9000005    2    1    2  501    0 -0.40460900851E+02 -0.36507845812E+02 -0.49315175554E+03  0.49616608979E+03  0.34967636765E+01 0.  0.
         13    1    3    3    0    0 -0.53624462520E+01 -0.33456786771E+01 -0.55949864565E+02  0.56305743405E+02  0.00000000000E+00 0.  1.
          3    1    3    3  501    0 -0.35098454599E+02 -0.33162167135E+02 -0.43720189098E+03  0.43986034638E+03  0.00000000000E+00 0.  1.
         -3    1    1    2    0  502  0.40460900851E+02  0.36507845812E+02 -0.50387181853E+03  0.50681033614E+03  0.00000000000E+00 0. -1.
<mgrwt>
<rscale>  1 0.30000000E+03</rscale>
<asrwt>0</asrwt>
<pdfrwt beam="1">  1       21 0.10823390E-01 0.30000000E+03</pdfrwt>
<pdfrwt beam="2">0</pdfrwt>
<totfact> 0.74661611E+03</totfact>
</mgrwt>
</event>
<event>
 6    1  0.1284012E-001  0.3000000E+03  0.7818608E-02  0.1093470E+00
         21   -1    0    0  501  502  0.00000000000E+00  0.00000000000E+00  0.16221647472E+01  0.16221647472E+01  0.00000000000E+00 0. -1.
         13   -1    0    0    0    0 -0.00000000000E+00 -0.00000000000E+00 -0.10000000000E+04  0.10000000000E+04  0.00000000000E+00 0.  1.
    9000005    2    1    2  501    0 -0.30409974027E+02 -0.14242752479E+02 -0.77478920651E+03  0.77552595199E+03  0.38164345296E+01 0.  0.
         13    1    3    3    0    0 -0.75779484182E+01 -0.50235579041E+01 -0.23367918677E+03  0.23385598938E+03  0.00000000000E+00 0.  1.
          1    1    3    3  501    0 -0.22832025609E+02 -0.92191945752E+01 -0.54111001973E+03  0.54166996262E+03  0.00000000000E+00 0.  1.
         -1    1    1    2    0  502  0.30409974027E+02  0.14242752479E+02 -0.22358862874E+03  0.22609621275E+03  0.00000000000E+00 0. -1.
<mgrwt>
<rscale>  1 0.30000000E+03</rscale>
<asrwt>0</asrwt>
<pdfrwt beam="1">  1       21 0.58987933E-02 0.30000000E+03</pdfrwt>
<pdfrwt beam="2">0</pdfrwt>
<totfact> 0.21698838E+04</totfact>
</mgrwt>
</event>
<event>
 6    1  0.1284012E-001  0.3000000E+03  0.7818608E-02  0.1093470E+00
         21   -1    0    0  501  502  0.00000000000E+00  0.00000000000E+00  0.18091895926E+01  0.18091895926E+01  0.00000000000E+00 0. -1.
         13   -1    0    0    0    0 -0.00000000000E+00 -0.00000000000E+00 -0.10000000000E+04  0.10000000000E+04  0.00000000000E+00 0.  1.
    9000005    2    1    2  501    0  0.18675926772E+02  0.24082912768E+02 -0.84821910243E+03  0.84877229822E+03  0.31609437968E+01 0.  0.
         13    1    3    3    0    0  0.15518776628E+02  0.19997052240E+02 -0.73450421767E+03  0.73494024267E+03  0.00000000000E+00 0.  1.
          3    1    3    3  501    0  0.31571501437E+01  0.40858605278E+01 -0.11371488477E+03  0.11383205555E+03  0.00000000000E+00 0.  1.
         -3    1    1    2    0  502 -0.18675926772E+02 -0.24082912768E+02 -0.14997170797E+03  0.15303689137E+03  0.00000000000E+00 0. -1.
<mgrwt>
<rscale>  1 0.30000000E+03</rscale>
<asrwt>0</asrwt>
<pdfrwt beam="1">  1       21 0.65788851E-02 0.30000000E+03</pdfrwt>
<pdfrwt beam="2">0</pdfrwt>
<totfact> 0.17970625E+04</totfact>
</mgrwt>
</event>
<event>
 6    1  0.1284012E-001  0.3000000E+03  0.7818608E-02  0.1093470E+00
         21   -1    0    0  501  502  0.00000000000E+00  0.00000000000E+00  0.12215056998E+01  0.12215056998E+01  0.00000000000E+00 0. -1.
         13   -1    0    0    0    0 -0.00000000000E+00 -0.00000000000E+00 -0.10000000000E+04  0.10000000000E+04  0.00000000000E+00 0.  1.
    9000005    2    1    2  501    0  0.30531639427E+02 -0.55790335376E+01 -0.72815925323E+03  0.72882826008E+03  0.33805335397E+01 0.  0.
         13    1    3    3    0    0  0.17868289119E+02 -0.19559255309E+01 -0.39514292164E+03  0.39555155153E+03  0.00000000000E+00 0.  1.
          1    1    3    3  501    0  0.12663350308E+02 -0.36231080067E+01 -0.33301633159E+03  0.33327670854E+03  0.00000000000E+00 0.  1.
         -1    1    1    2    0  502 -0.30531639427E+02  0.55790335376E+01 -0.27061924107E+03  0.27239324562E+03  0.00000000000E+00 0. -1.
<mgrwt>
<rscale>  1 0.30000000E+03</rscale>
<asrwt>0</asrwt>
<pdfrwt beam="1">  1       21 0.44418483E-02 0.30000000E+03</pdfrwt>
<pdfrwt beam="2">0</pdfrwt>
<totfact> 0.35226782E+04</totfact>
</mgrwt>
</event>
<event>
 6    1  0.1284012E-001  0.3000000E+03  0.7818608E-02  0.1093470E+00
         21   -1    0    0  501  502  0.00000000000E+00  0.00000000000E+00  0.24360043986E+01  0.24360043986E+01  0.00000000000E+00 0. -1.
         13   -1    0    0    0    0 -0.00000000000E+00 -0.00000000000E+00 -0.10000000000E+04  0.10000000000E+04  0.00000000000E+00 0.  1.
    9000005    2    1    2  501    0  0.73219590479E+01 -0.32304701943E+02 -0.87023498710E+03  0.87086898247E+03  0.25781799790E+01 0.  0.
         13    1    3    3    0    0  0.18605349648E+01 -0.87520861258E+01 -0.20639166569E+03  0.20658552773E+03  0.00000000000E+00 0.  1.
          3    1    3    3  501    0  0.54614240831E+01 -0.23552615817E+02 -0.66384332141E+03  0.66428345474E+03  0.00000000000E+00 0.  1.
         -1    1    1    2    0  502 -0.73219590479E+01  0.32304701943E+02 -0.12732900850E+03  0.13156702193E+03  0.00000000000E+00 0. -1.
<mgrwt>
<rscale>  1 0.30000000E+03</rscale>
<asrwt>0</asrwt>
<pdfrwt beam="1">  1       21 0.88582165E-02 0.30000000E+03</pdfrwt>
<pdfrwt beam="2">0</pdfrwt>
<totfact> 0.10673982E+04</totfact>
</mgrwt>
</event>
<event>
 6    1  0.1284012E-001  0.3000000E+03  0.7818608E-02  0.1093470E+00
         21   -1    0    0  501  502  0.00000000000E+00  0.00000000000E+00  0.19378135973E+01  0.19378135973E+01  0.00000000000E+00 0. -1.
         13   -1    0    0    0    0 -0.00000000000E+00 -0.00000000000E+00 -0.10000000000E+04  0.10000000000E+04  0.00000000000E+00 0.  1.
    9000005    2    1    2  501    0  0.33731359108E+02  0.21827910733E+02 -0.70162621831E+03  0.70279145234E+03  0.47130656946E+01 0.  0.
         13    1    3    3    0    0  0.17398371661E+02  0.86500950762E+01 -0.32229803484E+03  0.32288318436E+03  0.00000000000E+00 0.  1.
          1    1    3    3  501    0  0.16332987447E+02  0.13177815657E+02 -0.37932818347E+03  0.37990826798E+03  0.00000000000E+00 0.  1.
         -3    1    1    2    0  502 -0.33731359108E+02 -0.21827910733E+02 -0.29643596809E+03  0.29914636126E+03  0.00000000000E+00 0. -1.
<mgrwt>
<rscale>  1 0.30000000E+03</rscale>
<asrwt>0</asrwt>
<pdfrwt beam="1">  1       21 0.70466098E-02 0.30000000E+03</pdfrwt>
<pdfrwt beam="2">0</pdfrwt>
<totfact> 0.15949952E+04</totfact>
</mgrwt>
</event>
<event>
 6    1  0.1284012E-001  0.3000000E+03  0.7818608E-02  0.1093470E+00
         21   -1    0    0  501  502  0.00000000000E+00  0.00000000000E+00  0.23713517637E+01  0.23713517637E+01  0.00000000000E+00 0. -1.
         13   -1    0    0    0    0 -0.00000000000E+00 -0.00000000000E+00 -0.10000000000E+04  0.10000000000E+04  0.00000000000E+00 0.  1.
    9000005    2    1    2  501    0 -0.83185963804E+01 -0.47492127361E+02 -0.55156912718E+03  0.55371357848E+03  0.67471270205E+01 0.  0.
         13    1    3    3    0    0 -0.41678456174E+01 -0.39099019890E+02 -0.44690350550E+03  0.44862996726E+03  0.00000000000E+00 0.  1.
          1    1    3    3  501    0 -0.41507507630E+01 -0.83931074712E+01 -0.10466562168E+03  0.10508361122E+03  0.00000000000E+00 0.  1.
         -3    1    1    2    0  502  0.83185963804E+01  0.47492127361E+02 -0.44605952105E+03  0.44865777329E+03  0.00000000000E+00 0. -1.
<mgrwt>
<rscale>  1 0.30000000E+03</rscale>
<asrwt>0</asrwt>
<pdfrwt beam="1">  1       21 0.86231155E-02 0.30000000E+03</pdfrwt>
<pdfrwt beam="2">0</pdfrwt>
<totfact> 0.11193630E+04</totfact>
</mgrwt>
</event>
<event>
 6    1  0.1284012E-001  0.3000000E+03  0.7818608E-02  0.1093470E+00
         21   -1    0    0  501  502  0.00000000000E+00  0.00000000000E+00  0.50904698582E+01  0.50904698582E+01  0.00000000000E+00 0. -1.
         13   -1    0    0    0    0 -0.00000000000E+00 -0.00000000000E+00 -0.10000000000E+04  0.10000000000E+04  0.00000000000E+00 0.  1.
    9000005    2    1    2  501    0 -0.92373862139E+01  0.29481153657E+02 -0.95041885729E+03  0.95092509627E+03  0.28401937656E+01 0.  0.
         13    1    3    3    0    0 -0.70951220362E+00  0.26377323092E+01 -0.11192438096E+03  0.11195770672E+03  0.00000000000E+00 0.  1.
          3    1    3    3  501    0 -0.85278740102E+01  0.26843421348E+02 -0.83849447633E+03  0.83896738955E+03  0.00000000000E+00 0.  1.
         -3    1    1    2    0  502  0.92373862139E+01 -0.29481153657E+02 -0.44490672851E+02  0.54165373587E+02  0.00000000000E+00 0. -1.
<mgrwt>
<rscale>  1 0.30000000E+03</rscale>
<asrwt>0</asrwt>
<pdfrwt beam="1">  1       21 0.18510839E-01 0.30000000E+03</pdfrwt>
<pdfrwt beam="2">0</pdfrwt>
<totfact> 0.27789170E+03</totfact>
</mgrwt>
</event>
<event>
 6    1  0.1284012E-001  0.3000000E+03  0.7818608E-02  0.1093470E+00
         21   -1    0    0  501  502  0.00000000000E+00  0.00000000000E+00  0.29530554997E+01  0.29530554997E+01  0.00000000000E+00 0. -1.
         13   -1    0    0    0    0 -0.00000000000E+00 -0.00000000000E+00 -0.10000000000E+04  0.10000000000E+04  0.00000000000E+00 0.  1.
    9000005    2    1    2  501    0  0.44311993832E+02  0.31348224667E+02 -0.50940171023E+03  0.51229621157E+03  0.33229532088E+01 0.  0.
         13    1    3    3    0    0  0.24026003985E+02  0.18526570919E+02 -0.29453946134E+03  0.29609791790E+03  0.00000000000E+00 0.  1.
          1    1    3    3  501    0  0.20285989848E+02  0.12821653748E+02 -0.21486224889E+03  0.21619829367E+03  0.00000000000E+00 0.  1.
         -1    1    1    2    0  502 -0.44311993832E+02 -0.31348224667E+02 -0.48764523427E+03  0.49065684393E+03  0.00000000000E+00 0. -1.
<mgrwt>
<rscale>  1 0.30000000E+03</rscale>
<asrwt>0</asrwt>
<pdfrwt beam="1">  1       21 0.10738406E-01 0.30000000E+03</pdfrwt>
<pdfrwt beam="2">0</pdfrwt>
<totfact> 0.75726244E+03</totfact>
</mgrwt>
</event>
<event>
 6    1  0.1284012E-001  0.3000000E+03  0.7818608E-02  0.1093470E+00
         21   -1    0    0  501  502  0.00000000000E+00  0.00000000000E+00  0.15184102749E+01  0.15184102749E+01  0.00000000000E+00 0. -1.
         13   -1    0    0    0    0 -0.00000000000E+00 -0.00000000000E+00 -0.10000000000E+04  0.10000000000E+04  0.00000000000E+00 0.  1.
    9000005    2    1    2  501    0  0.27097805664E+01 -0.32741282212E+02 -0.76792053705E+03  0.76862845025E+03  0.28997987736E+01 0.  0.
         13    1    3    3    0    0  0.32732433985E+01 -0.29501248210E+02 -0.69681546151E+03  0.69744736373E+03  0.00000000000E+00 0.  1.
          3    1    3    3  501    0 -0.56346283213E+00 -0.32400340021E+01 -0.71105075540E+02  0.71181086521E+02  0.00000000000E+00 0.  1.
         -3    1    1    2    0  502 -0.27097805664E+01  0.32741282212E+02 -0.23056105267E+03  0.23288996003E+03  0.00000000000E+00 0. -1.
<mgrwt>
<rscale>  1 0.30000000E+03</rscale>
<asrwt>0</asrwt>
<pdfrwt beam="1">  1       21 0.55215036E-02 0.30000000E+03</pdfrwt>
<pdfrwt beam="2">0</pdfrwt>
<totfact> 0.24310919E+04</totfact>
</mgrwt>
</event>
<event>
 6    1  0.1284012E-001  0.3000000E+03  0.7818608E-02  0.1093470E+00
         21   -1    0    0  501  502  0.00000000000E+00  0.00000000000E+00  0.25589278627E+01  0.25589278627E+01  0.00000000000E+00 0. -1.
         13   -1    0    0    0    0 -0.00000000000E+00 -0.00000000000E+00 -0.10000000000E+04  0.10000000000E+04  0.00000000000E+00 0.  1.
    9000005    2    1    2  501    0  0.28656241813E+02 -0.18528490947E+02 -0.86710368664E+03  0.86782838482E+03  0.96341545655E+01 0.  0.
         13    1    3    3    0    0  0.15934729056E+01 -0.48968512058E+01 -0.13205991269E+03  0.13216027712E+03  0.00000000000E+00 0.  1.
          3    1    3    3  501    0  0.27062768908E+02 -0.13631639742E+02 -0.73504377395E+03  0.73566810770E+03  0.00000000000E+00 0.  1.
         -3    1    1    2    0  502 -0.28656241813E+02  0.18528490947E+02 -0.13033738549E+03  0.13473054305E+03  0.00000000000E+00 0. -1.
<mgrwt>
<rscale>  1 0.30000000E+03</rscale>
<asrwt>0</asrwt>
<pdfrwt beam="1">  1       21 0.93052119E-02 0.30000000E+03</pdfrwt>
<pdfrwt beam="2">0</pdfrwt>
<totfact> 0.97817457E+03</totfact>
</mgrwt>
</event>
<event>
 6    1  0.1284012E-001  0.3000000E+03  0.7818608E-02  0.1093470E+00
         21   -1    0    0  501  502  0.00000000000E+00  0.00000000000E+00  0.46082703511E+01  0.46082703511E+01  0.00000000000E+00 0. -1.
         13   -1    0    0    0    0 -0.00000000000E+00 -0.00000000000E+00 -0.10000000000E+04  0.10000000000E+04  0.00000000000E+00 0.  1.
    9000005    2    1    2  501    0  0.16143127847E+02 -0.41288459102E+02 -0.87797109301E+03  0.87909754037E+03  0.37293285827E+01 0.  0.
         13    1    3    3    0    0  0.94118480071E+01 -0.26032770498E+02 -0.51448149059E+03  0.51522567113E+03  0.00000000000E+00 0.  1.
          1    1    3    3  501    0  0.67312798397E+01 -0.15255688604E+02 -0.36348960241E+03  0.36387186924E+03  0.00000000000E+00 0.  1.
         -1    1    1    2    0  502 -0.16143127847E+02  0.41288459102E+02 -0.11742063664E+03  0.12551072998E+03  0.00000000000E+00 0. -1.
<mgrwt>
<rscale>  1 0.30000000E+03</rscale>
<asrwt>0</asrwt>
<pdfrwt beam="1">  1       21 0.16757382E-01 0.30000000E+03</pdfrwt>
<pdfrwt beam="2">0</pdfrwt>
<totfact> 0.33504661E+03</totfact>
</mgrwt>
</event>
<event>
 6    1  0.1284012E-001  0.3000000E+03  0.7818608E-02  0.1093470E+00
         21   -1    0    0  501  502  0.00000000000E+00  0.00000000000E+00  0.11626566615E+01  0.11626566615E+01  0.00000000000E+00 0. -1.
         13   -1    0    0    0    0 -0.00000000000E+00 -0.00000000000E+00 -0.10000000000E+04  0.10000000000E+04  0.00000000000E+00 0.  1.
    9000005    2    1    2  501    0  0.33222273366E+02  0.23310519173E+01 -0.60306859243E+03  0.60399511337E+03  0.30358763959E+01 0.  0.
         13    1    3    3    0    0  0.94854469863E+01 -0.64348107500E+00 -0.17899966800E+03  0.17925197046E+03  0.00000000000E+00 0.  1.
          1    1    3    3  501    0  0.23736826379E+02  0.29745329923E+01 -0.42406892443E+03  0.42474314290E+03  0.00000000000E+00 0.  1.
         -3    1    1    2    0  502 -0.33222273366E+02 -0.23310519173E+01 -0.39576875091E+03  0.39716754330E+03  0.00000000000E+00 0. -1.
<mgrwt>
<rscale>  1 0.30000000E+03</rscale>
<asrwt>0</asrwt>
<pdfrwt beam="1">  1       21 0.42278513E-02 0.30000000E+03</pdfrwt>
<pdfrwt beam="2">0</pdfrwt>
<totfact> 0.38296553E+04</totfact>
</mgrwt>
</event>
<event>
 6    1  0.1284012E-001  0.3000000E+03  0.7818608E-02  0.1093470E+00
         21   -1    0    0  501  502  0.00000000000E+00  0.00000000000E+00  0.23670090862E+01  0.23670090862E+01  0.00000000000E+00 0. -1.
         13   -1    0    0    0    0 -0.00000000000E+00 -0.00000000000E+00 -0.10000000000E+04  0.10000000000E+04  0.00000000000E+00 0.  1.
    9000005    2    1    2  501    0  0.40502380589E+02  0.10902631233E+02 -0.75053140702E+03  0.75173081265E+03  0.65200891863E+01 0.  0.
         13    1    3    3    0    0  0.16991018332E+02  0.48739673343E+01 -0.26084095672E+03  0.26143919936E+03  0.00000000000E+00 0.  1.
          3    1    3    3  501    0  0.23511362257E+02  0.60286638989E+01 -0.48969045031E+03  0.49029161329E+03  0.00000000000E+00 0.  1.
         -3    1    1    2    0  502 -0.40502380589E+02 -0.10902631233E+02 -0.24710158389E+03  0.25063619643E+03  0.00000000000E+00 0. -1.
<mgrwt>
<rscale>  1 0.30000000E+03</rscale>
<asrwt>0</asrwt>
<pdfrwt beam="1">  1       21 0.86073239E-02 0.30000000E+03</pdfrwt>
<pdfrwt beam="2">0</pdfrwt>
<totfact> 0.11229906E+04</totfact>
</mgrwt>
</event>
<event>
 6    1  0.1284012E-001  0.3000000E+03  0.7818608E-02  0.1093470E+00
         21   -1    0    0  501  502  0.00000000000E+00  0.00000000000E+00  0.12821663478E+01  0.12821663478E+01  0.00000000000E+00 0. -1.
         13   -1    0    0    0    0 -0.00000000000E+00 -0.00000000000E+00 -0.10000000000E+04  0.10000000000E+04  0.00000000000E+00 0.  1.
    9000005    2    1    2  501    0 -0.31384584310E+02  0.12749346497E+02 -0.34154728344E+03  0.34323910542E+03  0.33164282370E+01 0.  0.
         13    1    3    3    0    0 -0.21621470198E+02  0.96427958153E+01 -0.22482119759E+03  0.22606424390E+03  0.00000000000E+00 0.  1.
          1    1    3    3  501    0 -0.97631141115E+01  0.31065506815E+01 -0.11672608585E+03  0.11717486152E+03  0.00000000000E+00 0.  1.
         -1    1    1    2    0  502  0.31384584310E+02 -0.12749346497E+02 -0.65717055022E+03  0.65804306093E+03  0.00000000000E+00 0. -1.
<mgrwt>
<rscale>  1 0.30000000E+03</rscale>
<asrwt>0</asrwt>
<pdfrwt beam="1">  1       21 0.46624329E-02 0.30000000E+03</pdfrwt>
<pdfrwt beam="2">0</pdfrwt>
<totfact> 0.32443945E+04</totfact>
</mgrwt>
</event>
<event>
 6    1  0.1284012E-001  0.3000000E+03  0.7818608E-02  0.1093470E+00
         21   -1    0    0  501  502  0.00000000000E+00  0.00000000000E+00  0.11155400391E+02  0.11155400391E+02  0.00000000000E+00 0. -1.
         13   -1    0    0    0    0 -0.00000000000E+00 -0.00000000000E+00 -0.10000000000E+04  0.10000000000E+04  0.00000000000E+00 0.  1.
    9000005    2    1    2  501    0 -0.13831113293E+02  0.63863912477E+02 -0.89148393820E+03  0.89389928157E+03  0.65126419547E+01 0.  0.
         13    1    3    3    0    0 -0.13788645624E+02  0.52151261699E+02 -0.72575235352E+03  0.72775432632E+03  0.00000000000E+00 0.  1.
          1    1    3    3  501    0 -0.42467669536E-01  0.11712650778E+02 -0.16573158468E+03  0.16614495524E+03  0.00000000000E+00 0.  1.
         -3    1    1    2    0  502  0.13831113293E+02 -0.63863912477E+02 -0.97360661410E+02  0.11725611883E+03  0.00000000000E+00 0. -1.
<mgrwt>
<rscale>  1 0.30000000E+03</rscale>
<asrwt>0</asrwt>
<pdfrwt beam="1">  1       21 0.40565178E-01 0.30000000E+03</pdfrwt>
<pdfrwt beam="2">0</pdfrwt>
<totfact> 0.58655782E+02</totfact>
</mgrwt>
</event>
<event>
 6    1  0.1284012E-001  0.3000000E+03  0.7818608E-02  0.1093470E+00
         21   -1    0    0  501  502  0.00000000000E+00  0.00000000000E+00  0.34034726989E+01  0.34034726989E+01  0.00000000000E+00 0. -1.
         13   -1    0    0    0    0 -0.00000000000E+00 -0.00000000000E+00 -0.10000000000E+04  0.10000000000E+04  0.00000000000E+00 0.  1.
    9000005    2    1    2  501    0  0.40636110737E+02  0.14110690300E+01 -0.85657971093E+03  0.85760226051E+03  0.99775461901E+01 0.  0.
         13    1    3    3    0    0  0.53834598767E+01  0.35388608369E+01 -0.15592017523E+03  0.15605321598E+03  0.00000000000E+00 0.  1.
          1    1    3    3  501    0  0.35252650860E+02 -0.21277918069E+01 -0.70065953571E+03  0.70154904452E+03  0.00000000000E+00 0.  1.
         -3    1    1    2    0  502 -0.40636110737E+02 -0.14110690300E+01 -0.14001681637E+03  0.14580121219E+03  0.00000000000E+00 0. -1.
<mgrwt>
<rscale>  1 0.30000000E+03</rscale>
<asrwt>0</asrwt>
<pdfrwt beam="1">  1       21 0.12376290E-01 0.30000000E+03</pdfrwt>
<pdfrwt beam="2">0</pdfrwt>
<totfact> 0.58588430E+03</totfact>
</mgrwt>
</event>
<event>
 6    1  0.1284012E-001  0.3000000E+03  0.7818608E-02  0.1093470E+00
         21   -1    0    0  501  502  0.00000000000E+00  0.00000000000E+00  0.12755093404E+01  0.12755093404E+01  0.00000000000E+00 0. -1.
         13   -1    0    0    0    0 -0.00000000000E+00 -0.00000000000E+00 -0.10000000000E+04  0.10000000000E+04  0.00000000000E+00 0.  1.
    9000005    2    1    2  501    0  0.51381466308E+01 -0.30507923641E+02 -0.74864792569E+03  0.74929252915E+03  0.29057964838E+01 0.  0.
         13    1    3    3    0    0  0.50026009494E+01 -0.28722902916E+02 -0.71872396103E+03  0.71931506541E+03  0.00000000000E+00 0.  1.
          3    1    3    3  501    0  0.13554568137E+00 -0.17850207245E+01 -0.29923964662E+02  0.29977463747E+02  0.00000000000E+00 0.  1.
         -1    1    1    2    0  502 -0.51381466308E+01  0.30507923641E+02 -0.25007656497E+03  0.25198298019E+03  0.00000000000E+00 0. -1.
<mgrwt>
<rscale>  1 0.30000000E+03</rscale>
<asrwt>0</asrwt>
<pdfrwt beam="1">  1       21 0.46382256E-02 0.30000000E+03</pdfrwt>
<pdfrwt beam="2">0</pdfrwt>
<totfact> 0.32732258E+04</totfact>
</mgrwt>
</event>
<event>
 6    1  0.1284012E-001  0.3000000E+03  0.7818608E-02  0.1093470E+00
         21   -1    0    0  501  502  0.00000000000E+00  0.00000000000E+00  0.93173520056E+00  0.93173520056E+00  0.00000000000E+00 0. -1.
         13   -1    0    0    0    0 -0.00000000000E+00 -0.00000000000E+00 -0.10000000000E+04  0.10000000000E+04  0.00000000000E+00 0.  1.
    9000005    2    1    2  501    0  0.64683122853E+01 -0.29725060557E+02 -0.48603791340E+03  0.48700026142E+03  0.33140712840E+01 0.  0.
         13    1    3    3    0    0  0.23512662423E+01 -0.80897552275E+01 -0.15731732098E+03  0.15754273095E+03  0.00000000000E+00 0.  1.
          1    1    3    3  501    0  0.41170460430E+01 -0.21635305329E+02 -0.32872059242E+03  0.32945753047E+03  0.00000000000E+00 0.  1.
         -1    1    1    2    0  502 -0.64683122853E+01  0.29725060557E+02 -0.51303035140E+03  0.51393147378E+03  0.00000000000E+00 0. -1.
<mgrwt>
<rscale>  1 0.30000000E+03</rscale>
<asrwt>0</asrwt>
<pdfrwt beam="1">  1       21 0.33881351E-02 0.30000000E+03</pdfrwt>
<pdfrwt beam="2">0</pdfrwt>
<totfact> 0.55554577E+04</totfact>
</mgrwt>
</event>
<event>
 6    1  0.1284012E-001  0.3000000E+03  0.7818608E-02  0.1093470E+00
         21   -1    0    0  501  502  0.00000000000E+00  0.00000000000E+00  0.13455507463E+01  0.13455507463E+01  0.00000000000E+00 0. -1.
         13   -1    0    0    0    0 -0.00000000000E+00 -0.00000000000E+00 -0.10000000000E+04  0.10000000000E+04  0.00000000000E+00 0.  1.
    9000005    2    1    2  501    0  0.73083590291E+01 -0.31841542336E+02 -0.27631084755E+03  0.27826355342E+03  0.39528167197E+01 0.  0.
         13    1    3    3    0    0  0.59124437137E+01 -0.29077258095E+02 -0.25678285047E+03  0.25849153995E+03  0.00000000000E+00 0.  1.
          1    1    3    3  501    0  0.13959153155E+01 -0.27642842413E+01 -0.19527997082E+02  0.19772013478E+02  0.00000000000E+00 0.  1.
         -1    1    1    2    0  502 -0.73083590291E+01  0.31841542336E+02 -0.72234360170E+03  0.72308199732E+03  0.00000000000E+00 0. -1.
<mgrwt>
<rscale>  1 0.30000000E+03</rscale>
<asrwt>0</asrwt>
<pdfrwt beam="1">  1       21 0.48929221E-02 0.30000000E+03</pdfrwt>
<pdfrwt beam="2">0</pdfrwt>
<totfact> 0.29886958E+04</totfact>
</mgrwt>
</event>
<event>
 6    1  0.1284012E-001  0.3000000E+03  0.7818608E-02  0.1093470E+00
         21   -1    0    0  501  502  0.00000000000E+00  0.00000000000E+00  0.71982541497E+01  0.71982541497E+01  0.00000000000E+00 0. -1.
         13   -1    0    0    0    0 -0.00000000000E+00 -0.00000000000E+00 -0.10000000000E+04  0.10000000000E+04  0.00000000000E+00 0.  1.
    9000005    2    1    2  501    0 -0.74066751060E+01 -0.50384450884E+02 -0.89914672714E+03  0.90059284032E+03  0.30290911299E+01 0.  0.
         13    1    3    3    0    0 -0.61246237649E+01 -0.32034570460E+02 -0.58179781057E+03  0.58271126392E+03  0.00000000000E+00 0.  1.
          3    1    3    3  501    0 -0.12820513411E+01 -0.18349880424E+02 -0.31734891657E+03  0.31788157640E+03  0.00000000000E+00 0.  1.
         -3    1    1    2    0  502  0.74066751060E+01  0.50384450884E+02 -0.93655018715E+02  0.10660541383E+03  0.00000000000E+00 0. -1.
<mgrwt>
<rscale>  1 0.30000000E+03</rscale>
<asrwt>0</asrwt>
<pdfrwt beam="1">  1       21 0.26175525E-01 0.30000000E+03</pdfrwt>
<pdfrwt beam="2">0</pdfrwt>
<totfact> 0.14250164E+03</totfact>
</mgrwt>
</event>
<event>
 6    1  0.1284012E-001  0.3000000E+03  0.7818608E-02  0.1093470E+00
         21   -1    0    0  501  502  0.00000000000E+00  0.00000000000E+00  0.38580075028E+01  0.38580075028E+01  0.00000000000E+00 0. -1.
         13   -1    0    0    0    0 -0.00000000000E+00 -0.00000000000E+00 -0.10000000000E+04  0.10000000000E+04  0.00000000000E+00 0.  1.
    9000005    2    1    2  501    0 -0.35944637293E+02 -0.50500026236E+02 -0.52399049762E+03  0.52765500067E+03  0.33894746134E+01 0.  0.
         13    1    3    3    0    0 -0.58542237446E+01 -0.66326254372E+01 -0.81245306775E+02  0.81725537801E+02  0.00000000000E+00 0.  1.
          1    1    3    3  501    0 -0.30090413548E+02 -0.43867400799E+02 -0.44274519084E+03  0.44592946287E+03  0.00000000000E+00 0.  1.
         -3    1    1    2    0  502  0.35944637293E+02  0.50500026236E+02 -0.47215149488E+03  0.47620300683E+03  0.00000000000E+00 0. -1.
<mgrwt>
<rscale>  1 0.30000000E+03</rscale>
<asrwt>0</asrwt>
<pdfrwt beam="1">  1       21 0.14029148E-01 0.30000000E+03</pdfrwt>
<pdfrwt beam="2">0</pdfrwt>
<totfact> 0.46588381E+03</totfact>
</mgrwt>
</event>
<event>
 6    1  0.1284012E-001  0.3000000E+03  0.7818608E-02  0.1093470E+00
         21   -1    0    0  501  502  0.00000000000E+00  0.00000000000E+00  0.50280462256E+01  0.50280462256E+01  0.00000000000E+00 0. -1.
         13   -1    0    0    0    0 -0.00000000000E+00 -0.00000000000E+00 -0.10000000000E+04  0.10000000000E+04  0.00000000000E+00 0.  1.
    9000005    2    1    2  501    0  0.51666658711E+01  0.63991631843E+02 -0.28511039598E+03  0.29226928296E+03  0.34311050832E+01 0.  0.
         13    1    3    3    0    0  0.29137328108E+01  0.51773264493E+02 -0.23219640948E+03  0.23791623175E+03  0.00000000000E+00 0.  1.
          3    1    3    3  501    0  0.22529330603E+01  0.12218367349E+02 -0.52913986501E+02  0.54353051207E+02  0.00000000000E+00 0.  1.
         -3    1    1    2    0  502 -0.51666658711E+01 -0.63991631843E+02 -0.70986155779E+03  0.71275876327E+03  0.00000000000E+00 0. -1.
<mgrwt>
<rscale>  1 0.30000000E+03</rscale>
<asrwt>0</asrwt>
<pdfrwt beam="1">  1       21 0.18283843E-01 0.30000000E+03</pdfrwt>
<pdfrwt beam="2">0</pdfrwt>
<totfact> 0.28444124E+03</totfact>
</mgrwt>
</event>
<event>
 6    1  0.1284012E-001  0.3000000E+03  0.7818608E-02  0.1093470E+00
         21   -1    0    0  501  502  0.00000000000E+00  0.00000000000E+00  0.16348861382E+01  0.16348861382E+01  0.00000000000E+00 0. -1.
         13   -1    0    0    0    0 -0.00000000000E+00 -0.00000000000E+00 -0.10000000000E+04  0.10000000000E+04  0.00000000000E+00 0.  1.
    9000005    2    1    2  501    0  0.35318704682E+02 -0.15939035000E+02 -0.64028761378E+03  0.64146692559E+03  0.31819074391E+01 0.  0.
         13    1    3    3    0    0  0.24029948174E+02 -0.94316527943E+01 -0.43807810539E+03  0.43883803493E+03  0.00000000000E+00 0.  1.
          1    1    3    3  501    0  0.11288756508E+02 -0.65073822053E+01 -0.20220950839E+03  0.20262889066E+03  0.00000000000E+00 0.  1.
         -1    1    1    2    0  502 -0.35318704682E+02  0.15939035000E+02 -0.35807750008E+03  0.36016796055E+03  0.00000000000E+00 0. -1.
<mgrwt>
<rscale>  1 0.30000000E+03</rscale>
<asrwt>0</asrwt>
<pdfrwt beam="1">  1       21 0.59450530E-02 0.30000000E+03</pdfrwt>
<pdfrwt beam="2">0</pdfrwt>
<totfact> 0.21408609E+04</totfact>
</mgrwt>
</event>
<event>
 6    1  0.1284012E-001  0.3000000E+03  0.7818608E-02  0.1093470E+00
         21   -1    0    0  501  502  0.00000000000E+00  0.00000000000E+00  0.13219107716E+01  0.13219107716E+01  0.00000000000E+00 0. -1.
         13   -1    0    0    0    0 -0.00000000000E+00 -0.00000000000E+00 -0.10000000000E+04  0.10000000000E+04  0.00000000000E+00 0.  1.
    9000005    2    1    2  501    0  0.99377415748E+00 -0.35860184080E+02 -0.57574636064E+03  0.57687145732E+03  0.31410332495E+01 0.  0.
         13    1    3    3    0    0  0.18388625932E+01 -0.15564862606E+02 -0.26150344261E+03  0.26197270251E+03  0.00000000000E+00 0.  1.
          1    1    3    3  501    0 -0.84508843571E+00 -0.20295321475E+02 -0.31424291802E+03  0.31489875480E+03  0.00000000000E+00 0.  1.
         -1    1    1    2    0  502 -0.99377415748E+00  0.35860184080E+02 -0.42293172859E+03  0.42445045345E+03  0.00000000000E+00 0. -1.
<mgrwt>
<rscale>  1 0.30000000E+03</rscale>
<asrwt>0</asrwt>
<pdfrwt beam="1">  1       21 0.48069584E-02 0.30000000E+03</pdfrwt>
<pdfrwt beam="2">0</pdfrwt>
<totfact> 0.30802519E+04</totfact>
</mgrwt>
</event>
<event>
 6    1  0.1284012E-001  0.3000000E+03  0.7818608E-02  0.1093470E+00
         21   -1    0    0  501  502  0.00000000000E+00  0.00000000000E+00  0.12836386211E+01  0.12836386211E+01  0.00000000000E+00 0. -1.
         13   -1    0    0    0    0 -0.00000000000E+00 -0.00000000000E+00 -0.10000000000E+04  0.10000000000E+04  0.00000000000E+00 0.  1.
    9000005    2    1    2  501    0 -0.25215244744E+01  0.35306055547E+02 -0.42943010633E+03  0.43089805340E+03  0.31686834191E+01 0.  0.
         13    1    3    3    0    0 -0.28010831266E+01  0.32571255155E+02 -0.40369914079E+03  0.40502065257E+03  0.00000000000E+00 0.  1.
          3    1    3    3  501    0  0.27955865219E+00  0.27348003923E+01 -0.25730965540E+02  0.25877400832E+02  0.00000000000E+00 0.  1.
         -3    1    1    2    0  502  0.25215244744E+01 -0.35306055547E+02 -0.56928625505E+03  0.57038558522E+03  0.00000000000E+00 0. -1.
<mgrwt>
<rscale>  1 0.30000000E+03</rscale>
<asrwt>0</asrwt>
<pdfrwt beam="1">  1       21 0.46677866E-02 0.30000000E+03</pdfrwt>
<pdfrwt beam="2">0</pdfrwt>
<totfact> 0.32380719E+04</totfact>
</mgrwt>
</event>
<event>
 6    1  0.1284012E-001  0.3000000E+03  0.7818608E-02  0.1093470E+00
         21   -1    0    0  501  502  0.00000000000E+00  0.00000000000E+00  0.20649980734E+01  0.20649980734E+01  0.00000000000E+00 0. -1.
         13   -1    0    0    0    0 -0.00000000000E+00 -0.00000000000E+00 -0.10000000000E+04  0.10000000000E+04  0.00000000000E+00 0.  1.
    9000005    2    1    2  501    0  0.40069223774E+02 -0.48631218669E+01 -0.27075265371E+03  0.27376330220E+03  0.31864548580E+01 0.  0.
         13    1    3    3    0    0  0.34131069270E+02 -0.34923847225E+01 -0.23588315201E+03  0.23836524084E+03  0.00000000000E+00 0.  1.
          3    1    3    3  501    0  0.59381545033E+01 -0.13707371444E+01 -0.34869501697E+02  0.35398061357E+02  0.00000000000E+00 0.  1.
         -1    1    1    2    0  502 -0.40069223774E+02  0.48631218669E+01 -0.72718234822E+03  0.72830169587E+03  0.00000000000E+00 0. -1.
<mgrwt>
<rscale>  1 0.30000000E+03</rscale>
<asrwt>0</asrwt>
<pdfrwt beam="1">  1       21 0.75090997E-02 0.30000000E+03</pdfrwt>
<pdfrwt beam="2">0</pdfrwt>
<totfact> 0.14274126E+04</totfact>
</mgrwt>
</event>
<event>
 6    1  0.1284012E-001  0.3000000E+03  0.7818608E-02  0.1093470E+00
         21   -1    0    0  501  502  0.00000000000E+00  0.00000000000E+00  0.17335338405E+01  0.17335338405E+01  0.00000000000E+00 0. -1.
         13   -1    0    0    0    0 -0.00000000000E+00 -0.00000000000E+00 -0.10000000000E+04  0.10000000000E+04  0.00000000000E+00 0.  1.
    9000005    2    1    2  501    0 -0.23011471676E+02  0.30736255035E+02 -0.68869811324E+03  0.68979313836E+03  0.59361054777E+01 0.  0.
         13    1    3    3    0    0 -0.46429518729E+01  0.29212339422E+01 -0.87729963309E+02  0.87901291641E+02  0.00000000000E+00 0.  1.
          3    1    3    3  501    0 -0.18368519803E+02  0.27815021092E+02 -0.60096814993E+03  0.60189184672E+03  0.00000000000E+00 0.  1.
         -1    1    1    2    0  502  0.23011471676E+02 -0.30736255035E+02 -0.30956835292E+03  0.31194039548E+03  0.00000000000E+00 0. -1.
<mgrwt>
<rscale>  1 0.30000000E+03</rscale>
<asrwt>0</asrwt>
<pdfrwt beam="1">  1       21 0.63037727E-02 0.30000000E+03</pdfrwt>
<pdfrwt beam="2">0</pdfrwt>
<totfact> 0.19349379E+04</totfact>
</mgrwt>
</event>
<event>
 6    1  0.1284012E-001  0.3000000E+03  0.7818608E-02  0.1093470E+00
         21   -1    0    0  501  502  0.00000000000E+00  0.00000000000E+00  0.49309700401E+01  0.49309700401E+01  0.00000000000E+00 0. -1.
         13   -1    0    0    0    0 -0.00000000000E+00 -0.00000000000E+00 -0.10000000000E+04  0.10000000000E+04  0.00000000000E+00 0.  1.
    9000005    2    1    2  501    0 -0.19378414962E+02  0.24172576155E+02 -0.94841872762E+03  0.94893019225E+03  0.32542991478E+01 0.  0.
         13    1    3    3    0    0 -0.87313331274E+01  0.12374822047E+02 -0.50358487682E+03  0.50381256491E+03  0.00000000000E+00 0.  1.
          1    1    3    3  501    0 -0.10647081835E+02  0.11797754108E+02 -0.44483385080E+03  0.44511762735E+03  0.00000000000E+00 0.  1.
         -3    1    1    2    0  502  0.19378414962E+02 -0.24172576155E+02 -0.46650302339E+02  0.56000777787E+02  0.00000000000E+00 0. -1.
<mgrwt>
<rscale>  1 0.30000000E+03</rscale>
<asrwt>0</asrwt>
<pdfrwt beam="1">  1       21 0.17930838E-01 0.30000000E+03</pdfrwt>
<pdfrwt beam="2">0</pdfrwt>
<totfact> 0.29508661E+03</totfact>
</mgrwt>
</event>
<event>
 6    1  0.1284012E-001  0.3000000E+03  0.7818608E-02  0.1093470E+00
         21   -1    0    0  501  502  0.00000000000E+00  0.00000000000E+00  0.10022776301E+01  0.10022776301E+01  0.00000000000E+00 0. -1.
         13   -1    0    0    0    0 -0.00000000000E+00 -0.00000000000E+00 -0.10000000000E+04  0.10000000000E+04  0.00000000000E+00 0.  1.
    9000005    2    1    2  501    0  0.25901647550E+02 -0.17618654121E+02 -0.56290672311E+03  0.56378760272E+03  0.33421164899E+01 0.  0.
         13    1    3    3    0    0  0.94469299430E+01 -0.79140315176E+01 -0.20185508463E+03  0.20223093624E+03  0.00000000000E+00 0.  1.
          1    1    3    3  501    0  0.16454717607E+02 -0.97046226031E+01 -0.36105163848E+03  0.36155666649E+03  0.00000000000E+00 0.  1.
         -3    1    1    2    0  502 -0.25901647550E+02  0.17618654121E+02 -0.43609099926E+03  0.43721467491E+03  0.00000000000E+00 0. -1.
<mgrwt>
<rscale>  1 0.30000000E+03</rscale>
<asrwt>0</asrwt>
<pdfrwt beam="1">  1       21 0.36446536E-02 0.30000000E+03</pdfrwt>
<pdfrwt beam="2">0</pdfrwt>
<totfact> 0.49163202E+04</totfact>
</mgrwt>
</event>
<event>
 6    1  0.1284012E-001  0.3000000E+03  0.7818608E-02  0.1093470E+00
         21   -1    0    0  501  502  0.00000000000E+00  0.00000000000E+00  0.18866508182E+01  0.18866508182E+01  0.00000000000E+00 0. -1.
         13   -1    0    0    0    0 -0.00000000000E+00 -0.00000000000E+00 -0.10000000000E+04  0.10000000000E+04  0.00000000000E+00 0.  1.
    9000005    2    1    2  501    0 -0.16341772342E+02 -0.35066619902E+02 -0.72481870180E+03  0.72586729345E+03  0.49452872930E+01 0.  0.
         13    1    3    3    0    0 -0.49397394126E+01 -0.60547509592E+01 -0.15380660375E+03  0.15400497522E+03  0.00000000000E+00 0.  1.
          3    1    3    3  501    0 -0.11402032929E+02 -0.29011868942E+02 -0.57101209805E+03  0.57186231823E+03  0.00000000000E+00 0.  1.
         -1    1    1    2    0  502  0.16341772342E+02  0.35066619902E+02 -0.27329464738E+03  0.27601935737E+03  0.00000000000E+00 0. -1.
<mgrwt>
<rscale>  1 0.30000000E+03</rscale>
<asrwt>0</asrwt>
<pdfrwt beam="1">  1       21 0.68605629E-02 0.30000000E+03</pdfrwt>
<pdfrwt beam="2">0</pdfrwt>
<totfact> 0.16709836E+04</totfact>
</mgrwt>
</event>
<event>
 6    1  0.1284012E-001  0.3000000E+03  0.7818608E-02  0.1093470E+00
         21   -1    0    0  501  502  0.00000000000E+00  0.00000000000E+00  0.11132947500E+01  0.11132947500E+01  0.00000000000E+00 0. -1.
         13   -1    0    0    0    0 -0.00000000000E+00 -0.00000000000E+00 -0.10000000000E+04  0.10000000000E+04  0.00000000000E+00 0.  1.
    9000005    2    1    2  501    0  0.95811236639E+01 -0.28594897568E+02 -0.71143139001E+03  0.71208038251E+03  0.37924092728E+01 0.  0.
         13    1    3    3    0    0  0.24972418581E+01 -0.55946066714E+01 -0.18021771899E+03  0.18032182918E+03  0.00000000000E+00 0.  1.
          3    1    3    3  501    0  0.70838818058E+01 -0.23000290896E+02 -0.53121367102E+03  0.53175855333E+03  0.00000000000E+00 0.  1.
         -1    1    1    2    0  502 -0.95811236639E+01  0.28594897568E+02 -0.28745531524E+03  0.28903291224E+03  0.00000000000E+00 0. -1.
<mgrwt>
<rscale>  1 0.30000000E+03</rscale>
<asrwt>0</asrwt>
<pdfrwt beam="1">  1       21 0.40483531E-02 0.30000000E+03</pdfrwt>
<pdfrwt beam="2">0</pdfrwt>
<totfact> 0.41204790E+04</totfact>
</mgrwt>
</event>
<event>
 6    1  0.1284012E-001  0.3000000E+03  0.7818608E-02  0.1093470E+00
         21   -1    0    0  501  502  0.00000000000E+00  0.00000000000E+00  0.38248460859E+01  0.38248460859E+01  0.00000000000E+00 0. -1.
         13   -1    0    0    0    0 -0.00000000000E+00 -0.00000000000E+00 -0.10000000000E+04  0.10000000000E+04  0.00000000000E+00 0.  1.
    9000005    2    1    2  501    0  0.38805479444E+02  0.47703736268E+01 -0.88687881496E+03  0.88774594443E+03  0.31949552359E+01 0.  0.
         13    1    3    3    0    0  0.13276854664E+02  0.19200616726E+01 -0.27143387664E+03  0.27176517602E+03  0.00000000000E+00 0.  1.
          1    1    3    3  501    0  0.25528624780E+02  0.28503119542E+01 -0.61544493831E+03  0.61598076842E+03  0.00000000000E+00 0.  1.
         -1    1    1    2    0  502 -0.38805479444E+02 -0.47703736268E+01 -0.10929633896E+03  0.11607890165E+03  0.00000000000E+00 0. -1.
<mgrwt>
<rscale>  1 0.30000000E+03</rscale>
<asrwt>0</asrwt>
<pdfrwt beam="1">  1       21 0.13908561E-01 0.30000000E+03</pdfrwt>
<pdfrwt beam="2">0</pdfrwt>
<totfact> 0.47333058E+03</totfact>
</mgrwt>
</event>
<event>
 6    1  0.1284012E-001  0.3000000E+03  0.7818608E-02  0.1093470E+00
         21   -1    0    0  501  502  0.00000000000E+00  0.00000000000E+00  0.20836437200E+01  0.20836437200E+01  0.00000000000E+00 0. -1.
         13   -1    0    0    0    0 -0.00000000000E+00 -0.00000000000E+00 -0.10000000000E+04  0.10000000000E+04  0.00000000000E+00 0.  1.
    9000005    2    1    2  501    0 -0.42618605273E+02  0.11794590082E+02 -0.61668162643E+03  0.61829284509E+03  0.58614025749E+01 0.  0.
         13    1    3    3    0    0 -0.38381061557E+02  0.11709309950E+02 -0.57415206099E+03  0.57555260660E+03  0.00000000000E+00 0.  1.
          1    1    3    3  501    0 -0.42375437168E+01  0.85280132506E-01 -0.42529565444E+02  0.42740238491E+02  0.00000000000E+00 0.  1.
         -3    1    1    2    0  502  0.42618605273E+02 -0.11794590082E+02 -0.38123472985E+03  0.38379079863E+03  0.00000000000E+00 0. -1.
<mgrwt>
<rscale>  1 0.30000000E+03</rscale>
<asrwt>0</asrwt>
<pdfrwt beam="1">  1       21 0.75769022E-02 0.30000000E+03</pdfrwt>
<pdfrwt beam="2">0</pdfrwt>
<totfact> 0.14051179E+04</totfact>
</mgrwt>
</event>
<event>
 6    1  0.1284012E-001  0.3000000E+03  0.7818608E-02  0.1093470E+00
         21   -1    0    0  501  502  0.00000000000E+00  0.00000000000E+00  0.45289254995E+01  0.45289254995E+01  0.00000000000E+00 0. -1.
         13   -1    0    0    0    0 -0.00000000000E+00 -0.00000000000E+00 -0.10000000000E+04  0.10000000000E+04  0.00000000000E+00 0.  1.
    9000005    2    1    2  501    0 -0.13273012655E+02  0.31680917341E+02 -0.92961621465E+03  0.93025432719E+03  0.26369151329E+01 0.  0.
         13    1    3    3    0    0 -0.82378924390E+01  0.20606008358E+02 -0.56710879147E+03  0.56754281937E+03  0.00000000000E+00 0.  1.
          3    1    3    3  501    0 -0.50351202157E+01  0.11074908983E+02 -0.36250742318E+03  0.36271150782E+03  0.00000000000E+00 0.  1.
         -3    1    1    2    0  502  0.13273012655E+02 -0.31680917341E+02 -0.65854859848E+02  0.74274598310E+02  0.00000000000E+00 0. -1.
<mgrwt>
<rscale>  1 0.30000000E+03</rscale>
<asrwt>0</asrwt>
<pdfrwt beam="1">  1       21 0.16468855E-01 0.30000000E+03</pdfrwt>
<pdfrwt beam="2">0</pdfrwt>
<totfact> 0.34610261E+03</totfact>
</mgrwt>
</event>
<event>
 6    1  0.1284012E-001  0.3000000E+03  0.7818608E-02  0.1093470E+00
         21   -1    0    0  501  502  0.00000000000E+00  0.00000000000E+00  0.27989474273E+01  0.27989474273E+01  0.00000000000E+00 0. -1.
         13   -1    0    0    0    0 -0.00000000000E+00 -0.00000000000E+00 -0.10000000000E+04  0.10000000000E+04  0.00000000000E+00 0.  1.
    9000005    2    1    2  501    0 -0.37241343516E+02 -0.26420243874E+02 -0.24687373771E+03  0.25108355821E+03  0.33710355243E+01 0.  0.
         13    1    3    3    0    0 -0.56697712872E+01 -0.55483910678E+01 -0.44277697133E+02  0.44982723498E+02  0.00000000000E+00 0.  1.
          1    1    3    3  501    0 -0.31571572229E+02 -0.20871852807E+02 -0.20259604058E+03  0.20610083472E+03  0.00000000000E+00 0.  1.
         -1    1    1    2    0  502  0.37241343516E+02  0.26420243874E+02 -0.75032731486E+03  0.75171538921E+03  0.00000000000E+00 0. -1.
<mgrwt>
<rscale>  1 0.30000000E+03</rscale>
<asrwt>0</asrwt>
<pdfrwt beam="1">  1       21 0.10178012E-01 0.30000000E+03</pdfrwt>
<pdfrwt beam="2">0</pdfrwt>
<totfact> 0.83360456E+03</totfact>
</mgrwt>
</event>
<event>
 6    1  0.1284012E-001  0.3000000E+03  0.7818608E-02  0.1093470E+00
         21   -1    0    0  501  502  0.00000000000E+00  0.00000000000E+00  0.43428079658E+01  0.43428079658E+01  0.00000000000E+00 0. -1.
         13   -1    0    0    0    0 -0.00000000000E+00 -0.00000000000E+00 -0.10000000000E+04  0.10000000000E+04  0.00000000000E+00 0.  1.
    9000005    2    1    2  501    0 -0.35340811788E+02 -0.38143387511E+02 -0.80532730361E+03  0.80703756877E+03  0.73266956395E+01 0.  0.
         13    1    3    3    0    0 -0.24026300497E+02 -0.20686913217E+02 -0.49167499953E+03  0.49269617074E+03  0.00000000000E+00 0.  1.
          1    1    3    3  501    0 -0.11314511291E+02 -0.17456474295E+02 -0.31365230408E+03  0.31434139803E+03  0.00000000000E+00 0.  1.
         -3    1    1    2    0  502  0.35340811788E+02  0.38143387511E+02 -0.19032988842E+03  0.19730523920E+03  0.00000000000E+00 0. -1.
<mgrwt>
<rscale>  1 0.30000000E+03</rscale>
<asrwt>0</asrwt>
<pdfrwt beam="1">  1       21 0.15792062E-01 0.30000000E+03</pdfrwt>
<pdfrwt beam="2">0</pdfrwt>
<totfact> 0.37427775E+03</totfact>
</mgrwt>
</event>
<event>
 6    1  0.1284012E-001  0.3000000E+03  0.7818608E-02  0.1093470E+00
         21   -1    0    0  501  502  0.00000000000E+00  0.00000000000E+00  0.20296402896E+01  0.20296402896E+01  0.00000000000E+00 0. -1.
         13   -1    0    0    0    0 -0.00000000000E+00 -0.00000000000E+00 -0.10000000000E+04  0.10000000000E+04  0.00000000000E+00 0.  1.
    9000005    2    1    2  501    0  0.40081414695E+02 -0.12085120237E+01 -0.72643214118E+03  0.72754651799E+03  0.35071060748E+01 0.  0.
         13    1    3    3    0    0  0.15608163854E+02  0.88371923663E+00 -0.30163055190E+03  0.30203540451E+03  0.00000000000E+00 0.  1.
          1    1    3    3  501    0  0.24473250841E+02 -0.20922312603E+01 -0.42480158928E+03  0.42551111348E+03  0.00000000000E+00 0.  1.
         -3    1    1    2    0  502 -0.40081414695E+02  0.12085120237E+01 -0.27153821853E+03  0.27448312230E+03  0.00000000000E+00 0. -1.
<mgrwt>
<rscale>  1 0.30000000E+03</rscale>
<asrwt>0</asrwt>
<pdfrwt beam="1">  1       21 0.73805257E-02 0.30000000E+03</pdfrwt>
<pdfrwt beam="2">0</pdfrwt>
<totfact> 0.14712132E+04</totfact>
</mgrwt>
</event>
<event>
 6    1  0.1284012E-001  0.3000000E+03  0.7818608E-02  0.1093470E+00
         21   -1    0    0  501  502  0.00000000000E+00  0.00000000000E+00  0.13419054468E+01  0.13419054468E+01  0.00000000000E+00 0. -1.
         13   -1    0    0    0    0 -0.00000000000E+00 -0.00000000000E+00 -0.10000000000E+04  0.10000000000E+04  0.00000000000E+00 0.  1.
    9000005    2    1    2  501    0 -0.30648596296E+01  0.31686186526E+02 -0.74602656832E+03  0.74671257519E+03  0.32590679090E+01 0.  0.
         13    1    3    3    0    0 -0.50784210637E+00  0.53712724670E+00 -0.14979441062E+02  0.14997668612E+02  0.00000000000E+00 0.  1.
          3    1    3    3  501    0 -0.25570175232E+01  0.31149059279E+02 -0.73104712726E+03  0.73171490658E+03  0.00000000000E+00 0.  1.
         -3    1    1    2    0  502  0.30648596296E+01 -0.31686186526E+02 -0.25263152623E+03  0.25462933026E+03  0.00000000000E+00 0. -1.
<mgrwt>
<rscale>  1 0.30000000E+03</rscale>
<asrwt>0</asrwt>
<pdfrwt beam="1">  1       21 0.48796665E-02 0.30000000E+03</pdfrwt>
<pdfrwt beam="2">0</pdfrwt>
<totfact> 0.30025345E+04</totfact>
</mgrwt>
</event>
<event>
 6    1  0.1284012E-001  0.3000000E+03  0.7818608E-02  0.1093470E+00
         21   -1    0    0  501  502  0.00000000000E+00  0.00000000000E+00  0.11791231780E+01  0.11791231780E+01  0.00000000000E+00 0. -1.
         13   -1    0    0    0    0 -0.00000000000E+00 -0.00000000000E+00 -0.10000000000E+04  0.10000000000E+04  0.00000000000E+00 0.  1.
    9000005    2    1    2  501    0  0.23540381685E+02  0.24603336837E+02 -0.55516455253E+03  0.55621799248E+03  0.33616978194E+01 0.  0.
         13    1    3    3    0    0  0.22693429702E+02  0.23711421889E+02 -0.54312166500E+03  0.54411245738E+03  0.00000000000E+00 0.  1.
          3    1    3    3  501    0  0.84695198221E+00  0.89191494824E+00 -0.12042887535E+02  0.12105535102E+02  0.00000000000E+00 0.  1.
         -3    1    1    2    0  502 -0.23540381685E+02 -0.24603336837E+02 -0.44365632429E+03  0.44496113070E+03  0.00000000000E+00 0. -1.
<mgrwt>
<rscale>  1 0.30000000E+03</rscale>
<asrwt>0</asrwt>
<pdfrwt beam="1">  1       21 0.42877297E-02 0.30000000E+03</pdfrwt>
<pdfrwt beam="2">0</pdfrwt>
<totfact> 0.37397026E+04</totfact>
</mgrwt>
</event>
<event>
 6    1  0.1284012E-001  0.3000000E+03  0.7818608E-02  0.1093470E+00
         21   -1    0    0  501  502  0.00000000000E+00  0.00000000000E+00  0.47201146985E+01  0.47201146985E+01  0.00000000000E+00 0. -1.
         13   -1    0    0    0    0 -0.00000000000E+00 -0.00000000000E+00 -0.10000000000E+04  0.10000000000E+04  0.00000000000E+00 0.  1.
    9000005    2    1    2  501    0  0.33579160210E+02  0.58790484907E+02 -0.58262537735E+03  0.58654835089E+03  0.16602652636E+01 0.  0.
         13    1    3    3    0    0  0.14413971915E+02  0.23625506939E+02 -0.23664010575E+03  0.23825294713E+03  0.00000000000E+00 0.  1.
          3    1    3    3  501    0  0.19165188295E+02  0.35164977968E+02 -0.34598527160E+03  0.34829540376E+03  0.00000000000E+00 0.  1.
         -3    1    1    2    0  502 -0.33579160210E+02 -0.58790484907E+02 -0.41265450795E+03  0.41817176381E+03  0.00000000000E+00 0. -1.
<mgrwt>
<rscale>  1 0.30000000E+03</rscale>
<asrwt>0</asrwt>
<pdfrwt beam="1">  1       21 0.17164090E-01 0.30000000E+03</pdfrwt>
<pdfrwt beam="2">0</pdfrwt>
<totfact> 0.32033408E+03</totfact>
</mgrwt>
</event>
<event>
 6    1  0.1284012E-001  0.3000000E+03  0.7818608E-02  0.1093470E+00
         21   -1    0    0  501  502  0.00000000000E+00  0.00000000000E+00  0.14765030602E+01  0.14765030602E+01  0.00000000000E+00 0. -1.
         13   -1    0    0    0    0 -0.00000000000E+00 -0.00000000000E+00 -0.10000000000E+04  0.10000000000E+04  0.00000000000E+00 0.  1.
    9000005    2    1    2  501    0 -0.13812365247E+02  0.29376008314E+02 -0.23395148267E+03  0.23621570026E+03  0.32908217265E+01 0.  0.
         13    1    3    3    0    0 -0.70960826671E+01  0.18340253334E+02 -0.13515892343E+03  0.13658204079E+03  0.00000000000E+00 0.  1.
          3    1    3    3  501    0 -0.67162825796E+01  0.11035754980E+02 -0.98792559237E+02  0.99633659475E+02  0.00000000000E+00 0.  1.
         -1    1    1    2    0  502  0.13812365247E+02 -0.29376008314E+02 -0.76457201427E+03  0.76526080280E+03  0.00000000000E+00 0. -1.
<mgrwt>
<rscale>  1 0.30000000E+03</rscale>
<asrwt>0</asrwt>
<pdfrwt beam="1">  1       21 0.53691134E-02 0.30000000E+03</pdfrwt>
<pdfrwt beam="2">0</pdfrwt>
<totfact> 0.25505149E+04</totfact>
</mgrwt>
</event>
<event>
 6    1  0.1284012E-001  0.3000000E+03  0.7818608E-02  0.1093470E+00
         21   -1    0    0  501  502  0.00000000000E+00  0.00000000000E+00  0.16087305811E+01  0.16087305811E+01  0.00000000000E+00 0. -1.
         13   -1    0    0    0    0 -0.00000000000E+00 -0.00000000000E+00 -0.10000000000E+04  0.10000000000E+04  0.00000000000E+00 0.  1.
    9000005    2    1    2  501    0 -0.34023370319E+02 -0.52205729548E+01 -0.75573316997E+03  0.75652140464E+03  0.26771948597E+01 0.  0.
         13    1    3    3    0    0 -0.12050103100E+02 -0.30326244416E+01 -0.28387929616E+03  0.28415111576E+03  0.00000000000E+00 0.  1.
          1    1    3    3  501    0 -0.21973267219E+02 -0.21879485133E+01 -0.47185387381E+03  0.47237028889E+03  0.00000000000E+00 0.  1.
         -1    1    1    2    0  502  0.34023370319E+02  0.52205729548E+01 -0.24265809944E+03  0.24508732594E+03  0.00000000000E+00 0. -1.
<mgrwt>
<rscale>  1 0.30000000E+03</rscale>
<asrwt>0</asrwt>
<pdfrwt beam="1">  1       21 0.58499417E-02 0.30000000E+03</pdfrwt>
<pdfrwt beam="2">0</pdfrwt>
<totfact> 0.22012042E+04</totfact>
</mgrwt>
</event>
<event>
 6    1  0.1284012E-001  0.3000000E+03  0.7818608E-02  0.1093470E+00
         21   -1    0    0  501  502  0.00000000000E+00  0.00000000000E+00  0.15119420308E+01  0.15119420308E+01  0.00000000000E+00 0. -1.
         13   -1    0    0    0    0 -0.00000000000E+00 -0.00000000000E+00 -0.10000000000E+04  0.10000000000E+04  0.00000000000E+00 0.  1.
    9000005    2    1    2  501    0 -0.70130462524E+01  0.36604249298E+02 -0.64008741914E+03  0.64117866325E+03  0.30199636040E+01 0.  0.
         13    1    3    3    0    0 -0.64117059762E+01  0.26724933132E+02 -0.47745928105E+03  0.47824961797E+03  0.00000000000E+00 0.  1.
          1    1    3    3  501    0 -0.60134027620E+00  0.98793161659E+01 -0.16262813809E+03  0.16292904528E+03  0.00000000000E+00 0.  1.
         -1    1    1    2    0  502  0.70130462524E+01 -0.36604249298E+02 -0.35840063883E+03  0.36033327878E+03  0.00000000000E+00 0. -1.
<mgrwt>
<rscale>  1 0.30000000E+03</rscale>
<asrwt>0</asrwt>
<pdfrwt beam="1">  1       21 0.54979826E-02 0.30000000E+03</pdfrwt>
<pdfrwt beam="2">0</pdfrwt>
<totfact> 0.24489549E+04</totfact>
</mgrwt>
</event>
<event>
 6    1  0.1284012E-001  0.3000000E+03  0.7818608E-02  0.1093470E+00
         21   -1    0    0  501  502  0.00000000000E+00  0.00000000000E+00  0.10437714070E+01  0.10437714070E+01  0.00000000000E+00 0. -1.
         13   -1    0    0    0    0 -0.00000000000E+00 -0.00000000000E+00 -0.10000000000E+04  0.10000000000E+04  0.00000000000E+00 0.  1.
    9000005    2    1    2  501    0  0.29529606563E+02  0.56564736570E+01 -0.32920939358E+03  0.33062239916E+03  0.53247202629E+01 0.  0.
         13    1    3    3    0    0  0.28320003980E+02  0.48819943026E+01 -0.32138399722E+03  0.32266628297E+03  0.00000000000E+00 0.  1.
          3    1    3    3  501    0  0.12096025827E+01  0.77447935441E+00 -0.78253963600E+01  0.79561161926E+01  0.00000000000E+00 0.  1.
         -3    1    1    2    0  502 -0.29529606563E+02 -0.56564736570E+01 -0.66974683501E+03  0.67042137225E+03  0.00000000000E+00 0. -1.
<mgrwt>
<rscale>  1 0.30000000E+03</rscale>
<asrwt>0</asrwt>
<pdfrwt beam="1">  1       21 0.37955404E-02 0.30000000E+03</pdfrwt>
<pdfrwt beam="2">0</pdfrwt>
<totfact> 0.45926600E+04</totfact>
</mgrwt>
</event>
<event>
 6    1  0.1284012E-001  0.3000000E+03  0.7818608E-02  0.1093470E+00
         21   -1    0    0  501  502  0.00000000000E+00  0.00000000000E+00  0.27335981112E+01  0.27335981112E+01  0.00000000000E+00 0. -1.
         13   -1    0    0    0    0 -0.00000000000E+00 -0.00000000000E+00 -0.10000000000E+04  0.10000000000E+04  0.00000000000E+00 0.  1.
    9000005    2    1    2  501    0 -0.35137094923E+02  0.19825639916E+01 -0.86920762098E+03  0.86992698168E+03  0.35382323849E+01 0.  0.
         13    1    3    3    0    0 -0.97606384801E+01  0.14713989924E+01 -0.27654312992E+03  0.27671924000E+03  0.00000000000E+00 0.  1.
          3    1    3    3  501    0 -0.25376456443E+02  0.51116499915E+00 -0.59266449106E+03  0.59320774169E+03  0.00000000000E+00 0.  1.
         -1    1    1    2    0  502  0.35137094923E+02 -0.19825639916E+01 -0.12805878091E+03  0.13280661643E+03  0.00000000000E+00 0. -1.
<mgrwt>
<rscale>  1 0.30000000E+03</rscale>
<asrwt>0</asrwt>
<pdfrwt beam="1">  1       21 0.99403777E-02 0.30000000E+03</pdfrwt>
<pdfrwt beam="2">0</pdfrwt>
<totfact> 0.86956028E+03</totfact>
</mgrwt>
</event>
<event>
 6    1  0.1284012E-001  0.3000000E+03  0.7818608E-02  0.1093470E+00
         21   -1    0    0  501  502  0.00000000000E+00  0.00000000000E+00  0.22336318999E+01  0.22336318999E+01  0.00000000000E+00 0. -1.
         13   -1    0    0    0    0 -0.00000000000E+00 -0.00000000000E+00 -0.10000000000E+04  0.10000000000E+04  0.00000000000E+00 0.  1.
    9000005    2    1    2  501    0  0.51034529002E+01  0.37243910765E+02 -0.80228342527E+03  0.80316898146E+03  0.29264624378E+01 0.  0.
         13    1    3    3    0    0  0.25801100823E+01  0.17303563683E+02 -0.40429419516E+03  0.40467254234E+03  0.00000000000E+00 0.  1.
          3    1    3    3  501    0  0.25233428179E+01  0.19940347082E+02 -0.39798923011E+03  0.39849643911E+03  0.00000000000E+00 0.  1.
         -3    1    1    2    0  502 -0.51034529002E+01 -0.37243910765E+02 -0.19548294283E+03  0.19906465044E+03  0.00000000000E+00 0. -1.
<mgrwt>
<rscale>  1 0.30000000E+03</rscale>
<asrwt>0</asrwt>
<pdfrwt beam="1">  1       21 0.81223149E-02 0.30000000E+03</pdfrwt>
<pdfrwt beam="2">0</pdfrwt>
<totfact> 0.12437771E+04</totfact>
</mgrwt>
</event>
<event>
 6    1  0.1284012E-001  0.3000000E+03  0.7818608E-02  0.1093470E+00
         21   -1    0    0  501  502  0.00000000000E+00  0.00000000000E+00  0.19795746582E+01  0.19795746582E+01  0.00000000000E+00 0. -1.
         13   -1    0    0    0    0 -0.00000000000E+00 -0.00000000000E+00 -0.10000000000E+04  0.10000000000E+04  0.00000000000E+00 0.  1.
    9000005    2    1    2  501    0 -0.28448129111E+02  0.19004601474E+02 -0.81893651732E+03  0.81965701150E+03  0.31821629149E+01 0.  0.
         13    1    3    3    0    0 -0.10706932785E+02  0.53353099293E+01 -0.28247766709E+03  0.28273085496E+03  0.00000000000E+00 0.  1.
          3    1    3    3  501    0 -0.17741196326E+02  0.13669291544E+02 -0.53645885023E+03  0.53692615653E+03  0.00000000000E+00 0.  1.
         -3    1    1    2    0  502  0.28448129111E+02 -0.19004601474E+02 -0.17908390802E+03  0.18232256316E+03  0.00000000000E+00 0. -1.
<mgrwt>
<rscale>  1 0.30000000E+03</rscale>
<asrwt>0</asrwt>
<pdfrwt beam="1">  1       21 0.71984685E-02 0.30000000E+03</pdfrwt>
<pdfrwt beam="2">0</pdfrwt>
<totfact> 0.15368116E+04</totfact>
</mgrwt>
</event>
<event>
 6    1  0.1284012E-001  0.3000000E+03  0.7818608E-02  0.1093470E+00
         21   -1    0    0  501  502  0.00000000000E+00  0.00000000000E+00  0.61699737565E+01  0.61699737565E+01  0.00000000000E+00 0. -1.
         13   -1    0    0    0    0 -0.00000000000E+00 -0.00000000000E+00 -0.10000000000E+04  0.10000000000E+04  0.00000000000E+00 0.  1.
    9000005    2    1    2  501    0 -0.16424363076E+02 -0.63583532481E+02 -0.77272032186E+03  0.77551411175E+03  0.35800004996E+01 0.  0.
         13    1    3    3    0    0 -0.16693067561E+01 -0.10948555990E+02 -0.13902993224E+03  0.13947035356E+03  0.00000000000E+00 0.  1.
          3    1    3    3  501    0 -0.14755056320E+02 -0.52634976491E+02 -0.63369038963E+03  0.63604375820E+03  0.00000000000E+00 0.  1.
         -3    1    1    2    0  502  0.16424363076E+02  0.63583532481E+02 -0.22110970438E+03  0.23065586200E+03  0.00000000000E+00 0. -1.
<mgrwt>
<rscale>  1 0.30000000E+03</rscale>
<asrwt>0</asrwt>
<pdfrwt beam="1">  1       21 0.22436316E-01 0.30000000E+03</pdfrwt>
<pdfrwt beam="2">0</pdfrwt>
<totfact> 0.19243592E+03</totfact>
</mgrwt>
</event>
<event>
 6    1  0.1284012E-001  0.3000000E+03  0.7818608E-02  0.1093470E+00
         21   -1    0    0  501  502  0.00000000000E+00  0.00000000000E+00  0.22587797083E+01  0.22587797083E+01  0.00000000000E+00 0. -1.
         13   -1    0    0    0    0 -0.00000000000E+00 -0.00000000000E+00 -0.10000000000E+04  0.10000000000E+04  0.00000000000E+00 0.  1.
    9000005    2    1    2  501    0 -0.27618235112E+02 -0.19639015812E+02 -0.84952619026E+03  0.85021880805E+03  0.53680333035E+01 0.  0.
         13    1    3    3    0    0 -0.67108605776E+01 -0.26449275604E+01 -0.21467664690E+03  0.21479779797E+03  0.00000000000E+00 0.  1.
          3    1    3    3  501    0 -0.20907374535E+02 -0.16994088252E+02 -0.63484954336E+03  0.63542101008E+03  0.00000000000E+00 0.  1.
         -3    1    1    2    0  502  0.27618235112E+02  0.19639015812E+02 -0.14821503003E+03  0.15203997165E+03  0.00000000000E+00 0. -1.
<mgrwt>
<rscale>  1 0.30000000E+03</rscale>
<asrwt>0</asrwt>
<pdfrwt beam="1">  1       21 0.82137617E-02 0.30000000E+03</pdfrwt>
<pdfrwt beam="2">0</pdfrwt>
<totfact> 0.12195275E+04</totfact>
</mgrwt>
</event>
<event>
 6    1  0.1284012E-001  0.3000000E+03  0.7818608E-02  0.1093470E+00
         21   -1    0    0  501  502  0.00000000000E+00  0.00000000000E+00  0.41902020162E+01  0.41902020162E+01  0.00000000000E+00 0. -1.
         13   -1    0    0    0    0 -0.00000000000E+00 -0.00000000000E+00 -0.10000000000E+04  0.10000000000E+04  0.00000000000E+00 0.  1.
    9000005    2    1    2  501    0  0.30770235011E+02  0.38246092842E+02 -0.82475205055E+03  0.82622862207E+03  0.53122555181E+01 0.  0.
         13    1    3    3    0    0  0.24966635617E+02  0.30130112750E+02 -0.68913956028E+03  0.69024958539E+03  0.00000000000E+00 0.  1.
          3    1    3    3  501    0  0.58035993933E+01  0.81159800919E+01 -0.13561249027E+03  0.13597903668E+03  0.00000000000E+00 0.  1.
         -1    1    1    2    0  502 -0.30770235011E+02 -0.38246092842E+02 -0.17105774743E+03  0.17796157995E+03  0.00000000000E+00 0. -1.
<mgrwt>
<rscale>  1 0.30000000E+03</rscale>
<asrwt>0</asrwt>
<pdfrwt beam="1">  1       21 0.15237130E-01 0.30000000E+03</pdfrwt>
<pdfrwt beam="2">0</pdfrwt>
<totfact> 0.40000918E+03</totfact>
</mgrwt>
</event>
<event>
 6    1  0.1284012E-001  0.3000000E+03  0.7818608E-02  0.1093470E+00
         21   -1    0    0  501  502  0.00000000000E+00  0.00000000000E+00  0.12669842856E+01  0.12669842856E+01  0.00000000000E+00 0. -1.
         13   -1    0    0    0    0 -0.00000000000E+00 -0.00000000000E+00 -0.10000000000E+04  0.10000000000E+04  0.00000000000E+00 0.  1.
    9000005    2    1    2  501    0  0.92063865712E+01 -0.28690616399E+02 -0.76523150601E+03  0.76582938309E+03  0.27344449206E+01 0.  0.
         13    1    3    3    0    0  0.44169675636E+01 -0.10148422519E+02 -0.26237389285E+03  0.26260723473E+03  0.00000000000E+00 0.  1.
          3    1    3    3  501    0  0.47894190076E+01 -0.18542193880E+02 -0.50285761316E+03  0.50322214836E+03  0.00000000000E+00 0.  1.
         -1    1    1    2    0  502 -0.92063865712E+01  0.28690616399E+02 -0.23350150970E+03  0.23543760120E+03  0.00000000000E+00 0. -1.
<mgrwt>
<rscale>  1 0.30000000E+03</rscale>
<asrwt>0</asrwt>
<pdfrwt beam="1">  1       21 0.46072253E-02 0.30000000E+03</pdfrwt>
<pdfrwt beam="2">0</pdfrwt>
<totfact> 0.33107383E+04</totfact>
</mgrwt>
</event>
<event>
 6    1  0.1284012E-001  0.3000000E+03  0.7818608E-02  0.1093470E+00
         21   -1    0    0  501  502  0.00000000000E+00  0.00000000000E+00  0.30815354584E+01  0.30815354584E+01  0.00000000000E+00 0. -1.
         13   -1    0    0    0    0 -0.00000000000E+00 -0.00000000000E+00 -0.10000000000E+04  0.10000000000E+04  0.00000000000E+00 0.  1.
    9000005    2    1    2  501    0  0.85509447571E+01 -0.47893939296E+02 -0.73951923746E+03  0.74112484022E+03  0.32215123470E+01 0.  0.
         13    1    3    3    0    0  0.17965730786E+01 -0.71390442682E+01 -0.97019209761E+02  0.97298102194E+02  0.00000000000E+00 0.  1.
          3    1    3    3  501    0  0.67543716785E+01 -0.40754895027E+02 -0.64250002770E+03  0.64382673803E+03  0.00000000000E+00 0.  1.
         -1    1    1    2    0  502 -0.85509447571E+01  0.47893939296E+02 -0.25739922708E+03  0.26195669524E+03  0.00000000000E+00 0. -1.
<mgrwt>
<rscale>  1 0.30000000E+03</rscale>
<asrwt>0</asrwt>
<pdfrwt beam="1">  1       21 0.11205607E-01 0.30000000E+03</pdfrwt>
<pdfrwt beam="2">0</pdfrwt>
<totfact> 0.70141900E+03</totfact>
</mgrwt>
</event>
<event>
 6    1  0.1284012E-001  0.3000000E+03  0.7818608E-02  0.1093470E+00
         21   -1    0    0  501  502  0.00000000000E+00  0.00000000000E+00  0.69856536735E+01  0.69856536735E+01  0.00000000000E+00 0. -1.
         13   -1    0    0    0    0 -0.00000000000E+00 -0.00000000000E+00 -0.10000000000E+04  0.10000000000E+04  0.00000000000E+00 0.  1.
    9000005    2    1    2  501    0 -0.60204172201E+01 -0.62073508146E+02 -0.83160491024E+03  0.83394701090E+03  0.33947616822E+01 0.  0.
         13    1    3    3    0    0 -0.57991755459E+01 -0.52665641357E+02 -0.69221789427E+03  0.69424269053E+03  0.00000000000E+00 0.  1.
          3    1    3    3  501    0 -0.22124167417E+00 -0.94078667886E+01 -0.13938701598E+03  0.13970432036E+03  0.00000000000E+00 0.  1.
         -3    1    1    2    0  502  0.60204172201E+01  0.62073508146E+02 -0.16140943608E+03  0.17303864278E+03  0.00000000000E+00 0. -1.
<mgrwt>
<rscale>  1 0.30000000E+03</rscale>
<asrwt>0</asrwt>
<pdfrwt beam="1">  1       21 0.25402431E-01 0.30000000E+03</pdfrwt>
<pdfrwt beam="2">0</pdfrwt>
<totfact> 0.15115450E+03</totfact>
</mgrwt>
</event>
<event>
 6    1  0.1284012E-001  0.3000000E+03  0.7818608E-02  0.1093470E+00
         21   -1    0    0  501  502  0.00000000000E+00  0.00000000000E+00  0.25734418447E+02  0.25734418447E+02  0.00000000000E+00 0. -1.
         13   -1    0    0    0    0 -0.00000000000E+00 -0.00000000000E+00 -0.10000000000E+04  0.10000000000E+04  0.00000000000E+00 0.  1.
    9000005    2    1    2  501    0  0.49534469434E+02 -0.30143710590E+02 -0.96528928035E+03  0.96705835064E+03  0.74934521353E+01 0.  0.
         13    1    3    3    0    0  0.66684355963E+01 -0.67630425524E+01 -0.18369463772E+03  0.18394000844E+03  0.00000000000E+00 0.  1.
          1    1    3    3  501    0  0.42866033838E+02 -0.23380668038E+02 -0.78159464263E+03  0.78311834219E+03  0.00000000000E+00 0.  1.
         -1    1    1    2    0  502 -0.49534469434E+02  0.30143710590E+02 -0.89763012003E+01  0.58676067809E+02  0.00000000000E+00 0. -1.
<mgrwt>
<rscale>  1 0.30000000E+03</rscale>
<asrwt>0</asrwt>
<pdfrwt beam="1">  1       21 0.93579901E-01 0.30000000E+03</pdfrwt>
<pdfrwt beam="2">0</pdfrwt>
<totfact> 0.87214395E+01</totfact>
</mgrwt>
</event>
<event>
 6    1  0.1284012E-001  0.3000000E+03  0.7818608E-02  0.1093470E+00
         21   -1    0    0  501  502  0.00000000000E+00  0.00000000000E+00  0.30759551257E+01  0.30759551257E+01  0.00000000000E+00 0. -1.
         13   -1    0    0    0    0 -0.00000000000E+00 -0.00000000000E+00 -0.10000000000E+04  0.10000000000E+04  0.00000000000E+00 0.  1.
    9000005    2    1    2  501    0 -0.33534617204E+01 -0.30468443395E+02 -0.91630003932E+03  0.91682166816E+03  0.40788969383E+01 0.  0.
         13    1    3    3    0    0 -0.14956040820E+00  0.97065166065E-01 -0.37065545836E+01  0.37108404497E+01  0.00000000000E+00 0.  1.
          1    1    3    3  501    0 -0.32039013122E+01 -0.30565508561E+02 -0.91259348474E+03  0.91311082771E+03  0.00000000000E+00 0.  1.
         -3    1    1    2    0  502  0.33534617204E+01  0.30468443395E+02 -0.80624005550E+02  0.86254286962E+02  0.00000000000E+00 0. -1.
<mgrwt>
<rscale>  1 0.30000000E+03</rscale>
<asrwt>0</asrwt>
<pdfrwt beam="1">  1       21 0.11185315E-01 0.30000000E+03</pdfrwt>
<pdfrwt beam="2">0</pdfrwt>
<totfact> 0.70371363E+03</totfact>
</mgrwt>
</event>
<event>
 6    1  0.1284012E-001  0.3000000E+03  0.7818608E-02  0.1093470E+00
         21   -1    0    0  501  502  0.00000000000E+00  0.00000000000E+00  0.33049901618E+01  0.33049901618E+01  0.00000000000E+00 0. -1.
         13   -1    0    0    0    0 -0.00000000000E+00 -0.00000000000E+00 -0.10000000000E+04  0.10000000000E+04  0.00000000000E+00 0.  1.
    9000005    2    1    2  501    0  0.55402055073E+02 -0.43111599501E+01 -0.37176484121E+03  0.37590903109E+03  0.32447933122E+01 0.  0.
         13    1    3    3    0    0  0.10199655418E+02  0.24669306453E+00 -0.73076673443E+02  0.73785459473E+02  0.00000000000E+00 0.  1.
          1    1    3    3  501    0  0.45202399655E+02 -0.45578530146E+01 -0.29868816777E+03  0.30212357161E+03  0.00000000000E+00 0.  1.
         -3    1    1    2    0  502 -0.55402055073E+02  0.43111599501E+01 -0.62493016862E+03  0.62739595907E+03  0.00000000000E+00 0. -1.
<mgrwt>
<rscale>  1 0.30000000E+03</rscale>
<asrwt>0</asrwt>
<pdfrwt beam="1">  1       21 0.12018171E-01 0.30000000E+03</pdfrwt>
<pdfrwt beam="2">0</pdfrwt>
<totfact> 0.61801230E+03</totfact>
</mgrwt>
</event>
<event>
 6    1  0.1284012E-001  0.3000000E+03  0.7818608E-02  0.1093470E+00
         21   -1    0    0  501  502  0.00000000000E+00  0.00000000000E+00  0.29747980860E+01  0.29747980860E+01  0.00000000000E+00 0. -1.
         13   -1    0    0    0    0 -0.00000000000E+00 -0.00000000000E+00 -0.10000000000E+04  0.10000000000E+04  0.00000000000E+00 0.  1.
    9000005    2    1    2  501    0  0.48815246129E+02 -0.23950599305E+02 -0.46650775068E+03  0.46967814000E+03  0.33932709478E+01 0.  0.
         13    1    3    3    0    0  0.46687851817E+02 -0.22340401324E+02 -0.44776807360E+03  0.45074948338E+03  0.00000000000E+00 0.  1.
          3    1    3    3  501    0  0.21273943127E+01 -0.16101979805E+01 -0.18739677080E+02  0.18928656613E+02  0.00000000000E+00 0.  1.
         -1    1    1    2    0  502 -0.48815246129E+02  0.23950599305E+02 -0.53051745124E+03  0.53329665809E+03  0.00000000000E+00 0. -1.
<mgrwt>
<rscale>  1 0.30000000E+03</rscale>
<asrwt>0</asrwt>
<pdfrwt beam="1">  1       21 0.10817470E-01 0.30000000E+03</pdfrwt>
<pdfrwt beam="2">0</pdfrwt>
<totfact> 0.74735032E+03</totfact>
</mgrwt>
</event>
<event>
 6    1  0.1284012E-001  0.3000000E+03  0.7818608E-02  0.1093470E+00
         21   -1    0    0  501  502  0.00000000000E+00  0.00000000000E+00  0.11643938518E+01  0.11643938518E+01  0.00000000000E+00 0. -1.
         13   -1    0    0    0    0 -0.00000000000E+00 -0.00000000000E+00 -0.10000000000E+04  0.10000000000E+04  0.00000000000E+00 0.  1.
    9000005    2    1    2  501    0 -0.75663653297E+01  0.33120503151E+02 -0.47126390129E+03  0.47249992429E+03  0.35065907807E+01 0.  0.
         13    1    3    3    0    0 -0.39789585457E+01  0.24246641914E+02 -0.34464337622E+03  0.34551814501E+03  0.00000000000E+00 0.  1.
          1    1    3    3  501    0 -0.35874067841E+01  0.88738612372E+01 -0.12662052507E+03  0.12698177928E+03  0.00000000000E+00 0.  1.
         -3    1    1    2    0  502  0.75663653297E+01 -0.33120503151E+02 -0.52757170486E+03  0.52866446957E+03  0.00000000000E+00 0. -1.
<mgrwt>
<rscale>  1 0.30000000E+03</rscale>
<asrwt>0</asrwt>
<pdfrwt beam="1">  1       21 0.42341684E-02 0.30000000E+03</pdfrwt>
<pdfrwt beam="2">0</pdfrwt>
<totfact> 0.38200077E+04</totfact>
</mgrwt>
</event>
<event>
 6    1  0.1284012E-001  0.3000000E+03  0.7818608E-02  0.1093470E+00
         21   -1    0    0  501  502  0.00000000000E+00  0.00000000000E+00  0.43191687026E+01  0.43191687026E+01  0.00000000000E+00 0. -1.
         13   -1    0    0    0    0 -0.00000000000E+00 -0.00000000000E+00 -0.10000000000E+04  0.10000000000E+04  0.00000000000E+00 0.  1.
    9000005    2    1    2  501    0  0.62563888529E+01 -0.63285878526E+02 -0.62014223768E+03  0.62343404150E+03  0.70259756285E+01 0.  0.
         13    1    3    3    0    0  0.31814307318E+01 -0.55607172431E+02 -0.53587014847E+03  0.53875699081E+03  0.00000000000E+00 0.  1.
          1    1    3    3  501    0  0.30749581211E+01 -0.76787060948E+01 -0.84272089205E+02  0.84677050691E+02  0.00000000000E+00 0.  1.
         -1    1    1    2    0  502 -0.62563888529E+01  0.63285878526E+02 -0.37553859362E+03  0.38088512720E+03  0.00000000000E+00 0. -1.
<mgrwt>
<rscale>  1 0.30000000E+03</rscale>
<asrwt>0</asrwt>
<pdfrwt beam="1">  1       21 0.15706101E-01 0.30000000E+03</pdfrwt>
<pdfrwt beam="2">0</pdfrwt>
<totfact> 0.37810068E+03</totfact>
</mgrwt>
</event>
<event>
 6    1  0.1284012E-001  0.3000000E+03  0.7818608E-02  0.1093470E+00
         21   -1    0    0  501  502  0.00000000000E+00  0.00000000000E+00  0.23679774308E+02  0.23679774308E+02  0.00000000000E+00 0. -1.
         13   -1    0    0    0    0 -0.00000000000E+00 -0.00000000000E+00 -0.10000000000E+04  0.10000000000E+04  0.00000000000E+00 0.  1.
    9000005    2    1    2  501    0  0.13527086998E+03 -0.52115673315E+02 -0.65976633784E+03  0.67551226349E+03  0.33084613210E+01 0.  0.
         13    1    3    3    0    0  0.45007267025E+02 -0.18188509266E+02 -0.21469317762E+03  0.22011278125E+03  0.00000000000E+00 0.  1.
          3    1    3    3  501    0  0.90263602955E+02 -0.33927164049E+02 -0.44507316022E+03  0.45539948224E+03  0.00000000000E+00 0.  1.
         -1    1    1    2    0  502 -0.13527086998E+03  0.52115673315E+02 -0.31655388785E+03  0.34816751081E+03  0.00000000000E+00 0. -1.
<mgrwt>
<rscale>  1 0.30000000E+03</rscale>
<asrwt>0</asrwt>
<pdfrwt beam="1">  1       21 0.86108452E-01 0.30000000E+03</pdfrwt>
<pdfrwt beam="2">0</pdfrwt>
<totfact> 0.10751904E+02</totfact>
</mgrwt>
</event>
<event>
 6    1  0.1284012E-001  0.3000000E+03  0.7818608E-02  0.1093470E+00
         21   -1    0    0  501  502  0.00000000000E+00  0.00000000000E+00  0.14265888867E+02  0.14265888867E+02  0.00000000000E+00 0. -1.
         13   -1    0    0    0    0 -0.00000000000E+00 -0.00000000000E+00 -0.10000000000E+04  0.10000000000E+04  0.00000000000E+00 0.  1.
    9000005    2    1    2  501    0  0.26438509406E+02 -0.30626988762E+02 -0.96999658228E+03  0.97085302171E+03  0.50212459687E+01 0.  0.
         13    1    3    3    0    0  0.17972769288E+02 -0.17322990738E+02 -0.61496281332E+03  0.61546922605E+03  0.00000000000E+00 0.  1.
          1    1    3    3  501    0  0.84657401181E+01 -0.13303998025E+02 -0.35503376896E+03  0.35538379567E+03  0.00000000000E+00 0.  1.
         -1    1    1    2    0  502 -0.26438509406E+02  0.30626988762E+02 -0.15737528852E+02  0.43412867155E+02  0.00000000000E+00 0. -1.
<mgrwt>
<rscale>  1 0.30000000E+03</rscale>
<asrwt>0</asrwt>
<pdfrwt beam="1">  1       21 0.51876069E-01 0.30000000E+03</pdfrwt>
<pdfrwt beam="2">0</pdfrwt>
<totfact> 0.34677599E+02</totfact>
</mgrwt>
</event>
<event>
 6    1  0.1284012E-001  0.3000000E+03  0.7818608E-02  0.1093470E+00
         21   -1    0    0  501  502  0.00000000000E+00  0.00000000000E+00  0.55516943918E+01  0.55516943918E+01  0.00000000000E+00 0. -1.
         13   -1    0    0    0    0 -0.00000000000E+00 -0.00000000000E+00 -0.10000000000E+04  0.10000000000E+04  0.00000000000E+00 0.  1.
    9000005    2    1    2  501    0 -0.38672707525E+02 -0.81162308934E+01 -0.92342066685E+03  0.92427207223E+03  0.34181906349E+01 0.  0.
         13    1    3    3    0    0 -0.30238160886E+02 -0.77726726357E+01 -0.72616275739E+03  0.72683361991E+03  0.00000000000E+00 0.  1.
          1    1    3    3  501    0 -0.84345466395E+01 -0.34355825765E+00 -0.19725790946E+03  0.19743845232E+03  0.00000000000E+00 0.  1.
         -3    1    1    2    0  502  0.38672707525E+02  0.81162308934E+01 -0.71027638759E+02  0.81279622163E+02  0.00000000000E+00 0. -1.
<mgrwt>
<rscale>  1 0.30000000E+03</rscale>
<asrwt>0</asrwt>
<pdfrwt beam="1">  1       21 0.20188022E-01 0.30000000E+03</pdfrwt>
<pdfrwt beam="2">0</pdfrwt>
<totfact> 0.23567244E+03</totfact>
</mgrwt>
</event>
<event>
 6    1  0.1284012E-001  0.3000000E+03  0.7818608E-02  0.1093470E+00
         21   -1    0    0  501  502  0.00000000000E+00  0.00000000000E+00  0.54190404736E+01  0.54190404736E+01  0.00000000000E+00 0. -1.
         13   -1    0    0    0    0 -0.00000000000E+00 -0.00000000000E+00 -0.10000000000E+04  0.10000000000E+04  0.00000000000E+00 0.  1.
    9000005    2    1    2  501    0 -0.51569356541E+02 -0.28543692874E+02 -0.79780834307E+03  0.80000822400E+03  0.63925941425E+01 0.  0.
         13    1    3    3    0    0 -0.42732154395E+02 -0.25463671619E+02 -0.64664772306E+03  0.64855818037E+03  0.00000000000E+00 0.  1.
          3    1    3    3  501    0 -0.88372021455E+01 -0.30800212549E+01 -0.15116062001E+03  0.15145004363E+03  0.00000000000E+00 0.  1.
         -3    1    1    2    0  502  0.51569356541E+02  0.28543692874E+02 -0.19677261645E+03  0.20541081647E+03  0.00000000000E+00 0. -1.
<mgrwt>
<rscale>  1 0.30000000E+03</rscale>
<asrwt>0</asrwt>
<pdfrwt beam="1">  1       21 0.19705643E-01 0.30000000E+03</pdfrwt>
<pdfrwt beam="2">0</pdfrwt>
<totfact> 0.24680258E+03</totfact>
</mgrwt>
</event>
<event>
 6    1  0.1284012E-001  0.3000000E+03  0.7818608E-02  0.1093470E+00
         21   -1    0    0  501  502  0.00000000000E+00  0.00000000000E+00  0.11002760356E+01  0.11002760356E+01  0.00000000000E+00 0. -1.
         13   -1    0    0    0    0 -0.00000000000E+00 -0.00000000000E+00 -0.10000000000E+04  0.10000000000E+04  0.00000000000E+00 0.  1.
    9000005    2    1    2  501    0 -0.99358268754E+01  0.29374987219E+02 -0.67273020260E+03  0.67345997449E+03  0.45608354409E+01 0.  0.
         13    1    3    3    0    0 -0.96204467674E+01  0.27186586030E+02 -0.59517518960E+03  0.59587345114E+03  0.00000000000E+00 0.  1.
          1    1    3    3  501    0 -0.31538010806E+00  0.21884011894E+01 -0.77555012998E+02  0.77586523350E+02  0.00000000000E+00 0.  1.
         -3    1    1    2    0  502  0.99358268754E+01 -0.29374987219E+02 -0.32616952137E+03  0.32764030155E+03  0.00000000000E+00 0. -1.
<mgrwt>
<rscale>  1 0.30000000E+03</rscale>
<asrwt>0</asrwt>
<pdfrwt beam="1">  1       21 0.40010122E-02 0.30000000E+03</pdfrwt>
<pdfrwt beam="2">0</pdfrwt>
<totfact> 0.42029411E+04</totfact>
</mgrwt>
</event>
<event>
 6    1  0.1284012E-001  0.3000000E+03  0.7818608E-02  0.1093470E+00
         21   -1    0    0  501  502  0.00000000000E+00  0.00000000000E+00  0.44798227037E+01  0.44798227037E+01  0.00000000000E+00 0. -1.
         13   -1    0    0    0    0 -0.00000000000E+00 -0.00000000000E+00 -0.10000000000E+04  0.10000000000E+04  0.00000000000E+00 0.  1.
    9000005    2    1    2  501    0  0.32481039851E+01 -0.32323265040E+02 -0.93683194578E+03  0.93740037607E+03  0.31665086449E+01 0.  0.
         13    1    3    3    0    0  0.21045492340E+01 -0.28707287939E+02 -0.84512930824E+03  0.84561935004E+03  0.00000000000E+00 0.  1.
          3    1    3    3  501    0  0.11435547511E+01 -0.36159771014E+01 -0.91702637540E+02  0.91781026033E+02  0.00000000000E+00 0.  1.
         -3    1    1    2    0  502 -0.32481039851E+01  0.32323265040E+02 -0.58688231515E+02  0.67079446634E+02  0.00000000000E+00 0. -1.
<mgrwt>
<rscale>  1 0.30000000E+03</rscale>
<asrwt>0</asrwt>
<pdfrwt beam="1">  1       21 0.16290299E-01 0.30000000E+03</pdfrwt>
<pdfrwt beam="2">0</pdfrwt>
<totfact> 0.35321958E+03</totfact>
</mgrwt>
</event>
<event>
 6    1  0.1284012E-001  0.3000000E+03  0.7818608E-02  0.1093470E+00
         21   -1    0    0  501  502  0.00000000000E+00  0.00000000000E+00  0.10743821687E+01  0.10743821687E+01  0.00000000000E+00 0. -1.
         13   -1    0    0    0    0 -0.00000000000E+00 -0.00000000000E+00 -0.10000000000E+04  0.10000000000E+04  0.00000000000E+00 0.  1.
    9000005    2    1    2  501    0 -0.20964303920E+02 -0.25077126873E+02 -0.51667371912E+03  0.51771606980E+03  0.31356917231E+01 0.  0.
         13    1    3    3    0    0 -0.64621551040E+01 -0.59941043766E+01 -0.12619099179E+03  0.12649843930E+03  0.00000000000E+00 0.  1.
          3    1    3    3  501    0 -0.14502148816E+02 -0.19083022497E+02 -0.39048272733E+03  0.39121763050E+03  0.00000000000E+00 0.  1.
         -1    1    1    2    0  502  0.20964303920E+02  0.25077126873E+02 -0.48225189871E+03  0.48335831237E+03  0.00000000000E+00 0. -1.
<mgrwt>
<rscale>  1 0.30000000E+03</rscale>
<asrwt>0</asrwt>
<pdfrwt beam="1">  1       21 0.39068525E-02 0.30000000E+03</pdfrwt>
<pdfrwt beam="2">0</pdfrwt>
<totfact> 0.43748294E+04</totfact>
</mgrwt>
</event>
<event>
 6    1  0.1284012E-001  0.3000000E+03  0.7818608E-02  0.1093470E+00
         21   -1    0    0  501  502  0.00000000000E+00  0.00000000000E+00  0.29991259507E+01  0.29991259507E+01  0.00000000000E+00 0. -1.
         13   -1    0    0    0    0 -0.00000000000E+00 -0.00000000000E+00 -0.10000000000E+04  0.10000000000E+04  0.00000000000E+00 0.  1.
    9000005    2    1    2  501    0  0.83525305173E+01  0.32712388182E+02 -0.89316506066E+03  0.89381239943E+03  0.41127459963E+01 0.  0.
         13    1    3    3    0    0  0.48107342940E+01  0.11441117812E+02 -0.30674176565E+03  0.30699275747E+03  0.00000000000E+00 0.  1.
          1    1    3    3  501    0  0.35417962233E+01  0.21271270370E+02 -0.58642329501E+03  0.58681964196E+03  0.00000000000E+00 0.  1.
         -1    1    1    2    0  502 -0.83525305173E+01 -0.32712388182E+02 -0.10383581339E+03  0.10918672652E+03  0.00000000000E+00 0. -1.
<mgrwt>
<rscale>  1 0.30000000E+03</rscale>
<asrwt>0</asrwt>
<pdfrwt beam="1">  1       21 0.10905936E-01 0.30000000E+03</pdfrwt>
<pdfrwt beam="2">0</pdfrwt>
<totfact> 0.73649032E+03</totfact>
</mgrwt>
</event>
<event>
 6    1  0.1284012E-001  0.3000000E+03  0.7818608E-02  0.1093470E+00
         21   -1    0    0  501  502  0.00000000000E+00  0.00000000000E+00  0.28368417740E+01  0.28368417740E+01  0.00000000000E+00 0. -1.
         13   -1    0    0    0    0 -0.00000000000E+00 -0.00000000000E+00 -0.10000000000E+04  0.10000000000E+04  0.00000000000E+00 0.  1.
    9000005    2    1    2  501    0 -0.24893731600E+02 -0.35605647169E+02 -0.20983105204E+03  0.21430700377E+03  0.33108131338E+01 0.  0.
         13    1    3    3    0    0 -0.38264162640E+00 -0.18020561053E+00 -0.11347246493E+01  0.12109866663E+01  0.00000000000E+00 0.  1.
          3    1    3    3  501    0 -0.24511089974E+02 -0.35425441558E+02 -0.20869632739E+03  0.21309601711E+03  0.00000000000E+00 0.  1.
         -1    1    1    2    0  502  0.24893731600E+02  0.35605647169E+02 -0.78733210619E+03  0.78852983800E+03  0.00000000000E+00 0. -1.
<mgrwt>
<rscale>  1 0.30000000E+03</rscale>
<asrwt>0</asrwt>
<pdfrwt beam="1">  1       21 0.10315810E-01 0.30000000E+03</pdfrwt>
<pdfrwt beam="2">0</pdfrwt>
<totfact> 0.81378256E+03</totfact>
</mgrwt>
</event>
<event>
 6    1  0.1284012E-001  0.3000000E+03  0.7818608E-02  0.1093470E+00
         21   -1    0    0  501  502  0.00000000000E+00  0.00000000000E+00  0.29535218651E+01  0.29535218651E+01  0.00000000000E+00 0. -1.
         13   -1    0    0    0    0 -0.00000000000E+00 -0.00000000000E+00 -0.10000000000E+04  0.10000000000E+04  0.00000000000E+00 0.  1.
    9000005    2    1    2  501    0  0.13764418247E+02  0.38278230008E+02 -0.83086577449E+03  0.83186667735E+03  0.30905604873E+01 0.  0.
         13    1    3    3    0    0  0.12907873341E+02  0.37333779042E+02 -0.80883678485E+03  0.80980082043E+03  0.00000000000E+00 0.  1.
          1    1    3    3  501    0  0.85654490584E+00  0.94445096639E+00 -0.22028989638E+02  0.22065856912E+02  0.00000000000E+00 0.  1.
         -1    1    1    2    0  502 -0.13764418247E+02 -0.38278230008E+02 -0.16618070365E+03  0.17108684452E+03  0.00000000000E+00 0. -1.
<mgrwt>
<rscale>  1 0.30000000E+03</rscale>
<asrwt>0</asrwt>
<pdfrwt beam="1">  1       21 0.10740102E-01 0.30000000E+03</pdfrwt>
<pdfrwt beam="2">0</pdfrwt>
<totfact> 0.75704775E+03</totfact>
</mgrwt>
</event>
<event>
 6    1  0.1284012E-001  0.3000000E+03  0.7818608E-02  0.1093470E+00
         21   -1    0    0  501  502  0.00000000000E+00  0.00000000000E+00  0.11033422842E+01  0.11033422842E+01  0.00000000000E+00 0. -1.
         13   -1    0    0    0    0 -0.00000000000E+00 -0.00000000000E+00 -0.10000000000E+04  0.10000000000E+04  0.00000000000E+00 0.  1.
    9000005    2    1    2  501    0 -0.26269099468E+02  0.20019781850E+02 -0.46321228738E+03  0.46440174747E+03  0.35359048005E+01 0.  0.
         13    1    3    3    0    0 -0.21286377762E+02  0.14427792929E+02 -0.35345974746E+03  0.35439393923E+03  0.00000000000E+00 0.  1.
          3    1    3    3  501    0 -0.49827217053E+01  0.55919889214E+01 -0.10975253992E+03  0.11000780824E+03  0.00000000000E+00 0.  1.
         -3    1    1    2    0  502  0.26269099468E+02 -0.20019781850E+02 -0.53568437034E+03  0.53670159482E+03  0.00000000000E+00 0. -1.
<mgrwt>
<rscale>  1 0.30000000E+03</rscale>
<asrwt>0</asrwt>
<pdfrwt beam="1">  1       21 0.40121622E-02 0.30000000E+03</pdfrwt>
<pdfrwt beam="2">0</pdfrwt>
<totfact> 0.41832884E+04</totfact>
</mgrwt>
</event>
<event>
 6    1  0.1284012E-001  0.3000000E+03  0.7818608E-02  0.1093470E+00
         21   -1    0    0  501  502  0.00000000000E+00  0.00000000000E+00  0.34371295126E+01  0.34371295126E+01  0.00000000000E+00 0. -1.
         13   -1    0    0    0    0 -0.00000000000E+00 -0.00000000000E+00 -0.10000000000E+04  0.10000000000E+04  0.00000000000E+00 0.  1.
    9000005    2    1    2  501    0  0.14984142769E+02  0.35321659695E+02 -0.87746594083E+03  0.87831230051E+03  0.37250153624E+01 0.  0.
         13    1    3    3    0    0  0.16817780384E+01  0.50190859883E+01 -0.15150195604E+03  0.15159440058E+03  0.00000000000E+00 0.  1.
          3    1    3    3  501    0  0.13302364731E+02  0.30302573706E+02 -0.72596398479E+03  0.72671789994E+03  0.00000000000E+00 0.  1.
         -3    1    1    2    0  502 -0.14984142769E+02 -0.35321659695E+02 -0.11909692966E+03  0.12512482900E+03  0.00000000000E+00 0. -1.
<mgrwt>
<rscale>  1 0.30000000E+03</rscale>
<asrwt>0</asrwt>
<pdfrwt beam="1">  1       21 0.12498679E-01 0.30000000E+03</pdfrwt>
<pdfrwt beam="2">0</pdfrwt>
<totfact> 0.57548017E+03</totfact>
</mgrwt>
</event>
<event>
 6    1  0.1284012E-001  0.3000000E+03  0.7818608E-02  0.1093470E+00
         21   -1    0    0  501  502  0.00000000000E+00  0.00000000000E+00  0.13897601576E+01  0.13897601576E+01  0.00000000000E+00 0. -1.
         13   -1    0    0    0    0 -0.00000000000E+00 -0.00000000000E+00 -0.10000000000E+04  0.10000000000E+04  0.00000000000E+00 0.  1.
    9000005    2    1    2  501    0  0.10627775873E+01 -0.34395860793E+02 -0.31056271895E+03  0.31248222228E+03  0.34252159998E+01 0.  0.
         13    1    3    3    0    0  0.29607608046E+00 -0.31499901520E+02 -0.28917032894E+03  0.29088109357E+03  0.00000000000E+00 0.  1.
          1    1    3    3  501    0  0.76670150688E+00 -0.28959592734E+01 -0.21392390010E+02  0.21601128713E+02  0.00000000000E+00 0.  1.
         -1    1    1    2    0  502 -0.10627775873E+01  0.34395860793E+02 -0.68804752089E+03  0.68890753787E+03  0.00000000000E+00 0. -1.
<mgrwt>
<rscale>  1 0.30000000E+03</rscale>
<asrwt>0</asrwt>
<pdfrwt beam="1">  1       21 0.50536840E-02 0.30000000E+03</pdfrwt>
<pdfrwt beam="2">0</pdfrwt>
<totfact> 0.28284853E+04</totfact>
</mgrwt>
</event>
<event>
 6    1  0.1284012E-001  0.3000000E+03  0.7818608E-02  0.1093470E+00
         21   -1    0    0  501  502  0.00000000000E+00  0.00000000000E+00  0.22053063074E+01  0.22053063074E+01  0.00000000000E+00 0. -1.
         13   -1    0    0    0    0 -0.00000000000E+00 -0.00000000000E+00 -0.10000000000E+04  0.10000000000E+04  0.00000000000E+00 0.  1.
    9000005    2    1    2  501    0  0.29717462153E+02  0.17538015970E+02 -0.83855586207E+03  0.83927061063E+03  0.29179588430E+01 0.  0.
         13    1    3    3    0    0  0.28752375949E+02  0.17054986043E+02 -0.82207944032E+03  0.82275888197E+03  0.00000000000E+00 0.  1.
          3    1    3    3  501    0  0.96508620405E+00  0.48302992639E+00 -0.16476421755E+02  0.16511728654E+02  0.00000000000E+00 0.  1.
         -1    1    1    2    0  502 -0.29717462153E+02 -0.17538015970E+02 -0.15923883162E+03  0.16293469568E+03  0.00000000000E+00 0. -1.
<mgrwt>
<rscale>  1 0.30000000E+03</rscale>
<asrwt>0</asrwt>
<pdfrwt beam="1">  1       21 0.80193126E-02 0.30000000E+03</pdfrwt>
<pdfrwt beam="2">0</pdfrwt>
<totfact> 0.12719881E+04</totfact>
</mgrwt>
</event>
<event>
 6    1  0.1284012E-001  0.3000000E+03  0.7818608E-02  0.1093470E+00
         21   -1    0    0  501  502  0.00000000000E+00  0.00000000000E+00  0.29095584924E+01  0.29095584924E+01  0.00000000000E+00 0. -1.
         13   -1    0    0    0    0 -0.00000000000E+00 -0.00000000000E+00 -0.10000000000E+04  0.10000000000E+04  0.00000000000E+00 0.  1.
    9000005    2    1    2  501    0  0.19510463945E+02  0.28564300759E+02 -0.88299366764E+03  0.88368434602E+03  0.48609499037E+01 0.  0.
         13    1    3    3    0    0  0.64816798556E+01  0.97424521653E+01 -0.35957486860E+03  0.35976522022E+03  0.00000000000E+00 0.  1.
          3    1    3    3  501    0  0.13028784090E+02  0.18821848594E+02 -0.52341879903E+03  0.52391912580E+03  0.00000000000E+00 0.  1.
         -1    1    1    2    0  502 -0.19510463945E+02 -0.28564300759E+02 -0.11409677387E+03  0.11922521247E+03  0.00000000000E+00 0. -1.
<mgrwt>
<rscale>  1 0.30000000E+03</rscale>
<asrwt>0</asrwt>
<pdfrwt beam="1">  1       21 0.10580235E-01 0.30000000E+03</pdfrwt>
<pdfrwt beam="2">0</pdfrwt>
<totfact> 0.77769894E+03</totfact>
</mgrwt>
</event>
<event>
 6    1  0.1284012E-001  0.3000000E+03  0.7818608E-02  0.1093470E+00
         21   -1    0    0  501  502  0.00000000000E+00  0.00000000000E+00  0.10082842237E+01  0.10082842237E+01  0.00000000000E+00 0. -1.
         13   -1    0    0    0    0 -0.00000000000E+00 -0.00000000000E+00 -0.10000000000E+04  0.10000000000E+04  0.00000000000E+00 0.  1.
    9000005    2    1    2  501    0  0.29554132044E+02  0.10727787370E+02 -0.56059723628E+03  0.56148780484E+03  0.32804754762E+01 0.  0.
         13    1    3    3    0    0  0.71229825998E+01  0.34488155114E+01 -0.16265043863E+03  0.16284285798E+03  0.00000000000E+00 0.  1.
          3    1    3    3  501    0  0.22431149444E+02  0.72789718590E+01 -0.39794679765E+03  0.39864494686E+03  0.00000000000E+00 0.  1.
         -3    1    1    2    0  502 -0.29554132044E+02 -0.10727787370E+02 -0.43839447950E+03  0.43952047938E+03  0.00000000000E+00 0. -1.
<mgrwt>
<rscale>  1 0.30000000E+03</rscale>
<asrwt>0</asrwt>
<pdfrwt beam="1">  1       21 0.36664958E-02 0.30000000E+03</pdfrwt>
<pdfrwt beam="2">0</pdfrwt>
<totfact> 0.48672815E+04</totfact>
</mgrwt>
</event>
<event>
 6    1  0.1284012E-001  0.3000000E+03  0.7818608E-02  0.1093470E+00
         21   -1    0    0  501  502  0.00000000000E+00  0.00000000000E+00  0.18983112254E+01  0.18983112254E+01  0.00000000000E+00 0. -1.
         13   -1    0    0    0    0 -0.00000000000E+00 -0.00000000000E+00 -0.10000000000E+04  0.10000000000E+04  0.00000000000E+00 0.  1.
    9000005    2    1    2  501    0 -0.39015489006E+02 -0.19114906881E+02 -0.50620360964E+03  0.50808528152E+03  0.45793930244E+01 0.  0.
         13    1    3    3    0    0 -0.73349071734E+01 -0.47342809230E+01 -0.12040362891E+03  0.12071970897E+03  0.00000000000E+00 0.  1.
          1    1    3    3  501    0 -0.31680581833E+02 -0.14380625958E+02 -0.38579998073E+03  0.38736557255E+03  0.00000000000E+00 0.  1.
         -3    1    1    2    0  502  0.39015489006E+02  0.19114906881E+02 -0.49189807914E+03  0.49381302970E+03  0.00000000000E+00 0. -1.
<mgrwt>
<rscale>  1 0.30000000E+03</rscale>
<asrwt>0</asrwt>
<pdfrwt beam="1">  1       21 0.69029645E-02 0.30000000E+03</pdfrwt>
<pdfrwt beam="2">0</pdfrwt>
<totfact> 0.16531849E+04</totfact>
</mgrwt>
</event>
<event>
 6    1  0.1284012E-001  0.3000000E+03  0.7818608E-02  0.1093470E+00
         21   -1    0    0  501  502  0.00000000000E+00  0.00000000000E+00  0.50376819082E+01  0.50376819082E+01  0.00000000000E+00 0. -1.
         13   -1    0    0    0    0 -0.00000000000E+00 -0.00000000000E+00 -0.10000000000E+04  0.10000000000E+04  0.00000000000E+00 0.  1.
    9000005    2    1    2  501    0 -0.37700279636E+02 -0.11372224874E+02 -0.91551341868E+03  0.91636544160E+03  0.31881335391E+01 0.  0.
         13    1    3    3    0    0 -0.44208320842E+01 -0.30687016478E+00 -0.98332917228E+02  0.98432720861E+02  0.00000000000E+00 0.  1.
          3    1    3    3  501    0 -0.33279447552E+02 -0.11065354709E+02 -0.81718050145E+03  0.81793272074E+03  0.00000000000E+00 0.  1.
         -1    1    1    2    0  502  0.37700279636E+02  0.11372224874E+02 -0.79448899411E+02  0.88672240306E+02  0.00000000000E+00 0. -1.
<mgrwt>
<rscale>  1 0.30000000E+03</rscale>
<asrwt>0</asrwt>
<pdfrwt beam="1">  1       21 0.18318882E-01 0.30000000E+03</pdfrwt>
<pdfrwt beam="2">0</pdfrwt>
<totfact> 0.28341555E+03</totfact>
</mgrwt>
</event>
<event>
 6    1  0.1284012E-001  0.3000000E+03  0.7818608E-02  0.1093470E+00
         21   -1    0    0  501  502  0.00000000000E+00  0.00000000000E+00  0.34669398239E+01  0.34669398239E+01  0.00000000000E+00 0. -1.
         13   -1    0    0    0    0 -0.00000000000E+00 -0.00000000000E+00 -0.10000000000E+04  0.10000000000E+04  0.00000000000E+00 0.  1.
    9000005    2    1    2  501    0  0.50920314621E+02 -0.18703029071E+01 -0.74929504222E+03  0.75103276227E+03  0.32822605737E+01 0.  0.
         13    1    3    3    0    0  0.37356577450E+02 -0.24347105982E+01 -0.53501862463E+03  0.53632673847E+03  0.00000000000E+00 0.  1.
          1    1    3    3  501    0  0.13563737171E+02  0.56440769105E+00 -0.21427641759E+03  0.21470602380E+03  0.00000000000E+00 0.  1.
         -3    1    1    2    0  502 -0.50920314621E+02  0.18703029071E+01 -0.24723801796E+03  0.25243417755E+03  0.00000000000E+00 0. -1.
<mgrwt>
<rscale>  1 0.30000000E+03</rscale>
<asrwt>0</asrwt>
<pdfrwt beam="1">  1       21 0.12607080E-01 0.30000000E+03</pdfrwt>
<pdfrwt beam="2">0</pdfrwt>
<totfact> 0.56649707E+03</totfact>
</mgrwt>
</event>
<event>
 6    1  0.1284012E-001  0.3000000E+03  0.7818608E-02  0.1093470E+00
         21   -1    0    0  501  502  0.00000000000E+00  0.00000000000E+00  0.22328154228E+01  0.22328154228E+01  0.00000000000E+00 0. -1.
         13   -1    0    0    0    0 -0.00000000000E+00 -0.00000000000E+00 -0.10000000000E+04  0.10000000000E+04  0.00000000000E+00 0.  1.
    9000005    2    1    2  501    0 -0.24676512582E+02  0.37027933241E+02 -0.66623173629E+03  0.66772459193E+03  0.33772940090E+01 0.  0.
         13    1    3    3    0    0 -0.99728758873E+01  0.12121523824E+02 -0.22935354348E+03  0.22989005524E+03  0.00000000000E+00 0.  1.
          1    1    3    3  501    0 -0.14703636695E+02  0.24906409417E+02 -0.43687819281E+03  0.43783453669E+03  0.00000000000E+00 0.  1.
         -1    1    1    2    0  502  0.24676512582E+02 -0.37027933241E+02 -0.33153544829E+03  0.33450822349E+03  0.00000000000E+00 0. -1.
<mgrwt>
<rscale>  1 0.30000000E+03</rscale>
<asrwt>0</asrwt>
<pdfrwt beam="1">  1       21 0.81193459E-02 0.30000000E+03</pdfrwt>
<pdfrwt beam="2">0</pdfrwt>
<totfact> 0.12445768E+04</totfact>
</mgrwt>
</event>
<event>
 6    1  0.1284012E-001  0.3000000E+03  0.7818608E-02  0.1093470E+00
         21   -1    0    0  501  502  0.00000000000E+00  0.00000000000E+00  0.16888553811E+01  0.16888553811E+01  0.00000000000E+00 0. -1.
         13   -1    0    0    0    0 -0.00000000000E+00 -0.00000000000E+00 -0.10000000000E+04  0.10000000000E+04  0.00000000000E+00 0.  1.
    9000005    2    1    2  501    0 -0.12537404853E+02  0.37487743049E+02 -0.63402075663E+03  0.63526013901E+03  0.32568358104E+01 0.  0.
         13    1    3    3    0    0 -0.54213480625E+01  0.14377485629E+02 -0.22309488055E+03  0.22362340852E+03  0.00000000000E+00 0.  1.
          1    1    3    3  501    0 -0.71160567907E+01  0.23110257420E+02 -0.41092587608E+03  0.41163673050E+03  0.00000000000E+00 0.  1.
         -1    1    1    2    0  502  0.12537404853E+02 -0.37487743049E+02 -0.36429038799E+03  0.36642871637E+03  0.00000000000E+00 0. -1.
<mgrwt>
<rscale>  1 0.30000000E+03</rscale>
<asrwt>0</asrwt>
<pdfrwt beam="1">  1       21 0.61413052E-02 0.30000000E+03</pdfrwt>
<pdfrwt beam="2">0</pdfrwt>
<totfact> 0.20242090E+04</totfact>
</mgrwt>
</event>
<event>
 6    1  0.1284012E-001  0.3000000E+03  0.7818608E-02  0.1093470E+00
         21   -1    0    0  501  502  0.00000000000E+00  0.00000000000E+00  0.20237781493E+01  0.20237781493E+01  0.00000000000E+00 0. -1.
         13   -1    0    0    0    0 -0.00000000000E+00 -0.00000000000E+00 -0.10000000000E+04  0.10000000000E+04  0.00000000000E+00 0.  1.
    9000005    2    1    2  501    0  0.30556984621E+02  0.26014620646E+02 -0.27633547488E+03  0.27926803969E+03  0.43420634635E+01 0.  0.
         13    1    3    3    0    0  0.20143204376E+02  0.19272904007E+02 -0.18283727346E+03  0.18495043141E+03  0.00000000000E+00 0.  1.
          3    1    3    3  501    0  0.10413780245E+02  0.67417166392E+01 -0.93498201423E+02  0.94317608280E+02  0.00000000000E+00 0.  1.
         -3    1    1    2    0  502 -0.30556984621E+02 -0.26014620646E+02 -0.72164074697E+03  0.72275573846E+03  0.00000000000E+00 0. -1.
<mgrwt>
<rscale>  1 0.30000000E+03</rscale>
<asrwt>0</asrwt>
<pdfrwt beam="1">  1       21 0.73592088E-02 0.30000000E+03</pdfrwt>
<pdfrwt beam="2">0</pdfrwt>
<totfact> 0.14786722E+04</totfact>
</mgrwt>
</event>
<event>
 6    1  0.1284012E-001  0.3000000E+03  0.7818608E-02  0.1093470E+00
         21   -1    0    0  501  502  0.00000000000E+00  0.00000000000E+00  0.17141591131E+01  0.17141591131E+01  0.00000000000E+00 0. -1.
         13   -1    0    0    0    0 -0.00000000000E+00 -0.00000000000E+00 -0.10000000000E+04  0.10000000000E+04  0.00000000000E+00 0.  1.
    9000005    2    1    2  501    0 -0.32512537486E+02  0.82061990926E+01 -0.79106011959E+03  0.79179296827E+03  0.59653165268E+01 0.  0.
         13    1    3    3    0    0 -0.12795649483E+01  0.17439144314E+01 -0.51853234408E+02  0.51898327937E+02  0.00000000000E+00 0.  1.
          3    1    3    3  501    0 -0.31232972538E+02  0.64622846612E+01 -0.73920688518E+03  0.73989464033E+03  0.00000000000E+00 0.  1.
         -1    1    1    2    0  502  0.32512537486E+02 -0.82061990926E+01 -0.20722572130E+03  0.20992119084E+03  0.00000000000E+00 0. -1.
<mgrwt>
<rscale>  1 0.30000000E+03</rscale>
<asrwt>0</asrwt>
<pdfrwt beam="1">  1       21 0.62333190E-02 0.30000000E+03</pdfrwt>
<pdfrwt beam="2">0</pdfrwt>
<totfact> 0.19728848E+04</totfact>
</mgrwt>
</event>
<event>
 6    1  0.1284012E-001  0.3000000E+03  0.7818608E-02  0.1093470E+00
         21   -1    0    0  501  502  0.00000000000E+00  0.00000000000E+00  0.11058566393E+01  0.11058566393E+01  0.00000000000E+00 0. -1.
         13   -1    0    0    0    0 -0.00000000000E+00 -0.00000000000E+00 -0.10000000000E+04  0.10000000000E+04  0.00000000000E+00 0.  1.
    9000005    2    1    2  501    0 -0.16492069170E+02 -0.27484147146E+02 -0.62921827207E+03  0.63004303648E+03  0.33507044923E+01 0.  0.
         13    1    3    3    0    0 -0.12265166096E+02 -0.21576602417E+02 -0.51018071473E+03  0.51078405002E+03  0.00000000000E+00 0.  1.
          3    1    3    3  501    0 -0.42269030737E+01 -0.59075447293E+01 -0.11903755734E+03  0.11925898646E+03  0.00000000000E+00 0.  1.
         -3    1    1    2    0  502  0.16492069170E+02  0.27484147146E+02 -0.36967587129E+03  0.37106282016E+03  0.00000000000E+00 0. -1.
<mgrwt>
<rscale>  1 0.30000000E+03</rscale>
<asrwt>0</asrwt>
<pdfrwt beam="1">  1       21 0.40213053E-02 0.30000000E+03</pdfrwt>
<pdfrwt beam="2">0</pdfrwt>
<totfact> 0.41672799E+04</totfact>
</mgrwt>
</event>
<event>
 6    1  0.1284012E-001  0.3000000E+03  0.7818608E-02  0.1093470E+00
         21   -1    0    0  501  502  0.00000000000E+00  0.00000000000E+00  0.21097112595E+01  0.21097112595E+01  0.00000000000E+00 0. -1.
         13   -1    0    0    0    0 -0.00000000000E+00 -0.00000000000E+00 -0.10000000000E+04  0.10000000000E+04  0.00000000000E+00 0.  1.
    9000005    2    1    2  501    0 -0.41108206333E+02 -0.14886966027E+02 -0.64726241662E+03  0.64876651960E+03  0.61526090252E+01 0.  0.
         13    1    3    3    0    0 -0.36867073793E+02 -0.15184098341E+02 -0.57766896618E+03  0.57904332520E+03  0.00000000000E+00 0.  1.
          1    1    3    3  501    0 -0.42411325406E+01  0.29713231432E+00 -0.69593450444E+02  0.69723194402E+02  0.00000000000E+00 0.  1.
         -3    1    1    2    0  502  0.41108206333E+02  0.14886966027E+02 -0.35062787212E+03  0.35334319166E+03  0.00000000000E+00 0. -1.
<mgrwt>
<rscale>  1 0.30000000E+03</rscale>
<asrwt>0</asrwt>
<pdfrwt beam="1">  1       21 0.76716935E-02 0.30000000E+03</pdfrwt>
<pdfrwt beam="2">0</pdfrwt>
<totfact> 0.13748395E+04</totfact>
</mgrwt>
</event>
<event>
 6    1  0.1284012E-001  0.3000000E+03  0.7818608E-02  0.1093470E+00
         21   -1    0    0  501  502  0.00000000000E+00  0.00000000000E+00  0.70829862647E+01  0.70829862647E+01  0.00000000000E+00 0. -1.
         13   -1    0    0    0    0 -0.00000000000E+00 -0.00000000000E+00 -0.10000000000E+04  0.10000000000E+04  0.00000000000E+00 0.  1.
    9000005    2    1    2  501    0 -0.29324604436E+02  0.33539844823E+02 -0.92343554900E+03  0.92454494923E+03  0.80806169338E+01 0.  0.
         13    1    3    3    0    0 -0.21940268705E+02  0.29216732857E+02 -0.77864193288E+03  0.77949871873E+03  0.00000000000E+00 0.  1.
          3    1    3    3  501    0 -0.73843357314E+01  0.43231119654E+01 -0.14479361612E+03  0.14504623050E+03  0.00000000000E+00 0.  1.
         -1    1    1    2    0  502  0.29324604436E+02 -0.33539844823E+02 -0.69481464734E+02  0.82538037036E+02  0.00000000000E+00 0. -1.
<mgrwt>
<rscale>  1 0.30000000E+03</rscale>
<asrwt>0</asrwt>
<pdfrwt beam="1">  1       21 0.25756368E-01 0.30000000E+03</pdfrwt>
<pdfrwt beam="2">0</pdfrwt>
<totfact> 0.14710092E+03</totfact>
</mgrwt>
</event>
<event>
 6    1  0.1284012E-001  0.3000000E+03  0.7818608E-02  0.1093470E+00
         21   -1    0    0  501  502  0.00000000000E+00  0.00000000000E+00  0.16019517067E+01  0.16019517067E+01  0.00000000000E+00 0. -1.
         13   -1    0    0    0    0 -0.00000000000E+00 -0.00000000000E+00 -0.10000000000E+04  0.10000000000E+04  0.00000000000E+00 0.  1.
    9000005    2    1    2  501    0 -0.33880430739E+02  0.13404352272E+02 -0.29522240235E+03  0.29748296368E+03  0.35052226420E+01 0.  0.
         13    1    3    3    0    0 -0.33850436541E+02  0.13106604039E+02 -0.29230247803E+03  0.29454774449E+03  0.00000000000E+00 0.  1.
          3    1    3    3  501    0 -0.29994197879E-01  0.29774823269E+00 -0.29199243151E+01  0.29352191857E+01  0.00000000000E+00 0.  1.
         -1    1    1    2    0  502  0.33880430739E+02 -0.13404352272E+02 -0.70317564595E+03  0.70411898803E+03  0.00000000000E+00 0. -1.
<mgrwt>
<rscale>  1 0.30000000E+03</rscale>
<asrwt>0</asrwt>
<pdfrwt beam="1">  1       21 0.58252912E-02 0.30000000E+03</pdfrwt>
<pdfrwt beam="2">0</pdfrwt>
<totfact> 0.22172771E+04</totfact>
</mgrwt>
</event>
<event>
 6    1  0.1284012E-001  0.3000000E+03  0.7818608E-02  0.1093470E+00
         21   -1    0    0  501  502  0.00000000000E+00  0.00000000000E+00  0.17179690648E+01  0.17179690648E+01  0.00000000000E+00 0. -1.
         13   -1    0    0    0    0 -0.00000000000E+00 -0.00000000000E+00 -0.10000000000E+04  0.10000000000E+04  0.00000000000E+00 0.  1.
    9000005    2    1    2  501    0  0.22296310935E+02 -0.34853378937E+02 -0.49096203743E+03  0.49271358862E+03  0.33278680877E+01 0.  0.
         13    1    3    3    0    0  0.12737471814E+02 -0.19455702429E+02 -0.25634786016E+03  0.25740045251E+03  0.00000000000E+00 0.  1.
          3    1    3    3  501    0  0.95588391209E+01 -0.15397676508E+02 -0.23461417727E+03  0.23531313611E+03  0.00000000000E+00 0.  1.
         -3    1    1    2    0  502 -0.22296310935E+02  0.34853378937E+02 -0.50731999350E+03  0.50900438044E+03  0.00000000000E+00 0. -1.
<mgrwt>
<rscale>  1 0.30000000E+03</rscale>
<asrwt>0</asrwt>
<pdfrwt beam="1">  1       21 0.62471734E-02 0.30000000E+03</pdfrwt>
<pdfrwt beam="2">0</pdfrwt>
<totfact> 0.19653321E+04</totfact>
</mgrwt>
</event>
<event>
 6    1  0.1284012E-001  0.3000000E+03  0.7818608E-02  0.1093470E+00
         21   -1    0    0  501  502  0.00000000000E+00  0.00000000000E+00  0.14075945694E+01  0.14075945694E+01  0.00000000000E+00 0. -1.
         13   -1    0    0    0    0 -0.00000000000E+00 -0.00000000000E+00 -0.10000000000E+04  0.10000000000E+04  0.00000000000E+00 0.  1.
    9000005    2    1    2  501    0 -0.21460407943E+02  0.21094971376E+02 -0.79767544310E+03  0.79824959527E+03  0.32797714231E+01 0.  0.
         13    1    3    3    0    0 -0.15849809849E+02  0.14198923681E+02 -0.53186069160E+03  0.53228622110E+03  0.00000000000E+00 0.  1.
          3    1    3    3  501    0 -0.56105980944E+01  0.68960476945E+01 -0.26581475150E+03  0.26596337417E+03  0.00000000000E+00 0.  1.
         -1    1    1    2    0  502  0.21460407943E+02 -0.21094971376E+02 -0.20091696233E+03  0.20315799930E+03  0.00000000000E+00 0. -1.
<mgrwt>
<rscale>  1 0.30000000E+03</rscale>
<asrwt>0</asrwt>
<pdfrwt beam="1">  1       21 0.51185365E-02 0.30000000E+03</pdfrwt>
<pdfrwt beam="2">0</pdfrwt>
<totfact> 0.27676130E+04</totfact>
</mgrwt>
</event>
<event>
 6    1  0.1284012E-001  0.3000000E+03  0.7818608E-02  0.1093470E+00
         21   -1    0    0  501  502  0.00000000000E+00  0.00000000000E+00  0.28605360145E+01  0.28605360145E+01  0.00000000000E+00 0. -1.
         13   -1    0    0    0    0 -0.00000000000E+00 -0.00000000000E+00 -0.10000000000E+04  0.10000000000E+04  0.00000000000E+00 0.  1.
    9000005    2    1    2  501    0  0.30054713684E+02  0.69298978716E+01 -0.90812496946E+03  0.90865390390E+03  0.31060606293E+01 0.  0.
         13    1    3    3    0    0  0.33231218530E+01  0.40832183426E+00 -0.12819879036E+03  0.12824250355E+03  0.00000000000E+00 0.  1.
          3    1    3    3  501    0  0.26731591831E+02  0.65215760374E+01 -0.77992617910E+03  0.78041140035E+03  0.00000000000E+00 0.  1.
         -3    1    1    2    0  502 -0.30054713684E+02 -0.69298978716E+01 -0.89014494526E+02  0.94206632117E+02  0.00000000000E+00 0. -1.
<mgrwt>
<rscale>  1 0.30000000E+03</rscale>
<asrwt>0</asrwt>
<pdfrwt beam="1">  1       21 0.10401971E-01 0.30000000E+03</pdfrwt>
<pdfrwt beam="2">0</pdfrwt>
<totfact> 0.80175049E+03</totfact>
</mgrwt>
</event>
<event>
 6    1  0.1284012E-001  0.3000000E+03  0.7818608E-02  0.1093470E+00
         21   -1    0    0  501  502  0.00000000000E+00  0.00000000000E+00  0.11436427592E+01  0.11436427592E+01  0.00000000000E+00 0. -1.
         13   -1    0    0    0    0 -0.00000000000E+00 -0.00000000000E+00 -0.10000000000E+04  0.10000000000E+04  0.00000000000E+00 0.  1.
    9000005    2    1    2  501    0 -0.24309752680E+02  0.23316308234E+02 -0.48549108386E+03  0.48667448118E+03  0.39804292354E+01 0.  0.
         13    1    3    3    0    0 -0.59910318089E+01  0.82622846566E+01 -0.14845640128E+03  0.14880679047E+03  0.00000000000E+00 0.  1.
          1    1    3    3  501    0 -0.18318720871E+02  0.15054023578E+02 -0.33703468258E+03  0.33786769070E+03  0.00000000000E+00 0.  1.
         -3    1    1    2    0  502  0.24309752680E+02 -0.23316308234E+02 -0.51336527338E+03  0.51446916158E+03  0.00000000000E+00 0. -1.
<mgrwt>
<rscale>  1 0.30000000E+03</rscale>
<asrwt>0</asrwt>
<pdfrwt beam="1">  1       21 0.41587097E-02 0.30000000E+03</pdfrwt>
<pdfrwt beam="2">0</pdfrwt>
<totfact> 0.39377760E+04</totfact>
</mgrwt>
</event>
<event>
 6    1  0.1284012E-001  0.3000000E+03  0.7818608E-02  0.1093470E+00
         21   -1    0    0  501  502  0.00000000000E+00  0.00000000000E+00  0.21584373037E+01  0.21584373037E+01  0.00000000000E+00 0. -1.
         13   -1    0    0    0    0 -0.00000000000E+00 -0.00000000000E+00 -0.10000000000E+04  0.10000000000E+04  0.00000000000E+00 0.  1.
    9000005    2    1    2  501    0 -0.37656718578E+02 -0.13126217947E+01 -0.79172611623E+03  0.79262722555E+03  0.28149815146E+01 0.  0.
         13    1    3    3    0    0 -0.32255727054E+02 -0.15045591945E+01 -0.65773784269E+03  0.65853000337E+03  0.00000000000E+00 0.  1.
          1    1    3    3  501    0 -0.54009915231E+01  0.19193739979E+00 -0.13398827354E+03  0.13409722218E+03  0.00000000000E+00 0.  1.
         -1    1    1    2    0  502  0.37656718578E+02  0.13126217947E+01 -0.20611544646E+03  0.20953121176E+03  0.00000000000E+00 0. -1.
<mgrwt>
<rscale>  1 0.30000000E+03</rscale>
<asrwt>0</asrwt>
<pdfrwt beam="1">  1       21 0.78488795E-02 0.30000000E+03</pdfrwt>
<pdfrwt beam="2">0</pdfrwt>
<totfact> 0.13208769E+04</totfact>
</mgrwt>
</event>
<event>
 6    1  0.1284012E-001  0.3000000E+03  0.7818608E-02  0.1093470E+00
         21   -1    0    0  501  502  0.00000000000E+00  0.00000000000E+00  0.20596345643E+01  0.20596345643E+01  0.00000000000E+00 0. -1.
         13   -1    0    0    0    0 -0.00000000000E+00 -0.00000000000E+00 -0.10000000000E+04  0.10000000000E+04  0.00000000000E+00 0.  1.
    9000005    2    1    2  501    0  0.23152201414E+02 -0.31339453624E+02 -0.75513723122E+03  0.75615000123E+03  0.35214479025E+01 0.  0.
         13    1    3    3    0    0  0.12488325937E+02 -0.19282712731E+02 -0.42445677715E+03  0.42507803632E+03  0.00000000000E+00 0.  1.
          3    1    3    3  501    0  0.10663875478E+02 -0.12056740892E+02 -0.33068045407E+03  0.33107196491E+03  0.00000000000E+00 0.  1.
         -3    1    1    2    0  502 -0.23152201414E+02  0.31339453624E+02 -0.24280313421E+03  0.24590963333E+03  0.00000000000E+00 0. -1.
<mgrwt>
<rscale>  1 0.30000000E+03</rscale>
<asrwt>0</asrwt>
<pdfrwt beam="1">  1       21 0.74895960E-02 0.30000000E+03</pdfrwt>
<pdfrwt beam="2">0</pdfrwt>
<totfact> 0.14339271E+04</totfact>
</mgrwt>
</event>
<event>
 6    1  0.1284012E-001  0.3000000E+03  0.7818608E-02  0.1093470E+00
         21   -1    0    0  501  502  0.00000000000E+00  0.00000000000E+00  0.14008409538E+01  0.14008409538E+01  0.00000000000E+00 0. -1.
         13   -1    0    0    0    0 -0.00000000000E+00 -0.00000000000E+00 -0.10000000000E+04  0.10000000000E+04  0.00000000000E+00 0.  1.
    9000005    2    1    2  501    0 -0.18465427161E+02 -0.24415762970E+02 -0.78673803232E+03  0.78733954483E+03  0.31186324924E+01 0.  0.
         13    1    3    3    0    0 -0.44116235834E+01 -0.68092072498E+01 -0.17801248601E+03  0.17819728646E+03  0.00000000000E+00 0.  1.
          1    1    3    3  501    0 -0.14053803578E+02 -0.17606555720E+02 -0.60872554631E+03  0.60914225837E+03  0.00000000000E+00 0.  1.
         -1    1    1    2    0  502  0.18465427161E+02  0.24415762970E+02 -0.21186112673E+03  0.21406129613E+03  0.00000000000E+00 0. -1.
<mgrwt>
<rscale>  1 0.30000000E+03</rscale>
<asrwt>0</asrwt>
<pdfrwt beam="1">  1       21 0.50939778E-02 0.30000000E+03</pdfrwt>
<pdfrwt beam="2">0</pdfrwt>
<totfact> 0.27904226E+04</totfact>
</mgrwt>
</event>
<event>
 6    1  0.1284012E-001  0.3000000E+03  0.7818608E-02  0.1093470E+00
         21   -1    0    0  501  502  0.00000000000E+00  0.00000000000E+00  0.19151144793E+02  0.19151144793E+02  0.00000000000E+00 0. -1.
         13   -1    0    0    0    0 -0.00000000000E+00 -0.00000000000E+00 -0.10000000000E+04  0.10000000000E+04  0.00000000000E+00 0.  1.
    9000005    2    1    2  501    0 -0.49902683898E+02 -0.95199132557E+02 -0.81134515091E+03  0.81844076024E+03  0.33423653207E+01 0.  0.
         13    1    3    3    0    0 -0.38084128079E+02 -0.72049256443E+02 -0.60427139056E+03  0.60974208450E+03  0.00000000000E+00 0.  1.
          1    1    3    3  501    0 -0.11818555819E+02 -0.23149876114E+02 -0.20707376036E+03  0.20869867574E+03  0.00000000000E+00 0.  1.
         -3    1    1    2    0  502  0.49902683898E+02  0.95199132557E+02 -0.16950370429E+03  0.20071038456E+03  0.00000000000E+00 0. -1.
<mgrwt>
<rscale>  1 0.30000000E+03</rscale>
<asrwt>0</asrwt>
<pdfrwt beam="1">  1       21 0.69640673E-01 0.30000000E+03</pdfrwt>
<pdfrwt beam="2">0</pdfrwt>
<totfact> 0.17854743E+02</totfact>
</mgrwt>
</event>
<event>
 6    1  0.1284012E-001  0.3000000E+03  0.7818608E-02  0.1093470E+00
         21   -1    0    0  501  502  0.00000000000E+00  0.00000000000E+00  0.12076125259E+01  0.12076125259E+01  0.00000000000E+00 0. -1.
         13   -1    0    0    0    0 -0.00000000000E+00 -0.00000000000E+00 -0.10000000000E+04  0.10000000000E+04  0.00000000000E+00 0.  1.
    9000005    2    1    2  501    0  0.15777115332E+02  0.28769929225E+02 -0.66240798889E+03  0.66322671098E+03  0.29496139757E+01 0.  0.
         13    1    3    3    0    0  0.50289757973E+01  0.12149955987E+02 -0.26810478960E+03  0.26842706688E+03  0.00000000000E+00 0.  1.
          1    1    3    3  501    0  0.10748139535E+02  0.16619973238E+02 -0.39430319928E+03  0.39479964410E+03  0.00000000000E+00 0.  1.
         -3    1    1    2    0  502 -0.15777115332E+02 -0.28769929225E+02 -0.33638439859E+03  0.33798090155E+03  0.00000000000E+00 0. -1.
<mgrwt>
<rscale>  1 0.30000000E+03</rscale>
<asrwt>0</asrwt>
<pdfrwt beam="1">  1       21 0.43913275E-02 0.30000000E+03</pdfrwt>
<pdfrwt beam="2">0</pdfrwt>
<totfact> 0.35916232E+04</totfact>
</mgrwt>
</event>
<event>
 6    1  0.1284012E-001  0.3000000E+03  0.7818608E-02  0.1093470E+00
         21   -1    0    0  501  502  0.00000000000E+00  0.00000000000E+00  0.49109915623E+01  0.49109915623E+01  0.00000000000E+00 0. -1.
         13   -1    0    0    0    0 -0.00000000000E+00 -0.00000000000E+00 -0.10000000000E+04  0.10000000000E+04  0.00000000000E+00 0.  1.
    9000005    2    1    2  501    0  0.27332984287E+02  0.61494888098E+02 -0.63708914134E+03  0.64064101183E+03  0.31014082033E+01 0.  0.
         13    1    3    3    0    0  0.13923737933E+02  0.33689651274E+02 -0.35644738264E+03  0.35830657219E+03  0.00000000000E+00 0.  1.
          3    1    3    3  501    0  0.13409246354E+02  0.27805236824E+02 -0.28064175870E+03  0.28233443965E+03  0.00000000000E+00 0.  1.
         -3    1    1    2    0  502 -0.27332984287E+02 -0.61494888098E+02 -0.35799986709E+03  0.36426997973E+03  0.00000000000E+00 0. -1.
<mgrwt>
<rscale>  1 0.30000000E+03</rscale>
<asrwt>0</asrwt>
<pdfrwt beam="1">  1       21 0.17858189E-01 0.30000000E+03</pdfrwt>
<pdfrwt beam="2">0</pdfrwt>
<totfact> 0.29735020E+03</totfact>
</mgrwt>
</event>
<event>
 6    1  0.1284012E-001  0.3000000E+03  0.7818608E-02  0.1093470E+00
         21   -1    0    0  501  502  0.00000000000E+00  0.00000000000E+00  0.24924787555E+01  0.24924787555E+01  0.00000000000E+00 0. -1.
         13   -1    0    0    0    0 -0.00000000000E+00 -0.00000000000E+00 -0.10000000000E+04  0.10000000000E+04  0.00000000000E+00 0.  1.
    9000005    2    1    2  501    0  0.27487101129E+02  0.29843654360E+02 -0.79024759742E+03  0.79129858571E+03  0.40002614707E+01 0.  0.
         13    1    3    3    0    0  0.13922338527E+01  0.29992197635E+01 -0.72253466661E+02  0.72329088746E+02  0.00000000000E+00 0.  1.
          1    1    3    3  501    0  0.26094867276E+02  0.26844434597E+02 -0.71799413076E+03  0.71896949697E+03  0.00000000000E+00 0.  1.
         -3    1    1    2    0  502 -0.27487101129E+02 -0.29843654360E+02 -0.20725992383E+03  0.21119389304E+03  0.00000000000E+00 0. -1.
<mgrwt>
<rscale>  1 0.30000000E+03</rscale>
<asrwt>0</asrwt>
<pdfrwt beam="1">  1       21 0.90635782E-02 0.30000000E+03</pdfrwt>
<pdfrwt beam="2">0</pdfrwt>
<totfact> 0.10249422E+04</totfact>
</mgrwt>
</event>
<event>
 6    1  0.1284012E-001  0.3000000E+03  0.7818608E-02  0.1093470E+00
         21   -1    0    0  501  502  0.00000000000E+00  0.00000000000E+00  0.11535824285E+01  0.11535824285E+01  0.00000000000E+00 0. -1.
         13   -1    0    0    0    0 -0.00000000000E+00 -0.00000000000E+00 -0.10000000000E+04  0.10000000000E+04  0.00000000000E+00 0.  1.
    9000005    2    1    2  501    0  0.21907709757E+02  0.20873669423E+02 -0.72536787252E+03  0.72600603578E+03  0.32489515277E+01 0.  0.
         13    1    3    3    0    0  0.37071393052E+01  0.45538168216E+01 -0.11710188351E+03  0.11724901386E+03  0.00000000000E+00 0.  1.
          3    1    3    3  501    0  0.18200570452E+02  0.16319852602E+02 -0.60826598900E+03  0.60875702191E+03  0.00000000000E+00 0.  1.
         -3    1    1    2    0  502 -0.21907709757E+02 -0.20873669423E+02 -0.27347854506E+03  0.27514754665E+03  0.00000000000E+00 0. -1.
<mgrwt>
<rscale>  1 0.30000000E+03</rscale>
<asrwt>0</asrwt>
<pdfrwt beam="1">  1       21 0.41948540E-02 0.30000000E+03</pdfrwt>
<pdfrwt beam="2">0</pdfrwt>
<totfact> 0.38806711E+04</totfact>
</mgrwt>
</event>
<event>
 6    1  0.1284012E-001  0.3000000E+03  0.7818608E-02  0.1093470E+00
         21   -1    0    0  501  502  0.00000000000E+00  0.00000000000E+00  0.11400318349E+02  0.11400318349E+02  0.00000000000E+00 0. -1.
         13   -1    0    0    0    0 -0.00000000000E+00 -0.00000000000E+00 -0.10000000000E+04  0.10000000000E+04  0.00000000000E+00 0.  1.
    9000005    2    1    2  501    0  0.85166295316E+02 -0.13690713053E+02 -0.79224570351E+03  0.79693442779E+03  0.32394418410E+01 0.  0.
         13    1    3    3    0    0  0.14954659567E+02 -0.11767137427E+01 -0.13946387886E+03  0.14026831433E+03  0.00000000000E+00 0.  1.
          1    1    3    3  501    0  0.70211635750E+02 -0.12513999310E+02 -0.65278182465E+03  0.65666611346E+03  0.00000000000E+00 0.  1.
         -1    1    1    2    0  502 -0.85166295316E+02  0.13690713053E+02 -0.19635397814E+03  0.21446589056E+03  0.00000000000E+00 0. -1.
<mgrwt>
<rscale>  1 0.30000000E+03</rscale>
<asrwt>0</asrwt>
<pdfrwt beam="1">  1       21 0.41455791E-01 0.30000000E+03</pdfrwt>
<pdfrwt beam="2">0</pdfrwt>
<totfact> 0.56042787E+02</totfact>
</mgrwt>
</event>
<event>
 6    1  0.1284012E-001  0.3000000E+03  0.7818608E-02  0.1093470E+00
         21   -1    0    0  501  502  0.00000000000E+00  0.00000000000E+00  0.18739678817E+01  0.18739678817E+01  0.00000000000E+00 0. -1.
         13   -1    0    0    0    0 -0.00000000000E+00 -0.00000000000E+00 -0.10000000000E+04  0.10000000000E+04  0.00000000000E+00 0.  1.
    9000005    2    1    2  501    0  0.15555760475E+00 -0.32027339820E+02 -0.83572798028E+03  0.83634783117E+03  0.32654225580E+01 0.  0.
         13    1    3    3    0    0  0.16470236015E+01 -0.16100485264E+02 -0.40855471277E+03  0.40887515410E+03  0.00000000000E+00 0.  1.
          1    1    3    3  501    0 -0.14914659967E+01 -0.15926854556E+02 -0.42717326751E+03  0.42747267707E+03  0.00000000000E+00 0.  1.
         -1    1    1    2    0  502 -0.15555760475E+00  0.32027339820E+02 -0.16239805184E+03  0.16552613671E+03  0.00000000000E+00 0. -1.
<mgrwt>
<rscale>  1 0.30000000E+03</rscale>
<asrwt>0</asrwt>
<pdfrwt beam="1">  1       21 0.68144430E-02 0.30000000E+03</pdfrwt>
<pdfrwt beam="2">0</pdfrwt>
<totfact> 0.16906786E+04</totfact>
</mgrwt>
</event>
<event>
 6    1  0.1284012E-001  0.3000000E+03  0.7818608E-02  0.1093470E+00
         21   -1    0    0  501  502  0.00000000000E+00  0.00000000000E+00  0.48273812249E+01  0.48273812249E+01  0.00000000000E+00 0. -1.
         13   -1    0    0    0    0 -0.00000000000E+00 -0.00000000000E+00 -0.10000000000E+04  0.10000000000E+04  0.00000000000E+00 0.  1.
    9000005    2    1    2  501    0 -0.25969882628E+02  0.37741052769E+02 -0.87511086063E+03  0.87632194306E+03  0.47230960913E+01 0.  0.
         13    1    3    3    0    0 -0.71583358695E+01  0.12469427162E+02 -0.24021197607E+03  0.24064189543E+03  0.00000000000E+00 0.  1.
          3    1    3    3  501    0 -0.18811546759E+02  0.25271625606E+02 -0.63489888455E+03  0.63568004763E+03  0.00000000000E+00 0.  1.
         -3    1    1    2    0  502  0.25969882628E+02 -0.37741052769E+02 -0.12006175815E+03  0.12850543816E+03  0.00000000000E+00 0. -1.
<mgrwt>
<rscale>  1 0.30000000E+03</rscale>
<asrwt>0</asrwt>
<pdfrwt beam="1">  1       21 0.17554151E-01 0.30000000E+03</pdfrwt>
<pdfrwt beam="2">0</pdfrwt>
<totfact> 0.30710712E+03</totfact>
</mgrwt>
</event>
<event>
 6    1  0.1284012E-001  0.3000000E+03  0.7818608E-02  0.1093470E+00
         21   -1    0    0  501  502  0.00000000000E+00  0.00000000000E+00  0.25977656955E+01  0.25977656955E+01  0.00000000000E+00 0. -1.
         13   -1    0    0    0    0 -0.00000000000E+00 -0.00000000000E+00 -0.10000000000E+04  0.10000000000E+04  0.00000000000E+00 0.  1.
    9000005    2    1    2  501    0 -0.38360484695E+02 -0.19133148495E+02 -0.76921811754E+03  0.77042198035E+03  0.39888966784E+01 0.  0.
         13    1    3    3    0    0 -0.25131219233E+02 -0.14513794814E+02 -0.52928147676E+03  0.53007651340E+03  0.00000000000E+00 0.  1.
          3    1    3    3  501    0 -0.13229265463E+02 -0.46193536813E+01 -0.23993664078E+03  0.24034546695E+03  0.00000000000E+00 0.  1.
         -1    1    1    2    0  502  0.38360484695E+02  0.19133148495E+02 -0.22818411676E+03  0.23217578535E+03  0.00000000000E+00 0. -1.
<mgrwt>
<rscale>  1 0.30000000E+03</rscale>
<asrwt>0</asrwt>
<pdfrwt beam="1">  1       21 0.94464406E-02 0.30000000E+03</pdfrwt>
<pdfrwt beam="2">0</pdfrwt>
<totfact> 0.95231243E+03</totfact>
</mgrwt>
</event>
<event>
 6    1  0.1284012E-001  0.3000000E+03  0.7818608E-02  0.1093470E+00
         21   -1    0    0  501  502  0.00000000000E+00  0.00000000000E+00  0.45764737267E+01  0.45764737267E+01  0.00000000000E+00 0. -1.
         13   -1    0    0    0    0 -0.00000000000E+00 -0.00000000000E+00 -0.10000000000E+04  0.10000000000E+04  0.00000000000E+00 0.  1.
    9000005    2    1    2  501    0  0.66017225710E+02  0.25166870447E+01 -0.60437845685E+03  0.60798997103E+03  0.37253133489E+01 0.  0.
         13    1    3    3    0    0  0.19028534279E+02  0.24151451862E+01 -0.17463601375E+03  0.17568624118E+03  0.00000000000E+00 0.  1.
          1    1    3    3  501    0  0.46988691431E+02  0.10154185847E+00 -0.42974244311E+03  0.43230372985E+03  0.00000000000E+00 0.  1.
         -1    1    1    2    0  502 -0.66017225710E+02 -0.25166870447E+01 -0.39104506942E+03  0.39658650270E+03  0.00000000000E+00 0. -1.
<mgrwt>
<rscale>  1 0.30000000E+03</rscale>
<asrwt>0</asrwt>
<pdfrwt beam="1">  1       21 0.16641758E-01 0.30000000E+03</pdfrwt>
<pdfrwt beam="2">0</pdfrwt>
<totfact> 0.33941306E+03</totfact>
</mgrwt>
</event>
<event>
 6    1  0.1284012E-001  0.3000000E+03  0.7818608E-02  0.1093470E+00
         21   -1    0    0  501  502  0.00000000000E+00  0.00000000000E+00  0.37315459950E+01  0.37315459950E+01  0.00000000000E+00 0. -1.
         13   -1    0    0    0    0 -0.00000000000E+00 -0.00000000000E+00 -0.10000000000E+04  0.10000000000E+04  0.00000000000E+00 0.  1.
    9000005    2    1    2  501    0 -0.39677197660E+02 -0.45815526224E+02 -0.43916330928E+03  0.44333928629E+03  0.34594932726E+01 0.  0.
         13    1    3    3    0    0 -0.22030260983E+01 -0.36290065452E+01 -0.34751015321E+02  0.35009371293E+02  0.00000000000E+00 0.  1.
          1    1    3    3  501    0 -0.37474171562E+02 -0.42186519679E+02 -0.40441229395E+03  0.40832991499E+03  0.00000000000E+00 0.  1.
         -3    1    1    2    0  502  0.39677197660E+02  0.45815526224E+02 -0.55710514473E+03  0.56039225971E+03  0.00000000000E+00 0. -1.
<mgrwt>
<rscale>  1 0.30000000E+03</rscale>
<asrwt>0</asrwt>
<pdfrwt beam="1">  1       21 0.13569287E-01 0.30000000E+03</pdfrwt>
<pdfrwt beam="2">0</pdfrwt>
<totfact> 0.49526388E+03</totfact>
</mgrwt>
</event>
<event>
 6    1  0.1284012E-001  0.3000000E+03  0.7818608E-02  0.1093470E+00
         21   -1    0    0  501  502  0.00000000000E+00  0.00000000000E+00  0.13306432018E+01  0.13306432018E+01  0.00000000000E+00 0. -1.
         13   -1    0    0    0    0 -0.00000000000E+00 -0.00000000000E+00 -0.10000000000E+04  0.10000000000E+04  0.00000000000E+00 0.  1.
    9000005    2    1    2  501    0 -0.22643707989E+02 -0.21638443959E+02 -0.75514526815E+03  0.75580072340E+03  0.30655678855E+01 0.  0.
         13    1    3    3    0    0 -0.13813884226E-01 -0.98619973461E-01 -0.54770310232E+00  0.55668250454E+00  0.00000000000E+00 0.  1.
          3    1    3    3  501    0 -0.22629894104E+02 -0.21539823986E+02 -0.75459756505E+03  0.75524404089E+03  0.00000000000E+00 0.  1.
         -1    1    1    2    0  502  0.22643707989E+02  0.21638443959E+02 -0.24352408865E+03  0.24552991981E+03  0.00000000000E+00 0. -1.
<mgrwt>
<rscale>  1 0.30000000E+03</rscale>
<asrwt>0</asrwt>
<pdfrwt beam="1">  1       21 0.48387128E-02 0.30000000E+03</pdfrwt>
<pdfrwt beam="2">0</pdfrwt>
<totfact> 0.30459276E+04</totfact>
</mgrwt>
</event>
<event>
 6    1  0.1284012E-001  0.3000000E+03  0.7818608E-02  0.1093470E+00
         21   -1    0    0  501  502  0.00000000000E+00  0.00000000000E+00  0.17587887670E+01  0.17587887670E+01  0.00000000000E+00 0. -1.
         13   -1    0    0    0    0 -0.00000000000E+00 -0.00000000000E+00 -0.10000000000E+04  0.10000000000E+04  0.00000000000E+00 0.  1.
    9000005    2    1    2  501    0  0.30308113960E+02 -0.17502528377E+02 -0.77464834035E+03  0.77544331828E+03  0.27144776407E+01 0.  0.
         13    1    3    3    0    0  0.28146947258E+02 -0.15492376861E+02 -0.71694340472E+03  0.71766295010E+03  0.00000000000E+00 0.  1.
          3    1    3    3  501    0  0.21611667027E+01 -0.20101515163E+01 -0.57704935632E+02  0.57780368179E+02  0.00000000000E+00 0.  1.
         -3    1    1    2    0  502 -0.30308113960E+02  0.17502528377E+02 -0.22359287088E+03  0.22631547048E+03  0.00000000000E+00 0. -1.
<mgrwt>
<rscale>  1 0.30000000E+03</rscale>
<asrwt>0</asrwt>
<pdfrwt beam="1">  1       21 0.63956090E-02 0.30000000E+03</pdfrwt>
<pdfrwt beam="2">0</pdfrwt>
<totfact> 0.18871468E+04</totfact>
</mgrwt>
</event>
<event>
 6    1  0.1284012E-001  0.3000000E+03  0.7818608E-02  0.1093470E+00
         21   -1    0    0  501  502  0.00000000000E+00  0.00000000000E+00  0.41441998210E+01  0.41441998210E+01  0.00000000000E+00 0. -1.
         13   -1    0    0    0    0 -0.00000000000E+00 -0.00000000000E+00 -0.10000000000E+04  0.10000000000E+04  0.00000000000E+00 0.  1.
    9000005    2    1    2  501    0 -0.14443589755E+02 -0.31346926164E+02 -0.92166230760E+03  0.92231558987E+03  0.36593724950E+01 0.  0.
         13    1    3    3    0    0 -0.47164315744E+01 -0.75271939619E+01 -0.20782902804E+03  0.20801876904E+03  0.00000000000E+00 0.  1.
          3    1    3    3  501    0 -0.97271581804E+01 -0.23819732202E+02 -0.71383327956E+03  0.71429682084E+03  0.00000000000E+00 0.  1.
         -3    1    1    2    0  502  0.14443589755E+02  0.31346926164E+02 -0.74193492578E+02  0.81828609947E+02  0.00000000000E+00 0. -1.
<mgrwt>
<rscale>  1 0.30000000E+03</rscale>
<asrwt>0</asrwt>
<pdfrwt beam="1">  1       21 0.15069849E-01 0.30000000E+03</pdfrwt>
<pdfrwt beam="2">0</pdfrwt>
<totfact> 0.40827675E+03</totfact>
</mgrwt>
</event>
<event>
 6    1  0.1284012E-001  0.3000000E+03  0.7818608E-02  0.1093470E+00
         21   -1    0    0  501  502  0.00000000000E+00  0.00000000000E+00  0.13867696952E+01  0.13867696952E+01  0.00000000000E+00 0. -1.
         13   -1    0    0    0    0 -0.00000000000E+00 -0.00000000000E+00 -0.10000000000E+04  0.10000000000E+04  0.00000000000E+00 0.  1.
    9000005    2    1    2  501    0  0.26227177300E+02  0.20205779426E+02 -0.72730831113E+03  0.72806919339E+03  0.33515021980E+01 0.  0.
         13    1    3    3    0    0  0.11984405373E+02  0.96604970283E+01 -0.30251702999E+03  0.30290840961E+03  0.00000000000E+00 0.  1.
          3    1    3    3  501    0  0.14242771927E+02  0.10545282398E+02 -0.42479128114E+03  0.42516078378E+03  0.00000000000E+00 0.  1.
         -1    1    1    2    0  502 -0.26227177300E+02 -0.20205779426E+02 -0.27130491918E+03  0.27331757631E+03  0.00000000000E+00 0. -1.
<mgrwt>
<rscale>  1 0.30000000E+03</rscale>
<asrwt>0</asrwt>
<pdfrwt beam="1">  1       21 0.50428095E-02 0.30000000E+03</pdfrwt>
<pdfrwt beam="2">0</pdfrwt>
<totfact> 0.28388961E+04</totfact>
</mgrwt>
</event>
<event>
 6    1  0.1284012E-001  0.3000000E+03  0.7818608E-02  0.1093470E+00
         21   -1    0    0  501  502  0.00000000000E+00  0.00000000000E+00  0.30027523245E+01  0.30027523245E+01  0.00000000000E+00 0. -1.
         13   -1    0    0    0    0 -0.00000000000E+00 -0.00000000000E+00 -0.10000000000E+04  0.10000000000E+04  0.00000000000E+00 0.  1.
    9000005    2    1    2  501    0  0.12774367610E+02 -0.40889063670E+02 -0.81095542004E+03  0.81209266452E+03  0.32714643180E+01 0.  0.
         13    1    3    3    0    0  0.27309617344E+01 -0.13100801558E+02 -0.26773587883E+03  0.26807012136E+03  0.00000000000E+00 0.  1.
          1    1    3    3  501    0  0.10043405876E+02 -0.27788262113E+02 -0.54321954121E+03  0.54402254316E+03  0.00000000000E+00 0.  1.
         -3    1    1    2    0  502 -0.12774367610E+02  0.40889063670E+02 -0.18604182764E+03  0.19091008781E+03  0.00000000000E+00 0. -1.
<mgrwt>
<rscale>  1 0.30000000E+03</rscale>
<asrwt>0</asrwt>
<pdfrwt beam="1">  1       21 0.10919122E-01 0.30000000E+03</pdfrwt>
<pdfrwt beam="2">0</pdfrwt>
<totfact> 0.73489194E+03</totfact>
</mgrwt>
</event>
<event>
 6    1  0.1284012E-001  0.3000000E+03  0.7818608E-02  0.1093470E+00
         21   -1    0    0  501  502  0.00000000000E+00  0.00000000000E+00  0.26686520432E+01  0.26686520432E+01  0.00000000000E+00 0. -1.
         13   -1    0    0    0    0 -0.00000000000E+00 -0.00000000000E+00 -0.10000000000E+04  0.10000000000E+04  0.00000000000E+00 0.  1.
    9000005    2    1    2  501    0  0.29499700930E+02  0.17553686254E+02 -0.87319786758E+03  0.87387624075E+03  0.26084375065E+01 0.  0.
         13    1    3    3    0    0  0.18391239951E+02  0.96587050716E+01 -0.54336361306E+03  0.54376055786E+03  0.00000000000E+00 0.  1.
          3    1    3    3  501    0  0.11108460979E+02  0.78949811829E+01 -0.32983425452E+03  0.33011568289E+03  0.00000000000E+00 0.  1.
         -3    1    1    2    0  502 -0.29499700930E+02 -0.17553686254E+02 -0.12413348038E+03  0.12879241129E+03  0.00000000000E+00 0. -1.
<mgrwt>
<rscale>  1 0.30000000E+03</rscale>
<asrwt>0</asrwt>
<pdfrwt beam="1">  1       21 0.97042097E-02 0.30000000E+03</pdfrwt>
<pdfrwt beam="2">0</pdfrwt>
<totfact> 0.90769499E+03</totfact>
</mgrwt>
</event>
<event>
 6    1  0.1284012E-001  0.3000000E+03  0.7818608E-02  0.1093470E+00
         21   -1    0    0  501  502  0.00000000000E+00  0.00000000000E+00  0.24288777881E+01  0.24288777881E+01  0.00000000000E+00 0. -1.
         13   -1    0    0    0    0 -0.00000000000E+00 -0.00000000000E+00 -0.10000000000E+04  0.10000000000E+04  0.00000000000E+00 0.  1.
    9000005    2    1    2  501    0 -0.41665360983E+01  0.31572760485E+02 -0.88113630506E+03  0.88171737928E+03  0.31858430562E+01 0.  0.
         13    1    3    3    0    0  0.19432067919E-01  0.63883067347E+01 -0.15173703233E+03  0.15187145163E+03  0.00000000000E+00 0.  1.
          1    1    3    3  501    0 -0.41859681662E+01  0.25184453750E+02 -0.72939927274E+03  0.72984592765E+03  0.00000000000E+00 0.  1.
         -1    1    1    2    0  502  0.41665360983E+01 -0.31572760485E+02 -0.11643481715E+03  0.12071149851E+03  0.00000000000E+00 0. -1.
<mgrwt>
<rscale>  1 0.30000000E+03</rscale>
<asrwt>0</asrwt>
<pdfrwt beam="1">  1       21 0.88323015E-02 0.30000000E+03</pdfrwt>
<pdfrwt beam="2">0</pdfrwt>
<totfact> 0.10729446E+04</totfact>
</mgrwt>
</event>
<event>
 6    1  0.1284012E-001  0.3000000E+03  0.7818608E-02  0.1093470E+00
         21   -1    0    0  501  502  0.00000000000E+00  0.00000000000E+00  0.25458668561E+01  0.25458668561E+01  0.00000000000E+00 0. -1.
         13   -1    0    0    0    0 -0.00000000000E+00 -0.00000000000E+00 -0.10000000000E+04  0.10000000000E+04  0.00000000000E+00 0.  1.
    9000005    2    1    2  501    0 -0.33770806713E+02 -0.37435200653E+02 -0.49936651231E+03  0.50191312755E+03  0.28306111615E+01 0.  0.
         13    1    3    3    0    0 -0.28518522475E+01 -0.24936419283E+01 -0.43872750184E+02  0.44036002543E+02  0.00000000000E+00 0.  1.
          3    1    3    3  501    0 -0.30918954466E+02 -0.34941558724E+02 -0.45549376212E+03  0.45787712501E+03  0.00000000000E+00 0.  1.
         -3    1    1    2    0  502  0.33770806713E+02  0.37435200653E+02 -0.49808762084E+03  0.50063273931E+03  0.00000000000E+00 0. -1.
<mgrwt>
<rscale>  1 0.30000000E+03</rscale>
<asrwt>0</asrwt>
<pdfrwt beam="1">  1       21 0.92577172E-02 0.30000000E+03</pdfrwt>
<pdfrwt beam="2">0</pdfrwt>
<totfact> 0.98710958E+03</totfact>
</mgrwt>
</event>
<event>
 6    1  0.1284012E-001  0.3000000E+03  0.7818608E-02  0.1093470E+00
         21   -1    0    0  501  502  0.00000000000E+00  0.00000000000E+00  0.11682148608E+01  0.11682148608E+01  0.00000000000E+00 0. -1.
         13   -1    0    0    0    0 -0.00000000000E+00 -0.00000000000E+00 -0.10000000000E+04  0.10000000000E+04  0.00000000000E+00 0.  1.
    9000005    2    1    2  501    0  0.95638579369E+00 -0.32194340157E+02 -0.66411568046E+03  0.66490602408E+03  0.36046668924E+01 0.  0.
         13    1    3    3    0    0  0.15872483004E+01 -0.25405164523E+02 -0.49725730970E+03  0.49790839900E+03  0.00000000000E+00 0.  1.
          3    1    3    3  501    0 -0.63086250669E+00 -0.67891756334E+01 -0.16685837075E+03  0.16699762508E+03  0.00000000000E+00 0.  1.
         -1    1    1    2    0  502 -0.95638579369E+00  0.32194340157E+02 -0.33471610468E+03  0.33626219078E+03  0.00000000000E+00 0. -1.
<mgrwt>
<rscale>  1 0.30000000E+03</rscale>
<asrwt>0</asrwt>
<pdfrwt beam="1">  1       21 0.42480630E-02 0.30000000E+03</pdfrwt>
<pdfrwt beam="2">0</pdfrwt>
<totfact> 0.37989199E+04</totfact>
</mgrwt>
</event>
<event>
 6    1  0.1284012E-001  0.3000000E+03  0.7818608E-02  0.1093470E+00
         21   -1    0    0  501  502  0.00000000000E+00  0.00000000000E+00  0.33358041355E+01  0.33358041355E+01  0.00000000000E+00 0. -1.
         13   -1    0    0    0    0 -0.00000000000E+00 -0.00000000000E+00 -0.10000000000E+04  0.10000000000E+04  0.00000000000E+00 0.  1.
    9000005    2    1    2  501    0  0.23537701725E+02 -0.35805326599E+02 -0.83446380165E+03  0.83557105009E+03  0.36192092089E+01 0.  0.
         13    1    3    3    0    0  0.22833506239E+01 -0.57764790969E+01 -0.11897354245E+03  0.11913557489E+03  0.00000000000E+00 0.  1.
          3    1    3    3  501    0  0.21254351101E+02 -0.30028847502E+02 -0.71549025920E+03  0.71643547521E+03  0.00000000000E+00 0.  1.
         -3    1    1    2    0  502 -0.23537701725E+02  0.35805326599E+02 -0.16220039422E+03  0.16776475404E+03  0.00000000000E+00 0. -1.
<mgrwt>
<rscale>  1 0.30000000E+03</rscale>
<asrwt>0</asrwt>
<pdfrwt beam="1">  1       21 0.12130222E-01 0.30000000E+03</pdfrwt>
<pdfrwt beam="2">0</pdfrwt>
<totfact> 0.60768288E+03</totfact>
</mgrwt>
</event>
<event>
 6    1  0.1284012E-001  0.3000000E+03  0.7818608E-02  0.1093470E+00
         21   -1    0    0  501  502  0.00000000000E+00  0.00000000000E+00  0.32265345588E+01  0.32265345588E+01  0.00000000000E+00 0. -1.
         13   -1    0    0    0    0 -0.00000000000E+00 -0.00000000000E+00 -0.10000000000E+04  0.10000000000E+04  0.00000000000E+00 0.  1.
    9000005    2    1    2  501    0  0.18190018556E+02  0.30695436404E+02 -0.88825921785E+03  0.88899681635E+03  0.61493738807E+01 0.  0.
         13    1    3    3    0    0  0.81055652939E+01  0.11692980109E+02 -0.28627362848E+03  0.28662696372E+03  0.00000000000E+00 0.  1.
          3    1    3    3  501    0  0.10084453263E+02  0.19002456295E+02 -0.60198558937E+03  0.60236985263E+03  0.00000000000E+00 0.  1.
         -3    1    1    2    0  502 -0.18190018556E+02 -0.30695436404E+02 -0.10851424759E+03  0.11422971821E+03  0.00000000000E+00 0. -1.
<mgrwt>
<rscale>  1 0.30000000E+03</rscale>
<asrwt>0</asrwt>
<pdfrwt beam="1">  1       21 0.11732878E-01 0.30000000E+03</pdfrwt>
<pdfrwt beam="2">0</pdfrwt>
<totfact> 0.64552222E+03</totfact>
</mgrwt>
</event>
<event>
 6    1  0.1284012E-001  0.3000000E+03  0.7818608E-02  0.1093470E+00
         21   -1    0    0  501  502  0.00000000000E+00  0.00000000000E+00  0.29781006512E+01  0.29781006512E+01  0.00000000000E+00 0. -1.
         13   -1    0    0    0    0 -0.00000000000E+00 -0.00000000000E+00 -0.10000000000E+04  0.10000000000E+04  0.00000000000E+00 0.  1.
    9000005    2    1    2  501    0 -0.23895774943E+02 -0.23953780109E+02 -0.89185460863E+03  0.89250208209E+03  0.32452959218E+01 0.  0.
         13    1    3    3    0    0  0.10805502291E+00 -0.11721182806E+00 -0.35502336424E+01  0.35538111115E+01  0.00000000000E+00 0.  1.
          3    1    3    3  501    0 -0.24003829965E+02 -0.23836568281E+02 -0.88830437499E+03  0.88894827098E+03  0.00000000000E+00 0.  1.
         -3    1    1    2    0  502  0.23895774943E+02  0.23953780109E+02 -0.10516729071E+03  0.11047601856E+03  0.00000000000E+00 0. -1.
<mgrwt>
<rscale>  1 0.30000000E+03</rscale>
<asrwt>0</asrwt>
<pdfrwt beam="1">  1       21 0.10829480E-01 0.30000000E+03</pdfrwt>
<pdfrwt beam="2">0</pdfrwt>
<totfact> 0.74586190E+03</totfact>
</mgrwt>
</event>
<event>
 6    1  0.1284012E-001  0.3000000E+03  0.7818608E-02  0.1093470E+00
         21   -1    0    0  501  502  0.00000000000E+00  0.00000000000E+00  0.23438107325E+01  0.23438107325E+01  0.00000000000E+00 0. -1.
         13   -1    0    0    0    0 -0.00000000000E+00 -0.00000000000E+00 -0.10000000000E+04  0.10000000000E+04  0.00000000000E+00 0.  1.
    9000005    2    1    2  501    0 -0.22076218640E+02 -0.26303598045E+02 -0.85180753283E+03  0.85250700189E+03  0.35883959106E+01 0.  0.
         13    1    3    3    0    0 -0.22021123489E+02 -0.25422964056E+02 -0.82645911248E+03  0.82714322918E+03  0.00000000000E+00 0.  1.
          3    1    3    3  501    0 -0.55095151560E-01 -0.88063398964E+00 -0.25348420353E+02  0.25363772710E+02  0.00000000000E+00 0.  1.
         -1    1    1    2    0  502  0.22076218640E+02  0.26303598045E+02 -0.14584865644E+03  0.14983680884E+03  0.00000000000E+00 0. -1.
<mgrwt>
<rscale>  1 0.30000000E+03</rscale>
<asrwt>0</asrwt>
<pdfrwt beam="1">  1       21 0.85229661E-02 0.30000000E+03</pdfrwt>
<pdfrwt beam="2">0</pdfrwt>
<totfact> 0.11426758E+04</totfact>
</mgrwt>
</event>
<event>
 6    1  0.1284012E-001  0.3000000E+03  0.7818608E-02  0.1093470E+00
         21   -1    0    0  501  502  0.00000000000E+00  0.00000000000E+00  0.20356654469E+01  0.20356654469E+01  0.00000000000E+00 0. -1.
         13   -1    0    0    0    0 -0.00000000000E+00 -0.00000000000E+00 -0.10000000000E+04  0.10000000000E+04  0.00000000000E+00 0.  1.
    9000005    2    1    2  501    0 -0.23862429647E+02 -0.26733721571E+02 -0.19634262876E+03  0.19961341587E+03  0.33136851243E+01 0.  0.
         13    1    3    3    0    0 -0.19348712960E+02 -0.19743683472E+02 -0.14785998603E+03  0.15042194388E+03  0.00000000000E+00 0.  1.
          1    1    3    3  501    0 -0.45137166872E+01 -0.69900380986E+01 -0.48482642725E+02  0.49191471990E+02  0.00000000000E+00 0.  1.
         -3    1    1    2    0  502  0.23862429647E+02  0.26733721571E+02 -0.80162170580E+03  0.80242224958E+03  0.00000000000E+00 0. -1.
<mgrwt>
<rscale>  1 0.30000000E+03</rscale>
<asrwt>0</asrwt>
<pdfrwt beam="1">  1       21 0.74024354E-02 0.30000000E+03</pdfrwt>
<pdfrwt beam="2">0</pdfrwt>
<totfact> 0.14636061E+04</totfact>
</mgrwt>
</event>
<event>
 6    1  0.1284012E-001  0.3000000E+03  0.7818608E-02  0.1093470E+00
         21   -1    0    0  501  502  0.00000000000E+00  0.00000000000E+00  0.21103428134E+01  0.21103428134E+01  0.00000000000E+00 0. -1.
         13   -1    0    0    0    0 -0.00000000000E+00 -0.00000000000E+00 -0.10000000000E+04  0.10000000000E+04  0.00000000000E+00 0.  1.
    9000005    2    1    2  501    0 -0.29989653615E+02  0.97472332505E+00 -0.87814194074E+03  0.87866057568E+03  0.32878214443E+01 0.  0.
         13    1    3    3    0    0 -0.27004692961E+02  0.17014988408E+00 -0.80639850270E+03  0.80685056085E+03  0.00000000000E+00 0.  1.
          1    1    3    3  501    0 -0.29849606538E+01  0.80457344097E+00 -0.71743438043E+02  0.71810014836E+02  0.00000000000E+00 0.  1.
         -3    1    1    2    0  502  0.29989653615E+02 -0.97472332505E+00 -0.11974771645E+03  0.12344976713E+03  0.00000000000E+00 0. -1.
<mgrwt>
<rscale>  1 0.30000000E+03</rscale>
<asrwt>0</asrwt>
<pdfrwt beam="1">  1       21 0.76739900E-02 0.30000000E+03</pdfrwt>
<pdfrwt beam="2">0</pdfrwt>
<totfact> 0.13741184E+04</totfact>
</mgrwt>
</event>
<event>
 6    1  0.1284012E-001  0.3000000E+03  0.7818608E-02  0.1093470E+00
         21   -1    0    0  501  502  0.00000000000E+00  0.00000000000E+00  0.13423830068E+01  0.13423830068E+01  0.00000000000E+00 0. -1.
         13   -1    0    0    0    0 -0.00000000000E+00 -0.00000000000E+00 -0.10000000000E+04  0.10000000000E+04  0.00000000000E+00 0.  1.
    9000005    2    1    2  501    0  0.31168440885E+02  0.16157899988E+02 -0.63373280739E+03  0.63473269123E+03  0.59806953643E+01 0.  0.
         13    1    3    3    0    0  0.17959923462E+02  0.93840634276E+01 -0.31173898025E+03  0.31239688107E+03  0.00000000000E+00 0.  1.
          1    1    3    3  501    0  0.13208517422E+02  0.67738365600E+01 -0.32199382714E+03  0.32233581016E+03  0.00000000000E+00 0.  1.
         -3    1    1    2    0  502 -0.31168440885E+02 -0.16157899988E+02 -0.36492480960E+03  0.36660969177E+03  0.00000000000E+00 0. -1.
<mgrwt>
<rscale>  1 0.30000000E+03</rscale>
<asrwt>0</asrwt>
<pdfrwt beam="1">  1       21 0.48814030E-02 0.30000000E+03</pdfrwt>
<pdfrwt beam="2">0</pdfrwt>
<totfact> 0.30007158E+04</totfact>
</mgrwt>
</event>
<event>
 6    1  0.1284012E-001  0.3000000E+03  0.7818608E-02  0.1093470E+00
         21   -1    0    0  501  502  0.00000000000E+00  0.00000000000E+00  0.25994276188E+01  0.25994276188E+01  0.00000000000E+00 0. -1.
         13   -1    0    0    0    0 -0.00000000000E+00 -0.00000000000E+00 -0.10000000000E+04  0.10000000000E+04  0.00000000000E+00 0.  1.
    9000005    2    1    2  501    0 -0.12783869075E+02 -0.37410580700E+02 -0.81493655945E+03  0.81590155706E+03  0.32826856680E+01 0.  0.
         13    1    3    3    0    0 -0.15936235135E+01 -0.81855147501E+01 -0.18631571130E+03  0.18650224279E+03  0.00000000000E+00 0.  1.
          1    1    3    3  501    0 -0.11190245561E+02 -0.29225065950E+02 -0.62862084814E+03  0.62939931427E+03  0.00000000000E+00 0.  1.
         -1    1    1    2    0  502  0.12783869075E+02  0.37410580700E+02 -0.18246401293E+03  0.18669787056E+03  0.00000000000E+00 0. -1.
<mgrwt>
<rscale>  1 0.30000000E+03</rscale>
<asrwt>0</asrwt>
<pdfrwt beam="1">  1       21 0.94524840E-02 0.30000000E+03</pdfrwt>
<pdfrwt beam="2">0</pdfrwt>
<totfact> 0.95122875E+03</totfact>
</mgrwt>
</event>
<event>
 6    1  0.1284012E-001  0.3000000E+03  0.7818608E-02  0.1093470E+00
         21   -1    0    0  501  502  0.00000000000E+00  0.00000000000E+00  0.38592794681E+01  0.38592794681E+01  0.00000000000E+00 0. -1.
         13   -1    0    0    0    0 -0.00000000000E+00 -0.00000000000E+00 -0.10000000000E+04  0.10000000000E+04  0.00000000000E+00 0.  1.
    9000005    2    1    2  501    0  0.25229940026E+02  0.46116724189E+02 -0.76516918915E+03  0.76698135641E+03  0.36346845282E+01 0.  0.
         13    1    3    3    0    0  0.91239761194E+01  0.14159771382E+02 -0.26253215377E+03  0.26307200122E+03  0.00000000000E+00 0.  1.
          1    1    3    3  501    0  0.16105963907E+02  0.31956952807E+02 -0.50263703538E+03  0.50390935519E+03  0.00000000000E+00 0.  1.
         -1    1    1    2    0  502 -0.25229940026E+02 -0.46116724189E+02 -0.23097153138E+03  0.23687792306E+03  0.00000000000E+00 0. -1.
<mgrwt>
<rscale>  1 0.30000000E+03</rscale>
<asrwt>0</asrwt>
<pdfrwt beam="1">  1       21 0.14033773E-01 0.30000000E+03</pdfrwt>
<pdfrwt beam="2">0</pdfrwt>
<totfact> 0.46560167E+03</totfact>
</mgrwt>
</event>
<event>
 6    1  0.1284012E-001  0.3000000E+03  0.7818608E-02  0.1093470E+00
         21   -1    0    0  501  502  0.00000000000E+00  0.00000000000E+00  0.13624839351E+01  0.13624839351E+01  0.00000000000E+00 0. -1.
         13   -1    0    0    0    0 -0.00000000000E+00 -0.00000000000E+00 -0.10000000000E+04  0.10000000000E+04  0.00000000000E+00 0.  1.
    9000005    2    1    2  501    0  0.27192956390E+02 -0.17279698224E+02 -0.73250756170E+03  0.73328936432E+03  0.10388408673E+02 0.  0.
         13    1    3    3    0    0  0.25902944639E+02 -0.13677040272E+02 -0.58578935038E+03  0.58652125877E+03  0.00000000000E+00 0.  1.
          3    1    3    3  501    0  0.12900117503E+01 -0.36026579523E+01 -0.14671821131E+03  0.14676810554E+03  0.00000000000E+00 0.  1.
         -3    1    1    2    0  502 -0.27192956390E+02  0.17279698224E+02 -0.26612995437E+03  0.26807311962E+03  0.00000000000E+00 0. -1.
<mgrwt>
<rscale>  1 0.30000000E+03</rscale>
<asrwt>0</asrwt>
<pdfrwt beam="1">  1       21 0.49544975E-02 0.30000000E+03</pdfrwt>
<pdfrwt beam="2">0</pdfrwt>
<totfact> 0.29256987E+04</totfact>
</mgrwt>
</event>
<event>
 6    1  0.1284012E-001  0.3000000E+03  0.7818608E-02  0.1093470E+00
         21   -1    0    0  501  502  0.00000000000E+00  0.00000000000E+00  0.16278804698E+01  0.16278804698E+01  0.00000000000E+00 0. -1.
         13   -1    0    0    0    0 -0.00000000000E+00 -0.00000000000E+00 -0.10000000000E+04  0.10000000000E+04  0.00000000000E+00 0.  1.
    9000005    2    1    2  501    0  0.85007701897E+01  0.37714194508E+02 -0.64032473024E+03  0.64149935266E+03  0.33220101639E+01 0.  0.
         13    1    3    3    0    0  0.57927693805E+01  0.31436428330E+02 -0.52829873228E+03  0.52926492018E+03  0.00000000000E+00 0.  1.
          3    1    3    3  501    0  0.27080008092E+01  0.62777661779E+01 -0.11202599795E+03  0.11223443248E+03  0.00000000000E+00 0.  1.
         -3    1    1    2    0  502 -0.85007701897E+01 -0.37714194508E+02 -0.35804738929E+03  0.36012852781E+03  0.00000000000E+00 0. -1.
<mgrwt>
<rscale>  1 0.30000000E+03</rscale>
<asrwt>0</asrwt>
<pdfrwt beam="1">  1       21 0.59195778E-02 0.30000000E+03</pdfrwt>
<pdfrwt beam="2">0</pdfrwt>
<totfact> 0.21567684E+04</totfact>
</mgrwt>
</event>
<event>
 6    1  0.1284012E-001  0.3000000E+03  0.7818608E-02  0.1093470E+00
         21   -1    0    0  501  502  0.00000000000E+00  0.00000000000E+00  0.24372962197E+01  0.24372962197E+01  0.00000000000E+00 0. -1.
         13   -1    0    0    0    0 -0.00000000000E+00 -0.00000000000E+00 -0.10000000000E+04  0.10000000000E+04  0.00000000000E+00 0.  1.
    9000005    2    1    2  501    0 -0.13292517831E+02  0.27723405255E+02 -0.89031355013E+03  0.89086821812E+03  0.65334739984E+01 0.  0.
         13    1    3    3    0    0 -0.10348274047E+02  0.22243951728E+02 -0.77372040306E+03  0.77410925732E+03  0.00000000000E+00 0.  1.
          3    1    3    3  501    0 -0.29442437845E+01  0.54794535264E+01 -0.11659314707E+03  0.11675896080E+03  0.00000000000E+00 0.  1.
         -3    1    1    2    0  502  0.13292517831E+02 -0.27723405255E+02 -0.10724915365E+03  0.11156907810E+03  0.00000000000E+00 0. -1.
<mgrwt>
<rscale>  1 0.30000000E+03</rscale>
<asrwt>0</asrwt>
<pdfrwt beam="1">  1       21 0.88629140E-02 0.30000000E+03</pdfrwt>
<pdfrwt beam="2">0</pdfrwt>
<totfact> 0.10663975E+04</totfact>
</mgrwt>
</event>
<event>
 6    1  0.1284012E-001  0.3000000E+03  0.7818608E-02  0.1093470E+00
         21   -1    0    0  501  502  0.00000000000E+00  0.00000000000E+00  0.23955087910E+01  0.23955087910E+01  0.00000000000E+00 0. -1.
         13   -1    0    0    0    0 -0.00000000000E+00 -0.00000000000E+00 -0.10000000000E+04  0.10000000000E+04  0.00000000000E+00 0.  1.
    9000005    2    1    2  501    0 -0.36764355780E+02  0.30981395068E+02 -0.40850323581E+03  0.41133565242E+03  0.32650560854E+01 0.  0.
         13    1    3    3    0    0 -0.98161405180E-02  0.11446666900E+00 -0.31515917829E+00  0.33544639301E+00  0.00000000000E+00 0.  1.
          3    1    3    3  501    0 -0.36754539640E+02  0.30866928399E+02 -0.40818807663E+03  0.41100020603E+03  0.00000000000E+00 0.  1.
         -3    1    1    2    0  502  0.36764355780E+02 -0.30981395068E+02 -0.58910125540E+03  0.59105985637E+03  0.00000000000E+00 0. -1.
<mgrwt>
<rscale>  1 0.30000000E+03</rscale>
<asrwt>0</asrwt>
<pdfrwt beam="1">  1       21 0.87109594E-02 0.30000000E+03</pdfrwt>
<pdfrwt beam="2">0</pdfrwt>
<totfact> 0.10995056E+04</totfact>
</mgrwt>
</event>
<event>
 6    1  0.1284012E-001  0.3000000E+03  0.7818608E-02  0.1093470E+00
         21   -1    0    0  501  502  0.00000000000E+00  0.00000000000E+00  0.33538111765E+01  0.33538111765E+01  0.00000000000E+00 0. -1.
         13   -1    0    0    0    0 -0.00000000000E+00 -0.00000000000E+00 -0.10000000000E+04  0.10000000000E+04  0.00000000000E+00 0.  1.
    9000005    2    1    2  501    0  0.27791331423E+02  0.16256497289E+02 -0.91524747140E+03  0.91581877245E+03  0.30754292052E+01 0.  0.
         13    1    3    3    0    0  0.22982626592E+02  0.14094590447E+02 -0.79151366189E+03  0.79197268612E+03  0.00000000000E+00 0.  1.
          3    1    3    3  501    0  0.48087048311E+01  0.21619068421E+01 -0.12373380951E+03  0.12384608633E+03  0.00000000000E+00 0.  1.
         -1    1    1    2    0  502 -0.27791331423E+02 -0.16256497289E+02 -0.81398717425E+02  0.87535038726E+02  0.00000000000E+00 0. -1.
<mgrwt>
<rscale>  1 0.30000000E+03</rscale>
<asrwt>0</asrwt>
<pdfrwt beam="1">  1       21 0.12195703E-01 0.30000000E+03</pdfrwt>
<pdfrwt beam="2">0</pdfrwt>
<totfact> 0.60176479E+03</totfact>
</mgrwt>
</event>
<event>
 6    1  0.1284012E-001  0.3000000E+03  0.7818608E-02  0.1093470E+00
         21   -1    0    0  501  502  0.00000000000E+00  0.00000000000E+00  0.23651486136E+01  0.23651486136E+01  0.00000000000E+00 0. -1.
         13   -1    0    0    0    0 -0.00000000000E+00 -0.00000000000E+00 -0.10000000000E+04  0.10000000000E+04  0.00000000000E+00 0.  1.
    9000005    2    1    2  501    0 -0.14824322910E+02 -0.32331230535E+02 -0.83783084935E+03  0.83865079957E+03  0.10467209279E+02 0.  0.
         13    1    3    3    0    0 -0.11826766066E+02 -0.31860210314E+02 -0.78089565423E+03  0.78163480487E+03  0.00000000000E+00 0.  1.
          1    1    3    3  501    0 -0.29975568434E+01 -0.47102022184E+00 -0.56935195125E+02  0.57015994695E+02  0.00000000000E+00 0.  1.
         -3    1    1    2    0  502  0.14824322910E+02  0.32331230535E+02 -0.15980400204E+03  0.16371434905E+03  0.00000000000E+00 0. -1.
<mgrwt>
<rscale>  1 0.30000000E+03</rscale>
<asrwt>0</asrwt>
<pdfrwt beam="1">  1       21 0.86005585E-02 0.30000000E+03</pdfrwt>
<pdfrwt beam="2">0</pdfrwt>
<totfact> 0.11245502E+04</totfact>
</mgrwt>
</event>
<event>
 6    1  0.1284012E-001  0.3000000E+03  0.7818608E-02  0.1093470E+00
         21   -1    0    0  501  502  0.00000000000E+00  0.00000000000E+00  0.30076440506E+01  0.30076440506E+01  0.00000000000E+00 0. -1.
         13   -1    0    0    0    0 -0.00000000000E+00 -0.00000000000E+00 -0.10000000000E+04  0.10000000000E+04  0.00000000000E+00 0.  1.
    9000005    2    1    2  501    0 -0.14907517714E+02  0.27859524025E+02 -0.90824877812E+03  0.90880674295E+03  0.39326709527E+01 0.  0.
         13    1    3    3    0    0 -0.30216610912E+01  0.54497256627E+01 -0.13851485206E+03  0.13865494649E+03  0.00000000000E+00 0.  1.
          3    1    3    3  501    0 -0.11885856623E+02  0.22409798362E+02 -0.76973392606E+03  0.77015179645E+03  0.00000000000E+00 0.  1.
         -3    1    1    2    0  502  0.14907517714E+02 -0.27859524025E+02 -0.88743577826E+02  0.94200901103E+02  0.00000000000E+00 0. -1.
<mgrwt>
<rscale>  1 0.30000000E+03</rscale>
<asrwt>0</asrwt>
<pdfrwt beam="1">  1       21 0.10936911E-01 0.30000000E+03</pdfrwt>
<pdfrwt beam="2">0</pdfrwt>
<totfact> 0.73274411E+03</totfact>
</mgrwt>
</event>
<event>
 6    1  0.1284012E-001  0.3000000E+03  0.7818608E-02  0.1093470E+00
         21   -1    0    0  501  502  0.00000000000E+00  0.00000000000E+00  0.65570564647E+01  0.65570564647E+01  0.00000000000E+00 0. -1.
         13   -1    0    0    0    0 -0.00000000000E+00 -0.00000000000E+00 -0.10000000000E+04  0.10000000000E+04  0.00000000000E+00 0.  1.
    9000005    2    1    2  501    0  0.75669471860E+00 -0.33663989423E+02 -0.95440046207E+03  0.95499978608E+03  0.32423199059E+01 0.  0.
         13    1    3    3    0    0 -0.17534821493E+00 -0.71327457323E+01 -0.24079118724E+03  0.24089687143E+03  0.00000000000E+00 0.  1.
          1    1    3    3  501    0  0.93204293353E+00 -0.26531243691E+02 -0.71360927483E+03  0.71410291465E+03  0.00000000000E+00 0.  1.
         -1    1    1    2    0  502 -0.75669471860E+00  0.33663989423E+02 -0.39042481464E+02  0.51557270386E+02  0.00000000000E+00 0. -1.
<mgrwt>
<rscale>  1 0.30000000E+03</rscale>
<asrwt>0</asrwt>
<pdfrwt beam="1">  1       21 0.23843892E-01 0.30000000E+03</pdfrwt>
<pdfrwt beam="2">0</pdfrwt>
<totfact> 0.17104768E+03</totfact>
</mgrwt>
</event>
<event>
 6    1  0.1284012E-001  0.3000000E+03  0.7818608E-02  0.1093470E+00
         21   -1    0    0  501  502  0.00000000000E+00  0.00000000000E+00  0.18583239612E+02  0.18583239612E+02  0.00000000000E+00 0. -1.
         13   -1    0    0    0    0 -0.00000000000E+00 -0.00000000000E+00 -0.10000000000E+04  0.10000000000E+04  0.00000000000E+00 0.  1.
    9000005    2    1    2  501    0 -0.40655273843E+02 -0.34474245621E+02 -0.95944229988E+03  0.96092734818E+03  0.32429582169E+01 0.  0.
         13    1    3    3    0    0 -0.45782333211E+01 -0.27915666604E+01 -0.87668465104E+02  0.87832299517E+02  0.00000000000E+00 0.  1.
          1    1    3    3  501    0 -0.36077040522E+02 -0.31682678961E+02 -0.87177383477E+03  0.87309504866E+03  0.00000000000E+00 0.  1.
         -3    1    1    2    0  502  0.40655273843E+02  0.34474245621E+02 -0.21974460510E+02  0.57655891434E+02  0.00000000000E+00 0. -1.
<mgrwt>
<rscale>  1 0.30000000E+03</rscale>
<asrwt>0</asrwt>
<pdfrwt beam="1">  1       21 0.67575559E-01 0.30000000E+03</pdfrwt>
<pdfrwt beam="2">0</pdfrwt>
<totfact> 0.19149629E+02</totfact>
</mgrwt>
</event>
<event>
 6    1  0.1284012E-001  0.3000000E+03  0.7818608E-02  0.1093470E+00
         21   -1    0    0  501  502  0.00000000000E+00  0.00000000000E+00  0.18721234650E+01  0.18721234650E+01  0.00000000000E+00 0. -1.
         13   -1    0    0    0    0 -0.00000000000E+00 -0.00000000000E+00 -0.10000000000E+04  0.10000000000E+04  0.00000000000E+00 0.  1.
    9000005    2    1    2  501    0  0.42846179597E+02  0.56196637487E+01 -0.50377909231E+03  0.50563821069E+03  0.30414685461E+01 0.  0.
         13    1    3    3    0    0  0.21690338106E+02  0.16557767836E+01 -0.26443320823E+03  0.26532646679E+03  0.00000000000E+00 0.  1.
          3    1    3    3  501    0  0.21155841491E+02  0.39638869651E+01 -0.23934588408E+03  0.24031174390E+03  0.00000000000E+00 0.  1.
         -1    1    1    2    0  502 -0.42846179597E+02 -0.56196637487E+01 -0.49434878422E+03  0.49623391277E+03  0.00000000000E+00 0. -1.
<mgrwt>
<rscale>  1 0.30000000E+03</rscale>
<asrwt>0</asrwt>
<pdfrwt beam="1">  1       21 0.68077360E-02 0.30000000E+03</pdfrwt>
<pdfrwt beam="2">0</pdfrwt>
<totfact> 0.16935724E+04</totfact>
</mgrwt>
</event>
<event>
 6    1  0.1284012E-001  0.3000000E+03  0.7818608E-02  0.1093470E+00
         21   -1    0    0  501  502  0.00000000000E+00  0.00000000000E+00  0.46064247947E+01  0.46064247947E+01  0.00000000000E+00 0. -1.
         13   -1    0    0    0    0 -0.00000000000E+00 -0.00000000000E+00 -0.10000000000E+04  0.10000000000E+04  0.00000000000E+00 0.  1.
    9000005    2    1    2  501    0  0.62943459078E+02  0.11798101344E+02 -0.66355535250E+03  0.66664536153E+03  0.30426928077E+01 0.  0.
         13    1    3    3    0    0  0.39043438421E+02  0.86289959693E+01 -0.42136112931E+03  0.42325412101E+03  0.00000000000E+00 0.  1.
          3    1    3    3  501    0  0.23900020657E+02  0.31691053749E+01 -0.24219422319E+03  0.24339124052E+03  0.00000000000E+00 0.  1.
         -3    1    1    2    0  502 -0.62943459078E+02 -0.11798101344E+02 -0.33183822270E+03  0.33796106326E+03  0.00000000000E+00 0. -1.
<mgrwt>
<rscale>  1 0.30000000E+03</rscale>
<asrwt>0</asrwt>
<pdfrwt beam="1">  1       21 0.16750671E-01 0.30000000E+03</pdfrwt>
<pdfrwt beam="2">0</pdfrwt>
<totfact> 0.33529776E+03</totfact>
</mgrwt>
</event>
<event>
 6    1  0.1284012E-001  0.3000000E+03  0.7818608E-02  0.1093470E+00
         21   -1    0    0  501  502  0.00000000000E+00  0.00000000000E+00  0.17103234973E+02  0.17103234973E+02  0.00000000000E+00 0. -1.
         13   -1    0    0    0    0 -0.00000000000E+00 -0.00000000000E+00 -0.10000000000E+04  0.10000000000E+04  0.00000000000E+00 0.  1.
    9000005    2    1    2  501    0 -0.33588127281E+02 -0.17554224506E+02 -0.97817095955E+03  0.97891100632E+03  0.34668566517E+01 0.  0.
         13    1    3    3    0    0 -0.50181332320E+01 -0.15352505660E+01 -0.11794746964E+03  0.11806415311E+03  0.00000000000E+00 0.  1.
          1    1    3    3  501    0 -0.28569994049E+02 -0.16018973940E+02 -0.86022348991E+03  0.86084685321E+03  0.00000000000E+00 0.  1.
         -3    1    1    2    0  502  0.33588127281E+02  0.17554224506E+02 -0.47258054796E+01  0.38192228656E+02  0.00000000000E+00 0. -1.
<mgrwt>
<rscale>  1 0.30000000E+03</rscale>
<asrwt>0</asrwt>
<pdfrwt beam="1">  1       21 0.62193713E-01 0.30000000E+03</pdfrwt>
<pdfrwt beam="2">0</pdfrwt>
<totfact> 0.23156557E+02</totfact>
</mgrwt>
</event>
<event>
 6    1  0.1284012E-001  0.3000000E+03  0.7818608E-02  0.1093470E+00
         21   -1    0    0  501  502  0.00000000000E+00  0.00000000000E+00  0.20971291402E+01  0.20971291402E+01  0.00000000000E+00 0. -1.
         13   -1    0    0    0    0 -0.00000000000E+00 -0.00000000000E+00 -0.10000000000E+04  0.10000000000E+04  0.00000000000E+00 0.  1.
    9000005    2    1    2  501    0  0.30394550937E+02  0.65758209877E+00 -0.87337992082E+03  0.87391668513E+03  0.36912477904E+01 0.  0.
         13    1    3    3    0    0  0.19442245600E+02  0.21855755653E+01 -0.55336538214E+03  0.55371113751E+03  0.00000000000E+00 0.  1.
          1    1    3    3  501    0  0.10952305337E+02 -0.15279934665E+01 -0.32001453869E+03  0.32020554762E+03  0.00000000000E+00 0.  1.
         -3    1    1    2    0  502 -0.30394550937E+02 -0.65758209877E+00 -0.12452295004E+03  0.12818044401E+03  0.00000000000E+00 0. -1.
<mgrwt>
<rscale>  1 0.30000000E+03</rscale>
<asrwt>0</asrwt>
<pdfrwt beam="1">  1       21 0.76259402E-02 0.30000000E+03</pdfrwt>
<pdfrwt beam="2">0</pdfrwt>
<totfact> 0.13893269E+04</totfact>
</mgrwt>
</event>
<event>
 6    1  0.1284012E-001  0.3000000E+03  0.7818608E-02  0.1093470E+00
         21   -1    0    0  501  502  0.00000000000E+00  0.00000000000E+00  0.12735436019E+01  0.12735436019E+01  0.00000000000E+00 0. -1.
         13   -1    0    0    0    0 -0.00000000000E+00 -0.00000000000E+00 -0.10000000000E+04  0.10000000000E+04  0.00000000000E+00 0.  1.
    9000005    2    1    2  501    0 -0.33572483792E+02  0.83083896796E+01 -0.61951491691E+03  0.62048812806E+03  0.32624813724E+01 0.  0.
         13    1    3    3    0    0 -0.37943686598E+01  0.18758344040E+01 -0.66235029949E+02  0.66370137717E+02  0.00000000000E+00 0.  1.
          1    1    3    3  501    0 -0.29778115132E+02  0.64325552756E+01 -0.55327988696E+03  0.55411799035E+03  0.00000000000E+00 0.  1.
         -1    1    1    2    0  502  0.33572483792E+02 -0.83083896796E+01 -0.37921153949E+03  0.38078541554E+03  0.00000000000E+00 0. -1.
<mgrwt>
<rscale>  1 0.30000000E+03</rscale>
<asrwt>0</asrwt>
<pdfrwt beam="1">  1       21 0.46310774E-02 0.30000000E+03</pdfrwt>
<pdfrwt beam="2">0</pdfrwt>
<totfact> 0.32818162E+04</totfact>
</mgrwt>
</event>
<event>
 6    1  0.1284012E-001  0.3000000E+03  0.7818608E-02  0.1093470E+00
         21   -1    0    0  501  502  0.00000000000E+00  0.00000000000E+00  0.14494396726E+01  0.14494396726E+01  0.00000000000E+00 0. -1.
         13   -1    0    0    0    0 -0.00000000000E+00 -0.00000000000E+00 -0.10000000000E+04  0.10000000000E+04  0.00000000000E+00 0.  1.
    9000005    2    1    2  501    0 -0.28686694168E+02 -0.18061644703E+02 -0.72572356894E+03  0.72652451054E+03  0.37438565584E+01 0.  0.
         13    1    3    3    0    0 -0.18390923105E+02 -0.12707826427E+02 -0.44484108536E+03  0.44540240921E+03  0.00000000000E+00 0.  1.
          1    1    3    3  501    0 -0.10295771063E+02 -0.53538182755E+01 -0.28088248358E+03  0.28112210132E+03  0.00000000000E+00 0.  1.
         -1    1    1    2    0  502  0.28686694168E+02  0.18061644703E+02 -0.27282699139E+03  0.27492492914E+03  0.00000000000E+00 0. -1.
<mgrwt>
<rscale>  1 0.30000000E+03</rscale>
<asrwt>0</asrwt>
<pdfrwt beam="1">  1       21 0.52707008E-02 0.30000000E+03</pdfrwt>
<pdfrwt beam="2">0</pdfrwt>
<totfact> 0.26325235E+04</totfact>
</mgrwt>
</event>
<event>
 6    1  0.1284012E-001  0.3000000E+03  0.7818608E-02  0.1093470E+00
         21   -1    0    0  501  502  0.00000000000E+00  0.00000000000E+00  0.18662299992E+01  0.18662299992E+01  0.00000000000E+00 0. -1.
         13   -1    0    0    0    0 -0.00000000000E+00 -0.00000000000E+00 -0.10000000000E+04  0.10000000000E+04  0.00000000000E+00 0.  1.
    9000005    2    1    2  501    0  0.33964297790E+02 -0.76324452691E+01 -0.79522726213E+03  0.79599520562E+03  0.31845219764E+01 0.  0.
         13    1    3    3    0    0  0.15134617673E+02 -0.36953998056E+01 -0.32071710986E+03  0.32109527743E+03  0.00000000000E+00 0.  1.
          1    1    3    3  501    0  0.18829680116E+02 -0.39370454635E+01 -0.47451015227E+03  0.47489992818E+03  0.00000000000E+00 0.  1.
         -1    1    1    2    0  502 -0.33964297790E+02  0.76324452691E+01 -0.20290650787E+03  0.20587102438E+03  0.00000000000E+00 0. -1.
<mgrwt>
<rscale>  1 0.30000000E+03</rscale>
<asrwt>0</asrwt>
<pdfrwt beam="1">  1       21 0.67863052E-02 0.30000000E+03</pdfrwt>
<pdfrwt beam="2">0</pdfrwt>
<totfact> 0.17028700E+04</totfact>
</mgrwt>
</event>
<event>
 6    1  0.1284012E-001  0.3000000E+03  0.7818608E-02  0.1093470E+00
         21   -1    0    0  501  502  0.00000000000E+00  0.00000000000E+00  0.23065765943E+01  0.23065765943E+01  0.00000000000E+00 0. -1.
         13   -1    0    0    0    0 -0.00000000000E+00 -0.00000000000E+00 -0.10000000000E+04  0.10000000000E+04  0.00000000000E+00 0.  1.
    9000005    2    1    2  501    0 -0.43769242641E+02 -0.16606660341E+02 -0.60375916103E+03  0.60560047525E+03  0.59399771407E+01 0.  0.
         13    1    3    3    0    0 -0.13752283970E+02 -0.78906840348E+01 -0.18715896117E+03  0.18782935062E+03  0.00000000000E+00 0.  1.
          3    1    3    3  501    0 -0.30016958671E+02 -0.87159763065E+01 -0.41660019986E+03  0.41777112463E+03  0.00000000000E+00 0.  1.
         -1    1    1    2    0  502  0.43769242641E+02  0.16606660341E+02 -0.39393426238E+03  0.39670610135E+03  0.00000000000E+00 0. -1.
<mgrwt>
<rscale>  1 0.30000000E+03</rscale>
<asrwt>0</asrwt>
<pdfrwt beam="1">  1       21 0.83875689E-02 0.30000000E+03</pdfrwt>
<pdfrwt beam="2">0</pdfrwt>
<totfact> 0.11753900E+04</totfact>
</mgrwt>
</event>
<event>
 6    1  0.1284012E-001  0.3000000E+03  0.7818608E-02  0.1093470E+00
         21   -1    0    0  501  502  0.00000000000E+00  0.00000000000E+00  0.11023003409E+02  0.11023003409E+02  0.00000000000E+00 0. -1.
         13   -1    0    0    0    0 -0.00000000000E+00 -0.00000000000E+00 -0.10000000000E+04  0.10000000000E+04  0.00000000000E+00 0.  1.
    9000005    2    1    2  501    0  0.24120436816E+02 -0.36123673594E+02 -0.95467169387E+03  0.95567348615E+03  0.52013253350E+01 0.  0.
         13    1    3    3    0    0  0.16429374761E+02 -0.26703744735E+02 -0.72986396863E+03  0.73053708122E+03  0.00000000000E+00 0.  1.
          1    1    3    3  501    0  0.76910620548E+01 -0.94199288592E+01 -0.22480772524E+03  0.22513640493E+03  0.00000000000E+00 0.  1.
         -1    1    1    2    0  502 -0.24120436816E+02  0.36123673594E+02 -0.34305302719E+02  0.55349517259E+02  0.00000000000E+00 0. -1.
<mgrwt>
<rscale>  1 0.30000000E+03</rscale>
<asrwt>0</asrwt>
<pdfrwt beam="1">  1       21 0.40083733E-01 0.30000000E+03</pdfrwt>
<pdfrwt beam="2">0</pdfrwt>
<totfact> 0.60138676E+02</totfact>
</mgrwt>
</event>
<event>
 6    1  0.1284012E-001  0.3000000E+03  0.7818608E-02  0.1093470E+00
         21   -1    0    0  501  502  0.00000000000E+00  0.00000000000E+00  0.13879796309E+02  0.13879796309E+02  0.00000000000E+00 0. -1.
         13   -1    0    0    0    0 -0.00000000000E+00 -0.00000000000E+00 -0.10000000000E+04  0.10000000000E+04  0.00000000000E+00 0.  1.
    9000005    2    1    2  501    0  0.31137034321E+02 -0.25397870143E+02 -0.96958297011E+03  0.97042813571E+03  0.50063903530E+01 0.  0.
         13    1    3    3    0    0  0.26225222060E+02 -0.22710773483E+02 -0.86499983706E+03  0.86569524639E+03  0.00000000000E+00 0.  1.
          3    1    3    3  501    0  0.49118122608E+01 -0.26870966607E+01 -0.10458313305E+03  0.10473288932E+03  0.00000000000E+00 0.  1.
         -3    1    1    2    0  502 -0.31137034321E+02  0.25397870143E+02 -0.16537233584E+02  0.43451660598E+02  0.00000000000E+00 0. -1.
<mgrwt>
<rscale>  1 0.30000000E+03</rscale>
<asrwt>0</asrwt>
<pdfrwt beam="1">  1       21 0.50472093E-01 0.30000000E+03</pdfrwt>
<pdfrwt beam="2">0</pdfrwt>
<totfact> 0.36814022E+02</totfact>
</mgrwt>
</event>
<event>
 6    1  0.1284012E-001  0.3000000E+03  0.7818608E-02  0.1093470E+00
         21   -1    0    0  501  502  0.00000000000E+00  0.00000000000E+00  0.33946499225E+01  0.33946499225E+01  0.00000000000E+00 0. -1.
         13   -1    0    0    0    0 -0.00000000000E+00 -0.00000000000E+00 -0.10000000000E+04  0.10000000000E+04  0.00000000000E+00 0.  1.
    9000005    2    1    2  501    0 -0.48099823917E+02 -0.53919848402E+01 -0.77730122459E+03  0.77881289194E+03  0.31081097713E+01 0.  0.
         13    1    3    3    0    0 -0.73261762812E+01  0.18406441839E+00 -0.12555127120E+03  0.12576497302E+03  0.00000000000E+00 0.  1.
          1    1    3    3  501    0 -0.40773647635E+02 -0.55760492586E+01 -0.65174995339E+03  0.65304791892E+03  0.00000000000E+00 0.  1.
         -1    1    1    2    0  502  0.48099823917E+02  0.53919848402E+01 -0.21930412549E+03  0.22458175798E+03  0.00000000000E+00 0. -1.
<mgrwt>
<rscale>  1 0.30000000E+03</rscale>
<asrwt>0</asrwt>
<pdfrwt beam="1">  1       21 0.12344208E-01 0.30000000E+03</pdfrwt>
<pdfrwt beam="2">0</pdfrwt>
<totfact> 0.58865883E+03</totfact>
</mgrwt>
</event>
<event>
 6    1  0.1284012E-001  0.3000000E+03  0.7818608E-02  0.1093470E+00
         21   -1    0    0  501  502  0.00000000000E+00  0.00000000000E+00  0.25110653905E+01  0.25110653905E+01  0.00000000000E+00 0. -1.
         13   -1    0    0    0    0 -0.00000000000E+00 -0.00000000000E+00 -0.10000000000E+04  0.10000000000E+04  0.00000000000E+00 0.  1.
    9000005    2    1    2  501    0 -0.33648713427E+02 -0.14755001382E+02 -0.83925932088E+03  0.84007167164E+03  0.37762186366E+01 0.  0.
         13    1    3    3    0    0 -0.27760346427E+02 -0.11312666076E+02 -0.65351914310E+03  0.65420630052E+03  0.00000000000E+00 0.  1.
          1    1    3    3  501    0 -0.58883669997E+01 -0.34423353062E+01 -0.18574017778E+03  0.18586537111E+03  0.00000000000E+00 0.  1.
         -1    1    1    2    0  502  0.33648713427E+02  0.14755001382E+02 -0.15822961373E+03  0.16243939375E+03  0.00000000000E+00 0. -1.
<mgrwt>
<rscale>  1 0.30000000E+03</rscale>
<asrwt>0</asrwt>
<pdfrwt beam="1">  1       21 0.91311661E-02 0.30000000E+03</pdfrwt>
<pdfrwt beam="2">0</pdfrwt>
<totfact> 0.10115266E+04</totfact>
</mgrwt>
</event>
<event>
 6    1  0.1284012E-001  0.3000000E+03  0.7818608E-02  0.1093470E+00
         21   -1    0    0  501  502  0.00000000000E+00  0.00000000000E+00  0.12309006826E+01  0.12309006826E+01  0.00000000000E+00 0. -1.
         13   -1    0    0    0    0 -0.00000000000E+00 -0.00000000000E+00 -0.10000000000E+04  0.10000000000E+04  0.00000000000E+00 0.  1.
    9000005    2    1    2  501    0  0.27237494588E+02 -0.21673374855E+02 -0.44454284962E+03  0.44591265667E+03  0.28523558021E+01 0.  0.
         13    1    3    3    0    0  0.11445694687E+02 -0.10347013361E+02 -0.18364668493E+03  0.18429370445E+03  0.00000000000E+00 0.  1.
          3    1    3    3  501    0  0.15791799901E+02 -0.11326361494E+02 -0.26089616469E+03  0.26161895222E+03  0.00000000000E+00 0.  1.
         -3    1    1    2    0  502 -0.27237494588E+02  0.21673374855E+02 -0.55422624969E+03  0.55531824402E+03  0.00000000000E+00 0. -1.
<mgrwt>
<rscale>  1 0.30000000E+03</rscale>
<asrwt>0</asrwt>
<pdfrwt beam="1">  1       21 0.44760119E-02 0.30000000E+03</pdfrwt>
<pdfrwt beam="2">0</pdfrwt>
<totfact> 0.34772074E+04</totfact>
</mgrwt>
</event>
<event>
 6    1  0.1284012E-001  0.3000000E+03  0.7818608E-02  0.1093470E+00
         21   -1    0    0  501  502  0.00000000000E+00  0.00000000000E+00  0.23846013921E+01  0.23846013921E+01  0.00000000000E+00 0. -1.
         13   -1    0    0    0    0 -0.00000000000E+00 -0.00000000000E+00 -0.10000000000E+04  0.10000000000E+04  0.00000000000E+00 0.  1.
    9000005    2    1    2  501    0 -0.21952357837E+02 -0.41779974543E+02 -0.62518530899E+03  0.62697596545E+03  0.38364549911E+01 0.  0.
         13    1    3    3    0    0 -0.25494187961E+00 -0.44590403700E+00 -0.31719129743E+01  0.32132316581E+01  0.00000000000E+00 0.  1.
          1    1    3    3  501    0 -0.21697415958E+02 -0.41334070506E+02 -0.62201339601E+03  0.62376273379E+03  0.00000000000E+00 0.  1.
         -1    1    1    2    0  502  0.21952357837E+02  0.41779974543E+02 -0.37243008962E+03  0.37540863595E+03  0.00000000000E+00 0. -1.
<mgrwt>
<rscale>  1 0.30000000E+03</rscale>
<asrwt>0</asrwt>
<pdfrwt beam="1">  1       21 0.86712961E-02 0.30000000E+03</pdfrwt>
<pdfrwt beam="2">0</pdfrwt>
<totfact> 0.11084047E+04</totfact>
</mgrwt>
</event>
<event>
 6    1  0.1284012E-001  0.3000000E+03  0.7818608E-02  0.1093470E+00
         21   -1    0    0  501  502  0.00000000000E+00  0.00000000000E+00  0.15599933224E+01  0.15599933224E+01  0.00000000000E+00 0. -1.
         13   -1    0    0    0    0 -0.00000000000E+00 -0.00000000000E+00 -0.10000000000E+04  0.10000000000E+04  0.00000000000E+00 0.  1.
    9000005    2    1    2  501    0 -0.37960829310E+02 -0.86442689807E+01 -0.42153095371E+03  0.42333875249E+03  0.34068284637E+01 0.  0.
         13    1    3    3    0    0 -0.34021345493E+02 -0.66557578045E+01 -0.37533363333E+03  0.37693114407E+03  0.00000000000E+00 0.  1.
          3    1    3    3  501    0 -0.39394838167E+01 -0.19885111762E+01 -0.46197320376E+02  0.46407608421E+02  0.00000000000E+00 0.  1.
         -3    1    1    2    0  502  0.37960829310E+02  0.86442689807E+01 -0.57690905297E+03  0.57822124083E+03  0.00000000000E+00 0. -1.
<mgrwt>
<rscale>  1 0.30000000E+03</rscale>
<asrwt>0</asrwt>
<pdfrwt beam="1">  1       21 0.56727150E-02 0.30000000E+03</pdfrwt>
<pdfrwt beam="2">0</pdfrwt>
<totfact> 0.23208929E+04</totfact>
</mgrwt>
</event>
<event>
 6    1  0.1284012E-001  0.3000000E+03  0.7818608E-02  0.1093470E+00
         21   -1    0    0  501  502  0.00000000000E+00  0.00000000000E+00  0.34940895839E+01  0.34940895839E+01  0.00000000000E+00 0. -1.
         13   -1    0    0    0    0 -0.00000000000E+00 -0.00000000000E+00 -0.10000000000E+04  0.10000000000E+04  0.00000000000E+00 0.  1.
    9000005    2    1    2  501    0 -0.15718965444E+02 -0.49351906738E+02 -0.73962218891E+03  0.74144076877E+03  0.32763847760E+01 0.  0.
         13    1    3    3    0    0 -0.76047275538E+01 -0.24854376234E+02 -0.34811325638E+03  0.34908224127E+03  0.00000000000E+00 0.  1.
          3    1    3    3  501    0 -0.81142378905E+01 -0.24497530504E+02 -0.39150893253E+03  0.39235852750E+03  0.00000000000E+00 0.  1.
         -1    1    1    2    0  502  0.15718965444E+02  0.49351906738E+02 -0.25688372151E+03  0.26205332081E+03  0.00000000000E+00 0. -1.
<mgrwt>
<rscale>  1 0.30000000E+03</rscale>
<asrwt>0</asrwt>
<pdfrwt beam="1">  1       21 0.12705807E-01 0.30000000E+03</pdfrwt>
<pdfrwt beam="2">0</pdfrwt>
<totfact> 0.55849909E+03</totfact>
</mgrwt>
</event>
<event>
 6    1  0.1284012E-001  0.3000000E+03  0.7818608E-02  0.1093470E+00
         21   -1    0    0  501  502  0.00000000000E+00  0.00000000000E+00  0.15121894369E+01  0.15121894369E+01  0.00000000000E+00 0. -1.
         13   -1    0    0    0    0 -0.00000000000E+00 -0.00000000000E+00 -0.10000000000E+04  0.10000000000E+04  0.00000000000E+00 0.  1.
    9000005    2    1    2  501    0  0.14817249191E+02 -0.32444393701E+02 -0.30311184812E+03  0.30522207842E+03  0.33963404006E+01 0.  0.
         13    1    3    3    0    0  0.51760353585E+01 -0.96094583227E+01 -0.81228308208E+02  0.81958349700E+02  0.00000000000E+00 0.  1.
          1    1    3    3  501    0  0.96412138330E+01 -0.22834935378E+02 -0.22188353991E+03  0.22326372872E+03  0.00000000000E+00 0.  1.
         -1    1    1    2    0  502 -0.14817249191E+02  0.32444393701E+02 -0.69537596244E+03  0.69629011102E+03  0.00000000000E+00 0. -1.
<mgrwt>
<rscale>  1 0.30000000E+03</rscale>
<asrwt>0</asrwt>
<pdfrwt beam="1">  1       21 0.54988823E-02 0.30000000E+03</pdfrwt>
<pdfrwt beam="2">0</pdfrwt>
<totfact> 0.24482680E+04</totfact>
</mgrwt>
</event>
<event>
 6    1  0.1284012E-001  0.3000000E+03  0.7818608E-02  0.1093470E+00
         21   -1    0    0  501  502  0.00000000000E+00  0.00000000000E+00  0.98255049507E+00  0.98255049507E+00  0.00000000000E+00 0. -1.
         13   -1    0    0    0    0 -0.00000000000E+00 -0.00000000000E+00 -0.10000000000E+04  0.10000000000E+04  0.00000000000E+00 0.  1.
    9000005    2    1    2  501    0  0.21547274667E+02  0.22644819417E+02 -0.50592488370E+03  0.50690021794E+03  0.32817842179E+01 0.  0.
         13    1    3    3    0    0  0.19119568291E+02  0.18439555823E+02 -0.43258199968E+03  0.43339677151E+03  0.00000000000E+00 0.  1.
          1    1    3    3  501    0  0.24277063762E+01  0.42052635939E+01 -0.73342884016E+02  0.73503446422E+02  0.00000000000E+00 0.  1.
         -1    1    1    2    0  502 -0.21547274667E+02 -0.22644819417E+02 -0.49309256581E+03  0.49408233256E+03  0.00000000000E+00 0. -1.
<mgrwt>
<rscale>  1 0.30000000E+03</rscale>
<asrwt>0</asrwt>
<pdfrwt beam="1">  1       21 0.35729184E-02 0.30000000E+03</pdfrwt>
<pdfrwt beam="2">0</pdfrwt>
<totfact> 0.50829831E+04</totfact>
</mgrwt>
</event>
<event>
 6    1  0.1284012E-001  0.3000000E+03  0.7818608E-02  0.1093470E+00
         21   -1    0    0  501  502  0.00000000000E+00  0.00000000000E+00  0.10532678729E+01  0.10532678729E+01  0.00000000000E+00 0. -1.
         13   -1    0    0    0    0 -0.00000000000E+00 -0.00000000000E+00 -0.10000000000E+04  0.10000000000E+04  0.00000000000E+00 0.  1.
    9000005    2    1    2  501    0  0.21706680246E+02 -0.21389418252E+02 -0.66871456860E+03  0.66941797269E+03  0.35441117129E+01 0.  0.
         13    1    3    3    0    0  0.39063568067E+01 -0.54602782576E+01 -0.12778581887E+03  0.12796206377E+03  0.00000000000E+00 0.  1.
          3    1    3    3  501    0  0.17800323439E+02 -0.15929139995E+02 -0.54092874973E+03  0.54145590892E+03  0.00000000000E+00 0.  1.
         -1    1    1    2    0  502 -0.21706680246E+02  0.21389418252E+02 -0.33023216353E+03  0.33163529518E+03  0.00000000000E+00 0. -1.
<mgrwt>
<rscale>  1 0.30000000E+03</rscale>
<asrwt>0</asrwt>
<pdfrwt beam="1">  1       21 0.38300731E-02 0.30000000E+03</pdfrwt>
<pdfrwt beam="2">0</pdfrwt>
<totfact> 0.45232924E+04</totfact>
</mgrwt>
</event>
<event>
 6    1  0.1284012E-001  0.3000000E+03  0.7818608E-02  0.1093470E+00
         21   -1    0    0  501  502  0.00000000000E+00  0.00000000000E+00  0.15945221171E+01  0.15945221171E+01  0.00000000000E+00 0. -1.
         13   -1    0    0    0    0 -0.00000000000E+00 -0.00000000000E+00 -0.10000000000E+04  0.10000000000E+04  0.00000000000E+00 0.  1.
    9000005    2    1    2  501    0  0.33092880267E+02 -0.17892991139E+02 -0.66553433516E+03  0.66660423045E+03  0.31545071721E+01 0.  0.
         13    1    3    3    0    0  0.51587949617E+01 -0.18683824316E+01 -0.11111081598E+03  0.11124620194E+03  0.00000000000E+00 0.  1.
          1    1    3    3  501    0  0.27934085305E+02 -0.16024608708E+02 -0.55442351918E+03  0.55535802850E+03  0.00000000000E+00 0.  1.
         -3    1    1    2    0  502 -0.33092880267E+02  0.17892991139E+02 -0.33287114272E+03  0.33499029167E+03  0.00000000000E+00 0. -1.
<mgrwt>
<rscale>  1 0.30000000E+03</rscale>
<asrwt>0</asrwt>
<pdfrwt beam="1">  1       21 0.57982745E-02 0.30000000E+03</pdfrwt>
<pdfrwt beam="2">0</pdfrwt>
<totfact> 0.22351023E+04</totfact>
</mgrwt>
</event>
<event>
 6    1  0.1284012E-001  0.3000000E+03  0.7818608E-02  0.1093470E+00
         21   -1    0    0  501  502  0.00000000000E+00  0.00000000000E+00  0.95160403934E+00  0.95160403934E+00  0.00000000000E+00 0. -1.
         13   -1    0    0    0    0 -0.00000000000E+00 -0.00000000000E+00 -0.10000000000E+04  0.10000000000E+04  0.00000000000E+00 0.  1.
    9000005    2    1    2  501    0 -0.29823219668E+02  0.72025799027E+01 -0.53089397419E+03  0.53179292703E+03  0.37421678909E+01 0.  0.
         13    1    3    3    0    0 -0.19379527814E+02  0.57529058124E+01 -0.32335832566E+03  0.32398961217E+03  0.00000000000E+00 0.  1.
          1    1    3    3  501    0 -0.10443691854E+02  0.14496740903E+01 -0.20753564853E+03  0.20780331486E+03  0.00000000000E+00 0.  1.
         -1    1    1    2    0  502  0.29823219668E+02 -0.72025799027E+01 -0.46815442177E+03  0.46915867701E+03  0.00000000000E+00 0. -1.
<mgrwt>
<rscale>  1 0.30000000E+03</rscale>
<asrwt>0</asrwt>
<pdfrwt beam="1">  1       21 0.34603856E-02 0.30000000E+03</pdfrwt>
<pdfrwt beam="2">0</pdfrwt>
<totfact> 0.53628903E+04</totfact>
</mgrwt>
</event>
<event>
 6    1  0.1284012E-001  0.3000000E+03  0.7818608E-02  0.1093470E+00
         21   -1    0    0  501  502  0.00000000000E+00  0.00000000000E+00  0.91691290119E+00  0.91691290119E+00  0.00000000000E+00 0. -1.
         13   -1    0    0    0    0 -0.00000000000E+00 -0.00000000000E+00 -0.10000000000E+04  0.10000000000E+04  0.00000000000E+00 0.  1.
    9000005    2    1    2  501    0  0.28419294901E+02 -0.10182273133E+02 -0.51850655215E+03  0.51939314303E+03  0.29761374198E+01 0.  0.
         13    1    3    3    0    0  0.14020071375E+02 -0.37407036646E+01 -0.26332497107E+03  0.26372446920E+03  0.00000000000E+00 0.  1.
          1    1    3    3  501    0  0.14399223526E+02 -0.64415694685E+01 -0.25518158108E+03  0.25566867383E+03  0.00000000000E+00 0.  1.
         -3    1    1    2    0  502 -0.28419294901E+02  0.10182273133E+02 -0.48057653495E+03  0.48152376987E+03  0.00000000000E+00 0. -1.
<mgrwt>
<rscale>  1 0.30000000E+03</rscale>
<asrwt>0</asrwt>
<pdfrwt beam="1">  1       21 0.33342358E-02 0.30000000E+03</pdfrwt>
<pdfrwt beam="2">0</pdfrwt>
<totfact> 0.57062341E+04</totfact>
</mgrwt>
</event>
<event>
 6    1  0.1284012E-001  0.3000000E+03  0.7818608E-02  0.1093470E+00
         21   -1    0    0  501  502  0.00000000000E+00  0.00000000000E+00  0.31625129334E+01  0.31625129334E+01  0.00000000000E+00 0. -1.
         13   -1    0    0    0    0 -0.00000000000E+00 -0.00000000000E+00 -0.10000000000E+04  0.10000000000E+04  0.00000000000E+00 0.  1.
    9000005    2    1    2  501    0  0.14970896063E+02  0.50779866103E+02 -0.66675035108E+03  0.66885690443E+03  0.32871588536E+01 0.  0.
         13    1    3    3    0    0  0.71498852901E+01  0.18728508212E+02 -0.24802742768E+03  0.24883625692E+03  0.00000000000E+00 0.  1.
          3    1    3    3  501    0  0.78210107729E+01  0.32051357891E+02 -0.41872292340E+03  0.42002064751E+03  0.00000000000E+00 0.  1.
         -1    1    1    2    0  502 -0.14970896063E+02 -0.50779866103E+02 -0.33008713599E+03  0.33430560850E+03  0.00000000000E+00 0. -1.
<mgrwt>
<rscale>  1 0.30000000E+03</rscale>
<asrwt>0</asrwt>
<pdfrwt beam="1">  1       21 0.11500071E-01 0.30000000E+03</pdfrwt>
<pdfrwt beam="2">0</pdfrwt>
<totfact> 0.66934787E+03</totfact>
</mgrwt>
</event>
<event>
 6    1  0.1284012E-001  0.3000000E+03  0.7818608E-02  0.1093470E+00
         21   -1    0    0  501  502  0.00000000000E+00  0.00000000000E+00  0.10855061841E+01  0.10855061841E+01  0.00000000000E+00 0. -1.
         13   -1    0    0    0    0 -0.00000000000E+00 -0.00000000000E+00 -0.10000000000E+04  0.10000000000E+04  0.00000000000E+00 0.  1.
    9000005    2    1    2  501    0  0.64301392469E+01 -0.29834934697E+02 -0.68169330181E+03  0.68239952488E+03  0.56465751672E+01 0.  0.
         13    1    3    3    0    0  0.64871500756E+01 -0.17438790565E+02 -0.39301155801E+03  0.39345174960E+03  0.00000000000E+00 0.  1.
          3    1    3    3  501    0 -0.57010828702E-01 -0.12396144132E+02 -0.28868174380E+03  0.28894777528E+03  0.00000000000E+00 0.  1.
         -3    1    1    2    0  502 -0.64301392469E+01  0.29834934697E+02 -0.31722119201E+03  0.31868598130E+03  0.00000000000E+00 0. -1.
<mgrwt>
<rscale>  1 0.30000000E+03</rscale>
<asrwt>0</asrwt>
<pdfrwt beam="1">  1       21 0.39473035E-02 0.30000000E+03</pdfrwt>
<pdfrwt beam="2">0</pdfrwt>
<totfact> 0.42996618E+04</totfact>
</mgrwt>
</event>
<event>
 6    1  0.1284012E-001  0.3000000E+03  0.7818608E-02  0.1093470E+00
         21   -1    0    0  501  502  0.00000000000E+00  0.00000000000E+00  0.22263617389E+01  0.22263617389E+01  0.00000000000E+00 0. -1.
         13   -1    0    0    0    0 -0.00000000000E+00 -0.00000000000E+00 -0.10000000000E+04  0.10000000000E+04  0.00000000000E+00 0.  1.
    9000005    2    1    2  501    0 -0.39427267787E+02  0.11707554763E+02 -0.74284933863E+03  0.74400557476E+03  0.52515800119E+01 0.  0.
         13    1    3    3    0    0 -0.25865314682E+02  0.95812834574E+01 -0.52509879191E+03  0.52582274272E+03  0.00000000000E+00 0.  1.
          3    1    3    3  501    0 -0.13561953106E+02  0.21262713057E+01 -0.21775054672E+03  0.21818283204E+03  0.00000000000E+00 0.  1.
         -1    1    1    2    0  502  0.39427267787E+02 -0.11707554763E+02 -0.25492429963E+03  0.25822078698E+03  0.00000000000E+00 0. -1.
<mgrwt>
<rscale>  1 0.30000000E+03</rscale>
<asrwt>0</asrwt>
<pdfrwt beam="1">  1       21 0.80958779E-02 0.30000000E+03</pdfrwt>
<pdfrwt beam="2">0</pdfrwt>
<totfact> 0.12509255E+04</totfact>
</mgrwt>
</event>
<event>
 6    1  0.1284012E-001  0.3000000E+03  0.7818608E-02  0.1093470E+00
         21   -1    0    0  501  502  0.00000000000E+00  0.00000000000E+00  0.15863509706E+01  0.15863509706E+01  0.00000000000E+00 0. -1.
         13   -1    0    0    0    0 -0.00000000000E+00 -0.00000000000E+00 -0.10000000000E+04  0.10000000000E+04  0.00000000000E+00 0.  1.
    9000005    2    1    2  501    0 -0.21766146219E+02 -0.31743202038E+02 -0.62570287310E+03  0.62689351879E+03  0.31626718270E+01 0.  0.
         13    1    3    3    0    0 -0.11632157687E+02 -0.14820304778E+02 -0.28921996886E+03  0.28983295001E+03  0.00000000000E+00 0.  1.
          1    1    3    3  501    0 -0.10133988532E+02 -0.16922897259E+02 -0.33648290425E+03  0.33706056878E+03  0.00000000000E+00 0.  1.
         -3    1    1    2    0  502  0.21766146219E+02  0.31743202038E+02 -0.37271077593E+03  0.37469283218E+03  0.00000000000E+00 0. -1.
<mgrwt>
<rscale>  1 0.30000000E+03</rscale>
<asrwt>0</asrwt>
<pdfrwt beam="1">  1       21 0.57685611E-02 0.30000000E+03</pdfrwt>
<pdfrwt beam="2">0</pdfrwt>
<totfact> 0.22549608E+04</totfact>
</mgrwt>
</event>
<event>
 6    1  0.1284012E-001  0.3000000E+03  0.7818608E-02  0.1093470E+00
         21   -1    0    0  501  502  0.00000000000E+00  0.00000000000E+00  0.29856036350E+01  0.29856036350E+01  0.00000000000E+00 0. -1.
         13   -1    0    0    0    0 -0.00000000000E+00 -0.00000000000E+00 -0.10000000000E+04  0.10000000000E+04  0.00000000000E+00 0.  1.
    9000005    2    1    2  501    0  0.17960964759E+02 -0.36124561153E+02 -0.83655648573E+03  0.83753373372E+03  0.29019175681E+01 0.  0.
         13    1    3    3    0    0  0.11260463603E+02 -0.19618945662E+02 -0.45747797474E+03  0.45803689638E+03  0.00000000000E+00 0.  1.
          3    1    3    3  501    0  0.67005011562E+01 -0.16505615491E+02 -0.37907851099E+03  0.37949683734E+03  0.00000000000E+00 0.  1.
         -3    1    1    2    0  502 -0.17960964759E+02  0.36124561153E+02 -0.16045791063E+03  0.16545186991E+03  0.00000000000E+00 0. -1.
<mgrwt>
<rscale>  1 0.30000000E+03</rscale>
<asrwt>0</asrwt>
<pdfrwt beam="1">  1       21 0.10856763E-01 0.30000000E+03</pdfrwt>
<pdfrwt beam="2">0</pdfrwt>
<totfact> 0.74249704E+03</totfact>
</mgrwt>
</event>
<event>
 6    1  0.1284012E-001  0.3000000E+03  0.7818608E-02  0.1093470E+00
         21   -1    0    0  501  502  0.00000000000E+00  0.00000000000E+00  0.35769429495E+01  0.35769429495E+01  0.00000000000E+00 0. -1.
         13   -1    0    0    0    0 -0.00000000000E+00 -0.00000000000E+00 -0.10000000000E+04  0.10000000000E+04  0.00000000000E+00 0.  1.
    9000005    2    1    2  501    0 -0.58250416856E+02  0.11536128260E+02 -0.44387063903E+03  0.44784286268E+03  0.39864942305E+01 0.  0.
         13    1    3    3    0    0 -0.47988086864E+02  0.10924142967E+02 -0.36279210362E+03  0.36611515105E+03  0.00000000000E+00 0.  1.
          1    1    3    3  501    0 -0.10262329992E+02  0.61198529313E+00 -0.81078535417E+02  0.81727711630E+02  0.00000000000E+00 0.  1.
         -1    1    1    2    0  502  0.58250416856E+02 -0.11536128260E+02 -0.55255241802E+03  0.55573408027E+03  0.00000000000E+00 0. -1.
<mgrwt>
<rscale>  1 0.30000000E+03</rscale>
<asrwt>0</asrwt>
<pdfrwt beam="1">  1       21 0.13007093E-01 0.30000000E+03</pdfrwt>
<pdfrwt beam="2">0</pdfrwt>
<totfact> 0.53511914E+03</totfact>
</mgrwt>
</event>
<event>
 6    1  0.1284012E-001  0.3000000E+03  0.7818608E-02  0.1093470E+00
         21   -1    0    0  501  502  0.00000000000E+00  0.00000000000E+00  0.16659233146E+01  0.16659233146E+01  0.00000000000E+00 0. -1.
         13   -1    0    0    0    0 -0.00000000000E+00 -0.00000000000E+00 -0.10000000000E+04  0.10000000000E+04  0.00000000000E+00 0.  1.
    9000005    2    1    2  501    0 -0.93999727949E+01  0.29824331964E+02 -0.82047215945E+03  0.82107602363E+03  0.36635885492E+01 0.  0.
         13    1    3    3    0    0 -0.32276393863E+01  0.63460402314E+01 -0.16149844762E+03  0.16165530757E+03  0.00000000000E+00 0.  1.
          1    1    3    3  501    0 -0.61723334086E+01  0.23478291733E+02 -0.65897371183E+03  0.65942071606E+03  0.00000000000E+00 0.  1.
         -3    1    1    2    0  502  0.93999727949E+01 -0.29824331964E+02 -0.17786191724E+03  0.18058989969E+03  0.00000000000E+00 0. -1.
<mgrwt>
<rscale>  1 0.30000000E+03</rscale>
<asrwt>0</asrwt>
<pdfrwt beam="1">  1       21 0.60579157E-02 0.30000000E+03</pdfrwt>
<pdfrwt beam="2">0</pdfrwt>
<totfact> 0.20725371E+04</totfact>
</mgrwt>
</event>
<event>
 6    1  0.1284012E-001  0.3000000E+03  0.7818608E-02  0.1093470E+00
         21   -1    0    0  501  502  0.00000000000E+00  0.00000000000E+00  0.35315944762E+01  0.35315944762E+01  0.00000000000E+00 0. -1.
         13   -1    0    0    0    0 -0.00000000000E+00 -0.00000000000E+00 -0.10000000000E+04  0.10000000000E+04  0.00000000000E+00 0.  1.
    9000005    2    1    2  501    0 -0.29744544395E+02 -0.31312499698E+02 -0.84272935677E+03  0.84384156452E+03  0.32567891704E+01 0.  0.
         13    1    3    3    0    0 -0.12162041515E+02 -0.11145519009E+02 -0.30035828913E+03  0.30081097004E+03  0.00000000000E+00 0.  1.
          3    1    3    3  501    0 -0.17582502880E+02 -0.20166980689E+02 -0.54237106764E+03  0.54303059447E+03  0.00000000000E+00 0.  1.
         -1    1    1    2    0  502  0.29744544395E+02  0.31312499698E+02 -0.15373904875E+03  0.15969002996E+03  0.00000000000E+00 0. -1.
<mgrwt>
<rscale>  1 0.30000000E+03</rscale>
<asrwt>0</asrwt>
<pdfrwt beam="1">  1       21 0.12842189E-01 0.30000000E+03</pdfrwt>
<pdfrwt beam="2">0</pdfrwt>
<totfact> 0.54772847E+03</totfact>
</mgrwt>
</event>
<event>
 6    1  0.1284012E-001  0.3000000E+03  0.7818608E-02  0.1093470E+00
         21   -1    0    0  501  502  0.00000000000E+00  0.00000000000E+00  0.29271060855E+01  0.29271060855E+01  0.00000000000E+00 0. -1.
         13   -1    0    0    0    0 -0.00000000000E+00 -0.00000000000E+00 -0.10000000000E+04  0.10000000000E+04  0.00000000000E+00 0.  1.
    9000005    2    1    2  501    0 -0.17740029886E+02  0.35589913341E+02 -0.83813979484E+03  0.83909462892E+03  0.44866468615E+01 0.  0.
         13    1    3    3    0    0 -0.16771221798E+02  0.31374999730E+02 -0.76543757826E+03  0.76626389103E+03  0.00000000000E+00 0.  1.
          1    1    3    3  501    0 -0.96880808811E+00  0.42149136108E+01 -0.72702216579E+02  0.72830737889E+02  0.00000000000E+00 0.  1.
         -1    1    1    2    0  502  0.17740029886E+02 -0.35589913341E+02 -0.15893309908E+03  0.16383247717E+03  0.00000000000E+00 0. -1.
<mgrwt>
<rscale>  1 0.30000000E+03</rscale>
<asrwt>0</asrwt>
<pdfrwt beam="1">  1       21 0.10644045E-01 0.30000000E+03</pdfrwt>
<pdfrwt beam="2">0</pdfrwt>
<totfact> 0.76935506E+03</totfact>
</mgrwt>
</event>
<event>
 6    1  0.1284012E-001  0.3000000E+03  0.7818608E-02  0.1093470E+00
         21   -1    0    0  501  502  0.00000000000E+00  0.00000000000E+00  0.12284228055E+01  0.12284228055E+01  0.00000000000E+00 0. -1.
         13   -1    0    0    0    0 -0.00000000000E+00 -0.00000000000E+00 -0.10000000000E+04  0.10000000000E+04  0.00000000000E+00 0.  1.
    9000005    2    1    2  501    0 -0.29681489801E+02  0.53612356596E+01 -0.75284318747E+03  0.75345734589E+03  0.39209013442E+01 0.  0.
         13    1    3    3    0    0 -0.12588859307E+00  0.33655947873E+00 -0.46958432269E+01  0.47095715125E+01  0.00000000000E+00 0.  1.
          3    1    3    3  501    0 -0.29555601208E+02  0.50246761808E+01 -0.74814734424E+03  0.74874777438E+03  0.00000000000E+00 0.  1.
         -3    1    1    2    0  502  0.29681489801E+02 -0.53612356596E+01 -0.24592838972E+03  0.24777107692E+03  0.00000000000E+00 0. -1.
<mgrwt>
<rscale>  1 0.30000000E+03</rscale>
<asrwt>0</asrwt>
<pdfrwt beam="1">  1       21 0.44670014E-02 0.30000000E+03</pdfrwt>
<pdfrwt beam="2">0</pdfrwt>
<totfact> 0.34891117E+04</totfact>
</mgrwt>
</event>
<event>
 6    1  0.1284012E-001  0.3000000E+03  0.7818608E-02  0.1093470E+00
         21   -1    0    0  501  502  0.00000000000E+00  0.00000000000E+00  0.14617396576E+01  0.14617396576E+01  0.00000000000E+00 0. -1.
         13   -1    0    0    0    0 -0.00000000000E+00 -0.00000000000E+00 -0.10000000000E+04  0.10000000000E+04  0.00000000000E+00 0.  1.
    9000005    2    1    2  501    0 -0.11092584401E+02 -0.34255332423E+02 -0.66576273856E+03  0.66674391652E+03  0.33095217105E+01 0.  0.
         13    1    3    3    0    0 -0.41293907262E+01 -0.10600010740E+02 -0.23662118382E+03  0.23689448438E+03  0.00000000000E+00 0.  1.
          1    1    3    3  501    0 -0.69631936747E+01 -0.23655321684E+02 -0.42914155474E+03  0.42984943214E+03  0.00000000000E+00 0.  1.
         -3    1    1    2    0  502  0.11092584401E+02  0.34255332423E+02 -0.33277552178E+03  0.33471782314E+03  0.00000000000E+00 0. -1.
<mgrwt>
<rscale>  1 0.30000000E+03</rscale>
<asrwt>0</asrwt>
<pdfrwt beam="1">  1       21 0.53154281E-02 0.30000000E+03</pdfrwt>
<pdfrwt beam="2">0</pdfrwt>
<totfact> 0.25947534E+04</totfact>
</mgrwt>
</event>
<event>
 6    1  0.1284012E-001  0.3000000E+03  0.7818608E-02  0.1093470E+00
         21   -1    0    0  501  502  0.00000000000E+00  0.00000000000E+00  0.29558799225E+01  0.29558799225E+01  0.00000000000E+00 0. -1.
         13   -1    0    0    0    0 -0.00000000000E+00 -0.00000000000E+00 -0.10000000000E+04  0.10000000000E+04  0.00000000000E+00 0.  1.
    9000005    2    1    2  501    0 -0.21129613434E+02  0.37535458835E+02 -0.80428630894E+03  0.80544399423E+03  0.28617940083E+01 0.  0.
         13    1    3    3    0    0 -0.16800623598E+02  0.29870464969E+02 -0.66042599174E+03  0.66131459700E+03  0.00000000000E+00 0.  1.
          1    1    3    3  501    0 -0.43289898364E+01  0.76649938666E+01 -0.14386031719E+03  0.14412939723E+03  0.00000000000E+00 0.  1.
         -3    1    1    2    0  502  0.21129613434E+02 -0.37535458835E+02 -0.19275781114E+03  0.19751188569E+03  0.00000000000E+00 0. -1.
<mgrwt>
<rscale>  1 0.30000000E+03</rscale>
<asrwt>0</asrwt>
<pdfrwt beam="1">  1       21 0.10748677E-01 0.30000000E+03</pdfrwt>
<pdfrwt beam="2">0</pdfrwt>
<totfact> 0.75596362E+03</totfact>
</mgrwt>
</event>
<event>
 6    1  0.1284012E-001  0.3000000E+03  0.7818608E-02  0.1093470E+00
         21   -1    0    0  501  502  0.00000000000E+00  0.00000000000E+00  0.16273111251E+01  0.16273111251E+01  0.00000000000E+00 0. -1.
         13   -1    0    0    0    0 -0.00000000000E+00 -0.00000000000E+00 -0.10000000000E+04  0.10000000000E+04  0.00000000000E+00 0.  1.
    9000005    2    1    2  501    0  0.33940102133E+02  0.21645806878E+02 -0.48059774488E+03  0.48228988313E+03  0.29778343176E+01 0.  0.
         13    1    3    3    0    0  0.31275584980E+02  0.20677420380E+02 -0.44113112898E+03  0.44272157264E+03  0.00000000000E+00 0.  1.
          1    1    3    3  501    0  0.26645171526E+01  0.96838649815E+00 -0.39466615905E+02  0.39568310490E+02  0.00000000000E+00 0.  1.
         -3    1    1    2    0  502 -0.33940102133E+02 -0.21645806878E+02 -0.51777494399E+03  0.51933742799E+03  0.00000000000E+00 0. -1.
<mgrwt>
<rscale>  1 0.30000000E+03</rscale>
<asrwt>0</asrwt>
<pdfrwt beam="1">  1       21 0.59175075E-02 0.30000000E+03</pdfrwt>
<pdfrwt beam="2">0</pdfrwt>
<totfact> 0.21580693E+04</totfact>
</mgrwt>
</event>
<event>
 6    1  0.1284012E-001  0.3000000E+03  0.7818608E-02  0.1093470E+00
         21   -1    0    0  501  502  0.00000000000E+00  0.00000000000E+00  0.68805810127E+01  0.68805810127E+01  0.00000000000E+00 0. -1.
         13   -1    0    0    0    0 -0.00000000000E+00 -0.00000000000E+00 -0.10000000000E+04  0.10000000000E+04  0.00000000000E+00 0.  1.
    9000005    2    1    2  501    0  0.16248833333E+02  0.27799607520E+02 -0.96050027867E+03  0.96104553898E+03  0.33015010260E+01 0.  0.
         13    1    3    3    0    0  0.19354341188E+01  0.58721598118E+01 -0.18172819977E+03  0.18183334886E+03  0.00000000000E+00 0.  1.
          3    1    3    3  501    0  0.14313399214E+02  0.21927447708E+02 -0.77877207890E+03  0.77921219012E+03  0.00000000000E+00 0.  1.
         -1    1    1    2    0  502 -0.16248833333E+02 -0.27799607520E+02 -0.32619140318E+02  0.45835042032E+02  0.00000000000E+00 0. -1.
<mgrwt>
<rscale>  1 0.30000000E+03</rscale>
<asrwt>0</asrwt>
<pdfrwt beam="1">  1       21 0.25020347E-01 0.30000000E+03</pdfrwt>
<pdfrwt beam="2">0</pdfrwt>
<totfact> 0.15571163E+03</totfact>
</mgrwt>
</event>
<event>
 6    1  0.1284012E-001  0.3000000E+03  0.7818608E-02  0.1093470E+00
         21   -1    0    0  501  502  0.00000000000E+00  0.00000000000E+00  0.20908298864E+01  0.20908298864E+01  0.00000000000E+00 0. -1.
         13   -1    0    0    0    0 -0.00000000000E+00 -0.00000000000E+00 -0.10000000000E+04  0.10000000000E+04  0.00000000000E+00 0.  1.
    9000005    2    1    2  501    0 -0.29282745561E+02  0.18027653971E+02 -0.82859596521E+03  0.82932093422E+03  0.44116744100E+01 0.  0.
         13    1    3    3    0    0 -0.26015645346E+02  0.17399307162E+02 -0.73575106714E+03  0.73641644637E+03  0.00000000000E+00 0.  1.
          1    1    3    3  501    0 -0.32671002151E+01  0.62834680883E+00 -0.92844898072E+02  0.92904487844E+02  0.00000000000E+00 0.  1.
         -1    1    1    2    0  502  0.29282745561E+02 -0.18027653971E+02 -0.16931320490E+03  0.17276989567E+03  0.00000000000E+00 0. -1.
<mgrwt>
<rscale>  1 0.30000000E+03</rscale>
<asrwt>0</asrwt>
<pdfrwt beam="1">  1       21 0.76030338E-02 0.30000000E+03</pdfrwt>
<pdfrwt beam="2">0</pdfrwt>
<totfact> 0.13966688E+04</totfact>
</mgrwt>
</event>
<event>
 6    1  0.1284012E-001  0.3000000E+03  0.7818608E-02  0.1093470E+00
         21   -1    0    0  501  502  0.00000000000E+00  0.00000000000E+00  0.14094137154E+01  0.14094137154E+01  0.00000000000E+00 0. -1.
         13   -1    0    0    0    0 -0.00000000000E+00 -0.00000000000E+00 -0.10000000000E+04  0.10000000000E+04  0.00000000000E+00 0.  1.
    9000005    2    1    2  501    0  0.12285765110E+02 -0.34582761036E+02 -0.60030934019E+03  0.60144084198E+03  0.35881885993E+01 0.  0.
         13    1    3    3    0    0  0.20677818603E+01 -0.47588767968E+01 -0.67077997594E+02  0.67278379821E+02  0.00000000000E+00 0.  1.
          1    1    3    3  501    0  0.10217983250E+02 -0.29823884239E+02 -0.53323134259E+03  0.53416246216E+03  0.00000000000E+00 0.  1.
         -1    1    1    2    0  502 -0.12285765110E+02  0.34582761036E+02 -0.39828124610E+03  0.39996857174E+03  0.00000000000E+00 0. -1.
<mgrwt>
<rscale>  1 0.30000000E+03</rscale>
<asrwt>0</asrwt>
<pdfrwt beam="1">  1       21 0.51251516E-02 0.30000000E+03</pdfrwt>
<pdfrwt beam="2">0</pdfrwt>
<totfact> 0.27615185E+04</totfact>
</mgrwt>
</event>
<event>
 6    1  0.1284012E-001  0.3000000E+03  0.7818608E-02  0.1093470E+00
         21   -1    0    0  501  502  0.00000000000E+00  0.00000000000E+00  0.29022587142E+01  0.29022587142E+01  0.00000000000E+00 0. -1.
         13   -1    0    0    0    0 -0.00000000000E+00 -0.00000000000E+00 -0.10000000000E+04  0.10000000000E+04  0.00000000000E+00 0.  1.
    9000005    2    1    2  501    0 -0.24766241446E+02  0.19642225010E+02 -0.90448549491E+03  0.90504413745E+03  0.34200162133E+01 0.  0.
         13    1    3    3    0    0 -0.19711549757E+02  0.13880474817E+02 -0.67181131512E+03  0.67224374738E+03  0.00000000000E+00 0.  1.
          1    1    3    3  501    0 -0.50546916889E+01  0.57617501926E+01 -0.23267417979E+03  0.23280039007E+03  0.00000000000E+00 0.  1.
         -1    1    1    2    0  502  0.24766241446E+02 -0.19642225010E+02 -0.92612246379E+02  0.97858121268E+02  0.00000000000E+00 0. -1.
<mgrwt>
<rscale>  1 0.30000000E+03</rscale>
<asrwt>0</asrwt>
<pdfrwt beam="1">  1       21 0.10553690E-01 0.30000000E+03</pdfrwt>
<pdfrwt beam="2">0</pdfrwt>
<totfact> 0.78121045E+03</totfact>
</mgrwt>
</event>
<event>
 6    1  0.1284012E-001  0.3000000E+03  0.7818608E-02  0.1093470E+00
         21   -1    0    0  501  502  0.00000000000E+00  0.00000000000E+00  0.12553399437E+01  0.12553399437E+01  0.00000000000E+00 0. -1.
         13   -1    0    0    0    0 -0.00000000000E+00 -0.00000000000E+00 -0.10000000000E+04  0.10000000000E+04  0.00000000000E+00 0.  1.
    9000005    2    1    2  501    0  0.74941522845E+01 -0.34077729456E+02 -0.58101525089E+03  0.58207123571E+03  0.32783694048E+01 0.  0.
         13    1    3    3    0    0  0.45801363335E+01 -0.26559040428E+02 -0.43662485696E+03  0.43745585605E+03  0.00000000000E+00 0.  1.
          1    1    3    3  501    0  0.29140159509E+01 -0.75186890275E+01 -0.14439039393E+03  0.14461537966E+03  0.00000000000E+00 0.  1.
         -3    1    1    2    0  502 -0.74941522845E+01  0.34077729456E+02 -0.41772940916E+03  0.41918410424E+03  0.00000000000E+00 0. -1.
<mgrwt>
<rscale>  1 0.30000000E+03</rscale>
<asrwt>0</asrwt>
<pdfrwt beam="1">  1       21 0.45648821E-02 0.30000000E+03</pdfrwt>
<pdfrwt beam="2">0</pdfrwt>
<totfact> 0.33630772E+04</totfact>
</mgrwt>
</event>
<event>
 6    1  0.1284012E-001  0.3000000E+03  0.7818608E-02  0.1093470E+00
         21   -1    0    0  501  502  0.00000000000E+00  0.00000000000E+00  0.74902169576E+01  0.74902169576E+01  0.00000000000E+00 0. -1.
         13   -1    0    0    0    0 -0.00000000000E+00 -0.00000000000E+00 -0.10000000000E+04  0.10000000000E+04  0.00000000000E+00 0.  1.
    9000005    2    1    2  501    0 -0.33040965107E+02 -0.24003159663E+01 -0.96161637577E+03  0.96219265075E+03  0.33430678544E+01 0.  0.
         13    1    3    3    0    0 -0.79351546563E+01  0.78950995863E+00 -0.21857380050E+03  0.21871921788E+03  0.00000000000E+00 0.  1.
          1    1    3    3  501    0 -0.25105810451E+02 -0.31898259249E+01 -0.74304257527E+03  0.74347343287E+03  0.00000000000E+00 0.  1.
         -1    1    1    2    0  502  0.33040965107E+02  0.24003159663E+01 -0.30893407268E+02  0.45297566210E+02  0.00000000000E+00 0. -1.
<mgrwt>
<rscale>  1 0.30000000E+03</rscale>
<asrwt>0</asrwt>
<pdfrwt beam="1">  1       21 0.27237210E-01 0.30000000E+03</pdfrwt>
<pdfrwt beam="2">0</pdfrwt>
<totfact> 0.13175081E+03</totfact>
</mgrwt>
</event>
<event>
 6    1  0.1284012E-001  0.3000000E+03  0.7818608E-02  0.1093470E+00
         21   -1    0    0  501  502  0.00000000000E+00  0.00000000000E+00  0.11046880749E+01  0.11046880749E+01  0.00000000000E+00 0. -1.
         13   -1    0    0    0    0 -0.00000000000E+00 -0.00000000000E+00 -0.10000000000E+04  0.10000000000E+04  0.00000000000E+00 0.  1.
    9000005    2    1    2  501    0 -0.14418869809E+01 -0.33022409010E+02 -0.54116903040E+03  0.54218649565E+03  0.31173822416E+01 0.  0.
         13    1    3    3    0    0 -0.93066143243E+00 -0.28315762267E+02 -0.47930575999E+03  0.48014233315E+03  0.00000000000E+00 0.  1.
          3    1    3    3  501    0 -0.51122554846E+00 -0.47066467424E+01 -0.61863270404E+02  0.62044162499E+02  0.00000000000E+00 0.  1.
         -1    1    1    2    0  502  0.14418869809E+01  0.33022409010E+02 -0.45772628153E+03  0.45891819242E+03  0.00000000000E+00 0. -1.
<mgrwt>
<rscale>  1 0.30000000E+03</rscale>
<asrwt>0</asrwt>
<pdfrwt beam="1">  1       21 0.40170560E-02 0.30000000E+03</pdfrwt>
<pdfrwt beam="2">0</pdfrwt>
<totfact> 0.41747080E+04</totfact>
</mgrwt>
</event>
<event>
 6    1  0.1284012E-001  0.3000000E+03  0.7818608E-02  0.1093470E+00
         21   -1    0    0  501  502  0.00000000000E+00  0.00000000000E+00  0.45267640592E+01  0.45267640592E+01  0.00000000000E+00 0. -1.
         13   -1    0    0    0    0 -0.00000000000E+00 -0.00000000000E+00 -0.10000000000E+04  0.10000000000E+04  0.00000000000E+00 0.  1.
    9000005    2    1    2  501    0  0.45854141628E+02  0.28460872229E+02 -0.79740980138E+03  0.79924221115E+03  0.36190049593E+01 0.  0.
         13    1    3    3    0    0  0.42238048375E+01  0.26306206927E+01 -0.90517329784E+02  0.90653999822E+02  0.00000000000E+00 0.  1.
          3    1    3    3  501    0  0.41630336790E+02  0.25830251537E+02 -0.70689247160E+03  0.70858821133E+03  0.00000000000E+00 0.  1.
         -3    1    1    2    0  502 -0.45854141628E+02 -0.28460872229E+02 -0.19806343456E+03  0.20528455290E+03  0.00000000000E+00 0. -1.
<mgrwt>
<rscale>  1 0.30000000E+03</rscale>
<asrwt>0</asrwt>
<pdfrwt beam="1">  1       21 0.16460995E-01 0.30000000E+03</pdfrwt>
<pdfrwt beam="2">0</pdfrwt>
<totfact> 0.34641137E+03</totfact>
</mgrwt>
</event>
<event>
 6    1  0.1284012E-001  0.3000000E+03  0.7818608E-02  0.1093470E+00
         21   -1    0    0  501  502  0.00000000000E+00  0.00000000000E+00  0.10972859757E+02  0.10972859757E+02  0.00000000000E+00 0. -1.
         13   -1    0    0    0    0 -0.00000000000E+00 -0.00000000000E+00 -0.10000000000E+04  0.10000000000E+04  0.00000000000E+00 0.  1.
    9000005    2    1    2  501    0 -0.32707109416E+01  0.54844164352E+02 -0.92485303268E+03  0.92649270827E+03  0.41263192404E+01 0.  0.
         13    1    3    3    0    0 -0.87620193481E+00  0.34271616293E+02 -0.60343986082E+03  0.60441291932E+03  0.00000000000E+00 0.  1.
          3    1    3    3  501    0 -0.23945090068E+01  0.20572548059E+02 -0.32141317186E+03  0.32207978895E+03  0.00000000000E+00 0.  1.
         -1    1    1    2    0  502  0.32707109416E+01 -0.54844164352E+02 -0.64174107564E+02  0.84480151487E+02  0.00000000000E+00 0. -1.
<mgrwt>
<rscale>  1 0.30000000E+03</rscale>
<asrwt>0</asrwt>
<pdfrwt beam="1">  1       21 0.39901392E-01 0.30000000E+03</pdfrwt>
<pdfrwt beam="2">0</pdfrwt>
<totfact> 0.60713868E+02</totfact>
</mgrwt>
</event>
<event>
 6    1  0.1284012E-001  0.3000000E+03  0.7818608E-02  0.1093470E+00
         21   -1    0    0  501  502  0.00000000000E+00  0.00000000000E+00  0.14256282537E+01  0.14256282537E+01  0.00000000000E+00 0. -1.
         13   -1    0    0    0    0 -0.00000000000E+00 -0.00000000000E+00 -0.10000000000E+04  0.10000000000E+04  0.00000000000E+00 0.  1.
    9000005    2    1    2  501    0  0.15938911206E+02  0.30288035929E+02 -0.70902492895E+03  0.70986038027E+03  0.37410676180E+01 0.  0.
         13    1    3    3    0    0  0.15604186880E+02  0.27514498077E+02 -0.65465010347E+03  0.65541383585E+03  0.00000000000E+00 0.  1.
          3    1    3    3  501    0  0.33472432513E+00  0.27735378525E+01 -0.54374825483E+02  0.54446544417E+02  0.00000000000E+00 0.  1.
         -1    1    1    2    0  502 -0.15938911206E+02 -0.30288035929E+02 -0.28954944280E+03  0.29156524799E+03  0.00000000000E+00 0. -1.
<mgrwt>
<rscale>  1 0.30000000E+03</rscale>
<asrwt>0</asrwt>
<pdfrwt beam="1">  1       21 0.51841137E-02 0.30000000E+03</pdfrwt>
<pdfrwt beam="2">0</pdfrwt>
<totfact> 0.27081055E+04</totfact>
</mgrwt>
</event>
<event>
 6    1  0.1284012E-001  0.3000000E+03  0.7818608E-02  0.1093470E+00
         21   -1    0    0  501  502  0.00000000000E+00  0.00000000000E+00  0.20517095632E+01  0.20517095632E+01  0.00000000000E+00 0. -1.
         13   -1    0    0    0    0 -0.00000000000E+00 -0.00000000000E+00 -0.10000000000E+04  0.10000000000E+04  0.00000000000E+00 0.  1.
    9000005    2    1    2  501    0  0.36987657034E+02 -0.22543275058E+02 -0.35555877677E+03  0.35820345625E+03  0.33743605825E+01 0.  0.
         13    1    3    3    0    0  0.13973254340E+02 -0.10427369700E+02 -0.14491929486E+03  0.14596432406E+03  0.00000000000E+00 0.  1.
          3    1    3    3  501    0  0.23014402694E+02 -0.12115905357E+02 -0.21063948191E+03  0.21223913219E+03  0.00000000000E+00 0.  1.
         -1    1    1    2    0  502 -0.36987657034E+02  0.22543275058E+02 -0.64238951366E+03  0.64384825331E+03  0.00000000000E+00 0. -1.
<mgrwt>
<rscale>  1 0.30000000E+03</rscale>
<asrwt>0</asrwt>
<pdfrwt beam="1">  1       21 0.74607778E-02 0.30000000E+03</pdfrwt>
<pdfrwt beam="2">0</pdfrwt>
<totfact> 0.14436374E+04</totfact>
</mgrwt>
</event>
<event>
 6    1  0.1284012E-001  0.3000000E+03  0.7818608E-02  0.1093470E+00
         21   -1    0    0  501  502  0.00000000000E+00  0.00000000000E+00  0.31793925928E+01  0.31793925928E+01  0.00000000000E+00 0. -1.
         13   -1    0    0    0    0 -0.00000000000E+00 -0.00000000000E+00 -0.10000000000E+04  0.10000000000E+04  0.00000000000E+00 0.  1.
    9000005    2    1    2  501    0 -0.12387418164E+02 -0.52454554157E+02 -0.64419682397E+03  0.64646037007E+03  0.40661632681E+01 0.  0.
         13    1    3    3    0    0 -0.35304647059E+01 -0.19922172077E+02 -0.22272342543E+03  0.22364051814E+03  0.00000000000E+00 0.  1.
          1    1    3    3  501    0 -0.88569534579E+01 -0.32532382080E+02 -0.42147339854E+03  0.42281985193E+03  0.00000000000E+00 0.  1.
         -1    1    1    2    0  502  0.12387418164E+02  0.52454554157E+02 -0.35262378344E+03  0.35671902252E+03  0.00000000000E+00 0. -1.
<mgrwt>
<rscale>  1 0.30000000E+03</rscale>
<asrwt>0</asrwt>
<pdfrwt beam="1">  1       21 0.11561452E-01 0.30000000E+03</pdfrwt>
<pdfrwt beam="2">0</pdfrwt>
<totfact> 0.66294001E+03</totfact>
</mgrwt>
</event>
<event>
 6    1  0.1284012E-001  0.3000000E+03  0.7818608E-02  0.1093470E+00
         21   -1    0    0  501  502  0.00000000000E+00  0.00000000000E+00  0.17641197108E+01  0.17641197108E+01  0.00000000000E+00 0. -1.
         13   -1    0    0    0    0 -0.00000000000E+00 -0.00000000000E+00 -0.10000000000E+04  0.10000000000E+04  0.00000000000E+00 0.  1.
    9000005    2    1    2  501    0 -0.31540567472E+02 -0.22038391945E+02 -0.69889317195E+03  0.69995862746E+03  0.31490067386E+01 0.  0.
         13    1    3    3    0    0 -0.31526315731E+02 -0.21739110708E+02 -0.69175863637E+03  0.69281780326E+03  0.00000000000E+00 0.  1.
          1    1    3    3  501    0 -0.14251741004E-01 -0.29928123728E+00 -0.71345355829E+01  0.71408242070E+01  0.00000000000E+00 0.  1.
         -3    1    1    2    0  502  0.31540567472E+02  0.22038391945E+02 -0.29934270834E+03  0.30180549225E+03  0.00000000000E+00 0. -1.
<mgrwt>
<rscale>  1 0.30000000E+03</rscale>
<asrwt>0</asrwt>
<pdfrwt beam="1">  1       21 0.64149943E-02 0.30000000E+03</pdfrwt>
<pdfrwt beam="2">0</pdfrwt>
<totfact> 0.18772923E+04</totfact>
</mgrwt>
</event>
<event>
 6    1  0.1284012E-001  0.3000000E+03  0.7818608E-02  0.1093470E+00
         21   -1    0    0  501  502  0.00000000000E+00  0.00000000000E+00  0.12389178801E+01  0.12389178801E+01  0.00000000000E+00 0. -1.
         13   -1    0    0    0    0 -0.00000000000E+00 -0.00000000000E+00 -0.10000000000E+04  0.10000000000E+04  0.00000000000E+00 0.  1.
    9000005    2    1    2  501    0  0.57046338267E+01 -0.32452905343E+02 -0.67359796302E+03  0.67441054100E+03  0.31029200798E+01 0.  0.
         13    1    3    3    0    0  0.22838025521E+01 -0.16775273411E+02 -0.37440436802E+03  0.37478694794E+03  0.00000000000E+00 0.  1.
          3    1    3    3  501    0  0.34208312746E+01 -0.15677631932E+02 -0.29919359500E+03  0.29962359306E+03  0.00000000000E+00 0.  1.
         -3    1    1    2    0  502 -0.57046338267E+01  0.32452905343E+02 -0.32516311910E+03  0.32682837688E+03  0.00000000000E+00 0. -1.
<mgrwt>
<rscale>  1 0.30000000E+03</rscale>
<asrwt>0</asrwt>
<pdfrwt beam="1">  1       21 0.45051654E-02 0.30000000E+03</pdfrwt>
<pdfrwt beam="2">0</pdfrwt>
<totfact> 0.34391171E+04</totfact>
</mgrwt>
</event>
<event>
 6    1  0.1284012E-001  0.3000000E+03  0.7818608E-02  0.1093470E+00
         21   -1    0    0  501  502  0.00000000000E+00  0.00000000000E+00  0.32625707548E+01  0.32625707548E+01  0.00000000000E+00 0. -1.
         13   -1    0    0    0    0 -0.00000000000E+00 -0.00000000000E+00 -0.10000000000E+04  0.10000000000E+04  0.00000000000E+00 0.  1.
    9000005    2    1    2  501    0 -0.35869502012E+02 -0.13044162000E+02 -0.87142336752E+03  0.87226491657E+03  0.32600421905E+01 0.  0.
         13    1    3    3    0    0 -0.24504441521E+02 -0.75459735920E+01 -0.56449981353E+03  0.56508180722E+03  0.00000000000E+00 0.  1.
          1    1    3    3  501    0 -0.11365060491E+02 -0.54981884082E+01 -0.30692355399E+03  0.30718310935E+03  0.00000000000E+00 0.  1.
         -3    1    1    2    0  502  0.35869502012E+02  0.13044162000E+02 -0.12531406172E+03  0.13099765419E+03  0.00000000000E+00 0. -1.
<mgrwt>
<rscale>  1 0.30000000E+03</rscale>
<asrwt>0</asrwt>
<pdfrwt beam="1">  1       21 0.11863919E-01 0.30000000E+03</pdfrwt>
<pdfrwt beam="2">0</pdfrwt>
<totfact> 0.63266451E+03</totfact>
</mgrwt>
</event>
<event>
 6    1  0.1284012E-001  0.3000000E+03  0.7818608E-02  0.1093470E+00
         21   -1    0    0  501  502  0.00000000000E+00  0.00000000000E+00  0.14198047255E+01  0.14198047255E+01  0.00000000000E+00 0. -1.
         13   -1    0    0    0    0 -0.00000000000E+00 -0.00000000000E+00 -0.10000000000E+04  0.10000000000E+04  0.00000000000E+00 0.  1.
    9000005    2    1    2  501    0 -0.37193346495E+02 -0.91008652418E+00 -0.57470992488E+03  0.57591988768E+03  0.28365453455E+01 0.  0.
         13    1    3    3    0    0 -0.16328365403E+02  0.96373103877E+00 -0.24657201092E+03  0.24711394307E+03  0.00000000000E+00 0.  1.
          1    1    3    3  501    0 -0.20864981091E+02 -0.18738175629E+01 -0.32813791397E+03  0.32880594461E+03  0.00000000000E+00 0.  1.
         -1    1    1    2    0  502  0.37193346495E+02  0.91008652418E+00 -0.42387027039E+03  0.42549991704E+03  0.00000000000E+00 0. -1.
<mgrwt>
<rscale>  1 0.30000000E+03</rscale>
<asrwt>0</asrwt>
<pdfrwt beam="1">  1       21 0.51629372E-02 0.30000000E+03</pdfrwt>
<pdfrwt beam="2">0</pdfrwt>
<totfact> 0.27271030E+04</totfact>
</mgrwt>
</event>
<event>
 6    1  0.1284012E-001  0.3000000E+03  0.7818608E-02  0.1093470E+00
         21   -1    0    0  501  502  0.00000000000E+00  0.00000000000E+00  0.43288306731E+01  0.43288306731E+01  0.00000000000E+00 0. -1.
         13   -1    0    0    0    0 -0.00000000000E+00 -0.00000000000E+00 -0.10000000000E+04  0.10000000000E+04  0.00000000000E+00 0.  1.
    9000005    2    1    2  501    0 -0.55930995129E+02 -0.32179254762E+01 -0.75942577123E+03  0.76153155025E+03  0.80105400887E+01 0.  0.
         13    1    3    3    0    0 -0.44820044965E+02 -0.55508076743E+01 -0.62223081640E+03  0.62386764363E+03  0.00000000000E+00 0.  1.
          3    1    3    3  501    0 -0.11110950164E+02  0.23328821981E+01 -0.13719495483E+03  0.13766390661E+03  0.00000000000E+00 0.  1.
         -1    1    1    2    0  502  0.55930995129E+02  0.32179254762E+01 -0.23624539810E+03  0.24279728043E+03  0.00000000000E+00 0. -1.
<mgrwt>
<rscale>  1 0.30000000E+03</rscale>
<asrwt>0</asrwt>
<pdfrwt beam="1">  1       21 0.15741236E-01 0.30000000E+03</pdfrwt>
<pdfrwt beam="2">0</pdfrwt>
<totfact> 0.37653110E+03</totfact>
</mgrwt>
</event>
<event>
 6    1  0.1284012E-001  0.3000000E+03  0.7818608E-02  0.1093470E+00
         21   -1    0    0  501  502  0.00000000000E+00  0.00000000000E+00  0.11356316256E+01  0.11356316256E+01  0.00000000000E+00 0. -1.
         13   -1    0    0    0    0 -0.00000000000E+00 -0.00000000000E+00 -0.10000000000E+04  0.10000000000E+04  0.00000000000E+00 0.  1.
    9000005    2    1    2  501    0 -0.32714344663E+02  0.11404195971E+01 -0.60757415838E+03  0.60847858363E+03  0.53197651205E+01 0.  0.
         13    1    3    3    0    0 -0.24370377883E+02  0.18053867269E+01 -0.41048453927E+03  0.41121129814E+03  0.00000000000E+00 0.  1.
          1    1    3    3  501    0 -0.83439667794E+01 -0.66496712979E+00 -0.19708961911E+03  0.19726728549E+03  0.00000000000E+00 0.  1.
         -3    1    1    2    0  502  0.32714344663E+02 -0.11404195971E+01 -0.39129020999E+03  0.39265704799E+03  0.00000000000E+00 0. -1.
<mgrwt>
<rscale>  1 0.30000000E+03</rscale>
<asrwt>0</asrwt>
<pdfrwt beam="1">  1       21 0.41295783E-02 0.30000000E+03</pdfrwt>
<pdfrwt beam="2">0</pdfrwt>
<totfact> 0.39847595E+04</totfact>
</mgrwt>
</event>
<event>
 6    1  0.1284012E-001  0.3000000E+03  0.7818608E-02  0.1093470E+00
         21   -1    0    0  501  502  0.00000000000E+00  0.00000000000E+00  0.16318687223E+01  0.16318687223E+01  0.00000000000E+00 0. -1.
         13   -1    0    0    0    0 -0.00000000000E+00 -0.00000000000E+00 -0.10000000000E+04  0.10000000000E+04  0.00000000000E+00 0.  1.
    9000005    2    1    2  501    0  0.27369098071E+02 -0.25416224384E+02 -0.68858386637E+03  0.68960407705E+03  0.33151272015E+01 0.  0.
         13    1    3    3    0    0  0.10433284573E+02 -0.77691088055E+01 -0.22609238937E+03  0.22646629111E+03  0.00000000000E+00 0.  1.
          3    1    3    3  501    0  0.16935813498E+02 -0.17647115579E+02 -0.46249147700E+03  0.46313778594E+03  0.00000000000E+00 0.  1.
         -3    1    1    2    0  502 -0.27369098071E+02  0.25416224384E+02 -0.30978426491E+03  0.31202779168E+03  0.00000000000E+00 0. -1.
<mgrwt>
<rscale>  1 0.30000000E+03</rscale>
<asrwt>0</asrwt>
<pdfrwt beam="1">  1       21 0.59340806E-02 0.30000000E+03</pdfrwt>
<pdfrwt beam="2">0</pdfrwt>
<totfact> 0.21476900E+04</totfact>
</mgrwt>
</event>
<event>
 6    1  0.1284012E-001  0.3000000E+03  0.7818608E-02  0.1093470E+00
         21   -1    0    0  501  502  0.00000000000E+00  0.00000000000E+00  0.10573689596E+01  0.10573689596E+01  0.00000000000E+00 0. -1.
         13   -1    0    0    0    0 -0.00000000000E+00 -0.00000000000E+00 -0.10000000000E+04  0.10000000000E+04  0.00000000000E+00 0.  1.
    9000005    2    1    2  501    0 -0.65804851064E+01 -0.31749050817E+02 -0.50504295929E+03  0.50609455140E+03  0.34639884205E+01 0.  0.
         13    1    3    3    0    0 -0.42910771407E+01 -0.24248364813E+02 -0.36177827979E+03  0.36261538890E+03  0.00000000000E+00 0.  1.
          1    1    3    3  501    0 -0.22894079657E+01 -0.75006860042E+01 -0.14326467950E+03  0.14347916250E+03  0.00000000000E+00 0.  1.
         -1    1    1    2    0  502  0.65804851064E+01  0.31749050817E+02 -0.49389967175E+03  0.49496281756E+03  0.00000000000E+00 0. -1.
<mgrwt>
<rscale>  1 0.30000000E+03</rscale>
<asrwt>0</asrwt>
<pdfrwt beam="1">  1       21 0.38449861E-02 0.30000000E+03</pdfrwt>
<pdfrwt beam="2">0</pdfrwt>
<totfact> 0.44938432E+04</totfact>
</mgrwt>
</event>
<event>
 6    1  0.1284012E-001  0.3000000E+03  0.7818608E-02  0.1093470E+00
         21   -1    0    0  501  502  0.00000000000E+00  0.00000000000E+00  0.21473656373E+01  0.21473656373E+01  0.00000000000E+00 0. -1.
         13   -1    0    0    0    0 -0.00000000000E+00 -0.00000000000E+00 -0.10000000000E+04  0.10000000000E+04  0.00000000000E+00 0.  1.
    9000005    2    1    2  501    0 -0.32631909253E+02  0.25835971901E+02 -0.71827977489E+03  0.71949329667E+03  0.35256208839E+01 0.  0.
         13    1    3    3    0    0 -0.25906917705E+02  0.20046403893E+02 -0.53969758818E+03  0.54069077427E+03  0.00000000000E+00 0.  1.
          3    1    3    3  501    0 -0.67249915484E+01  0.57895680078E+01 -0.17858218671E+03  0.17880252240E+03  0.00000000000E+00 0.  1.
         -1    1    1    2    0  502  0.32631909253E+02 -0.25835971901E+02 -0.27957285948E+03  0.28265406896E+03  0.00000000000E+00 0. -1.
<mgrwt>
<rscale>  1 0.30000000E+03</rscale>
<asrwt>0</asrwt>
<pdfrwt beam="1">  1       21 0.78086188E-02 0.30000000E+03</pdfrwt>
<pdfrwt beam="2">0</pdfrwt>
<totfact> 0.13328482E+04</totfact>
</mgrwt>
</event>
<event>
 6    1  0.1284012E-001  0.3000000E+03  0.7818608E-02  0.1093470E+00
         21   -1    0    0  501  502  0.00000000000E+00  0.00000000000E+00  0.23869647152E+01  0.23869647152E+01  0.00000000000E+00 0. -1.
         13   -1    0    0    0    0 -0.00000000000E+00 -0.00000000000E+00 -0.10000000000E+04  0.10000000000E+04  0.00000000000E+00 0.  1.
    9000005    2    1    2  501    0 -0.37745957399E+02  0.87876922636E+01 -0.80365647125E+03  0.80459634419E+03  0.30939404677E+01 0.  0.
         13    1    3    3    0    0 -0.15308018039E+02  0.40134672407E+01 -0.29836626274E+03  0.29878565909E+03  0.00000000000E+00 0.  1.
          3    1    3    3  501    0 -0.22437939360E+02  0.47742250229E+01 -0.50529020851E+03  0.50581068510E+03  0.00000000000E+00 0.  1.
         -3    1    1    2    0  502  0.37745957399E+02 -0.87876922636E+01 -0.19395656404E+03  0.19779062053E+03  0.00000000000E+00 0. -1.
<mgrwt>
<rscale>  1 0.30000000E+03</rscale>
<asrwt>0</asrwt>
<pdfrwt beam="1">  1       21 0.86798900E-02 0.30000000E+03</pdfrwt>
<pdfrwt beam="2">0</pdfrwt>
<totfact> 0.11064673E+04</totfact>
</mgrwt>
</event>
<event>
 6    1  0.1284012E-001  0.3000000E+03  0.7818608E-02  0.1093470E+00
         21   -1    0    0  501  502  0.00000000000E+00  0.00000000000E+00  0.43762162260E+01  0.43762162260E+01  0.00000000000E+00 0. -1.
         13   -1    0    0    0    0 -0.00000000000E+00 -0.00000000000E+00 -0.10000000000E+04  0.10000000000E+04  0.00000000000E+00 0.  1.
    9000005    2    1    2  501    0  0.15558413144E+02  0.41958204916E+02 -0.86752147344E+03  0.86868260144E+03  0.36606003423E+01 0.  0.
         13    1    3    3    0    0  0.14852973482E+02  0.38350345463E+02 -0.77902638513E+03  0.78011118986E+03  0.00000000000E+00 0.  1.
          1    1    3    3  501    0  0.70543966241E+00  0.36078594535E+01 -0.88495088310E+02  0.88571411584E+02  0.00000000000E+00 0.  1.
         -1    1    1    2    0  502 -0.15558413144E+02 -0.41958204916E+02 -0.12810231034E+03  0.13569361478E+03  0.00000000000E+00 0. -1.
<mgrwt>
<rscale>  1 0.30000000E+03</rscale>
<asrwt>0</asrwt>
<pdfrwt beam="1">  1       21 0.15913547E-01 0.30000000E+03</pdfrwt>
<pdfrwt beam="2">0</pdfrwt>
<totfact> 0.36897309E+03</totfact>
</mgrwt>
</event>
<event>
 6    1  0.1284012E-001  0.3000000E+03  0.7818608E-02  0.1093470E+00
         21   -1    0    0  501  502  0.00000000000E+00  0.00000000000E+00  0.27516853714E+02  0.27516853714E+02  0.00000000000E+00 0. -1.
         13   -1    0    0    0    0 -0.00000000000E+00 -0.00000000000E+00 -0.10000000000E+04  0.10000000000E+04  0.00000000000E+00 0.  1.
    9000005    2    1    2  501    0  0.42077827577E+02  0.51361270121E+02 -0.95704218436E+03  0.95934833497E+03  0.33108199599E+01 0.  0.
         13    1    3    3    0    0  0.36495669659E+01  0.58895809700E+01 -0.93589419506E+02  0.93845543030E+02  0.00000000000E+00 0.  1.
          1    1    3    3  501    0  0.38428260611E+02  0.45471689151E+02 -0.86345276485E+03  0.86550279194E+03  0.00000000000E+00 0.  1.
         -1    1    1    2    0  502 -0.42077827577E+02 -0.51361270121E+02 -0.15440961925E+02  0.68168518740E+02  0.00000000000E+00 0. -1.
<mgrwt>
<rscale>  1 0.30000000E+03</rscale>
<asrwt>0</asrwt>
<pdfrwt beam="1">  1       21 0.10006150E+00 0.30000000E+03</pdfrwt>
<pdfrwt beam="2">0</pdfrwt>
<totfact> 0.73582817E+01</totfact>
</mgrwt>
</event>
<event>
 6    1  0.1284012E-001  0.3000000E+03  0.7818608E-02  0.1093470E+00
         21   -1    0    0  501  502  0.00000000000E+00  0.00000000000E+00  0.21163015535E+01  0.21163015535E+01  0.00000000000E+00 0. -1.
         13   -1    0    0    0    0 -0.00000000000E+00 -0.00000000000E+00 -0.10000000000E+04  0.10000000000E+04  0.00000000000E+00 0.  1.
    9000005    2    1    2  501    0 -0.19164175987E+02  0.32900024050E+02 -0.77963512570E+03  0.78057146020E+03  0.33463461419E+01 0.  0.
         13    1    3    3    0    0 -0.12802661333E+02  0.22889068182E+02 -0.56606218347E+03  0.56666940374E+03  0.00000000000E+00 0.  1.
          1    1    3    3  501    0 -0.63615146537E+01  0.10010955868E+02 -0.21357294223E+03  0.21390205646E+03  0.00000000000E+00 0.  1.
         -3    1    1    2    0  502  0.19164175987E+02 -0.32900024050E+02 -0.21824857275E+03  0.22154484135E+03  0.00000000000E+00 0. -1.
<mgrwt>
<rscale>  1 0.30000000E+03</rscale>
<asrwt>0</asrwt>
<pdfrwt beam="1">  1       21 0.76956582E-02 0.30000000E+03</pdfrwt>
<pdfrwt beam="2">0</pdfrwt>
<totfact> 0.13673440E+04</totfact>
</mgrwt>
</event>
<event>
 6    1  0.1284012E-001  0.3000000E+03  0.7818608E-02  0.1093470E+00
         21   -1    0    0  501  502  0.00000000000E+00  0.00000000000E+00  0.95979784968E+00  0.95979784968E+00  0.00000000000E+00 0. -1.
         13   -1    0    0    0    0 -0.00000000000E+00 -0.00000000000E+00 -0.10000000000E+04  0.10000000000E+04  0.00000000000E+00 0.  1.
    9000005    2    1    2  501    0  0.29189225896E+02  0.99745082866E+01 -0.53208945414E+03  0.53299131302E+03  0.30084591740E+01 0.  0.
         13    1    3    3    0    0  0.19224207141E+02  0.55148581380E+01 -0.32601095033E+03  0.32662382573E+03  0.00000000000E+00 0.  1.
          3    1    3    3  501    0  0.99650187548E+01  0.44596501486E+01 -0.20607850381E+03  0.20636748729E+03  0.00000000000E+00 0.  1.
         -3    1    1    2    0  502 -0.29189225896E+02 -0.99745082866E+01 -0.46695074801E+03  0.46796848483E+03  0.00000000000E+00 0. -1.
<mgrwt>
<rscale>  1 0.30000000E+03</rscale>
<asrwt>0</asrwt>
<pdfrwt beam="1">  1       21 0.34901814E-02 0.30000000E+03</pdfrwt>
<pdfrwt beam="2">0</pdfrwt>
<totfact> 0.52864876E+04</totfact>
</mgrwt>
</event>
<event>
 6    1  0.1284012E-001  0.3000000E+03  0.7818608E-02  0.1093470E+00
         21   -1    0    0  501  502  0.00000000000E+00  0.00000000000E+00  0.13538991105E+01  0.13538991105E+01  0.00000000000E+00 0. -1.
         13   -1    0    0    0    0 -0.00000000000E+00 -0.00000000000E+00 -0.10000000000E+04  0.10000000000E+04  0.00000000000E+00 0.  1.
    9000005    2    1    2  501    0 -0.31890912766E+02  0.14868172608E+02 -0.38480134870E+03  0.38650150002E+03  0.85579603040E+01 0.  0.
         13    1    3    3    0    0 -0.11409869592E+02  0.16003209993E+01 -0.10178164566E+03  0.10243168233E+03  0.00000000000E+00 0.  1.
          3    1    3    3  501    0 -0.20481043174E+02  0.13267851608E+02 -0.28301970304E+03  0.28406981770E+03  0.00000000000E+00 0.  1.
         -3    1    1    2    0  502  0.31890912766E+02 -0.14868172608E+02 -0.61384475219E+03  0.61485239909E+03  0.00000000000E+00 0. -1.
<mgrwt>
<rscale>  1 0.30000000E+03</rscale>
<asrwt>0</asrwt>
<pdfrwt beam="1">  1       21 0.49232799E-02 0.30000000E+03</pdfrwt>
<pdfrwt beam="2">0</pdfrwt>
<totfact> 0.29573754E+04</totfact>
</mgrwt>
</event>
<event>
 6    1  0.1284012E-001  0.3000000E+03  0.7818608E-02  0.1093470E+00
         21   -1    0    0  501  502  0.00000000000E+00  0.00000000000E+00  0.13056706614E+01  0.13056706614E+01  0.00000000000E+00 0. -1.
         13   -1    0    0    0    0 -0.00000000000E+00 -0.00000000000E+00 -0.10000000000E+04  0.10000000000E+04  0.00000000000E+00 0.  1.
    9000005    2    1    2  501    0  0.29653533715E+02  0.17170193890E+02 -0.65628918223E+03  0.65719023598E+03  0.30607081377E+01 0.  0.
         13    1    3    3    0    0  0.60051870206E+00  0.85612311804E+00 -0.25860113384E+02  0.25881248690E+02  0.00000000000E+00 0.  1.
          3    1    3    3  501    0  0.29053015013E+02  0.16314070772E+02 -0.63042906885E+03  0.63130898729E+03  0.00000000000E+00 0.  1.
         -1    1    1    2    0  502 -0.29653533715E+02 -0.17170193890E+02 -0.34240514711E+03  0.34411543468E+03  0.00000000000E+00 0. -1.
<mgrwt>
<rscale>  1 0.30000000E+03</rscale>
<asrwt>0</asrwt>
<pdfrwt beam="1">  1       21 0.47479033E-02 0.30000000E+03</pdfrwt>
<pdfrwt beam="2">0</pdfrwt>
<totfact> 0.31457164E+04</totfact>
</mgrwt>
</event>
<event>
 6    1  0.1284012E-001  0.3000000E+03  0.7818608E-02  0.1093470E+00
         21   -1    0    0  501  502  0.00000000000E+00  0.00000000000E+00  0.20516407656E+01  0.20516407656E+01  0.00000000000E+00 0. -1.
         13   -1    0    0    0    0 -0.00000000000E+00 -0.00000000000E+00 -0.10000000000E+04  0.10000000000E+04  0.00000000000E+00 0.  1.
    9000005    2    1    2  501    0  0.22235813939E+02  0.37775745804E+02 -0.38170686028E+03  0.38425311096E+03  0.53747285770E+01 0.  0.
         13    1    3    3    0    0  0.47151261239E+01  0.51325993416E+01 -0.49906158520E+02  0.50390481726E+02  0.00000000000E+00 0.  1.
          3    1    3    3  501    0  0.17520687815E+02  0.32643146463E+02 -0.33180070176E+03  0.33386262924E+03  0.00000000000E+00 0.  1.
         -3    1    1    2    0  502 -0.22235813939E+02 -0.37775745804E+02 -0.61624149895E+03  0.61779852980E+03  0.00000000000E+00 0. -1.
<mgrwt>
<rscale>  1 0.30000000E+03</rscale>
<asrwt>0</asrwt>
<pdfrwt beam="1">  1       21 0.74605276E-02 0.30000000E+03</pdfrwt>
<pdfrwt beam="2">0</pdfrwt>
<totfact> 0.14437222E+04</totfact>
</mgrwt>
</event>
<event>
 6    1  0.1284012E-001  0.3000000E+03  0.7818608E-02  0.1093470E+00
         21   -1    0    0  501  502  0.00000000000E+00  0.00000000000E+00  0.80315765156E+01  0.80315765156E+01  0.00000000000E+00 0. -1.
         13   -1    0    0    0    0 -0.00000000000E+00 -0.00000000000E+00 -0.10000000000E+04  0.10000000000E+04  0.00000000000E+00 0.  1.
    9000005    2    1    2  501    0  0.54919427502E+02  0.94608445263E+01 -0.89064890945E+03  0.89239726058E+03  0.34263246890E+01 0.  0.
         13    1    3    3    0    0  0.19365489093E+02  0.33296232378E+01 -0.28836504010E+03  0.28903374355E+03  0.00000000000E+00 0.  1.
          1    1    3    3  501    0  0.35553938410E+02  0.61312212884E+01 -0.60228386935E+03  0.60336351704E+03  0.00000000000E+00 0.  1.
         -3    1    1    2    0  502 -0.54919427502E+02 -0.94608445263E+01 -0.10131951404E+03  0.11563431593E+03  0.00000000000E+00 0. -1.
<mgrwt>
<rscale>  1 0.30000000E+03</rscale>
<asrwt>0</asrwt>
<pdfrwt beam="1">  1       21 0.29205794E-01 0.30000000E+03</pdfrwt>
<pdfrwt beam="2">0</pdfrwt>
<totfact> 0.11471156E+03</totfact>
</mgrwt>
</event>
<event>
 6    1  0.1284012E-001  0.3000000E+03  0.7818608E-02  0.1093470E+00
         21   -1    0    0  501  502  0.00000000000E+00  0.00000000000E+00  0.24494518926E+01  0.24494518926E+01  0.00000000000E+00 0. -1.
         13   -1    0    0    0    0 -0.00000000000E+00 -0.00000000000E+00 -0.10000000000E+04  0.10000000000E+04  0.00000000000E+00 0.  1.
    9000005    2    1    2  501    0 -0.25473526464E+01  0.37189820036E+02 -0.82817653711E+03  0.82902186666E+03  0.33625962197E+01 0.  0.
         13    1    3    3    0    0 -0.26322708791E+01  0.14786315262E+02 -0.33959031646E+03  0.33992226612E+03  0.00000000000E+00 0.  1.
          3    1    3    3  501    0  0.84918232662E-01  0.22403504774E+02 -0.48858622065E+03  0.48909960054E+03  0.00000000000E+00 0.  1.
         -3    1    1    2    0  502  0.25473526464E+01 -0.37189820036E+02 -0.16937401099E+03  0.17342758523E+03  0.00000000000E+00 0. -1.
<mgrwt>
<rscale>  1 0.30000000E+03</rscale>
<asrwt>0</asrwt>
<pdfrwt beam="1">  1       21 0.89071166E-02 0.30000000E+03</pdfrwt>
<pdfrwt beam="2">0</pdfrwt>
<totfact> 0.10570503E+04</totfact>
</mgrwt>
</event>
<event>
 6    1  0.1284012E-001  0.3000000E+03  0.7818608E-02  0.1093470E+00
         21   -1    0    0  501  502  0.00000000000E+00  0.00000000000E+00  0.12709645832E+02  0.12709645832E+02  0.00000000000E+00 0. -1.
         13   -1    0    0    0    0 -0.00000000000E+00 -0.00000000000E+00 -0.10000000000E+04  0.10000000000E+04  0.00000000000E+00 0.  1.
    9000005    2    1    2  501    0 -0.28877726180E+02  0.37475392186E+02 -0.95324191266E+03  0.95442050055E+03  0.31653951582E+01 0.  0.
         13    1    3    3    0    0 -0.15851776815E+01  0.10528936859E+01 -0.38836157597E+02  0.38882753379E+02  0.00000000000E+00 0.  1.
          3    1    3    3  501    0 -0.27292548498E+02  0.36422498500E+02 -0.91440575506E+03  0.91553774717E+03  0.00000000000E+00 0.  1.
         -1    1    1    2    0  502  0.28877726180E+02 -0.37475392186E+02 -0.34048441511E+02  0.58289145285E+02  0.00000000000E+00 0. -1.
<mgrwt>
<rscale>  1 0.30000000E+03</rscale>
<asrwt>0</asrwt>
<pdfrwt beam="1">  1       21 0.46216991E-01 0.30000000E+03</pdfrwt>
<pdfrwt beam="2">0</pdfrwt>
<totfact> 0.44503150E+02</totfact>
</mgrwt>
</event>
<event>
 6    1  0.1284012E-001  0.3000000E+03  0.7818608E-02  0.1093470E+00
         21   -1    0    0  501  502  0.00000000000E+00  0.00000000000E+00  0.14508045469E+01  0.14508045469E+01  0.00000000000E+00 0. -1.
         13   -1    0    0    0    0 -0.00000000000E+00 -0.00000000000E+00 -0.10000000000E+04  0.10000000000E+04  0.00000000000E+00 0.  1.
    9000005    2    1    2  501    0 -0.27639117430E+02  0.12710120234E+02 -0.80002308776E+03  0.80060737447E+03  0.31239622790E+01 0.  0.
         13    1    3    3    0    0 -0.16272673549E+02  0.61126132126E+01 -0.47939886805E+03  0.47971391332E+03  0.00000000000E+00 0.  1.
          1    1    3    3  501    0 -0.11366443881E+02  0.65975070216E+01 -0.32062421971E+03  0.32089346115E+03  0.00000000000E+00 0.  1.
         -3    1    1    2    0  502  0.27639117430E+02 -0.12710120234E+02 -0.19852610769E+03  0.20084343007E+03  0.00000000000E+00 0. -1.
<mgrwt>
<rscale>  1 0.30000000E+03</rscale>
<asrwt>0</asrwt>
<pdfrwt beam="1">  1       21 0.52756640E-02 0.30000000E+03</pdfrwt>
<pdfrwt beam="2">0</pdfrwt>
<totfact> 0.26282904E+04</totfact>
</mgrwt>
</event>
<event>
 6    1  0.1284012E-001  0.3000000E+03  0.7818608E-02  0.1093470E+00
         21   -1    0    0  501  502  0.00000000000E+00  0.00000000000E+00  0.36010372732E+01  0.36010372732E+01  0.00000000000E+00 0. -1.
         13   -1    0    0    0    0 -0.00000000000E+00 -0.00000000000E+00 -0.10000000000E+04  0.10000000000E+04  0.00000000000E+00 0.  1.
    9000005    2    1    2  501    0  0.42098817442E+02 -0.42395333031E+02 -0.45614888135E+03  0.46005727168E+03  0.33491150377E+01 0.  0.
         13    1    3    3    0    0  0.84558479691E+01 -0.96485614831E+01 -0.89558382997E+02  0.90472648179E+02  0.00000000000E+00 0.  1.
          1    1    3    3  501    0  0.33642969473E+02 -0.32746771548E+02 -0.36659049836E+03  0.36958462350E+03  0.00000000000E+00 0.  1.
         -3    1    1    2    0  502 -0.42098817442E+02  0.42395333031E+02 -0.54025008137E+03  0.54354376559E+03  0.00000000000E+00 0. -1.
<mgrwt>
<rscale>  1 0.30000000E+03</rscale>
<asrwt>0</asrwt>
<pdfrwt beam="1">  1       21 0.13094709E-01 0.30000000E+03</pdfrwt>
<pdfrwt beam="2">0</pdfrwt>
<totfact> 0.52859698E+03</totfact>
</mgrwt>
</event>
<event>
 6    1  0.1284012E-001  0.3000000E+03  0.7818608E-02  0.1093470E+00
         21   -1    0    0  501  502  0.00000000000E+00  0.00000000000E+00  0.31014425917E+01  0.31014425917E+01  0.00000000000E+00 0. -1.
         13   -1    0    0    0    0 -0.00000000000E+00 -0.00000000000E+00 -0.10000000000E+04  0.10000000000E+04  0.00000000000E+00 0.  1.
    9000005    2    1    2  501    0  0.32826999480E+02 -0.11942706472E+01 -0.90334903875E+03  0.90395230937E+03  0.33546428137E+01 0.  0.
         13    1    3    3    0    0  0.31435055239E+02 -0.12507359620E+01 -0.84214381272E+03  0.84273123138E+03  0.00000000000E+00 0.  1.
          3    1    3    3  501    0  0.13919442413E+01  0.56465314813E-01 -0.61205226036E+02  0.61221077998E+02  0.00000000000E+00 0.  1.
         -3    1    1    2    0  502 -0.32826999480E+02  0.11942706472E+01 -0.93549518655E+02  0.99149133217E+02  0.00000000000E+00 0. -1.
<mgrwt>
<rscale>  1 0.30000000E+03</rscale>
<asrwt>0</asrwt>
<pdfrwt beam="1">  1       21 0.11277997E-01 0.30000000E+03</pdfrwt>
<pdfrwt beam="2">0</pdfrwt>
<totfact> 0.69332420E+03</totfact>
</mgrwt>
</event>
<event>
 6    1  0.1284012E-001  0.3000000E+03  0.7818608E-02  0.1093470E+00
         21   -1    0    0  501  502  0.00000000000E+00  0.00000000000E+00  0.15470094452E+01  0.15470094452E+01  0.00000000000E+00 0. -1.
         13   -1    0    0    0    0 -0.00000000000E+00 -0.00000000000E+00 -0.10000000000E+04  0.10000000000E+04  0.00000000000E+00 0.  1.
    9000005    2    1    2  501    0 -0.34558936510E+02 -0.62786845538E+01 -0.72356258385E+03  0.72442162686E+03  0.31841401093E+01 0.  0.
         13    1    3    3    0    0 -0.10872646551E+02 -0.54299869432E+00 -0.23210289102E+03  0.23235804550E+03  0.00000000000E+00 0.  1.
          3    1    3    3  501    0 -0.23686289959E+02 -0.57356858595E+01 -0.49145969283E+03  0.49206358136E+03  0.00000000000E+00 0.  1.
         -1    1    1    2    0  502  0.34558936510E+02  0.62786845538E+01 -0.27489040671E+03  0.27712538258E+03  0.00000000000E+00 0. -1.
<mgrwt>
<rscale>  1 0.30000000E+03</rscale>
<asrwt>0</asrwt>
<pdfrwt beam="1">  1       21 0.56255008E-02 0.30000000E+03</pdfrwt>
<pdfrwt beam="2">0</pdfrwt>
<totfact> 0.23544634E+04</totfact>
</mgrwt>
</event>
<event>
 6    1  0.1284012E-001  0.3000000E+03  0.7818608E-02  0.1093470E+00
         21   -1    0    0  501  502  0.00000000000E+00  0.00000000000E+00  0.20916176063E+01  0.20916176063E+01  0.00000000000E+00 0. -1.
         13   -1    0    0    0    0 -0.00000000000E+00 -0.00000000000E+00 -0.10000000000E+04  0.10000000000E+04  0.00000000000E+00 0.  1.
    9000005    2    1    2  501    0 -0.32079298806E+02 -0.32115854832E+02 -0.55393919292E+03  0.55580790656E+03  0.36455449549E+01 0.  0.
         13    1    3    3    0    0 -0.13001128224E+02 -0.12252197085E+02 -0.19756884183E+03  0.19837487979E+03  0.00000000000E+00 0.  1.
          3    1    3    3  501    0 -0.19078170581E+02 -0.19863657747E+02 -0.35637035109E+03  0.35743302677E+03  0.00000000000E+00 0.  1.
         -1    1    1    2    0  502  0.32079298806E+02  0.32115854832E+02 -0.44396918948E+03  0.44628371105E+03  0.00000000000E+00 0. -1.
<mgrwt>
<rscale>  1 0.30000000E+03</rscale>
<asrwt>0</asrwt>
<pdfrwt beam="1">  1       21 0.76058982E-02 0.30000000E+03</pdfrwt>
<pdfrwt beam="2">0</pdfrwt>
<totfact> 0.13957474E+04</totfact>
</mgrwt>
</event>
<event>
 6    1  0.1284012E-001  0.3000000E+03  0.7818608E-02  0.1093470E+00
         21   -1    0    0  501  502  0.00000000000E+00  0.00000000000E+00  0.11932046898E+01  0.11932046898E+01  0.00000000000E+00 0. -1.
         13   -1    0    0    0    0 -0.00000000000E+00 -0.00000000000E+00 -0.10000000000E+04  0.10000000000E+04  0.00000000000E+00 0.  1.
    9000005    2    1    2  501    0 -0.10039471199E+02  0.29842048522E+02 -0.70255386590E+03  0.70327184422E+03  0.42442355248E+01 0.  0.
         13    1    3    3    0    0 -0.88980441054E+01  0.20540211159E+02 -0.48557991210E+03  0.48609559399E+03  0.00000000000E+00 0.  1.
          3    1    3    3  501    0 -0.11414270936E+01  0.93018373628E+01 -0.21697395380E+03  0.21717625023E+03  0.00000000000E+00 0.  1.
         -3    1    1    2    0  502  0.10039471199E+02 -0.29842048522E+02 -0.29625292941E+03  0.29792136047E+03  0.00000000000E+00 0. -1.
<mgrwt>
<rscale>  1 0.30000000E+03</rscale>
<asrwt>0</asrwt>
<pdfrwt beam="1">  1       21 0.43389353E-02 0.30000000E+03</pdfrwt>
<pdfrwt beam="2">0</pdfrwt>
<totfact> 0.36653522E+04</totfact>
</mgrwt>
</event>
<event>
 6    1  0.1284012E-001  0.3000000E+03  0.7818608E-02  0.1093470E+00
         21   -1    0    0  501  502  0.00000000000E+00  0.00000000000E+00  0.97379359007E+00  0.97379359007E+00  0.00000000000E+00 0. -1.
         13   -1    0    0    0    0 -0.00000000000E+00 -0.00000000000E+00 -0.10000000000E+04  0.10000000000E+04  0.00000000000E+00 0.  1.
    9000005    2    1    2  501    0  0.26768292599E+02 -0.13717294652E+02 -0.37374564321E+03  0.37497020863E+03  0.34850945287E+01 0.  0.
         13    1    3    3    0    0  0.16159427770E+02 -0.68172665225E+01 -0.20302218135E+03  0.20377833140E+03  0.00000000000E+00 0.  1.
          3    1    3    3  501    0  0.10608864829E+02 -0.69000281298E+01 -0.17072346186E+03  0.17119187723E+03  0.00000000000E+00 0.  1.
         -1    1    1    2    0  502 -0.26768292599E+02  0.13717294652E+02 -0.62528056320E+03  0.62600358496E+03  0.00000000000E+00 0. -1.
<mgrwt>
<rscale>  1 0.30000000E+03</rscale>
<asrwt>0</asrwt>
<pdfrwt beam="1">  1       21 0.35410751E-02 0.30000000E+03</pdfrwt>
<pdfrwt beam="2">0</pdfrwt>
<totfact> 0.51598391E+04</totfact>
</mgrwt>
</event>
<event>
 6    1  0.1284012E-001  0.3000000E+03  0.7818608E-02  0.1093470E+00
         21   -1    0    0  501  502  0.00000000000E+00  0.00000000000E+00  0.79038485464E+01  0.79038485464E+01  0.00000000000E+00 0. -1.
         13   -1    0    0    0    0 -0.00000000000E+00 -0.00000000000E+00 -0.10000000000E+04  0.10000000000E+04  0.00000000000E+00 0.  1.
    9000005    2    1    2  501    0 -0.37742894717E+02 -0.14121881262E+02 -0.94522541507E+03  0.94609107024E+03  0.36433879150E+01 0.  0.
         13    1    3    3    0    0 -0.31505194480E+02 -0.13130719995E+02 -0.80665805212E+03  0.80737984006E+03  0.00000000000E+00 0.  1.
          1    1    3    3  501    0 -0.62377002372E+01 -0.99116126697E+00 -0.13856736295E+03  0.13871123018E+03  0.00000000000E+00 0.  1.
         -3    1    1    2    0  502  0.37742894717E+02  0.14121881262E+02 -0.46870736387E+02  0.61812778303E+02  0.00000000000E+00 0. -1.
<mgrwt>
<rscale>  1 0.30000000E+03</rscale>
<asrwt>0</asrwt>
<pdfrwt beam="1">  1       21 0.28741328E-01 0.30000000E+03</pdfrwt>
<pdfrwt beam="2">0</pdfrwt>
<totfact> 0.11843195E+03</totfact>
</mgrwt>
</event>
<event>
 6    1  0.1284012E-001  0.3000000E+03  0.7818608E-02  0.1093470E+00
         21   -1    0    0  501  502  0.00000000000E+00  0.00000000000E+00  0.62115914633E+01  0.62115914633E+01  0.00000000000E+00 0. -1.
         13   -1    0    0    0    0 -0.00000000000E+00 -0.00000000000E+00 -0.10000000000E+04  0.10000000000E+04  0.00000000000E+00 0.  1.
    9000005    2    1    2  501    0 -0.59591539834E+02 -0.16161729636E+02 -0.80945725684E+03  0.81181424938E+03  0.29952821619E+01 0.  0.
         13    1    3    3    0    0 -0.22062141752E+02 -0.57943578715E+01 -0.31811388220E+03  0.31893064251E+03  0.00000000000E+00 0.  1.
          1    1    3    3  501    0 -0.37529398081E+02 -0.10367371764E+02 -0.49134337464E+03  0.49288360686E+03  0.00000000000E+00 0.  1.
         -3    1    1    2    0  502  0.59591539834E+02  0.16161729636E+02 -0.18433115170E+03  0.19439734209E+03  0.00000000000E+00 0. -1.
<mgrwt>
<rscale>  1 0.30000000E+03</rscale>
<asrwt>0</asrwt>
<pdfrwt beam="1">  1       21 0.22587653E-01 0.30000000E+03</pdfrwt>
<pdfrwt beam="2">0</pdfrwt>
<totfact> 0.18995512E+03</totfact>
</mgrwt>
</event>
<event>
 6    1  0.1284012E-001  0.3000000E+03  0.7818608E-02  0.1093470E+00
         21   -1    0    0  501  502  0.00000000000E+00  0.00000000000E+00  0.38477031467E+01  0.38477031467E+01  0.00000000000E+00 0. -1.
         13   -1    0    0    0    0 -0.00000000000E+00 -0.00000000000E+00 -0.10000000000E+04  0.10000000000E+04  0.00000000000E+00 0.  1.
    9000005    2    1    2  501    0 -0.41808630118E+02 -0.30120658528E+01 -0.86792146298E+03  0.86893965724E+03  0.33805235713E+01 0.  0.
         13    1    3    3    0    0 -0.38022713691E+02 -0.36084191815E+01 -0.79728022399E+03  0.79819452705E+03  0.00000000000E+00 0.  1.
          1    1    3    3  501    0 -0.37859164271E+01  0.59635332865E+00 -0.70641238985E+02  0.70745130191E+02  0.00000000000E+00 0.  1.
         -3    1    1    2    0  502  0.41808630118E+02  0.30120658528E+01 -0.12823083388E+03  0.13490804590E+03  0.00000000000E+00 0. -1.
<mgrwt>
<rscale>  1 0.30000000E+03</rscale>
<asrwt>0</asrwt>
<pdfrwt beam="1">  1       21 0.13991677E-01 0.30000000E+03</pdfrwt>
<pdfrwt beam="2">0</pdfrwt>
<totfact> 0.46817892E+03</totfact>
</mgrwt>
</event>
<event>
 6    1  0.1284012E-001  0.3000000E+03  0.7818608E-02  0.1093470E+00
         21   -1    0    0  501  502  0.00000000000E+00  0.00000000000E+00  0.19923485775E+01  0.19923485775E+01  0.00000000000E+00 0. -1.
         13   -1    0    0    0    0 -0.00000000000E+00 -0.00000000000E+00 -0.10000000000E+04  0.10000000000E+04  0.00000000000E+00 0.  1.
    9000005    2    1    2  501    0 -0.69905620794E+01  0.30642653394E+02 -0.85449018229E+03  0.85507364959E+03  0.31039382164E+01 0.  0.
         13    1    3    3    0    0 -0.41659959580E+01  0.23990628244E+02 -0.65165825728E+03  0.65211301938E+03  0.00000000000E+00 0.  1.
          3    1    3    3  501    0 -0.28245661214E+01  0.66520251502E+01 -0.20283192501E+03  0.20296063021E+03  0.00000000000E+00 0.  1.
         -1    1    1    2    0  502  0.69905620794E+01 -0.30642653394E+02 -0.14351746913E+03  0.14691869898E+03  0.00000000000E+00 0. -1.
<mgrwt>
<rscale>  1 0.30000000E+03</rscale>
<asrwt>0</asrwt>
<pdfrwt beam="1">  1       21 0.72449192E-02 0.30000000E+03</pdfrwt>
<pdfrwt beam="2">0</pdfrwt>
<totfact> 0.15196587E+04</totfact>
</mgrwt>
</event>
<event>
 6    1  0.1284012E-001  0.3000000E+03  0.7818608E-02  0.1093470E+00
         21   -1    0    0  501  502  0.00000000000E+00  0.00000000000E+00  0.11249776735E+01  0.11249776735E+01  0.00000000000E+00 0. -1.
         13   -1    0    0    0    0 -0.00000000000E+00 -0.00000000000E+00 -0.10000000000E+04  0.10000000000E+04  0.00000000000E+00 0.  1.
    9000005    2    1    2  501    0  0.17686456084E+01  0.29985009739E+02 -0.72067135982E+03  0.72130448745E+03  0.32750321554E+01 0.  0.
         13    1    3    3    0    0 -0.30259007589E+00  0.12576944704E+02 -0.33095483789E+03  0.33119386441E+03  0.00000000000E+00 0.  1.
          1    1    3    3  501    0  0.20712356842E+01  0.17408065036E+02 -0.38971652193E+03  0.39011062305E+03  0.00000000000E+00 0.  1.
         -3    1    1    2    0  502 -0.17686456084E+01 -0.29985009739E+02 -0.27820366251E+03  0.27982049022E+03  0.00000000000E+00 0. -1.
<mgrwt>
<rscale>  1 0.30000000E+03</rscale>
<asrwt>0</asrwt>
<pdfrwt beam="1">  1       21 0.40908365E-02 0.30000000E+03</pdfrwt>
<pdfrwt beam="2">0</pdfrwt>
<totfact> 0.40486091E+04</totfact>
</mgrwt>
</event>
<event>
 6    1  0.1284012E-001  0.3000000E+03  0.7818608E-02  0.1093470E+00
         21   -1    0    0  501  502  0.00000000000E+00  0.00000000000E+00  0.16772952599E+01  0.16772952599E+01  0.00000000000E+00 0. -1.
         13   -1    0    0    0    0 -0.00000000000E+00 -0.00000000000E+00 -0.10000000000E+04  0.10000000000E+04  0.00000000000E+00 0.  1.
    9000005    2    1    2  501    0  0.17716328915E+02  0.33938109355E+02 -0.66699559265E+03  0.66814570937E+03  0.83609069556E+01 0.  0.
         13    1    3    3    0    0  0.10608830731E+02  0.21915253150E+02 -0.35231484837E+03  0.35315517552E+03  0.00000000000E+00 0.  1.
          1    1    3    3  501    0  0.71074981847E+01  0.12022856205E+02 -0.31468074427E+03  0.31499053385E+03  0.00000000000E+00 0.  1.
         -1    1    1    2    0  502 -0.17716328915E+02 -0.33938109355E+02 -0.33132711209E+03  0.33353158589E+03  0.00000000000E+00 0. -1.
<mgrwt>
<rscale>  1 0.30000000E+03</rscale>
<asrwt>0</asrwt>
<pdfrwt beam="1">  1       21 0.60992684E-02 0.30000000E+03</pdfrwt>
<pdfrwt beam="2">0</pdfrwt>
<totfact> 0.20483497E+04</totfact>
</mgrwt>
</event>
<event>
 6    1  0.1284012E-001  0.3000000E+03  0.7818608E-02  0.1093470E+00
         21   -1    0    0  501  502  0.00000000000E+00  0.00000000000E+00  0.20279288022E+01  0.20279288022E+01  0.00000000000E+00 0. -1.
         13   -1    0    0    0    0 -0.00000000000E+00 -0.00000000000E+00 -0.10000000000E+04  0.10000000000E+04  0.00000000000E+00 0.  1.
    9000005    2    1    2  501    0 -0.81290004331E+01 -0.42175866960E+02 -0.35108282295E+03  0.35371428256E+03  0.31242145126E+01 0.  0.
         13    1    3    3    0    0 -0.39771254019E+01 -0.25647993129E+02 -0.20197426918E+03  0.20363507185E+03  0.00000000000E+00 0.  1.
          1    1    3    3  501    0 -0.41518750312E+01 -0.16527873831E+02 -0.14910855377E+03  0.15007921071E+03  0.00000000000E+00 0.  1.
         -3    1    1    2    0  502  0.81290004331E+01  0.42175866960E+02 -0.64688924825E+03  0.64831364624E+03  0.00000000000E+00 0. -1.
<mgrwt>
<rscale>  1 0.30000000E+03</rscale>
<asrwt>0</asrwt>
<pdfrwt beam="1">  1       21 0.73743021E-02 0.30000000E+03</pdfrwt>
<pdfrwt beam="2">0</pdfrwt>
<totfact> 0.14733850E+04</totfact>
</mgrwt>
</event>
<event>
 6    1  0.1284012E-001  0.3000000E+03  0.7818608E-02  0.1093470E+00
         21   -1    0    0  501  502  0.00000000000E+00  0.00000000000E+00  0.24616279047E+01  0.24616279047E+01  0.00000000000E+00 0. -1.
         13   -1    0    0    0    0 -0.00000000000E+00 -0.00000000000E+00 -0.10000000000E+04  0.10000000000E+04  0.00000000000E+00 0.  1.
    9000005    2    1    2  501    0 -0.41178038585E+02  0.54924712444E+00 -0.77781075633E+03  0.77890814960E+03  0.35214073571E+01 0.  0.
         13    1    3    3    0    0 -0.23825247417E+02  0.19879560572E+01 -0.45912503760E+03  0.45974709845E+03  0.00000000000E+00 0.  1.
          3    1    3    3  501    0 -0.17352791168E+02 -0.14387089328E+01 -0.31868571873E+03  0.31916105115E+03  0.00000000000E+00 0.  1.
         -3    1    1    2    0  502  0.41178038585E+02 -0.54924712444E+00 -0.21972761576E+03  0.22355347831E+03  0.00000000000E+00 0. -1.
<mgrwt>
<rscale>  1 0.30000000E+03</rscale>
<asrwt>0</asrwt>
<pdfrwt beam="1">  1       21 0.89513931E-02 0.30000000E+03</pdfrwt>
<pdfrwt beam="2">0</pdfrwt>
<totfact> 0.10478114E+04</totfact>
</mgrwt>
</event>
<event>
 6    1  0.1284012E-001  0.3000000E+03  0.7818608E-02  0.1093470E+00
         21   -1    0    0  501  502  0.00000000000E+00  0.00000000000E+00  0.26294445135E+01  0.26294445135E+01  0.00000000000E+00 0. -1.
         13   -1    0    0    0    0 -0.00000000000E+00 -0.00000000000E+00 -0.10000000000E+04  0.10000000000E+04  0.00000000000E+00 0.  1.
    9000005    2    1    2  501    0 -0.36268674467E+01  0.48437387963E+02 -0.34006618619E+03  0.34353281380E+03  0.32324059363E+01 0.  0.
         13    1    3    3    0    0 -0.14138811043E+01  0.63700083753E+01 -0.49863417488E+02  0.50288532192E+02  0.00000000000E+00 0.  1.
          1    1    3    3  501    0 -0.22129863424E+01  0.42067379587E+02 -0.29020276870E+03  0.29324428161E+03  0.00000000000E+00 0.  1.
         -1    1    1    2    0  502  0.36268674467E+01 -0.48437387963E+02 -0.65730436930E+03  0.65909663071E+03  0.00000000000E+00 0. -1.
<mgrwt>
<rscale>  1 0.30000000E+03</rscale>
<asrwt>0</asrwt>
<pdfrwt beam="1">  1       21 0.95616366E-02 0.30000000E+03</pdfrwt>
<pdfrwt beam="2">0</pdfrwt>
<totfact> 0.93196997E+03</totfact>
</mgrwt>
</event>
<event>
 6    1  0.1284012E-001  0.3000000E+03  0.7818608E-02  0.1093470E+00
         21   -1    0    0  501  502  0.00000000000E+00  0.00000000000E+00  0.26128840996E+01  0.26128840996E+01  0.00000000000E+00 0. -1.
         13   -1    0    0    0    0 -0.00000000000E+00 -0.00000000000E+00 -0.10000000000E+04  0.10000000000E+04  0.00000000000E+00 0.  1.
    9000005    2    1    2  501    0  0.43659242260E+02 -0.21483321127E+02 -0.64848734106E+03  0.65033640830E+03  0.58266558215E+01 0.  0.
         13    1    3    3    0    0  0.34764726747E+02 -0.15702603469E+02 -0.53274112459E+03  0.53410510558E+03  0.00000000000E+00 0.  1.
          3    1    3    3  501    0  0.88945155128E+01 -0.57807176584E+01 -0.11574621647E+03  0.11623130272E+03  0.00000000000E+00 0.  1.
         -1    1    1    2    0  502 -0.43659242260E+02  0.21483321127E+02 -0.34889977484E+03  0.35227647580E+03  0.00000000000E+00 0. -1.
<mgrwt>
<rscale>  1 0.30000000E+03</rscale>
<asrwt>0</asrwt>
<pdfrwt beam="1">  1       21 0.95014168E-02 0.30000000E+03</pdfrwt>
<pdfrwt beam="2">0</pdfrwt>
<totfact> 0.94252198E+03</totfact>
</mgrwt>
</event>
<event>
 6    1  0.1284012E-001  0.3000000E+03  0.7818608E-02  0.1093470E+00
         21   -1    0    0  501  502  0.00000000000E+00  0.00000000000E+00  0.17315989991E+01  0.17315989991E+01  0.00000000000E+00 0. -1.
         13   -1    0    0    0    0 -0.00000000000E+00 -0.00000000000E+00 -0.10000000000E+04  0.10000000000E+04  0.00000000000E+00 0.  1.
    9000005    2    1    2  501    0  0.32019460098E+02 -0.41244385942E+01 -0.81301477322E+03  0.81368595714E+03  0.70397828955E+01 0.  0.
         13    1    3    3    0    0  0.14002659238E+02  0.17052522398E+01 -0.34649155822E+03  0.34677857815E+03  0.00000000000E+00 0.  1.
          1    1    3    3  501    0  0.18016800860E+02 -0.58296908341E+01 -0.46652321501E+03  0.46690737899E+03  0.00000000000E+00 0.  1.
         -3    1    1    2    0  502 -0.32019460098E+02  0.41244385942E+01 -0.18525362778E+03  0.18804564186E+03  0.00000000000E+00 0. -1.
<mgrwt>
<rscale>  1 0.30000000E+03</rscale>
<asrwt>0</asrwt>
<pdfrwt beam="1">  1       21 0.62967369E-02 0.30000000E+03</pdfrwt>
<pdfrwt beam="2">0</pdfrwt>
<totfact> 0.19386764E+04</totfact>
</mgrwt>
</event>
<event>
 6    1  0.1284012E-001  0.3000000E+03  0.7818608E-02  0.1093470E+00
         21   -1    0    0  501  502  0.00000000000E+00  0.00000000000E+00  0.11070165299E+01  0.11070165299E+01  0.00000000000E+00 0. -1.
         13   -1    0    0    0    0 -0.00000000000E+00 -0.00000000000E+00 -0.10000000000E+04  0.10000000000E+04  0.00000000000E+00 0.  1.
    9000005    2    1    2  501    0 -0.31211557740E+02 -0.44335011906E+01 -0.65688217289E+03  0.65764637566E+03  0.32785813517E+01 0.  0.
         13    1    3    3    0    0 -0.13227021924E+02 -0.28730224300E+01 -0.30855839851E+03  0.30885513377E+03  0.00000000000E+00 0.  1.
          3    1    3    3  501    0 -0.17984535816E+02 -0.15604787606E+01 -0.34832377438E+03  0.34879124189E+03  0.00000000000E+00 0.  1.
         -1    1    1    2    0  502  0.31211557740E+02  0.44335011906E+01 -0.34201081058E+03  0.34346064087E+03  0.00000000000E+00 0. -1.
<mgrwt>
<rscale>  1 0.30000000E+03</rscale>
<asrwt>0</asrwt>
<pdfrwt beam="1">  1       21 0.40255231E-02 0.30000000E+03</pdfrwt>
<pdfrwt beam="2">0</pdfrwt>
<totfact> 0.41599273E+04</totfact>
</mgrwt>
</event>
<event>
 6    1  0.1284012E-001  0.3000000E+03  0.7818608E-02  0.1093470E+00
         21   -1    0    0  501  502  0.00000000000E+00  0.00000000000E+00  0.10017226970E+01  0.10017226970E+01  0.00000000000E+00 0. -1.
         13   -1    0    0    0    0 -0.00000000000E+00 -0.00000000000E+00 -0.10000000000E+04  0.10000000000E+04  0.00000000000E+00 0.  1.
    9000005    2    1    2  501    0  0.74860224062E+01  0.29611472002E+02 -0.62361372359E+03  0.62437665320E+03  0.43873692320E+01 0.  0.
         13    1    3    3    0    0  0.39176976283E+01  0.13528441509E+02 -0.24472552903E+03  0.24513047881E+03  0.00000000000E+00 0.  1.
          3    1    3    3  501    0  0.35683247779E+01  0.16083030493E+02 -0.37888819456E+03  0.37924617438E+03  0.00000000000E+00 0.  1.
         -3    1    1    2    0  502 -0.74860224062E+01 -0.29611472002E+02 -0.37538455372E+03  0.37662506950E+03  0.00000000000E+00 0. -1.
<mgrwt>
<rscale>  1 0.30000000E+03</rscale>
<asrwt>0</asrwt>
<pdfrwt beam="1">  1       21 0.36426357E-02 0.30000000E+03</pdfrwt>
<pdfrwt beam="2">0</pdfrwt>
<totfact> 0.49208901E+04</totfact>
</mgrwt>
</event>
<event>
 6    1  0.1284012E-001  0.3000000E+03  0.7818608E-02  0.1093470E+00
         21   -1    0    0  501  502  0.00000000000E+00  0.00000000000E+00  0.15607895448E+01  0.15607895448E+01  0.00000000000E+00 0. -1.
         13   -1    0    0    0    0 -0.00000000000E+00 -0.00000000000E+00 -0.10000000000E+04  0.10000000000E+04  0.00000000000E+00 0.  1.
    9000005    2    1    2  501    0  0.37467878067E+01 -0.31428870896E+02 -0.79839410942E+03  0.79902720025E+03  0.30822779211E+01 0.  0.
         13    1    3    3    0    0  0.38372070492E+01 -0.19917890315E+02 -0.51654929948E+03  0.51694741058E+03  0.00000000000E+00 0.  1.
          3    1    3    3  501    0 -0.90419242481E-01 -0.11510980581E+02 -0.28184480995E+03  0.28207978967E+03  0.00000000000E+00 0.  1.
         -1    1    1    2    0  502 -0.37467878067E+01  0.31428870896E+02 -0.20004510103E+03  0.20253358929E+03  0.00000000000E+00 0. -1.
<mgrwt>
<rscale>  1 0.30000000E+03</rscale>
<asrwt>0</asrwt>
<pdfrwt beam="1">  1       21 0.56756103E-02 0.30000000E+03</pdfrwt>
<pdfrwt beam="2">0</pdfrwt>
<totfact> 0.23188581E+04</totfact>
</mgrwt>
</event>
<event>
 6    1  0.1284012E-001  0.3000000E+03  0.7818608E-02  0.1093470E+00
         21   -1    0    0  501  502  0.00000000000E+00  0.00000000000E+00  0.44440463455E+01  0.44440463455E+01  0.00000000000E+00 0. -1.
         13   -1    0    0    0    0 -0.00000000000E+00 -0.00000000000E+00 -0.10000000000E+04  0.10000000000E+04  0.00000000000E+00 0.  1.
    9000005    2    1    2  501    0 -0.20750516758E+02  0.32850209257E+02 -0.90578275474E+03  0.90662304943E+03  0.36379638892E+01 0.  0.
         13    1    3    3    0    0 -0.18894482605E+02  0.30291632466E+02 -0.80611542569E+03  0.80690561034E+03  0.00000000000E+00 0.  1.
          3    1    3    3  501    0 -0.18560341527E+01  0.25585767906E+01 -0.99667329058E+02  0.99717439095E+02  0.00000000000E+00 0.  1.
         -3    1    1    2    0  502  0.20750516758E+02 -0.32850209257E+02 -0.89773198911E+02  0.97820996911E+02  0.00000000000E+00 0. -1.
<mgrwt>
<rscale>  1 0.30000000E+03</rscale>
<asrwt>0</asrwt>
<pdfrwt beam="1">  1       21 0.16160203E-01 0.30000000E+03</pdfrwt>
<pdfrwt beam="2">0</pdfrwt>
<totfact> 0.35854366E+03</totfact>
</mgrwt>
</event>
<event>
 6    1  0.1284012E-001  0.3000000E+03  0.7818608E-02  0.1093470E+00
         21   -1    0    0  501  502  0.00000000000E+00  0.00000000000E+00  0.13616709226E+01  0.13616709226E+01  0.00000000000E+00 0. -1.
         13   -1    0    0    0    0 -0.00000000000E+00 -0.00000000000E+00 -0.10000000000E+04  0.10000000000E+04  0.00000000000E+00 0.  1.
    9000005    2    1    2  501    0 -0.38555877621E+01  0.34214263881E+02 -0.66476450902E+03  0.66571720258E+03  0.90586945616E+01 0.  0.
         13    1    3    3    0    0 -0.16625466973E+01  0.38097891602E+01 -0.41494768513E+02  0.41702450394E+02  0.00000000000E+00 0.  1.
          1    1    3    3  501    0 -0.21930410648E+01  0.30404474721E+02 -0.62326974051E+03  0.62401475219E+03  0.00000000000E+00 0.  1.
         -1    1    1    2    0  502  0.38555877621E+01 -0.34214263881E+02 -0.33387382005E+03  0.33564446834E+03  0.00000000000E+00 0. -1.
<mgrwt>
<rscale>  1 0.30000000E+03</rscale>
<asrwt>0</asrwt>
<pdfrwt beam="1">  1       21 0.49515411E-02 0.30000000E+03</pdfrwt>
<pdfrwt beam="2">0</pdfrwt>
<totfact> 0.29286759E+04</totfact>
</mgrwt>
</event>
<event>
 6    1  0.1284012E-001  0.3000000E+03  0.7818608E-02  0.1093470E+00
         21   -1    0    0  501  502  0.00000000000E+00  0.00000000000E+00  0.16255761454E+01  0.16255761454E+01  0.00000000000E+00 0. -1.
         13   -1    0    0    0    0 -0.00000000000E+00 -0.00000000000E+00 -0.10000000000E+04  0.10000000000E+04  0.00000000000E+00 0.  1.
    9000005    2    1    2  501    0 -0.57563219649E+01  0.37880883349E+02 -0.65364503062E+03  0.65477337257E+03  0.28717251686E+01 0.  0.
         13    1    3    3    0    0 -0.35765986862E+01  0.29677034278E+02 -0.52152493589E+03  0.52238087367E+03  0.00000000000E+00 0.  1.
          1    1    3    3  501    0 -0.21797232788E+01  0.82038490707E+01 -0.13212009473E+03  0.13239249890E+03  0.00000000000E+00 0.  1.
         -3    1    1    2    0  502  0.57563219649E+01 -0.37880883349E+02 -0.34472939324E+03  0.34685220358E+03  0.00000000000E+00 0. -1.
<mgrwt>
<rscale>  1 0.30000000E+03</rscale>
<asrwt>0</asrwt>
<pdfrwt beam="1">  1       21 0.59111984E-02 0.30000000E+03</pdfrwt>
<pdfrwt beam="2">0</pdfrwt>
<totfact> 0.21620410E+04</totfact>
</mgrwt>
</event>
<event>
 6    1  0.1284012E-001  0.3000000E+03  0.7818608E-02  0.1093470E+00
         21   -1    0    0  501  502  0.00000000000E+00  0.00000000000E+00  0.25151319342E+01  0.25151319342E+01  0.00000000000E+00 0. -1.
         13   -1    0    0    0    0 -0.00000000000E+00 -0.00000000000E+00 -0.10000000000E+04  0.10000000000E+04  0.00000000000E+00 0.  1.
    9000005    2    1    2  501    0 -0.44109891224E+02  0.21747141871E+02 -0.59493756167E+03  0.59697480771E+03  0.30980758611E+01 0.  0.
         13    1    3    3    0    0 -0.40526962051E+02  0.20069392301E+02 -0.53589060096E+03  0.53779545495E+03  0.00000000000E+00 0.  1.
          3    1    3    3  501    0 -0.35829291725E+01  0.16777495706E+01 -0.59046960704E+02  0.59179352763E+02  0.00000000000E+00 0.  1.
         -3    1    1    2    0  502  0.44109891224E+02 -0.21747141871E+02 -0.40254730640E+03  0.40554032422E+03  0.00000000000E+00 0. -1.
<mgrwt>
<rscale>  1 0.30000000E+03</rscale>
<asrwt>0</asrwt>
<pdfrwt beam="1">  1       21 0.91459536E-02 0.30000000E+03</pdfrwt>
<pdfrwt beam="2">0</pdfrwt>
<totfact> 0.10086267E+04</totfact>
</mgrwt>
</event>
<event>
 6    1  0.1284012E-001  0.3000000E+03  0.7818608E-02  0.1093470E+00
         21   -1    0    0  501  502  0.00000000000E+00  0.00000000000E+00  0.14194205871E+01  0.14194205871E+01  0.00000000000E+00 0. -1.
         13   -1    0    0    0    0 -0.00000000000E+00 -0.00000000000E+00 -0.10000000000E+04  0.10000000000E+04  0.00000000000E+00 0.  1.
    9000005    2    1    2  501    0  0.36165274527E+02 -0.30769729166E+01 -0.63094251861E+03  0.63199400376E+03  0.32502553808E+01 0.  0.
         13    1    3    3    0    0  0.27880786793E+02 -0.25905980164E+01 -0.50877656849E+03  0.50954651026E+03  0.00000000000E+00 0.  1.
          1    1    3    3  501    0  0.82844877339E+01 -0.48637490015E+00 -0.12216595012E+03  0.12244749350E+03  0.00000000000E+00 0.  1.
         -1    1    1    2    0  502 -0.36165274527E+02  0.30769729166E+01 -0.36763806081E+03  0.36942541683E+03  0.00000000000E+00 0. -1.
<mgrwt>
<rscale>  1 0.30000000E+03</rscale>
<asrwt>0</asrwt>
<pdfrwt beam="1">  1       21 0.51615403E-02 0.30000000E+03</pdfrwt>
<pdfrwt beam="2">0</pdfrwt>
<totfact> 0.27283634E+04</totfact>
</mgrwt>
</event>
<event>
 6    1  0.1284012E-001  0.3000000E+03  0.7818608E-02  0.1093470E+00
         21   -1    0    0  501  502  0.00000000000E+00  0.00000000000E+00  0.39865455821E+01  0.39865455821E+01  0.00000000000E+00 0. -1.
         13   -1    0    0    0    0 -0.00000000000E+00 -0.00000000000E+00 -0.10000000000E+04  0.10000000000E+04  0.00000000000E+00 0.  1.
    9000005    2    1    2  501    0  0.56514525623E+02 -0.27987666816E+02 -0.48447333663E+03  0.48857361093E+03  0.35437680056E+01 0.  0.
         13    1    3    3    0    0  0.30570912849E+02 -0.13179016815E+02 -0.25373263966E+03  0.25590724810E+03  0.00000000000E+00 0.  1.
          3    1    3    3  501    0  0.25943612774E+02 -0.14808650000E+02 -0.23074069697E+03  0.23266636284E+03  0.00000000000E+00 0.  1.
         -1    1    1    2    0  502 -0.56514525623E+02  0.27987666816E+02 -0.51154011779E+03  0.51541293465E+03  0.00000000000E+00 0. -1.
<mgrwt>
<rscale>  1 0.30000000E+03</rscale>
<asrwt>0</asrwt>
<pdfrwt beam="1">  1       21 0.14496560E-01 0.30000000E+03</pdfrwt>
<pdfrwt beam="2">0</pdfrwt>
<totfact> 0.43860956E+03</totfact>
</mgrwt>
</event>
<event>
 6    1  0.1284012E-001  0.3000000E+03  0.7818608E-02  0.1093470E+00
         21   -1    0    0  501  502  0.00000000000E+00  0.00000000000E+00  0.95709889838E+00  0.95709889838E+00  0.00000000000E+00 0. -1.
         13   -1    0    0    0    0 -0.00000000000E+00 -0.00000000000E+00 -0.10000000000E+04  0.10000000000E+04  0.00000000000E+00 0.  1.
    9000005    2    1    2  501    0  0.23489438497E+02  0.18935251002E+02 -0.39785794286E+03  0.39901553075E+03  0.34862056570E+01 0.  0.
         13    1    3    3    0    0  0.60077576141E+01  0.64550640307E+01 -0.10352963096E+03  0.10390450178E+03  0.00000000000E+00 0.  1.
          3    1    3    3  501    0  0.17481680883E+02  0.12480186971E+02 -0.29432831190E+03  0.29511102897E+03  0.00000000000E+00 0.  1.
         -3    1    1    2    0  502 -0.23489438497E+02 -0.18935251002E+02 -0.60118495824E+03  0.60194156815E+03  0.00000000000E+00 0. -1.
<mgrwt>
<rscale>  1 0.30000000E+03</rscale>
<asrwt>0</asrwt>
<pdfrwt beam="1">  1       21 0.34803670E-02 0.30000000E+03</pdfrwt>
<pdfrwt beam="2">0</pdfrwt>
<totfact> 0.53114658E+04</totfact>
</mgrwt>
</event>
<event>
 6    1  0.1284012E-001  0.3000000E+03  0.7818608E-02  0.1093470E+00
         21   -1    0    0  501  502  0.00000000000E+00  0.00000000000E+00  0.19217088975E+01  0.19217088975E+01  0.00000000000E+00 0. -1.
         13   -1    0    0    0    0 -0.00000000000E+00 -0.00000000000E+00 -0.10000000000E+04  0.10000000000E+04  0.00000000000E+00 0.  1.
    9000005    2    1    2  501    0 -0.31334909966E+02  0.15710528170E+02 -0.79918998591E+03  0.79996811220E+03  0.39559670125E+01 0.  0.
         13    1    3    3    0    0 -0.20281469434E+02  0.11883821133E+02 -0.50911007402E+03  0.50965246068E+03  0.00000000000E+00 0.  1.
          1    1    3    3  501    0 -0.11053440533E+02  0.38267070367E+01 -0.29007991189E+03  0.29031565152E+03  0.00000000000E+00 0.  1.
         -3    1    1    2    0  502  0.31334909966E+02 -0.15710528170E+02 -0.19888830519E+03  0.20195359670E+03  0.00000000000E+00 0. -1.
<mgrwt>
<rscale>  1 0.30000000E+03</rscale>
<asrwt>0</asrwt>
<pdfrwt beam="1">  1       21 0.69880471E-02 0.30000000E+03</pdfrwt>
<pdfrwt beam="2">0</pdfrwt>
<totfact> 0.16183345E+04</totfact>
</mgrwt>
</event>
<event>
 6    1  0.1284012E-001  0.3000000E+03  0.7818608E-02  0.1093470E+00
         21   -1    0    0  501  502  0.00000000000E+00  0.00000000000E+00  0.11243214118E+01  0.11243214118E+01  0.00000000000E+00 0. -1.
         13   -1    0    0    0    0 -0.00000000000E+00 -0.00000000000E+00 -0.10000000000E+04  0.10000000000E+04  0.00000000000E+00 0.  1.
    9000005    2    1    2  501    0 -0.23148132645E+02  0.24091240847E+02 -0.52302625902E+03  0.52410346858E+03  0.34284435876E+01 0.  0.
         13    1    3    3    0    0 -0.21304490072E+02  0.20644009438E+02 -0.45782602720E+03  0.45878614583E+03  0.00000000000E+00 0.  1.
          3    1    3    3  501    0 -0.18436425729E+01  0.34472314088E+01 -0.65200231819E+02  0.65317322753E+02  0.00000000000E+00 0.  1.
         -1    1    1    2    0  502  0.23148132645E+02 -0.24091240847E+02 -0.47584941957E+03  0.47702085283E+03  0.00000000000E+00 0. -1.
<mgrwt>
<rscale>  1 0.30000000E+03</rscale>
<asrwt>0</asrwt>
<pdfrwt beam="1">  1       21 0.40884501E-02 0.30000000E+03</pdfrwt>
<pdfrwt beam="2">0</pdfrwt>
<totfact> 0.40525942E+04</totfact>
</mgrwt>
</event>
<event>
 6    1  0.1284012E-001  0.3000000E+03  0.7818608E-02  0.1093470E+00
         21   -1    0    0  501  502  0.00000000000E+00  0.00000000000E+00  0.17059205577E+01  0.17059205577E+01  0.00000000000E+00 0. -1.
         13   -1    0    0    0    0 -0.00000000000E+00 -0.00000000000E+00 -0.10000000000E+04  0.10000000000E+04  0.00000000000E+00 0.  1.
    9000005    2    1    2  501    0 -0.36112361555E+02 -0.10606922168E+02 -0.70408710756E+03  0.70510121433E+03  0.35295829966E+01 0.  0.
         13    1    3    3    0    0 -0.31825699117E+02 -0.82547612893E+01 -0.60231987167E+03  0.60321658135E+03  0.00000000000E+00 0.  1.
          3    1    3    3  501    0 -0.42866624378E+01 -0.23521608783E+01 -0.10176723589E+03  0.10188463298E+03  0.00000000000E+00 0.  1.
         -1    1    1    2    0  502  0.36112361555E+02  0.10606922168E+02 -0.29420697188E+03  0.29660470623E+03  0.00000000000E+00 0. -1.
<mgrwt>
<rscale>  1 0.30000000E+03</rscale>
<asrwt>0</asrwt>
<pdfrwt beam="1">  1       21 0.62033606E-02 0.30000000E+03</pdfrwt>
<pdfrwt beam="2">0</pdfrwt>
<totfact> 0.19893714E+04</totfact>
</mgrwt>
</event>
<event>
 6    1  0.1284012E-001  0.3000000E+03  0.7818608E-02  0.1093470E+00
         21   -1    0    0  501  502  0.00000000000E+00  0.00000000000E+00  0.20911237601E+01  0.20911237601E+01  0.00000000000E+00 0. -1.
         13   -1    0    0    0    0 -0.00000000000E+00 -0.00000000000E+00 -0.10000000000E+04  0.10000000000E+04  0.00000000000E+00 0.  1.
    9000005    2    1    2  501    0  0.40394225115E+02 -0.55788452996E+01 -0.72493457463E+03  0.72608788777E+03  0.32659355602E+01 0.  0.
         13    1    3    3    0    0  0.16788274075E+02 -0.97697419291E+00 -0.31447636587E+03  0.31492568221E+03  0.00000000000E+00 0.  1.
          3    1    3    3  501    0  0.23605951040E+02 -0.46018711067E+01 -0.41045820876E+03  0.41116220556E+03  0.00000000000E+00 0.  1.
         -1    1    1    2    0  502 -0.40394225115E+02  0.55788452996E+01 -0.27297430161E+03  0.27600323599E+03  0.00000000000E+00 0. -1.
<mgrwt>
<rscale>  1 0.30000000E+03</rscale>
<asrwt>0</asrwt>
<pdfrwt beam="1">  1       21 0.76041024E-02 0.30000000E+03</pdfrwt>
<pdfrwt beam="2">0</pdfrwt>
<totfact> 0.13963250E+04</totfact>
</mgrwt>
</event>
<event>
 6    1  0.1284012E-001  0.3000000E+03  0.7818608E-02  0.1093470E+00
         21   -1    0    0  501  502  0.00000000000E+00  0.00000000000E+00  0.24489968129E+01  0.24489968129E+01  0.00000000000E+00 0. -1.
         13   -1    0    0    0    0 -0.00000000000E+00 -0.00000000000E+00 -0.10000000000E+04  0.10000000000E+04  0.00000000000E+00 0.  1.
    9000005    2    1    2  501    0 -0.36562210408E+02  0.26957598264E+02 -0.69685292440E+03  0.69833907931E+03  0.31565994717E+01 0.  0.
         13    1    3    3    0    0 -0.29279473224E+02  0.21795684024E+02 -0.57801336705E+03  0.57916473640E+03  0.00000000000E+00 0.  1.
          3    1    3    3  501    0 -0.72827371834E+01  0.51619142398E+01 -0.11883955735E+03  0.11917434292E+03  0.00000000000E+00 0.  1.
         -1    1    1    2    0  502  0.36562210408E+02 -0.26957598264E+02 -0.30069807879E+03  0.30410991750E+03  0.00000000000E+00 0. -1.
<mgrwt>
<rscale>  1 0.30000000E+03</rscale>
<asrwt>0</asrwt>
<pdfrwt beam="1">  1       21 0.89054617E-02 0.30000000E+03</pdfrwt>
<pdfrwt beam="2">0</pdfrwt>
<totfact> 0.10573980E+04</totfact>
</mgrwt>
</event>
<event>
 6    1  0.1284012E-001  0.3000000E+03  0.7818608E-02  0.1093470E+00
         21   -1    0    0  501  502  0.00000000000E+00  0.00000000000E+00  0.13298892699E+02  0.13298892699E+02  0.00000000000E+00 0. -1.
         13   -1    0    0    0    0 -0.00000000000E+00 -0.00000000000E+00 -0.10000000000E+04  0.10000000000E+04  0.00000000000E+00 0.  1.
    9000005    2    1    2  501    0  0.15125128201E+02  0.31085856523E+02 -0.97669020861E+03  0.97730836518E+03  0.35745014102E+01 0.  0.
         13    1    3    3    0    0  0.11351132811E+02  0.20520928755E+02 -0.62791258403E+03  0.62835035602E+03  0.00000000000E+00 0.  1.
          3    1    3    3  501    0  0.37739953901E+01  0.10564927768E+02 -0.34877762459E+03  0.34895800916E+03  0.00000000000E+00 0.  1.
         -1    1    1    2    0  502 -0.15125128201E+02 -0.31085856523E+02 -0.10010898687E+02  0.35990527523E+02  0.00000000000E+00 0. -1.
<mgrwt>
<rscale>  1 0.30000000E+03</rscale>
<asrwt>0</asrwt>
<pdfrwt beam="1">  1       21 0.48359712E-01 0.30000000E+03</pdfrwt>
<pdfrwt beam="2">0</pdfrwt>
<totfact> 0.40380374E+02</totfact>
</mgrwt>
</event>
<event>
 6    1  0.1284012E-001  0.3000000E+03  0.7818608E-02  0.1093470E+00
         21   -1    0    0  501  502  0.00000000000E+00  0.00000000000E+00  0.21923991441E+01  0.21923991441E+01  0.00000000000E+00 0. -1.
         13   -1    0    0    0    0 -0.00000000000E+00 -0.00000000000E+00 -0.10000000000E+04  0.10000000000E+04  0.00000000000E+00 0.  1.
    9000005    2    1    2  501    0  0.16868082745E+02  0.40918068696E+02 -0.66111153820E+03  0.66259990928E+03  0.33694630026E+01 0.  0.
         13    1    3    3    0    0  0.50460741621E+01  0.16381917346E+02 -0.24873031278E+03  0.24932027310E+03  0.00000000000E+00 0.  1.
          3    1    3    3  501    0  0.11822008583E+02  0.24536151350E+02 -0.41238122542E+03  0.41327963619E+03  0.00000000000E+00 0.  1.
         -1    1    1    2    0  502 -0.16868082745E+02 -0.40918068696E+02 -0.33669606266E+03  0.33959248986E+03  0.00000000000E+00 0. -1.
<mgrwt>
<rscale>  1 0.30000000E+03</rscale>
<asrwt>0</asrwt>
<pdfrwt beam="1">  1       21 0.79723773E-02 0.30000000E+03</pdfrwt>
<pdfrwt beam="2">0</pdfrwt>
<totfact> 0.12851702E+04</totfact>
</mgrwt>
</event>
<event>
 6    1  0.1284012E-001  0.3000000E+03  0.7818608E-02  0.1093470E+00
         21   -1    0    0  501  502  0.00000000000E+00  0.00000000000E+00  0.16937549817E+01  0.16937549817E+01  0.00000000000E+00 0. -1.
         13   -1    0    0    0    0 -0.00000000000E+00 -0.00000000000E+00 -0.10000000000E+04  0.10000000000E+04  0.00000000000E+00 0.  1.
    9000005    2    1    2  501    0 -0.61531477371E+00 -0.38446345361E+02 -0.67623044359E+03  0.67733080712E+03  0.33029295741E+01 0.  0.
         13    1    3    3    0    0 -0.10390054515E+01 -0.48167546695E+01 -0.77477447779E+02  0.77633984647E+02  0.00000000000E+00 0.  1.
          1    1    3    3  501    0  0.42369067783E+00 -0.33629590691E+02 -0.59875299581E+03  0.59969682247E+03  0.00000000000E+00 0.  1.
         -1    1    1    2    0  502  0.61531477371E+00  0.38446345361E+02 -0.32207580143E+03  0.32436294787E+03  0.00000000000E+00 0. -1.
<mgrwt>
<rscale>  1 0.30000000E+03</rscale>
<asrwt>0</asrwt>
<pdfrwt beam="1">  1       21 0.61591220E-02 0.30000000E+03</pdfrwt>
<pdfrwt beam="2">0</pdfrwt>
<totfact> 0.20141104E+04</totfact>
</mgrwt>
</event>
<event>
 6    1  0.1284012E-001  0.3000000E+03  0.7818608E-02  0.1093470E+00
         21   -1    0    0  501  502  0.00000000000E+00  0.00000000000E+00  0.13815388690E+01  0.13815388690E+01  0.00000000000E+00 0. -1.
         13   -1    0    0    0    0 -0.00000000000E+00 -0.00000000000E+00 -0.10000000000E+04  0.10000000000E+04  0.00000000000E+00 0.  1.
    9000005    2    1    2  501    0  0.68653587465E+00 -0.37087856569E+02 -0.50908072412E+03  0.51044042591E+03  0.32037939242E+01 0.  0.
         13    1    3    3    0    0  0.48881883949E+00 -0.11840477784E+01 -0.22847771017E+02  0.22883652537E+02  0.00000000000E+00 0.  1.
          3    1    3    3  501    0  0.19771703516E+00 -0.35903808790E+02 -0.48623295311E+03  0.48755677338E+03  0.00000000000E+00 0.  1.
         -3    1    1    2    0  502 -0.68653587465E+00  0.37087856569E+02 -0.48953773701E+03  0.49094111296E+03  0.00000000000E+00 0. -1.
<mgrwt>
<rscale>  1 0.30000000E+03</rscale>
<asrwt>0</asrwt>
<pdfrwt beam="1">  1       21 0.50237883E-02 0.30000000E+03</pdfrwt>
<pdfrwt beam="2">0</pdfrwt>
<totfact> 0.28572502E+04</totfact>
</mgrwt>
</event>
<event>
 6    1  0.1284012E-001  0.3000000E+03  0.7818608E-02  0.1093470E+00
         21   -1    0    0  501  502  0.00000000000E+00  0.00000000000E+00  0.96597051831E+00  0.96597051831E+00  0.00000000000E+00 0. -1.
         13   -1    0    0    0    0 -0.00000000000E+00 -0.00000000000E+00 -0.10000000000E+04  0.10000000000E+04  0.00000000000E+00 0.  1.
    9000005    2    1    2  501    0 -0.99135095233E+01  0.29156801909E+02 -0.55456533470E+03  0.55543166499E+03  0.36369280086E+01 0.  0.
         13    1    3    3    0    0 -0.20564305871E+00  0.45771482455E+01 -0.83535902219E+02  0.83661457881E+02  0.00000000000E+00 0.  1.
          3    1    3    3  501    0 -0.97078664646E+01  0.24579653663E+02 -0.47102943248E+03  0.47177020711E+03  0.00000000000E+00 0.  1.
         -1    1    1    2    0  502  0.99135095233E+01 -0.29156801909E+02 -0.44446869478E+03  0.44553430553E+03  0.00000000000E+00 0. -1.
<mgrwt>
<rscale>  1 0.30000000E+03</rscale>
<asrwt>0</asrwt>
<pdfrwt beam="1">  1       21 0.35126275E-02 0.30000000E+03</pdfrwt>
<pdfrwt beam="2">0</pdfrwt>
<totfact> 0.52300422E+04</totfact>
</mgrwt>
</event>
<event>
 6    1  0.1284012E-001  0.3000000E+03  0.7818608E-02  0.1093470E+00
         21   -1    0    0  501  502  0.00000000000E+00  0.00000000000E+00  0.15220763056E+01  0.15220763056E+01  0.00000000000E+00 0. -1.
         13   -1    0    0    0    0 -0.00000000000E+00 -0.00000000000E+00 -0.10000000000E+04  0.10000000000E+04  0.00000000000E+00 0.  1.
    9000005    2    1    2  501    0 -0.22225289156E+00 -0.32045745083E+02 -0.78399928337E+03  0.78466252192E+03  0.36630318260E+01 0.  0.
         13    1    3    3    0    0  0.13266656105E+01 -0.18708373637E+02 -0.43062301684E+03  0.43103125863E+03  0.00000000000E+00 0.  1.
          1    1    3    3  501    0 -0.15489185021E+01 -0.13337371446E+02 -0.35337626653E+03  0.35363126328E+03  0.00000000000E+00 0.  1.
         -1    1    1    2    0  502  0.22225289156E+00  0.32045745083E+02 -0.21447864033E+03  0.21685955439E+03  0.00000000000E+00 0. -1.
<mgrwt>
<rscale>  1 0.30000000E+03</rscale>
<asrwt>0</asrwt>
<pdfrwt beam="1">  1       21 0.55348346E-02 0.30000000E+03</pdfrwt>
<pdfrwt beam="2">0</pdfrwt>
<totfact> 0.24210565E+04</totfact>
</mgrwt>
</event>
<event>
 6    1  0.1284012E-001  0.3000000E+03  0.7818608E-02  0.1093470E+00
         21   -1    0    0  501  502  0.00000000000E+00  0.00000000000E+00  0.17516085214E+01  0.17516085214E+01  0.00000000000E+00 0. -1.
         13   -1    0    0    0    0 -0.00000000000E+00 -0.00000000000E+00 -0.10000000000E+04  0.10000000000E+04  0.00000000000E+00 0.  1.
    9000005    2    1    2  501    0 -0.30950741109E+02 -0.13490594414E+02 -0.79425688916E+03  0.79498488602E+03  0.41253509872E+01 0.  0.
         13    1    3    3    0    0 -0.28143478793E+02 -0.11167355387E+02 -0.72543311330E+03  0.72606471275E+03  0.00000000000E+00 0.  1.
          1    1    3    3  501    0 -0.28072623160E+01 -0.23232390267E+01 -0.68823775859E+02  0.68920173278E+02  0.00000000000E+00 0.  1.
         -1    1    1    2    0  502  0.30950741109E+02  0.13490594414E+02 -0.20399150232E+03  0.20676672250E+03  0.00000000000E+00 0. -1.
<mgrwt>
<rscale>  1 0.30000000E+03</rscale>
<asrwt>0</asrwt>
<pdfrwt beam="1">  1       21 0.63694990E-02 0.30000000E+03</pdfrwt>
<pdfrwt beam="2">0</pdfrwt>
<totfact> 0.19005468E+04</totfact>
</mgrwt>
</event>
<event>
 6    1  0.1284012E-001  0.3000000E+03  0.7818608E-02  0.1093470E+00
         21   -1    0    0  501  502  0.00000000000E+00  0.00000000000E+00  0.11927444551E+01  0.11927444551E+01  0.00000000000E+00 0. -1.
         13   -1    0    0    0    0 -0.00000000000E+00 -0.00000000000E+00 -0.10000000000E+04  0.10000000000E+04  0.00000000000E+00 0.  1.
    9000005    2    1    2  501    0  0.33980932025E+02 -0.33532239314E+01 -0.46080643666E+03  0.46210942161E+03  0.60495965670E+01 0.  0.
         13    1    3    3    0    0  0.11426743117E+02  0.10554691317E+01 -0.12985991438E+03  0.13036595352E+03  0.00000000000E+00 0.  1.
          3    1    3    3  501    0  0.22554188909E+02 -0.44086930630E+01 -0.33094652228E+03  0.33174346809E+03  0.00000000000E+00 0.  1.
         -1    1    1    2    0  502 -0.33980932025E+02  0.33532239314E+01 -0.53800081888E+03  0.53908332285E+03  0.00000000000E+00 0. -1.
<mgrwt>
<rscale>  1 0.30000000E+03</rscale>
<asrwt>0</asrwt>
<pdfrwt beam="1">  1       21 0.43372617E-02 0.30000000E+03</pdfrwt>
<pdfrwt beam="2">0</pdfrwt>
<totfact> 0.36677459E+04</totfact>
</mgrwt>
</event>
<event>
 6    1  0.1284012E-001  0.3000000E+03  0.7818608E-02  0.1093470E+00
         21   -1    0    0  501  502  0.00000000000E+00  0.00000000000E+00  0.13448448833E+01  0.13448448833E+01  0.00000000000E+00 0. -1.
         13   -1    0    0    0    0 -0.00000000000E+00 -0.00000000000E+00 -0.10000000000E+04  0.10000000000E+04  0.00000000000E+00 0.  1.
    9000005    2    1    2  501    0 -0.34913373515E+02  0.79422517981E+01 -0.58400274692E+03  0.58514940685E+03  0.76548622917E+01 0.  0.
         13    1    3    3    0    0 -0.28058844091E+02  0.75772064263E+01 -0.51056210522E+03  0.51138867417E+03  0.00000000000E+00 0.  1.
          1    1    3    3  501    0 -0.68545294240E+01  0.36504537184E+00 -0.73440641702E+02  0.73760732679E+02  0.00000000000E+00 0.  1.
         -1    1    1    2    0  502  0.34913373515E+02 -0.79422517981E+01 -0.41465240820E+03  0.41619543803E+03  0.00000000000E+00 0. -1.
<mgrwt>
<rscale>  1 0.30000000E+03</rscale>
<asrwt>0</asrwt>
<pdfrwt beam="1">  1       21 0.48903553E-02 0.30000000E+03</pdfrwt>
<pdfrwt beam="2">0</pdfrwt>
<totfact> 0.29913677E+04</totfact>
</mgrwt>
</event>
<event>
 6    1  0.1284012E-001  0.3000000E+03  0.7818608E-02  0.1093470E+00
         21   -1    0    0  501  502  0.00000000000E+00  0.00000000000E+00  0.70449191248E+01  0.70449191248E+01  0.00000000000E+00 0. -1.
         13   -1    0    0    0    0 -0.00000000000E+00 -0.00000000000E+00 -0.10000000000E+04  0.10000000000E+04  0.00000000000E+00 0.  1.
    9000005    2    1    2  501    0  0.57509877781E+02  0.49622237908E+02 -0.71045884130E+03  0.71451478749E+03  0.31406735051E+01 0.  0.
         13    1    3    3    0    0  0.35915753486E+02  0.30611959172E+02 -0.42717173694E+03  0.42977055068E+03  0.00000000000E+00 0.  1.
          3    1    3    3  501    0  0.21594124296E+02  0.19010278736E+02 -0.28328710436E+03  0.28474423681E+03  0.00000000000E+00 0.  1.
         -3    1    1    2    0  502 -0.57509877781E+02 -0.49622237908E+02 -0.28249623958E+03  0.29253013163E+03  0.00000000000E+00 0. -1.
<mgrwt>
<rscale>  1 0.30000000E+03</rscale>
<asrwt>0</asrwt>
<pdfrwt beam="1">  1       21 0.25617942E-01 0.30000000E+03</pdfrwt>
<pdfrwt beam="2">0</pdfrwt>
<totfact> 0.14866757E+03</totfact>
</mgrwt>
</event>
<event>
 6    1  0.1284012E-001  0.3000000E+03  0.7818608E-02  0.1093470E+00
         21   -1    0    0  501  502  0.00000000000E+00  0.00000000000E+00  0.30068919698E+01  0.30068919698E+01  0.00000000000E+00 0. -1.
         13   -1    0    0    0    0 -0.00000000000E+00 -0.00000000000E+00 -0.10000000000E+04  0.10000000000E+04  0.00000000000E+00 0.  1.
    9000005    2    1    2  501    0 -0.58320889158E+01 -0.33585861328E+02 -0.89118090733E+03  0.89183924758E+03  0.34366541569E+01 0.  0.
         13    1    3    3    0    0 -0.40247499558E+01 -0.18715434765E+02 -0.45981989369E+03  0.46021820992E+03  0.00000000000E+00 0.  1.
          1    1    3    3  501    0 -0.18073389600E+01 -0.14870426563E+02 -0.43136101364E+03  0.43162103766E+03  0.00000000000E+00 0.  1.
         -3    1    1    2    0  502  0.58320889158E+01  0.33585861328E+02 -0.10581220070E+03  0.11116764439E+03  0.00000000000E+00 0. -1.
<mgrwt>
<rscale>  1 0.30000000E+03</rscale>
<asrwt>0</asrwt>
<pdfrwt beam="1">  1       21 0.10934176E-01 0.30000000E+03</pdfrwt>
<pdfrwt beam="2">0</pdfrwt>
<totfact> 0.73307371E+03</totfact>
</mgrwt>
</event>
<event>
 6    1  0.1284012E-001  0.3000000E+03  0.7818608E-02  0.1093470E+00
         21   -1    0    0  501  502  0.00000000000E+00  0.00000000000E+00  0.14441971991E+01  0.14441971991E+01  0.00000000000E+00 0. -1.
         13   -1    0    0    0    0 -0.00000000000E+00 -0.00000000000E+00 -0.10000000000E+04  0.10000000000E+04  0.00000000000E+00 0.  1.
    9000005    2    1    2  501    0 -0.30396190894E+02 -0.21258055200E+02 -0.40025752296E+03  0.40199723125E+03  0.44559971156E+01 0.  0.
         13    1    3    3    0    0 -0.57717910721E+00 -0.41457433614E-01 -0.13415208709E+02  0.13427683312E+02  0.00000000000E+00 0.  1.
          3    1    3    3  501    0 -0.29819011787E+02 -0.21216597766E+02 -0.38684231425E+03  0.38856954793E+03  0.00000000000E+00 0.  1.
         -3    1    1    2    0  502  0.30396190894E+02  0.21258055200E+02 -0.59829827984E+03  0.59944696595E+03  0.00000000000E+00 0. -1.
<mgrwt>
<rscale>  1 0.30000000E+03</rscale>
<asrwt>0</asrwt>
<pdfrwt beam="1">  1       21 0.52516373E-02 0.30000000E+03</pdfrwt>
<pdfrwt beam="2">0</pdfrwt>
<totfact> 0.26488810E+04</totfact>
</mgrwt>
</event>
<event>
 6    1  0.1284012E-001  0.3000000E+03  0.7818608E-02  0.1093470E+00
         21   -1    0    0  501  502  0.00000000000E+00  0.00000000000E+00  0.14266010870E+01  0.14266010870E+01  0.00000000000E+00 0. -1.
         13   -1    0    0    0    0 -0.00000000000E+00 -0.00000000000E+00 -0.10000000000E+04  0.10000000000E+04  0.00000000000E+00 0.  1.
    9000005    2    1    2  501    0 -0.12606313885E+02 -0.31718615954E+02 -0.71231183467E+03  0.71313738362E+03  0.34334167524E+01 0.  0.
         13    1    3    3    0    0 -0.10133971959E+02 -0.26296590997E+02 -0.55929677064E+03  0.56000632652E+03  0.00000000000E+00 0.  1.
          3    1    3    3  501    0 -0.24723419257E+01 -0.54220249567E+01 -0.15301506403E+03  0.15313105710E+03  0.00000000000E+00 0.  1.
         -3    1    1    2    0  502  0.12606313885E+02  0.31718615954E+02 -0.28626156424E+03  0.28828921747E+03  0.00000000000E+00 0. -1.
<mgrwt>
<rscale>  1 0.30000000E+03</rscale>
<asrwt>0</asrwt>
<pdfrwt beam="1">  1       21 0.51876513E-02 0.30000000E+03</pdfrwt>
<pdfrwt beam="2">0</pdfrwt>
<totfact> 0.27049520E+04</totfact>
</mgrwt>
</event>
<event>
 6    1  0.1284012E-001  0.3000000E+03  0.7818608E-02  0.1093470E+00
         21   -1    0    0  501  502  0.00000000000E+00  0.00000000000E+00  0.35409712370E+01  0.35409712370E+01  0.00000000000E+00 0. -1.
         13   -1    0    0    0    0 -0.00000000000E+00 -0.00000000000E+00 -0.10000000000E+04  0.10000000000E+04  0.00000000000E+00 0.  1.
    9000005    2    1    2  501    0  0.93265764120E+01 -0.44145872758E+02 -0.17230468011E+03  0.17815243636E+03  0.36803101339E+01 0.  0.
         13    1    3    3    0    0  0.74725797162E+01 -0.39941094123E+02 -0.15238997586E+03  0.15771441022E+03  0.00000000000E+00 0.  1.
          3    1    3    3  501    0  0.18539966958E+01 -0.42047786353E+01 -0.19914704245E+02  0.20438026135E+02  0.00000000000E+00 0.  1.
         -3    1    1    2    0  502 -0.93265764120E+01  0.44145872758E+02 -0.82415434865E+03  0.82538853488E+03  0.00000000000E+00 0. -1.
<mgrwt>
<rscale>  1 0.30000000E+03</rscale>
<asrwt>0</asrwt>
<pdfrwt beam="1">  1       21 0.12876286E-01 0.30000000E+03</pdfrwt>
<pdfrwt beam="2">0</pdfrwt>
<totfact> 0.54508470E+03</totfact>
</mgrwt>
</event>
<event>
 6    1  0.1284012E-001  0.3000000E+03  0.7818608E-02  0.1093470E+00
         21   -1    0    0  501  502  0.00000000000E+00  0.00000000000E+00  0.16643021647E+01  0.16643021647E+01  0.00000000000E+00 0. -1.
         13   -1    0    0    0    0 -0.00000000000E+00 -0.00000000000E+00 -0.10000000000E+04  0.10000000000E+04  0.00000000000E+00 0.  1.
    9000005    2    1    2  501    0  0.25784561903E+02 -0.16137762868E+02 -0.83246763448E+03  0.83303012573E+03  0.33995415239E+01 0.  0.
         13    1    3    3    0    0  0.15872709500E+02 -0.80202737220E+01 -0.49536813147E+03  0.49568725360E+03  0.00000000000E+00 0.  1.
          1    1    3    3  501    0  0.99118524030E+01 -0.81174891461E+01 -0.33709950301E+03  0.33734287213E+03  0.00000000000E+00 0.  1.
         -1    1    1    2    0  502 -0.25784561903E+02  0.16137762868E+02 -0.16586806335E+03  0.16863417644E+03  0.00000000000E+00 0. -1.
<mgrwt>
<rscale>  1 0.30000000E+03</rscale>
<asrwt>0</asrwt>
<pdfrwt beam="1">  1       21 0.60520206E-02 0.30000000E+03</pdfrwt>
<pdfrwt beam="2">0</pdfrwt>
<totfact> 0.20760213E+04</totfact>
</mgrwt>
</event>
<event>
 6    1  0.1284012E-001  0.3000000E+03  0.7818608E-02  0.1093470E+00
         21   -1    0    0  501  502  0.00000000000E+00  0.00000000000E+00  0.13422648425E+01  0.13422648425E+01  0.00000000000E+00 0. -1.
         13   -1    0    0    0    0 -0.00000000000E+00 -0.00000000000E+00 -0.10000000000E+04  0.10000000000E+04  0.00000000000E+00 0.  1.
    9000005    2    1    2  501    0 -0.25201371332E+02  0.20781290960E+02 -0.27644813567E+03  0.27839435748E+03  0.35882292557E+01 0.  0.
         13    1    3    3    0    0 -0.13885903281E+02  0.13550698744E+02 -0.15742344778E+03  0.15861456950E+03  0.00000000000E+00 0.  1.
          1    1    3    3  501    0 -0.11315468050E+02  0.72305922160E+01 -0.11902468789E+03  0.11977978798E+03  0.00000000000E+00 0.  1.
         -1    1    1    2    0  502  0.25201371332E+02 -0.20781290960E+02 -0.72220959949E+03  0.72294790736E+03  0.00000000000E+00 0. -1.
<mgrwt>
<rscale>  1 0.30000000E+03</rscale>
<asrwt>0</asrwt>
<pdfrwt beam="1">  1       21 0.48809734E-02 0.30000000E+03</pdfrwt>
<pdfrwt beam="2">0</pdfrwt>
<totfact> 0.30011657E+04</totfact>
</mgrwt>
</event>
<event>
 6    1  0.1284012E-001  0.3000000E+03  0.7818608E-02  0.1093470E+00
         21   -1    0    0  501  502  0.00000000000E+00  0.00000000000E+00  0.13898799917E+01  0.13898799917E+01  0.00000000000E+00 0. -1.
         13   -1    0    0    0    0 -0.00000000000E+00 -0.00000000000E+00 -0.10000000000E+04  0.10000000000E+04  0.00000000000E+00 0.  1.
    9000005    2    1    2  501    0 -0.23743470429E+01  0.36985604410E+02 -0.54174869761E+03  0.54302765235E+03  0.37158298862E+01 0.  0.
         13    1    3    3    0    0 -0.26259111813E+01  0.17150788019E+02 -0.23739341120E+03  0.23802663007E+03  0.00000000000E+00 0.  1.
          1    1    3    3  501    0  0.25156413837E+00  0.19834816391E+02 -0.30435528641E+03  0.30500102228E+03  0.00000000000E+00 0.  1.
         -1    1    1    2    0  502  0.23743470429E+01 -0.36985604410E+02 -0.45686142240E+03  0.45836222764E+03  0.00000000000E+00 0. -1.
<mgrwt>
<rscale>  1 0.30000000E+03</rscale>
<asrwt>0</asrwt>
<pdfrwt beam="1">  1       21 0.50541197E-02 0.30000000E+03</pdfrwt>
<pdfrwt beam="2">0</pdfrwt>
<totfact> 0.28280694E+04</totfact>
</mgrwt>
</event>
<event>
 6    1  0.1284012E-001  0.3000000E+03  0.7818608E-02  0.1093470E+00
         21   -1    0    0  501  502  0.00000000000E+00  0.00000000000E+00  0.27940268221E+01  0.27940268221E+01  0.00000000000E+00 0. -1.
         13   -1    0    0    0    0 -0.00000000000E+00 -0.00000000000E+00 -0.10000000000E+04  0.10000000000E+04  0.00000000000E+00 0.  1.
    9000005    2    1    2  501    0 -0.40980653817E+01 -0.33095495564E+02 -0.88746634986E+03  0.88809925409E+03  0.34142367003E+01 0.  0.
         13    1    3    3    0    0 -0.14904801168E+01 -0.34606821827E+01 -0.94907402175E+02  0.94982171168E+02  0.00000000000E+00 0.  1.
          1    1    3    3  501    0 -0.26075852649E+01 -0.29634813381E+02 -0.79255894768E+03  0.79311708292E+03  0.00000000000E+00 0.  1.
         -1    1    1    2    0  502  0.40980653817E+01  0.33095495564E+02 -0.10973962332E+03  0.11469477274E+03  0.00000000000E+00 0. -1.
<mgrwt>
<rscale>  1 0.30000000E+03</rscale>
<asrwt>0</asrwt>
<pdfrwt beam="1">  1       21 0.10160119E-01 0.30000000E+03</pdfrwt>
<pdfrwt beam="2">0</pdfrwt>
<totfact> 0.83623230E+03</totfact>
</mgrwt>
</event>
<event>
 6    1  0.1284012E-001  0.3000000E+03  0.7818608E-02  0.1093470E+00
         21   -1    0    0  501  502  0.00000000000E+00  0.00000000000E+00  0.53426080750E+01  0.53426080750E+01  0.00000000000E+00 0. -1.
         13   -1    0    0    0    0 -0.00000000000E+00 -0.00000000000E+00 -0.10000000000E+04  0.10000000000E+04  0.00000000000E+00 0.  1.
    9000005    2    1    2  501    0 -0.53243287211E+02  0.38237494938E+02 -0.71928370555E+03  0.72227438167E+03  0.37788484001E+01 0.  0.
         13    1    3    3    0    0 -0.34596279612E+01  0.36847534149E+01 -0.52807179763E+02  0.53048512401E+02  0.00000000000E+00 0.  1.
          3    1    3    3  501    0 -0.49783659250E+02  0.34552741523E+02 -0.66647652579E+03  0.66922586927E+03  0.00000000000E+00 0.  1.
         -3    1    1    2    0  502  0.53243287211E+02 -0.38237494938E+02 -0.27537368638E+03  0.28306822641E+03  0.00000000000E+00 0. -1.
<mgrwt>
<rscale>  1 0.30000000E+03</rscale>
<asrwt>0</asrwt>
<pdfrwt beam="1">  1       21 0.19427707E-01 0.30000000E+03</pdfrwt>
<pdfrwt beam="2">0</pdfrwt>
<totfact> 0.25356474E+03</totfact>
</mgrwt>
</event>
<event>
 6    1  0.1284012E-001  0.3000000E+03  0.7818608E-02  0.1093470E+00
         21   -1    0    0  501  502  0.00000000000E+00  0.00000000000E+00  0.26539317250E+01  0.26539317250E+01  0.00000000000E+00 0. -1.
         13   -1    0    0    0    0 -0.00000000000E+00 -0.00000000000E+00 -0.10000000000E+04  0.10000000000E+04  0.00000000000E+00 0.  1.
    9000005    2    1    2  501    0  0.16980982563E+02  0.26304909955E+02 -0.89612015649E+03  0.89669645311E+03  0.72726959409E+01 0.  0.
         13    1    3    3    0    0  0.38601504825E+01  0.42328648769E+01 -0.25122327049E+03  0.25128857822E+03  0.00000000000E+00 0.  1.
          1    1    3    3  501    0  0.13120832081E+02  0.22072045078E+02 -0.64489688599E+03  0.64540787489E+03  0.00000000000E+00 0.  1.
         -1    1    1    2    0  502 -0.16980982563E+02 -0.26304909955E+02 -0.10122591179E+03  0.10595747861E+03  0.00000000000E+00 0. -1.
<mgrwt>
<rscale>  1 0.30000000E+03</rscale>
<asrwt>0</asrwt>
<pdfrwt beam="1">  1       21 0.96506812E-02 0.30000000E+03</pdfrwt>
<pdfrwt beam="2">0</pdfrwt>
<totfact> 0.91669413E+03</totfact>
</mgrwt>
</event>
<event>
 6    1  0.1284012E-001  0.3000000E+03  0.7818608E-02  0.1093470E+00
         21   -1    0    0  501  502  0.00000000000E+00  0.00000000000E+00  0.26458919568E+01  0.26458919568E+01  0.00000000000E+00 0. -1.
         13   -1    0    0    0    0 -0.00000000000E+00 -0.00000000000E+00 -0.10000000000E+04  0.10000000000E+04  0.00000000000E+00 0.  1.
    9000005    2    1    2  501    0  0.19152214634E+02 -0.43596280789E+02 -0.68077381774E+03  0.68250448065E+03  0.95881262699E+01 0.  0.
         13    1    3    3    0    0  0.64559564542E+00  0.41752094128E+00 -0.15826242869E+02  0.15844907094E+02  0.00000000000E+00 0.  1.
          1    1    3    3  501    0  0.18506618988E+02 -0.44013801730E+02 -0.66494757487E+03  0.66665957356E+03  0.00000000000E+00 0.  1.
         -3    1    1    2    0  502 -0.19152214634E+02  0.43596280789E+02 -0.31658029030E+03  0.32014141130E+03  0.00000000000E+00 0. -1.
<mgrwt>
<rscale>  1 0.30000000E+03</rscale>
<asrwt>0</asrwt>
<pdfrwt beam="1">  1       21 0.96214456E-02 0.30000000E+03</pdfrwt>
<pdfrwt beam="2">0</pdfrwt>
<totfact> 0.92166700E+03</totfact>
</mgrwt>
</event>
<event>
 6    1  0.1284012E-001  0.3000000E+03  0.7818608E-02  0.1093470E+00
         21   -1    0    0  501  502  0.00000000000E+00  0.00000000000E+00  0.18754836403E+01  0.18754836403E+01  0.00000000000E+00 0. -1.
         13   -1    0    0    0    0 -0.00000000000E+00 -0.00000000000E+00 -0.10000000000E+04  0.10000000000E+04  0.00000000000E+00 0.  1.
    9000005    2    1    2  501    0 -0.30225816991E+02 -0.26750755267E+01 -0.85576652646E+03  0.85631946923E+03  0.50921052903E+01 0.  0.
         13    1    3    3    0    0 -0.18991763729E+02 -0.60811234797E+00 -0.59399187499E+03  0.59429572138E+03  0.00000000000E+00 0.  1.
          3    1    3    3  501    0 -0.11234053262E+02 -0.20669631787E+01 -0.26177465147E+03  0.26202374786E+03  0.00000000000E+00 0.  1.
         -1    1    1    2    0  502  0.30225816991E+02  0.26750755267E+01 -0.14235798990E+03  0.14555601441E+03  0.00000000000E+00 0. -1.
<mgrwt>
<rscale>  1 0.30000000E+03</rscale>
<asrwt>0</asrwt>
<pdfrwt beam="1">  1       21 0.68199549E-02 0.30000000E+03</pdfrwt>
<pdfrwt beam="2">0</pdfrwt>
<totfact> 0.16883061E+04</totfact>
</mgrwt>
</event>
<event>
 6    1  0.1284012E-001  0.3000000E+03  0.7818608E-02  0.1093470E+00
         21   -1    0    0  501  502  0.00000000000E+00  0.00000000000E+00  0.29600743093E+01  0.29600743093E+01  0.00000000000E+00 0. -1.
         13   -1    0    0    0    0 -0.00000000000E+00 -0.00000000000E+00 -0.10000000000E+04  0.10000000000E+04  0.00000000000E+00 0.  1.
    9000005    2    1    2  501    0 -0.49535464968E+02 -0.15298480021E+02 -0.64758950782E+03  0.64968482705E+03  0.55134446302E+01 0.  0.
         13    1    3    3    0    0 -0.29053938044E+02 -0.11110628934E+02 -0.40905809222E+03  0.41023907689E+03  0.00000000000E+00 0.  1.
          3    1    3    3  501    0 -0.20481526923E+02 -0.41878510871E+01 -0.23853141560E+03  0.23944575016E+03  0.00000000000E+00 0.  1.
         -3    1    1    2    0  502  0.49535464968E+02  0.15298480021E+02 -0.34945041787E+03  0.35327524726E+03  0.00000000000E+00 0. -1.
<mgrwt>
<rscale>  1 0.30000000E+03</rscale>
<asrwt>0</asrwt>
<pdfrwt beam="1">  1       21 0.10763929E-01 0.30000000E+03</pdfrwt>
<pdfrwt beam="2">0</pdfrwt>
<totfact> 0.75404104E+03</totfact>
</mgrwt>
</event>
<event>
 6    1  0.1284012E-001  0.3000000E+03  0.7818608E-02  0.1093470E+00
         21   -1    0    0  501  502  0.00000000000E+00  0.00000000000E+00  0.14760419344E+01  0.14760419344E+01  0.00000000000E+00 0. -1.
         13   -1    0    0    0    0 -0.00000000000E+00 -0.00000000000E+00 -0.10000000000E+04  0.10000000000E+04  0.00000000000E+00 0.  1.
    9000005    2    1    2  501    0  0.12071861870E+02  0.28306094692E+02 -0.79849639033E+03  0.79909523084E+03  0.31205340454E+01 0.  0.
         13    1    3    3    0    0  0.86400319304E+01  0.23340284517E+02 -0.63619744027E+03  0.63668406768E+03  0.00000000000E+00 0.  1.
          3    1    3    3  501    0  0.34318299399E+01  0.49658101750E+01 -0.16229895007E+03  0.16241116316E+03  0.00000000000E+00 0.  1.
         -1    1    1    2    0  502 -0.12071861870E+02 -0.28306094692E+02 -0.20002756773E+03  0.20238081109E+03  0.00000000000E+00 0. -1.
<mgrwt>
<rscale>  1 0.30000000E+03</rscale>
<asrwt>0</asrwt>
<pdfrwt beam="1">  1       21 0.53674365E-02 0.30000000E+03</pdfrwt>
<pdfrwt beam="2">0</pdfrwt>
<totfact> 0.25518789E+04</totfact>
</mgrwt>
</event>
<event>
 6    1  0.1284012E-001  0.3000000E+03  0.7818608E-02  0.1093470E+00
         21   -1    0    0  501  502  0.00000000000E+00  0.00000000000E+00  0.14020357405E+01  0.14020357405E+01  0.00000000000E+00 0. -1.
         13   -1    0    0    0    0 -0.00000000000E+00 -0.00000000000E+00 -0.10000000000E+04  0.10000000000E+04  0.00000000000E+00 0.  1.
    9000005    2    1    2  501    0 -0.19313432376E+02  0.25812531140E+02 -0.75291695612E+03  0.75361492309E+03  0.34948620346E+01 0.  0.
         13    1    3    3    0    0 -0.18114977395E+02  0.22783532381E+02 -0.66191430981E+03  0.66255399425E+03  0.00000000000E+00 0.  1.
          3    1    3    3  501    0 -0.11984549815E+01  0.30289987597E+01 -0.91002646304E+02  0.91060928845E+02  0.00000000000E+00 0.  1.
         -1    1    1    2    0  502  0.19313432376E+02 -0.25812531140E+02 -0.24568100814E+03  0.24778711265E+03  0.00000000000E+00 0. -1.
<mgrwt>
<rscale>  1 0.30000000E+03</rscale>
<asrwt>0</asrwt>
<pdfrwt beam="1">  1       21 0.50983225E-02 0.30000000E+03</pdfrwt>
<pdfrwt beam="2">0</pdfrwt>
<totfact> 0.27863661E+04</totfact>
</mgrwt>
</event>
<event>
 6    1  0.1284012E-001  0.3000000E+03  0.7818608E-02  0.1093470E+00
         21   -1    0    0  501  502  0.00000000000E+00  0.00000000000E+00  0.10326822519E+01  0.10326822519E+01  0.00000000000E+00 0. -1.
         13   -1    0    0    0    0 -0.00000000000E+00 -0.00000000000E+00 -0.10000000000E+04  0.10000000000E+04  0.00000000000E+00 0.  1.
    9000005    2    1    2  501    0  0.24042923338E+02  0.19287782016E+02 -0.62656452951E+03  0.62735646226E+03  0.65528928890E+01 0.  0.
         13    1    3    3    0    0  0.19216669393E+02  0.11646019466E+02 -0.44238340383E+03  0.44295370654E+03  0.00000000000E+00 0.  1.
          1    1    3    3  501    0  0.48262539453E+01  0.76417625503E+01 -0.18418112568E+03  0.18440275572E+03  0.00000000000E+00 0.  1.
         -3    1    1    2    0  502 -0.24042923338E+02 -0.19287782016E+02 -0.37240278824E+03  0.37367621999E+03  0.00000000000E+00 0. -1.
<mgrwt>
<rscale>  1 0.30000000E+03</rscale>
<asrwt>0</asrwt>
<pdfrwt beam="1">  1       21 0.37552161E-02 0.30000000E+03</pdfrwt>
<pdfrwt beam="2">0</pdfrwt>
<totfact> 0.46758001E+04</totfact>
</mgrwt>
</event>
<event>
 6    1  0.1284012E-001  0.3000000E+03  0.7818608E-02  0.1093470E+00
         21   -1    0    0  501  502  0.00000000000E+00  0.00000000000E+00  0.13434659815E+01  0.13434659815E+01  0.00000000000E+00 0. -1.
         13   -1    0    0    0    0 -0.00000000000E+00 -0.00000000000E+00 -0.10000000000E+04  0.10000000000E+04  0.00000000000E+00 0.  1.
    9000005    2    1    2  501    0 -0.64879462320E+01 -0.29948759693E+02 -0.77273307182E+03  0.77335128974E+03  0.40982205893E+01 0.  0.
         13    1    3    3    0    0 -0.20441616358E+01 -0.94806660453E+01 -0.29480352454E+03  0.29496301413E+03  0.00000000000E+00 0.  1.
          1    1    3    3  501    0 -0.44437845962E+01 -0.20468093647E+02 -0.47792954727E+03  0.47838827561E+03  0.00000000000E+00 0.  1.
         -3    1    1    2    0  502  0.64879462320E+01  0.29948759693E+02 -0.22592346220E+03  0.22799217624E+03  0.00000000000E+00 0. -1.
<mgrwt>
<rscale>  1 0.30000000E+03</rscale>
<asrwt>0</asrwt>
<pdfrwt beam="1">  1       21 0.48853411E-02 0.30000000E+03</pdfrwt>
<pdfrwt beam="2">0</pdfrwt>
<totfact> 0.29965980E+04</totfact>
</mgrwt>
</event>
<event>
 6    1  0.1284012E-001  0.3000000E+03  0.7818608E-02  0.1093470E+00
         21   -1    0    0  501  502  0.00000000000E+00  0.00000000000E+00  0.26541381846E+01  0.26541381846E+01  0.00000000000E+00 0. -1.
         13   -1    0    0    0    0 -0.00000000000E+00 -0.00000000000E+00 -0.10000000000E+04  0.10000000000E+04  0.00000000000E+00 0.  1.
    9000005    2    1    2  501    0  0.22287637441E+02  0.38926279910E+02 -0.25332948298E+03  0.25728686896E+03  0.29516002345E+01 0.  0.
         13    1    3    3    0    0  0.21366511334E+02  0.36136706650E+02 -0.23412719245E+03  0.23786116038E+03  0.00000000000E+00 0.  1.
          3    1    3    3  501    0  0.92112610709E+00  0.27895732606E+01 -0.19202290534E+02  0.19425708585E+02  0.00000000000E+00 0.  1.
         -1    1    1    2    0  502 -0.22287637441E+02 -0.38926279910E+02 -0.74401637883E+03  0.74536726922E+03  0.00000000000E+00 0. -1.
<mgrwt>
<rscale>  1 0.30000000E+03</rscale>
<asrwt>0</asrwt>
<pdfrwt beam="1">  1       21 0.96514319E-02 0.30000000E+03</pdfrwt>
<pdfrwt beam="2">0</pdfrwt>
<totfact> 0.91656697E+03</totfact>
</mgrwt>
</event>
<event>
 6    1  0.1284012E-001  0.3000000E+03  0.7818608E-02  0.1093470E+00
         21   -1    0    0  501  502  0.00000000000E+00  0.00000000000E+00  0.72757764388E+01  0.72757764388E+01  0.00000000000E+00 0. -1.
         13   -1    0    0    0    0 -0.00000000000E+00 -0.00000000000E+00 -0.10000000000E+04  0.10000000000E+04  0.00000000000E+00 0.  1.
    9000005    2    1    2  501    0 -0.57860190974E+02 -0.60663027630E+02 -0.58853670262E+03  0.59448605187E+03  0.32265960709E+01 0.  0.
         13    1    3    3    0    0 -0.35845675374E+02 -0.39826924530E+02 -0.37618187515E+03  0.37997881461E+03  0.00000000000E+00 0.  1.
          1    1    3    3  501    0 -0.22014515601E+02 -0.20836103100E+02 -0.21235482747E+03  0.21450723726E+03  0.00000000000E+00 0.  1.
         -3    1    1    2    0  502  0.57860190974E+02  0.60663027630E+02 -0.40418752094E+03  0.41278972457E+03  0.00000000000E+00 0. -1.
<mgrwt>
<rscale>  1 0.30000000E+03</rscale>
<asrwt>0</asrwt>
<pdfrwt beam="1">  1       21 0.26457425E-01 0.30000000E+03</pdfrwt>
<pdfrwt beam="2">0</pdfrwt>
<totfact> 0.13952576E+03</totfact>
</mgrwt>
</event>
<event>
 6    1  0.1284012E-001  0.3000000E+03  0.7818608E-02  0.1093470E+00
         21   -1    0    0  501  502  0.00000000000E+00  0.00000000000E+00  0.53398258153E+01  0.53398258153E+01  0.00000000000E+00 0. -1.
         13   -1    0    0    0    0 -0.00000000000E+00 -0.00000000000E+00 -0.10000000000E+04  0.10000000000E+04  0.00000000000E+00 0.  1.
    9000005    2    1    2  501    0  0.50996355164E+02 -0.36801462300E+02 -0.75298149302E+03  0.75561285331E+03  0.38313690194E+01 0.  0.
         13    1    3    3    0    0  0.40116220915E+02 -0.29105256001E+02 -0.57388500441E+03  0.57602120221E+03  0.00000000000E+00 0.  1.
          3    1    3    3  501    0  0.10880134249E+02 -0.76962062990E+01 -0.17909648861E+03  0.17959165110E+03  0.00000000000E+00 0.  1.
         -1    1    1    2    0  502 -0.50996355164E+02  0.36801462300E+02 -0.24167868116E+03  0.24972697250E+03  0.00000000000E+00 0. -1.
<mgrwt>
<rscale>  1 0.30000000E+03</rscale>
<asrwt>0</asrwt>
<pdfrwt beam="1">  1       21 0.19417589E-01 0.30000000E+03</pdfrwt>
<pdfrwt beam="2">0</pdfrwt>
<totfact> 0.25381594E+03</totfact>
</mgrwt>
</event>
<event>
 6    1  0.1284012E-001  0.3000000E+03  0.7818608E-02  0.1093470E+00
         21   -1    0    0  501  502  0.00000000000E+00  0.00000000000E+00  0.48907254899E+01  0.48907254899E+01  0.00000000000E+00 0. -1.
         13   -1    0    0    0    0 -0.00000000000E+00 -0.00000000000E+00 -0.10000000000E+04  0.10000000000E+04  0.00000000000E+00 0.  1.
    9000005    2    1    2  501    0 -0.29840798634E+01 -0.61077836017E+02 -0.74103176740E+03  0.74355801341E+03  0.33214787948E+01 0.  0.
         13    1    3    3    0    0 -0.11606038062E+01 -0.46398368078E+02 -0.57257682183E+03  0.57445484806E+03  0.00000000000E+00 0.  1.
          1    1    3    3  501    0 -0.18234760572E+01 -0.14679467939E+02 -0.16845494557E+03  0.16910316534E+03  0.00000000000E+00 0.  1.
         -3    1    1    2    0  502  0.29840798634E+01  0.61077836017E+02 -0.25407750711E+03  0.26133271208E+03  0.00000000000E+00 0. -1.
<mgrwt>
<rscale>  1 0.30000000E+03</rscale>
<asrwt>0</asrwt>
<pdfrwt beam="1">  1       21 0.17784494E-01 0.30000000E+03</pdfrwt>
<pdfrwt beam="2">0</pdfrwt>
<totfact> 0.29967264E+03</totfact>
</mgrwt>
</event>
<event>
 6    1  0.1284012E-001  0.3000000E+03  0.7818608E-02  0.1093470E+00
         21   -1    0    0  501  502  0.00000000000E+00  0.00000000000E+00  0.45577242816E+01  0.45577242816E+01  0.00000000000E+00 0. -1.
         13   -1    0    0    0    0 -0.00000000000E+00 -0.00000000000E+00 -0.10000000000E+04  0.10000000000E+04  0.00000000000E+00 0.  1.
    9000005    2    1    2  501    0  0.47390422336E+02  0.39972547766E+02 -0.69613097542E+03  0.69889302042E+03  0.30760917014E+01 0.  0.
         13    1    3    3    0    0  0.26319848554E+02  0.23955488492E+02 -0.39113046396E+03  0.39274627903E+03  0.00000000000E+00 0.  1.
          1    1    3    3  501    0  0.21070573781E+02  0.16017059274E+02 -0.30500051146E+03  0.30614674139E+03  0.00000000000E+00 0.  1.
         -3    1    1    2    0  502 -0.47390422336E+02 -0.39972547766E+02 -0.29931130030E+03  0.30566470387E+03  0.00000000000E+00 0. -1.
<mgrwt>
<rscale>  1 0.30000000E+03</rscale>
<asrwt>0</asrwt>
<pdfrwt beam="1">  1       21 0.16573578E-01 0.30000000E+03</pdfrwt>
<pdfrwt beam="2">0</pdfrwt>
<totfact> 0.34202769E+03</totfact>
</mgrwt>
</event>
<event>
 6    1  0.1284012E-001  0.3000000E+03  0.7818608E-02  0.1093470E+00
         21   -1    0    0  501  502  0.00000000000E+00  0.00000000000E+00  0.18457273894E+01  0.18457273894E+01  0.00000000000E+00 0. -1.
         13   -1    0    0    0    0 -0.00000000000E+00 -0.00000000000E+00 -0.10000000000E+04  0.10000000000E+04  0.00000000000E+00 0.  1.
    9000005    2    1    2  501    0 -0.19986542321E+02 -0.35267584944E+02 -0.66288085644E+03  0.66413056928E+03  0.38882906956E+01 0.  0.
         13    1    3    3    0    0 -0.13939650181E+02 -0.21206038744E+02 -0.42745799979E+03  0.42821063918E+03  0.00000000000E+00 0.  1.
          3    1    3    3  501    0 -0.60468921402E+01 -0.14061546200E+02 -0.23542285665E+03  0.23591993010E+03  0.00000000000E+00 0.  1.
         -1    1    1    2    0  502  0.19986542321E+02  0.35267584944E+02 -0.33527341617E+03  0.33771515811E+03  0.00000000000E+00 0. -1.
<mgrwt>
<rscale>  1 0.30000000E+03</rscale>
<asrwt>0</asrwt>
<pdfrwt beam="1">  1       21 0.67117501E-02 0.30000000E+03</pdfrwt>
<pdfrwt beam="2">0</pdfrwt>
<totfact> 0.17358335E+04</totfact>
</mgrwt>
</event>
<event>
 6    1  0.1284012E-001  0.3000000E+03  0.7818608E-02  0.1093470E+00
         21   -1    0    0  501  502  0.00000000000E+00  0.00000000000E+00  0.17181085636E+01  0.17181085636E+01  0.00000000000E+00 0. -1.
         13   -1    0    0    0    0 -0.00000000000E+00 -0.00000000000E+00 -0.10000000000E+04  0.10000000000E+04  0.00000000000E+00 0.  1.
    9000005    2    1    2  501    0 -0.23109508547E+02 -0.28649071764E+02 -0.72840720558E+03  0.72934489996E+03  0.34795489157E+01 0.  0.
         13    1    3    3    0    0 -0.15069730095E+02 -0.21166474285E+02 -0.51790283125E+03  0.51855420066E+03  0.00000000000E+00 0.  1.
          1    1    3    3  501    0 -0.80397784523E+01 -0.74825974789E+01 -0.21050437432E+03  0.21079069930E+03  0.00000000000E+00 0.  1.
         -1    1    1    2    0  502  0.23109508547E+02  0.28649071764E+02 -0.26987468586E+03  0.27237320861E+03  0.00000000000E+00 0. -1.
<mgrwt>
<rscale>  1 0.30000000E+03</rscale>
<asrwt>0</asrwt>
<pdfrwt beam="1">  1       21 0.62476807E-02 0.30000000E+03</pdfrwt>
<pdfrwt beam="2">0</pdfrwt>
<totfact> 0.19650564E+04</totfact>
</mgrwt>
</event>
<event>
 6    1  0.1284012E-001  0.3000000E+03  0.7818608E-02  0.1093470E+00
         21   -1    0    0  501  502  0.00000000000E+00  0.00000000000E+00  0.12033647590E+01  0.12033647590E+01  0.00000000000E+00 0. -1.
         13   -1    0    0    0    0 -0.00000000000E+00 -0.00000000000E+00 -0.10000000000E+04  0.10000000000E+04  0.00000000000E+00 0.  1.
    9000005    2    1    2  501    0 -0.99396319097E+01 -0.33111031603E+02 -0.49758228447E+03  0.49879818752E+03  0.40454122016E+01 0.  0.
         13    1    3    3    0    0 -0.49241638017E-01 -0.89632678378E+00 -0.65956119693E+01  0.66564197352E+01  0.00000000000E+00 0.  1.
          3    1    3    3  501    0 -0.98903902717E+01 -0.32214704819E+02 -0.49098667250E+03  0.49214176778E+03  0.00000000000E+00 0.  1.
         -3    1    1    2    0  502  0.99396319097E+01  0.33111031603E+02 -0.50121435077E+03  0.50240517724E+03  0.00000000000E+00 0. -1.
<mgrwt>
<rscale>  1 0.30000000E+03</rscale>
<asrwt>0</asrwt>
<pdfrwt beam="1">  1       21 0.43758811E-02 0.30000000E+03</pdfrwt>
<pdfrwt beam="2">0</pdfrwt>
<totfact> 0.36131198E+04</totfact>
</mgrwt>
</event>
<event>
 6    1  0.1284012E-001  0.3000000E+03  0.7818608E-02  0.1093470E+00
         21   -1    0    0  501  502  0.00000000000E+00  0.00000000000E+00  0.14254282838E+01  0.14254282838E+01  0.00000000000E+00 0. -1.
         13   -1    0    0    0    0 -0.00000000000E+00 -0.00000000000E+00 -0.10000000000E+04  0.10000000000E+04  0.00000000000E+00 0.  1.
    9000005    2    1    2  501    0  0.19053918347E+02  0.28113578843E+02 -0.71648954923E+03  0.71730329780E+03  0.36498984689E+01 0.  0.
         13    1    3    3    0    0  0.94714287951E+01  0.10831792360E+02 -0.29412530966E+03  0.29447705084E+03  0.00000000000E+00 0.  1.
          1    1    3    3  501    0  0.95824895518E+01  0.17281786483E+02 -0.42236423958E+03  0.42282624697E+03  0.00000000000E+00 0.  1.
         -3    1    1    2    0  502 -0.19053918347E+02 -0.28113578843E+02 -0.28208502248E+03  0.28412213048E+03  0.00000000000E+00 0. -1.
<mgrwt>
<rscale>  1 0.30000000E+03</rscale>
<asrwt>0</asrwt>
<pdfrwt beam="1">  1       21 0.51833865E-02 0.30000000E+03</pdfrwt>
<pdfrwt beam="2">0</pdfrwt>
<totfact> 0.27087545E+04</totfact>
</mgrwt>
</event>
<event>
 6    1  0.1284012E-001  0.3000000E+03  0.7818608E-02  0.1093470E+00
         21   -1    0    0  501  502  0.00000000000E+00  0.00000000000E+00  0.43624183727E+01  0.43624183727E+01  0.00000000000E+00 0. -1.
         13   -1    0    0    0    0 -0.00000000000E+00 -0.00000000000E+00 -0.10000000000E+04  0.10000000000E+04  0.00000000000E+00 0.  1.
    9000005    2    1    2  501    0  0.35651090376E+02  0.47469397116E+02 -0.27866785413E+03  0.28493908399E+03  0.31882207976E+01 0.  0.
         13    1    3    3    0    0  0.25257516853E+01  0.30492275642E+01 -0.22630855105E+02  0.22974612360E+02  0.00000000000E+00 0.  1.
          1    1    3    3  501    0  0.33125338691E+02  0.44420169551E+02 -0.25603699903E+03  0.26196447163E+03  0.00000000000E+00 0.  1.
         -3    1    1    2    0  502 -0.35651090376E+02 -0.47469397116E+02 -0.71696972750E+03  0.71942333438E+03  0.00000000000E+00 0. -1.
<mgrwt>
<rscale>  1 0.30000000E+03</rscale>
<asrwt>0</asrwt>
<pdfrwt beam="1">  1       21 0.15863373E-01 0.30000000E+03</pdfrwt>
<pdfrwt beam="2">0</pdfrwt>
<totfact> 0.37115020E+03</totfact>
</mgrwt>
</event>
<event>
 6    1  0.1284012E-001  0.3000000E+03  0.7818608E-02  0.1093470E+00
         21   -1    0    0  501  502  0.00000000000E+00  0.00000000000E+00  0.12148632503E+01  0.12148632503E+01  0.00000000000E+00 0. -1.
         13   -1    0    0    0    0 -0.00000000000E+00 -0.00000000000E+00 -0.10000000000E+04  0.10000000000E+04  0.00000000000E+00 0.  1.
    9000005    2    1    2  501    0  0.30389762075E+02  0.37027103375E+00 -0.74340090077E+03  0.74402858304E+03  0.31556901895E+01 0.  0.
         13    1    3    3    0    0  0.46331731574E+01 -0.91244902076E+00 -0.10123201927E+03  0.10134209679E+03  0.00000000000E+00 0.  1.
          3    1    3    3  501    0  0.25756588917E+02  0.12827200545E+01 -0.64216888150E+03  0.64268648625E+03  0.00000000000E+00 0.  1.
         -1    1    1    2    0  502 -0.30389762075E+02 -0.37027103375E+00 -0.25538423598E+03  0.25718628021E+03  0.00000000000E+00 0. -1.
<mgrwt>
<rscale>  1 0.30000000E+03</rscale>
<asrwt>0</asrwt>
<pdfrwt beam="1">  1       21 0.44176939E-02 0.30000000E+03</pdfrwt>
<pdfrwt beam="2">0</pdfrwt>
<totfact> 0.35553838E+04</totfact>
</mgrwt>
</event>
<event>
 6    1  0.1284012E-001  0.3000000E+03  0.7818608E-02  0.1093470E+00
         21   -1    0    0  501  502  0.00000000000E+00  0.00000000000E+00  0.14536056191E+01  0.14536056191E+01  0.00000000000E+00 0. -1.
         13   -1    0    0    0    0 -0.00000000000E+00 -0.00000000000E+00 -0.10000000000E+04  0.10000000000E+04  0.00000000000E+00 0.  1.
    9000005    2    1    2  501    0  0.12915825490E+02  0.34624343671E+02 -0.61958538981E+03  0.62069501188E+03  0.32525037628E+01 0.  0.
         13    1    3    3    0    0  0.41085855547E+01  0.14209472584E+02 -0.22875921276E+03  0.22923692331E+03  0.00000000000E+00 0.  1.
          3    1    3    3  501    0  0.88072399351E+01  0.20414871087E+02 -0.39082617705E+03  0.39145808857E+03  0.00000000000E+00 0.  1.
         -3    1    1    2    0  502 -0.12915825490E+02 -0.34624343671E+02 -0.37896100457E+03  0.38075859374E+03  0.00000000000E+00 0. -1.
<mgrwt>
<rscale>  1 0.30000000E+03</rscale>
<asrwt>0</asrwt>
<pdfrwt beam="1">  1       21 0.52858498E-02 0.30000000E+03</pdfrwt>
<pdfrwt beam="2">0</pdfrwt>
<totfact> 0.26196361E+04</totfact>
</mgrwt>
</event>
<event>
 6    1  0.1284012E-001  0.3000000E+03  0.7818608E-02  0.1093470E+00
         21   -1    0    0  501  502  0.00000000000E+00  0.00000000000E+00  0.36843372078E+01  0.36843372078E+01  0.00000000000E+00 0. -1.
         13   -1    0    0    0    0 -0.00000000000E+00 -0.00000000000E+00 -0.10000000000E+04  0.10000000000E+04  0.00000000000E+00 0.  1.
    9000005    2    1    2  501    0  0.20770845159E+02  0.25393250514E+02 -0.92032486624E+03  0.92091449765E+03  0.30671447095E+01 0.  0.
         13    1    3    3    0    0  0.19397781779E+02  0.22337820801E+02 -0.81803681667E+03  0.81857161299E+03  0.00000000000E+00 0.  1.
          1    1    3    3  501    0  0.13730633802E+01  0.30554297125E+01 -0.10228804957E+03  0.10234288465E+03  0.00000000000E+00 0.  1.
         -1    1    1    2    0  502 -0.20770845159E+02 -0.25393250514E+02 -0.75990796553E+02  0.82769839562E+02  0.00000000000E+00 0. -1.
<mgrwt>
<rscale>  1 0.30000000E+03</rscale>
<asrwt>0</asrwt>
<pdfrwt beam="1">  1       21 0.13397618E-01 0.30000000E+03</pdfrwt>
<pdfrwt beam="2">0</pdfrwt>
<totfact> 0.50694699E+03</totfact>
</mgrwt>
</event>
<event>
 6    1  0.1284012E-001  0.3000000E+03  0.7818608E-02  0.1093470E+00
         21   -1    0    0  501  502  0.00000000000E+00  0.00000000000E+00  0.41859008760E+01  0.41859008760E+01  0.00000000000E+00 0. -1.
         13   -1    0    0    0    0 -0.00000000000E+00 -0.00000000000E+00 -0.10000000000E+04  0.10000000000E+04  0.00000000000E+00 0.  1.
    9000005    2    1    2  501    0 -0.83015083051E+00 -0.61611303975E+02 -0.64579324564E+03  0.64878297489E+03  0.85901374101E+01 0.  0.
         13    1    3    3    0    0 -0.23325022740E+01 -0.46116184484E+01 -0.59006421720E+02  0.59232300274E+02  0.00000000000E+00 0.  1.
          3    1    3    3  501    0  0.15023514435E+01 -0.56999685527E+02 -0.58678682392E+03  0.58955067462E+03  0.00000000000E+00 0.  1.
         -3    1    1    2    0  502  0.83015083051E+00  0.61611303975E+02 -0.35002085348E+03  0.35540292599E+03  0.00000000000E+00 0. -1.
<mgrwt>
<rscale>  1 0.30000000E+03</rscale>
<asrwt>0</asrwt>
<pdfrwt beam="1">  1       21 0.15221490E-01 0.30000000E+03</pdfrwt>
<pdfrwt beam="2">0</pdfrwt>
<totfact> 0.40077169E+03</totfact>
</mgrwt>
</event>
<event>
 6    1  0.1284012E-001  0.3000000E+03  0.7818608E-02  0.1093470E+00
         21   -1    0    0  501  502  0.00000000000E+00  0.00000000000E+00  0.32819910183E+01  0.32819910183E+01  0.00000000000E+00 0. -1.
         13   -1    0    0    0    0 -0.00000000000E+00 -0.00000000000E+00 -0.10000000000E+04  0.10000000000E+04  0.00000000000E+00 0.  1.
    9000005    2    1    2  501    0  0.14761329417E+02  0.40438538891E+02 -0.82867357592E+03  0.82981123337E+03  0.57978733948E+01 0.  0.
         13    1    3    3    0    0  0.46535503172E+01  0.18194675065E+02 -0.40243371997E+03  0.40287169260E+03  0.00000000000E+00 0.  1.
          3    1    3    3  501    0  0.10107779100E+02  0.22243863826E+02 -0.42623985595E+03  0.42693954078E+03  0.00000000000E+00 0.  1.
         -3    1    1    2    0  502 -0.14761329417E+02 -0.40438538891E+02 -0.16804443306E+03  0.17347075764E+03  0.00000000000E+00 0. -1.
<mgrwt>
<rscale>  1 0.30000000E+03</rscale>
<asrwt>0</asrwt>
<pdfrwt beam="1">  1       21 0.11934538E-01 0.30000000E+03</pdfrwt>
<pdfrwt beam="2">0</pdfrwt>
<totfact> 0.62589305E+03</totfact>
</mgrwt>
</event>
<event>
 6    1  0.1284012E-001  0.3000000E+03  0.7818608E-02  0.1093470E+00
         21   -1    0    0  501  502  0.00000000000E+00  0.00000000000E+00  0.10411278415E+01  0.10411278415E+01  0.00000000000E+00 0. -1.
         13   -1    0    0    0    0 -0.00000000000E+00 -0.00000000000E+00 -0.10000000000E+04  0.10000000000E+04  0.00000000000E+00 0.  1.
    9000005    2    1    2  501    0  0.22721657075E+02  0.21276832096E+02 -0.38714359004E+03  0.38843447042E+03  0.56746115733E+01 0.  0.
         13    1    3    3    0    0  0.66113122068E+01  0.64430974447E+01 -0.85487377041E+02  0.85984385717E+02  0.00000000000E+00 0.  1.
          1    1    3    3  501    0  0.16110344868E+02  0.14833734652E+02 -0.30165621300E+03  0.30245008470E+03  0.00000000000E+00 0.  1.
         -1    1    1    2    0  502 -0.22721657075E+02 -0.21276832096E+02 -0.61181528212E+03  0.61260665742E+03  0.00000000000E+00 0. -1.
<mgrwt>
<rscale>  1 0.30000000E+03</rscale>
<asrwt>0</asrwt>
<pdfrwt beam="1">  1       21 0.37859274E-02 0.30000000E+03</pdfrwt>
<pdfrwt beam="2">0</pdfrwt>
<totfact> 0.46122678E+04</totfact>
</mgrwt>
</event>
<event>
 6    1  0.1284012E-001  0.3000000E+03  0.7818608E-02  0.1093470E+00
         21   -1    0    0  501  502  0.00000000000E+00  0.00000000000E+00  0.12836174534E+01  0.12836174534E+01  0.00000000000E+00 0. -1.
         13   -1    0    0    0    0 -0.00000000000E+00 -0.00000000000E+00 -0.10000000000E+04  0.10000000000E+04  0.00000000000E+00 0.  1.
    9000005    2    1    2  501    0  0.30051476183E+02 -0.12555894475E+02 -0.70632318827E+03  0.70708211887E+03  0.34546833711E+01 0.  0.
         13    1    3    3    0    0  0.14488289776E+02 -0.74630892370E+01 -0.37686262386E+03  0.37721485324E+03  0.00000000000E+00 0.  1.
          3    1    3    3  501    0  0.15563186407E+02 -0.50928052379E+01 -0.32946056441E+03  0.32986726563E+03  0.00000000000E+00 0.  1.
         -3    1    1    2    0  502 -0.30051476183E+02  0.12555894475E+02 -0.29239319428E+03  0.29420149858E+03  0.00000000000E+00 0. -1.
<mgrwt>
<rscale>  1 0.30000000E+03</rscale>
<asrwt>0</asrwt>
<pdfrwt beam="1">  1       21 0.46677097E-02 0.30000000E+03</pdfrwt>
<pdfrwt beam="2">0</pdfrwt>
<totfact> 0.32381627E+04</totfact>
</mgrwt>
</event>
<event>
 6    1  0.1284012E-001  0.3000000E+03  0.7818608E-02  0.1093470E+00
         21   -1    0    0  501  502  0.00000000000E+00  0.00000000000E+00  0.21030983268E+01  0.21030983268E+01  0.00000000000E+00 0. -1.
         13   -1    0    0    0    0 -0.00000000000E+00 -0.00000000000E+00 -0.10000000000E+04  0.10000000000E+04  0.00000000000E+00 0.  1.
    9000005    2    1    2  501    0  0.99348806661E+01  0.31915998158E+02 -0.84134266582E+03  0.84202011498E+03  0.48020741874E+01 0.  0.
         13    1    3    3    0    0  0.67317971926E+00  0.65199723336E+00 -0.11930765300E+02  0.11967515697E+02  0.00000000000E+00 0.  1.
          3    1    3    3  501    0  0.92617009469E+01  0.31264000925E+02 -0.82941190052E+03  0.83005259929E+03  0.00000000000E+00 0.  1.
         -3    1    1    2    0  502 -0.99348806661E+01 -0.31915998158E+02 -0.15655423585E+03  0.16008298334E+03  0.00000000000E+00 0. -1.
<mgrwt>
<rscale>  1 0.30000000E+03</rscale>
<asrwt>0</asrwt>
<pdfrwt beam="1">  1       21 0.76476464E-02 0.30000000E+03</pdfrwt>
<pdfrwt beam="2">0</pdfrwt>
<totfact> 0.13824246E+04</totfact>
</mgrwt>
</event>
<event>
 6    1  0.1284012E-001  0.3000000E+03  0.7818608E-02  0.1093470E+00
         21   -1    0    0  501  502  0.00000000000E+00  0.00000000000E+00  0.28427540071E+01  0.28427540071E+01  0.00000000000E+00 0. -1.
         13   -1    0    0    0    0 -0.00000000000E+00 -0.00000000000E+00 -0.10000000000E+04  0.10000000000E+04  0.00000000000E+00 0.  1.
    9000005    2    1    2  501    0 -0.16367265866E+02 -0.30245439900E+02 -0.88094471545E+03  0.88164858632E+03  0.76134125504E+01 0.  0.
         13    1    3    3    0    0 -0.12058904879E+02 -0.14343518182E+02 -0.45918601707E+03  0.45956822342E+03  0.00000000000E+00 0.  1.
          1    1    3    3  501    0 -0.43083609876E+01 -0.15901921718E+02 -0.42175869838E+03  0.42208036290E+03  0.00000000000E+00 0.  1.
         -1    1    1    2    0  502  0.16367265866E+02  0.30245439900E+02 -0.11621253054E+03  0.12119416769E+03  0.00000000000E+00 0. -1.
<mgrwt>
<rscale>  1 0.30000000E+03</rscale>
<asrwt>0</asrwt>
<pdfrwt beam="1">  1       21 0.10337309E-01 0.30000000E+03</pdfrwt>
<pdfrwt beam="2">0</pdfrwt>
<totfact> 0.81075472E+03</totfact>
</mgrwt>
</event>
<event>
 6    1  0.1284012E-001  0.3000000E+03  0.7818608E-02  0.1093470E+00
         21   -1    0    0  501  502  0.00000000000E+00  0.00000000000E+00  0.12886259297E+01  0.12886259297E+01  0.00000000000E+00 0. -1.
         13   -1    0    0    0    0 -0.00000000000E+00 -0.00000000000E+00 -0.10000000000E+04  0.10000000000E+04  0.00000000000E+00 0.  1.
    9000005    2    1    2  501    0  0.30770049814E+02  0.15247494593E+02 -0.64230877166E+03  0.64323542170E+03  0.34594098461E+01 0.  0.
         13    1    3    3    0    0  0.29099739280E+02  0.14895356639E+02 -0.59681731178E+03  0.59771194577E+03  0.00000000000E+00 0.  1.
          1    1    3    3  501    0  0.16703105340E+01  0.35213795433E+00 -0.45491459879E+02  0.45523475926E+02  0.00000000000E+00 0.  1.
         -1    1    1    2    0  502 -0.30770049814E+02 -0.15247494593E+02 -0.35640260241E+03  0.35805320423E+03  0.00000000000E+00 0. -1.
<mgrwt>
<rscale>  1 0.30000000E+03</rscale>
<asrwt>0</asrwt>
<pdfrwt beam="1">  1       21 0.46859224E-02 0.30000000E+03</pdfrwt>
<pdfrwt beam="2">0</pdfrwt>
<totfact> 0.32167971E+04</totfact>
</mgrwt>
</event>
<event>
 6    1  0.1284012E-001  0.3000000E+03  0.7818608E-02  0.1093470E+00
         21   -1    0    0  501  502  0.00000000000E+00  0.00000000000E+00  0.91417036566E+00  0.91417036566E+00  0.00000000000E+00 0. -1.
         13   -1    0    0    0    0 -0.00000000000E+00 -0.00000000000E+00 -0.10000000000E+04  0.10000000000E+04  0.00000000000E+00 0.  1.
    9000005    2    1    2  501    0 -0.75509404639E+01  0.29122116762E+02 -0.53074850356E+03  0.53161153307E+03  0.34254438769E+01 0.  0.
         13    1    3    3    0    0 -0.48947690920E+01  0.22242462326E+02 -0.37856090297E+03  0.37924536009E+03  0.00000000000E+00 0.  1.
          1    1    3    3  501    0 -0.26561713719E+01  0.68796544360E+01 -0.15218760060E+03  0.15236617297E+03  0.00000000000E+00 0.  1.
         -3    1    1    2    0  502  0.75509404639E+01 -0.29122116762E+02 -0.46833732607E+03  0.46930263730E+03  0.00000000000E+00 0. -1.
<mgrwt>
<rscale>  1 0.30000000E+03</rscale>
<asrwt>0</asrwt>
<pdfrwt beam="1">  1       21 0.33242629E-02 0.30000000E+03</pdfrwt>
<pdfrwt beam="2">0</pdfrwt>
<totfact> 0.57348323E+04</totfact>
</mgrwt>
</event>
<event>
 6    1  0.1284012E-001  0.3000000E+03  0.7818608E-02  0.1093470E+00
         21   -1    0    0  501  502  0.00000000000E+00  0.00000000000E+00  0.14336019338E+01  0.14336019338E+01  0.00000000000E+00 0. -1.
         13   -1    0    0    0    0 -0.00000000000E+00 -0.00000000000E+00 -0.10000000000E+04  0.10000000000E+04  0.00000000000E+00 0.  1.
    9000005    2    1    2  501    0 -0.10007589917E+02 -0.30016311602E+02 -0.77366806024E+03  0.77432042932E+03  0.29544893254E+01 0.  0.
         13    1    3    3    0    0 -0.56477945758E+01 -0.19139552661E+02 -0.45642916404E+03  0.45686519001E+03  0.00000000000E+00 0.  1.
          1    1    3    3  501    0 -0.43597953408E+01 -0.10876758941E+02 -0.31723889620E+03  0.31745523931E+03  0.00000000000E+00 0.  1.
         -3    1    1    2    0  502  0.10007589917E+02  0.30016311602E+02 -0.22489833782E+03  0.22711317261E+03  0.00000000000E+00 0. -1.
<mgrwt>
<rscale>  1 0.30000000E+03</rscale>
<asrwt>0</asrwt>
<pdfrwt beam="1">  1       21 0.52131089E-02 0.30000000E+03</pdfrwt>
<pdfrwt beam="2">0</pdfrwt>
<totfact> 0.26824250E+04</totfact>
</mgrwt>
</event>
<event>
 6    1  0.1284012E-001  0.3000000E+03  0.7818608E-02  0.1093470E+00
         21   -1    0    0  501  502  0.00000000000E+00  0.00000000000E+00  0.19905792936E+01  0.19905792936E+01  0.00000000000E+00 0. -1.
         13   -1    0    0    0    0 -0.00000000000E+00 -0.00000000000E+00 -0.10000000000E+04  0.10000000000E+04  0.00000000000E+00 0.  1.
    9000005    2    1    2  501    0  0.35878394988E+02 -0.10925987595E+02 -0.76974122509E+03  0.77066179690E+03  0.33786347566E+01 0.  0.
         13    1    3    3    0    0  0.14778727939E+02 -0.30036867172E+01 -0.29172426139E+03  0.29211380936E+03  0.00000000000E+00 0.  1.
          3    1    3    3  501    0  0.21099667048E+02 -0.79223008781E+01 -0.47801696370E+03  0.47854798754E+03  0.00000000000E+00 0.  1.
         -3    1    1    2    0  502 -0.35878394988E+02  0.10925987595E+02 -0.22826819562E+03  0.23132878239E+03  0.00000000000E+00 0. -1.
<mgrwt>
<rscale>  1 0.30000000E+03</rscale>
<asrwt>0</asrwt>
<pdfrwt beam="1">  1       21 0.72384854E-02 0.30000000E+03</pdfrwt>
<pdfrwt beam="2">0</pdfrwt>
<totfact> 0.15220171E+04</totfact>
</mgrwt>
</event>
<event>
 6    1  0.1284012E-001  0.3000000E+03  0.7818608E-02  0.1093470E+00
         21   -1    0    0  501  502  0.00000000000E+00  0.00000000000E+00  0.11399312646E+01  0.11399312646E+01  0.00000000000E+00 0. -1.
         13   -1    0    0    0    0 -0.00000000000E+00 -0.00000000000E+00 -0.10000000000E+04  0.10000000000E+04  0.00000000000E+00 0.  1.
    9000005    2    1    2  501    0 -0.25255588183E+01  0.33215986343E+02 -0.42621174768E+03  0.42752352651E+03  0.31986970746E+01 0.  0.
         13    1    3    3    0    0 -0.27935621164E+01  0.32952784882E+02 -0.41968110963E+03  0.42098209439E+03  0.00000000000E+00 0.  1.
          1    1    3    3  501    0  0.26800329802E+00  0.26320146112E+00 -0.65306380477E+01  0.65414321128E+01  0.00000000000E+00 0.  1.
         -1    1    1    2    0  502  0.25255588183E+01 -0.33215986343E+02 -0.57264832106E+03  0.57361640476E+03  0.00000000000E+00 0. -1.
<mgrwt>
<rscale>  1 0.30000000E+03</rscale>
<asrwt>0</asrwt>
<pdfrwt beam="1">  1       21 0.41452133E-02 0.30000000E+03</pdfrwt>
<pdfrwt beam="2">0</pdfrwt>
<totfact> 0.39594352E+04</totfact>
</mgrwt>
</event>
<event>
 6    1  0.1284012E-001  0.3000000E+03  0.7818608E-02  0.1093470E+00
         21   -1    0    0  501  502  0.00000000000E+00  0.00000000000E+00  0.11640882105E+02  0.11640882105E+02  0.00000000000E+00 0. -1.
         13   -1    0    0    0    0 -0.00000000000E+00 -0.00000000000E+00 -0.10000000000E+04  0.10000000000E+04  0.00000000000E+00 0.  1.
    9000005    2    1    2  501    0 -0.65530665154E+02  0.12288932196E+02 -0.89182504897E+03  0.89432032810E+03  0.34125270865E+01 0.  0.
         13    1    3    3    0    0 -0.50965881250E+02  0.88821344819E+01 -0.67442699727E+03  0.67640829978E+03  0.00000000000E+00 0.  1.
          1    1    3    3  501    0 -0.14564783903E+02  0.34067977138E+01 -0.21739805170E+03  0.21791202832E+03  0.00000000000E+00 0.  1.
         -1    1    1    2    0  502  0.65530665154E+02 -0.12288932196E+02 -0.96534068920E+02  0.11732055401E+03  0.00000000000E+00 0. -1.
<mgrwt>
<rscale>  1 0.30000000E+03</rscale>
<asrwt>0</asrwt>
<pdfrwt beam="1">  1       21 0.42330570E-01 0.30000000E+03</pdfrwt>
<pdfrwt beam="2">0</pdfrwt>
<totfact> 0.53629481E+02</totfact>
</mgrwt>
</event>
<event>
 6    1  0.1284012E-001  0.3000000E+03  0.7818608E-02  0.1093470E+00
         21   -1    0    0  501  502  0.00000000000E+00  0.00000000000E+00  0.41967356905E+01  0.41967356905E+01  0.00000000000E+00 0. -1.
         13   -1    0    0    0    0 -0.00000000000E+00 -0.00000000000E+00 -0.10000000000E+04  0.10000000000E+04  0.00000000000E+00 0.  1.
    9000005    2    1    2  501    0  0.79465208811E+01  0.63973758599E+02 -0.46510962288E+03  0.46960200130E+03  0.65794640172E+01 0.  0.
         13    1    3    3    0    0 -0.43169091104E+00  0.21041286395E+02 -0.15539283231E+03  0.15681152516E+03  0.00000000000E+00 0.  1.
          1    1    3    3  501    0  0.83782117922E+01  0.42932472204E+02 -0.30971679057E+03  0.31279047614E+03  0.00000000000E+00 0.  1.
         -1    1    1    2    0  502 -0.79465208811E+01 -0.63973758599E+02 -0.53069364143E+03  0.53459473439E+03  0.00000000000E+00 0. -1.
<mgrwt>
<rscale>  1 0.30000000E+03</rscale>
<asrwt>0</asrwt>
<pdfrwt beam="1">  1       21 0.15260889E-01 0.30000000E+03</pdfrwt>
<pdfrwt beam="2">0</pdfrwt>
<totfact> 0.39885497E+03</totfact>
</mgrwt>
</event>
<event>
 6    1  0.1284012E-001  0.3000000E+03  0.7818608E-02  0.1093470E+00
         21   -1    0    0  501  502  0.00000000000E+00  0.00000000000E+00  0.27497218581E+01  0.27497218581E+01  0.00000000000E+00 0. -1.
         13   -1    0    0    0    0 -0.00000000000E+00 -0.00000000000E+00 -0.10000000000E+04  0.10000000000E+04  0.00000000000E+00 0.  1.
    9000005    2    1    2  501    0  0.41794786045E+02  0.10057017050E+02 -0.78546812943E+03  0.78664875878E+03  0.28529982835E+01 0.  0.
         13    1    3    3    0    0  0.81215315262E+01  0.88947252807E+00 -0.15683335701E+03  0.15704601971E+03  0.00000000000E+00 0.  1.
          1    1    3    3  501    0  0.33673254519E+02  0.91675445215E+01 -0.62863477242E+03  0.62960273907E+03  0.00000000000E+00 0.  1.
         -1    1    1    2    0  502 -0.41794786045E+02 -0.10057017050E+02 -0.21178214871E+03  0.21610096308E+03  0.00000000000E+00 0. -1.
<mgrwt>
<rscale>  1 0.30000000E+03</rscale>
<asrwt>0</asrwt>
<pdfrwt beam="1">  1       21 0.99990097E-02 0.30000000E+03</pdfrwt>
<pdfrwt beam="2">0</pdfrwt>
<totfact> 0.86047203E+03</totfact>
</mgrwt>
</event>
<event>
 6    1  0.1284012E-001  0.3000000E+03  0.7818608E-02  0.1093470E+00
         21   -1    0    0  501  502  0.00000000000E+00  0.00000000000E+00  0.28607412978E+01  0.28607412978E+01  0.00000000000E+00 0. -1.
         13   -1    0    0    0    0 -0.00000000000E+00 -0.00000000000E+00 -0.10000000000E+04  0.10000000000E+04  0.00000000000E+00 0.  1.
    9000005    2    1    2  501    0 -0.15819282855E+02  0.26997749009E+02 -0.90514192995E+03  0.90568751114E+03  0.29709124834E+01 0.  0.
         13    1    3    3    0    0 -0.10256137799E+02  0.20140633200E+02 -0.64967409533E+03  0.65006712239E+03  0.00000000000E+00 0.  1.
          3    1    3    3  501    0 -0.55631450557E+01  0.68571158089E+01 -0.25546783462E+03  0.25562038875E+03  0.00000000000E+00 0.  1.
         -1    1    1    2    0  502  0.15819282855E+02 -0.26997749009E+02 -0.91997328750E+02  0.97173230155E+02  0.00000000000E+00 0. -1.
<mgrwt>
<rscale>  1 0.30000000E+03</rscale>
<asrwt>0</asrwt>
<pdfrwt beam="1">  1       21 0.10402718E-01 0.30000000E+03</pdfrwt>
<pdfrwt beam="2">0</pdfrwt>
<totfact> 0.80164743E+03</totfact>
</mgrwt>
</event>
<event>
 6    1  0.1284012E-001  0.3000000E+03  0.7818608E-02  0.1093470E+00
         21   -1    0    0  501  502  0.00000000000E+00  0.00000000000E+00  0.35220506810E+01  0.35220506810E+01  0.00000000000E+00 0. -1.
         13   -1    0    0    0    0 -0.00000000000E+00 -0.00000000000E+00 -0.10000000000E+04  0.10000000000E+04  0.00000000000E+00 0.  1.
    9000005    2    1    2  501    0 -0.45193040939E+02 -0.13739014405E+02 -0.80178405244E+03  0.80318013059E+03  0.30796025183E+01 0.  0.
         13    1    3    3    0    0 -0.19636186354E+02 -0.74369704797E+01 -0.36612546959E+03  0.36672707539E+03  0.00000000000E+00 0.  1.
          1    1    3    3  501    0 -0.25556854585E+02 -0.63020439251E+01 -0.43565858286E+03  0.43645305520E+03  0.00000000000E+00 0.  1.
         -1    1    1    2    0  502  0.45193040939E+02  0.13739014405E+02 -0.19469389687E+03  0.20034192009E+03  0.00000000000E+00 0. -1.
<mgrwt>
<rscale>  1 0.30000000E+03</rscale>
<asrwt>0</asrwt>
<pdfrwt beam="1">  1       21 0.12807484E-01 0.30000000E+03</pdfrwt>
<pdfrwt beam="2">0</pdfrwt>
<totfact> 0.55043928E+03</totfact>
</mgrwt>
</event>
<event>
 6    1  0.1284012E-001  0.3000000E+03  0.7818608E-02  0.1093470E+00
         21   -1    0    0  501  502  0.00000000000E+00  0.00000000000E+00  0.97663847714E+01  0.97663847714E+01  0.00000000000E+00 0. -1.
         13   -1    0    0    0    0 -0.00000000000E+00 -0.00000000000E+00 -0.10000000000E+04  0.10000000000E+04  0.00000000000E+00 0.  1.
    9000005    2    1    2  501    0  0.96408659988E+02  0.15389646335E+02 -0.41706301877E+03  0.42834054807E+03  0.16101439870E+01 0.  0.
         13    1    3    3    0    0  0.83796837692E+02  0.13742436707E+02 -0.36448064702E+03  0.37424177563E+03  0.00000000000E+00 0.  1.
          3    1    3    3  501    0  0.12611822295E+02  0.16472096278E+01 -0.52582371747E+02  0.54098772442E+02  0.00000000000E+00 0.  1.
         -1    1    1    2    0  502 -0.96408659988E+02 -0.15389646335E+02 -0.57317059646E+03  0.58142583670E+03  0.00000000000E+00 0. -1.
<mgrwt>
<rscale>  1 0.30000000E+03</rscale>
<asrwt>0</asrwt>
<pdfrwt beam="1">  1       21 0.35514201E-01 0.30000000E+03</pdfrwt>
<pdfrwt beam="2">0</pdfrwt>
<totfact> 0.77238395E+02</totfact>
</mgrwt>
</event>
<event>
 6    1  0.1284012E-001  0.3000000E+03  0.7818608E-02  0.1093470E+00
         21   -1    0    0  501  502  0.00000000000E+00  0.00000000000E+00  0.14825581478E+01  0.14825581478E+01  0.00000000000E+00 0. -1.
         13   -1    0    0    0    0 -0.00000000000E+00 -0.00000000000E+00 -0.10000000000E+04  0.10000000000E+04  0.00000000000E+00 0.  1.
    9000005    2    1    2  501    0 -0.27180337320E+02  0.24822675469E+02 -0.35771076680E+03  0.35961954258E+03  0.37797845254E+01 0.  0.
         13    1    3    3    0    0 -0.44404653884E+01  0.55685938371E+01 -0.79100915695E+02  0.79420915595E+02  0.00000000000E+00 0.  1.
          1    1    3    3  501    0 -0.22739871932E+02  0.19254081631E+02 -0.27860985110E+03  0.28019862699E+03  0.00000000000E+00 0.  1.
         -3    1    1    2    0  502  0.27180337320E+02 -0.24822675469E+02 -0.64080667506E+03  0.64186301557E+03  0.00000000000E+00 0. -1.
<mgrwt>
<rscale>  1 0.30000000E+03</rscale>
<asrwt>0</asrwt>
<pdfrwt beam="1">  1       21 0.53911319E-02 0.30000000E+03</pdfrwt>
<pdfrwt beam="2">0</pdfrwt>
<totfact> 0.25327071E+04</totfact>
</mgrwt>
</event>
<event>
 6    1  0.1284012E-001  0.3000000E+03  0.7818608E-02  0.1093470E+00
         21   -1    0    0  501  502  0.00000000000E+00  0.00000000000E+00  0.10825259623E+01  0.10825259623E+01  0.00000000000E+00 0. -1.
         13   -1    0    0    0    0 -0.00000000000E+00 -0.00000000000E+00 -0.10000000000E+04  0.10000000000E+04  0.00000000000E+00 0.  1.
    9000005    2    1    2  501    0 -0.29487479600E+02  0.14112909409E+02 -0.50696993824E+03  0.50805000813E+03  0.52542186999E+01 0.  0.
         13    1    3    3    0    0 -0.22812089567E+02  0.13245816610E+02 -0.40392994516E+03  0.40479037005E+03  0.00000000000E+00 0.  1.
          3    1    3    3  501    0 -0.66753900336E+01  0.86709279866E+00 -0.10303999308E+03  0.10325963808E+03  0.00000000000E+00 0.  1.
         -1    1    1    2    0  502  0.29487479600E+02 -0.14112909409E+02 -0.49194753579E+03  0.49303251783E+03  0.00000000000E+00 0. -1.
<mgrwt>
<rscale>  1 0.30000000E+03</rscale>
<asrwt>0</asrwt>
<pdfrwt beam="1">  1       21 0.39364663E-02 0.30000000E+03</pdfrwt>
<pdfrwt beam="2">0</pdfrwt>
<totfact> 0.43196003E+04</totfact>
</mgrwt>
</event>
<event>
 6    1  0.1284012E-001  0.3000000E+03  0.7818608E-02  0.1093470E+00
         21   -1    0    0  501  502  0.00000000000E+00  0.00000000000E+00  0.15384788471E+01  0.15384788471E+01  0.00000000000E+00 0. -1.
         13   -1    0    0    0    0 -0.00000000000E+00 -0.00000000000E+00 -0.10000000000E+04  0.10000000000E+04  0.00000000000E+00 0.  1.
    9000005    2    1    2  501    0  0.34155771669E+02 -0.10856788018E+02 -0.70122197304E+03  0.70214603481E+03  0.35088659568E+01 0.  0.
         13    1    3    3    0    0  0.24150288009E+02 -0.84855053367E+01 -0.47212327861E+03  0.47281669854E+03  0.00000000000E+00 0.  1.
          1    1    3    3  501    0  0.10005483660E+02 -0.23712826810E+01 -0.22909869444E+03  0.22932933628E+03  0.00000000000E+00 0.  1.
         -3    1    1    2    0  502 -0.34155771669E+02  0.10856788018E+02 -0.29723954811E+03  0.29939244403E+03  0.00000000000E+00 0. -1.
<mgrwt>
<rscale>  1 0.30000000E+03</rscale>
<asrwt>0</asrwt>
<pdfrwt beam="1">  1       21 0.55944803E-02 0.30000000E+03</pdfrwt>
<pdfrwt beam="2">0</pdfrwt>
<totfact> 0.23769273E+04</totfact>
</mgrwt>
</event>
<event>
 6    1  0.1284012E-001  0.3000000E+03  0.7818608E-02  0.1093470E+00
         21   -1    0    0  501  502  0.00000000000E+00  0.00000000000E+00  0.11613712606E+01  0.11613712606E+01  0.00000000000E+00 0. -1.
         13   -1    0    0    0    0 -0.00000000000E+00 -0.00000000000E+00 -0.10000000000E+04  0.10000000000E+04  0.00000000000E+00 0.  1.
    9000005    2    1    2  501    0  0.71467840162E+01  0.29775188313E+02 -0.71772518442E+03  0.71838512237E+03  0.31788878026E+01 0.  0.
         13    1    3    3    0    0  0.30070980694E+01  0.16257709417E+02 -0.35579313118E+03  0.35617707386E+03  0.00000000000E+00 0.  1.
          3    1    3    3  501    0  0.41396859468E+01  0.13517478896E+02 -0.36193205325E+03  0.36220804851E+03  0.00000000000E+00 0.  1.
         -1    1    1    2    0  502 -0.71467840162E+01 -0.29775188313E+02 -0.28111344432E+03  0.28277624889E+03  0.00000000000E+00 0. -1.
<mgrwt>
<rscale>  1 0.30000000E+03</rscale>
<asrwt>0</asrwt>
<pdfrwt beam="1">  1       21 0.42231771E-02 0.30000000E+03</pdfrwt>
<pdfrwt beam="2">0</pdfrwt>
<totfact> 0.38368183E+04</totfact>
</mgrwt>
</event>
<event>
 6    1  0.1284012E-001  0.3000000E+03  0.7818608E-02  0.1093470E+00
         21   -1    0    0  501  502  0.00000000000E+00  0.00000000000E+00  0.11424407506E+01  0.11424407506E+01  0.00000000000E+00 0. -1.
         13   -1    0    0    0    0 -0.00000000000E+00 -0.00000000000E+00 -0.10000000000E+04  0.10000000000E+04  0.00000000000E+00 0.  1.
    9000005    2    1    2  501    0  0.31782666978E+02  0.50582326435E+01 -0.64744469170E+03  0.64825899382E+03  0.44012068115E+01 0.  0.
         13    1    3    3    0    0  0.22794868523E+02  0.54833921913E+01 -0.45326552515E+03  0.45387146849E+03  0.00000000000E+00 0.  1.
          3    1    3    3  501    0  0.89877984548E+01 -0.42515954777E+00 -0.19417916655E+03  0.19438752533E+03  0.00000000000E+00 0.  1.
         -1    1    1    2    0  502 -0.31782666978E+02 -0.50582326435E+01 -0.35141286755E+03  0.35288344693E+03  0.00000000000E+00 0. -1.
<mgrwt>
<rscale>  1 0.30000000E+03</rscale>
<asrwt>0</asrwt>
<pdfrwt beam="1">  1       21 0.41543388E-02 0.30000000E+03</pdfrwt>
<pdfrwt beam="2">0</pdfrwt>
<totfact> 0.39447703E+04</totfact>
</mgrwt>
</event>
<event>
 6    1  0.1284012E-001  0.3000000E+03  0.7818608E-02  0.1093470E+00
         21   -1    0    0  501  502  0.00000000000E+00  0.00000000000E+00  0.98115565721E+01  0.98115565721E+01  0.00000000000E+00 0. -1.
         13   -1    0    0    0    0 -0.00000000000E+00 -0.00000000000E+00 -0.10000000000E+04  0.10000000000E+04  0.00000000000E+00 0.  1.
    9000005    2    1    2  501    0  0.21639776437E+02  0.38940768177E+02 -0.94600760159E+03  0.94706914559E+03  0.49920849887E+01 0.  0.
         13    1    3    3    0    0  0.19555417775E+01  0.64377488402E+01 -0.12100234366E+03  0.12118925664E+03  0.00000000000E+00 0.  1.
          1    1    3    3  501    0  0.19684234660E+02  0.32503019337E+02 -0.82500525792E+03  0.82587988894E+03  0.00000000000E+00 0.  1.
         -1    1    1    2    0  502 -0.21639776437E+02 -0.38940768177E+02 -0.44180841842E+02  0.62742410987E+02  0.00000000000E+00 0. -1.
<mgrwt>
<rscale>  1 0.30000000E+03</rscale>
<asrwt>0</asrwt>
<pdfrwt beam="1">  1       21 0.35678463E-01 0.30000000E+03</pdfrwt>
<pdfrwt beam="2">0</pdfrwt>
<totfact> 0.76511257E+02</totfact>
</mgrwt>
</event>
<event>
 6    1  0.1284012E-001  0.3000000E+03  0.7818608E-02  0.1093470E+00
         21   -1    0    0  501  502  0.00000000000E+00  0.00000000000E+00  0.39332337922E+01  0.39332337922E+01  0.00000000000E+00 0. -1.
         13   -1    0    0    0    0 -0.00000000000E+00 -0.00000000000E+00 -0.10000000000E+04  0.10000000000E+04  0.00000000000E+00 0.  1.
    9000005    2    1    2  501    0 -0.12741358884E+02  0.28466953916E+02 -0.93347024016E+03  0.93399730051E+03  0.33997638800E+01 0.  0.
         13    1    3    3    0    0 -0.31744932676E+01  0.62547956824E+01 -0.17160206070E+03  0.17174535543E+03  0.00000000000E+00 0.  1.
          3    1    3    3  501    0 -0.95668656169E+01  0.22212158233E+02 -0.76186817947E+03  0.76225194508E+03  0.00000000000E+00 0.  1.
         -1    1    1    2    0  502  0.12741358884E+02 -0.28466953916E+02 -0.62596526044E+02  0.69935933284E+02  0.00000000000E+00 0. -1.
<mgrwt>
<rscale>  1 0.30000000E+03</rscale>
<asrwt>0</asrwt>
<pdfrwt beam="1">  1       21 0.14302698E-01 0.30000000E+03</pdfrwt>
<pdfrwt beam="2">0</pdfrwt>
<totfact> 0.44962551E+03</totfact>
</mgrwt>
</event>
<event>
 6    1  0.1284012E-001  0.3000000E+03  0.7818608E-02  0.1093470E+00
         21   -1    0    0  501  502  0.00000000000E+00  0.00000000000E+00  0.21739014123E+01  0.21739014123E+01  0.00000000000E+00 0. -1.
         13   -1    0    0    0    0 -0.00000000000E+00 -0.00000000000E+00 -0.10000000000E+04  0.10000000000E+04  0.00000000000E+00 0.  1.
    9000005    2    1    2  501    0 -0.12321076463E+02 -0.42329231285E+02 -0.66114209369E+03  0.66261581817E+03  0.26984595053E+01 0.  0.
         13    1    3    3    0    0 -0.11286597320E+02 -0.35433197449E+02 -0.55208153927E+03  0.55333256253E+03  0.00000000000E+00 0.  1.
          1    1    3    3  501    0 -0.10344791428E+01 -0.68960338362E+01 -0.10906055443E+03  0.10928325563E+03  0.00000000000E+00 0.  1.
         -3    1    1    2    0  502  0.12321076463E+02  0.42329231285E+02 -0.33668400489E+03  0.33955808325E+03  0.00000000000E+00 0. -1.
<mgrwt>
<rscale>  1 0.30000000E+03</rscale>
<asrwt>0</asrwt>
<pdfrwt beam="1">  1       21 0.79051127E-02 0.30000000E+03</pdfrwt>
<pdfrwt beam="2">0</pdfrwt>
<totfact> 0.13044314E+04</totfact>
</mgrwt>
</event>
<event>
 6    1  0.1284012E-001  0.3000000E+03  0.7818608E-02  0.1093470E+00
         21   -1    0    0  501  502  0.00000000000E+00  0.00000000000E+00  0.44625449895E+01  0.44625449895E+01  0.00000000000E+00 0. -1.
         13   -1    0    0    0    0 -0.00000000000E+00 -0.00000000000E+00 -0.10000000000E+04  0.10000000000E+04  0.00000000000E+00 0.  1.
    9000005    2    1    2  501    0 -0.55831119692E+02  0.13767406317E+02 -0.24282304426E+03  0.24955484232E+03  0.28165754794E+01 0.  0.
         13    1    3    3    0    0 -0.30350885648E+02  0.67826733398E+01 -0.12595065484E+03  0.12973337416E+03  0.00000000000E+00 0.  1.
          3    1    3    3  501    0 -0.25480234045E+02  0.69847329771E+01 -0.11687238943E+03  0.11982146816E+03  0.00000000000E+00 0.  1.
         -1    1    1    2    0  502  0.55831119692E+02 -0.13767406317E+02 -0.75271441075E+03  0.75490770267E+03  0.00000000000E+00 0. -1.
<mgrwt>
<rscale>  1 0.30000000E+03</rscale>
<asrwt>0</asrwt>
<pdfrwt beam="1">  1       21 0.16227471E-01 0.30000000E+03</pdfrwt>
<pdfrwt beam="2">0</pdfrwt>
<totfact> 0.35577591E+03</totfact>
</mgrwt>
</event>
<event>
 6    1  0.1284012E-001  0.3000000E+03  0.7818608E-02  0.1093470E+00
         21   -1    0    0  501  502  0.00000000000E+00  0.00000000000E+00  0.11950551554E+01  0.11950551554E+01  0.00000000000E+00 0. -1.
         13   -1    0    0    0    0 -0.00000000000E+00 -0.00000000000E+00 -0.10000000000E+04  0.10000000000E+04  0.00000000000E+00 0.  1.
    9000005    2    1    2  501    0  0.17986488786E+02 -0.27256775004E+02 -0.66130135175E+03  0.66211524019E+03  0.32661764200E+01 0.  0.
         13    1    3    3    0    0  0.73521112278E+01 -0.98893474698E+01 -0.22120560678E+03  0.22154857978E+03  0.00000000000E+00 0.  1.
          3    1    3    3  501    0  0.10634377558E+02 -0.17367427534E+02 -0.44009574497E+03  0.44056666041E+03  0.00000000000E+00 0.  1.
         -3    1    1    2    0  502 -0.17986488786E+02  0.27256775004E+02 -0.33750359310E+03  0.33907981497E+03  0.00000000000E+00 0. -1.
<mgrwt>
<rscale>  1 0.30000000E+03</rscale>
<asrwt>0</asrwt>
<pdfrwt beam="1">  1       21 0.43456643E-02 0.30000000E+03</pdfrwt>
<pdfrwt beam="2">0</pdfrwt>
<totfact> 0.36557523E+04</totfact>
</mgrwt>
</event>
<event>
 6    1  0.1284012E-001  0.3000000E+03  0.7818608E-02  0.1093470E+00
         21   -1    0    0  501  502  0.00000000000E+00  0.00000000000E+00  0.10258006150E+01  0.10258006150E+01  0.00000000000E+00 0. -1.
         13   -1    0    0    0    0 -0.00000000000E+00 -0.00000000000E+00 -0.10000000000E+04  0.10000000000E+04  0.00000000000E+00 0.  1.
    9000005    2    1    2  501    0 -0.19107330209E+02 -0.24291558880E+02 -0.37708057245E+03  0.37836469446E+03  0.38618636934E+01 0.  0.
         13    1    3    3    0    0 -0.11950575936E+02 -0.12316599572E+02 -0.21676502839E+03  0.21744330853E+03  0.00000000000E+00 0.  1.
          3    1    3    3  501    0 -0.71567542738E+01 -0.11974959308E+02 -0.16031554406E+03  0.16092138593E+03  0.00000000000E+00 0.  1.
         -1    1    1    2    0  502  0.19107330209E+02  0.24291558880E+02 -0.62189362693E+03  0.62266110616E+03  0.00000000000E+00 0. -1.
<mgrwt>
<rscale>  1 0.30000000E+03</rscale>
<asrwt>0</asrwt>
<pdfrwt beam="1">  1       21 0.37301919E-02 0.30000000E+03</pdfrwt>
<pdfrwt beam="2">0</pdfrwt>
<totfact> 0.47285916E+04</totfact>
</mgrwt>
</event>
<event>
 6    1  0.1284012E-001  0.3000000E+03  0.7818608E-02  0.1093470E+00
         21   -1    0    0  501  502  0.00000000000E+00  0.00000000000E+00  0.10718059818E+01  0.10718059818E+01  0.00000000000E+00 0. -1.
         13   -1    0    0    0    0 -0.00000000000E+00 -0.00000000000E+00 -0.10000000000E+04  0.10000000000E+04  0.00000000000E+00 0.  1.
    9000005    2    1    2  501    0  0.24852323468E+02  0.17721630482E+02 -0.67806052809E+03  0.67875557430E+03  0.33698246531E+01 0.  0.
         13    1    3    3    0    0  0.10795426277E+02  0.60015260858E+01 -0.25339885580E+03  0.25369970371E+03  0.00000000000E+00 0.  1.
          3    1    3    3  501    0  0.14056897190E+02  0.11720104397E+02 -0.42466167230E+03  0.42505587059E+03  0.00000000000E+00 0.  1.
         -3    1    1    2    0  502 -0.24852323468E+02 -0.17721630482E+02 -0.32086766593E+03  0.32231623168E+03  0.00000000000E+00 0. -1.
<mgrwt>
<rscale>  1 0.30000000E+03</rscale>
<asrwt>0</asrwt>
<pdfrwt beam="1">  1       21 0.38974845E-02 0.30000000E+03</pdfrwt>
<pdfrwt beam="2">0</pdfrwt>
<totfact> 0.43925310E+04</totfact>
</mgrwt>
</event>
<event>
 6    1  0.1284012E-001  0.3000000E+03  0.7818608E-02  0.1093470E+00
         21   -1    0    0  501  502  0.00000000000E+00  0.00000000000E+00  0.10764398155E+01  0.10764398155E+01  0.00000000000E+00 0. -1.
         13   -1    0    0    0    0 -0.00000000000E+00 -0.00000000000E+00 -0.10000000000E+04  0.10000000000E+04  0.00000000000E+00 0.  1.
    9000005    2    1    2  501    0 -0.15178268764E+02  0.28159055265E+02 -0.60346873948E+03  0.60432988665E+03  0.40963549518E+01 0.  0.
         13    1    3    3    0    0 -0.49896542758E+01  0.82224663252E+01 -0.21716622892E+03  0.21737910798E+03  0.00000000000E+00 0.  1.
          1    1    3    3  501    0 -0.10188614488E+02  0.19936588940E+02 -0.38630251057E+03  0.38695077867E+03  0.00000000000E+00 0.  1.
         -1    1    1    2    0  502  0.15178268764E+02 -0.28159055265E+02 -0.39545482070E+03  0.39674655317E+03  0.00000000000E+00 0. -1.
<mgrwt>
<rscale>  1 0.30000000E+03</rscale>
<asrwt>0</asrwt>
<pdfrwt beam="1">  1       21 0.39143349E-02 0.30000000E+03</pdfrwt>
<pdfrwt beam="2">0</pdfrwt>
<totfact> 0.43607709E+04</totfact>
</mgrwt>
</event>
<event>
 6    1  0.1284012E-001  0.3000000E+03  0.7818608E-02  0.1093470E+00
         21   -1    0    0  501  502  0.00000000000E+00  0.00000000000E+00  0.41822768480E+01  0.41822768480E+01  0.00000000000E+00 0. -1.
         13   -1    0    0    0    0 -0.00000000000E+00 -0.00000000000E+00 -0.10000000000E+04  0.10000000000E+04  0.00000000000E+00 0.  1.
    9000005    2    1    2  501    0  0.23027755387E+02  0.55906378587E+02 -0.67580628083E+03  0.67850893759E+03  0.21091463912E+01 0.  0.
         13    1    3    3    0    0  0.39518342309E+01  0.11772284771E+02 -0.14088957074E+03  0.14143576219E+03  0.00000000000E+00 0.  1.
          3    1    3    3  501    0  0.19075921156E+02  0.44134093816E+02 -0.53491671009E+03  0.53707317540E+03  0.00000000000E+00 0.  1.
         -3    1    1    2    0  502 -0.23027755387E+02 -0.55906378587E+02 -0.32001144232E+03  0.32567333925E+03  0.00000000000E+00 0. -1.
<mgrwt>
<rscale>  1 0.30000000E+03</rscale>
<asrwt>0</asrwt>
<pdfrwt beam="1">  1       21 0.15208312E-01 0.30000000E+03</pdfrwt>
<pdfrwt beam="2">0</pdfrwt>
<totfact> 0.40141583E+03</totfact>
</mgrwt>
</event>
<event>
 6    1  0.1284012E-001  0.3000000E+03  0.7818608E-02  0.1093470E+00
         21   -1    0    0  501  502  0.00000000000E+00  0.00000000000E+00  0.13455156082E+01  0.13455156082E+01  0.00000000000E+00 0. -1.
         13   -1    0    0    0    0 -0.00000000000E+00 -0.00000000000E+00 -0.10000000000E+04  0.10000000000E+04  0.00000000000E+00 0.  1.
    9000005    2    1    2  501    0 -0.95240651319E+01  0.28601568244E+02 -0.78362618322E+03  0.78421438512E+03  0.36673256114E+01 0.  0.
         13    1    3    3    0    0 -0.68510893352E+01  0.24614176536E+02 -0.66911153510E+03  0.66959916481E+03  0.00000000000E+00 0.  1.
          1    1    3    3  501    0 -0.26729757968E+01  0.39873917078E+01 -0.11451464812E+03  0.11461522031E+03  0.00000000000E+00 0.  1.
         -1    1    1    2    0  502  0.95240651319E+01 -0.28601568244E+02 -0.21502830117E+03  0.21713113049E+03  0.00000000000E+00 0. -1.
<mgrwt>
<rscale>  1 0.30000000E+03</rscale>
<asrwt>0</asrwt>
<pdfrwt beam="1">  1       21 0.48927943E-02 0.30000000E+03</pdfrwt>
<pdfrwt beam="2">0</pdfrwt>
<totfact> 0.29888287E+04</totfact>
</mgrwt>
</event>
<event>
 6    1  0.1284012E-001  0.3000000E+03  0.7818608E-02  0.1093470E+00
         21   -1    0    0  501  502  0.00000000000E+00  0.00000000000E+00  0.25213831328E+01  0.25213831328E+01  0.00000000000E+00 0. -1.
         13   -1    0    0    0    0 -0.00000000000E+00 -0.00000000000E+00 -0.10000000000E+04  0.10000000000E+04  0.00000000000E+00 0.  1.
    9000005    2    1    2  501    0  0.48615205279E+02 -0.97838532047E+01 -0.57580317593E+03  0.57794001348E+03  0.24899399203E+01 0.  0.
         13    1    3    3    0    0  0.32664497512E+02 -0.75351727280E+01 -0.39681478388E+03  0.39822822719E+03  0.00000000000E+00 0.  1.
          1    1    3    3  501    0  0.15950707767E+02 -0.22486804767E+01 -0.17898839205E+03  0.17971178629E+03  0.00000000000E+00 0.  1.
         -3    1    1    2    0  502 -0.48615205279E+02  0.97838532047E+01 -0.42167544093E+03  0.42458136965E+03  0.00000000000E+00 0. -1.
<mgrwt>
<rscale>  1 0.30000000E+03</rscale>
<asrwt>0</asrwt>
<pdfrwt beam="1">  1       21 0.91686853E-02 0.30000000E+03</pdfrwt>
<pdfrwt beam="2">0</pdfrwt>
<totfact> 0.10041934E+04</totfact>
</mgrwt>
</event>
<event>
 6    1  0.1284012E-001  0.3000000E+03  0.7818608E-02  0.1093470E+00
         21   -1    0    0  501  502  0.00000000000E+00  0.00000000000E+00  0.13954622652E+01  0.13954622652E+01  0.00000000000E+00 0. -1.
         13   -1    0    0    0    0 -0.00000000000E+00 -0.00000000000E+00 -0.10000000000E+04  0.10000000000E+04  0.00000000000E+00 0.  1.
    9000005    2    1    2  501    0 -0.16806835388E+02 -0.30670761889E+02 -0.32635243328E+03  0.32823422059E+03  0.29372619093E+01 0.  0.
         13    1    3    3    0    0 -0.73585394009E+01 -0.10640309585E+02 -0.11606534947E+03  0.11678411552E+03  0.00000000000E+00 0.  1.
          3    1    3    3  501    0 -0.94482959872E+01 -0.20030452305E+02 -0.21028708381E+03  0.21145010507E+03  0.00000000000E+00 0.  1.
         -1    1    1    2    0  502  0.16806835388E+02  0.30670761889E+02 -0.67225210446E+03  0.67316124168E+03  0.00000000000E+00 0. -1.
<mgrwt>
<rscale>  1 0.30000000E+03</rscale>
<asrwt>0</asrwt>
<pdfrwt beam="1">  1       21 0.50744189E-02 0.30000000E+03</pdfrwt>
<pdfrwt beam="2">0</pdfrwt>
<totfact> 0.28087983E+04</totfact>
</mgrwt>
</event>
<event>
 6    1  0.1284012E-001  0.3000000E+03  0.7818608E-02  0.1093470E+00
         21   -1    0    0  501  502  0.00000000000E+00  0.00000000000E+00  0.18844889309E+01  0.18844889309E+01  0.00000000000E+00 0. -1.
         13   -1    0    0    0    0 -0.00000000000E+00 -0.00000000000E+00 -0.10000000000E+04  0.10000000000E+04  0.00000000000E+00 0.  1.
    9000005    2    1    2  501    0  0.22106829845E+02  0.27471354664E+02 -0.79070281289E+03  0.79149576628E+03  0.33499960679E+01 0.  0.
         13    1    3    3    0    0  0.16250748547E+02  0.18165933431E+02 -0.52465687289E+03  0.52522273583E+03  0.00000000000E+00 0.  1.
          1    1    3    3  501    0  0.58560812974E+01  0.93054212336E+01 -0.26604594000E+03  0.26627303045E+03  0.00000000000E+00 0.  1.
         -1    1    1    2    0  502 -0.22106829845E+02 -0.27471354664E+02 -0.20741269818E+03  0.21038872265E+03  0.00000000000E+00 0. -1.
<mgrwt>
<rscale>  1 0.30000000E+03</rscale>
<asrwt>0</asrwt>
<pdfrwt beam="1">  1       21 0.68527015E-02 0.30000000E+03</pdfrwt>
<pdfrwt beam="2">0</pdfrwt>
<totfact> 0.16743157E+04</totfact>
</mgrwt>
</event>
<event>
 6    1  0.1284012E-001  0.3000000E+03  0.7818608E-02  0.1093470E+00
         21   -1    0    0  501  502  0.00000000000E+00  0.00000000000E+00  0.65032194036E+01  0.65032194036E+01  0.00000000000E+00 0. -1.
         13   -1    0    0    0    0 -0.00000000000E+00 -0.00000000000E+00 -0.10000000000E+04  0.10000000000E+04  0.00000000000E+00 0.  1.
    9000005    2    1    2  501    0  0.35570997063E+02  0.12062364718E+02 -0.94203653774E+03  0.94279330597E+03  0.39475149195E+01 0.  0.
         13    1    3    3    0    0  0.33383078723E+02  0.11023679519E+02 -0.90073325412E+03  0.90141907375E+03  0.00000000000E+00 0.  1.
          3    1    3    3  501    0  0.21879183401E+01  0.10386851982E+01 -0.41303283621E+02  0.41374232216E+02  0.00000000000E+00 0.  1.
         -3    1    1    2    0  502 -0.35570997063E+02 -0.12062364718E+02 -0.51460242858E+02  0.63709913433E+02  0.00000000000E+00 0. -1.
<mgrwt>
<rscale>  1 0.30000000E+03</rscale>
<asrwt>0</asrwt>
<pdfrwt beam="1">  1       21 0.23648120E-01 0.30000000E+03</pdfrwt>
<pdfrwt beam="2">0</pdfrwt>
<totfact> 0.17380933E+03</totfact>
</mgrwt>
</event>
<event>
 6    1  0.1284012E-001  0.3000000E+03  0.7818608E-02  0.1093470E+00
         21   -1    0    0  501  502  0.00000000000E+00  0.00000000000E+00  0.88142645665E+01  0.88142645665E+01  0.00000000000E+00 0. -1.
         13   -1    0    0    0    0 -0.00000000000E+00 -0.00000000000E+00 -0.10000000000E+04  0.10000000000E+04  0.00000000000E+00 0.  1.
    9000005    2    1    2  501    0  0.10428956262E+02 -0.37748763380E+02 -0.95400451463E+03  0.95481264009E+03  0.29717810019E+01 0.  0.
         13    1    3    3    0    0  0.35545324345E+01 -0.93699915858E+01 -0.22248553119E+03  0.22271112014E+03  0.00000000000E+00 0.  1.
          1    1    3    3  501    0  0.68744238272E+01 -0.28378771794E+02 -0.73151898343E+03  0.73210151995E+03  0.00000000000E+00 0.  1.
         -3    1    1    2    0  502 -0.10428956262E+02  0.37748763380E+02 -0.37181220807E+02  0.54001624477E+02  0.00000000000E+00 0. -1.
<mgrwt>
<rscale>  1 0.30000000E+03</rscale>
<asrwt>0</asrwt>
<pdfrwt beam="1">  1       21 0.32051939E-01 0.30000000E+03</pdfrwt>
<pdfrwt beam="2">0</pdfrwt>
<totfact> 0.95184155E+02</totfact>
</mgrwt>
</event>
<event>
 6    1  0.1284012E-001  0.3000000E+03  0.7818608E-02  0.1093470E+00
         21   -1    0    0  501  502  0.00000000000E+00  0.00000000000E+00  0.30092165548E+01  0.30092165548E+01  0.00000000000E+00 0. -1.
         13   -1    0    0    0    0 -0.00000000000E+00 -0.00000000000E+00 -0.10000000000E+04  0.10000000000E+04  0.00000000000E+00 0.  1.
    9000005    2    1    2  501    0  0.24703796400E+02  0.25833439366E+02 -0.87879286659E+03  0.87952483821E+03  0.30650472352E+01 0.  0.
         13    1    3    3    0    0  0.24472166953E+02  0.25274540788E+02 -0.85353960486E+03  0.85426433054E+03  0.00000000000E+00 0.  1.
          1    1    3    3  501    0  0.23162944692E+00  0.55889857853E+00 -0.25253261730E+02  0.25260507671E+02  0.00000000000E+00 0.  1.
         -3    1    1    2    0  502 -0.24703796400E+02 -0.25833439366E+02 -0.11819791685E+03  0.12348437834E+03  0.00000000000E+00 0. -1.
<mgrwt>
<rscale>  1 0.30000000E+03</rscale>
<asrwt>0</asrwt>
<pdfrwt beam="1">  1       21 0.10942629E-01 0.30000000E+03</pdfrwt>
<pdfrwt beam="2">0</pdfrwt>
<totfact> 0.73205568E+03</totfact>
</mgrwt>
</event>
<event>
 6    1  0.1284012E-001  0.3000000E+03  0.7818608E-02  0.1093470E+00
         21   -1    0    0  501  502  0.00000000000E+00  0.00000000000E+00  0.25127286955E+01  0.25127286955E+01  0.00000000000E+00 0. -1.
         13   -1    0    0    0    0 -0.00000000000E+00 -0.00000000000E+00 -0.10000000000E+04  0.10000000000E+04  0.00000000000E+00 0.  1.
    9000005    2    1    2  501    0 -0.27924249822E+02 -0.16026338542E+02 -0.88272130760E+03  0.88331611096E+03  0.37199100660E+01 0.  0.
         13    1    3    3    0    0 -0.22558340882E+02 -0.13452065288E+02 -0.67869035875E+03  0.67919838034E+03  0.00000000000E+00 0.  1.
          1    1    3    3  501    0 -0.53659089395E+01 -0.25742732541E+01 -0.20403094885E+03  0.20411773062E+03  0.00000000000E+00 0.  1.
         -1    1    1    2    0  502  0.27924249822E+02  0.16026338542E+02 -0.11476596370E+03  0.11919661774E+03  0.00000000000E+00 0. -1.
<mgrwt>
<rscale>  1 0.30000000E+03</rscale>
<asrwt>0</asrwt>
<pdfrwt beam="1">  1       21 0.91372145E-02 0.30000000E+03</pdfrwt>
<pdfrwt beam="2">0</pdfrwt>
<totfact> 0.10103389E+04</totfact>
</mgrwt>
</event>
<event>
 6    1  0.1284012E-001  0.3000000E+03  0.7818608E-02  0.1093470E+00
         21   -1    0    0  501  502  0.00000000000E+00  0.00000000000E+00  0.11187974538E+01  0.11187974538E+01  0.00000000000E+00 0. -1.
         13   -1    0    0    0    0 -0.00000000000E+00 -0.00000000000E+00 -0.10000000000E+04  0.10000000000E+04  0.00000000000E+00 0.  1.
    9000005    2    1    2  501    0  0.10783867320E+02 -0.29755308758E+02 -0.34311708274E+03  0.34459137912E+03  0.34951258737E+01 0.  0.
         13    1    3    3    0    0  0.29249070569E+01 -0.11773409502E+02 -0.14359672837E+03  0.14410825324E+03  0.00000000000E+00 0.  1.
          1    1    3    3  501    0  0.78589602634E+01 -0.17981899257E+02 -0.19952035437E+03  0.20048312588E+03  0.00000000000E+00 0.  1.
         -3    1    1    2    0  502 -0.10783867320E+02  0.29755308758E+02 -0.65576411981E+03  0.65652741833E+03  0.00000000000E+00 0. -1.
<mgrwt>
<rscale>  1 0.30000000E+03</rscale>
<asrwt>0</asrwt>
<pdfrwt beam="1">  1       21 0.40683630E-02 0.30000000E+03</pdfrwt>
<pdfrwt beam="2">0</pdfrwt>
<totfact> 0.40863820E+04</totfact>
</mgrwt>
</event>
<event>
 6    1  0.1284012E-001  0.3000000E+03  0.7818608E-02  0.1093470E+00
         21   -1    0    0  501  502  0.00000000000E+00  0.00000000000E+00  0.13622916809E+01  0.13622916809E+01  0.00000000000E+00 0. -1.
         13   -1    0    0    0    0 -0.00000000000E+00 -0.00000000000E+00 -0.10000000000E+04  0.10000000000E+04  0.00000000000E+00 0.  1.
    9000005    2    1    2  501    0  0.23647184056E+02  0.20675959100E+02 -0.76132039646E+03  0.76197517610E+03  0.32769386730E+01 0.  0.
         13    1    3    3    0    0  0.74355368760E+01  0.82102415715E+01 -0.28933857209E+03  0.28955052163E+03  0.00000000000E+00 0.  1.
          3    1    3    3  501    0  0.16211647180E+02  0.12465717529E+02 -0.47198182437E+03  0.47242465447E+03  0.00000000000E+00 0.  1.
         -3    1    1    2    0  502 -0.23647184056E+02 -0.20675959100E+02 -0.23731731186E+03  0.23938711558E+03  0.00000000000E+00 0. -1.
<mgrwt>
<rscale>  1 0.30000000E+03</rscale>
<asrwt>0</asrwt>
<pdfrwt beam="1">  1       21 0.49537984E-02 0.30000000E+03</pdfrwt>
<pdfrwt beam="2">0</pdfrwt>
<totfact> 0.29264023E+04</totfact>
</mgrwt>
</event>
<event>
 6    1  0.1284012E-001  0.3000000E+03  0.7818608E-02  0.1093470E+00
         21   -1    0    0  501  502  0.00000000000E+00  0.00000000000E+00  0.14491252753E+01  0.14491252753E+01  0.00000000000E+00 0. -1.
         13   -1    0    0    0    0 -0.00000000000E+00 -0.00000000000E+00 -0.10000000000E+04  0.10000000000E+04  0.00000000000E+00 0.  1.
    9000005    2    1    2  501    0  0.35923806096E+02  0.10619589775E+02 -0.41581167747E+03  0.41750711826E+03  0.30898466051E+01 0.  0.
         13    1    3    3    0    0  0.13085807460E+01  0.10095170005E+01 -0.20431687386E+02  0.20498423295E+02  0.00000000000E+00 0.  1.
          1    1    3    3  501    0  0.34615225350E+02  0.96100727743E+01 -0.39537999008E+03  0.39700869497E+03  0.00000000000E+00 0.  1.
         -3    1    1    2    0  502 -0.35923806096E+02 -0.10619589775E+02 -0.58273919726E+03  0.58394200701E+03  0.00000000000E+00 0. -1.
<mgrwt>
<rscale>  1 0.30000000E+03</rscale>
<asrwt>0</asrwt>
<pdfrwt beam="1">  1       21 0.52695576E-02 0.30000000E+03</pdfrwt>
<pdfrwt beam="2">0</pdfrwt>
<totfact> 0.26335000E+04</totfact>
</mgrwt>
</event>
<event>
 6    1  0.1284012E-001  0.3000000E+03  0.7818608E-02  0.1093470E+00
         21   -1    0    0  501  502  0.00000000000E+00  0.00000000000E+00  0.13233133139E+01  0.13233133139E+01  0.00000000000E+00 0. -1.
         13   -1    0    0    0    0 -0.00000000000E+00 -0.00000000000E+00 -0.10000000000E+04  0.10000000000E+04  0.00000000000E+00 0.  1.
    9000005    2    1    2  501    0 -0.32872497118E+02  0.11872180686E+02 -0.63188512987E+03  0.63287033681E+03  0.49493560917E+01 0.  0.
         13    1    3    3    0    0 -0.23900628522E+02  0.64005920089E+01 -0.42809875919E+03  0.42881319387E+03  0.00000000000E+00 0.  1.
          3    1    3    3  501    0 -0.89718685957E+01  0.54715886767E+01 -0.20378637068E+03  0.20405714294E+03  0.00000000000E+00 0.  1.
         -1    1    1    2    0  502  0.32872497118E+02 -0.11872180686E+02 -0.36679155682E+03  0.36845297650E+03  0.00000000000E+00 0. -1.
<mgrwt>
<rscale>  1 0.30000000E+03</rscale>
<asrwt>0</asrwt>
<pdfrwt beam="1">  1       21 0.48120586E-02 0.30000000E+03</pdfrwt>
<pdfrwt beam="2">0</pdfrwt>
<totfact> 0.30746983E+04</totfact>
</mgrwt>
</event>
<event>
 6    1  0.1284012E-001  0.3000000E+03  0.7818608E-02  0.1093470E+00
         21   -1    0    0  501  502  0.00000000000E+00  0.00000000000E+00  0.99870505824E+00  0.99870505824E+00  0.00000000000E+00 0. -1.
         13   -1    0    0    0    0 -0.00000000000E+00 -0.00000000000E+00 -0.10000000000E+04  0.10000000000E+04  0.00000000000E+00 0.  1.
    9000005    2    1    2  501    0  0.30769557583E+02 -0.33794946069E+01 -0.41617879813E+03  0.41735476441E+03  0.46926230147E+01 0.  0.
         13    1    3    3    0    0  0.46938258037E+01  0.90317419139E+00 -0.52465237743E+02  0.52682529322E+02  0.00000000000E+00 0.  1.
          1    1    3    3  501    0  0.26075731779E+02 -0.42826687983E+01 -0.36371356038E+03  0.36467223509E+03  0.00000000000E+00 0.  1.
         -1    1    1    2    0  502 -0.30769557583E+02  0.33794946069E+01 -0.58282249681E+03  0.58364394064E+03  0.00000000000E+00 0. -1.
<mgrwt>
<rscale>  1 0.30000000E+03</rscale>
<asrwt>0</asrwt>
<pdfrwt beam="1">  1       21 0.36316624E-02 0.30000000E+03</pdfrwt>
<pdfrwt beam="2">0</pdfrwt>
<totfact> 0.49458578E+04</totfact>
</mgrwt>
</event>
<event>
 6    1  0.1284012E-001  0.3000000E+03  0.7818608E-02  0.1093470E+00
         21   -1    0    0  501  502  0.00000000000E+00  0.00000000000E+00  0.23355595062E+01  0.23355595062E+01  0.00000000000E+00 0. -1.
         13   -1    0    0    0    0 -0.00000000000E+00 -0.00000000000E+00 -0.10000000000E+04  0.10000000000E+04  0.00000000000E+00 0.  1.
    9000005    2    1    2  501    0  0.38558142451E+02  0.27674157046E+02 -0.40814591436E+03  0.41090958614E+03  0.33183211710E+01 0.  0.
         13    1    3    3    0    0  0.23272222006E+02  0.18161859533E+02 -0.24400709037E+03  0.24578630884E+03  0.00000000000E+00 0.  1.
          3    1    3    3  501    0  0.15285920445E+02  0.95122975136E+01 -0.16413882399E+03  0.16512327730E+03  0.00000000000E+00 0.  1.
         -3    1    1    2    0  502 -0.38558142451E+02 -0.27674157046E+02 -0.58951852613E+03  0.59142597337E+03  0.00000000000E+00 0. -1.
<mgrwt>
<rscale>  1 0.30000000E+03</rscale>
<asrwt>0</asrwt>
<pdfrwt beam="1">  1       21 0.84929616E-02 0.30000000E+03</pdfrwt>
<pdfrwt beam="2">0</pdfrwt>
<totfact> 0.11498045E+04</totfact>
</mgrwt>
</event>
<event>
 6    1  0.1284012E-001  0.3000000E+03  0.7818608E-02  0.1093470E+00
         21   -1    0    0  501  502  0.00000000000E+00  0.00000000000E+00  0.29925713854E+01  0.29925713854E+01  0.00000000000E+00 0. -1.
         13   -1    0    0    0    0 -0.00000000000E+00 -0.00000000000E+00 -0.10000000000E+04  0.10000000000E+04  0.00000000000E+00 0.  1.
    9000005    2    1    2  501    0  0.39568321478E+02  0.90610357876E+01 -0.83442189982E+03  0.83541629440E+03  0.35670182877E+01 0.  0.
         13    1    3    3    0    0  0.18848546608E+02  0.32544903805E+01 -0.36309655154E+03  0.36360000709E+03  0.00000000000E+00 0.  1.
          1    1    3    3  501    0  0.20719774870E+02  0.58065454071E+01 -0.47132534828E+03  0.47181628731E+03  0.00000000000E+00 0.  1.
         -3    1    1    2    0  502 -0.39568321478E+02 -0.90610357876E+01 -0.16258552879E+03  0.16757627698E+03  0.00000000000E+00 0. -1.
<mgrwt>
<rscale>  1 0.30000000E+03</rscale>
<asrwt>0</asrwt>
<pdfrwt beam="1">  1       21 0.10882101E-01 0.30000000E+03</pdfrwt>
<pdfrwt beam="2">0</pdfrwt>
<totfact> 0.73939271E+03</totfact>
</mgrwt>
</event>
<event>
 6    1  0.1284012E-001  0.3000000E+03  0.7818608E-02  0.1093470E+00
         21   -1    0    0  501  502  0.00000000000E+00  0.00000000000E+00  0.31408950188E+01  0.31408950188E+01  0.00000000000E+00 0. -1.
         13   -1    0    0    0    0 -0.00000000000E+00 -0.00000000000E+00 -0.10000000000E+04  0.10000000000E+04  0.00000000000E+00 0.  1.
    9000005    2    1    2  501    0 -0.43264712744E+02 -0.23608467326E+02 -0.73665054712E+03  0.73830568459E+03  0.34727839689E+01 0.  0.
         13    1    3    3    0    0 -0.32859123633E+02 -0.19582763103E+02 -0.57037427239E+03  0.57165550572E+03  0.00000000000E+00 0.  1.
          1    1    3    3  501    0 -0.10405589111E+02 -0.40257042232E+01 -0.16627627473E+03  0.16665017887E+03  0.00000000000E+00 0.  1.
         -1    1    1    2    0  502  0.43264712744E+02  0.23608467326E+02 -0.26020855786E+03  0.26483521043E+03  0.00000000000E+00 0. -1.
<mgrwt>
<rscale>  1 0.30000000E+03</rscale>
<asrwt>0</asrwt>
<pdfrwt beam="1">  1       21 0.11421461E-01 0.30000000E+03</pdfrwt>
<pdfrwt beam="2">0</pdfrwt>
<totfact> 0.67769087E+03</totfact>
</mgrwt>
</event>
<event>
 6    1  0.1284012E-001  0.3000000E+03  0.7818608E-02  0.1093470E+00
         21   -1    0    0  501  502  0.00000000000E+00  0.00000000000E+00  0.58686127805E+01  0.58686127805E+01  0.00000000000E+00 0. -1.
         13   -1    0    0    0    0 -0.00000000000E+00 -0.00000000000E+00 -0.10000000000E+04  0.10000000000E+04  0.00000000000E+00 0.  1.
    9000005    2    1    2  501    0 -0.24264305467E+02 -0.29159948807E+02 -0.93396262452E+03  0.93473958116E+03  0.35834976394E+01 0.  0.
         13    1    3    3    0    0 -0.49444129171E+01 -0.78145758722E+01 -0.20427330889E+03  0.20448251646E+03  0.00000000000E+00 0.  1.
          1    1    3    3  501    0 -0.19319892550E+02 -0.21345372935E+02 -0.72968931563E+03  0.73025706470E+03  0.00000000000E+00 0.  1.
         -3    1    1    2    0  502  0.24264305467E+02  0.29159948807E+02 -0.60168762697E+02  0.71129031617E+02  0.00000000000E+00 0. -1.
<mgrwt>
<rscale>  1 0.30000000E+03</rscale>
<asrwt>0</asrwt>
<pdfrwt beam="1">  1       21 0.21340455E-01 0.30000000E+03</pdfrwt>
<pdfrwt beam="2">0</pdfrwt>
<totfact> 0.21190324E+03</totfact>
</mgrwt>
</event>
<event>
 6    1  0.1284012E-001  0.3000000E+03  0.7818608E-02  0.1093470E+00
         21   -1    0    0  501  502  0.00000000000E+00  0.00000000000E+00  0.10517985025E+01  0.10517985025E+01  0.00000000000E+00 0. -1.
         13   -1    0    0    0    0 -0.00000000000E+00 -0.00000000000E+00 -0.10000000000E+04  0.10000000000E+04  0.00000000000E+00 0.  1.
    9000005    2    1    2  501    0 -0.29563289782E+02 -0.12728048827E+02 -0.54333217171E+03  0.54430027094E+03  0.41164065041E+01 0.  0.
         13    1    3    3    0    0 -0.29254459428E+01  0.62712510727E-03 -0.47927527620E+02  0.48016727691E+02  0.00000000000E+00 0.  1.
          1    1    3    3  501    0 -0.26637843839E+02 -0.12728675952E+02 -0.49540464409E+03  0.49628354325E+03  0.00000000000E+00 0.  1.
         -1    1    1    2    0  502  0.29563289782E+02  0.12728048827E+02 -0.45561602979E+03  0.45675152756E+03  0.00000000000E+00 0. -1.
<mgrwt>
<rscale>  1 0.30000000E+03</rscale>
<asrwt>0</asrwt>
<pdfrwt beam="1">  1       21 0.38247299E-02 0.30000000E+03</pdfrwt>
<pdfrwt beam="2">0</pdfrwt>
<totfact> 0.45339175E+04</totfact>
</mgrwt>
</event>
<event>
 6    1  0.1284012E-001  0.3000000E+03  0.7818608E-02  0.1093470E+00
         21   -1    0    0  501  502  0.00000000000E+00  0.00000000000E+00  0.52936832433E+01  0.52936832433E+01  0.00000000000E+00 0. -1.
         13   -1    0    0    0    0 -0.00000000000E+00 -0.00000000000E+00 -0.10000000000E+04  0.10000000000E+04  0.00000000000E+00 0.  1.
    9000005    2    1    2  501    0  0.54813040841E+01 -0.42224536105E+02 -0.90483105357E+03  0.90584259438E+03  0.43144107492E+01 0.  0.
         13    1    3    3    0    0  0.41068627712E+01 -0.39677736150E+02 -0.84902557359E+03  0.84996212485E+03  0.00000000000E+00 0.  1.
          3    1    3    3  501    0  0.13744413128E+01 -0.25467999550E+01 -0.55805479981E+02  0.55880469529E+02  0.00000000000E+00 0.  1.
         -1    1    1    2    0  502 -0.54813040841E+01  0.42224536105E+02 -0.89875263188E+02  0.99451088867E+02  0.00000000000E+00 0. -1.
<mgrwt>
<rscale>  1 0.30000000E+03</rscale>
<asrwt>0</asrwt>
<pdfrwt beam="1">  1       21 0.19249798E-01 0.30000000E+03</pdfrwt>
<pdfrwt beam="2">0</pdfrwt>
<totfact> 0.25803543E+03</totfact>
</mgrwt>
</event>
<event>
 6    1  0.1284012E-001  0.3000000E+03  0.7818608E-02  0.1093470E+00
         21   -1    0    0  501  502  0.00000000000E+00  0.00000000000E+00  0.16747707028E+01  0.16747707028E+01  0.00000000000E+00 0. -1.
         13   -1    0    0    0    0 -0.00000000000E+00 -0.00000000000E+00 -0.10000000000E+04  0.10000000000E+04  0.00000000000E+00 0.  1.
    9000005    2    1    2  501    0 -0.85061808390E+01  0.29582495014E+02 -0.82891757944E+03  0.82949338102E+03  0.27269990943E+01 0.  0.
         13    1    3    3    0    0 -0.16239659896E+01  0.49362544202E+01 -0.16896253400E+03  0.16904242594E+03  0.00000000000E+00 0.  1.
          3    1    3    3  501    0 -0.68822148494E+01  0.24646240593E+02 -0.65995504544E+03  0.66045095508E+03  0.00000000000E+00 0.  1.
         -3    1    1    2    0  502  0.85061808390E+01 -0.29582495014E+02 -0.16940764986E+03  0.17218138968E+03  0.00000000000E+00 0. -1.
<mgrwt>
<rscale>  1 0.30000000E+03</rscale>
<asrwt>0</asrwt>
<pdfrwt beam="1">  1       21 0.60900881E-02 0.30000000E+03</pdfrwt>
<pdfrwt beam="2">0</pdfrwt>
<totfact> 0.20536813E+04</totfact>
</mgrwt>
</event>
<event>
 6    1  0.1284012E-001  0.3000000E+03  0.7818608E-02  0.1093470E+00
         21   -1    0    0  501  502  0.00000000000E+00  0.00000000000E+00  0.14631375735E+01  0.14631375735E+01  0.00000000000E+00 0. -1.
         13   -1    0    0    0    0 -0.00000000000E+00 -0.00000000000E+00 -0.10000000000E+04  0.10000000000E+04  0.00000000000E+00 0.  1.
    9000005    2    1    2  501    0  0.37189926864E+02 -0.79967204075E+00 -0.61268576516E+03  0.61382309913E+03  0.33496375676E+01 0.  0.
         13    1    3    3    0    0  0.10533370305E+02 -0.15534320739E+01 -0.16314938902E+03  0.16349644699E+03  0.00000000000E+00 0.  1.
          1    1    3    3  501    0  0.26656556559E+02  0.75376003314E+00 -0.44953637614E+03  0.45032665214E+03  0.00000000000E+00 0.  1.
         -3    1    1    2    0  502 -0.37189926864E+02  0.79967204075E+00 -0.38585109727E+03  0.38764003844E+03  0.00000000000E+00 0. -1.
<mgrwt>
<rscale>  1 0.30000000E+03</rscale>
<asrwt>0</asrwt>
<pdfrwt beam="1">  1       21 0.53205115E-02 0.30000000E+03</pdfrwt>
<pdfrwt beam="2">0</pdfrwt>
<totfact> 0.25905139E+04</totfact>
</mgrwt>
</event>
<event>
 6    1  0.1284012E-001  0.3000000E+03  0.7818608E-02  0.1093470E+00
         21   -1    0    0  501  502  0.00000000000E+00  0.00000000000E+00  0.44397802200E+01  0.44397802200E+01  0.00000000000E+00 0. -1.
         13   -1    0    0    0    0 -0.00000000000E+00 -0.00000000000E+00 -0.10000000000E+04  0.10000000000E+04  0.00000000000E+00 0.  1.
    9000005    2    1    2  501    0 -0.39194005324E+02  0.15204041925E+02 -0.88667521886E+03  0.88772098838E+03  0.93955584095E+01 0.  0.
         13    1    3    3    0    0 -0.36847059179E+02  0.16170437119E+02 -0.85392753052E+03  0.85487508806E+03  0.00000000000E+00 0.  1.
          3    1    3    3  501    0 -0.23469461450E+01 -0.96639519467E+00 -0.32747688341E+02  0.32845900315E+02  0.00000000000E+00 0.  1.
         -3    1    1    2    0  502  0.39194005324E+02 -0.15204041925E+02 -0.10888500092E+03  0.11671879184E+03  0.00000000000E+00 0. -1.
<mgrwt>
<rscale>  1 0.30000000E+03</rscale>
<asrwt>0</asrwt>
<pdfrwt beam="1">  1       21 0.16144689E-01 0.30000000E+03</pdfrwt>
<pdfrwt beam="2">0</pdfrwt>
<totfact> 0.35918653E+03</totfact>
</mgrwt>
</event>
<event>
 6    1  0.1284012E-001  0.3000000E+03  0.7818608E-02  0.1093470E+00
         21   -1    0    0  501  502  0.00000000000E+00  0.00000000000E+00  0.16693388656E+01  0.16693388656E+01  0.00000000000E+00 0. -1.
         13   -1    0    0    0    0 -0.00000000000E+00 -0.00000000000E+00 -0.10000000000E+04  0.10000000000E+04  0.00000000000E+00 0.  1.
    9000005    2    1    2  501    0 -0.39727544094E+02  0.85123702060E+01 -0.54469066908E+03  0.54621354453E+03  0.32516203349E+01 0.  0.
         13    1    3    3    0    0 -0.20309533978E+02  0.41220785227E+01 -0.29935158074E+03  0.30006805494E+03  0.00000000000E+00 0.  1.
          3    1    3    3  501    0 -0.19418010115E+02  0.43902916833E+01 -0.24533908834E+03  0.24614548959E+03  0.00000000000E+00 0.  1.
         -1    1    1    2    0  502  0.39727544094E+02 -0.85123702060E+01 -0.45363999205E+03  0.45545579434E+03  0.00000000000E+00 0. -1.
<mgrwt>
<rscale>  1 0.30000000E+03</rscale>
<asrwt>0</asrwt>
<pdfrwt beam="1">  1       21 0.60703359E-02 0.30000000E+03</pdfrwt>
<pdfrwt beam="2">0</pdfrwt>
<totfact> 0.20652260E+04</totfact>
</mgrwt>
</event>
<event>
 6    1  0.1284012E-001  0.3000000E+03  0.7818608E-02  0.1093470E+00
         21   -1    0    0  501  502  0.00000000000E+00  0.00000000000E+00  0.10112135199E+01  0.10112135199E+01  0.00000000000E+00 0. -1.
         13   -1    0    0    0    0 -0.00000000000E+00 -0.00000000000E+00 -0.10000000000E+04  0.10000000000E+04  0.00000000000E+00 0.  1.
    9000005    2    1    2  501    0  0.93861590933E+01 -0.29773755642E+02 -0.58072388639E+03  0.58158290838E+03  0.48857532549E+01 0.  0.
         13    1    3    3    0    0  0.17756113695E+01 -0.23757486336E+01 -0.38595235258E+02  0.38709032046E+02  0.00000000000E+00 0.  1.
          3    1    3    3  501    0  0.76105477238E+01 -0.27398007009E+02 -0.54212865114E+03  0.54287387634E+03  0.00000000000E+00 0.  1.
         -3    1    1    2    0  502 -0.93861590933E+01  0.29773755642E+02 -0.41826490009E+03  0.41942830514E+03  0.00000000000E+00 0. -1.
<mgrwt>
<rscale>  1 0.30000000E+03</rscale>
<asrwt>0</asrwt>
<pdfrwt beam="1">  1       21 0.36771478E-02 0.30000000E+03</pdfrwt>
<pdfrwt beam="2">0</pdfrwt>
<totfact> 0.48436454E+04</totfact>
</mgrwt>
</event>
<event>
 6    1  0.1284012E-001  0.3000000E+03  0.7818608E-02  0.1093470E+00
         21   -1    0    0  501  502  0.00000000000E+00  0.00000000000E+00  0.16028849483E+01  0.16028849483E+01  0.00000000000E+00 0. -1.
         13   -1    0    0    0    0 -0.00000000000E+00 -0.00000000000E+00 -0.10000000000E+04  0.10000000000E+04  0.00000000000E+00 0.  1.
    9000005    2    1    2  501    0  0.33779389377E+02  0.90373218807E+01 -0.74231935377E+03  0.74314874945E+03  0.30529482329E+01 0.  0.
         13    1    3    3    0    0  0.17967282536E+02  0.44148351705E+01 -0.42377787955E+03  0.42418157104E+03  0.00000000000E+00 0.  1.
          1    1    3    3  501    0  0.15812106841E+02  0.46224867102E+01 -0.31854147422E+03  0.31896717841E+03  0.00000000000E+00 0.  1.
         -3    1    1    2    0  502 -0.33779389377E+02 -0.90373218807E+01 -0.25607776128E+03  0.25845413550E+03  0.00000000000E+00 0. -1.
<mgrwt>
<rscale>  1 0.30000000E+03</rscale>
<asrwt>0</asrwt>
<pdfrwt beam="1">  1       21 0.58286848E-02 0.30000000E+03</pdfrwt>
<pdfrwt beam="2">0</pdfrwt>
<totfact> 0.22150535E+04</totfact>
</mgrwt>
</event>
<event>
 6    1  0.1284012E-001  0.3000000E+03  0.7818608E-02  0.1093470E+00
         21   -1    0    0  501  502  0.00000000000E+00  0.00000000000E+00  0.26141483845E+01  0.26141483845E+01  0.00000000000E+00 0. -1.
         13   -1    0    0    0    0 -0.00000000000E+00 -0.00000000000E+00 -0.10000000000E+04  0.10000000000E+04  0.00000000000E+00 0.  1.
    9000005    2    1    2  501    0  0.13852880528E+02 -0.42927923111E+02 -0.72907724993E+03  0.73054023449E+03  0.10034389209E+02 0.  0.
         13    1    3    3    0    0  0.44392617923E+01 -0.27733495699E+02 -0.40768710206E+03  0.40865343142E+03  0.00000000000E+00 0.  1.
          1    1    3    3  501    0  0.94136187357E+01 -0.15194427412E+02 -0.32139014787E+03  0.32188680307E+03  0.00000000000E+00 0.  1.
         -1    1    1    2    0  502 -0.13852880528E+02  0.42927923111E+02 -0.26830860169E+03  0.27207391389E+03  0.00000000000E+00 0. -1.
<mgrwt>
<rscale>  1 0.30000000E+03</rscale>
<asrwt>0</asrwt>
<pdfrwt beam="1">  1       21 0.95060142E-02 0.30000000E+03</pdfrwt>
<pdfrwt beam="2">0</pdfrwt>
<totfact> 0.94171010E+03</totfact>
</mgrwt>
</event>
<event>
 6    1  0.1284012E-001  0.3000000E+03  0.7818608E-02  0.1093470E+00
         21   -1    0    0  501  502  0.00000000000E+00  0.00000000000E+00  0.36485864750E+01  0.36485864750E+01  0.00000000000E+00 0. -1.
         13   -1    0    0    0    0 -0.00000000000E+00 -0.00000000000E+00 -0.10000000000E+04  0.10000000000E+04  0.00000000000E+00 0.  1.
    9000005    2    1    2  501    0  0.44630087238E+02 -0.35865065282E+02 -0.65723468914E+03  0.65973246247E+03  0.33671695033E+01 0.  0.
         13    1    3    3    0    0  0.35325877923E+02 -0.29890470988E+02 -0.52312630352E+03  0.52516900836E+03  0.00000000000E+00 0.  1.
          3    1    3    3  501    0  0.93042093144E+01 -0.59745942941E+01 -0.13410838562E+03  0.13456345410E+03  0.00000000000E+00 0.  1.
         -1    1    1    2    0  502 -0.44630087238E+02  0.35865065282E+02 -0.33911672439E+03  0.34391612401E+03  0.00000000000E+00 0. -1.
<mgrwt>
<rscale>  1 0.30000000E+03</rscale>
<asrwt>0</asrwt>
<pdfrwt beam="1">  1       21 0.13267615E-01 0.30000000E+03</pdfrwt>
<pdfrwt beam="2">0</pdfrwt>
<totfact> 0.51607221E+03</totfact>
</mgrwt>
</event>
<event>
 6    1  0.1284012E-001  0.3000000E+03  0.7818608E-02  0.1093470E+00
         21   -1    0    0  501  502  0.00000000000E+00  0.00000000000E+00  0.17443764176E+01  0.17443764176E+01  0.00000000000E+00 0. -1.
         13   -1    0    0    0    0 -0.00000000000E+00 -0.00000000000E+00 -0.10000000000E+04  0.10000000000E+04  0.00000000000E+00 0.  1.
    9000005    2    1    2  501    0 -0.29717438380E+02  0.95488482098E+01 -0.83154217923E+03  0.83213400181E+03  0.32085022877E+01 0.  0.
         13    1    3    3    0    0 -0.43846183152E+01  0.15363230127E+01 -0.15704533456E+03  0.15711404225E+03  0.00000000000E+00 0.  1.
          3    1    3    3  501    0 -0.25332820065E+02  0.80125251971E+01 -0.67449684467E+03  0.67501995956E+03  0.00000000000E+00 0.  1.
         -3    1    1    2    0  502  0.29717438380E+02 -0.95488482098E+01 -0.16671344436E+03  0.16961037461E+03  0.00000000000E+00 0. -1.
<mgrwt>
<rscale>  1 0.30000000E+03</rscale>
<asrwt>0</asrwt>
<pdfrwt beam="1">  1       21 0.63432003E-02 0.30000000E+03</pdfrwt>
<pdfrwt beam="2">0</pdfrwt>
<totfact> 0.19141931E+04</totfact>
</mgrwt>
</event>
<event>
 6    1  0.1284012E-001  0.3000000E+03  0.7818608E-02  0.1093470E+00
         21   -1    0    0  501  502  0.00000000000E+00  0.00000000000E+00  0.44768578082E+01  0.44768578082E+01  0.00000000000E+00 0. -1.
         13   -1    0    0    0    0 -0.00000000000E+00 -0.00000000000E+00 -0.10000000000E+04  0.10000000000E+04  0.00000000000E+00 0.  1.
    9000005    2    1    2  501    0 -0.62410913529E+02 -0.20642622654E+02 -0.59050685215E+03  0.59416059540E+03  0.26889946330E+01 0.  0.
         13    1    3    3    0    0 -0.10244167779E+02 -0.37179524506E+01 -0.10676798645E+03  0.10732273326E+03  0.00000000000E+00 0.  1.
          3    1    3    3  501    0 -0.52166745750E+02 -0.16924670204E+02 -0.48373886570E+03  0.48683786214E+03  0.00000000000E+00 0.  1.
         -1    1    1    2    0  502  0.62410913529E+02  0.20642622654E+02 -0.40501629004E+03  0.41031626241E+03  0.00000000000E+00 0. -1.
<mgrwt>
<rscale>  1 0.30000000E+03</rscale>
<asrwt>0</asrwt>
<pdfrwt beam="1">  1       21 0.16279517E-01 0.30000000E+03</pdfrwt>
<pdfrwt beam="2">0</pdfrwt>
<totfact> 0.35365630E+03</totfact>
</mgrwt>
</event>
<event>
 6    1  0.1284012E-001  0.3000000E+03  0.7818608E-02  0.1093470E+00
         21   -1    0    0  501  502  0.00000000000E+00  0.00000000000E+00  0.43181855257E+01  0.43181855257E+01  0.00000000000E+00 0. -1.
         13   -1    0    0    0    0 -0.00000000000E+00 -0.00000000000E+00 -0.10000000000E+04  0.10000000000E+04  0.00000000000E+00 0.  1.
    9000005    2    1    2  501    0 -0.21763485097E+02 -0.60231641827E+02 -0.38703215792E+03  0.39230845980E+03  0.32459828377E+01 0.  0.
         13    1    3    3    0    0 -0.14814428353E+02 -0.44941296552E+02 -0.28862728148E+03  0.29248058917E+03  0.00000000000E+00 0.  1.
          3    1    3    3  501    0 -0.69490567434E+01 -0.15290345275E+02 -0.98404876439E+02  0.99827870633E+02  0.00000000000E+00 0.  1.
         -1    1    1    2    0  502  0.21763485097E+02  0.60231641827E+02 -0.60864965655E+03  0.61200972573E+03  0.00000000000E+00 0. -1.
<mgrwt>
<rscale>  1 0.30000000E+03</rscale>
<asrwt>0</asrwt>
<pdfrwt beam="1">  1       21 0.15702526E-01 0.30000000E+03</pdfrwt>
<pdfrwt beam="2">0</pdfrwt>
<totfact> 0.37826094E+03</totfact>
</mgrwt>
</event>
<event>
 6    1  0.1284012E-001  0.3000000E+03  0.7818608E-02  0.1093470E+00
         21   -1    0    0  501  502  0.00000000000E+00  0.00000000000E+00  0.13753991889E+01  0.13753991889E+01  0.00000000000E+00 0. -1.
         13   -1    0    0    0    0 -0.00000000000E+00 -0.00000000000E+00 -0.10000000000E+04  0.10000000000E+04  0.00000000000E+00 0.  1.
    9000005    2    1    2  501    0 -0.32991374103E+02  0.11286997052E+01 -0.72570692737E+03  0.72646857642E+03  0.40426928293E+01 0.  0.
         13    1    3    3    0    0 -0.53444018958E+00  0.33556376067E+00 -0.68969996765E+01  0.69258092589E+01  0.00000000000E+00 0.  1.
          1    1    3    3  501    0 -0.32456933913E+02  0.79313594451E+00 -0.71880992769E+03  0.71954276716E+03  0.00000000000E+00 0.  1.
         -3    1    1    2    0  502  0.32991374103E+02 -0.11286997052E+01 -0.27291767345E+03  0.27490682277E+03  0.00000000000E+00 0. -1.
<mgrwt>
<rscale>  1 0.30000000E+03</rscale>
<asrwt>0</asrwt>
<pdfrwt beam="1">  1       21 0.50014621E-02 0.30000000E+03</pdfrwt>
<pdfrwt beam="2">0</pdfrwt>
<totfact> 0.28790301E+04</totfact>
</mgrwt>
</event>
<event>
 6    1  0.1284012E-001  0.3000000E+03  0.7818608E-02  0.1093470E+00
         21   -1    0    0  501  502  0.00000000000E+00  0.00000000000E+00  0.16163281737E+01  0.16163281737E+01  0.00000000000E+00 0. -1.
         13   -1    0    0    0    0 -0.00000000000E+00 -0.00000000000E+00 -0.10000000000E+04  0.10000000000E+04  0.00000000000E+00 0.  1.
    9000005    2    1    2  501    0  0.24126705895E+02 -0.24912034180E+02 -0.75178334915E+03  0.75258936874E+03  0.31379110509E+01 0.  0.
         13    1    3    3    0    0  0.86667222233E+01 -0.10932331844E+02 -0.31621350265E+03  0.31652110074E+03  0.00000000000E+00 0.  1.
          3    1    3    3  501    0  0.15459983672E+02 -0.13979702336E+02 -0.43556984650E+03  0.43606826800E+03  0.00000000000E+00 0.  1.
         -1    1    1    2    0  502 -0.24126705895E+02  0.24912034180E+02 -0.24660032267E+03  0.24902695944E+03  0.00000000000E+00 0. -1.
<mgrwt>
<rscale>  1 0.30000000E+03</rscale>
<asrwt>0</asrwt>
<pdfrwt beam="1">  1       21 0.58775694E-02 0.30000000E+03</pdfrwt>
<pdfrwt beam="2">0</pdfrwt>
<totfact> 0.21834052E+04</totfact>
</mgrwt>
</event>
<event>
 6    1  0.1284012E-001  0.3000000E+03  0.7818608E-02  0.1093470E+00
         21   -1    0    0  501  502  0.00000000000E+00  0.00000000000E+00  0.36050728267E+01  0.36050728267E+01  0.00000000000E+00 0. -1.
         13   -1    0    0    0    0 -0.00000000000E+00 -0.00000000000E+00 -0.10000000000E+04  0.10000000000E+04  0.00000000000E+00 0.  1.
    9000005    2    1    2  501    0  0.23312584305E+02 -0.22017073281E+02 -0.92237998572E+03  0.92294256814E+03  0.31492759675E+01 0.  0.
         13    1    3    3    0    0  0.17048197295E+02 -0.17242251433E+02 -0.66411850317E+03  0.66456099985E+03  0.00000000000E+00 0.  1.
          1    1    3    3  501    0  0.62643870103E+01 -0.47748218482E+01 -0.25826148255E+03  0.25838156830E+03  0.00000000000E+00 0.  1.
         -3    1    1    2    0  502 -0.23312584305E+02  0.22017073281E+02 -0.74014941458E+02  0.80662504684E+02  0.00000000000E+00 0. -1.
<mgrwt>
<rscale>  1 0.30000000E+03</rscale>
<asrwt>0</asrwt>
<pdfrwt beam="1">  1       21 0.13109383E-01 0.30000000E+03</pdfrwt>
<pdfrwt beam="2">0</pdfrwt>
<totfact> 0.52751630E+03</totfact>
</mgrwt>
</event>
<event>
 6    1  0.1284012E-001  0.3000000E+03  0.7818608E-02  0.1093470E+00
         21   -1    0    0  501  502  0.00000000000E+00  0.00000000000E+00  0.24135415902E+01  0.24135415902E+01  0.00000000000E+00 0. -1.
         13   -1    0    0    0    0 -0.00000000000E+00 -0.00000000000E+00 -0.10000000000E+04  0.10000000000E+04  0.00000000000E+00 0.  1.
    9000005    2    1    2  501    0  0.75971535343E+01  0.48367197271E+02 -0.46629286762E+03  0.46886880857E+03  0.34378405733E+01 0.  0.
         13    1    3    3    0    0  0.41711395177E+01  0.16590605914E+02 -0.16776760374E+03  0.16863752689E+03  0.00000000000E+00 0.  1.
          1    1    3    3  501    0  0.34260140166E+01  0.31776591356E+02 -0.29852526388E+03  0.30023128169E+03  0.00000000000E+00 0.  1.
         -3    1    1    2    0  502 -0.75971535343E+01 -0.48367197271E+02 -0.53129359079E+03  0.53354473302E+03  0.00000000000E+00 0. -1.
<mgrwt>
<rscale>  1 0.30000000E+03</rscale>
<asrwt>0</asrwt>
<pdfrwt beam="1">  1       21 0.87765334E-02 0.30000000E+03</pdfrwt>
<pdfrwt beam="2">0</pdfrwt>
<totfact> 0.10850295E+04</totfact>
</mgrwt>
</event>
<event>
 6    1  0.1284012E-001  0.3000000E+03  0.7818608E-02  0.1093470E+00
         21   -1    0    0  501  502  0.00000000000E+00  0.00000000000E+00  0.19832540573E+01  0.19832540573E+01  0.00000000000E+00 0. -1.
         13   -1    0    0    0    0 -0.00000000000E+00 -0.00000000000E+00 -0.10000000000E+04  0.10000000000E+04  0.00000000000E+00 0.  1.
    9000005    2    1    2  501    0  0.42209592154E+02 -0.76813916708E+01 -0.63132429502E+03  0.63278952847E+03  0.34012371028E+01 0.  0.
         13    1    3    3    0    0  0.27192868004E+02 -0.47735038710E+01 -0.42951861543E+03  0.43040501787E+03  0.00000000000E+00 0.  1.
          1    1    3    3  501    0  0.15016724150E+02 -0.29078877998E+01 -0.20180567959E+03  0.20238451060E+03  0.00000000000E+00 0.  1.
         -3    1    1    2    0  502 -0.42209592154E+02  0.76813916708E+01 -0.36669245092E+03  0.36919372559E+03  0.00000000000E+00 0. -1.
<mgrwt>
<rscale>  1 0.30000000E+03</rscale>
<asrwt>0</asrwt>
<pdfrwt beam="1">  1       21 0.72118481E-02 0.30000000E+03</pdfrwt>
<pdfrwt beam="2">0</pdfrwt>
<totfact> 0.15318408E+04</totfact>
</mgrwt>
</event>
<event>
 6    1  0.1284012E-001  0.3000000E+03  0.7818608E-02  0.1093470E+00
         21   -1    0    0  501  502  0.00000000000E+00  0.00000000000E+00  0.54199104884E+01  0.54199104884E+01  0.00000000000E+00 0. -1.
         13   -1    0    0    0    0 -0.00000000000E+00 -0.00000000000E+00 -0.10000000000E+04  0.10000000000E+04  0.00000000000E+00 0.  1.
    9000005    2    1    2  501    0  0.42421851300E+01 -0.73478002857E+02 -0.49892008414E+03  0.50432525479E+03  0.23873056392E+01 0.  0.
         13    1    3    3    0    0  0.27185344171E+00 -0.82693247585E+00 -0.68186157873E+01  0.68739539472E+01  0.00000000000E+00 0.  1.
          3    1    3    3  501    0  0.39703316883E+01 -0.72651070381E+02 -0.49210146835E+03  0.49745130085E+03  0.00000000000E+00 0.  1.
         -3    1    1    2    0  502 -0.42421851300E+01  0.73478002857E+02 -0.49566000537E+03  0.50109465569E+03  0.00000000000E+00 0. -1.
<mgrwt>
<rscale>  1 0.30000000E+03</rscale>
<asrwt>0</asrwt>
<pdfrwt beam="1">  1       21 0.19708807E-01 0.30000000E+03</pdfrwt>
<pdfrwt beam="2">0</pdfrwt>
<totfact> 0.24672712E+03</totfact>
</mgrwt>
</event>
<event>
 6    1  0.1284012E-001  0.3000000E+03  0.7818608E-02  0.1093470E+00
         21   -1    0    0  501  502  0.00000000000E+00  0.00000000000E+00  0.55697072956E+01  0.55697072956E+01  0.00000000000E+00 0. -1.
         13   -1    0    0    0    0 -0.00000000000E+00 -0.00000000000E+00 -0.10000000000E+04  0.10000000000E+04  0.00000000000E+00 0.  1.
    9000005    2    1    2  501    0 -0.59675228224E+02  0.36620158920E+02 -0.67040102964E+03  0.67406234354E+03  0.45092717553E+01 0.  0.
         13    1    3    3    0    0 -0.55958358525E+02  0.33868411155E+02 -0.63518261233E+03  0.63854158688E+03  0.00000000000E+00 0.  1.
          1    1    3    3  501    0 -0.37168696990E+01  0.27517477642E+01 -0.35218417304E+02  0.35520756658E+02  0.00000000000E+00 0.  1.
         -1    1    1    2    0  502  0.59675228224E+02 -0.36620158920E+02 -0.32402926307E+03  0.33150736376E+03  0.00000000000E+00 0. -1.
<mgrwt>
<rscale>  1 0.30000000E+03</rscale>
<asrwt>0</asrwt>
<pdfrwt beam="1">  1       21 0.20253524E-01 0.30000000E+03</pdfrwt>
<pdfrwt beam="2">0</pdfrwt>
<totfact> 0.23421811E+03</totfact>
</mgrwt>
</event>
<event>
 6    1  0.1284012E-001  0.3000000E+03  0.7818608E-02  0.1093470E+00
         21   -1    0    0  501  502  0.00000000000E+00  0.00000000000E+00  0.15679365377E+01  0.15679365377E+01  0.00000000000E+00 0. -1.
         13   -1    0    0    0    0 -0.00000000000E+00 -0.00000000000E+00 -0.10000000000E+04  0.10000000000E+04  0.00000000000E+00 0.  1.
    9000005    2    1    2  501    0  0.38000261626E+02 -0.10366701220E+02 -0.54038093349E+03  0.54182635038E+03  0.35710368472E+01 0.  0.
         13    1    3    3    0    0  0.27839823702E+02 -0.85057165093E+01 -0.38029529402E+03  0.38140780491E+03  0.00000000000E+00 0.  1.
          1    1    3    3  501    0  0.10160437924E+02 -0.18609847111E+01 -0.16008563947E+03  0.16041854546E+03  0.00000000000E+00 0.  1.
         -1    1    1    2    0  502 -0.38000261626E+02  0.10366701220E+02 -0.45805112997E+03  0.45974158616E+03  0.00000000000E+00 0. -1.
<mgrwt>
<rscale>  1 0.30000000E+03</rscale>
<asrwt>0</asrwt>
<pdfrwt beam="1">  1       21 0.57015994E-02 0.30000000E+03</pdfrwt>
<pdfrwt beam="2">0</pdfrwt>
<totfact> 0.23007158E+04</totfact>
</mgrwt>
</event>
<event>
 6    1  0.1284012E-001  0.3000000E+03  0.7818608E-02  0.1093470E+00
         21   -1    0    0  501  502  0.00000000000E+00  0.00000000000E+00  0.21164188558E+02  0.21164188558E+02  0.00000000000E+00 0. -1.
         13   -1    0    0    0    0 -0.00000000000E+00 -0.00000000000E+00 -0.10000000000E+04  0.10000000000E+04  0.00000000000E+00 0.  1.
    9000005    2    1    2  501    0 -0.34493608541E+02  0.67490938712E+02 -0.92519992671E+03  0.92831138047E+03  0.47200521944E+01 0.  0.
         13    1    3    3    0    0 -0.23055364935E+02  0.40053408788E+02 -0.56186705946E+03  0.56376450572E+03  0.00000000000E+00 0.  1.
          1    1    3    3  501    0 -0.11438243605E+02  0.27437529923E+02 -0.36333286725E+03  0.36454687475E+03  0.00000000000E+00 0.  1.
         -1    1    1    2    0  502  0.34493608541E+02 -0.67490938712E+02 -0.53635884731E+02  0.92852808085E+02  0.00000000000E+00 0. -1.
<mgrwt>
<rscale>  1 0.30000000E+03</rscale>
<asrwt>0</asrwt>
<pdfrwt beam="1">  1       21 0.76960848E-01 0.30000000E+03</pdfrwt>
<pdfrwt beam="2">0</pdfrwt>
<totfact> 0.14117166E+02</totfact>
</mgrwt>
</event>
<event>
 6    1  0.1284012E-001  0.3000000E+03  0.7818608E-02  0.1093470E+00
         21   -1    0    0  501  502  0.00000000000E+00  0.00000000000E+00  0.36459497464E+01  0.36459497464E+01  0.00000000000E+00 0. -1.
         13   -1    0    0    0    0 -0.00000000000E+00 -0.00000000000E+00 -0.10000000000E+04  0.10000000000E+04  0.00000000000E+00 0.  1.
    9000005    2    1    2  501    0  0.21958781050E+01 -0.48909412844E+02 -0.79159252438E+03  0.79311273378E+03  0.34830002072E+01 0.  0.
         13    1    3    3    0    0  0.14095535666E+01 -0.45088120585E+02 -0.71604436620E+03  0.71746390838E+03  0.00000000000E+00 0.  1.
          3    1    3    3  501    0  0.78632453847E+00 -0.38212922595E+01 -0.75548158179E+02  0.75648825405E+02  0.00000000000E+00 0.  1.
         -1    1    1    2    0  502 -0.21958781050E+01  0.48909412844E+02 -0.20476152588E+03  0.21053321596E+03  0.00000000000E+00 0. -1.
<mgrwt>
<rscale>  1 0.30000000E+03</rscale>
<asrwt>0</asrwt>
<pdfrwt beam="1">  1       21 0.13258027E-01 0.30000000E+03</pdfrwt>
<pdfrwt beam="2">0</pdfrwt>
<totfact> 0.51675499E+03</totfact>
</mgrwt>
</event>
<event>
 6    1  0.1284012E-001  0.3000000E+03  0.7818608E-02  0.1093470E+00
         21   -1    0    0  501  502  0.00000000000E+00  0.00000000000E+00  0.12925060697E+01  0.12925060697E+01  0.00000000000E+00 0. -1.
         13   -1    0    0    0    0 -0.00000000000E+00 -0.00000000000E+00 -0.10000000000E+04  0.10000000000E+04  0.00000000000E+00 0.  1.
    9000005    2    1    2  501    0 -0.34752769849E+02  0.88966725106E+01 -0.51537300380E+03  0.51662856565E+03  0.29725419330E+01 0.  0.
         13    1    3    3    0    0 -0.24593766270E+02  0.76710223125E+01 -0.36679382557E+03  0.36769744138E+03  0.00000000000E+00 0.  1.
          3    1    3    3  501    0 -0.10159003578E+02  0.12256501982E+01 -0.14857917823E+03  0.14893112427E+03  0.00000000000E+00 0.  1.
         -3    1    1    2    0  502  0.34752769849E+02 -0.88966725106E+01 -0.48333449013E+03  0.48466394042E+03  0.00000000000E+00 0. -1.
<mgrwt>
<rscale>  1 0.30000000E+03</rscale>
<asrwt>0</asrwt>
<pdfrwt beam="1">  1       21 0.47000320E-02 0.30000000E+03</pdfrwt>
<pdfrwt beam="2">0</pdfrwt>
<totfact> 0.32003963E+04</totfact>
</mgrwt>
</event>
<event>
 6    1  0.1284012E-001  0.3000000E+03  0.7818608E-02  0.1093470E+00
         21   -1    0    0  501  502  0.00000000000E+00  0.00000000000E+00  0.27752676802E+01  0.27752676802E+01  0.00000000000E+00 0. -1.
         13   -1    0    0    0    0 -0.00000000000E+00 -0.00000000000E+00 -0.10000000000E+04  0.10000000000E+04  0.00000000000E+00 0.  1.
    9000005    2    1    2  501    0  0.37951387537E+02 -0.17716963566E+02 -0.80241847903E+03  0.80351745745E+03  0.32696079390E+01 0.  0.
         13    1    3    3    0    0  0.72604375579E+01 -0.42471874481E+01 -0.18208872159E+03  0.18228289850E+03  0.00000000000E+00 0.  1.
          1    1    3    3  501    0  0.30690949979E+02 -0.13469776118E+02 -0.62032975744E+03  0.62123455896E+03  0.00000000000E+00 0.  1.
         -1    1    1    2    0  502 -0.37951387537E+02  0.17716963566E+02 -0.19480625329E+03  0.19925781023E+03  0.00000000000E+00 0. -1.
<mgrwt>
<rscale>  1 0.30000000E+03</rscale>
<asrwt>0</asrwt>
<pdfrwt beam="1">  1       21 0.10091904E-01 0.30000000E+03</pdfrwt>
<pdfrwt beam="2">0</pdfrwt>
<totfact> 0.84636689E+03</totfact>
</mgrwt>
</event>
<event>
 6    1  0.1284012E-001  0.3000000E+03  0.7818608E-02  0.1093470E+00
         21   -1    0    0  501  502  0.00000000000E+00  0.00000000000E+00  0.10504979658E+01  0.10504979658E+01  0.00000000000E+00 0. -1.
         13   -1    0    0    0    0 -0.00000000000E+00 -0.00000000000E+00 -0.10000000000E+04  0.10000000000E+04  0.00000000000E+00 0.  1.
    9000005    2    1    2  501    0 -0.31706061173E+02  0.38219920361E+01 -0.58029450922E+03  0.58117922609E+03  0.27737104562E+01 0.  0.
         13    1    3    3    0    0 -0.25057669030E+02  0.33419399358E+01 -0.43841274730E+03  0.43914097091E+03  0.00000000000E+00 0.  1.
          1    1    3    3  501    0 -0.66483921426E+01  0.48005210032E+00 -0.14188176192E+03  0.14203825518E+03  0.00000000000E+00 0.  1.
         -3    1    1    2    0  502  0.31706061173E+02 -0.38219920361E+01 -0.41865499282E+03  0.41987127188E+03  0.00000000000E+00 0. -1.
<mgrwt>
<rscale>  1 0.30000000E+03</rscale>
<asrwt>0</asrwt>
<pdfrwt beam="1">  1       21 0.38200007E-02 0.30000000E+03</pdfrwt>
<pdfrwt beam="2">0</pdfrwt>
<totfact> 0.45433545E+04</totfact>
</mgrwt>
</event>
<event>
 6    1  0.1284012E-001  0.3000000E+03  0.7818608E-02  0.1093470E+00
         21   -1    0    0  501  502  0.00000000000E+00  0.00000000000E+00  0.60077705116E+01  0.60077705116E+01  0.00000000000E+00 0. -1.
         13   -1    0    0    0    0 -0.00000000000E+00 -0.00000000000E+00 -0.10000000000E+04  0.10000000000E+04  0.00000000000E+00 0.  1.
    9000005    2    1    2  501    0  0.23699745991E+02 -0.31979295512E+02 -0.92853862577E+03  0.92940145523E+03  0.43280635583E+01 0.  0.
         13    1    3    3    0    0  0.33002863943E+01 -0.24660762359E+01 -0.83519762548E+02  0.83621314019E+02  0.00000000000E+00 0.  1.
          3    1    3    3  501    0  0.20399459596E+02 -0.29513219276E+02 -0.84501886322E+03  0.84578014121E+03  0.00000000000E+00 0.  1.
         -1    1    1    2    0  502 -0.23699745991E+02  0.31979295512E+02 -0.65453603722E+02  0.76606315286E+02  0.00000000000E+00 0. -1.
<mgrwt>
<rscale>  1 0.30000000E+03</rscale>
<asrwt>0</asrwt>
<pdfrwt beam="1">  1       21 0.21846484E-01 0.30000000E+03</pdfrwt>
<pdfrwt beam="2">0</pdfrwt>
<totfact> 0.20257117E+03</totfact>
</mgrwt>
</event>
<event>
 6    1  0.1284012E-001  0.3000000E+03  0.7818608E-02  0.1093470E+00
         21   -1    0    0  501  502  0.00000000000E+00  0.00000000000E+00  0.18919967295E+01  0.18919967295E+01  0.00000000000E+00 0. -1.
         13   -1    0    0    0    0 -0.00000000000E+00 -0.00000000000E+00 -0.10000000000E+04  0.10000000000E+04  0.00000000000E+00 0.  1.
    9000005    2    1    2  501    0 -0.91390429433E+01 -0.41081848059E+02 -0.37556092909E+03  0.37792396877E+03  0.30453843091E+01 0.  0.
         13    1    3    3    0    0 -0.32485540993E+01 -0.21560262893E+02 -0.19242837035E+03  0.19365969058E+03  0.00000000000E+00 0.  1.
          1    1    3    3  501    0 -0.58904888440E+01 -0.19521585166E+02 -0.18313255875E+03  0.18426427820E+03  0.00000000000E+00 0.  1.
         -3    1    1    2    0  502  0.91390429433E+01  0.41081848059E+02 -0.62254707418E+03  0.62396802796E+03  0.00000000000E+00 0. -1.
<mgrwt>
<rscale>  1 0.30000000E+03</rscale>
<asrwt>0</asrwt>
<pdfrwt beam="1">  1       21 0.68800026E-02 0.30000000E+03</pdfrwt>
<pdfrwt beam="2">0</pdfrwt>
<totfact> 0.16627872E+04</totfact>
</mgrwt>
</event>
<event>
 6    1  0.1284012E-001  0.3000000E+03  0.7818608E-02  0.1093470E+00
         21   -1    0    0  501  502  0.00000000000E+00  0.00000000000E+00  0.10057800862E+02  0.10057800862E+02  0.00000000000E+00 0. -1.
         13   -1    0    0    0    0 -0.00000000000E+00 -0.00000000000E+00 -0.10000000000E+04  0.10000000000E+04  0.00000000000E+00 0.  1.
    9000005    2    1    2  501    0  0.23837319421E+02 -0.29408095437E+02 -0.96262597651E+03  0.96337557841E+03  0.32681105302E+01 0.  0.
         13    1    3    3    0    0  0.67006558112E+01 -0.97639297387E+01 -0.27145098781E+03  0.27170916785E+03  0.00000000000E+00 0.  1.
          1    1    3    3  501    0  0.17136663610E+02 -0.19644165698E+02 -0.69117498871E+03  0.69166641056E+03  0.00000000000E+00 0.  1.
         -1    1    1    2    0  502 -0.23837319421E+02  0.29408095437E+02 -0.27316222625E+02  0.46682222451E+02  0.00000000000E+00 0. -1.
<mgrwt>
<rscale>  1 0.30000000E+03</rscale>
<asrwt>0</asrwt>
<pdfrwt beam="1">  1       21 0.36573898E-01 0.30000000E+03</pdfrwt>
<pdfrwt beam="2">0</pdfrwt>
<totfact> 0.72713737E+02</totfact>
</mgrwt>
</event>
<event>
 6    1  0.1284012E-001  0.3000000E+03  0.7818608E-02  0.1093470E+00
         21   -1    0    0  501  502  0.00000000000E+00  0.00000000000E+00  0.19259750631E+01  0.19259750631E+01  0.00000000000E+00 0. -1.
         13   -1    0    0    0    0 -0.00000000000E+00 -0.00000000000E+00 -0.10000000000E+04  0.10000000000E+04  0.00000000000E+00 0.  1.
    9000005    2    1    2  501    0 -0.40853578185E+02 -0.10347561542E+02 -0.63859407597E+03  0.63998410046E+03  0.10807867803E+01 0.  0.
         13    1    3    3    0    0 -0.11015607098E+02 -0.31270161451E+01 -0.16818226344E+03  0.16857163333E+03  0.00000000000E+00 0.  1.
          1    1    3    3  501    0 -0.29837971087E+02 -0.72205453971E+01 -0.47041181253E+03  0.47141246713E+03  0.00000000000E+00 0.  1.
         -3    1    1    2    0  502  0.40853578185E+02  0.10347561542E+02 -0.35947994897E+03  0.36194187460E+03  0.00000000000E+00 0. -1.
<mgrwt>
<rscale>  1 0.30000000E+03</rscale>
<asrwt>0</asrwt>
<pdfrwt beam="1">  1       21 0.70035605E-02 0.30000000E+03</pdfrwt>
<pdfrwt beam="2">0</pdfrwt>
<totfact> 0.16121014E+04</totfact>
</mgrwt>
</event>
<event>
 6    1  0.1284012E-001  0.3000000E+03  0.7818608E-02  0.1093470E+00
         21   -1    0    0  501  502  0.00000000000E+00  0.00000000000E+00  0.52839192563E+01  0.52839192563E+01  0.00000000000E+00 0. -1.
         13   -1    0    0    0    0 -0.00000000000E+00 -0.00000000000E+00 -0.10000000000E+04  0.10000000000E+04  0.00000000000E+00 0.  1.
    9000005    2    1    2  501    0  0.28038571627E+02  0.19638890738E+02 -0.94072629298E+03  0.94135626709E+03  0.37169564619E+01 0.  0.
         13    1    3    3    0    0  0.22403674689E+02  0.14022323433E+02 -0.70154710080E+03  0.70204478834E+03  0.00000000000E+00 0.  1.
          3    1    3    3  501    0  0.56348969370E+01  0.56165673048E+01 -0.23917919217E+03  0.23931147875E+03  0.00000000000E+00 0.  1.
         -3    1    1    2    0  502 -0.28038571627E+02 -0.19638890738E+02 -0.53989787768E+02  0.63927652166E+02  0.00000000000E+00 0. -1.
<mgrwt>
<rscale>  1 0.30000000E+03</rscale>
<asrwt>0</asrwt>
<pdfrwt beam="1">  1       21 0.19214292E-01 0.30000000E+03</pdfrwt>
<pdfrwt beam="2">0</pdfrwt>
<totfact> 0.25894137E+03</totfact>
</mgrwt>
</event>
<event>
 6    1  0.1284012E-001  0.3000000E+03  0.7818608E-02  0.1093470E+00
         21   -1    0    0  501  502  0.00000000000E+00  0.00000000000E+00  0.18366368508E+01  0.18366368508E+01  0.00000000000E+00 0. -1.
         13   -1    0    0    0    0 -0.00000000000E+00 -0.00000000000E+00 -0.10000000000E+04  0.10000000000E+04  0.00000000000E+00 0.  1.
    9000005    2    1    2  501    0  0.12236783946E+01 -0.35741806378E+02 -0.77441564481E+03  0.77524887113E+03  0.34995930117E+01 0.  0.
         13    1    3    3    0    0  0.11452208463E+00 -0.69403681874E+01 -0.12270643996E+03  0.12290261280E+03  0.00000000000E+00 0.  1.
          1    1    3    3  501    0  0.11091563100E+01 -0.28801438190E+02 -0.65170920484E+03  0.65234625832E+03  0.00000000000E+00 0.  1.
         -1    1    1    2    0  502 -0.12236783946E+01  0.35741806378E+02 -0.22374771834E+03  0.22658776572E+03  0.00000000000E+00 0. -1.
<mgrwt>
<rscale>  1 0.30000000E+03</rscale>
<asrwt>0</asrwt>
<pdfrwt beam="1">  1       21 0.66786935E-02 0.30000000E+03</pdfrwt>
<pdfrwt beam="2">0</pdfrwt>
<totfact> 0.17507638E+04</totfact>
</mgrwt>
</event>
<event>
 6    1  0.1284012E-001  0.3000000E+03  0.7818608E-02  0.1093470E+00
         21   -1    0    0  501  502  0.00000000000E+00  0.00000000000E+00  0.52741109263E+01  0.52741109263E+01  0.00000000000E+00 0. -1.
         13   -1    0    0    0    0 -0.00000000000E+00 -0.00000000000E+00 -0.10000000000E+04  0.10000000000E+04  0.00000000000E+00 0.  1.
    9000005    2    1    2  501    0 -0.35793817868E+02 -0.89839267638E+01 -0.93022470831E+03  0.93096185987E+03  0.31730485461E+01 0.  0.
         13    1    3    3    0    0 -0.13456885310E+02 -0.49068708053E+01 -0.34901440575E+03  0.34930820283E+03  0.00000000000E+00 0.  1.
          3    1    3    3  501    0 -0.22336932558E+02 -0.40770559585E+01 -0.58121030256E+03  0.58165365703E+03  0.00000000000E+00 0.  1.
         -3    1    1    2    0  502  0.35793817868E+02  0.89839267638E+01 -0.64501180761E+02  0.74312251057E+02  0.00000000000E+00 0. -1.
<mgrwt>
<rscale>  1 0.30000000E+03</rscale>
<asrwt>0</asrwt>
<pdfrwt beam="1">  1       21 0.19178626E-01 0.30000000E+03</pdfrwt>
<pdfrwt beam="2">0</pdfrwt>
<totfact> 0.25985610E+03</totfact>
</mgrwt>
</event>
<event>
 6    1  0.1284012E-001  0.3000000E+03  0.7818608E-02  0.1093470E+00
         21   -1    0    0  501  502  0.00000000000E+00  0.00000000000E+00  0.94924038011E+00  0.94924038011E+00  0.00000000000E+00 0. -1.
         13   -1    0    0    0    0 -0.00000000000E+00 -0.00000000000E+00 -0.10000000000E+04  0.10000000000E+04  0.00000000000E+00 0.  1.
    9000005    2    1    2  501    0  0.37227564057E+01  0.30471513869E+02 -0.51968634308E+03  0.52060289042E+03  0.33320053851E+01 0.  0.
         13    1    3    3    0    0  0.27848381301E+01  0.16462325267E+02 -0.25727901141E+03  0.25782019547E+03  0.00000000000E+00 0.  1.
          3    1    3    3  501    0  0.93791827561E+00  0.14009188602E+02 -0.26240733167E+03  0.26278269496E+03  0.00000000000E+00 0.  1.
         -3    1    1    2    0  502 -0.37227564057E+01 -0.30471513869E+02 -0.47936441654E+03  0.48034634996E+03  0.00000000000E+00 0. -1.
<mgrwt>
<rscale>  1 0.30000000E+03</rscale>
<asrwt>0</asrwt>
<pdfrwt beam="1">  1       21 0.34517905E-02 0.30000000E+03</pdfrwt>
<pdfrwt beam="2">0</pdfrwt>
<totfact> 0.53852495E+04</totfact>
</mgrwt>
</event>
<event>
 6    1  0.1284012E-001  0.3000000E+03  0.7818608E-02  0.1093470E+00
         21   -1    0    0  501  502  0.00000000000E+00  0.00000000000E+00  0.14116512167E+01  0.14116512167E+01  0.00000000000E+00 0. -1.
         13   -1    0    0    0    0 -0.00000000000E+00 -0.00000000000E+00 -0.10000000000E+04  0.10000000000E+04  0.00000000000E+00 0.  1.
    9000005    2    1    2  501    0 -0.29493987295E+02 -0.14741959906E+02 -0.73825296085E+03  0.73899645562E+03  0.33326491435E+01 0.  0.
         13    1    3    3    0    0 -0.27965542247E+02 -0.13767417614E+02 -0.71126218442E+03  0.71194487731E+03  0.00000000000E+00 0.  1.
          1    1    3    3  501    0 -0.15284450474E+01 -0.97454229128E+00 -0.26990776432E+02  0.27051578315E+02  0.00000000000E+00 0.  1.
         -3    1    1    2    0  502  0.29493987295E+02  0.14741959906E+02 -0.26033538793E+03  0.26241519559E+03  0.00000000000E+00 0. -1.
<mgrwt>
<rscale>  1 0.30000000E+03</rscale>
<asrwt>0</asrwt>
<pdfrwt beam="1">  1       21 0.51332880E-02 0.30000000E+03</pdfrwt>
<pdfrwt beam="2">0</pdfrwt>
<totfact> 0.27540510E+04</totfact>
</mgrwt>
</event>
<event>
 6    1  0.1284012E-001  0.3000000E+03  0.7818608E-02  0.1093470E+00
         21   -1    0    0  501  502  0.00000000000E+00  0.00000000000E+00  0.20129942391E+01  0.20129942391E+01  0.00000000000E+00 0. -1.
         13   -1    0    0    0    0 -0.00000000000E+00 -0.00000000000E+00 -0.10000000000E+04  0.10000000000E+04  0.00000000000E+00 0.  1.
    9000005    2    1    2  501    0 -0.27255322321E+02 -0.18338636167E+02 -0.16218255505E+03  0.16556321213E+03  0.53700908003E+01 0.  0.
         13    1    3    3    0    0 -0.18650415010E+02 -0.14422970626E+02 -0.12451015126E+03  0.12672268080E+03  0.00000000000E+00 0.  1.
          3    1    3    3  501    0 -0.86049073111E+01 -0.39156655418E+01 -0.37672403792E+02  0.38840531330E+02  0.00000000000E+00 0.  1.
         -1    1    1    2    0  502  0.27255322321E+02  0.18338636167E+02 -0.83580445071E+03  0.83644978211E+03  0.00000000000E+00 0. -1.
<mgrwt>
<rscale>  1 0.30000000E+03</rscale>
<asrwt>0</asrwt>
<pdfrwt beam="1">  1       21 0.73199945E-02 0.30000000E+03</pdfrwt>
<pdfrwt beam="2">0</pdfrwt>
<totfact> 0.14925441E+04</totfact>
</mgrwt>
</event>
<event>
 6    1  0.1284012E-001  0.3000000E+03  0.7818608E-02  0.1093470E+00
         21   -1    0    0  501  502  0.00000000000E+00  0.00000000000E+00  0.19532885033E+01  0.19532885033E+01  0.00000000000E+00 0. -1.
         13   -1    0    0    0    0 -0.00000000000E+00 -0.00000000000E+00 -0.10000000000E+04  0.10000000000E+04  0.00000000000E+00 0.  1.
    9000005    2    1    2  501    0  0.13370259703E+02  0.35277408878E+02 -0.75942044293E+03  0.76036323185E+03  0.30944780132E+01 0.  0.
         13    1    3    3    0    0  0.11893941135E+02  0.29886107313E+02 -0.62623608751E+03  0.62706162580E+03  0.00000000000E+00 0.  1.
          1    1    3    3  501    0  0.14763185686E+01  0.53913015648E+01 -0.13318435542E+03  0.13330160605E+03  0.00000000000E+00 0.  1.
         -3    1    1    2    0  502 -0.13370259703E+02 -0.35277408878E+02 -0.23862626857E+03  0.24159005665E+03  0.00000000000E+00 0. -1.
<mgrwt>
<rscale>  1 0.30000000E+03</rscale>
<asrwt>0</asrwt>
<pdfrwt beam="1">  1       21 0.71028823E-02 0.30000000E+03</pdfrwt>
<pdfrwt beam="2">0</pdfrwt>
<totfact> 0.15730492E+04</totfact>
</mgrwt>
</event>
<event>
 6    1  0.1284012E-001  0.3000000E+03  0.7818608E-02  0.1093470E+00
         21   -1    0    0  501  502  0.00000000000E+00  0.00000000000E+00  0.14250102581E+01  0.14250102581E+01  0.00000000000E+00 0. -1.
         13   -1    0    0    0    0 -0.00000000000E+00 -0.00000000000E+00 -0.10000000000E+04  0.10000000000E+04  0.00000000000E+00 0.  1.
    9000005    2    1    2  501    0 -0.13579039038E+01 -0.37476037877E+02 -0.54793703442E+03  0.54922940646E+03  0.34131969043E+01 0.  0.
         13    1    3    3    0    0 -0.10160910946E+01 -0.31122285902E+02 -0.47216622926E+03  0.47319190312E+03  0.00000000000E+00 0.  1.
          3    1    3    3  501    0 -0.34181280915E+00 -0.63537519745E+01 -0.75770805156E+02  0.76037503339E+02  0.00000000000E+00 0.  1.
         -1    1    1    2    0  502  0.13579039038E+01  0.37476037877E+02 -0.45063795533E+03  0.45219560380E+03  0.00000000000E+00 0. -1.
<mgrwt>
<rscale>  1 0.30000000E+03</rscale>
<asrwt>0</asrwt>
<pdfrwt beam="1">  1       21 0.51818664E-02 0.30000000E+03</pdfrwt>
<pdfrwt beam="2">0</pdfrwt>
<totfact> 0.27101118E+04</totfact>
</mgrwt>
</event>
<event>
 6    1  0.1284012E-001  0.3000000E+03  0.7818608E-02  0.1093470E+00
         21   -1    0    0  501  502  0.00000000000E+00  0.00000000000E+00  0.39107068136E+01  0.39107068136E+01  0.00000000000E+00 0. -1.
         13   -1    0    0    0    0 -0.00000000000E+00 -0.00000000000E+00 -0.10000000000E+04  0.10000000000E+04  0.00000000000E+00 0.  1.
    9000005    2    1    2  501    0 -0.21187882210E+02  0.56740694920E+02 -0.62118614664E+03  0.62414656671E+03  0.42749450588E+01 0.  0.
         13    1    3    3    0    0 -0.10750318844E+02  0.30560946929E+02 -0.35306690869E+03  0.35455011331E+03  0.00000000000E+00 0.  1.
          3    1    3    3  501    0 -0.10437563366E+02  0.26179747990E+02 -0.26811923795E+03  0.26959645341E+03  0.00000000000E+00 0.  1.
         -1    1    1    2    0  502  0.21187882210E+02 -0.56740694920E+02 -0.37490314655E+03  0.37976414010E+03  0.00000000000E+00 0. -1.
<mgrwt>
<rscale>  1 0.30000000E+03</rscale>
<asrwt>0</asrwt>
<pdfrwt beam="1">  1       21 0.14220782E-01 0.30000000E+03</pdfrwt>
<pdfrwt beam="2">0</pdfrwt>
<totfact> 0.45440432E+03</totfact>
</mgrwt>
</event>
<event>
 6    1  0.1284012E-001  0.3000000E+03  0.7818608E-02  0.1093470E+00
         21   -1    0    0  501  502  0.00000000000E+00  0.00000000000E+00  0.45029954545E+01  0.45029954545E+01  0.00000000000E+00 0. -1.
         13   -1    0    0    0    0 -0.00000000000E+00 -0.00000000000E+00 -0.10000000000E+04  0.10000000000E+04  0.00000000000E+00 0.  1.
    9000005    2    1    2  501    0 -0.43576485765E+02 -0.74515478640E+01 -0.87547092887E+03  0.87659406488E+03  0.36567225175E+01 0.  0.
         13    1    3    3    0    0 -0.39250519379E+02 -0.77977932393E+01 -0.79257833070E+03  0.79358794040E+03  0.00000000000E+00 0.  1.
          3    1    3    3  501    0 -0.43259663857E+01  0.34624537531E+00 -0.82892598169E+02  0.83006124486E+02  0.00000000000E+00 0.  1.
         -3    1    1    2    0  502  0.43576485765E+02  0.74515478640E+01 -0.12002607568E+03  0.12790893057E+03  0.00000000000E+00 0. -1.
<mgrwt>
<rscale>  1 0.30000000E+03</rscale>
<asrwt>0</asrwt>
<pdfrwt beam="1">  1       21 0.16374563E-01 0.30000000E+03</pdfrwt>
<pdfrwt beam="2">0</pdfrwt>
<totfact> 0.34983394E+03</totfact>
</mgrwt>
</event>
<event>
 6    1  0.1284012E-001  0.3000000E+03  0.7818608E-02  0.1093470E+00
         21   -1    0    0  501  502  0.00000000000E+00  0.00000000000E+00  0.18669095259E+01  0.18669095259E+01  0.00000000000E+00 0. -1.
         13   -1    0    0    0    0 -0.00000000000E+00 -0.00000000000E+00 -0.10000000000E+04  0.10000000000E+04  0.00000000000E+00 0.  1.
    9000005    2    1    2  501    0  0.34282053501E+02  0.13929779002E+02 -0.75702612734E+03  0.75793686708E+03  0.32309550348E+01 0.  0.
         13    1    3    3    0    0  0.32632581403E+02  0.13937348066E+02 -0.71938356618E+03  0.72025818311E+03  0.00000000000E+00 0.  1.
          3    1    3    3  501    0  0.16494720976E+01 -0.75690637855E-02 -0.37642561162E+02  0.37678683978E+02  0.00000000000E+00 0.  1.
         -1    1    1    2    0  502 -0.34282053501E+02 -0.13929779002E+02 -0.24110696313E+03  0.24393004244E+03  0.00000000000E+00 0. -1.
<mgrwt>
<rscale>  1 0.30000000E+03</rscale>
<asrwt>0</asrwt>
<pdfrwt beam="1">  1       21 0.67887762E-02 0.30000000E+03</pdfrwt>
<pdfrwt beam="2">0</pdfrwt>
<totfact> 0.17017940E+04</totfact>
</mgrwt>
</event>
<event>
 6    1  0.1284012E-001  0.3000000E+03  0.7818608E-02  0.1093470E+00
         21   -1    0    0  501  502  0.00000000000E+00  0.00000000000E+00  0.17635997773E+01  0.17635997773E+01  0.00000000000E+00 0. -1.
         13   -1    0    0    0    0 -0.00000000000E+00 -0.00000000000E+00 -0.10000000000E+04  0.10000000000E+04  0.00000000000E+00 0.  1.
    9000005    2    1    2  501    0  0.28483169912E+02  0.18551748760E+02 -0.20702682360E+03  0.20982417501E+03  0.32588926559E+01 0.  0.
         13    1    3    3    0    0  0.23180218595E+02  0.14563985282E+02 -0.17359402425E+03  0.17573934521E+03  0.00000000000E+00 0.  1.
          1    1    3    3  501    0  0.53029513178E+01  0.39877634774E+01 -0.33432799350E+02  0.34084829802E+02  0.00000000000E+00 0.  1.
         -1    1    1    2    0  502 -0.28483169912E+02 -0.18551748760E+02 -0.79120957663E+03  0.79193942476E+03  0.00000000000E+00 0. -1.
<mgrwt>
<rscale>  1 0.30000000E+03</rscale>
<asrwt>0</asrwt>
<pdfrwt beam="1">  1       21 0.64131036E-02 0.30000000E+03</pdfrwt>
<pdfrwt beam="2">0</pdfrwt>
<totfact> 0.18782499E+04</totfact>
</mgrwt>
</event>
<event>
 6    1  0.1284012E-001  0.3000000E+03  0.7818608E-02  0.1093470E+00
         21   -1    0    0  501  502  0.00000000000E+00  0.00000000000E+00  0.12870861930E+01  0.12870861930E+01  0.00000000000E+00 0. -1.
         13   -1    0    0    0    0 -0.00000000000E+00 -0.00000000000E+00 -0.10000000000E+04  0.10000000000E+04  0.00000000000E+00 0.  1.
    9000005    2    1    2  501    0  0.80063446382E+01  0.28977063710E+02 -0.77201463888E+03  0.77260416241E+03  0.26110055880E+01 0.  0.
         13    1    3    3    0    0  0.80338798905E+01  0.28129316026E+02 -0.75758926793E+03  0.75815387655E+03  0.00000000000E+00 0.  1.
          1    1    3    3  501    0 -0.27535252354E-01  0.84774768376E+00 -0.14425370949E+02  0.14450285857E+02  0.00000000000E+00 0.  1.
         -3    1    1    2    0  502 -0.80063446382E+01 -0.28977063710E+02 -0.22669827492E+03  0.22868292378E+03  0.00000000000E+00 0. -1.
<mgrwt>
<rscale>  1 0.30000000E+03</rscale>
<asrwt>0</asrwt>
<pdfrwt beam="1">  1       21 0.46803233E-02 0.30000000E+03</pdfrwt>
<pdfrwt beam="2">0</pdfrwt>
<totfact> 0.32233418E+04</totfact>
</mgrwt>
</event>
<event>
 6    1  0.1284012E-001  0.3000000E+03  0.7818608E-02  0.1093470E+00
         21   -1    0    0  501  502  0.00000000000E+00  0.00000000000E+00  0.27039750208E+01  0.27039750208E+01  0.00000000000E+00 0. -1.
         13   -1    0    0    0    0 -0.00000000000E+00 -0.00000000000E+00 -0.10000000000E+04  0.10000000000E+04  0.00000000000E+00 0.  1.
    9000005    2    1    2  501    0  0.21189962368E+01 -0.36749119354E+02 -0.85257015722E+03  0.85337023899E+03  0.31470451202E+01 0.  0.
         13    1    3    3    0    0  0.17017236383E+01 -0.34297762782E+02 -0.77540113943E+03  0.77616116846E+03  0.00000000000E+00 0.  1.
          1    1    3    3  501    0  0.41727259846E+00 -0.24513565721E+01 -0.77169017791E+02  0.77209070532E+02  0.00000000000E+00 0.  1.
         -1    1    1    2    0  502 -0.21189962368E+01  0.36749119354E+02 -0.14472586776E+03  0.14933373603E+03  0.00000000000E+00 0. -1.
<mgrwt>
<rscale>  1 0.30000000E+03</rscale>
<asrwt>0</asrwt>
<pdfrwt beam="1">  1       21 0.98326572E-02 0.30000000E+03</pdfrwt>
<pdfrwt beam="2">0</pdfrwt>
<totfact> 0.88664420E+03</totfact>
</mgrwt>
</event>
<event>
 6    1  0.1284012E-001  0.3000000E+03  0.7818608E-02  0.1093470E+00
         21   -1    0    0  501  502  0.00000000000E+00  0.00000000000E+00  0.32187843590E+01  0.32187843590E+01  0.00000000000E+00 0. -1.
         13   -1    0    0    0    0 -0.00000000000E+00 -0.00000000000E+00 -0.10000000000E+04  0.10000000000E+04  0.00000000000E+00 0.  1.
    9000005    2    1    2  501    0  0.30128983721E+02 -0.24474674407E+02 -0.86309805437E+03  0.86401406836E+03  0.86771844257E+01 0.  0.
         13    1    3    3    0    0  0.88144966673E+01 -0.44285557887E+01 -0.15661856311E+03  0.15692890673E+03  0.00000000000E+00 0.  1.
          1    1    3    3  501    0  0.21314487053E+02 -0.20046118618E+02 -0.70647949126E+03  0.70708516163E+03  0.00000000000E+00 0.  1.
         -1    1    1    2    0  502 -0.30128983721E+02  0.24474674407E+02 -0.13368316127E+03  0.13920471600E+03  0.00000000000E+00 0. -1.
<mgrwt>
<rscale>  1 0.30000000E+03</rscale>
<asrwt>0</asrwt>
<pdfrwt beam="1">  1       21 0.11704695E-01 0.30000000E+03</pdfrwt>
<pdfrwt beam="2">0</pdfrwt>
<totfact> 0.64833841E+03</totfact>
</mgrwt>
</event>
<event>
 6    1  0.1284012E-001  0.3000000E+03  0.7818608E-02  0.1093470E+00
         21   -1    0    0  501  502  0.00000000000E+00  0.00000000000E+00  0.31958292573E+01  0.31958292573E+01  0.00000000000E+00 0. -1.
         13   -1    0    0    0    0 -0.00000000000E+00 -0.00000000000E+00 -0.10000000000E+04  0.10000000000E+04  0.00000000000E+00 0.  1.
    9000005    2    1    2  501    0  0.27431574999E+01  0.55872807957E+02 -0.43001344150E+03  0.43365125125E+03  0.35429165993E+01 0.  0.
         13    1    3    3    0    0  0.24563346812E+01  0.29880066108E+02 -0.24161020534E+03  0.24346322773E+03  0.00000000000E+00 0.  1.
          3    1    3    3  501    0  0.28682281866E+00  0.25992741848E+02 -0.18840323615E+03  0.19018802352E+03  0.00000000000E+00 0.  1.
         -1    1    1    2    0  502 -0.27431574999E+01 -0.55872807957E+02 -0.56679072925E+03  0.56954457801E+03  0.00000000000E+00 0. -1.
<mgrwt>
<rscale>  1 0.30000000E+03</rscale>
<asrwt>0</asrwt>
<pdfrwt beam="1">  1       21 0.11621222E-01 0.30000000E+03</pdfrwt>
<pdfrwt beam="2">0</pdfrwt>
<totfact> 0.65678814E+03</totfact>
</mgrwt>
</event>
<event>
 6    1  0.1284012E-001  0.3000000E+03  0.7818608E-02  0.1093470E+00
         21   -1    0    0  501  502  0.00000000000E+00  0.00000000000E+00  0.10863231473E+01  0.10863231473E+01  0.00000000000E+00 0. -1.
         13   -1    0    0    0    0 -0.00000000000E+00 -0.00000000000E+00 -0.10000000000E+04  0.10000000000E+04  0.00000000000E+00 0.  1.
    9000005    2    1    2  501    0  0.57367180283E+00  0.31329022973E+02 -0.65217344934E+03  0.65293316410E+03  0.31099801506E+01 0.  0.
         13    1    3    3    0    0 -0.24205829187E+00  0.24048155941E+01 -0.36329199827E+02  0.36409510988E+02  0.00000000000E+00 0.  1.
          3    1    3    3  501    0  0.81573009470E+00  0.28924207379E+02 -0.61584424951E+03  0.61652365311E+03  0.00000000000E+00 0.  1.
         -3    1    1    2    0  502 -0.57367180283E+00 -0.31329022973E+02 -0.34674022751E+03  0.34815315905E+03  0.00000000000E+00 0. -1.
<mgrwt>
<rscale>  1 0.30000000E+03</rscale>
<asrwt>0</asrwt>
<pdfrwt beam="1">  1       21 0.39502743E-02 0.30000000E+03</pdfrwt>
<pdfrwt beam="2">0</pdfrwt>
<totfact> 0.42942213E+04</totfact>
</mgrwt>
</event>
<event>
 6    1  0.1284012E-001  0.3000000E+03  0.7818608E-02  0.1093470E+00
         21   -1    0    0  501  502  0.00000000000E+00  0.00000000000E+00  0.12811979067E+01  0.12811979067E+01  0.00000000000E+00 0. -1.
         13   -1    0    0    0    0 -0.00000000000E+00 -0.00000000000E+00 -0.10000000000E+04  0.10000000000E+04  0.00000000000E+00 0.  1.
    9000005    2    1    2  501    0  0.26732318183E+02 -0.14554405196E+02 -0.76128631734E+03  0.76190569297E+03  0.41207365710E+01 0.  0.
         13    1    3    3    0    0  0.44666427689E+01 -0.14483789853E+01 -0.90082207170E+02  0.90204505142E+02  0.00000000000E+00 0.  1.
          1    1    3    3  501    0  0.22265675414E+02 -0.13106026210E+02 -0.67120411017E+03  0.67170118783E+03  0.00000000000E+00 0.  1.
         -1    1    1    2    0  502 -0.26732318183E+02  0.14554405196E+02 -0.23743248475E+03  0.23937550493E+03  0.00000000000E+00 0. -1.
<mgrwt>
<rscale>  1 0.30000000E+03</rscale>
<asrwt>0</asrwt>
<pdfrwt beam="1">  1       21 0.46589113E-02 0.30000000E+03</pdfrwt>
<pdfrwt beam="2">0</pdfrwt>
<totfact> 0.32485640E+04</totfact>
</mgrwt>
</event>
<event>
 6    1  0.1284012E-001  0.3000000E+03  0.7818608E-02  0.1093470E+00
         21   -1    0    0  501  502  0.00000000000E+00  0.00000000000E+00  0.20738861469E+01  0.20738861469E+01  0.00000000000E+00 0. -1.
         13   -1    0    0    0    0 -0.00000000000E+00 -0.00000000000E+00 -0.10000000000E+04  0.10000000000E+04  0.00000000000E+00 0.  1.
    9000005    2    1    2  501    0  0.34544482151E+02  0.23991910048E+01 -0.82400484627E+03  0.82473893561E+03  0.33537842024E+01 0.  0.
         13    1    3    3    0    0  0.18743187751E+02  0.22831767589E+00 -0.41458632245E+03  0.41500985287E+03  0.00000000000E+00 0.  1.
          1    1    3    3  501    0  0.15801294400E+02  0.21708733289E+01 -0.40941852382E+03  0.40972908274E+03  0.00000000000E+00 0.  1.
         -1    1    1    2    0  502 -0.34544482151E+02 -0.23991910048E+01 -0.17392126758E+03  0.17733495054E+03  0.00000000000E+00 0. -1.
<mgrwt>
<rscale>  1 0.30000000E+03</rscale>
<asrwt>0</asrwt>
<pdfrwt beam="1">  1       21 0.75414201E-02 0.30000000E+03</pdfrwt>
<pdfrwt beam="2">0</pdfrwt>
<totfact> 0.14167174E+04</totfact>
</mgrwt>
</event>
<event>
 6    1  0.1284012E-001  0.3000000E+03  0.7818608E-02  0.1093470E+00
         21   -1    0    0  501  502  0.00000000000E+00  0.00000000000E+00  0.10051483768E+03  0.10051483768E+03  0.00000000000E+00 0. -1.
         13   -1    0    0    0    0 -0.00000000000E+00 -0.00000000000E+00 -0.10000000000E+04  0.10000000000E+04  0.00000000000E+00 0.  1.
    9000005    2    1    2  501    0 -0.11452576178E+03  0.19672336539E+03 -0.83274108694E+03  0.86329973657E+03  0.35333661560E+01 0.  0.
         13    1    3    3    0    0 -0.17492626292E+02  0.27844278862E+02 -0.12242316178E+03  0.12676248018E+03  0.00000000000E+00 0.  1.
          3    1    3    3  501    0 -0.97033135485E+02  0.16887908652E+03 -0.71031792516E+03  0.73653725639E+03  0.00000000000E+00 0.  1.
         -3    1    1    2    0  502  0.11452576178E+03 -0.19672336539E+03 -0.66744075372E+02  0.23721510111E+03  0.00000000000E+00 0. -1.
<mgrwt>
<rscale>  1 0.30000000E+03</rscale>
<asrwt>0</asrwt>
<pdfrwt beam="1">  1       21 0.36550927E+00 0.30000000E+03</pdfrwt>
<pdfrwt beam="2">0</pdfrwt>
<totfact> 0.70455300E-01</totfact>
</mgrwt>
</event>
<event>
 6    1  0.1284012E-001  0.3000000E+03  0.7818608E-02  0.1093470E+00
         21   -1    0    0  501  502  0.00000000000E+00  0.00000000000E+00  0.12188146740E+01  0.12188146740E+01  0.00000000000E+00 0. -1.
         13   -1    0    0    0    0 -0.00000000000E+00 -0.00000000000E+00 -0.10000000000E+04  0.10000000000E+04  0.00000000000E+00 0.  1.
    9000005    2    1    2  501    0 -0.29768864425E+02 -0.16584230513E+02 -0.60469010091E+03  0.60565718255E+03  0.30467437578E+01 0.  0.
         13    1    3    3    0    0 -0.13481814567E+02 -0.58304844271E+01 -0.25356270466E+03  0.25398779315E+03  0.00000000000E+00 0.  1.
          3    1    3    3  501    0 -0.16287049858E+02 -0.10753746085E+02 -0.35112739625E+03  0.35166938940E+03  0.00000000000E+00 0.  1.
         -1    1    1    2    0  502  0.29768864425E+02  0.16584230513E+02 -0.39409108442E+03  0.39556163212E+03  0.00000000000E+00 0. -1.
<mgrwt>
<rscale>  1 0.30000000E+03</rscale>
<asrwt>0</asrwt>
<pdfrwt beam="1">  1       21 0.44320627E-02 0.30000000E+03</pdfrwt>
<pdfrwt beam="2">0</pdfrwt>
<totfact> 0.35358718E+04</totfact>
</mgrwt>
</event>
<event>
 6    1  0.1284012E-001  0.3000000E+03  0.7818608E-02  0.1093470E+00
         21   -1    0    0  501  502  0.00000000000E+00  0.00000000000E+00  0.52347549973E+01  0.52347549973E+01  0.00000000000E+00 0. -1.
         13   -1    0    0    0    0 -0.00000000000E+00 -0.00000000000E+00 -0.10000000000E+04  0.10000000000E+04  0.00000000000E+00 0.  1.
    9000005    2    1    2  501    0 -0.66806363070E+02 -0.12814361797E+02 -0.66814641278E+03  0.67160747857E+03  0.31110035599E+01 0.  0.
         13    1    3    3    0    0 -0.33368331669E+02 -0.79206910595E+01 -0.34083673829E+03  0.34255782734E+03  0.00000000000E+00 0.  1.
          1    1    3    3  501    0 -0.33438031401E+02 -0.48936707371E+01 -0.32730967449E+03  0.32904965123E+03  0.00000000000E+00 0.  1.
         -3    1    1    2    0  502  0.66806363070E+02  0.12814361797E+02 -0.32661883222E+03  0.33362727643E+03  0.00000000000E+00 0. -1.
<mgrwt>
<rscale>  1 0.30000000E+03</rscale>
<asrwt>0</asrwt>
<pdfrwt beam="1">  1       21 0.19035513E-01 0.30000000E+03</pdfrwt>
<pdfrwt beam="2">0</pdfrwt>
<totfact> 0.26357422E+03</totfact>
</mgrwt>
</event>
<event>
 6    1  0.1284012E-001  0.3000000E+03  0.7818608E-02  0.1093470E+00
         21   -1    0    0  501  502  0.00000000000E+00  0.00000000000E+00  0.11772581299E+01  0.11772581299E+01  0.00000000000E+00 0. -1.
         13   -1    0    0    0    0 -0.00000000000E+00 -0.00000000000E+00 -0.10000000000E+04  0.10000000000E+04  0.00000000000E+00 0.  1.
    9000005    2    1    2  501    0 -0.69674163747E+01  0.33011259698E+02 -0.41400625258E+03  0.41538837611E+03  0.28350785749E+01 0.  0.
         13    1    3    3    0    0 -0.12909531780E+01  0.28319148923E+01 -0.32869387595E+02  0.33016404149E+02  0.00000000000E+00 0.  1.
          1    1    3    3  501    0 -0.56764631967E+01  0.30179344805E+02 -0.38113686499E+03  0.38237197196E+03  0.00000000000E+00 0.  1.
         -3    1    1    2    0  502  0.69674163747E+01 -0.33011259698E+02 -0.58481648929E+03  0.58578888202E+03  0.00000000000E+00 0. -1.
<mgrwt>
<rscale>  1 0.30000000E+03</rscale>
<asrwt>0</asrwt>
<pdfrwt beam="1">  1       21 0.42809477E-02 0.30000000E+03</pdfrwt>
<pdfrwt beam="2">0</pdfrwt>
<totfact> 0.37497252E+04</totfact>
</mgrwt>
</event>
<event>
 6    1  0.1284012E-001  0.3000000E+03  0.7818608E-02  0.1093470E+00
         21   -1    0    0  501  502  0.00000000000E+00  0.00000000000E+00  0.10220802701E+01  0.10220802701E+01  0.00000000000E+00 0. -1.
         13   -1    0    0    0    0 -0.00000000000E+00 -0.00000000000E+00 -0.10000000000E+04  0.10000000000E+04  0.00000000000E+00 0.  1.
    9000005    2    1    2  501    0  0.29910173341E+02 -0.35106915694E+01 -0.66506911964E+03  0.66575796021E+03  0.31279793667E+01 0.  0.
         13    1    3    3    0    0  0.29905187654E+02 -0.35099463713E+01 -0.65774854203E+03  0.65843738086E+03  0.00000000000E+00 0.  1.
          3    1    3    3  501    0  0.49856867459E-02 -0.74519802403E-03 -0.73205776142E+01  0.73205793499E+01  0.00000000000E+00 0.  1.
         -1    1    1    2    0  502 -0.29910173341E+02  0.35106915694E+01 -0.33390880009E+03  0.33526412006E+03  0.00000000000E+00 0. -1.
<mgrwt>
<rscale>  1 0.30000000E+03</rscale>
<asrwt>0</asrwt>
<pdfrwt beam="1">  1       21 0.37166634E-02 0.30000000E+03</pdfrwt>
<pdfrwt beam="2">0</pdfrwt>
<totfact> 0.47575233E+04</totfact>
</mgrwt>
</event>
<event>
 6    1  0.1284012E-001  0.3000000E+03  0.7818608E-02  0.1093470E+00
         21   -1    0    0  501  502  0.00000000000E+00  0.00000000000E+00  0.11267944076E+01  0.11267944076E+01  0.00000000000E+00 0. -1.
         13   -1    0    0    0    0 -0.00000000000E+00 -0.00000000000E+00 -0.10000000000E+04  0.10000000000E+04  0.00000000000E+00 0.  1.
    9000005    2    1    2  501    0 -0.12475948239E+02  0.28177871948E+02 -0.69598629281E+03  0.69667626692E+03  0.33554969198E+01 0.  0.
         13    1    3    3    0    0 -0.48100528950E+01  0.11897866304E+02 -0.25440151840E+03  0.25472500544E+03  0.00000000000E+00 0.  1.
          3    1    3    3  501    0 -0.76658953438E+01  0.16280005644E+02 -0.44158477441E+03  0.44195126149E+03  0.00000000000E+00 0.  1.
         -1    1    1    2    0  502  0.12475948239E+02 -0.28177871948E+02 -0.30288691278E+03  0.30445052749E+03  0.00000000000E+00 0. -1.
<mgrwt>
<rscale>  1 0.30000000E+03</rscale>
<asrwt>0</asrwt>
<pdfrwt beam="1">  1       21 0.40974428E-02 0.30000000E+03</pdfrwt>
<pdfrwt beam="2">0</pdfrwt>
<totfact> 0.40376090E+04</totfact>
</mgrwt>
</event>
<event>
 6    1  0.1284012E-001  0.3000000E+03  0.7818608E-02  0.1093470E+00
         21   -1    0    0  501  502  0.00000000000E+00  0.00000000000E+00  0.42084482219E+01  0.42084482219E+01  0.00000000000E+00 0. -1.
         13   -1    0    0    0    0 -0.00000000000E+00 -0.00000000000E+00 -0.10000000000E+04  0.10000000000E+04  0.00000000000E+00 0.  1.
    9000005    2    1    2  501    0 -0.22838178966E+02 -0.26228650548E+02 -0.92167641447E+03  0.92233917373E+03  0.35516016022E+01 0.  0.
         13    1    3    3    0    0 -0.15260276149E+02 -0.19928201413E+02 -0.66817160245E+03  0.66864287894E+03  0.00000000000E+00 0.  1.
          1    1    3    3  501    0 -0.75779028171E+01 -0.63004491352E+01 -0.25350481202E+03  0.25369629479E+03  0.00000000000E+00 0.  1.
         -1    1    1    2    0  502  0.22838178966E+02  0.26228650548E+02 -0.74115137309E+02  0.81869274495E+02  0.00000000000E+00 0. -1.
<mgrwt>
<rscale>  1 0.30000000E+03</rscale>
<asrwt>0</asrwt>
<pdfrwt beam="1">  1       21 0.15303480E-01 0.30000000E+03</pdfrwt>
<pdfrwt beam="2">0</pdfrwt>
<totfact> 0.39679809E+03</totfact>
</mgrwt>
</event>
<event>
 6    1  0.1284012E-001  0.3000000E+03  0.7818608E-02  0.1093470E+00
         21   -1    0    0  501  502  0.00000000000E+00  0.00000000000E+00  0.13075406772E+01  0.13075406772E+01  0.00000000000E+00 0. -1.
         13   -1    0    0    0    0 -0.00000000000E+00 -0.00000000000E+00 -0.10000000000E+04  0.10000000000E+04  0.00000000000E+00 0.  1.
    9000005    2    1    2  501    0  0.24663461837E+02 -0.24381752359E+02 -0.63839839333E+03  0.63934819187E+03  0.32932728060E+01 0.  0.
         13    1    3    3    0    0  0.64418789300E+01 -0.64777954247E+01 -0.19612978906E+03  0.19634244013E+03  0.00000000000E+00 0.  1.
          1    1    3    3  501    0  0.18221582907E+02 -0.17903956934E+02 -0.44226860427E+03  0.44300575174E+03  0.00000000000E+00 0.  1.
         -3    1    1    2    0  502 -0.24663461837E+02  0.24381752359E+02 -0.36029406600E+03  0.36195934881E+03  0.00000000000E+00 0. -1.
<mgrwt>
<rscale>  1 0.30000000E+03</rscale>
<asrwt>0</asrwt>
<pdfrwt beam="1">  1       21 0.47547034E-02 0.30000000E+03</pdfrwt>
<pdfrwt beam="2">0</pdfrwt>
<totfact> 0.31380679E+04</totfact>
</mgrwt>
</event>
<event>
 6    1  0.1284012E-001  0.3000000E+03  0.7818608E-02  0.1093470E+00
         21   -1    0    0  501  502  0.00000000000E+00  0.00000000000E+00  0.14673883198E+01  0.14673883198E+01  0.00000000000E+00 0. -1.
         13   -1    0    0    0    0 -0.00000000000E+00 -0.00000000000E+00 -0.10000000000E+04  0.10000000000E+04  0.00000000000E+00 0.  1.
    9000005    2    1    2  501    0  0.28773086789E+02  0.15901881633E+02 -0.75532479800E+03  0.75604774567E+03  0.34471578767E+01 0.  0.
         13    1    3    3    0    0  0.16335383964E+02  0.10927885357E+02 -0.44198691619E+03  0.44242366294E+03  0.00000000000E+00 0.  1.
          3    1    3    3  501    0  0.12437702825E+02  0.49739962754E+01 -0.31333788181E+03  0.31362408273E+03  0.00000000000E+00 0.  1.
         -3    1    1    2    0  502 -0.28773086789E+02 -0.15901881633E+02 -0.24320781368E+03  0.24541964265E+03  0.00000000000E+00 0. -1.
<mgrwt>
<rscale>  1 0.30000000E+03</rscale>
<asrwt>0</asrwt>
<pdfrwt beam="1">  1       21 0.53359688E-02 0.30000000E+03</pdfrwt>
<pdfrwt beam="2">0</pdfrwt>
<totfact> 0.25776881E+04</totfact>
</mgrwt>
</event>
<event>
 6    1  0.1284012E-001  0.3000000E+03  0.7818608E-02  0.1093470E+00
         21   -1    0    0  501  502  0.00000000000E+00  0.00000000000E+00  0.20902498252E+01  0.20902498252E+01  0.00000000000E+00 0. -1.
         13   -1    0    0    0    0 -0.00000000000E+00 -0.00000000000E+00 -0.10000000000E+04  0.10000000000E+04  0.00000000000E+00 0.  1.
    9000005    2    1    2  501    0  0.14962111923E+02  0.28517215601E+02 -0.85439053747E+03  0.85500231424E+03  0.29445647389E+01 0.  0.
         13    1    3    3    0    0  0.11151251223E+02  0.23689361100E+02 -0.69762089952E+03  0.69811206528E+03  0.00000000000E+00 0.  1.
          3    1    3    3  501    0  0.38108607001E+01  0.48278545005E+01 -0.15676963795E+03  0.15689024897E+03  0.00000000000E+00 0.  1.
         -1    1    1    2    0  502 -0.14962111923E+02 -0.28517215601E+02 -0.14351921270E+03  0.14708793558E+03  0.00000000000E+00 0. -1.
<mgrwt>
<rscale>  1 0.30000000E+03</rscale>
<asrwt>0</asrwt>
<pdfrwt beam="1">  1       21 0.76009245E-02 0.30000000E+03</pdfrwt>
<pdfrwt beam="2">0</pdfrwt>
<totfact> 0.13973479E+04</totfact>
</mgrwt>
</event>
<event>
 6    1  0.1284012E-001  0.3000000E+03  0.7818608E-02  0.1093470E+00
         21   -1    0    0  501  502  0.00000000000E+00  0.00000000000E+00  0.10965387764E+01  0.10965387764E+01  0.00000000000E+00 0. -1.
         13   -1    0    0    0    0 -0.00000000000E+00 -0.00000000000E+00 -0.10000000000E+04  0.10000000000E+04  0.00000000000E+00 0.  1.
    9000005    2    1    2  501    0 -0.31210652566E+02 -0.13672758554E+01 -0.34784537240E+03  0.34928935156E+03  0.55383878767E+01 0.  0.
         13    1    3    3    0    0 -0.15510262277E+02 -0.82638961007E+00 -0.20340751746E+03  0.20399967970E+03  0.00000000000E+00 0.  1.
          3    1    3    3  501    0 -0.15700390290E+02 -0.54088624532E+00 -0.14443785493E+03  0.14528967187E+03  0.00000000000E+00 0.  1.
         -3    1    1    2    0  502  0.31210652566E+02  0.13672758554E+01 -0.65105808883E+03  0.65180718721E+03  0.00000000000E+00 0. -1.
<mgrwt>
<rscale>  1 0.30000000E+03</rscale>
<asrwt>0</asrwt>
<pdfrwt beam="1">  1       21 0.39874221E-02 0.30000000E+03</pdfrwt>
<pdfrwt beam="2">0</pdfrwt>
<totfact> 0.42270905E+04</totfact>
</mgrwt>
</event>
<event>
 6    1  0.1284012E-001  0.3000000E+03  0.7818608E-02  0.1093470E+00
         21   -1    0    0  501  502  0.00000000000E+00  0.00000000000E+00  0.60493286892E+01  0.60493286892E+01  0.00000000000E+00 0. -1.
         13   -1    0    0    0    0 -0.00000000000E+00 -0.00000000000E+00 -0.10000000000E+04  0.10000000000E+04  0.00000000000E+00 0.  1.
    9000005    2    1    2  501    0  0.55607881659E+02  0.34597486237E+02 -0.76815634902E+03  0.77094871504E+03  0.29192697307E+01 0.  0.
         13    1    3    3    0    0  0.22374956738E+02  0.12385363421E+02 -0.30646593821E+03  0.30753114834E+03  0.00000000000E+00 0.  1.
          3    1    3    3  501    0  0.33232924921E+02  0.22212122816E+02 -0.46169041081E+03  0.46341756671E+03  0.00000000000E+00 0.  1.
         -1    1    1    2    0  502 -0.55607881659E+02 -0.34597486237E+02 -0.22579432229E+03  0.23510061364E+03  0.00000000000E+00 0. -1.
<mgrwt>
<rscale>  1 0.30000000E+03</rscale>
<asrwt>0</asrwt>
<pdfrwt beam="1">  1       21 0.21997605E-01 0.30000000E+03</pdfrwt>
<pdfrwt beam="2">0</pdfrwt>
<totfact> 0.19990122E+03</totfact>
</mgrwt>
</event>
<event>
 6    1  0.1284012E-001  0.3000000E+03  0.7818608E-02  0.1093470E+00
         21   -1    0    0  501  502  0.00000000000E+00  0.00000000000E+00  0.23714440572E+01  0.23714440572E+01  0.00000000000E+00 0. -1.
         13   -1    0    0    0    0 -0.00000000000E+00 -0.00000000000E+00 -0.10000000000E+04  0.10000000000E+04  0.00000000000E+00 0.  1.
    9000005    2    1    2  501    0  0.55431702787E+01  0.39252763722E+02 -0.78939077690E+03  0.79039390087E+03  0.36350619419E+01 0.  0.
         13    1    3    3    0    0  0.47252624486E+01  0.37877605821E+02 -0.76371124240E+03  0.76466456887E+03  0.00000000000E+00 0.  1.
          3    1    3    3  501    0  0.81790783014E+00  0.13751579015E+01 -0.25679534504E+02  0.25729331993E+02  0.00000000000E+00 0.  1.
         -1    1    1    2    0  502 -0.55431702787E+01 -0.39252763722E+02 -0.20823777904E+03  0.21197754319E+03  0.00000000000E+00 0. -1.
<mgrwt>
<rscale>  1 0.30000000E+03</rscale>
<asrwt>0</asrwt>
<pdfrwt beam="1">  1       21 0.86234511E-02 0.30000000E+03</pdfrwt>
<pdfrwt beam="2">0</pdfrwt>
<totfact> 0.11192861E+04</totfact>
</mgrwt>
</event>
<event>
 6    1  0.1284012E-001  0.3000000E+03  0.7818608E-02  0.1093470E+00
         21   -1    0    0  501  502  0.00000000000E+00  0.00000000000E+00  0.25420568028E+01  0.25420568028E+01  0.00000000000E+00 0. -1.
         13   -1    0    0    0    0 -0.00000000000E+00 -0.00000000000E+00 -0.10000000000E+04  0.10000000000E+04  0.00000000000E+00 0.  1.
    9000005    2    1    2  501    0 -0.17316675362E+02  0.45438947805E+02 -0.62973953010E+03  0.63162239360E+03  0.32260033260E+01 0.  0.
         13    1    3    3    0    0 -0.14736030418E+02  0.36432105519E+02 -0.52085584693E+03  0.52233634967E+03  0.00000000000E+00 0.  1.
          1    1    3    3  501    0 -0.25806449432E+01  0.90068422855E+01 -0.10888368317E+03  0.10928604393E+03  0.00000000000E+00 0.  1.
         -3    1    1    2    0  502  0.17316675362E+02 -0.45438947805E+02 -0.36771841309E+03  0.37091966321E+03  0.00000000000E+00 0. -1.
<mgrwt>
<rscale>  1 0.30000000E+03</rscale>
<asrwt>0</asrwt>
<pdfrwt beam="1">  1       21 0.92438624E-02 0.30000000E+03</pdfrwt>
<pdfrwt beam="2">0</pdfrwt>
<totfact> 0.98973919E+03</totfact>
</mgrwt>
</event>
<event>
 6    1  0.1284012E-001  0.3000000E+03  0.7818608E-02  0.1093470E+00
         21   -1    0    0  501  502  0.00000000000E+00  0.00000000000E+00  0.10694115095E+01  0.10694115095E+01  0.00000000000E+00 0. -1.
         13   -1    0    0    0    0 -0.00000000000E+00 -0.00000000000E+00 -0.10000000000E+04  0.10000000000E+04  0.00000000000E+00 0.  1.
    9000005    2    1    2  501    0 -0.17002275325E+02 -0.26198382798E+02 -0.64633842765E+03  0.64709672257E+03  0.23179040261E+01 0.  0.
         13    1    3    3    0    0 -0.12936659196E+02 -0.21608555977E+02 -0.52204398613E+03  0.52265113632E+03  0.00000000000E+00 0.  1.
          3    1    3    3  501    0 -0.40656161298E+01 -0.45898268209E+01 -0.12429444151E+03  0.12444558625E+03  0.00000000000E+00 0.  1.
         -1    1    1    2    0  502  0.17002275325E+02  0.26198382798E+02 -0.35259216084E+03  0.35397268894E+03  0.00000000000E+00 0. -1.
<mgrwt>
<rscale>  1 0.30000000E+03</rscale>
<asrwt>0</asrwt>
<pdfrwt beam="1">  1       21 0.38887773E-02 0.30000000E+03</pdfrwt>
<pdfrwt beam="2">0</pdfrwt>
<totfact> 0.44090850E+04</totfact>
</mgrwt>
</event>
<event>
 6    1  0.1284012E-001  0.3000000E+03  0.7818608E-02  0.1093470E+00
         21   -1    0    0  501  502  0.00000000000E+00  0.00000000000E+00  0.61471806093E+01  0.61471806093E+01  0.00000000000E+00 0. -1.
         13   -1    0    0    0    0 -0.00000000000E+00 -0.00000000000E+00 -0.10000000000E+04  0.10000000000E+04  0.00000000000E+00 0.  1.
    9000005    2    1    2  501    0  0.24030466953E+02  0.74591134624E+02 -0.49395072969E+03  0.50013986842E+03  0.33561750267E+01 0.  0.
         13    1    3    3    0    0  0.12172648015E+02  0.32754992382E+02 -0.21603387244E+03  0.21884171661E+03  0.00000000000E+00 0.  1.
          3    1    3    3  501    0  0.11857818938E+02  0.41836142242E+02 -0.27791685725E+03  0.28129815181E+03  0.00000000000E+00 0.  1.
         -3    1    1    2    0  502 -0.24030466953E+02 -0.74591134624E+02 -0.49990208970E+03  0.50600731219E+03  0.00000000000E+00 0. -1.
<mgrwt>
<rscale>  1 0.30000000E+03</rscale>
<asrwt>0</asrwt>
<pdfrwt beam="1">  1       21 0.22353431E-01 0.30000000E+03</pdfrwt>
<pdfrwt beam="2">0</pdfrwt>
<totfact> 0.19381471E+03</totfact>
</mgrwt>
</event>
<event>
 6    1  0.1284012E-001  0.3000000E+03  0.7818608E-02  0.1093470E+00
         21   -1    0    0  501  502  0.00000000000E+00  0.00000000000E+00  0.12185509330E+01  0.12185509330E+01  0.00000000000E+00 0. -1.
         13   -1    0    0    0    0 -0.00000000000E+00 -0.00000000000E+00 -0.10000000000E+04  0.10000000000E+04  0.00000000000E+00 0.  1.
    9000005    2    1    2  501    0 -0.31233055380E+02 -0.10078287341E+02 -0.66773449675E+03  0.66854880439E+03  0.33271733405E+01 0.  0.
         13    1    3    3    0    0 -0.12730316676E+02 -0.43777501816E+01 -0.30722097399E+03  0.30751577604E+03  0.00000000000E+00 0.  1.
          3    1    3    3  501    0 -0.18502738704E+02 -0.57005371593E+01 -0.36051352276E+03  0.36103302835E+03  0.00000000000E+00 0.  1.
         -3    1    1    2    0  502  0.31233055380E+02  0.10078287341E+02 -0.33104695232E+03  0.33266974654E+03  0.00000000000E+00 0. -1.
<mgrwt>
<rscale>  1 0.30000000E+03</rscale>
<asrwt>0</asrwt>
<pdfrwt beam="1">  1       21 0.44311036E-02 0.30000000E+03</pdfrwt>
<pdfrwt beam="2">0</pdfrwt>
<totfact> 0.35371690E+04</totfact>
</mgrwt>
</event>
<event>
 6    1  0.1284012E-001  0.3000000E+03  0.7818608E-02  0.1093470E+00
         21   -1    0    0  501  502  0.00000000000E+00  0.00000000000E+00  0.13204681610E+01  0.13204681610E+01  0.00000000000E+00 0. -1.
         13   -1    0    0    0    0 -0.00000000000E+00 -0.00000000000E+00 -0.10000000000E+04  0.10000000000E+04  0.00000000000E+00 0.  1.
    9000005    2    1    2  501    0 -0.27254566200E+02  0.19547111147E+02 -0.69013870575E+03  0.69096205874E+03  0.34975012216E+01 0.  0.
         13    1    3    3    0    0 -0.15143700390E+02  0.11062629863E+02 -0.42087040381E+03  0.42128803715E+03  0.00000000000E+00 0.  1.
          3    1    3    3  501    0 -0.12110865811E+02  0.84844812838E+01 -0.26926830193E+03  0.26967402159E+03  0.00000000000E+00 0.  1.
         -1    1    1    2    0  502  0.27254566200E+02 -0.19547111147E+02 -0.30854082609E+03  0.31035840942E+03  0.00000000000E+00 0. -1.
<mgrwt>
<rscale>  1 0.30000000E+03</rscale>
<asrwt>0</asrwt>
<pdfrwt beam="1">  1       21 0.48017125E-02 0.30000000E+03</pdfrwt>
<pdfrwt beam="2">0</pdfrwt>
<totfact> 0.30859805E+04</totfact>
</mgrwt>
</event>
<event>
 6    1  0.1284012E-001  0.3000000E+03  0.7818608E-02  0.1093470E+00
         21   -1    0    0  501  502  0.00000000000E+00  0.00000000000E+00  0.12047934764E+01  0.12047934764E+01  0.00000000000E+00 0. -1.
         13   -1    0    0    0    0 -0.00000000000E+00 -0.00000000000E+00 -0.10000000000E+04  0.10000000000E+04  0.00000000000E+00 0.  1.
    9000005    2    1    2  501    0 -0.50890526091E-01  0.32151713652E+02 -0.31464716376E+03  0.31630167646E+03  0.31902333768E+01 0.  0.
         13    1    3    3    0    0 -0.14141560567E+01  0.83493777782E+01 -0.82385051179E+02  0.82819131874E+02  0.00000000000E+00 0.  1.
          3    1    3    3  501    0  0.13632655306E+01  0.23802335873E+02 -0.23226211258E+03  0.23348254458E+03  0.00000000000E+00 0.  1.
         -1    1    1    2    0  502  0.50890526091E-01 -0.32151713652E+02 -0.68414804277E+03  0.68490311702E+03  0.00000000000E+00 0. -1.
<mgrwt>
<rscale>  1 0.30000000E+03</rscale>
<asrwt>0</asrwt>
<pdfrwt beam="1">  1       21 0.43810764E-02 0.30000000E+03</pdfrwt>
<pdfrwt beam="2">0</pdfrwt>
<totfact> 0.36058674E+04</totfact>
</mgrwt>
</event>
<event>
 6    1  0.1284012E-001  0.3000000E+03  0.7818608E-02  0.1093470E+00
         21   -1    0    0  501  502  0.00000000000E+00  0.00000000000E+00  0.10966955596E+01  0.10966955596E+01  0.00000000000E+00 0. -1.
         13   -1    0    0    0    0 -0.00000000000E+00 -0.00000000000E+00 -0.10000000000E+04  0.10000000000E+04  0.00000000000E+00 0.  1.
    9000005    2    1    2  501    0 -0.22900819149E+02 -0.22356201353E+02 -0.62113619083E+03  0.62197634609E+03  0.44900200132E+01 0.  0.
         13    1    3    3    0    0 -0.91744405507E+01 -0.10436571181E+02 -0.30737138912E+03  0.30768533152E+03  0.00000000000E+00 0.  1.
          3    1    3    3  501    0 -0.13726378598E+02 -0.11919630172E+02 -0.31376480170E+03  0.31429101457E+03  0.00000000000E+00 0.  1.
         -1    1    1    2    0  502  0.22900819149E+02  0.22356201353E+02 -0.37776711362E+03  0.37912034947E+03  0.00000000000E+00 0. -1.
<mgrwt>
<rscale>  1 0.30000000E+03</rscale>
<asrwt>0</asrwt>
<pdfrwt beam="1">  1       21 0.39879923E-02 0.30000000E+03</pdfrwt>
<pdfrwt beam="2">0</pdfrwt>
<totfact> 0.42260731E+04</totfact>
</mgrwt>
</event>
<event>
 6    1  0.1284012E-001  0.3000000E+03  0.7818608E-02  0.1093470E+00
         21   -1    0    0  501  502  0.00000000000E+00  0.00000000000E+00  0.98699842417E+00  0.98699842417E+00  0.00000000000E+00 0. -1.
         13   -1    0    0    0    0 -0.00000000000E+00 -0.00000000000E+00 -0.10000000000E+04  0.10000000000E+04  0.00000000000E+00 0.  1.
    9000005    2    1    2  501    0  0.28506377612E+02  0.12929111736E+02 -0.51714546347E+03  0.51810388651E+03  0.35258092735E+01 0.  0.
         13    1    3    3    0    0  0.17432796412E+02  0.66215494204E+01 -0.32786070201E+03  0.32839060162E+03  0.00000000000E+00 0.  1.
          1    1    3    3  501    0  0.11073581200E+02  0.63075623154E+01 -0.18928476146E+03  0.18971328489E+03  0.00000000000E+00 0.  1.
         -1    1    1    2    0  502 -0.28506377612E+02 -0.12929111736E+02 -0.48186753811E+03  0.48288311192E+03  0.00000000000E+00 0. -1.
<mgrwt>
<rscale>  1 0.30000000E+03</rscale>
<asrwt>0</asrwt>
<pdfrwt beam="1">  1       21 0.35890927E-02 0.30000000E+03</pdfrwt>
<pdfrwt beam="2">0</pdfrwt>
<totfact> 0.50446345E+04</totfact>
</mgrwt>
</event>
<event>
 6    1  0.1284012E-001  0.3000000E+03  0.7818608E-02  0.1093470E+00
         21   -1    0    0  501  502  0.00000000000E+00  0.00000000000E+00  0.10451775255E+01  0.10451775255E+01  0.00000000000E+00 0. -1.
         13   -1    0    0    0    0 -0.00000000000E+00 -0.00000000000E+00 -0.10000000000E+04  0.10000000000E+04  0.00000000000E+00 0.  1.
    9000005    2    1    2  501    0  0.70791072071E+01  0.29547377581E+02 -0.33505668989E+03  0.33645215038E+03  0.37286424845E+01 0.  0.
         13    1    3    3    0    0  0.19779695663E+01  0.35943054826E+01 -0.38316036970E+02  0.38535050079E+02  0.00000000000E+00 0.  1.
          1    1    3    3  501    0  0.51011376408E+01  0.25953072098E+02 -0.29674065292E+03  0.29791710030E+03  0.00000000000E+00 0.  1.
         -1    1    1    2    0  502 -0.70791072071E+01 -0.29547377581E+02 -0.66389813259E+03  0.66459302715E+03  0.00000000000E+00 0. -1.
<mgrwt>
<rscale>  1 0.30000000E+03</rscale>
<asrwt>0</asrwt>
<pdfrwt beam="1">  1       21 0.38006536E-02 0.30000000E+03</pdfrwt>
<pdfrwt beam="2">0</pdfrwt>
<totfact> 0.45822839E+04</totfact>
</mgrwt>
</event>
<event>
 6    1  0.1284012E-001  0.3000000E+03  0.7818608E-02  0.1093470E+00
         21   -1    0    0  501  502  0.00000000000E+00  0.00000000000E+00  0.14407108425E+01  0.14407108425E+01  0.00000000000E+00 0. -1.
         13   -1    0    0    0    0 -0.00000000000E+00 -0.00000000000E+00 -0.10000000000E+04  0.10000000000E+04  0.00000000000E+00 0.  1.
    9000005    2    1    2  501    0  0.20115308703E+02  0.23356928962E+02 -0.79073738697E+03  0.79134522112E+03  0.33870422854E+01 0.  0.
         13    1    3    3    0    0  0.12620031484E+02  0.12517798760E+02 -0.43018448154E+03  0.43055156327E+03  0.00000000000E+00 0.  1.
          1    1    3    3  501    0  0.74952772192E+01  0.10839130202E+02 -0.36055290544E+03  0.36079365785E+03  0.00000000000E+00 0.  1.
         -1    1    1    2    0  502 -0.20115308703E+02 -0.23356928962E+02 -0.20782190218E+03  0.21009548972E+03  0.00000000000E+00 0. -1.
<mgrwt>
<rscale>  1 0.30000000E+03</rscale>
<asrwt>0</asrwt>
<pdfrwt beam="1">  1       21 0.52389596E-02 0.30000000E+03</pdfrwt>
<pdfrwt beam="2">0</pdfrwt>
<totfact> 0.26598465E+04</totfact>
</mgrwt>
</event>
<event>
 6    1  0.1284012E-001  0.3000000E+03  0.7818608E-02  0.1093470E+00
         21   -1    0    0  501  502  0.00000000000E+00  0.00000000000E+00  0.25971601327E+01  0.25971601327E+01  0.00000000000E+00 0. -1.
         13   -1    0    0    0    0 -0.00000000000E+00 -0.00000000000E+00 -0.10000000000E+04  0.10000000000E+04  0.00000000000E+00 0.  1.
    9000005    2    1    2  501    0 -0.28282430037E+02  0.18769060839E+02 -0.87236679602E+03  0.87303564673E+03  0.39038665530E+01 0.  0.
         13    1    3    3    0    0 -0.26414958292E+02  0.16429850248E+02 -0.77892695879E+03  0.77954787995E+03  0.00000000000E+00 0.  1.
          3    1    3    3  501    0 -0.18674717448E+01  0.23392105907E+01 -0.93439837225E+02  0.93487766780E+02  0.00000000000E+00 0.  1.
         -1    1    1    2    0  502  0.28282430037E+02 -0.18769060839E+02 -0.12503604385E+03  0.12956151340E+03  0.00000000000E+00 0. -1.
<mgrwt>
<rscale>  1 0.30000000E+03</rscale>
<asrwt>0</asrwt>
<pdfrwt beam="1">  1       21 0.94442386E-02 0.30000000E+03</pdfrwt>
<pdfrwt beam="2">0</pdfrwt>
<totfact> 0.95270776E+03</totfact>
</mgrwt>
</event>
<event>
 6    1  0.1284012E-001  0.3000000E+03  0.7818608E-02  0.1093470E+00
         21   -1    0    0  501  502  0.00000000000E+00  0.00000000000E+00  0.15083143726E+01  0.15083143726E+01  0.00000000000E+00 0. -1.
         13   -1    0    0    0    0 -0.00000000000E+00 -0.00000000000E+00 -0.10000000000E+04  0.10000000000E+04  0.00000000000E+00 0.  1.
    9000005    2    1    2  501    0  0.27199663641E+02 -0.22813091605E+02 -0.70099145554E+03  0.70189749055E+03  0.32874985476E+01 0.  0.
         13    1    3    3    0    0  0.55186502480E+01 -0.58450181854E+01 -0.17920881856E+03  0.17938901970E+03  0.00000000000E+00 0.  1.
          1    1    3    3  501    0  0.21681013393E+02 -0.16968073420E+02 -0.52178263698E+03  0.52250847085E+03  0.00000000000E+00 0.  1.
         -1    1    1    2    0  502 -0.27199663641E+02  0.22813091605E+02 -0.29750023009E+03  0.29961082383E+03  0.00000000000E+00 0. -1.
<mgrwt>
<rscale>  1 0.30000000E+03</rscale>
<asrwt>0</asrwt>
<pdfrwt beam="1">  1       21 0.54847911E-02 0.30000000E+03</pdfrwt>
<pdfrwt beam="2">0</pdfrwt>
<totfact> 0.24590619E+04</totfact>
</mgrwt>
</event>
<event>
 6    1  0.1284012E-001  0.3000000E+03  0.7818608E-02  0.1093470E+00
         21   -1    0    0  501  502  0.00000000000E+00  0.00000000000E+00  0.68408491363E+01  0.68408491363E+01  0.00000000000E+00 0. -1.
         13   -1    0    0    0    0 -0.00000000000E+00 -0.00000000000E+00 -0.10000000000E+04  0.10000000000E+04  0.00000000000E+00 0.  1.
    9000005    2    1    2  501    0 -0.52048106570E+02 -0.27790167202E+02 -0.84916518971E+03  0.85122735474E+03  0.50190880824E+01 0.  0.
         13    1    3    3    0    0 -0.49329139121E+02 -0.27333214095E+02 -0.81707631531E+03  0.81902025225E+03  0.00000000000E+00 0.  1.
          3    1    3    3  501    0 -0.27189674493E+01 -0.45695310693E+00 -0.32088874405E+02  0.32207102488E+02  0.00000000000E+00 0.  1.
         -1    1    1    2    0  502  0.52048106570E+02  0.27790167202E+02 -0.14399396115E+03  0.15561349440E+03  0.00000000000E+00 0. -1.
<mgrwt>
<rscale>  1 0.30000000E+03</rscale>
<asrwt>0</asrwt>
<pdfrwt beam="1">  1       21 0.24875867E-01 0.30000000E+03</pdfrwt>
<pdfrwt beam="2">0</pdfrwt>
<totfact> 0.15748607E+03</totfact>
</mgrwt>
</event>
<event>
 6    1  0.1284012E-001  0.3000000E+03  0.7818608E-02  0.1093470E+00
         21   -1    0    0  501  502  0.00000000000E+00  0.00000000000E+00  0.10256942910E+01  0.10256942910E+01  0.00000000000E+00 0. -1.
         13   -1    0    0    0    0 -0.00000000000E+00 -0.00000000000E+00 -0.10000000000E+04  0.10000000000E+04  0.00000000000E+00 0.  1.
    9000005    2    1    2  501    0 -0.14961784917E+02  0.27158430969E+02 -0.62257156749E+03  0.62334797887E+03  0.24312021904E+01 0.  0.
         13    1    3    3    0    0 -0.33178787690E+00  0.15538556056E+01 -0.37643159902E+02  0.37676677639E+02  0.00000000000E+00 0.  1.
          1    1    3    3  501    0 -0.14629997040E+02  0.25604575364E+02 -0.58492840758E+03  0.58567130124E+03  0.00000000000E+00 0.  1.
         -3    1    1    2    0  502  0.14961784917E+02 -0.27158430969E+02 -0.37640273822E+03  0.37767771542E+03  0.00000000000E+00 0. -1.
<mgrwt>
<rscale>  1 0.30000000E+03</rscale>
<asrwt>0</asrwt>
<pdfrwt beam="1">  1       21 0.37298053E-02 0.30000000E+03</pdfrwt>
<pdfrwt beam="2">0</pdfrwt>
<totfact> 0.47294146E+04</totfact>
</mgrwt>
</event>
<event>
 6    1  0.1284012E-001  0.3000000E+03  0.7818608E-02  0.1093470E+00
         21   -1    0    0  501  502  0.00000000000E+00  0.00000000000E+00  0.29433505140E+01  0.29433505140E+01  0.00000000000E+00 0. -1.
         13   -1    0    0    0    0 -0.00000000000E+00 -0.00000000000E+00 -0.10000000000E+04  0.10000000000E+04  0.00000000000E+00 0.  1.
    9000005    2    1    2  501    0  0.15527630735E+02 -0.32436530540E+02 -0.87214811242E+03  0.87296112687E+03  0.11205499126E+02 0.  0.
         13    1    3    3    0    0  0.86191829713E+01 -0.70576219645E+01 -0.21802324245E+03  0.21830766040E+03  0.00000000000E+00 0.  1.
          3    1    3    3  501    0  0.69084477639E+01 -0.25378908576E+02 -0.65412486997E+03  0.65465346647E+03  0.00000000000E+00 0.  1.
         -1    1    1    2    0  502 -0.15527630735E+02  0.32436530540E+02 -0.12490853707E+03  0.12998222364E+03  0.00000000000E+00 0. -1.
<mgrwt>
<rscale>  1 0.30000000E+03</rscale>
<asrwt>0</asrwt>
<pdfrwt beam="1">  1       21 0.10703115E-01 0.30000000E+03</pdfrwt>
<pdfrwt beam="2">0</pdfrwt>
<totfact> 0.76175112E+03</totfact>
</mgrwt>
</event>
<event>
 6    1  0.1284012E-001  0.3000000E+03  0.7818608E-02  0.1093470E+00
         21   -1    0    0  501  502  0.00000000000E+00  0.00000000000E+00  0.14996580263E+01  0.14996580263E+01  0.00000000000E+00 0. -1.
         13   -1    0    0    0    0 -0.00000000000E+00 -0.00000000000E+00 -0.10000000000E+04  0.10000000000E+04  0.00000000000E+00 0.  1.
    9000005    2    1    2  501    0  0.21564162134E+02 -0.22020809036E+02 -0.80166467808E+03  0.80226560546E+03  0.37304843254E+01 0.  0.
         13    1    3    3    0    0  0.15218298746E+02 -0.17108533524E+02 -0.62344049401E+03  0.62386084034E+03  0.00000000000E+00 0.  1.
          3    1    3    3  501    0  0.63458633884E+01 -0.49122755120E+01 -0.17822418407E+03  0.17840476513E+03  0.00000000000E+00 0.  1.
         -3    1    1    2    0  502 -0.21564162134E+02  0.22020809036E+02 -0.19683566390E+03  0.19923405256E+03  0.00000000000E+00 0. -1.
<mgrwt>
<rscale>  1 0.30000000E+03</rscale>
<asrwt>0</asrwt>
<pdfrwt beam="1">  1       21 0.54533134E-02 0.30000000E+03</pdfrwt>
<pdfrwt beam="2">0</pdfrwt>
<totfact> 0.24834405E+04</totfact>
</mgrwt>
</event>
<event>
 6    1  0.1284012E-001  0.3000000E+03  0.7818608E-02  0.1093470E+00
         21   -1    0    0  501  502  0.00000000000E+00  0.00000000000E+00  0.52462875253E+01  0.52462875253E+01  0.00000000000E+00 0. -1.
         13   -1    0    0    0    0 -0.00000000000E+00 -0.00000000000E+00 -0.10000000000E+04  0.10000000000E+04  0.00000000000E+00 0.  1.
    9000005    2    1    2  501    0 -0.73675675456E+01  0.36320855457E+02 -0.92888294797E+03  0.92966558094E+03  0.90042071600E+01 0.  0.
         13    1    3    3    0    0 -0.51974558510E+01  0.22277904336E+02 -0.46143426080E+03  0.46200096927E+03  0.00000000000E+00 0.  1.
          3    1    3    3  501    0 -0.21701116946E+01  0.14042951121E+02 -0.46744868718E+03  0.46766461167E+03  0.00000000000E+00 0.  1.
         -3    1    1    2    0  502  0.73675675456E+01 -0.36320855457E+02 -0.65870764500E+02  0.75580706589E+02  0.00000000000E+00 0. -1.
<mgrwt>
<rscale>  1 0.30000000E+03</rscale>
<asrwt>0</asrwt>
<pdfrwt beam="1">  1       21 0.19077449E-01 0.30000000E+03</pdfrwt>
<pdfrwt beam="2">0</pdfrwt>
<totfact> 0.26247670E+03</totfact>
</mgrwt>
</event>
<event>
 6    1  0.1284012E-001  0.3000000E+03  0.7818608E-02  0.1093470E+00
         21   -1    0    0  501  502  0.00000000000E+00  0.00000000000E+00  0.40785608618E+01  0.40785608618E+01  0.00000000000E+00 0. -1.
         13   -1    0    0    0    0 -0.00000000000E+00 -0.00000000000E+00 -0.10000000000E+04  0.10000000000E+04  0.00000000000E+00 0.  1.
    9000005    2    1    2  501    0 -0.28509633644E+02  0.38284589237E+02 -0.83127334653E+03  0.83265072362E+03  0.36526568216E+01 0.  0.
         13    1    3    3    0    0 -0.25392668756E+02  0.31936196892E+02 -0.70916504153E+03  0.71033778192E+03  0.00000000000E+00 0.  1.
          1    1    3    3  501    0 -0.31169648885E+01  0.63483923448E+01 -0.12210830500E+03  0.12231294169E+03  0.00000000000E+00 0.  1.
         -1    1    1    2    0  502  0.28509633644E+02 -0.38284589237E+02 -0.16464809261E+03  0.17142783724E+03  0.00000000000E+00 0. -1.
<mgrwt>
<rscale>  1 0.30000000E+03</rscale>
<asrwt>0</asrwt>
<pdfrwt beam="1">  1       21 0.14831162E-01 0.30000000E+03</pdfrwt>
<pdfrwt beam="2">0</pdfrwt>
<totfact> 0.42051665E+03</totfact>
</mgrwt>
</event>
<event>
 6    1  0.1284012E-001  0.3000000E+03  0.7818608E-02  0.1093470E+00
         21   -1    0    0  501  502  0.00000000000E+00  0.00000000000E+00  0.36589949603E+01  0.36589949603E+01  0.00000000000E+00 0. -1.
         13   -1    0    0    0    0 -0.00000000000E+00 -0.00000000000E+00 -0.10000000000E+04  0.10000000000E+04  0.00000000000E+00 0.  1.
    9000005    2    1    2  501    0 -0.29591313141E+02  0.38282528303E+02 -0.79915529133E+03  0.80062352151E+03  0.27650954000E+01 0.  0.
         13    1    3    3    0    0 -0.24012016487E+02  0.32369016558E+02 -0.67550447358E+03  0.67670571447E+03  0.00000000000E+00 0.  1.
          1    1    3    3  501    0 -0.55792966546E+01  0.59135117446E+01 -0.12365081775E+03  0.12391780705E+03  0.00000000000E+00 0.  1.
         -1    1    1    2    0  502  0.29591313141E+02 -0.38282528303E+02 -0.19718571371E+03  0.20303547345E+03  0.00000000000E+00 0. -1.
<mgrwt>
<rscale>  1 0.30000000E+03</rscale>
<asrwt>0</asrwt>
<pdfrwt beam="1">  1       21 0.13305464E-01 0.30000000E+03</pdfrwt>
<pdfrwt beam="2">0</pdfrwt>
<totfact> 0.51339017E+03</totfact>
</mgrwt>
</event>
<event>
 6    1  0.1284012E-001  0.3000000E+03  0.7818608E-02  0.1093470E+00
         21   -1    0    0  501  502  0.00000000000E+00  0.00000000000E+00  0.97179287763E+00  0.97179287763E+00  0.00000000000E+00 0. -1.
         13   -1    0    0    0    0 -0.00000000000E+00 -0.00000000000E+00 -0.10000000000E+04  0.10000000000E+04  0.00000000000E+00 0.  1.
    9000005    2    1    2  501    0  0.30806563205E+02 -0.16817254722E+01 -0.56317782099E+03  0.56403079957E+03  0.31003671408E+01 0.  0.
         13    1    3    3    0    0  0.24502134300E+02 -0.79313935590E-01 -0.44653274042E+03  0.44720448247E+03  0.00000000000E+00 0.  1.
          1    1    3    3  501    0  0.63044289050E+01 -0.16024115366E+01 -0.11664508057E+03  0.11682631710E+03  0.00000000000E+00 0.  1.
         -3    1    1    2    0  502 -0.30806563205E+02  0.16817254722E+01 -0.43585038614E+03  0.43694099331E+03  0.00000000000E+00 0. -1.
<mgrwt>
<rscale>  1 0.30000000E+03</rscale>
<asrwt>0</asrwt>
<pdfrwt beam="1">  1       21 0.35337997E-02 0.30000000E+03</pdfrwt>
<pdfrwt beam="2">0</pdfrwt>
<totfact> 0.51776534E+04</totfact>
</mgrwt>
</event>
<event>
 6    1  0.1284012E-001  0.3000000E+03  0.7818608E-02  0.1093470E+00
         21   -1    0    0  501  502  0.00000000000E+00  0.00000000000E+00  0.40362013961E+01  0.40362013961E+01  0.00000000000E+00 0. -1.
         13   -1    0    0    0    0 -0.00000000000E+00 -0.00000000000E+00 -0.10000000000E+04  0.10000000000E+04  0.00000000000E+00 0.  1.
    9000005    2    1    2  501    0 -0.15628749205E+02 -0.43330324512E+02 -0.84359667256E+03  0.84485857758E+03  0.29825050814E+01 0.  0.
         13    1    3    3    0    0 -0.10585565494E+02 -0.25051238468E+02 -0.50005587757E+03  0.50079486763E+03  0.00000000000E+00 0.  1.
          1    1    3    3  501    0 -0.50431837114E+01 -0.18279086044E+02 -0.34354079499E+03  0.34406370995E+03  0.00000000000E+00 0.  1.
         -3    1    1    2    0  502  0.15628749205E+02  0.43330324512E+02 -0.15236712604E+03  0.15917762381E+03  0.00000000000E+00 0. -1.
<mgrwt>
<rscale>  1 0.30000000E+03</rscale>
<asrwt>0</asrwt>
<pdfrwt beam="1">  1       21 0.14677127E-01 0.30000000E+03</pdfrwt>
<pdfrwt beam="2">0</pdfrwt>
<totfact> 0.42870566E+03</totfact>
</mgrwt>
</event>
<event>
 6    1  0.1284012E-001  0.3000000E+03  0.7818608E-02  0.1093470E+00
         21   -1    0    0  501  502  0.00000000000E+00  0.00000000000E+00  0.15136364126E+01  0.15136364126E+01  0.00000000000E+00 0. -1.
         13   -1    0    0    0    0 -0.00000000000E+00 -0.00000000000E+00 -0.10000000000E+04  0.10000000000E+04  0.00000000000E+00 0.  1.
    9000005    2    1    2  501    0 -0.82324918341E+01 -0.36701741883E+02 -0.62461438944E+03  0.62575434533E+03  0.32516810682E+01 0.  0.
         13    1    3    3    0    0 -0.18831719259E+01 -0.73428946741E+01 -0.10588638398E+03  0.10615738670E+03  0.00000000000E+00 0.  1.
          1    1    3    3  501    0 -0.63493199081E+01 -0.29358847209E+02 -0.51872800545E+03  0.51959695862E+03  0.00000000000E+00 0.  1.
         -1    1    1    2    0  502  0.82324918341E+01  0.36701741883E+02 -0.37387197415E+03  0.37575929108E+03  0.00000000000E+00 0. -1.
<mgrwt>
<rscale>  1 0.30000000E+03</rscale>
<asrwt>0</asrwt>
<pdfrwt beam="1">  1       21 0.55041440E-02 0.30000000E+03</pdfrwt>
<pdfrwt beam="2">0</pdfrwt>
<totfact> 0.24442562E+04</totfact>
</mgrwt>
</event>
<event>
 6    1  0.1284012E-001  0.3000000E+03  0.7818608E-02  0.1093470E+00
         21   -1    0    0  501  502  0.00000000000E+00  0.00000000000E+00  0.14796057308E+01  0.14796057308E+01  0.00000000000E+00 0. -1.
         13   -1    0    0    0    0 -0.00000000000E+00 -0.00000000000E+00 -0.10000000000E+04  0.10000000000E+04  0.00000000000E+00 0.  1.
    9000005    2    1    2  501    0  0.24917164146E+02 -0.28685719317E+02 -0.42678913667E+03  0.42848713939E+03  0.29199118833E+01 0.  0.
         13    1    3    3    0    0  0.77010292848E+01 -0.76053544915E+01 -0.11022110774E+03  0.11075125218E+03  0.00000000000E+00 0.  1.
          3    1    3    3  501    0  0.17216134861E+02 -0.21080364826E+02 -0.31656802893E+03  0.31773588721E+03  0.00000000000E+00 0.  1.
         -1    1    1    2    0  502 -0.24917164146E+02  0.28685719317E+02 -0.57173125760E+03  0.57299246634E+03  0.00000000000E+00 0. -1.
<mgrwt>
<rscale>  1 0.30000000E+03</rscale>
<asrwt>0</asrwt>
<pdfrwt beam="1">  1       21 0.53803958E-02 0.30000000E+03</pdfrwt>
<pdfrwt beam="2">0</pdfrwt>
<totfact> 0.25413659E+04</totfact>
</mgrwt>
</event>
<event>
 6    1  0.1284012E-001  0.3000000E+03  0.7818608E-02  0.1093470E+00
         21   -1    0    0  501  502  0.00000000000E+00  0.00000000000E+00  0.23126354441E+01  0.23126354441E+01  0.00000000000E+00 0. -1.
         13   -1    0    0    0    0 -0.00000000000E+00 -0.00000000000E+00 -0.10000000000E+04  0.10000000000E+04  0.00000000000E+00 0.  1.
    9000005    2    1    2  501    0 -0.88456542436E+01 -0.47130697041E+02 -0.50039920355E+03  0.50271773627E+03  0.51196919773E+01 0.  0.
         13    1    3    3    0    0 -0.88852893137E+01 -0.35732406830E+02 -0.37837705369E+03  0.38016436975E+03  0.00000000000E+00 0.  1.
          1    1    3    3  501    0  0.39635070131E-01 -0.11398290211E+02 -0.12202214986E+03  0.12255336653E+03  0.00000000000E+00 0.  1.
         -1    1    1    2    0  502  0.88456542436E+01  0.47130697041E+02 -0.49728816100E+03  0.49959489917E+03  0.00000000000E+00 0. -1.
<mgrwt>
<rscale>  1 0.30000000E+03</rscale>
<asrwt>0</asrwt>
<pdfrwt beam="1">  1       21 0.84096012E-02 0.30000000E+03</pdfrwt>
<pdfrwt beam="2">0</pdfrwt>
<totfact> 0.11699700E+04</totfact>
</mgrwt>
</event>
<event>
 6    1  0.1284012E-001  0.3000000E+03  0.7818608E-02  0.1093470E+00
         21   -1    0    0  501  502  0.00000000000E+00  0.00000000000E+00  0.16258059782E+01  0.16258059782E+01  0.00000000000E+00 0. -1.
         13   -1    0    0    0    0 -0.00000000000E+00 -0.00000000000E+00 -0.10000000000E+04  0.10000000000E+04  0.00000000000E+00 0.  1.
    9000005    2    1    2  501    0  0.20443735699E+02 -0.29934174398E+02 -0.71594295436E+03  0.71687783625E+03  0.50514439359E+01 0.  0.
         13    1    3    3    0    0  0.18537906095E+02 -0.29132831722E+02 -0.67681138206E+03  0.67769168708E+03  0.00000000000E+00 0.  1.
          1    1    3    3  501    0  0.19058296033E+01 -0.80134267548E+00 -0.39131572291E+02  0.39186149167E+02  0.00000000000E+00 0.  1.
         -1    1    1    2    0  502 -0.20443735699E+02  0.29934174398E+02 -0.28243123967E+03  0.28474796973E+03  0.00000000000E+00 0. -1.
<mgrwt>
<rscale>  1 0.30000000E+03</rscale>
<asrwt>0</asrwt>
<pdfrwt beam="1">  1       21 0.59120342E-02 0.30000000E+03</pdfrwt>
<pdfrwt beam="2">0</pdfrwt>
<totfact> 0.21615142E+04</totfact>
</mgrwt>
</event>
<event>
 6    1  0.1284012E-001  0.3000000E+03  0.7818608E-02  0.1093470E+00
         21   -1    0    0  501  502  0.00000000000E+00  0.00000000000E+00  0.13870699309E+01  0.13870699309E+01  0.00000000000E+00 0. -1.
         13   -1    0    0    0    0 -0.00000000000E+00 -0.00000000000E+00 -0.10000000000E+04  0.10000000000E+04  0.00000000000E+00 0.  1.
    9000005    2    1    2  501    0  0.33541648781E+02  0.14689782695E+02 -0.58436524857E+03  0.58552414354E+03  0.38661368435E+01 0.  0.
         13    1    3    3    0    0  0.46293614548E+01  0.27532026955E+01 -0.68484349395E+02  0.68695831203E+02  0.00000000000E+00 0.  1.
          3    1    3    3  501    0  0.28912287326E+02  0.11936579999E+02 -0.51588089917E+03  0.51682831233E+03  0.00000000000E+00 0.  1.
         -3    1    1    2    0  502 -0.33541648781E+02 -0.14689782695E+02 -0.41424768150E+03  0.41586292639E+03  0.00000000000E+00 0. -1.
<mgrwt>
<rscale>  1 0.30000000E+03</rscale>
<asrwt>0</asrwt>
<pdfrwt beam="1">  1       21 0.50439013E-02 0.30000000E+03</pdfrwt>
<pdfrwt beam="2">0</pdfrwt>
<totfact> 0.28378482E+04</totfact>
</mgrwt>
</event>
<event>
 6    1  0.1284012E-001  0.3000000E+03  0.7818608E-02  0.1093470E+00
         21   -1    0    0  501  502  0.00000000000E+00  0.00000000000E+00  0.30978438172E+01  0.30978438172E+01  0.00000000000E+00 0. -1.
         13   -1    0    0    0    0 -0.00000000000E+00 -0.00000000000E+00 -0.10000000000E+04  0.10000000000E+04  0.00000000000E+00 0.  1.
    9000005    2    1    2  501    0 -0.25425872885E+02 -0.35442730467E+02 -0.80968654304E+03  0.81086790869E+03  0.34358706249E+01 0.  0.
         13    1    3    3    0    0 -0.15384954889E+02 -0.20854761053E+02 -0.44993279818E+03  0.45067853374E+03  0.00000000000E+00 0.  1.
          3    1    3    3  501    0 -0.10040917996E+02 -0.14587969414E+02 -0.35975374486E+03  0.36018937495E+03  0.00000000000E+00 0.  1.
         -1    1    1    2    0  502  0.25425872885E+02  0.35442730467E+02 -0.18721561314E+03  0.19222993513E+03  0.00000000000E+00 0. -1.
<mgrwt>
<rscale>  1 0.30000000E+03</rscale>
<asrwt>0</asrwt>
<pdfrwt beam="1">  1       21 0.11264910E-01 0.30000000E+03</pdfrwt>
<pdfrwt beam="2">0</pdfrwt>
<totfact> 0.69477713E+03</totfact>
</mgrwt>
</event>
<event>
 6    1  0.1284012E-001  0.3000000E+03  0.7818608E-02  0.1093470E+00
         21   -1    0    0  501  502  0.00000000000E+00  0.00000000000E+00  0.13450875634E+01  0.13450875634E+01  0.00000000000E+00 0. -1.
         13   -1    0    0    0    0 -0.00000000000E+00 -0.00000000000E+00 -0.10000000000E+04  0.10000000000E+04  0.00000000000E+00 0.  1.
    9000005    2    1    2  501    0 -0.17763598320E+02 -0.27281475373E+02 -0.72786806585E+03  0.72860832691E+03  0.42835083884E+01 0.  0.
         13    1    3    3    0    0 -0.96269707600E+01 -0.12019273282E+02 -0.30939884391E+03  0.30978183631E+03  0.00000000000E+00 0.  1.
          1    1    3    3  501    0 -0.81366275602E+01 -0.15262202091E+02 -0.41846922194E+03  0.41882649060E+03  0.00000000000E+00 0.  1.
         -3    1    1    2    0  502  0.17763598320E+02  0.27281475373E+02 -0.27078684659E+03  0.27273676065E+03  0.00000000000E+00 0. -1.
<mgrwt>
<rscale>  1 0.30000000E+03</rscale>
<asrwt>0</asrwt>
<pdfrwt beam="1">  1       21 0.48912378E-02 0.30000000E+03</pdfrwt>
<pdfrwt beam="2">0</pdfrwt>
<totfact> 0.29904487E+04</totfact>
</mgrwt>
</event>
<event>
 6    1  0.1284012E-001  0.3000000E+03  0.7818608E-02  0.1093470E+00
         21   -1    0    0  501  502  0.00000000000E+00  0.00000000000E+00  0.32153153688E+01  0.32153153688E+01  0.00000000000E+00 0. -1.
         13   -1    0    0    0    0 -0.00000000000E+00 -0.00000000000E+00 -0.10000000000E+04  0.10000000000E+04  0.00000000000E+00 0.  1.
    9000005    2    1    2  501    0  0.30773510488E+02 -0.10955382314E+02 -0.90833291795E+03  0.90892457150E+03  0.28561344602E+01 0.  0.
         13    1    3    3    0    0  0.92032732586E+01 -0.19107976256E+01 -0.26320659635E+03  0.26337437944E+03  0.00000000000E+00 0.  1.
          3    1    3    3  501    0  0.21570237230E+02 -0.90445846883E+01 -0.64512632160E+03  0.64555019206E+03  0.00000000000E+00 0.  1.
         -3    1    1    2    0  502 -0.30773510488E+02  0.10955382314E+02 -0.88451766681E+02  0.94290743864E+02  0.00000000000E+00 0. -1.
<mgrwt>
<rscale>  1 0.30000000E+03</rscale>
<asrwt>0</asrwt>
<pdfrwt beam="1">  1       21 0.11692081E-01 0.30000000E+03</pdfrwt>
<pdfrwt beam="2">0</pdfrwt>
<totfact> 0.64960489E+03</totfact>
</mgrwt>
</event>
<event>
 6    1  0.1284012E-001  0.3000000E+03  0.7818608E-02  0.1093470E+00
         21   -1    0    0  501  502  0.00000000000E+00  0.00000000000E+00  0.35001725714E+01  0.35001725714E+01  0.00000000000E+00 0. -1.
         13   -1    0    0    0    0 -0.00000000000E+00 -0.00000000000E+00 -0.10000000000E+04  0.10000000000E+04  0.00000000000E+00 0.  1.
    9000005    2    1    2  501    0  0.48385133992E+02 -0.28682804744E+02 -0.65281447394E+03  0.65524244232E+03  0.34779805176E+01 0.  0.
         13    1    3    3    0    0  0.14346585316E+02 -0.80396009222E+01 -0.17352709721E+03  0.17430465616E+03  0.00000000000E+00 0.  1.
          1    1    3    3  501    0  0.34038548676E+02 -0.20643203822E+02 -0.47928737673E+03  0.48093778616E+03  0.00000000000E+00 0.  1.
         -1    1    1    2    0  502 -0.48385133992E+02  0.28682804744E+02 -0.34368535349E+03  0.34825773025E+03  0.00000000000E+00 0. -1.
<mgrwt>
<rscale>  1 0.30000000E+03</rscale>
<asrwt>0</asrwt>
<pdfrwt beam="1">  1       21 0.12727927E-01 0.30000000E+03</pdfrwt>
<pdfrwt beam="2">0</pdfrwt>
<totfact> 0.55673055E+03</totfact>
</mgrwt>
</event>
<event>
 6    1  0.1284012E-001  0.3000000E+03  0.7818608E-02  0.1093470E+00
         21   -1    0    0  501  502  0.00000000000E+00  0.00000000000E+00  0.11562871281E+01  0.11562871281E+01  0.00000000000E+00 0. -1.
         13   -1    0    0    0    0 -0.00000000000E+00 -0.00000000000E+00 -0.10000000000E+04  0.10000000000E+04  0.00000000000E+00 0.  1.
    9000005    2    1    2  501    0  0.19581750146E+02  0.25493586340E+02 -0.65320760866E+03  0.65402852330E+03  0.63056641022E+01 0.  0.
         13    1    3    3    0    0  0.18274067162E+01  0.10339191216E+01 -0.77161923059E+02  0.77190483703E+02  0.00000000000E+00 0.  1.
          3    1    3    3  501    0  0.17754343430E+02  0.24459667218E+02 -0.57604568560E+03  0.57683803960E+03  0.00000000000E+00 0.  1.
         -1    1    1    2    0  502 -0.19581750146E+02 -0.25493586340E+02 -0.34563610421E+03  0.34712776382E+03  0.00000000000E+00 0. -1.
<mgrwt>
<rscale>  1 0.30000000E+03</rscale>
<asrwt>0</asrwt>
<pdfrwt beam="1">  1       21 0.42046893E-02 0.30000000E+03</pdfrwt>
<pdfrwt beam="2">0</pdfrwt>
<totfact> 0.38653551E+04</totfact>
</mgrwt>
</event>
<event>
 6    1  0.1284012E-001  0.3000000E+03  0.7818608E-02  0.1093470E+00
         21   -1    0    0  501  502  0.00000000000E+00  0.00000000000E+00  0.16445950888E+01  0.16445950888E+01  0.00000000000E+00 0. -1.
         13   -1    0    0    0    0 -0.00000000000E+00 -0.00000000000E+00 -0.10000000000E+04  0.10000000000E+04  0.00000000000E+00 0.  1.
    9000005    2    1    2  501    0  0.80142207545E+01 -0.34256403963E+02 -0.74701457275E+03  0.74785345486E+03  0.40359756579E+01 0.  0.
         13    1    3    3    0    0  0.82627663673E+01 -0.30726366987E+02 -0.68389562933E+03  0.68463538818E+03  0.00000000000E+00 0.  1.
          3    1    3    3  501    0 -0.24854561277E+00 -0.35300369758E+01 -0.63118943421E+02  0.63218066678E+02  0.00000000000E+00 0.  1.
         -3    1    1    2    0  502 -0.80142207545E+01  0.34256403963E+02 -0.25134083216E+03  0.25379114023E+03  0.00000000000E+00 0. -1.
<mgrwt>
<rscale>  1 0.30000000E+03</rscale>
<asrwt>0</asrwt>
<pdfrwt beam="1">  1       21 0.59803584E-02 0.30000000E+03</pdfrwt>
<pdfrwt beam="2">0</pdfrwt>
<totfact> 0.21191156E+04</totfact>
</mgrwt>
</event>
<event>
 6    1  0.1284012E-001  0.3000000E+03  0.7818608E-02  0.1093470E+00
         21   -1    0    0  501  502  0.00000000000E+00  0.00000000000E+00  0.22709711774E+01  0.22709711774E+01  0.00000000000E+00 0. -1.
         13   -1    0    0    0    0 -0.00000000000E+00 -0.00000000000E+00 -0.10000000000E+04  0.10000000000E+04  0.00000000000E+00 0.  1.
    9000005    2    1    2  501    0 -0.33302201496E+02 -0.87803497517E+01 -0.84357565991E+03  0.84431720480E+03  0.80942670530E+01 0.  0.
         13    1    3    3    0    0 -0.89586100104E+01 -0.33003470591E+01 -0.15851097250E+03  0.15879822853E+03  0.00000000000E+00 0.  1.
          1    1    3    3  501    0 -0.24343591486E+02 -0.54800026927E+01 -0.68506468742E+03  0.68551897627E+03  0.00000000000E+00 0.  1.
         -3    1    1    2    0  502  0.33302201496E+02  0.87803497517E+01 -0.15415336891E+03  0.15795376638E+03  0.00000000000E+00 0. -1.
<mgrwt>
<rscale>  1 0.30000000E+03</rscale>
<asrwt>0</asrwt>
<pdfrwt beam="1">  1       21 0.82580944E-02 0.30000000E+03</pdfrwt>
<pdfrwt beam="2">0</pdfrwt>
<totfact> 0.12080314E+04</totfact>
</mgrwt>
</event>
<event>
 6    1  0.1284012E-001  0.3000000E+03  0.7818608E-02  0.1093470E+00
         21   -1    0    0  501  502  0.00000000000E+00  0.00000000000E+00  0.55089276155E+01  0.55089276155E+01  0.00000000000E+00 0. -1.
         13   -1    0    0    0    0 -0.00000000000E+00 -0.00000000000E+00 -0.10000000000E+04  0.10000000000E+04  0.00000000000E+00 0.  1.
    9000005    2    1    2  501    0  0.26942980351E+02  0.57081195857E+02 -0.76105377255E+03  0.76368841553E+03  0.57414452547E+01 0.  0.
         13    1    3    3    0    0  0.15924082972E+01  0.23169694678E+01 -0.49715047970E+02  0.49794478674E+02  0.00000000000E+00 0.  1.
          3    1    3    3  501    0  0.25350572053E+02  0.54764226389E+02 -0.71133872458E+03  0.71389393686E+03  0.00000000000E+00 0.  1.
         -3    1    1    2    0  502 -0.26942980351E+02 -0.57081195857E+02 -0.23343729984E+03  0.24182051209E+03  0.00000000000E+00 0. -1.
<mgrwt>
<rscale>  1 0.30000000E+03</rscale>
<asrwt>0</asrwt>
<pdfrwt beam="1">  1       21 0.20032506E-01 0.30000000E+03</pdfrwt>
<pdfrwt beam="2">0</pdfrwt>
<totfact> 0.23917947E+03</totfact>
</mgrwt>
</event>
<event>
 6    1  0.1284012E-001  0.3000000E+03  0.7818608E-02  0.1093470E+00
         21   -1    0    0  501  502  0.00000000000E+00  0.00000000000E+00  0.17615436021E+01  0.17615436021E+01  0.00000000000E+00 0. -1.
         13   -1    0    0    0    0 -0.00000000000E+00 -0.00000000000E+00 -0.10000000000E+04  0.10000000000E+04  0.00000000000E+00 0.  1.
    9000005    2    1    2  501    0  0.10030388549E+02  0.37883186437E+02 -0.67634797517E+03  0.67749432908E+03  0.40296289343E+01 0.  0.
         13    1    3    3    0    0  0.44876120273E+00  0.65124700572E+00 -0.25196498103E+02  0.25208907670E+02  0.00000000000E+00 0.  1.
          1    1    3    3  501    0  0.95816273462E+01  0.37231939431E+02 -0.65115147707E+03  0.65228542141E+03  0.00000000000E+00 0.  1.
         -3    1    1    2    0  502 -0.10030388549E+02 -0.37883186437E+02 -0.32189048122E+03  0.32426721452E+03  0.00000000000E+00 0. -1.
<mgrwt>
<rscale>  1 0.30000000E+03</rscale>
<asrwt>0</asrwt>
<pdfrwt beam="1">  1       21 0.64056266E-02 0.30000000E+03</pdfrwt>
<pdfrwt beam="2">0</pdfrwt>
<totfact> 0.18820444E+04</totfact>
</mgrwt>
</event>
<event>
 6    1  0.1284012E-001  0.3000000E+03  0.7818608E-02  0.1093470E+00
         21   -1    0    0  501  502  0.00000000000E+00  0.00000000000E+00  0.33477952270E+01  0.33477952270E+01  0.00000000000E+00 0. -1.
         13   -1    0    0    0    0 -0.00000000000E+00 -0.00000000000E+00 -0.10000000000E+04  0.10000000000E+04  0.00000000000E+00 0.  1.
    9000005    2    1    2  501    0 -0.17668029937E+02  0.27251209525E+02 -0.91335584197E+03  0.91394381456E+03  0.44288163517E+01 0.  0.
         13    1    3    3    0    0 -0.12598010895E+02  0.17105323616E+02 -0.54673529434E+03  0.54714786306E+03  0.00000000000E+00 0.  1.
          3    1    3    3  501    0 -0.50700190424E+01  0.10145885909E+02 -0.36662054762E+03  0.36679595150E+03  0.00000000000E+00 0.  1.
         -3    1    1    2    0  502  0.17668029937E+02 -0.27251209525E+02 -0.83296362807E+02  0.89403980668E+02  0.00000000000E+00 0. -1.
<mgrwt>
<rscale>  1 0.30000000E+03</rscale>
<asrwt>0</asrwt>
<pdfrwt beam="1">  1       21 0.12173826E-01 0.30000000E+03</pdfrwt>
<pdfrwt beam="2">0</pdfrwt>
<totfact> 0.60373241E+03</totfact>
</mgrwt>
</event>
<event>
 6    1  0.1284012E-001  0.3000000E+03  0.7818608E-02  0.1093470E+00
         21   -1    0    0  501  502  0.00000000000E+00  0.00000000000E+00  0.52392487222E+01  0.52392487222E+01  0.00000000000E+00 0. -1.
         13   -1    0    0    0    0 -0.00000000000E+00 -0.00000000000E+00 -0.10000000000E+04  0.10000000000E+04  0.00000000000E+00 0.  1.
    9000005    2    1    2  501    0  0.19386720871E+02  0.37666555531E+02 -0.90483566493E+03  0.90583534786E+03  0.39347876656E+01 0.  0.
         13    1    3    3    0    0  0.81959768501E+01  0.18283634407E+02 -0.46249545813E+03  0.46292927550E+03  0.00000000000E+00 0.  1.
          3    1    3    3  501    0  0.11190744021E+02  0.19382921125E+02 -0.44234020680E+03  0.44290607236E+03  0.00000000000E+00 0.  1.
         -3    1    1    2    0  502 -0.19386720871E+02 -0.37666555531E+02 -0.89925086347E+02  0.99403900861E+02  0.00000000000E+00 0. -1.
<mgrwt>
<rscale>  1 0.30000000E+03</rscale>
<asrwt>0</asrwt>
<pdfrwt beam="1">  1       21 0.19051854E-01 0.30000000E+03</pdfrwt>
<pdfrwt beam="2">0</pdfrwt>
<totfact> 0.26314577E+03</totfact>
</mgrwt>
</event>
<event>
 6    1  0.1284012E-001  0.3000000E+03  0.7818608E-02  0.1093470E+00
         21   -1    0    0  501  502  0.00000000000E+00  0.00000000000E+00  0.26357869197E+01  0.26357869197E+01  0.00000000000E+00 0. -1.
         13   -1    0    0    0    0 -0.00000000000E+00 -0.00000000000E+00 -0.10000000000E+04  0.10000000000E+04  0.00000000000E+00 0.  1.
    9000005    2    1    2  501    0 -0.11550146485E+02  0.37155413707E+02 -0.82536987130E+03  0.82629525200E+03  0.38063598629E+01 0.  0.
         13    1    3    3    0    0 -0.10524474431E+01  0.80505119292E+01 -0.18635222860E+03  0.18652900979E+03  0.00000000000E+00 0.  1.
          1    1    3    3  501    0 -0.10497699042E+02  0.29104901778E+02 -0.63901764270E+03  0.63976624221E+03  0.00000000000E+00 0.  1.
         -1    1    1    2    0  502  0.11550146485E+02 -0.37155413707E+02 -0.17199434178E+03  0.17634053492E+03  0.00000000000E+00 0. -1.
<mgrwt>
<rscale>  1 0.30000000E+03</rscale>
<asrwt>0</asrwt>
<pdfrwt beam="1">  1       21 0.95846999E-02 0.30000000E+03</pdfrwt>
<pdfrwt beam="2">0</pdfrwt>
<totfact> 0.92797616E+03</totfact>
</mgrwt>
</event>
<event>
 6    1  0.1284012E-001  0.3000000E+03  0.7818608E-02  0.1093470E+00
         21   -1    0    0  501  502  0.00000000000E+00  0.00000000000E+00  0.75325066252E+01  0.75325066252E+01  0.00000000000E+00 0. -1.
         13   -1    0    0    0    0 -0.00000000000E+00 -0.00000000000E+00 -0.10000000000E+04  0.10000000000E+04  0.00000000000E+00 0.  1.
    9000005    2    1    2  501    0 -0.34673458010E+02  0.38830412765E+01 -0.95748998658E+03  0.95812853227E+03  0.24255436411E+01 0.  0.
         13    1    3    3    0    0 -0.21414607102E+02  0.34716624484E+01 -0.60768968616E+03  0.60807679819E+03  0.00000000000E+00 0.  1.
          1    1    3    3  501    0 -0.13258850908E+02  0.41137882803E+00 -0.34980030042E+03  0.35005173408E+03  0.00000000000E+00 0.  1.
         -1    1    1    2    0  502  0.34673458010E+02 -0.38830412765E+01 -0.34977506797E+02  0.49403974351E+02  0.00000000000E+00 0. -1.
<mgrwt>
<rscale>  1 0.30000000E+03</rscale>
<asrwt>0</asrwt>
<pdfrwt beam="1">  1       21 0.27390991E-01 0.30000000E+03</pdfrwt>
<pdfrwt beam="2">0</pdfrwt>
<totfact> 0.13029218E+03</totfact>
</mgrwt>
</event>
<event>
 6    1  0.1284012E-001  0.3000000E+03  0.7818608E-02  0.1093470E+00
         21   -1    0    0  501  502  0.00000000000E+00  0.00000000000E+00  0.17414169995E+01  0.17414169995E+01  0.00000000000E+00 0. -1.
         13   -1    0    0    0    0 -0.00000000000E+00 -0.00000000000E+00 -0.10000000000E+04  0.10000000000E+04  0.00000000000E+00 0.  1.
    9000005    2    1    2  501    0 -0.56696374440E+01  0.36909124595E+02 -0.72116519826E+03  0.72214318358E+03  0.41359563992E+01 0.  0.
         13    1    3    3    0    0 -0.44850178610E+01  0.19617657832E+02 -0.35919528192E+03  0.35975855575E+03  0.00000000000E+00 0.  1.
          1    1    3    3  501    0 -0.11846195830E+01  0.17291466763E+02 -0.36196991634E+03  0.36238462782E+03  0.00000000000E+00 0.  1.
         -1    1    1    2    0  502  0.56696374440E+01 -0.36909124595E+02 -0.27709338474E+03  0.27959823342E+03  0.00000000000E+00 0. -1.
<mgrwt>
<rscale>  1 0.30000000E+03</rscale>
<asrwt>0</asrwt>
<pdfrwt beam="1">  1       21 0.63324388E-02 0.30000000E+03</pdfrwt>
<pdfrwt beam="2">0</pdfrwt>
<totfact> 0.19198209E+04</totfact>
</mgrwt>
</event>
<event>
 6    1  0.1284012E-001  0.3000000E+03  0.7818608E-02  0.1093470E+00
         21   -1    0    0  501  502  0.00000000000E+00  0.00000000000E+00  0.14019649301E+01  0.14019649301E+01  0.00000000000E+00 0. -1.
         13   -1    0    0    0    0 -0.00000000000E+00 -0.00000000000E+00 -0.10000000000E+04  0.10000000000E+04  0.00000000000E+00 0.  1.
    9000005    2    1    2  501    0  0.15967690307E+02 -0.33820098738E+02 -0.50885583751E+03  0.51023377960E+03  0.23409958709E+01 0.  0.
         13    1    3    3    0    0  0.46629173691E+01 -0.11407611383E+02 -0.17982676545E+03  0.18024855607E+03  0.00000000000E+00 0.  1.
          3    1    3    3  501    0  0.11304772938E+02 -0.22412487355E+02 -0.32902907207E+03  0.32998522352E+03  0.00000000000E+00 0.  1.
         -3    1    1    2    0  502 -0.15967690307E+02  0.33820098738E+02 -0.48974219756E+03  0.49116818533E+03  0.00000000000E+00 0. -1.
<mgrwt>
<rscale>  1 0.30000000E+03</rscale>
<asrwt>0</asrwt>
<pdfrwt beam="1">  1       21 0.50980650E-02 0.30000000E+03</pdfrwt>
<pdfrwt beam="2">0</pdfrwt>
<totfact> 0.27866063E+04</totfact>
</mgrwt>
</event>
<event>
 6    1  0.1284012E-001  0.3000000E+03  0.7818608E-02  0.1093470E+00
         21   -1    0    0  501  502  0.00000000000E+00  0.00000000000E+00  0.14821761090E+01  0.14821761090E+01  0.00000000000E+00 0. -1.
         13   -1    0    0    0    0 -0.00000000000E+00 -0.00000000000E+00 -0.10000000000E+04  0.10000000000E+04  0.00000000000E+00 0.  1.
    9000005    2    1    2  501    0  0.31074700654E+02  0.19865987276E+02 -0.35954888573E+03  0.36144967818E+03  0.31896951633E+01 0.  0.
         13    1    3    3    0    0  0.13215882077E+02  0.94207624861E+01 -0.17140861122E+03  0.17217526624E+03  0.00000000000E+00 0.  1.
          3    1    3    3  501    0  0.17858818577E+02  0.10445224790E+02 -0.18814027451E+03  0.18927441194E+03  0.00000000000E+00 0.  1.
         -3    1    1    2    0  502 -0.31074700654E+02 -0.19865987276E+02 -0.63896893816E+03  0.64003249793E+03  0.00000000000E+00 0. -1.
<mgrwt>
<rscale>  1 0.30000000E+03</rscale>
<asrwt>0</asrwt>
<pdfrwt beam="1">  1       21 0.53897427E-02 0.30000000E+03</pdfrwt>
<pdfrwt beam="2">0</pdfrwt>
<totfact> 0.25338250E+04</totfact>
</mgrwt>
</event>
<event>
 6    1  0.1284012E-001  0.3000000E+03  0.7818608E-02  0.1093470E+00
         21   -1    0    0  501  502  0.00000000000E+00  0.00000000000E+00  0.28051384285E+01  0.28051384285E+01  0.00000000000E+00 0. -1.
         13   -1    0    0    0    0 -0.00000000000E+00 -0.00000000000E+00 -0.10000000000E+04  0.10000000000E+04  0.00000000000E+00 0.  1.
    9000005    2    1    2  501    0 -0.42337956721E+02  0.11894814762E+02 -0.77757536903E+03  0.77882587443E+03  0.35069874294E+01 0.  0.
         13    1    3    3    0    0 -0.32004251814E+02  0.10120383745E+02 -0.57381084659E+03  0.57479177270E+03  0.00000000000E+00 0.  1.
          1    1    3    3  501    0 -0.10333704907E+02  0.17744310170E+01 -0.20376452244E+03  0.20403410172E+03  0.00000000000E+00 0.  1.
         -1    1    1    2    0  502  0.42337956721E+02 -0.11894814762E+02 -0.21961949255E+03  0.22397926400E+03  0.00000000000E+00 0. -1.
<mgrwt>
<rscale>  1 0.30000000E+03</rscale>
<asrwt>0</asrwt>
<pdfrwt beam="1">  1       21 0.10200525E-01 0.30000000E+03</pdfrwt>
<pdfrwt beam="2">0</pdfrwt>
<totfact> 0.83031623E+03</totfact>
</mgrwt>
</event>
<event>
 6    1  0.1284012E-001  0.3000000E+03  0.7818608E-02  0.1093470E+00
         21   -1    0    0  501  502  0.00000000000E+00  0.00000000000E+00  0.10431996900E+01  0.10431996900E+01  0.00000000000E+00 0. -1.
         13   -1    0    0    0    0 -0.00000000000E+00 -0.00000000000E+00 -0.10000000000E+04  0.10000000000E+04  0.00000000000E+00 0.  1.
    9000005    2    1    2  501    0  0.29670398487E+02 -0.12362727611E+02 -0.53410759143E+03  0.53508402061E+03  0.32894223868E+01 0.  0.
         13    1    3    3    0    0  0.25439044515E+02 -0.10197476718E+02 -0.43500316971E+03  0.43586568020E+03  0.00000000000E+00 0.  1.
          1    1    3    3  501    0  0.42313539724E+01 -0.21652508934E+01 -0.99104421720E+02  0.99218340403E+02  0.00000000000E+00 0.  1.
         -3    1    1    2    0  502 -0.29670398487E+02  0.12362727611E+02 -0.46484920888E+03  0.46595917908E+03  0.00000000000E+00 0. -1.
<mgrwt>
<rscale>  1 0.30000000E+03</rscale>
<asrwt>0</asrwt>
<pdfrwt beam="1">  1       21 0.37934614E-02 0.30000000E+03</pdfrwt>
<pdfrwt beam="2">0</pdfrwt>
<totfact> 0.45968894E+04</totfact>
</mgrwt>
</event>
<event>
 6    1  0.1284012E-001  0.3000000E+03  0.7818608E-02  0.1093470E+00
         21   -1    0    0  501  502  0.00000000000E+00  0.00000000000E+00  0.56925332138E+01  0.56925332138E+01  0.00000000000E+00 0. -1.
         13   -1    0    0    0    0 -0.00000000000E+00 -0.00000000000E+00 -0.10000000000E+04  0.10000000000E+04  0.00000000000E+00 0.  1.
    9000005    2    1    2  501    0  0.46929827538E+02 -0.51094418786E+02 -0.69432676670E+03  0.69779406169E+03  0.37209174775E+01 0.  0.
         13    1    3    3    0    0  0.15132019565E+02 -0.17626606253E+02 -0.21688995500E+03  0.21813052937E+03  0.00000000000E+00 0.  1.
          3    1    3    3  501    0  0.31797807973E+02 -0.33467812534E+02 -0.47743681170E+03  0.47966353232E+03  0.00000000000E+00 0.  1.
         -3    1    1    2    0  502 -0.46929827538E+02  0.51094418786E+02 -0.29998070009E+03  0.30789847153E+03  0.00000000000E+00 0. -1.
<mgrwt>
<rscale>  1 0.30000000E+03</rscale>
<asrwt>0</asrwt>
<pdfrwt beam="1">  1       21 0.20700164E-01 0.30000000E+03</pdfrwt>
<pdfrwt beam="2">0</pdfrwt>
<totfact> 0.22464664E+03</totfact>
</mgrwt>
</event>
<event>
 6    1  0.1284012E-001  0.3000000E+03  0.7818608E-02  0.1093470E+00
         21   -1    0    0  501  502  0.00000000000E+00  0.00000000000E+00  0.39801998049E+01  0.39801998049E+01  0.00000000000E+00 0. -1.
         13   -1    0    0    0    0 -0.00000000000E+00 -0.00000000000E+00 -0.10000000000E+04  0.10000000000E+04  0.00000000000E+00 0.  1.
    9000005    2    1    2  501    0  0.36561258831E+02 -0.11835590221E+02 -0.89588976589E+03  0.89672894987E+03  0.52469095898E+01 0.  0.
         13    1    3    3    0    0  0.31069493109E+02 -0.11030271041E+02 -0.79950968744E+03  0.80018917801E+03  0.00000000000E+00 0.  1.
          1    1    3    3  501    0  0.54917657224E+01 -0.80531918002E+00 -0.96380078450E+02  0.96539771865E+02  0.00000000000E+00 0.  1.
         -1    1    1    2    0  502 -0.36561258831E+02  0.11835590221E+02 -0.10013003430E+03  0.10725124993E+03  0.00000000000E+00 0. -1.
<mgrwt>
<rscale>  1 0.30000000E+03</rscale>
<asrwt>0</asrwt>
<pdfrwt beam="1">  1       21 0.14473484E-01 0.30000000E+03</pdfrwt>
<pdfrwt beam="2">0</pdfrwt>
<totfact> 0.43989965E+03</totfact>
</mgrwt>
</event>
<event>
 6    1  0.1284012E-001  0.3000000E+03  0.7818608E-02  0.1093470E+00
         21   -1    0    0  501  502  0.00000000000E+00  0.00000000000E+00  0.10709128441E+01  0.10709128441E+01  0.00000000000E+00 0. -1.
         13   -1    0    0    0    0 -0.00000000000E+00 -0.00000000000E+00 -0.10000000000E+04  0.10000000000E+04  0.00000000000E+00 0.  1.
    9000005    2    1    2  501    0 -0.19321930101E+02  0.25917068186E+02 -0.54063956705E+03  0.54164266421E+03  0.63720345129E+01 0.  0.
         13    1    3    3    0    0 -0.13055067966E+02  0.12844046403E+02 -0.32604307587E+03  0.32655702664E+03  0.00000000000E+00 0.  1.
          1    1    3    3  501    0 -0.62668621353E+01  0.13073021783E+02 -0.21459649119E+03  0.21508563757E+03  0.00000000000E+00 0.  1.
         -3    1    1    2    0  502  0.19321930101E+02 -0.25917068186E+02 -0.45828952010E+03  0.45942824863E+03  0.00000000000E+00 0. -1.
<mgrwt>
<rscale>  1 0.30000000E+03</rscale>
<asrwt>0</asrwt>
<pdfrwt beam="1">  1       21 0.38942367E-02 0.30000000E+03</pdfrwt>
<pdfrwt beam="2">0</pdfrwt>
<totfact> 0.43986942E+04</totfact>
</mgrwt>
</event>
<event>
 6    1  0.1284012E-001  0.3000000E+03  0.7818608E-02  0.1093470E+00
         21   -1    0    0  501  502  0.00000000000E+00  0.00000000000E+00  0.99187126454E+00  0.99187126454E+00  0.00000000000E+00 0. -1.
         13   -1    0    0    0    0 -0.00000000000E+00 -0.00000000000E+00 -0.10000000000E+04  0.10000000000E+04  0.00000000000E+00 0.  1.
    9000005    2    1    2  501    0  0.54634860251E+01 -0.30815217151E+02 -0.45797523305E+03  0.45905458569E+03  0.32204446142E+01 0.  0.
         13    1    3    3    0    0  0.40330910951E+01 -0.22813304463E+02 -0.35850465979E+03  0.35925242348E+03  0.00000000000E+00 0.  1.
          1    1    3    3  501    0  0.14303949300E+01 -0.80019126884E+01 -0.99470573266E+02  0.99802162212E+02  0.00000000000E+00 0.  1.
         -1    1    1    2    0  502 -0.54634860251E+01  0.30815217151E+02 -0.54103289568E+03  0.54193728558E+03  0.00000000000E+00 0. -1.
<mgrwt>
<rscale>  1 0.30000000E+03</rscale>
<asrwt>0</asrwt>
<pdfrwt beam="1">  1       21 0.36068122E-02 0.30000000E+03</pdfrwt>
<pdfrwt beam="2">0</pdfrwt>
<totfact> 0.50031442E+04</totfact>
</mgrwt>
</event>
<event>
 6    1  0.1284012E-001  0.3000000E+03  0.7818608E-02  0.1093470E+00
         21   -1    0    0  501  502  0.00000000000E+00  0.00000000000E+00  0.20363099148E+01  0.20363099148E+01  0.00000000000E+00 0. -1.
         13   -1    0    0    0    0 -0.00000000000E+00 -0.00000000000E+00 -0.10000000000E+04  0.10000000000E+04  0.00000000000E+00 0.  1.
    9000005    2    1    2  501    0  0.19317846640E+02 -0.25755574063E+02 -0.84974395904E+03  0.85036028193E+03  0.33592209134E+01 0.  0.
         13    1    3    3    0    0  0.32162343613E+01 -0.35307088386E+01 -0.99585787110E+02  0.99700246051E+02  0.00000000000E+00 0.  1.
          3    1    3    3  501    0  0.16101612279E+02 -0.22224865224E+02 -0.75015817193E+03  0.75066003588E+03  0.00000000000E+00 0.  1.
         -1    1    1    2    0  502 -0.19317846640E+02  0.25755574063E+02 -0.14821973105E+03  0.15167602799E+03  0.00000000000E+00 0. -1.
<mgrwt>
<rscale>  1 0.30000000E+03</rscale>
<asrwt>0</asrwt>
<pdfrwt beam="1">  1       21 0.74047789E-02 0.30000000E+03</pdfrwt>
<pdfrwt beam="2">0</pdfrwt>
<totfact> 0.14627960E+04</totfact>
</mgrwt>
</event>
<event>
 6    1  0.1284012E-001  0.3000000E+03  0.7818608E-02  0.1093470E+00
         21   -1    0    0  501  502  0.00000000000E+00  0.00000000000E+00  0.57211277453E+01  0.57211277453E+01  0.00000000000E+00 0. -1.
         13   -1    0    0    0    0 -0.00000000000E+00 -0.00000000000E+00 -0.10000000000E+04  0.10000000000E+04  0.00000000000E+00 0.  1.
    9000005    2    1    2  501    0  0.33145118327E+01  0.43624661636E+02 -0.90728850217E+03  0.90834853623E+03  0.32465370525E+01 0.  0.
         13    1    3    3    0    0  0.36954270351E+01  0.29454227934E+02 -0.60491823678E+03  0.60564616808E+03  0.00000000000E+00 0.  1.
          3    1    3    3  501    0 -0.38091520244E+00  0.14170433702E+02 -0.30237026539E+03  0.30270236815E+03  0.00000000000E+00 0.  1.
         -3    1    1    2    0  502 -0.33145118327E+01 -0.43624661636E+02 -0.86990370081E+02  0.97372591515E+02  0.00000000000E+00 0. -1.
<mgrwt>
<rscale>  1 0.30000000E+03</rscale>
<asrwt>0</asrwt>
<pdfrwt beam="1">  1       21 0.20804145E-01 0.30000000E+03</pdfrwt>
<pdfrwt beam="2">0</pdfrwt>
<totfact> 0.22250148E+03</totfact>
</mgrwt>
</event>
<event>
 6    1  0.1284012E-001  0.3000000E+03  0.7818608E-02  0.1093470E+00
         21   -1    0    0  501  502  0.00000000000E+00  0.00000000000E+00  0.17297988737E+01  0.17297988737E+01  0.00000000000E+00 0. -1.
         13   -1    0    0    0    0 -0.00000000000E+00 -0.00000000000E+00 -0.10000000000E+04  0.10000000000E+04  0.00000000000E+00 0.  1.
    9000005    2    1    2  501    0  0.21544200021E+02  0.25109784551E+02 -0.19760510641E+03  0.20038140540E+03  0.32055754197E+01 0.  0.
         13    1    3    3    0    0  0.14269570458E+02  0.14758544968E+02 -0.12800880690E+03  0.12964447514E+03  0.00000000000E+00 0.  1.
          1    1    3    3  501    0  0.72746295629E+01  0.10351239583E+02 -0.69596299518E+02  0.70736930261E+02  0.00000000000E+00 0.  1.
         -3    1    1    2    0  502 -0.21544200021E+02 -0.25109784551E+02 -0.80066509471E+03  0.80134839348E+03  0.00000000000E+00 0. -1.
<mgrwt>
<rscale>  1 0.30000000E+03</rscale>
<asrwt>0</asrwt>
<pdfrwt beam="1">  1       21 0.62901910E-02 0.30000000E+03</pdfrwt>
<pdfrwt beam="2">0</pdfrwt>
<totfact> 0.19421646E+04</totfact>
</mgrwt>
</event>
<event>
 6    1  0.1284012E-001  0.3000000E+03  0.7818608E-02  0.1093470E+00
         21   -1    0    0  501  502  0.00000000000E+00  0.00000000000E+00  0.28414638209E+01  0.28414638209E+01  0.00000000000E+00 0. -1.
         13   -1    0    0    0    0 -0.00000000000E+00 -0.00000000000E+00 -0.10000000000E+04  0.10000000000E+04  0.00000000000E+00 0.  1.
    9000005    2    1    2  501    0 -0.13629021447E+01  0.36406827119E+02 -0.86341186648E+03  0.86422152940E+03  0.84549475353E+01 0.  0.
         13    1    3    3    0    0 -0.34263250175E+01  0.30440468773E+02 -0.65797038670E+03  0.65868307373E+03  0.00000000000E+00 0.  1.
          1    1    3    3  501    0  0.20634228728E+01  0.59663583458E+01 -0.20544147978E+03  0.20553845567E+03  0.00000000000E+00 0.  1.
         -3    1    1    2    0  502  0.13629021447E+01 -0.36406827119E+02 -0.13374666970E+03  0.13861993442E+03  0.00000000000E+00 0. -1.
<mgrwt>
<rscale>  1 0.30000000E+03</rscale>
<asrwt>0</asrwt>
<pdfrwt beam="1">  1       21 0.10332618E-01 0.30000000E+03</pdfrwt>
<pdfrwt beam="2">0</pdfrwt>
<totfact> 0.81141400E+03</totfact>
</mgrwt>
</event>
<event>
 6    1  0.1284012E-001  0.3000000E+03  0.7818608E-02  0.1093470E+00
         21   -1    0    0  501  502  0.00000000000E+00  0.00000000000E+00  0.48175928244E+01  0.48175928244E+01  0.00000000000E+00 0. -1.
         13   -1    0    0    0    0 -0.00000000000E+00 -0.00000000000E+00 -0.10000000000E+04  0.10000000000E+04  0.00000000000E+00 0.  1.
    9000005    2    1    2  501    0 -0.22787186780E+02  0.41487522395E+02 -0.86496796169E+03  0.86626698038E+03  0.29045049523E+01 0.  0.
         13    1    3    3    0    0 -0.13606807353E+00  0.34685851078E+00 -0.34913845448E+01  0.35112093909E+01  0.00000000000E+00 0.  1.
          1    1    3    3  501    0 -0.22651118706E+02  0.41140663884E+02 -0.86147657715E+03  0.86275577099E+03  0.00000000000E+00 0.  1.
         -1    1    1    2    0  502  0.22787186780E+02 -0.41487522395E+02 -0.13021444548E+03  0.13855061244E+03  0.00000000000E+00 0. -1.
<mgrwt>
<rscale>  1 0.30000000E+03</rscale>
<asrwt>0</asrwt>
<pdfrwt beam="1">  1       21 0.17518556E-01 0.30000000E+03</pdfrwt>
<pdfrwt beam="2">0</pdfrwt>
<totfact> 0.30828024E+03</totfact>
</mgrwt>
</event>
<event>
 6    1  0.1284012E-001  0.3000000E+03  0.7818608E-02  0.1093470E+00
         21   -1    0    0  501  502  0.00000000000E+00  0.00000000000E+00  0.19137666152E+01  0.19137666152E+01  0.00000000000E+00 0. -1.
         13   -1    0    0    0    0 -0.00000000000E+00 -0.00000000000E+00 -0.10000000000E+04  0.10000000000E+04  0.00000000000E+00 0.  1.
    9000005    2    1    2  501    0  0.37344504592E+02  0.11851321469E+00 -0.75929528640E+03  0.76022027801E+03  0.33034968379E+01 0.  0.
         13    1    3    3    0    0  0.27533577418E+01  0.14825944554E+00 -0.41044648865E+02  0.41137162763E+02  0.00000000000E+00 0.  1.
          1    1    3    3  501    0  0.34591146850E+02 -0.29746230848E-01 -0.71825063753E+03  0.71908311525E+03  0.00000000000E+00 0.  1.
         -3    1    1    2    0  502 -0.37344504592E+02 -0.11851321469E+00 -0.23879094699E+03  0.24169348860E+03  0.00000000000E+00 0. -1.
<mgrwt>
<rscale>  1 0.30000000E+03</rscale>
<asrwt>0</asrwt>
<pdfrwt beam="1">  1       21 0.69591660E-02 0.30000000E+03</pdfrwt>
<pdfrwt beam="2">0</pdfrwt>
<totfact> 0.16300374E+04</totfact>
</mgrwt>
</event>
<event>
 6    1  0.1284012E-001  0.3000000E+03  0.7818608E-02  0.1093470E+00
         21   -1    0    0  501  502  0.00000000000E+00  0.00000000000E+00  0.10765279272E+01  0.10765279272E+01  0.00000000000E+00 0. -1.
         13   -1    0    0    0    0 -0.00000000000E+00 -0.00000000000E+00 -0.10000000000E+04  0.10000000000E+04  0.00000000000E+00 0.  1.
    9000005    2    1    2  501    0  0.29595141498E+02  0.13881150308E+02 -0.47729573752E+03  0.47842554286E+03  0.33496678230E+01 0.  0.
         13    1    3    3    0    0  0.21641918870E+02  0.10806975874E+02 -0.37151711188E+03  0.37230381116E+03  0.00000000000E+00 0.  1.
          3    1    3    3  501    0  0.79532226283E+01  0.30741744345E+01 -0.10577862563E+03  0.10612173170E+03  0.00000000000E+00 0.  1.
         -3    1    1    2    0  502 -0.29595141498E+02 -0.13881150308E+02 -0.52162773456E+03  0.52265098507E+03  0.00000000000E+00 0. -1.
<mgrwt>
<rscale>  1 0.30000000E+03</rscale>
<asrwt>0</asrwt>
<pdfrwt beam="1">  1       21 0.39146553E-02 0.30000000E+03</pdfrwt>
<pdfrwt beam="2">0</pdfrwt>
<totfact> 0.43601705E+04</totfact>
</mgrwt>
</event>
<event>
 6    1  0.1284012E-001  0.3000000E+03  0.7818608E-02  0.1093470E+00
         21   -1    0    0  501  502  0.00000000000E+00  0.00000000000E+00  0.27438623065E+01  0.27438623065E+01  0.00000000000E+00 0. -1.
         13   -1    0    0    0    0 -0.00000000000E+00 -0.00000000000E+00 -0.10000000000E+04  0.10000000000E+04  0.00000000000E+00 0.  1.
    9000005    2    1    2  501    0  0.43881592986E+02  0.63942782380E+01 -0.76498343076E+03  0.76627591229E+03  0.35557596504E+01 0.  0.
         13    1    3    3    0    0  0.96365137266E+01 -0.38629857965E-01 -0.16031331659E+03  0.16060268792E+03  0.00000000000E+00 0.  1.
          3    1    3    3  501    0  0.34245079260E+02  0.64329080960E+01 -0.60467011417E+03  0.60567322437E+03  0.00000000000E+00 0.  1.
         -3    1    1    2    0  502 -0.43881592986E+02 -0.63942782380E+01 -0.23227270693E+03  0.23646795001E+03  0.00000000000E+00 0. -1.
<mgrwt>
<rscale>  1 0.30000000E+03</rscale>
<asrwt>0</asrwt>
<pdfrwt beam="1">  1       21 0.99777022E-02 0.30000000E+03</pdfrwt>
<pdfrwt beam="2">0</pdfrwt>
<totfact> 0.86375795E+03</totfact>
</mgrwt>
</event>
<event>
 6    1  0.1284012E-001  0.3000000E+03  0.7818608E-02  0.1093470E+00
         21   -1    0    0  501  502  0.00000000000E+00  0.00000000000E+00  0.12116281005E+01  0.12116281005E+01  0.00000000000E+00 0. -1.
         13   -1    0    0    0    0 -0.00000000000E+00 -0.00000000000E+00 -0.10000000000E+04  0.10000000000E+04  0.00000000000E+00 0.  1.
    9000005    2    1    2  501    0 -0.21079316509E+02  0.27489074158E+02 -0.53820091348E+03  0.53932333681E+03  0.30743404546E+01 0.  0.
         13    1    3    3    0    0 -0.59892125987E+01  0.78630731110E+01 -0.17601288308E+03  0.17629019711E+03  0.00000000000E+00 0.  1.
          3    1    3    3  501    0 -0.15090103910E+02  0.19626001047E+02 -0.36218803040E+03  0.36303313970E+03  0.00000000000E+00 0.  1.
         -1    1    1    2    0  502  0.21079316509E+02 -0.27489074158E+02 -0.46058745842E+03  0.46188829129E+03  0.00000000000E+00 0. -1.
<mgrwt>
<rscale>  1 0.30000000E+03</rscale>
<asrwt>0</asrwt>
<pdfrwt beam="1">  1       21 0.44059297E-02 0.30000000E+03</pdfrwt>
<pdfrwt beam="2">0</pdfrwt>
<totfact> 0.35714830E+04</totfact>
</mgrwt>
</event>
<event>
 6    1  0.1284012E-001  0.3000000E+03  0.7818608E-02  0.1093470E+00
         21   -1    0    0  501  502  0.00000000000E+00  0.00000000000E+00  0.23775151672E+01  0.23775151672E+01  0.00000000000E+00 0. -1.
         13   -1    0    0    0    0 -0.00000000000E+00 -0.00000000000E+00 -0.10000000000E+04  0.10000000000E+04  0.00000000000E+00 0.  1.
    9000005    2    1    2  501    0  0.13076580482E+02 -0.27965542773E+02 -0.88557941998E+03  0.88615911335E+03  0.86021240757E+01 0.  0.
         13    1    3    3    0    0  0.33686808841E+01 -0.10902365134E+02 -0.43920263268E+03  0.43935084173E+03  0.00000000000E+00 0.  1.
          1    1    3    3  501    0  0.97078995980E+01 -0.17063177639E+02 -0.44637678730E+03  0.44680827162E+03  0.00000000000E+00 0.  1.
         -1    1    1    2    0  502 -0.13076580482E+02  0.27965542773E+02 -0.11204306485E+03  0.11621840182E+03  0.00000000000E+00 0. -1.
<mgrwt>
<rscale>  1 0.30000000E+03</rscale>
<asrwt>0</asrwt>
<pdfrwt beam="1">  1       21 0.86455279E-02 0.30000000E+03</pdfrwt>
<pdfrwt beam="2">0</pdfrwt>
<totfact> 0.11142451E+04</totfact>
</mgrwt>
</event>
<event>
 6    1  0.1284012E-001  0.3000000E+03  0.7818608E-02  0.1093470E+00
         21   -1    0    0  501  502  0.00000000000E+00  0.00000000000E+00  0.20091215729E+01  0.20091215729E+01  0.00000000000E+00 0. -1.
         13   -1    0    0    0    0 -0.00000000000E+00 -0.00000000000E+00 -0.10000000000E+04  0.10000000000E+04  0.00000000000E+00 0.  1.
    9000005    2    1    2  501    0 -0.39064530075E+02 -0.19663390668E+02 -0.60572201008E+03  0.60730980371E+03  0.36548257808E+01 0.  0.
         13    1    3    3    0    0 -0.30528958737E+02 -0.15973481053E+02 -0.49525276987E+03  0.49644987208E+03  0.00000000000E+00 0.  1.
          1    1    3    3  501    0 -0.85355713371E+01 -0.36899096150E+01 -0.11046924020E+03  0.11085993163E+03  0.00000000000E+00 0.  1.
         -3    1    1    2    0  502  0.39064530075E+02  0.19663390668E+02 -0.39226886835E+03  0.39469931786E+03  0.00000000000E+00 0. -1.
<mgrwt>
<rscale>  1 0.30000000E+03</rscale>
<asrwt>0</asrwt>
<pdfrwt beam="1">  1       21 0.73059120E-02 0.30000000E+03</pdfrwt>
<pdfrwt beam="2">0</pdfrwt>
<totfact> 0.14975739E+04</totfact>
</mgrwt>
</event>
<event>
 6    1  0.1284012E-001  0.3000000E+03  0.7818608E-02  0.1093470E+00
         21   -1    0    0  501  502  0.00000000000E+00  0.00000000000E+00  0.24928887738E+01  0.24928887738E+01  0.00000000000E+00 0. -1.
         13   -1    0    0    0    0 -0.00000000000E+00 -0.00000000000E+00 -0.10000000000E+04  0.10000000000E+04  0.00000000000E+00 0.  1.
    9000005    2    1    2  501    0  0.49276474447E+02 -0.74536886885E+01 -0.47606369527E+03  0.47867329726E+03  0.27848064999E+01 0.  0.
         13    1    3    3    0    0  0.17344686005E+02 -0.13534771075E+01 -0.17008609149E+03  0.17097353173E+03  0.00000000000E+00 0.  1.
          3    1    3    3  501    0  0.31931788442E+02 -0.61002115810E+01 -0.30597760378E+03  0.30769976554E+03  0.00000000000E+00 0.  1.
         -1    1    1    2    0  502 -0.49276474447E+02  0.74536886885E+01 -0.52144341595E+03  0.52381959151E+03  0.00000000000E+00 0. -1.
<mgrwt>
<rscale>  1 0.30000000E+03</rscale>
<asrwt>0</asrwt>
<pdfrwt beam="1">  1       21 0.90650692E-02 0.30000000E+03</pdfrwt>
<pdfrwt beam="2">0</pdfrwt>
<totfact> 0.10246434E+04</totfact>
</mgrwt>
</event>
<event>
 6    1  0.1284012E-001  0.3000000E+03  0.7818608E-02  0.1093470E+00
         21   -1    0    0  501  502  0.00000000000E+00  0.00000000000E+00  0.11138716926E+01  0.11138716926E+01  0.00000000000E+00 0. -1.
         13   -1    0    0    0    0 -0.00000000000E+00 -0.00000000000E+00 -0.10000000000E+04  0.10000000000E+04  0.00000000000E+00 0.  1.
    9000005    2    1    2  501    0 -0.24564179500E+02  0.19578008461E+02 -0.66675165468E+03  0.66749731649E+03  0.28637702976E+01 0.  0.
         13    1    3    3    0    0 -0.24041561699E+02  0.19052831363E+02 -0.63914543352E+03  0.63988115479E+03  0.00000000000E+00 0.  1.
          1    1    3    3  501    0 -0.52261780089E+00  0.52517709823E+00 -0.27606221161E+02  0.27616161702E+02  0.00000000000E+00 0.  1.
         -3    1    1    2    0  502  0.24564179500E+02 -0.19578008461E+02 -0.33213447363E+03  0.33361655520E+03  0.00000000000E+00 0. -1.
<mgrwt>
<rscale>  1 0.30000000E+03</rscale>
<asrwt>0</asrwt>
<pdfrwt beam="1">  1       21 0.40504511E-02 0.30000000E+03</pdfrwt>
<pdfrwt beam="2">0</pdfrwt>
<totfact> 0.41168833E+04</totfact>
</mgrwt>
</event>
<event>
 6    1  0.1284012E-001  0.3000000E+03  0.7818608E-02  0.1093470E+00
         21   -1    0    0  501  502  0.00000000000E+00  0.00000000000E+00  0.12725513069E+01  0.12725513069E+01  0.00000000000E+00 0. -1.
         13   -1    0    0    0    0 -0.00000000000E+00 -0.00000000000E+00 -0.10000000000E+04  0.10000000000E+04  0.00000000000E+00 0.  1.
    9000005    2    1    2  501    0  0.47765205975E+01 -0.34727923657E+02 -0.58617080278E+03  0.58722928072E+03  0.36296382218E+01 0.  0.
         13    1    3    3    0    0  0.13392987606E+01 -0.44967251036E+01 -0.96666947437E+02  0.96780746973E+02  0.00000000000E+00 0.  1.
          3    1    3    3  501    0  0.34372218369E+01 -0.30231198554E+02 -0.48950385534E+03  0.49044853375E+03  0.00000000000E+00 0.  1.
         -1    1    1    2    0  502 -0.47765205975E+01  0.34727923657E+02 -0.41255664591E+03  0.41404327058E+03  0.00000000000E+00 0. -1.
<mgrwt>
<rscale>  1 0.30000000E+03</rscale>
<asrwt>0</asrwt>
<pdfrwt beam="1">  1       21 0.46274691E-02 0.30000000E+03</pdfrwt>
<pdfrwt beam="2">0</pdfrwt>
<totfact> 0.32861660E+04</totfact>
</mgrwt>
</event>
<event>
 6    1  0.1284012E-001  0.3000000E+03  0.7818608E-02  0.1093470E+00
         21   -1    0    0  501  502  0.00000000000E+00  0.00000000000E+00  0.47387850260E+01  0.47387850260E+01  0.00000000000E+00 0. -1.
         13   -1    0    0    0    0 -0.00000000000E+00 -0.00000000000E+00 -0.10000000000E+04  0.10000000000E+04  0.00000000000E+00 0.  1.
    9000005    2    1    2  501    0  0.13693810237E+02 -0.46786409085E+02 -0.85218136965E+03  0.85358214226E+03  0.35914196638E+01 0.  0.
         13    1    3    3    0    0  0.76779896515E+01 -0.27694824046E+02 -0.53193732286E+03  0.53271312191E+03  0.00000000000E+00 0.  1.
          1    1    3    3  501    0  0.60158205857E+01 -0.19091585039E+02 -0.32024404679E+03  0.32086902035E+03  0.00000000000E+00 0.  1.
         -1    1    1    2    0  502 -0.13693810237E+02  0.46786409085E+02 -0.14307984532E+03  0.15115664276E+03  0.00000000000E+00 0. -1.
<mgrwt>
<rscale>  1 0.30000000E+03</rscale>
<asrwt>0</asrwt>
<pdfrwt beam="1">  1       21 0.17231982E-01 0.30000000E+03</pdfrwt>
<pdfrwt beam="2">0</pdfrwt>
<totfact> 0.31797187E+03</totfact>
</mgrwt>
</event>
<event>
 6    1  0.1284012E-001  0.3000000E+03  0.7818608E-02  0.1093470E+00
         21   -1    0    0  501  502  0.00000000000E+00  0.00000000000E+00  0.92880756249E+01  0.92880756249E+01  0.00000000000E+00 0. -1.
         13   -1    0    0    0    0 -0.00000000000E+00 -0.00000000000E+00 -0.10000000000E+04  0.10000000000E+04  0.00000000000E+00 0.  1.
    9000005    2    1    2  501    0  0.25644000477E+02  0.58272395357E+02 -0.87412813175E+03  0.87645333798E+03  0.41444091479E+01 0.  0.
         13    1    3    3    0    0  0.11652336968E+02  0.31574587861E+02 -0.45757618342E+03  0.45881226574E+03  0.00000000000E+00 0.  1.
          3    1    3    3  501    0  0.13991663509E+02  0.26697807496E+02 -0.41655194833E+03  0.41764107225E+03  0.00000000000E+00 0.  1.
         -1    1    1    2    0  502 -0.25644000477E+02 -0.58272395357E+02 -0.11658379263E+03  0.13283473764E+03  0.00000000000E+00 0. -1.
<mgrwt>
<rscale>  1 0.30000000E+03</rscale>
<asrwt>0</asrwt>
<pdfrwt beam="1">  1       21 0.33774892E-01 0.30000000E+03</pdfrwt>
<pdfrwt beam="2">0</pdfrwt>
<totfact> 0.85582995E+02</totfact>
</mgrwt>
</event>
<event>
 6    1  0.1284012E-001  0.3000000E+03  0.7818608E-02  0.1093470E+00
         21   -1    0    0  501  502  0.00000000000E+00  0.00000000000E+00  0.14792249139E+01  0.14792249139E+01  0.00000000000E+00 0. -1.
         13   -1    0    0    0    0 -0.00000000000E+00 -0.00000000000E+00 -0.10000000000E+04  0.10000000000E+04  0.00000000000E+00 0.  1.
    9000005    2    1    2  501    0 -0.17816028438E+02 -0.33962648772E+02 -0.52188347259E+03  0.52330144363E+03  0.33420897254E+01 0.  0.
         13    1    3    3    0    0 -0.71883145350E+00 -0.80198485410E+00 -0.22794997027E+02  0.22820424795E+02  0.00000000000E+00 0.  1.
          1    1    3    3  501    0 -0.17097196984E+02 -0.33160663918E+02 -0.49908847556E+03  0.50048101883E+03  0.00000000000E+00 0.  1.
         -3    1    1    2    0  502  0.17816028438E+02  0.33962648772E+02 -0.47663730250E+03  0.47817778129E+03  0.00000000000E+00 0. -1.
<mgrwt>
<rscale>  1 0.30000000E+03</rscale>
<asrwt>0</asrwt>
<pdfrwt beam="1">  1       21 0.53790110E-02 0.30000000E+03</pdfrwt>
<pdfrwt beam="2">0</pdfrwt>
<totfact> 0.25424861E+04</totfact>
</mgrwt>
</event>
<event>
 6    1  0.1284012E-001  0.3000000E+03  0.7818608E-02  0.1093470E+00
         21   -1    0    0  501  502  0.00000000000E+00  0.00000000000E+00  0.47077564401E+01  0.47077564401E+01  0.00000000000E+00 0. -1.
         13   -1    0    0    0    0 -0.00000000000E+00 -0.00000000000E+00 -0.10000000000E+04  0.10000000000E+04  0.00000000000E+00 0.  1.
    9000005    2    1    2  501    0 -0.22553260099E+02  0.24684582600E+02 -0.93606566644E+03  0.93669477535E+03  0.77583582561E+01 0.  0.
         13    1    3    3    0    0  0.29791499922E+00  0.13467213328E-01 -0.18346319403E+01  0.18587116691E+01  0.00000000000E+00 0.  1.
          3    1    3    3  501    0 -0.22851175099E+02  0.24671115387E+02 -0.93423103450E+03  0.93483606368E+03  0.00000000000E+00 0.  1.
         -3    1    1    2    0  502  0.22553260099E+02 -0.24684582600E+02 -0.59226577118E+02  0.68012981087E+02  0.00000000000E+00 0. -1.
<mgrwt>
<rscale>  1 0.30000000E+03</rscale>
<asrwt>0</asrwt>
<pdfrwt beam="1">  1       21 0.17119150E-01 0.30000000E+03</pdfrwt>
<pdfrwt beam="2">0</pdfrwt>
<totfact> 0.32191203E+03</totfact>
</mgrwt>
</event>
<event>
 6    1  0.1284012E-001  0.3000000E+03  0.7818608E-02  0.1093470E+00
         21   -1    0    0  501  502  0.00000000000E+00  0.00000000000E+00  0.92498429458E+01  0.92498429458E+01  0.00000000000E+00 0. -1.
         13   -1    0    0    0    0 -0.00000000000E+00 -0.00000000000E+00 -0.10000000000E+04  0.10000000000E+04  0.00000000000E+00 0.  1.
    9000005    2    1    2  501    0  0.88914137807E+02 -0.28015052462E+02 -0.61931330055E+03  0.62629304977E+03  0.18581956633E+01 0.  0.
         13    1    3    3    0    0  0.22111941146E+02 -0.75925412958E+01 -0.15169185531E+03  0.15348290977E+03  0.00000000000E+00 0.  1.
          3    1    3    3  501    0  0.66802196661E+02 -0.20422511166E+02 -0.46762144524E+03  0.47281014000E+03  0.00000000000E+00 0.  1.
         -1    1    1    2    0  502 -0.88914137807E+02  0.28015052462E+02 -0.37143685650E+03  0.38295679317E+03  0.00000000000E+00 0. -1.
<mgrwt>
<rscale>  1 0.30000000E+03</rscale>
<asrwt>0</asrwt>
<pdfrwt beam="1">  1       21 0.33635863E-01 0.30000000E+03</pdfrwt>
<pdfrwt beam="2">0</pdfrwt>
<totfact> 0.86305034E+02</totfact>
</mgrwt>
</event>
<event>
 6    1  0.1284012E-001  0.3000000E+03  0.7818608E-02  0.1093470E+00
         21   -1    0    0  501  502  0.00000000000E+00  0.00000000000E+00  0.26818865511E+01  0.26818865511E+01  0.00000000000E+00 0. -1.
         13   -1    0    0    0    0 -0.00000000000E+00 -0.00000000000E+00 -0.10000000000E+04  0.10000000000E+04  0.00000000000E+00 0.  1.
    9000005    2    1    2  501    0 -0.19829952917E+02 -0.34149253922E+02 -0.82269932098E+03  0.82365361710E+03  0.34219380271E+01 0.  0.
         13    1    3    3    0    0 -0.90420713516E+01 -0.17062932669E+02 -0.43403230407E+03  0.43446167115E+03  0.00000000000E+00 0.  1.
          3    1    3    3  501    0 -0.10787881566E+02 -0.17086321253E+02 -0.38866701690E+03  0.38919194595E+03  0.00000000000E+00 0.  1.
         -1    1    1    2    0  502  0.19829952917E+02  0.34149253922E+02 -0.17461879247E+03  0.17902826945E+03  0.00000000000E+00 0. -1.
<mgrwt>
<rscale>  1 0.30000000E+03</rscale>
<asrwt>0</asrwt>
<pdfrwt beam="1">  1       21 0.97523353E-02 0.30000000E+03</pdfrwt>
<pdfrwt beam="2">0</pdfrwt>
<totfact> 0.89971915E+03</totfact>
</mgrwt>
</event>
<event>
 6    1  0.1284012E-001  0.3000000E+03  0.7818608E-02  0.1093470E+00
         21   -1    0    0  501  502  0.00000000000E+00  0.00000000000E+00  0.17207308879E+01  0.17207308879E+01  0.00000000000E+00 0. -1.
         13   -1    0    0    0    0 -0.00000000000E+00 -0.00000000000E+00 -0.10000000000E+04  0.10000000000E+04  0.00000000000E+00 0.  1.
    9000005    2    1    2  501    0 -0.42592865672E+00  0.36418937737E+02 -0.73808166364E+03  0.73898642720E+03  0.31427603845E+01 0.  0.
         13    1    3    3    0    0  0.21843208003E+00  0.31434041924E+02 -0.61647147337E+03  0.61727240679E+03  0.00000000000E+00 0.  1.
          1    1    3    3  501    0 -0.64436073675E+00  0.49848958122E+01 -0.12161019028E+03  0.12171402042E+03  0.00000000000E+00 0.  1.
         -3    1    1    2    0  502  0.42592865672E+00 -0.36418937737E+02 -0.26019760547E+03  0.26273430368E+03  0.00000000000E+00 0. -1.
<mgrwt>
<rscale>  1 0.30000000E+03</rscale>
<asrwt>0</asrwt>
<pdfrwt beam="1">  1       21 0.62572164E-02 0.30000000E+03</pdfrwt>
<pdfrwt beam="2">0</pdfrwt>
<totfact> 0.19598852E+04</totfact>
</mgrwt>
</event>
<event>
 6    1  0.1284012E-001  0.3000000E+03  0.7818608E-02  0.1093470E+00
         21   -1    0    0  501  502  0.00000000000E+00  0.00000000000E+00  0.11304591253E+01  0.11304591253E+01  0.00000000000E+00 0. -1.
         13   -1    0    0    0    0 -0.00000000000E+00 -0.00000000000E+00 -0.10000000000E+04  0.10000000000E+04  0.00000000000E+00 0.  1.
    9000005    2    1    2  501    0  0.89925090077E+00 -0.32569379880E+02 -0.60813861434E+03  0.60904344058E+03  0.63059582257E+01 0.  0.
         13    1    3    3    0    0  0.85913718183E+00 -0.12952737108E+02 -0.18840714002E+03  0.18885381099E+03  0.00000000000E+00 0.  1.
          3    1    3    3  501    0  0.40113718934E-01 -0.19616642772E+02 -0.41973147432E+03  0.42018962959E+03  0.00000000000E+00 0.  1.
         -3    1    1    2    0  502 -0.89925090077E+00  0.32569379880E+02 -0.39073092654E+03  0.39208701854E+03  0.00000000000E+00 0. -1.
<mgrwt>
<rscale>  1 0.30000000E+03</rscale>
<asrwt>0</asrwt>
<pdfrwt beam="1">  1       21 0.41107691E-02 0.30000000E+03</pdfrwt>
<pdfrwt beam="2">0</pdfrwt>
<totfact> 0.40155609E+04</totfact>
</mgrwt>
</event>
<event>
 6    1  0.1284012E-001  0.3000000E+03  0.7818608E-02  0.1093470E+00
         21   -1    0    0  501  502  0.00000000000E+00  0.00000000000E+00  0.11050537271E+01  0.11050537271E+01  0.00000000000E+00 0. -1.
         13   -1    0    0    0    0 -0.00000000000E+00 -0.00000000000E+00 -0.10000000000E+04  0.10000000000E+04  0.00000000000E+00 0.  1.
    9000005    2    1    2  501    0  0.28673407301E+02  0.11663481598E+02 -0.68028483037E+03  0.68099474923E+03  0.28630331592E+01 0.  0.
         13    1    3    3    0    0  0.32516832726E+00 -0.10051116798E+00 -0.42727178841E+01  0.42862518653E+01  0.00000000000E+00 0.  1.
          1    1    3    3  501    0  0.28348238974E+02  0.11763992765E+02 -0.67601211248E+03  0.67670849736E+03  0.00000000000E+00 0.  1.
         -1    1    1    2    0  502 -0.28673407301E+02 -0.11663481598E+02 -0.31861011591E+03  0.32011030450E+03  0.00000000000E+00 0. -1.
<mgrwt>
<rscale>  1 0.30000000E+03</rscale>
<asrwt>0</asrwt>
<pdfrwt beam="1">  1       21 0.40183857E-02 0.30000000E+03</pdfrwt>
<pdfrwt beam="2">0</pdfrwt>
<totfact> 0.41723815E+04</totfact>
</mgrwt>
</event>
<event>
 6    1  0.1284012E-001  0.3000000E+03  0.7818608E-02  0.1093470E+00
         21   -1    0    0  501  502  0.00000000000E+00  0.00000000000E+00  0.39850932028E+02  0.39850932028E+02  0.00000000000E+00 0. -1.
         13   -1    0    0    0    0 -0.00000000000E+00 -0.00000000000E+00 -0.10000000000E+04  0.10000000000E+04  0.00000000000E+00 0.  1.
    9000005    2    1    2  501    0  0.14478617977E+03 -0.94677803004E+02 -0.73937117941E+03  0.75936955955E+03  0.67426095404E+01 0.  0.
         13    1    3    3    0    0  0.96406010703E+02 -0.66806553626E+02 -0.50102293969E+03  0.51456896584E+03  0.00000000000E+00 0.  1.
          1    1    3    3  501    0  0.48380169066E+02 -0.27871249378E+02 -0.23834823972E+03  0.24480059371E+03  0.00000000000E+00 0.  1.
         -1    1    1    2    0  502 -0.14478617977E+03  0.94677803004E+02 -0.22077788856E+03  0.28048137248E+03  0.00000000000E+00 0. -1.
<mgrwt>
<rscale>  1 0.30000000E+03</rscale>
<asrwt>0</asrwt>
<pdfrwt beam="1">  1       21 0.14491279E+00 0.30000000E+03</pdfrwt>
<pdfrwt beam="2">0</pdfrwt>
<totfact> 0.26526381E+01</totfact>
</mgrwt>
</event>
<event>
 6    1  0.1284012E-001  0.3000000E+03  0.7818608E-02  0.1093470E+00
         21   -1    0    0  501  502  0.00000000000E+00  0.00000000000E+00  0.16637053666E+01  0.16637053666E+01  0.00000000000E+00 0. -1.
         13   -1    0    0    0    0 -0.00000000000E+00 -0.00000000000E+00 -0.10000000000E+04  0.10000000000E+04  0.00000000000E+00 0.  1.
    9000005    2    1    2  501    0  0.18120672854E+02  0.31213742904E+02 -0.73052838795E+03  0.73143467026E+03  0.47217297183E+01 0.  0.
         13    1    3    3    0    0  0.94687233512E+01  0.13242277364E+02 -0.29301947255E+03  0.29347133749E+03  0.00000000000E+00 0.  1.
          1    1    3    3  501    0  0.86519495027E+01  0.17971465540E+02 -0.43750891539E+03  0.43796333277E+03  0.00000000000E+00 0.  1.
         -3    1    1    2    0  502 -0.18120672854E+02 -0.31213742904E+02 -0.26780790669E+03  0.27022903511E+03  0.00000000000E+00 0. -1.
<mgrwt>
<rscale>  1 0.30000000E+03</rscale>
<asrwt>0</asrwt>
<pdfrwt beam="1">  1       21 0.60498505E-02 0.30000000E+03</pdfrwt>
<pdfrwt beam="2">0</pdfrwt>
<totfact> 0.20773062E+04</totfact>
</mgrwt>
</event>
<event>
 6    1  0.1284012E-001  0.3000000E+03  0.7818608E-02  0.1093470E+00
         21   -1    0    0  501  502  0.00000000000E+00  0.00000000000E+00  0.18783809915E+01  0.18783809915E+01  0.00000000000E+00 0. -1.
         13   -1    0    0    0    0 -0.00000000000E+00 -0.00000000000E+00 -0.10000000000E+04  0.10000000000E+04  0.00000000000E+00 0.  1.
    9000005    2    1    2  501    0  0.33041127702E+02 -0.26881135926E+01 -0.81981235667E+03  0.82051373419E+03  0.71795381100E+01 0.  0.
         13    1    3    3    0    0  0.13021077501E+02  0.24301118568E+01 -0.32950254719E+03  0.32976868030E+03  0.00000000000E+00 0.  1.
          3    1    3    3  501    0  0.20020050202E+02 -0.51182254495E+01 -0.49030980947E+03  0.49074505388E+03  0.00000000000E+00 0.  1.
         -3    1    1    2    0  502 -0.33041127702E+02  0.26881135926E+01 -0.17830926234E+03  0.18136464681E+03  0.00000000000E+00 0. -1.
<mgrwt>
<rscale>  1 0.30000000E+03</rscale>
<asrwt>0</asrwt>
<pdfrwt beam="1">  1       21 0.68304907E-02 0.30000000E+03</pdfrwt>
<pdfrwt beam="2">0</pdfrwt>
<totfact> 0.16837854E+04</totfact>
</mgrwt>
</event>
<event>
 6    1  0.1284012E-001  0.3000000E+03  0.7818608E-02  0.1093470E+00
         21   -1    0    0  501  502  0.00000000000E+00  0.00000000000E+00  0.22103692810E+01  0.22103692810E+01  0.00000000000E+00 0. -1.
         13   -1    0    0    0    0 -0.00000000000E+00 -0.00000000000E+00 -0.10000000000E+04  0.10000000000E+04  0.00000000000E+00 0.  1.
    9000005    2    1    2  501    0 -0.41362685912E+02  0.16198943111E+02 -0.33720810731E+03  0.34013693935E+03  0.32484357644E+01 0.  0.
         13    1    3    3    0    0 -0.13711631011E+01 -0.37870621227E-01 -0.94243416827E+01  0.95236410361E+01  0.00000000000E+00 0.  1.
          1    1    3    3  501    0 -0.39991522811E+02  0.16236813732E+02 -0.32778376563E+03  0.33061329832E+03  0.00000000000E+00 0.  1.
         -1    1    1    2    0  502  0.41362685912E+02 -0.16198943111E+02 -0.66058152341E+03  0.66207342993E+03  0.00000000000E+00 0. -1.
<mgrwt>
<rscale>  1 0.30000000E+03</rscale>
<asrwt>0</asrwt>
<pdfrwt beam="1">  1       21 0.80377234E-02 0.30000000E+03</pdfrwt>
<pdfrwt beam="2">0</pdfrwt>
<totfact> 0.12668739E+04</totfact>
</mgrwt>
</event>
<event>
 6    1  0.1284012E-001  0.3000000E+03  0.7818608E-02  0.1093470E+00
         21   -1    0    0  501  502  0.00000000000E+00  0.00000000000E+00  0.98453191947E+00  0.98453191947E+00  0.00000000000E+00 0. -1.
         13   -1    0    0    0    0 -0.00000000000E+00 -0.00000000000E+00 -0.10000000000E+04  0.10000000000E+04  0.00000000000E+00 0.  1.
    9000005    2    1    2  501    0  0.53392432419E+01 -0.29643357672E+02 -0.36682788319E+03  0.36807981661E+03  0.35804101416E+01 0.  0.
         13    1    3    3    0    0  0.63885505559E+00 -0.54359193238E+01 -0.84484981015E+02  0.84662089342E+02  0.00000000000E+00 0.  1.
          1    1    3    3  501    0  0.47003881863E+01 -0.24207438348E+02 -0.28234290217E+03  0.28341772726E+03  0.00000000000E+00 0.  1.
         -3    1    1    2    0  502 -0.53392432419E+01  0.29643357672E+02 -0.63218758489E+03  0.63290471531E+03  0.00000000000E+00 0. -1.
<mgrwt>
<rscale>  1 0.30000000E+03</rscale>
<asrwt>0</asrwt>
<pdfrwt beam="1">  1       21 0.35801236E-02 0.30000000E+03</pdfrwt>
<pdfrwt beam="2">0</pdfrwt>
<totfact> 0.50658433E+04</totfact>
</mgrwt>
</event>
<event>
 6    1  0.1284012E-001  0.3000000E+03  0.7818608E-02  0.1093470E+00
         21   -1    0    0  501  502  0.00000000000E+00  0.00000000000E+00  0.73532173753E+01  0.73532173753E+01  0.00000000000E+00 0. -1.
         13   -1    0    0    0    0 -0.00000000000E+00 -0.00000000000E+00 -0.10000000000E+04  0.10000000000E+04  0.00000000000E+00 0.  1.
    9000005    2    1    2  501    0  0.24841488370E+02 -0.37800684821E+02 -0.92405169337E+03  0.92518705897E+03  0.73192039579E+01 0.  0.
         13    1    3    3    0    0 -0.74844455361E-01 -0.26896180091E+01 -0.68383957224E+02  0.68436870563E+02  0.00000000000E+00 0.  1.
          1    1    3    3  501    0  0.24916332826E+02 -0.35111066812E+02 -0.85566773615E+03  0.85675018841E+03  0.00000000000E+00 0.  1.
         -3    1    1    2    0  502 -0.24841488370E+02  0.37800684821E+02 -0.68595089255E+02  0.82166158407E+02  0.00000000000E+00 0. -1.
<mgrwt>
<rscale>  1 0.30000000E+03</rscale>
<asrwt>0</asrwt>
<pdfrwt beam="1">  1       21 0.26739029E-01 0.30000000E+03</pdfrwt>
<pdfrwt beam="2">0</pdfrwt>
<totfact> 0.13664271E+03</totfact>
</mgrwt>
</event>
<event>
 6    1  0.1284012E-001  0.3000000E+03  0.7818608E-02  0.1093470E+00
         21   -1    0    0  501  502  0.00000000000E+00  0.00000000000E+00  0.20042253887E+01  0.20042253887E+01  0.00000000000E+00 0. -1.
         13   -1    0    0    0    0 -0.00000000000E+00 -0.00000000000E+00 -0.10000000000E+04  0.10000000000E+04  0.00000000000E+00 0.  1.
    9000005    2    1    2  501    0 -0.27957086866E+02  0.16530761637E+02 -0.84349941614E+03  0.84413089145E+03  0.32912147697E+01 0.  0.
         13    1    3    3    0    0 -0.23263289460E+02  0.14666883972E+02 -0.73417391516E+03  0.73468880203E+03  0.00000000000E+00 0.  1.
          1    1    3    3  501    0 -0.46937974057E+01  0.18638776657E+01 -0.10932550097E+03  0.10944208942E+03  0.00000000000E+00 0.  1.
         -3    1    1    2    0  502  0.27957086866E+02 -0.16530761637E+02 -0.15449635847E+03  0.15787333394E+03  0.00000000000E+00 0. -1.
<mgrwt>
<rscale>  1 0.30000000E+03</rscale>
<asrwt>0</asrwt>
<pdfrwt beam="1">  1       21 0.72881077E-02 0.30000000E+03</pdfrwt>
<pdfrwt beam="2">0</pdfrwt>
<totfact> 0.15039700E+04</totfact>
</mgrwt>
</event>
<event>
 6    1  0.1284012E-001  0.3000000E+03  0.7818608E-02  0.1093470E+00
         21   -1    0    0  501  502  0.00000000000E+00  0.00000000000E+00  0.13379348923E+01  0.13379348923E+01  0.00000000000E+00 0. -1.
         13   -1    0    0    0    0 -0.00000000000E+00 -0.00000000000E+00 -0.10000000000E+04  0.10000000000E+04  0.00000000000E+00 0.  1.
    9000005    2    1    2  501    0 -0.98152052219E+01 -0.34038903879E+02 -0.61879425877E+03  0.61982183363E+03  0.42172889942E+01 0.  0.
         13    1    3    3    0    0 -0.91365331145E+01 -0.33591215972E+02 -0.60885786769E+03  0.60985223545E+03  0.00000000000E+00 0.  1.
          3    1    3    3  501    0 -0.67867210749E+00 -0.44768790638E+00 -0.99363910803E+01  0.99695981860E+01  0.00000000000E+00 0.  1.
         -1    1    1    2    0  502  0.98152052219E+01  0.34038903879E+02 -0.37986780633E+03  0.38151610126E+03  0.00000000000E+00 0. -1.
<mgrwt>
<rscale>  1 0.30000000E+03</rscale>
<asrwt>0</asrwt>
<pdfrwt beam="1">  1       21 0.48652280E-02 0.30000000E+03</pdfrwt>
<pdfrwt beam="2">0</pdfrwt>
<totfact> 0.30177221E+04</totfact>
</mgrwt>
</event>
<event>
 6    1  0.1284012E-001  0.3000000E+03  0.7818608E-02  0.1093470E+00
         21   -1    0    0  501  502  0.00000000000E+00  0.00000000000E+00  0.17573953335E+01  0.17573953335E+01  0.00000000000E+00 0. -1.
         13   -1    0    0    0    0 -0.00000000000E+00 -0.00000000000E+00 -0.10000000000E+04  0.10000000000E+04  0.00000000000E+00 0.  1.
    9000005    2    1    2  501    0 -0.20292603138E+02  0.26009543520E+02 -0.80771464901E+03  0.80839455510E+03  0.32428991766E+01 0.  0.
         13    1    3    3    0    0 -0.23651912092E+01  0.26774592352E+01 -0.11450286719E+03  0.11455858550E+03  0.00000000000E+00 0.  1.
          3    1    3    3  501    0 -0.17927411929E+02  0.23332084285E+02 -0.69321178182E+03  0.69383596960E+03  0.00000000000E+00 0.  1.
         -3    1    1    2    0  502  0.20292603138E+02 -0.26009543520E+02 -0.19052795566E+03  0.19336284024E+03  0.00000000000E+00 0. -1.
<mgrwt>
<rscale>  1 0.30000000E+03</rscale>
<asrwt>0</asrwt>
<pdfrwt beam="1">  1       21 0.63905420E-02 0.30000000E+03</pdfrwt>
<pdfrwt beam="2">0</pdfrwt>
<totfact> 0.18897358E+04</totfact>
</mgrwt>
</event>
<event>
 6    1  0.1284012E-001  0.3000000E+03  0.7818608E-02  0.1093470E+00
         21   -1    0    0  501  502  0.00000000000E+00  0.00000000000E+00  0.15895279014E+01  0.15895279014E+01  0.00000000000E+00 0. -1.
         13   -1    0    0    0    0 -0.00000000000E+00 -0.00000000000E+00 -0.10000000000E+04  0.10000000000E+04  0.00000000000E+00 0.  1.
    9000005    2    1    2  501    0 -0.36361413036E+02  0.15995632621E+02 -0.47052365399E+03  0.47221016926E+03  0.34528783810E+01 0.  0.
         13    1    3    3    0    0 -0.58358152923E+01  0.12850374021E+01 -0.74961106232E+02  0.75198906300E+02  0.00000000000E+00 0.  1.
          3    1    3    3  501    0 -0.30525597743E+02  0.14710595219E+02 -0.39556254776E+03  0.39701126296E+03  0.00000000000E+00 0.  1.
         -3    1    1    2    0  502  0.36361413036E+02 -0.15995632621E+02 -0.52788681811E+03  0.52937935864E+03  0.00000000000E+00 0. -1.
<mgrwt>
<rscale>  1 0.30000000E+03</rscale>
<asrwt>0</asrwt>
<pdfrwt beam="1">  1       21 0.57801136E-02 0.30000000E+03</pdfrwt>
<pdfrwt beam="2">0</pdfrwt>
<totfact> 0.22472079E+04</totfact>
</mgrwt>
</event>
<event>
 6    1  0.1284012E-001  0.3000000E+03  0.7818608E-02  0.1093470E+00
         21   -1    0    0  501  502  0.00000000000E+00  0.00000000000E+00  0.18600169881E+01  0.18600169881E+01  0.00000000000E+00 0. -1.
         13   -1    0    0    0    0 -0.00000000000E+00 -0.00000000000E+00 -0.10000000000E+04  0.10000000000E+04  0.00000000000E+00 0.  1.
    9000005    2    1    2  501    0  0.41436031309E+02  0.93328533076E+01 -0.42199802297E+03  0.42415455141E+03  0.45503018767E+01 0.  0.
         13    1    3    3    0    0  0.68268438281E+01  0.23653208607E+01 -0.87918444382E+02  0.88214813960E+02  0.00000000000E+00 0.  1.
          3    1    3    3  501    0  0.34609187481E+02  0.69675324468E+01 -0.33407957859E+03  0.33593973745E+03  0.00000000000E+00 0.  1.
         -3    1    1    2    0  502 -0.41436031309E+02 -0.93328533076E+01 -0.57614196004E+03  0.57770546558E+03  0.00000000000E+00 0. -1.
<mgrwt>
<rscale>  1 0.30000000E+03</rscale>
<asrwt>0</asrwt>
<pdfrwt beam="1">  1       21 0.67637124E-02 0.30000000E+03</pdfrwt>
<pdfrwt beam="2">0</pdfrwt>
<totfact> 0.17127569E+04</totfact>
</mgrwt>
</event>
<event>
 6    1  0.1284012E-001  0.3000000E+03  0.7818608E-02  0.1093470E+00
         21   -1    0    0  501  502  0.00000000000E+00  0.00000000000E+00  0.34796094394E+01  0.34796094394E+01  0.00000000000E+00 0. -1.
         13   -1    0    0    0    0 -0.00000000000E+00 -0.00000000000E+00 -0.10000000000E+04  0.10000000000E+04  0.00000000000E+00 0.  1.
    9000005    2    1    2  501    0  0.36310470803E+02  0.33938249106E+02 -0.76560582446E+03  0.76727674773E+03  0.95432760498E+01 0.  0.
         13    1    3    3    0    0  0.36841805475E+02  0.32756687938E+02 -0.74274053587E+03  0.74437478656E+03  0.00000000000E+00 0.  1.
          1    1    3    3  501    0 -0.53133467223E+00  0.11815611680E+01 -0.22865288586E+02  0.22901961170E+02  0.00000000000E+00 0.  1.
         -1    1    1    2    0  502 -0.36310470803E+02 -0.33938249106E+02 -0.23091456610E+03  0.23620286171E+03  0.00000000000E+00 0. -1.
<mgrwt>
<rscale>  1 0.30000000E+03</rscale>
<asrwt>0</asrwt>
<pdfrwt beam="1">  1       21 0.12653152E-01 0.30000000E+03</pdfrwt>
<pdfrwt beam="2">0</pdfrwt>
<totfact> 0.56274334E+03</totfact>
</mgrwt>
</event>
<event>
 6    1  0.1284012E-001  0.3000000E+03  0.7818608E-02  0.1093470E+00
         21   -1    0    0  501  502  0.00000000000E+00  0.00000000000E+00  0.22461933107E+01  0.22461933107E+01  0.00000000000E+00 0. -1.
         13   -1    0    0    0    0 -0.00000000000E+00 -0.00000000000E+00 -0.10000000000E+04  0.10000000000E+04  0.00000000000E+00 0.  1.
    9000005    2    1    2  501    0 -0.17704177848E+02  0.26149326368E+02 -0.87230496319E+03  0.87288376631E+03  0.35910316674E+01 0.  0.
         13    1    3    3    0    0 -0.14981305914E+01  0.80960512542E+00 -0.48008059816E+02  0.48038252082E+02  0.00000000000E+00 0.  1.
          1    1    3    3  501    0 -0.16206047257E+02  0.25339721243E+02 -0.82429690337E+03  0.82484551423E+03  0.00000000000E+00 0.  1.
         -3    1    1    2    0  502  0.17704177848E+02 -0.26149326368E+02 -0.12544884350E+03  0.12936242700E+03  0.00000000000E+00 0. -1.
<mgrwt>
<rscale>  1 0.30000000E+03</rscale>
<asrwt>0</asrwt>
<pdfrwt beam="1">  1       21 0.81679929E-02 0.30000000E+03</pdfrwt>
<pdfrwt beam="2">0</pdfrwt>
<totfact> 0.12315729E+04</totfact>
</mgrwt>
</event>
<event>
 6    1  0.1284012E-001  0.3000000E+03  0.7818608E-02  0.1093470E+00
         21   -1    0    0  501  502  0.00000000000E+00  0.00000000000E+00  0.11652520427E+01  0.11652520427E+01  0.00000000000E+00 0. -1.
         13   -1    0    0    0    0 -0.00000000000E+00 -0.00000000000E+00 -0.10000000000E+04  0.10000000000E+04  0.00000000000E+00 0.  1.
    9000005    2    1    2  501    0 -0.13778543258E+02  0.30750805379E+02 -0.57189853891E+03  0.57290133005E+03  0.35404630642E+01 0.  0.
         13    1    3    3    0    0 -0.44644240562E+01  0.64195008029E+01 -0.13787835799E+03  0.13809990107E+03  0.00000000000E+00 0.  1.
          3    1    3    3  501    0 -0.93141192019E+01  0.24331304576E+02 -0.43402018092E+03  0.43480142898E+03  0.00000000000E+00 0.  1.
         -1    1    1    2    0  502  0.13778543258E+02 -0.30750805379E+02 -0.42693620905E+03  0.42826392199E+03  0.00000000000E+00 0. -1.
<mgrwt>
<rscale>  1 0.30000000E+03</rscale>
<asrwt>0</asrwt>
<pdfrwt beam="1">  1       21 0.42372891E-02 0.30000000E+03</pdfrwt>
<pdfrwt beam="2">0</pdfrwt>
<totfact> 0.38152556E+04</totfact>
</mgrwt>
</event>
<event>
 6    1  0.1284012E-001  0.3000000E+03  0.7818608E-02  0.1093470E+00
         21   -1    0    0  501  502  0.00000000000E+00  0.00000000000E+00  0.13685528557E+01  0.13685528557E+01  0.00000000000E+00 0. -1.
         13   -1    0    0    0    0 -0.00000000000E+00 -0.00000000000E+00 -0.10000000000E+04  0.10000000000E+04  0.00000000000E+00 0.  1.
    9000005    2    1    2  501    0  0.19502152661E+02 -0.25476017943E+02 -0.74772596620E+03  0.74842009602E+03  0.30262427821E+01 0.  0.
         13    1    3    3    0    0  0.11690601405E+02 -0.14324770757E+02 -0.39814078551E+03  0.39856988635E+03  0.00000000000E+00 0.  1.
          1    1    3    3  501    0  0.78115512565E+01 -0.11151247186E+02 -0.34958518069E+03  0.34985020967E+03  0.00000000000E+00 0.  1.
         -3    1    1    2    0  502 -0.19502152661E+02  0.25476017943E+02 -0.25090548094E+03  0.25294845683E+03  0.00000000000E+00 0. -1.
<mgrwt>
<rscale>  1 0.30000000E+03</rscale>
<asrwt>0</asrwt>
<pdfrwt beam="1">  1       21 0.49765663E-02 0.30000000E+03</pdfrwt>
<pdfrwt beam="2">0</pdfrwt>
<totfact> 0.29036233E+04</totfact>
</mgrwt>
</event>
<event>
 6    1  0.1284012E-001  0.3000000E+03  0.7818608E-02  0.1093470E+00
         21   -1    0    0  501  502  0.00000000000E+00  0.00000000000E+00  0.31779808107E+01  0.31779808107E+01  0.00000000000E+00 0. -1.
         13   -1    0    0    0    0 -0.00000000000E+00 -0.00000000000E+00 -0.10000000000E+04  0.10000000000E+04  0.00000000000E+00 0.  1.
    9000005    2    1    2  501    0 -0.41485423490E+02  0.22526171737E+02 -0.22528428199E+03  0.23019741915E+03  0.30619109179E+01 0.  0.
         13    1    3    3    0    0 -0.26932411705E+02  0.13150851217E+02 -0.14621195216E+03  0.14925225172E+03  0.00000000000E+00 0.  1.
          3    1    3    3  501    0 -0.14553011785E+02  0.93753205207E+01 -0.79072329828E+02  0.80945167436E+02  0.00000000000E+00 0.  1.
         -3    1    1    2    0  502  0.41485423490E+02 -0.22526171737E+02 -0.77153773720E+03  0.77298056166E+03  0.00000000000E+00 0. -1.
<mgrwt>
<rscale>  1 0.30000000E+03</rscale>
<asrwt>0</asrwt>
<pdfrwt beam="1">  1       21 0.11556318E-01 0.30000000E+03</pdfrwt>
<pdfrwt beam="2">0</pdfrwt>
<totfact> 0.66347242E+03</totfact>
</mgrwt>
</event>
<event>
 6    1  0.1284012E-001  0.3000000E+03  0.7818608E-02  0.1093470E+00
         21   -1    0    0  501  502  0.00000000000E+00  0.00000000000E+00  0.25549101593E+01  0.25549101593E+01  0.00000000000E+00 0. -1.
         13   -1    0    0    0    0 -0.00000000000E+00 -0.00000000000E+00 -0.10000000000E+04  0.10000000000E+04  0.00000000000E+00 0.  1.
    9000005    2    1    2  501    0 -0.63528712036E+01  0.42039688927E+02 -0.76917988256E+03  0.77036382662E+03  0.38780434171E+01 0.  0.
         13    1    3    3    0    0 -0.41519982027E+01  0.23442615628E+02 -0.39719284996E+03  0.39790571166E+03  0.00000000000E+00 0.  1.
          3    1    3    3  501    0 -0.22008730009E+01  0.18597073299E+02 -0.37198703260E+03  0.37245811496E+03  0.00000000000E+00 0.  1.
         -3    1    1    2    0  502  0.63528712036E+01 -0.42039688927E+02 -0.22826520728E+03  0.23219108354E+03  0.00000000000E+00 0. -1.
<mgrwt>
<rscale>  1 0.30000000E+03</rscale>
<asrwt>0</asrwt>
<pdfrwt beam="1">  1       21 0.92906020E-02 0.30000000E+03</pdfrwt>
<pdfrwt beam="2">0</pdfrwt>
<totfact> 0.98091006E+03</totfact>
</mgrwt>
</event>
<event>
 6    1  0.1284012E-001  0.3000000E+03  0.7818608E-02  0.1093470E+00
         21   -1    0    0  501  502  0.00000000000E+00  0.00000000000E+00  0.11944248343E+01  0.11944248343E+01  0.00000000000E+00 0. -1.
         13   -1    0    0    0    0 -0.00000000000E+00 -0.00000000000E+00 -0.10000000000E+04  0.10000000000E+04  0.00000000000E+00 0.  1.
    9000005    2    1    2  501    0  0.27854387227E+02 -0.16358024256E+02 -0.67470522484E+03  0.67548828592E+03  0.37191589263E+01 0.  0.
         13    1    3    3    0    0  0.26958644122E+02 -0.16222584578E+02 -0.64200360281E+03  0.64277411800E+03  0.00000000000E+00 0.  1.
          3    1    3    3  501    0  0.89574310440E+00 -0.13543967858E+00 -0.32701622022E+02  0.32714167917E+02  0.00000000000E+00 0.  1.
         -1    1    1    2    0  502 -0.27854387227E+02  0.16358024256E+02 -0.32410035033E+03  0.32570613892E+03  0.00000000000E+00 0. -1.
<mgrwt>
<rscale>  1 0.30000000E+03</rscale>
<asrwt>0</asrwt>
<pdfrwt beam="1">  1       21 0.43433722E-02 0.30000000E+03</pdfrwt>
<pdfrwt beam="2">0</pdfrwt>
<totfact> 0.36590179E+04</totfact>
</mgrwt>
</event>
<event>
 6    1  0.1284012E-001  0.3000000E+03  0.7818608E-02  0.1093470E+00
         21   -1    0    0  501  502  0.00000000000E+00  0.00000000000E+00  0.15798443251E+01  0.15798443251E+01  0.00000000000E+00 0. -1.
         13   -1    0    0    0    0 -0.00000000000E+00 -0.00000000000E+00 -0.10000000000E+04  0.10000000000E+04  0.00000000000E+00 0.  1.
    9000005    2    1    2  501    0 -0.15251282388E+01  0.39326829433E+02 -0.44305422621E+03  0.44482115231E+03  0.44592203499E+01 0.  0.
         13    1    3    3    0    0 -0.25847818281E+01  0.23537466798E+02 -0.28115332040E+03  0.28214868954E+03  0.00000000000E+00 0.  1.
          3    1    3    3  501    0  0.10596535892E+01  0.15789362635E+02 -0.16190090581E+03  0.16267246276E+03  0.00000000000E+00 0.  1.
         -3    1    1    2    0  502  0.15251282388E+01 -0.39326829433E+02 -0.55536592946E+03  0.55675869202E+03  0.00000000000E+00 0. -1.
<mgrwt>
<rscale>  1 0.30000000E+03</rscale>
<asrwt>0</asrwt>
<pdfrwt beam="1">  1       21 0.57449006E-02 0.30000000E+03</pdfrwt>
<pdfrwt beam="2">0</pdfrwt>
<totfact> 0.22709677E+04</totfact>
</mgrwt>
</event>
<event>
 6    1  0.1284012E-001  0.3000000E+03  0.7818608E-02  0.1093470E+00
         21   -1    0    0  501  502  0.00000000000E+00  0.00000000000E+00  0.10715461911E+01  0.10715461911E+01  0.00000000000E+00 0. -1.
         13   -1    0    0    0    0 -0.00000000000E+00 -0.00000000000E+00 -0.10000000000E+04  0.10000000000E+04  0.00000000000E+00 0.  1.
    9000005    2    1    2  501    0  0.29102472749E+02  0.11080886652E+02 -0.64792797553E+03  0.64869238148E+03  0.46264834675E+01 0.  0.
         13    1    3    3    0    0  0.25694246625E+02  0.97823048820E+01 -0.59780430263E+03  0.59843618878E+03  0.00000000000E+00 0.  1.
          3    1    3    3  501    0  0.34082261246E+01  0.12985817702E+01 -0.50123672901E+02  0.50256192703E+02  0.00000000000E+00 0.  1.
         -1    1    1    2    0  502 -0.29102472749E+02 -0.11080886652E+02 -0.35100047828E+03  0.35237916471E+03  0.00000000000E+00 0. -1.
<mgrwt>
<rscale>  1 0.30000000E+03</rscale>
<asrwt>0</asrwt>
<pdfrwt beam="1">  1       21 0.38965398E-02 0.30000000E+03</pdfrwt>
<pdfrwt beam="2">0</pdfrwt>
<totfact> 0.43943224E+04</totfact>
</mgrwt>
</event>
<event>
 6    1  0.1284012E-001  0.3000000E+03  0.7818608E-02  0.1093470E+00
         21   -1    0    0  501  502  0.00000000000E+00  0.00000000000E+00  0.36433332471E+01  0.36433332471E+01  0.00000000000E+00 0. -1.
         13   -1    0    0    0    0 -0.00000000000E+00 -0.00000000000E+00 -0.10000000000E+04  0.10000000000E+04  0.00000000000E+00 0.  1.
    9000005    2    1    2  501    0  0.25983286528E+02  0.29974255826E+02 -0.87629189011E+03  0.87719517082E+03  0.32099602347E+01 0.  0.
         13    1    3    3    0    0  0.76808764576E+01  0.11055877030E+02 -0.30735752533E+03  0.30765220080E+03  0.00000000000E+00 0.  1.
          1    1    3    3  501    0  0.18302410071E+02  0.18918378795E+02 -0.56893436478E+03  0.56954297002E+03  0.00000000000E+00 0.  1.
         -3    1    1    2    0  502 -0.25983286528E+02 -0.29974255826E+02 -0.12006477664E+03  0.12644816243E+03  0.00000000000E+00 0. -1.
<mgrwt>
<rscale>  1 0.30000000E+03</rscale>
<asrwt>0</asrwt>
<pdfrwt beam="1">  1       21 0.13248512E-01 0.30000000E+03</pdfrwt>
<pdfrwt beam="2">0</pdfrwt>
<totfact> 0.51743387E+03</totfact>
</mgrwt>
</event>
<event>
 6    1  0.1284012E-001  0.3000000E+03  0.7818608E-02  0.1093470E+00
         21   -1    0    0  501  502  0.00000000000E+00  0.00000000000E+00  0.17072900983E+01  0.17072900983E+01  0.00000000000E+00 0. -1.
         13   -1    0    0    0    0 -0.00000000000E+00 -0.00000000000E+00 -0.10000000000E+04  0.10000000000E+04  0.00000000000E+00 0.  1.
    9000005    2    1    2  501    0  0.28127267661E+02  0.14407114774E+02 -0.82139658249E+03  0.82201046755E+03  0.31866733225E+01 0.  0.
         13    1    3    3    0    0  0.23313542166E+02  0.12381889525E+02 -0.71226697965E+03  0.71275597699E+03  0.00000000000E+00 0.  1.
          3    1    3    3  501    0  0.48137254948E+01  0.20252252491E+01 -0.10912960284E+03  0.10925449056E+03  0.00000000000E+00 0.  1.
         -3    1    1    2    0  502 -0.28127267661E+02 -0.14407114774E+02 -0.17689612741E+03  0.17969682255E+03  0.00000000000E+00 0. -1.
<mgrwt>
<rscale>  1 0.30000000E+03</rscale>
<asrwt>0</asrwt>
<pdfrwt beam="1">  1       21 0.62083407E-02 0.30000000E+03</pdfrwt>
<pdfrwt beam="2">0</pdfrwt>
<totfact> 0.19866160E+04</totfact>
</mgrwt>
</event>
<event>
 6    1  0.1284012E-001  0.3000000E+03  0.7818608E-02  0.1093470E+00
         21   -1    0    0  501  502  0.00000000000E+00  0.00000000000E+00  0.39811973876E+01  0.39811973876E+01  0.00000000000E+00 0. -1.
         13   -1    0    0    0    0 -0.00000000000E+00 -0.00000000000E+00 -0.10000000000E+04  0.10000000000E+04  0.00000000000E+00 0.  1.
    9000005    2    1    2  501    0  0.21780035921E+02  0.33518714934E+02 -0.88630123852E+03  0.88720869169E+03  0.33916073485E+01 0.  0.
         13    1    3    3    0    0  0.17159225539E+02  0.26812205338E+02 -0.67404326875E+03  0.67479453282E+03  0.00000000000E+00 0.  1.
          1    1    3    3  501    0  0.46208103814E+01  0.67065095960E+01 -0.21225796977E+03  0.21241415887E+03  0.00000000000E+00 0.  1.
         -1    1    1    2    0  502 -0.21780035921E+02 -0.33518714934E+02 -0.10971756409E+03  0.11677250569E+03  0.00000000000E+00 0. -1.
<mgrwt>
<rscale>  1 0.30000000E+03</rscale>
<asrwt>0</asrwt>
<pdfrwt beam="1">  1       21 0.14477112E-01 0.30000000E+03</pdfrwt>
<pdfrwt beam="2">0</pdfrwt>
<totfact> 0.43969647E+03</totfact>
</mgrwt>
</event>
<event>
 6    1  0.1284012E-001  0.3000000E+03  0.7818608E-02  0.1093470E+00
         21   -1    0    0  501  502  0.00000000000E+00  0.00000000000E+00  0.12572467338E+02  0.12572467338E+02  0.00000000000E+00 0. -1.
         13   -1    0    0    0    0 -0.00000000000E+00 -0.00000000000E+00 -0.10000000000E+04  0.10000000000E+04  0.00000000000E+00 0.  1.
    9000005    2    1    2  501    0 -0.23119372027E+02 -0.90143841702E+02 -0.77518022474E+03  0.78081971702E+03  0.10706638051E+02 0.  0.
         13    1    3    3    0    0 -0.13765192845E+01 -0.93169865391E+01 -0.10796480706E+03  0.10837481537E+03  0.00000000000E+00 0.  1.
          1    1    3    3  501    0 -0.21742852742E+02 -0.80826855163E+02 -0.66721541769E+03  0.67244490165E+03  0.00000000000E+00 0.  1.
         -1    1    1    2    0  502  0.23119372027E+02  0.90143841702E+02 -0.21224730792E+03  0.23175275032E+03  0.00000000000E+00 0. -1.
<mgrwt>
<rscale>  1 0.30000000E+03</rscale>
<asrwt>0</asrwt>
<pdfrwt beam="1">  1       21 0.45718159E-01 0.30000000E+03</pdfrwt>
<pdfrwt beam="2">0</pdfrwt>
<totfact> 0.45546379E+02</totfact>
</mgrwt>
</event>
<event>
 6    1  0.1284012E-001  0.3000000E+03  0.7818608E-02  0.1093470E+00
         21   -1    0    0  501  502  0.00000000000E+00  0.00000000000E+00  0.10603761455E+01  0.10603761455E+01  0.00000000000E+00 0. -1.
         13   -1    0    0    0    0 -0.00000000000E+00 -0.00000000000E+00 -0.10000000000E+04  0.10000000000E+04  0.00000000000E+00 0.  1.
    9000005    2    1    2  501    0  0.11504405889E+02  0.29533356644E+02 -0.60591371955E+03  0.60675854764E+03  0.44642002604E+01 0.  0.
         13    1    3    3    0    0  0.86416074227E+00  0.71381899373E+01 -0.14609438361E+03  0.14627121881E+03  0.00000000000E+00 0.  1.
          3    1    3    3  501    0  0.10640245147E+02  0.22395166707E+02 -0.45981933594E+03  0.46048732883E+03  0.00000000000E+00 0.  1.
         -3    1    1    2    0  502 -0.11504405889E+02 -0.29533356644E+02 -0.39302590431E+03  0.39430182851E+03  0.00000000000E+00 0. -1.
<mgrwt>
<rscale>  1 0.30000000E+03</rscale>
<asrwt>0</asrwt>
<pdfrwt beam="1">  1       21 0.38559214E-02 0.30000000E+03</pdfrwt>
<pdfrwt beam="2">0</pdfrwt>
<totfact> 0.44724399E+04</totfact>
</mgrwt>
</event>
<event>
 6    1  0.1284012E-001  0.3000000E+03  0.7818608E-02  0.1093470E+00
         21   -1    0    0  501  502  0.00000000000E+00  0.00000000000E+00  0.37605223692E+01  0.37605223692E+01  0.00000000000E+00 0. -1.
         13   -1    0    0    0    0 -0.00000000000E+00 -0.00000000000E+00 -0.10000000000E+04  0.10000000000E+04  0.00000000000E+00 0.  1.
    9000005    2    1    2  501    0 -0.40806741296E+02 -0.16800384538E+02 -0.84646717834E+03  0.84762217125E+03  0.30361372629E+01 0.  0.
         13    1    3    3    0    0 -0.18901224980E+02 -0.92036483011E+01 -0.41702537738E+03  0.41755494108E+03  0.00000000000E+00 0.  1.
          3    1    3    3  501    0 -0.21905516316E+02 -0.75967362369E+01 -0.42944180097E+03  0.43006723017E+03  0.00000000000E+00 0.  1.
         -1    1    1    2    0  502  0.40806741296E+02  0.16800384538E+02 -0.14977229929E+03  0.15613835112E+03  0.00000000000E+00 0. -1.
<mgrwt>
<rscale>  1 0.30000000E+03</rscale>
<asrwt>0</asrwt>
<pdfrwt beam="1">  1       21 0.13674656E-01 0.30000000E+03</pdfrwt>
<pdfrwt beam="2">0</pdfrwt>
<totfact> 0.48829183E+03</totfact>
</mgrwt>
</event>
<event>
 6    1  0.1284012E-001  0.3000000E+03  0.7818608E-02  0.1093470E+00
         21   -1    0    0  501  502  0.00000000000E+00  0.00000000000E+00  0.10254903468E+02  0.10254903468E+02  0.00000000000E+00 0. -1.
         13   -1    0    0    0    0 -0.00000000000E+00 -0.00000000000E+00 -0.10000000000E+04  0.10000000000E+04  0.00000000000E+00 0.  1.
    9000005    2    1    2  501    0  0.91060178291E+02 -0.43756116374E+02 -0.52769007582E+03  0.53728408411E+03  0.32889416704E+01 0.  0.
         13    1    3    3    0    0  0.18675485312E+02 -0.82621663294E+01 -0.11291776991E+03  0.11474955297E+03  0.00000000000E+00 0.  1.
          1    1    3    3  501    0  0.72384692979E+02 -0.35493950044E+02 -0.41477230591E+03  0.42253453115E+03  0.00000000000E+00 0.  1.
         -1    1    1    2    0  502 -0.91060178291E+02  0.43756116374E+02 -0.46205502072E+03  0.47297081935E+03  0.00000000000E+00 0. -1.
<mgrwt>
<rscale>  1 0.30000000E+03</rscale>
<asrwt>0</asrwt>
<pdfrwt beam="1">  1       21 0.37290637E-01 0.30000000E+03</pdfrwt>
<pdfrwt beam="2">0</pdfrwt>
<totfact> 0.69863896E+02</totfact>
</mgrwt>
</event>
<event>
 6    1  0.1284012E-001  0.3000000E+03  0.7818608E-02  0.1093470E+00
         21   -1    0    0  501  502  0.00000000000E+00  0.00000000000E+00  0.31955969310E+01  0.31955969310E+01  0.00000000000E+00 0. -1.
         13   -1    0    0    0    0 -0.00000000000E+00 -0.00000000000E+00 -0.10000000000E+04  0.10000000000E+04  0.00000000000E+00 0.  1.
    9000005    2    1    2  501    0 -0.36049965757E+01  0.48352347755E+02 -0.75587865420E+03  0.75743929080E+03  0.32853984307E+01 0.  0.
         13    1    3    3    0    0 -0.28321067735E+01  0.46548497119E+02 -0.72454396548E+03  0.72604320900E+03  0.00000000000E+00 0.  1.
          1    1    3    3  501    0 -0.77288980221E+00  0.18038506363E+01 -0.31334688713E+02  0.31396081802E+02  0.00000000000E+00 0.  1.
         -1    1    1    2    0  502  0.36049965757E+01 -0.48352347755E+02 -0.24092574887E+03  0.24575630613E+03  0.00000000000E+00 0. -1.
<mgrwt>
<rscale>  1 0.30000000E+03</rscale>
<asrwt>0</asrwt>
<pdfrwt beam="1">  1       21 0.11620377E-01 0.30000000E+03</pdfrwt>
<pdfrwt beam="2">0</pdfrwt>
<totfact> 0.65687450E+03</totfact>
</mgrwt>
</event>
<event>
 6    1  0.1284012E-001  0.3000000E+03  0.7818608E-02  0.1093470E+00
         21   -1    0    0  501  502  0.00000000000E+00  0.00000000000E+00  0.21576380886E+01  0.21576380886E+01  0.00000000000E+00 0. -1.
         13   -1    0    0    0    0 -0.00000000000E+00 -0.00000000000E+00 -0.10000000000E+04  0.10000000000E+04  0.00000000000E+00 0.  1.
    9000005    2    1    2  501    0 -0.22908613498E+02 -0.19564551775E+02 -0.88009060280E+03  0.88061318929E+03  0.35417179709E+01 0.  0.
         13    1    3    3    0    0 -0.26028290757E+01 -0.94407934442E+00 -0.88390292331E+02  0.88433646218E+02  0.00000000000E+00 0.  1.
          1    1    3    3  501    0 -0.20305784422E+02 -0.18620472431E+02 -0.79170031047E+03  0.79217954307E+03  0.00000000000E+00 0.  1.
         -1    1    1    2    0  502  0.22908613498E+02  0.19564551775E+02 -0.11775175912E+03  0.12154444880E+03  0.00000000000E+00 0. -1.
<mgrwt>
<rscale>  1 0.30000000E+03</rscale>
<asrwt>0</asrwt>
<pdfrwt beam="1">  1       21 0.78459732E-02 0.30000000E+03</pdfrwt>
<pdfrwt beam="2">0</pdfrwt>
<totfact> 0.13217355E+04</totfact>
</mgrwt>
</event>
<event>
 6    1  0.1284012E-001  0.3000000E+03  0.7818608E-02  0.1093470E+00
         21   -1    0    0  501  502  0.00000000000E+00  0.00000000000E+00  0.41477333022E+01  0.41477333022E+01  0.00000000000E+00 0. -1.
         13   -1    0    0    0    0 -0.00000000000E+00 -0.00000000000E+00 -0.10000000000E+04  0.10000000000E+04  0.00000000000E+00 0.  1.
    9000005    2    1    2  501    0  0.28980664666E+02  0.24007683065E+02 -0.90529658825E+03  0.90608357742E+03  0.30477522615E+01 0.  0.
         13    1    3    3    0    0  0.74135837277E+01  0.75124038062E+01 -0.27480835944E+03  0.27501096679E+03  0.00000000000E+00 0.  1.
          3    1    3    3  501    0  0.21567080938E+02  0.16495279259E+02 -0.63048822881E+03  0.63107261063E+03  0.00000000000E+00 0.  1.
         -1    1    1    2    0  502 -0.28980664666E+02 -0.24007683065E+02 -0.90555678447E+02  0.98064155886E+02  0.00000000000E+00 0. -1.
<mgrwt>
<rscale>  1 0.30000000E+03</rscale>
<asrwt>0</asrwt>
<pdfrwt beam="1">  1       21 0.15082698E-01 0.30000000E+03</pdfrwt>
<pdfrwt beam="2">0</pdfrwt>
<totfact> 0.40763283E+03</totfact>
</mgrwt>
</event>
<event>
 6    1  0.1284012E-001  0.3000000E+03  0.7818608E-02  0.1093470E+00
         21   -1    0    0  501  502  0.00000000000E+00  0.00000000000E+00  0.10136598016E+01  0.10136598016E+01  0.00000000000E+00 0. -1.
         13   -1    0    0    0    0 -0.00000000000E+00 -0.00000000000E+00 -0.10000000000E+04  0.10000000000E+04  0.00000000000E+00 0.  1.
    9000005    2    1    2  501    0  0.30407414654E+02 -0.59791999364E+01 -0.60932847378E+03  0.61012542186E+03  0.33881773086E+01 0.  0.
         13    1    3    3    0    0  0.69774968064E+00 -0.25801967966E+00 -0.28267655973E+02  0.28277443360E+02  0.00000000000E+00 0.  1.
          3    1    3    3  501    0  0.29709664973E+02 -0.57211802568E+01 -0.58106081781E+03  0.58184797850E+03  0.00000000000E+00 0.  1.
         -1    1    1    2    0  502 -0.30407414654E+02  0.59791999364E+01 -0.38965786642E+03  0.39088823794E+03  0.00000000000E+00 0. -1.
<mgrwt>
<rscale>  1 0.30000000E+03</rscale>
<asrwt>0</asrwt>
<pdfrwt beam="1">  1       21 0.36860434E-02 0.30000000E+03</pdfrwt>
<pdfrwt beam="2">0</pdfrwt>
<totfact> 0.48240449E+04</totfact>
</mgrwt>
</event>
<event>
 6    1  0.1284012E-001  0.3000000E+03  0.7818608E-02  0.1093470E+00
         21   -1    0    0  501  502  0.00000000000E+00  0.00000000000E+00  0.10744954914E+01  0.10744954914E+01  0.00000000000E+00 0. -1.
         13   -1    0    0    0    0 -0.00000000000E+00 -0.00000000000E+00 -0.10000000000E+04  0.10000000000E+04  0.00000000000E+00 0.  1.
    9000005    2    1    2  501    0  0.29533701648E+02 -0.13964428924E+02 -0.47169111681E+03  0.47282896131E+03  0.27335270324E+01 0.  0.
         13    1    3    3    0    0  0.38394941667E+01 -0.22816894347E+01 -0.53258667590E+02  0.53445612501E+02  0.00000000000E+00 0.  1.
          1    1    3    3  501    0  0.25694207482E+02 -0.11682739489E+02 -0.41843244922E+03  0.41938334881E+03  0.00000000000E+00 0.  1.
         -3    1    1    2    0  502 -0.29533701648E+02  0.13964428924E+02 -0.52723438770E+03  0.52824553418E+03  0.00000000000E+00 0. -1.
<mgrwt>
<rscale>  1 0.30000000E+03</rscale>
<asrwt>0</asrwt>
<pdfrwt beam="1">  1       21 0.39072646E-02 0.30000000E+03</pdfrwt>
<pdfrwt beam="2">0</pdfrwt>
<totfact> 0.43740533E+04</totfact>
</mgrwt>
</event>
<event>
 6    1  0.1284012E-001  0.3000000E+03  0.7818608E-02  0.1093470E+00
         21   -1    0    0  501  502  0.00000000000E+00  0.00000000000E+00  0.21360688532E+01  0.21360688532E+01  0.00000000000E+00 0. -1.
         13   -1    0    0    0    0 -0.00000000000E+00 -0.00000000000E+00 -0.10000000000E+04  0.10000000000E+04  0.00000000000E+00 0.  1.
    9000005    2    1    2  501    0  0.33976556109E+02  0.98392843157E+01 -0.82112158846E+03  0.82188881206E+03  0.30558932383E+01 0.  0.
         13    1    3    3    0    0  0.21737621476E+02  0.63455575305E+01 -0.49086929516E+03  0.49139134630E+03  0.00000000000E+00 0.  1.
          1    1    3    3  501    0  0.12238934632E+02  0.34937267851E+01 -0.33025229330E+03  0.33049746576E+03  0.00000000000E+00 0.  1.
         -1    1    1    2    0  502 -0.33976556109E+02 -0.98392843157E+01 -0.17674234269E+03  0.18024725679E+03  0.00000000000E+00 0. -1.
<mgrwt>
<rscale>  1 0.30000000E+03</rscale>
<asrwt>0</asrwt>
<pdfrwt beam="1">  1       21 0.77675395E-02 0.30000000E+03</pdfrwt>
<pdfrwt beam="2">0</pdfrwt>
<totfact> 0.13452361E+04</totfact>
</mgrwt>
</event>
<event>
 6    1  0.1284012E-001  0.3000000E+03  0.7818608E-02  0.1093470E+00
         21   -1    0    0  501  502  0.00000000000E+00  0.00000000000E+00  0.11685552123E+02  0.11685552123E+02  0.00000000000E+00 0. -1.
         13   -1    0    0    0    0 -0.00000000000E+00 -0.00000000000E+00 -0.10000000000E+04  0.10000000000E+04  0.00000000000E+00 0.  1.
    9000005    2    1    2  501    0 -0.87031901968E+02 -0.64047110005E+02 -0.50095893538E+03  0.51249422626E+03  0.37272976965E+01 0.  0.
         13    1    3    3    0    0 -0.36945220276E+02 -0.24935830956E+02 -0.20522035720E+03  0.21000509512E+03  0.00000000000E+00 0.  1.
          3    1    3    3  501    0 -0.50086681692E+02 -0.39111279049E+02 -0.29573857818E+03  0.30248913114E+03  0.00000000000E+00 0.  1.
         -1    1    1    2    0  502  0.87031901968E+02  0.64047110005E+02 -0.48735551249E+03  0.49919132586E+03  0.00000000000E+00 0. -1.
<mgrwt>
<rscale>  1 0.30000000E+03</rscale>
<asrwt>0</asrwt>
<pdfrwt beam="1">  1       21 0.42493006E-01 0.30000000E+03</pdfrwt>
<pdfrwt beam="2">0</pdfrwt>
<totfact> 0.53197394E+02</totfact>
</mgrwt>
</event>
<event>
 6    1  0.1284012E-001  0.3000000E+03  0.7818608E-02  0.1093470E+00
         21   -1    0    0  501  502  0.00000000000E+00  0.00000000000E+00  0.24116738186E+01  0.24116738186E+01  0.00000000000E+00 0. -1.
         13   -1    0    0    0    0 -0.00000000000E+00 -0.00000000000E+00 -0.10000000000E+04  0.10000000000E+04  0.00000000000E+00 0.  1.
    9000005    2    1    2  501    0 -0.28697786402E+02 -0.10036651509E+02 -0.89224393423E+03  0.89276798621E+03  0.33379191442E+01 0.  0.
         13    1    3    3    0    0 -0.20608723600E+02 -0.72727519863E+01 -0.59522429262E+03  0.59562536123E+03  0.00000000000E+00 0.  1.
          3    1    3    3  501    0 -0.80890628026E+01 -0.27638995227E+01 -0.29701964161E+03  0.29714262498E+03  0.00000000000E+00 0.  1.
         -1    1    1    2    0  502  0.28697786402E+02  0.10036651509E+02 -0.10534439195E+03  0.10964368761E+03  0.00000000000E+00 0. -1.
<mgrwt>
<rscale>  1 0.30000000E+03</rscale>
<asrwt>0</asrwt>
<pdfrwt beam="1">  1       21 0.87697415E-02 0.30000000E+03</pdfrwt>
<pdfrwt beam="2">0</pdfrwt>
<totfact> 0.10865154E+04</totfact>
</mgrwt>
</event>
<event>
 6    1  0.1284012E-001  0.3000000E+03  0.7818608E-02  0.1093470E+00
         21   -1    0    0  501  502  0.00000000000E+00  0.00000000000E+00  0.40789816285E+01  0.40789816285E+01  0.00000000000E+00 0. -1.
         13   -1    0    0    0    0 -0.00000000000E+00 -0.00000000000E+00 -0.10000000000E+04  0.10000000000E+04  0.00000000000E+00 0.  1.
    9000005    2    1    2  501    0  0.61394055121E+02  0.29782089704E+01 -0.36315431077E+03  0.36833390223E+03  0.32726696837E+01 0.  0.
         13    1    3    3    0    0  0.24335521792E+02  0.79363780567E+00 -0.13464862416E+03  0.13683237728E+03  0.00000000000E+00 0.  1.
          3    1    3    3  501    0  0.37058533329E+02  0.21845711647E+01 -0.22850568660E+03  0.23150152495E+03  0.00000000000E+00 0.  1.
         -3    1    1    2    0  502 -0.61394055121E+02 -0.29782089704E+01 -0.63276670760E+03  0.63574507940E+03  0.00000000000E+00 0. -1.
<mgrwt>
<rscale>  1 0.30000000E+03</rscale>
<asrwt>0</asrwt>
<pdfrwt beam="1">  1       21 0.14832692E-01 0.30000000E+03</pdfrwt>
<pdfrwt beam="2">0</pdfrwt>
<totfact> 0.42043647E+03</totfact>
</mgrwt>
</event>
<event>
 6    1  0.1284012E-001  0.3000000E+03  0.7818608E-02  0.1093470E+00
         21   -1    0    0  501  502  0.00000000000E+00  0.00000000000E+00  0.11978739210E+01  0.11978739210E+01  0.00000000000E+00 0. -1.
         13   -1    0    0    0    0 -0.00000000000E+00 -0.00000000000E+00 -0.10000000000E+04  0.10000000000E+04  0.00000000000E+00 0.  1.
    9000005    2    1    2  501    0  0.68653561762E+01 -0.32055092549E+02 -0.34262557830E+03  0.34420295466E+03  0.29538145793E+01 0.  0.
         13    1    3    3    0    0  0.36544941496E+01 -0.22905974908E+02 -0.24739081836E+03  0.24847586608E+03  0.00000000000E+00 0.  1.
          3    1    3    3  501    0  0.32108620267E+01 -0.91491176404E+01 -0.95234759937E+02  0.95727088584E+02  0.00000000000E+00 0.  1.
         -3    1    1    2    0  502 -0.68653561762E+01  0.32055092549E+02 -0.65617654778E+03  0.65699491926E+03  0.00000000000E+00 0. -1.
<mgrwt>
<rscale>  1 0.30000000E+03</rscale>
<asrwt>0</asrwt>
<pdfrwt beam="1">  1       21 0.43559144E-02 0.30000000E+03</pdfrwt>
<pdfrwt beam="2">0</pdfrwt>
<totfact> 0.36412037E+04</totfact>
</mgrwt>
</event>
<event>
 6    1  0.1284012E-001  0.3000000E+03  0.7818608E-02  0.1093470E+00
         21   -1    0    0  501  502  0.00000000000E+00  0.00000000000E+00  0.12585171301E+01  0.12585171301E+01  0.00000000000E+00 0. -1.
         13   -1    0    0    0    0 -0.00000000000E+00 -0.00000000000E+00 -0.10000000000E+04  0.10000000000E+04  0.00000000000E+00 0.  1.
    9000005    2    1    2  501    0  0.83626604305E+01 -0.33545216267E+02 -0.60758466978E+03  0.60857688011E+03  0.33870979142E+01 0.  0.
         13    1    3    3    0    0  0.20338975324E+00 -0.45734695065E+00 -0.40476564369E+01  0.40784870058E+01  0.00000000000E+00 0.  1.
          3    1    3    3  501    0  0.81592706773E+01 -0.33087869316E+02 -0.60353701334E+03  0.60449839310E+03  0.00000000000E+00 0.  1.
         -1    1    1    2    0  502 -0.83626604305E+01  0.33545216267E+02 -0.39115681309E+03  0.39268163702E+03  0.00000000000E+00 0. -1.
<mgrwt>
<rscale>  1 0.30000000E+03</rscale>
<asrwt>0</asrwt>
<pdfrwt beam="1">  1       21 0.45764356E-02 0.30000000E+03</pdfrwt>
<pdfrwt beam="2">0</pdfrwt>
<totfact> 0.33486682E+04</totfact>
</mgrwt>
</event>
<event>
 6    1  0.1284012E-001  0.3000000E+03  0.7818608E-02  0.1093470E+00
         21   -1    0    0  501  502  0.00000000000E+00  0.00000000000E+00  0.96614726351E+00  0.96614726351E+00  0.00000000000E+00 0. -1.
         13   -1    0    0    0    0 -0.00000000000E+00 -0.00000000000E+00 -0.10000000000E+04  0.10000000000E+04  0.00000000000E+00 0.  1.
    9000005    2    1    2  501    0  0.22118112348E+02  0.21292382543E+02 -0.43179486902E+03  0.43289692516E+03  0.32190770351E+01 0.  0.
         13    1    3    3    0    0  0.49427008152E+01  0.33603715458E+01 -0.95199247670E+02  0.95386682221E+02  0.00000000000E+00 0.  1.
          3    1    3    3  501    0  0.17175411532E+02  0.17932010997E+02 -0.33659562135E+03  0.33751024294E+03  0.00000000000E+00 0.  1.
         -3    1    1    2    0  502 -0.22118112348E+02 -0.21292382543E+02 -0.56723898372E+03  0.56806922210E+03  0.00000000000E+00 0. -1.
<mgrwt>
<rscale>  1 0.30000000E+03</rscale>
<asrwt>0</asrwt>
<pdfrwt beam="1">  1       21 0.35132702E-02 0.30000000E+03</pdfrwt>
<pdfrwt beam="2">0</pdfrwt>
<totfact> 0.52284398E+04</totfact>
</mgrwt>
</event>
<event>
 6    1  0.1284012E-001  0.3000000E+03  0.7818608E-02  0.1093470E+00
         21   -1    0    0  501  502  0.00000000000E+00  0.00000000000E+00  0.13974512190E+01  0.13974512190E+01  0.00000000000E+00 0. -1.
         13   -1    0    0    0    0 -0.00000000000E+00 -0.00000000000E+00 -0.10000000000E+04  0.10000000000E+04  0.00000000000E+00 0.  1.
    9000005    2    1    2  501    0  0.11700803809E+02  0.28440410161E+02 -0.78307793569E+03  0.78368979267E+03  0.35877627446E+01 0.  0.
         13    1    3    3    0    0  0.38116504717E+00  0.20810881462E+01 -0.77613080468E+02  0.77641911842E+02  0.00000000000E+00 0.  1.
          1    1    3    3  501    0  0.11319638762E+02  0.26359322015E+02 -0.70546485522E+03  0.70604788083E+03  0.00000000000E+00 0.  1.
         -1    1    1    2    0  502 -0.11700803809E+02 -0.28440410161E+02 -0.21552461309E+03  0.21770765854E+03  0.00000000000E+00 0. -1.
<mgrwt>
<rscale>  1 0.30000000E+03</rscale>
<asrwt>0</asrwt>
<pdfrwt beam="1">  1       21 0.50816515E-02 0.30000000E+03</pdfrwt>
<pdfrwt beam="2">0</pdfrwt>
<totfact> 0.28019814E+04</totfact>
</mgrwt>
</event>
<event>
 6    1  0.1284012E-001  0.3000000E+03  0.7818608E-02  0.1093470E+00
         21   -1    0    0  501  502  0.00000000000E+00  0.00000000000E+00  0.37688380113E+01  0.37688380113E+01  0.00000000000E+00 0. -1.
         13   -1    0    0    0    0 -0.00000000000E+00 -0.00000000000E+00 -0.10000000000E+04  0.10000000000E+04  0.00000000000E+00 0.  1.
    9000005    2    1    2  501    0  0.33548028399E+02 -0.26827022765E+02 -0.85652727515E+03  0.85761024142E+03  0.33457064256E+01 0.  0.
         13    1    3    3    0    0  0.17457349921E+02 -0.15451249747E+02 -0.48780238566E+03  0.48835915845E+03  0.00000000000E+00 0.  1.
          1    1    3    3  501    0  0.16090678479E+02 -0.11375773019E+02 -0.36872488949E+03  0.36925108297E+03  0.00000000000E+00 0.  1.
         -3    1    1    2    0  502 -0.33548028399E+02  0.26827022765E+02 -0.13970388684E+03  0.14615859659E+03  0.00000000000E+00 0. -1.
<mgrwt>
<rscale>  1 0.30000000E+03</rscale>
<asrwt>0</asrwt>
<pdfrwt beam="1">  1       21 0.13704894E-01 0.30000000E+03</pdfrwt>
<pdfrwt beam="2">0</pdfrwt>
<totfact> 0.48631814E+03</totfact>
</mgrwt>
</event>
<event>
 6    1  0.1284012E-001  0.3000000E+03  0.7818608E-02  0.1093470E+00
         21   -1    0    0  501  502  0.00000000000E+00  0.00000000000E+00  0.11751819524E+01  0.11751819524E+01  0.00000000000E+00 0. -1.
         13   -1    0    0    0    0 -0.00000000000E+00 -0.00000000000E+00 -0.10000000000E+04  0.10000000000E+04  0.00000000000E+00 0.  1.
    9000005    2    1    2  501    0 -0.72862585763E+01 -0.31552234502E+02 -0.66130258105E+03  0.66210307526E+03  0.32780336795E+01 0.  0.
         13    1    3    3    0    0 -0.73958346263E+01 -0.30023978403E+02 -0.63917642365E+03  0.63992393158E+03  0.00000000000E+00 0.  1.
          1    1    3    3  501    0  0.10957605002E+00 -0.15282560995E+01 -0.22126157395E+02  0.22179143687E+02  0.00000000000E+00 0.  1.
         -1    1    1    2    0  502  0.72862585763E+01  0.31552234502E+02 -0.33752223700E+03  0.33907210669E+03  0.00000000000E+00 0. -1.
<mgrwt>
<rscale>  1 0.30000000E+03</rscale>
<asrwt>0</asrwt>
<pdfrwt beam="1">  1       21 0.42733979E-02 0.30000000E+03</pdfrwt>
<pdfrwt beam="2">0</pdfrwt>
<totfact> 0.37609316E+04</totfact>
</mgrwt>
</event>
<event>
 6    1  0.1284012E-001  0.3000000E+03  0.7818608E-02  0.1093470E+00
         21   -1    0    0  501  502  0.00000000000E+00  0.00000000000E+00  0.13924107979E+01  0.13924107979E+01  0.00000000000E+00 0. -1.
         13   -1    0    0    0    0 -0.00000000000E+00 -0.00000000000E+00 -0.10000000000E+04  0.10000000000E+04  0.00000000000E+00 0.  1.
    9000005    2    1    2  501    0 -0.30828375968E+02 -0.92616387637E+01 -0.75126719012E+03  0.75196618977E+03  0.38200642980E+01 0.  0.
         13    1    3    3    0    0 -0.26653558997E+02 -0.91990845927E+01 -0.66673121304E+03  0.66732716549E+03  0.00000000000E+00 0.  1.
          1    1    3    3  501    0 -0.41748169705E+01 -0.62554170934E-01 -0.84535977084E+02  0.84639024281E+02  0.00000000000E+00 0.  1.
         -1    1    1    2    0  502  0.30828375968E+02  0.92616387637E+01 -0.24734039908E+03  0.24942622103E+03  0.00000000000E+00 0. -1.
<mgrwt>
<rscale>  1 0.30000000E+03</rscale>
<asrwt>0</asrwt>
<pdfrwt beam="1">  1       21 0.50633227E-02 0.30000000E+03</pdfrwt>
<pdfrwt beam="2">0</pdfrwt>
<totfact> 0.28193072E+04</totfact>
</mgrwt>
</event>
<event>
 6    1  0.1284012E-001  0.3000000E+03  0.7818608E-02  0.1093470E+00
         21   -1    0    0  501  502  0.00000000000E+00  0.00000000000E+00  0.18903728888E+01  0.18903728888E+01  0.00000000000E+00 0. -1.
         13   -1    0    0    0    0 -0.00000000000E+00 -0.00000000000E+00 -0.10000000000E+04  0.10000000000E+04  0.00000000000E+00 0.  1.
    9000005    2    1    2  501    0  0.47195679886E+01 -0.31407675563E+02 -0.84085421060E+03  0.84145975727E+03  0.31627854763E+01 0.  0.
         13    1    3    3    0    0  0.18262908525E+01 -0.48553017066E+01 -0.12599725760E+03  0.12610399762E+03  0.00000000000E+00 0.  1.
          3    1    3    3  501    0  0.28932771362E+01 -0.26552373857E+02 -0.71485695300E+03  0.71535575965E+03  0.00000000000E+00 0.  1.
         -1    1    1    2    0  502 -0.47195679886E+01  0.31407675563E+02 -0.15725541651E+03  0.16043061562E+03  0.00000000000E+00 0. -1.
<mgrwt>
<rscale>  1 0.30000000E+03</rscale>
<asrwt>0</asrwt>
<pdfrwt beam="1">  1       21 0.68740977E-02 0.30000000E+03</pdfrwt>
<pdfrwt beam="2">0</pdfrwt>
<totfact> 0.16652704E+04</totfact>
</mgrwt>
</event>
<event>
 6    1  0.1284012E-001  0.3000000E+03  0.7818608E-02  0.1093470E+00
         21   -1    0    0  501  502  0.00000000000E+00  0.00000000000E+00  0.32194061104E+01  0.32194061104E+01  0.00000000000E+00 0. -1.
         13   -1    0    0    0    0 -0.00000000000E+00 -0.00000000000E+00 -0.10000000000E+04  0.10000000000E+04  0.00000000000E+00 0.  1.
    9000005    2    1    2  501    0  0.33573685601E+02 -0.76615032431E+00 -0.90260529591E+03  0.90323557692E+03  0.32261195950E+01 0.  0.
         13    1    3    3    0    0  0.31496410676E+02 -0.12243229636E+01 -0.82730191704E+03  0.82790215895E+03  0.00000000000E+00 0.  1.
          1    1    3    3  501    0  0.20772749250E+01  0.45817263933E+00 -0.75303378874E+02  0.75333417971E+02  0.00000000000E+00 0.  1.
         -3    1    1    2    0  502 -0.33573685601E+02  0.76615032431E+00 -0.94175297976E+02  0.99983829193E+02  0.00000000000E+00 0. -1.
<mgrwt>
<rscale>  1 0.30000000E+03</rscale>
<asrwt>0</asrwt>
<pdfrwt beam="1">  1       21 0.11706956E-01 0.30000000E+03</pdfrwt>
<pdfrwt beam="2">0</pdfrwt>
<totfact> 0.64811181E+03</totfact>
</mgrwt>
</event>
<event>
 6    1  0.1284012E-001  0.3000000E+03  0.7818608E-02  0.1093470E+00
         21   -1    0    0  501  502  0.00000000000E+00  0.00000000000E+00  0.99912704568E+01  0.99912704568E+01  0.00000000000E+00 0. -1.
         13   -1    0    0    0    0 -0.00000000000E+00 -0.00000000000E+00 -0.10000000000E+04  0.10000000000E+04  0.00000000000E+00 0.  1.
    9000005    2    1    2  501    0  0.19010347514E+02 -0.62215866252E+02 -0.87831960966E+03  0.88073699847E+03  0.44851351844E+01 0.  0.
         13    1    3    3    0    0  0.32546929930E+01 -0.14848323799E+02 -0.22522684053E+03  0.22573921999E+03  0.00000000000E+00 0.  1.
          1    1    3    3  501    0  0.15755654521E+02 -0.47367542453E+02 -0.65309276913E+03  0.65499777848E+03  0.00000000000E+00 0.  1.
         -3    1    1    2    0  502 -0.19010347514E+02  0.62215866252E+02 -0.11168911988E+03  0.12925427198E+03  0.00000000000E+00 0. -1.
<mgrwt>
<rscale>  1 0.30000000E+03</rscale>
<asrwt>0</asrwt>
<pdfrwt beam="1">  1       21 0.36331969E-01 0.30000000E+03</pdfrwt>
<pdfrwt beam="2">0</pdfrwt>
<totfact> 0.73712868E+02</totfact>
</mgrwt>
</event>
<event>
 6    1  0.1284012E-001  0.3000000E+03  0.7818608E-02  0.1093470E+00
         21   -1    0    0  501  502  0.00000000000E+00  0.00000000000E+00  0.22803551727E+01  0.22803551727E+01  0.00000000000E+00 0. -1.
         13   -1    0    0    0    0 -0.00000000000E+00 -0.00000000000E+00 -0.10000000000E+04  0.10000000000E+04  0.00000000000E+00 0.  1.
    9000005    2    1    2  501    0  0.44717985449E+02  0.88738726390E+01 -0.64663794145E+03  0.64825096898E+03  0.32011918045E+01 0.  0.
         13    1    3    3    0    0  0.26743207889E+02  0.49138340233E+01 -0.36372728961E+03  0.36474221875E+03  0.00000000000E+00 0.  1.
          1    1    3    3  501    0  0.17974777560E+02  0.39600386157E+01 -0.28291065184E+03  0.28350875024E+03  0.00000000000E+00 0.  1.
         -3    1    1    2    0  502 -0.44717985449E+02 -0.88738726390E+01 -0.35108170338E+03  0.35402938619E+03  0.00000000000E+00 0. -1.
<mgrwt>
<rscale>  1 0.30000000E+03</rscale>
<asrwt>0</asrwt>
<pdfrwt beam="1">  1       21 0.82922181E-02 0.30000000E+03</pdfrwt>
<pdfrwt beam="2">0</pdfrwt>
<totfact> 0.11992952E+04</totfact>
</mgrwt>
</event>
<event>
 6    1  0.1284012E-001  0.3000000E+03  0.7818608E-02  0.1093470E+00
         21   -1    0    0  501  502  0.00000000000E+00  0.00000000000E+00  0.70742185153E+01  0.70742185153E+01  0.00000000000E+00 0. -1.
         13   -1    0    0    0    0 -0.00000000000E+00 -0.00000000000E+00 -0.10000000000E+04  0.10000000000E+04  0.00000000000E+00 0.  1.
    9000005    2    1    2  501    0  0.29243912210E+02 -0.70092634105E+02 -0.71253072213E+03  0.71657538363E+03  0.34737146295E+01 0.  0.
         13    1    3    3    0    0  0.19771462196E+02 -0.51414203421E+02 -0.51689325982E+03  0.51982013531E+03  0.00000000000E+00 0.  1.
          1    1    3    3  501    0  0.94724500142E+01 -0.18678430684E+02 -0.19563746231E+03  0.19675524832E+03  0.00000000000E+00 0.  1.
         -1    1    1    2    0  502 -0.29243912210E+02  0.70092634105E+02 -0.28039505935E+03  0.29049883488E+03  0.00000000000E+00 0. -1.
<mgrwt>
<rscale>  1 0.30000000E+03</rscale>
<asrwt>0</asrwt>
<pdfrwt beam="1">  1       21 0.25724485E-01 0.30000000E+03</pdfrwt>
<pdfrwt beam="2">0</pdfrwt>
<totfact> 0.14745961E+03</totfact>
</mgrwt>
</event>
<event>
 6    1  0.1284012E-001  0.3000000E+03  0.7818608E-02  0.1093470E+00
         21   -1    0    0  501  502  0.00000000000E+00  0.00000000000E+00  0.12403665910E+01  0.12403665910E+01  0.00000000000E+00 0. -1.
         13   -1    0    0    0    0 -0.00000000000E+00 -0.00000000000E+00 -0.10000000000E+04  0.10000000000E+04  0.00000000000E+00 0.  1.
    9000005    2    1    2  501    0  0.17732936703E+02  0.26587215885E+02 -0.70240170501E+03  0.70316427091E+03  0.71063062327E+01 0.  0.
         13    1    3    3    0    0  0.95664586521E+01  0.16438629100E+02 -0.48487062350E+03  0.48524351329E+03  0.00000000000E+00 0.  1.
          3    1    3    3  501    0  0.81664780514E+01  0.10148586785E+02 -0.21753108151E+03  0.21792075762E+03  0.00000000000E+00 0.  1.
         -3    1    1    2    0  502 -0.17732936703E+02 -0.26587215885E+02 -0.29635792840E+03  0.29807609569E+03  0.00000000000E+00 0. -1.
<mgrwt>
<rscale>  1 0.30000000E+03</rscale>
<asrwt>0</asrwt>
<pdfrwt beam="1">  1       21 0.45104335E-02 0.30000000E+03</pdfrwt>
<pdfrwt beam="2">0</pdfrwt>
<totfact> 0.34323028E+04</totfact>
</mgrwt>
</event>
<event>
 6    1  0.1284012E-001  0.3000000E+03  0.7818608E-02  0.1093470E+00
         21   -1    0    0  501  502  0.00000000000E+00  0.00000000000E+00  0.19285080026E+01  0.19285080026E+01  0.00000000000E+00 0. -1.
         13   -1    0    0    0    0 -0.00000000000E+00 -0.00000000000E+00 -0.10000000000E+04  0.10000000000E+04  0.00000000000E+00 0.  1.
    9000005    2    1    2  501    0  0.25046087073E+02 -0.18371368391E+02 -0.85288879345E+03  0.85346022987E+03  0.32025493320E+01 0.  0.
         13    1    3    3    0    0  0.95411389927E+01 -0.53115480499E+01 -0.27988854953E+03  0.28010149238E+03  0.00000000000E+00 0.  1.
          1    1    3    3  501    0  0.15504948081E+02 -0.13059820341E+02 -0.57300024392E+03  0.57335873749E+03  0.00000000000E+00 0.  1.
         -3    1    1    2    0  502 -0.25046087073E+02  0.18371368391E+02 -0.14518269854E+03  0.14846827813E+03  0.00000000000E+00 0. -1.
<mgrwt>
<rscale>  1 0.30000000E+03</rscale>
<asrwt>0</asrwt>
<pdfrwt beam="1">  1       21 0.70127712E-02 0.30000000E+03</pdfrwt>
<pdfrwt beam="2">0</pdfrwt>
<totfact> 0.16084179E+04</totfact>
</mgrwt>
</event>
<event>
 6    1  0.1284012E-001  0.3000000E+03  0.7818608E-02  0.1093470E+00
         21   -1    0    0  501  502  0.00000000000E+00  0.00000000000E+00  0.38642741223E+01  0.38642741223E+01  0.00000000000E+00 0. -1.
         13   -1    0    0    0    0 -0.00000000000E+00 -0.00000000000E+00 -0.10000000000E+04  0.10000000000E+04  0.00000000000E+00 0.  1.
    9000005    2    1    2  501    0  0.20782341724E+02  0.32372334700E+02 -0.89224420311E+03  0.89307924678E+03  0.33089657316E+01 0.  0.
         13    1    3    3    0    0  0.19667838199E+02  0.29445211402E+02 -0.80370830001E+03  0.80448795879E+03  0.00000000000E+00 0.  1.
          3    1    3    3  501    0  0.11145035252E+01  0.29271232974E+01 -0.88535903107E+02  0.88591287991E+02  0.00000000000E+00 0.  1.
         -1    1    1    2    0  502 -0.20782341724E+02 -0.32372334700E+02 -0.10389152276E+03  0.11078502734E+03  0.00000000000E+00 0. -1.
<mgrwt>
<rscale>  1 0.30000000E+03</rscale>
<asrwt>0</asrwt>
<pdfrwt beam="1">  1       21 0.14051936E-01 0.30000000E+03</pdfrwt>
<pdfrwt beam="2">0</pdfrwt>
<totfact> 0.46449624E+03</totfact>
</mgrwt>
</event>
<event>
 6    1  0.1284012E-001  0.3000000E+03  0.7818608E-02  0.1093470E+00
         21   -1    0    0  501  502  0.00000000000E+00  0.00000000000E+00  0.29502310856E+01  0.29502310856E+01  0.00000000000E+00 0. -1.
         13   -1    0    0    0    0 -0.00000000000E+00 -0.00000000000E+00 -0.10000000000E+04  0.10000000000E+04  0.00000000000E+00 0.  1.
    9000005    2    1    2  501    0  0.53833276916E+02 -0.26999088731E+01 -0.55777200756E+03  0.56037790611E+03  0.29110187788E+01 0.  0.
         13    1    3    3    0    0  0.38049435290E+02 -0.95195686829E+00 -0.40296389357E+03  0.40475741534E+03  0.00000000000E+00 0.  1.
          1    1    3    3  501    0  0.15783841625E+02 -0.17479520048E+01 -0.15480811399E+03  0.15562049077E+03  0.00000000000E+00 0.  1.
         -3    1    1    2    0  502 -0.53833276916E+02  0.26999088731E+01 -0.43927776136E+03  0.44257232497E+03  0.00000000000E+00 0. -1.
<mgrwt>
<rscale>  1 0.30000000E+03</rscale>
<asrwt>0</asrwt>
<pdfrwt beam="1">  1       21 0.10728136E-01 0.30000000E+03</pdfrwt>
<pdfrwt beam="2">0</pdfrwt>
<totfact> 0.75856463E+03</totfact>
</mgrwt>
</event>
<event>
 6    1  0.1284012E-001  0.3000000E+03  0.7818608E-02  0.1093470E+00
         21   -1    0    0  501  502  0.00000000000E+00  0.00000000000E+00  0.39297929462E+01  0.39297929462E+01  0.00000000000E+00 0. -1.
         13   -1    0    0    0    0 -0.00000000000E+00 -0.00000000000E+00 -0.10000000000E+04  0.10000000000E+04  0.00000000000E+00 0.  1.
    9000005    2    1    2  501    0  0.29909743937E+02  0.48259570718E+02 -0.71039533755E+03  0.71266752279E+03  0.31438009017E+01 0.  0.
         13    1    3    3    0    0  0.23569577295E+02  0.35753277407E+02 -0.54294741120E+03  0.54463355860E+03  0.00000000000E+00 0.  1.
          3    1    3    3  501    0  0.63401666417E+01  0.12506293311E+02 -0.16744792635E+03  0.16803396420E+03  0.00000000000E+00 0.  1.
         -3    1    1    2    0  502 -0.29909743937E+02 -0.48259570718E+02 -0.28567486950E+03  0.29126227015E+03  0.00000000000E+00 0. -1.
<mgrwt>
<rscale>  1 0.30000000E+03</rscale>
<asrwt>0</asrwt>
<pdfrwt beam="1">  1       21 0.14290186E-01 0.30000000E+03</pdfrwt>
<pdfrwt beam="2">0</pdfrwt>
<totfact> 0.45035058E+03</totfact>
</mgrwt>
</event>
<event>
 6    1  0.1284012E-001  0.3000000E+03  0.7818608E-02  0.1093470E+00
         21   -1    0    0  501  502  0.00000000000E+00  0.00000000000E+00  0.59399723698E+01  0.59399723698E+01  0.00000000000E+00 0. -1.
         13   -1    0    0    0    0 -0.00000000000E+00 -0.00000000000E+00 -0.10000000000E+04  0.10000000000E+04  0.00000000000E+00 0.  1.
    9000005    2    1    2  501    0  0.46879769447E+02  0.50285974030E+02 -0.72417014555E+03  0.72743155164E+03  0.28054677474E+01 0.  0.
         13    1    3    3    0    0  0.31147172838E+02  0.32917871733E+02 -0.46355277625E+03  0.46576271751E+03  0.00000000000E+00 0.  1.
          1    1    3    3  501    0  0.15732596609E+02  0.17368102297E+02 -0.26061736930E+03  0.26166883413E+03  0.00000000000E+00 0.  1.
         -3    1    1    2    0  502 -0.46879769447E+02 -0.50285974030E+02 -0.26988988208E+03  0.27850842073E+03  0.00000000000E+00 0. -1.
<mgrwt>
<rscale>  1 0.30000000E+03</rscale>
<asrwt>0</asrwt>
<pdfrwt beam="1">  1       21 0.21599945E-01 0.30000000E+03</pdfrwt>
<pdfrwt beam="2">0</pdfrwt>
<totfact> 0.20704064E+03</totfact>
</mgrwt>
</event>
<event>
 6    1  0.1284012E-001  0.3000000E+03  0.7818608E-02  0.1093470E+00
         21   -1    0    0  501  502  0.00000000000E+00  0.00000000000E+00  0.36986272135E+01  0.36986272135E+01  0.00000000000E+00 0. -1.
         13   -1    0    0    0    0 -0.00000000000E+00 -0.00000000000E+00 -0.10000000000E+04  0.10000000000E+04  0.00000000000E+00 0.  1.
    9000005    2    1    2  501    0 -0.44162954595E+02 -0.21474977282E+02 -0.79331036431E+03  0.79485205499E+03  0.60756884086E+01 0.  0.
         13    1    3    3    0    0 -0.59222686923E+01 -0.97578927358E+00 -0.11331016077E+03  0.11346901764E+03  0.00000000000E+00 0.  1.
          3    1    3    3  501    0 -0.38240685903E+02 -0.20499188008E+02 -0.68000020354E+03  0.68138303735E+03  0.00000000000E+00 0.  1.
         -1    1    1    2    0  502  0.44162954595E+02  0.21474977282E+02 -0.20299100847E+03  0.20884657222E+03  0.00000000000E+00 0. -1.
<mgrwt>
<rscale>  1 0.30000000E+03</rscale>
<asrwt>0</asrwt>
<pdfrwt beam="1">  1       21 0.13449582E-01 0.30000000E+03</pdfrwt>
<pdfrwt beam="2">0</pdfrwt>
<totfact> 0.50336724E+03</totfact>
</mgrwt>
</event>
<event>
 6    1  0.1284012E-001  0.3000000E+03  0.7818608E-02  0.1093470E+00
         21   -1    0    0  501  502  0.00000000000E+00  0.00000000000E+00  0.30608484412E+01  0.30608484412E+01  0.00000000000E+00 0. -1.
         13   -1    0    0    0    0 -0.00000000000E+00 -0.00000000000E+00 -0.10000000000E+04  0.10000000000E+04  0.00000000000E+00 0.  1.
    9000005    2    1    2  501    0  0.27896153447E+02 -0.22920640602E+02 -0.87831453653E+03  0.87906346769E+03  0.35502115192E+01 0.  0.
         13    1    3    3    0    0  0.24839526131E+02 -0.18918533567E+02 -0.74604491242E+03  0.74669801414E+03  0.00000000000E+00 0.  1.
          1    1    3    3  501    0  0.30566273165E+01 -0.40021070353E+01 -0.13226962411E+03  0.13236545355E+03  0.00000000000E+00 0.  1.
         -1    1    1    2    0  502 -0.27896153447E+02  0.22920640602E+02 -0.11862461503E+03  0.12399738075E+03  0.00000000000E+00 0. -1.
<mgrwt>
<rscale>  1 0.30000000E+03</rscale>
<asrwt>0</asrwt>
<pdfrwt beam="1">  1       21 0.11130381E-01 0.30000000E+03</pdfrwt>
<pdfrwt beam="2">0</pdfrwt>
<totfact> 0.70998248E+03</totfact>
</mgrwt>
</event>
<event>
 6    1  0.1284012E-001  0.3000000E+03  0.7818608E-02  0.1093470E+00
         21   -1    0    0  501  502  0.00000000000E+00  0.00000000000E+00  0.10163474907E+01  0.10163474907E+01  0.00000000000E+00 0. -1.
         13   -1    0    0    0    0 -0.00000000000E+00 -0.00000000000E+00 -0.10000000000E+04  0.10000000000E+04  0.00000000000E+00 0.  1.
    9000005    2    1    2  501    0 -0.27262812539E+02 -0.15030695332E+02 -0.59986899921E+03  0.60068936960E+03  0.39648185674E+01 0.  0.
         13    1    3    3    0    0 -0.20535703900E+02 -0.13147097851E+02 -0.47351860990E+03  0.47414600625E+03  0.00000000000E+00 0.  1.
          1    1    3    3  501    0 -0.67271086386E+01 -0.18835974814E+01 -0.12635038931E+03  0.12654336336E+03  0.00000000000E+00 0.  1.
         -3    1    1    2    0  502  0.27262812539E+02  0.15030695332E+02 -0.39911465329E+03  0.40032697789E+03  0.00000000000E+00 0. -1.
<mgrwt>
<rscale>  1 0.30000000E+03</rscale>
<asrwt>0</asrwt>
<pdfrwt beam="1">  1       21 0.36958169E-02 0.30000000E+03</pdfrwt>
<pdfrwt beam="2">0</pdfrwt>
<totfact> 0.48026538E+04</totfact>
</mgrwt>
</event>
<event>
 6    1  0.1284012E-001  0.3000000E+03  0.7818608E-02  0.1093470E+00
         21   -1    0    0  501  502  0.00000000000E+00  0.00000000000E+00  0.35216645126E+01  0.35216645126E+01  0.00000000000E+00 0. -1.
         13   -1    0    0    0    0 -0.00000000000E+00 -0.00000000000E+00 -0.10000000000E+04  0.10000000000E+04  0.00000000000E+00 0.  1.
    9000005    2    1    2  501    0  0.58912739363E+02  0.18515528478E+01 -0.44398497862E+03  0.44789314788E+03  0.33869713460E+01 0.  0.
         13    1    3    3    0    0  0.57053411660E+02  0.23892436923E+01 -0.42959613809E+03  0.43337471330E+03  0.00000000000E+00 0.  1.
          1    1    3    3  501    0  0.18593277038E+01 -0.53769084457E+00 -0.14388840523E+02  0.14518434576E+02  0.00000000000E+00 0.  1.
         -1    1    1    2    0  502 -0.58912739363E+02 -0.18515528478E+01 -0.55249335687E+03  0.55562851663E+03  0.00000000000E+00 0. -1.
<mgrwt>
<rscale>  1 0.30000000E+03</rscale>
<asrwt>0</asrwt>
<pdfrwt beam="1">  1       21 0.12806080E-01 0.30000000E+03</pdfrwt>
<pdfrwt beam="2">0</pdfrwt>
<totfact> 0.55054939E+03</totfact>
</mgrwt>
</event>
<event>
 6    1  0.1284012E-001  0.3000000E+03  0.7818608E-02  0.1093470E+00
         21   -1    0    0  501  502  0.00000000000E+00  0.00000000000E+00  0.12520651386E+01  0.12520651386E+01  0.00000000000E+00 0. -1.
         13   -1    0    0    0    0 -0.00000000000E+00 -0.00000000000E+00 -0.10000000000E+04  0.10000000000E+04  0.00000000000E+00 0.  1.
    9000005    2    1    2  501    0 -0.33433581208E+02 -0.11161244987E+02 -0.52900131705E+03  0.53018491208E+03  0.33570550224E+01 0.  0.
         13    1    3    3    0    0 -0.75342880570E+01 -0.12490133808E+01 -0.12472387195E+03  0.12495747182E+03  0.00000000000E+00 0.  1.
          3    1    3    3  501    0 -0.25899293152E+02 -0.99122316063E+01 -0.40427744510E+03  0.40522744026E+03  0.00000000000E+00 0.  1.
         -3    1    1    2    0  502  0.33433581208E+02  0.11161244987E+02 -0.46974661781E+03  0.47106715306E+03  0.00000000000E+00 0. -1.
<mgrwt>
<rscale>  1 0.30000000E+03</rscale>
<asrwt>0</asrwt>
<pdfrwt beam="1">  1       21 0.45529737E-02 0.30000000E+03</pdfrwt>
<pdfrwt beam="2">0</pdfrwt>
<totfact> 0.33780310E+04</totfact>
</mgrwt>
</event>
<event>
 6    1  0.1284012E-001  0.3000000E+03  0.7818608E-02  0.1093470E+00
         21   -1    0    0  501  502  0.00000000000E+00  0.00000000000E+00  0.42535358325E+01  0.42535358325E+01  0.00000000000E+00 0. -1.
         13   -1    0    0    0    0 -0.00000000000E+00 -0.00000000000E+00 -0.10000000000E+04  0.10000000000E+04  0.00000000000E+00 0.  1.
    9000005    2    1    2  501    0 -0.46606081004E+02  0.76364653443E+01 -0.84401471193E+03  0.84534171429E+03  0.33671311037E+01 0.  0.
         13    1    3    3    0    0 -0.25426190083E+02  0.46623871515E+01 -0.43307041873E+03  0.43384123429E+03  0.00000000000E+00 0.  1.
          3    1    3    3  501    0 -0.21179890920E+02  0.29740781928E+01 -0.41094429321E+03  0.41150048000E+03  0.00000000000E+00 0.  1.
         -3    1    1    2    0  502  0.46606081004E+02 -0.76364653443E+01 -0.15173175224E+03  0.15891182154E+03  0.00000000000E+00 0. -1.
<mgrwt>
<rscale>  1 0.30000000E+03</rscale>
<asrwt>0</asrwt>
<pdfrwt beam="1">  1       21 0.15467436E-01 0.30000000E+03</pdfrwt>
<pdfrwt beam="2">0</pdfrwt>
<totfact> 0.38902386E+03</totfact>
</mgrwt>
</event>
<event>
 6    1  0.1284012E-001  0.3000000E+03  0.7818608E-02  0.1093470E+00
         21   -1    0    0  501  502  0.00000000000E+00  0.00000000000E+00  0.50242144098E+01  0.50242144098E+01  0.00000000000E+00 0. -1.
         13   -1    0    0    0    0 -0.00000000000E+00 -0.00000000000E+00 -0.10000000000E+04  0.10000000000E+04  0.00000000000E+00 0.  1.
    9000005    2    1    2  501    0  0.34727945129E+02  0.30436893293E+02 -0.87793302970E+03  0.87920115868E+03  0.97896958177E+01 0.  0.
         13    1    3    3    0    0  0.28643341080E+02  0.28021623130E+02 -0.79551250523E+03  0.79652105956E+03  0.00000000000E+00 0.  1.
          3    1    3    3  501    0  0.60846040492E+01  0.24152701637E+01 -0.82420524470E+02  0.82680099118E+02  0.00000000000E+00 0.  1.
         -3    1    1    2    0  502 -0.34727945129E+02 -0.30436893293E+02 -0.11704275589E+03  0.12582305573E+03  0.00000000000E+00 0. -1.
<mgrwt>
<rscale>  1 0.30000000E+03</rscale>
<asrwt>0</asrwt>
<pdfrwt beam="1">  1       21 0.18269909E-01 0.30000000E+03</pdfrwt>
<pdfrwt beam="2">0</pdfrwt>
<totfact> 0.28485065E+03</totfact>
</mgrwt>
</event>
<event>
 6    1  0.1284012E-001  0.3000000E+03  0.7818608E-02  0.1093470E+00
         21   -1    0    0  501  502  0.00000000000E+00  0.00000000000E+00  0.25403338016E+01  0.25403338016E+01  0.00000000000E+00 0. -1.
         13   -1    0    0    0    0 -0.00000000000E+00 -0.00000000000E+00 -0.10000000000E+04  0.10000000000E+04  0.00000000000E+00 0.  1.
    9000005    2    1    2  501    0 -0.18547196716E+02  0.46142265029E+02 -0.57453397147E+03  0.57670086828E+03  0.46368073195E+01 0.  0.
         13    1    3    3    0    0 -0.79533824245E+01  0.16985248115E+02 -0.19397956328E+03  0.19488413459E+03  0.00000000000E+00 0.  1.
          3    1    3    3  501    0 -0.10593814291E+02  0.29157016915E+02 -0.38055440819E+03  0.38181673369E+03  0.00000000000E+00 0.  1.
         -1    1    1    2    0  502  0.18547196716E+02 -0.46142265029E+02 -0.42292569473E+03  0.42583946552E+03  0.00000000000E+00 0. -1.
<mgrwt>
<rscale>  1 0.30000000E+03</rscale>
<asrwt>0</asrwt>
<pdfrwt beam="1">  1       21 0.92375969E-02 0.30000000E+03</pdfrwt>
<pdfrwt beam="2">0</pdfrwt>
<totfact> 0.99093183E+03</totfact>
</mgrwt>
</event>
<event>
 6    1  0.1284012E-001  0.3000000E+03  0.7818608E-02  0.1093470E+00
         21   -1    0    0  501  502  0.00000000000E+00  0.00000000000E+00  0.16589920772E+01  0.16589920772E+01  0.00000000000E+00 0. -1.
         13   -1    0    0    0    0 -0.00000000000E+00 -0.00000000000E+00 -0.10000000000E+04  0.10000000000E+04  0.00000000000E+00 0.  1.
    9000005    2    1    2  501    0 -0.89580469980E+01 -0.39322396760E+02 -0.56700317082E+03  0.56843984753E+03  0.21833546765E+01 0.  0.
         13    1    3    3    0    0 -0.89989357825E+01 -0.39328394962E+02 -0.56660085344E+03  0.56803541317E+03  0.00000000000E+00 0.  1.
          1    1    3    3  501    0  0.40888784551E-01  0.59982028245E-02 -0.40231738624E+00  0.40443435859E+00  0.00000000000E+00 0.  1.
         -1    1    1    2    0  502  0.89580469980E+01  0.39322396760E+02 -0.43133783710E+03  0.43321914455E+03  0.00000000000E+00 0. -1.
<mgrwt>
<rscale>  1 0.30000000E+03</rscale>
<asrwt>0</asrwt>
<pdfrwt beam="1">  1       21 0.60327112E-02 0.30000000E+03</pdfrwt>
<pdfrwt beam="2">0</pdfrwt>
<totfact> 0.20874979E+04</totfact>
</mgrwt>
</event>
<event>
 6    1  0.1284012E-001  0.3000000E+03  0.7818608E-02  0.1093470E+00
         21   -1    0    0  501  502  0.00000000000E+00  0.00000000000E+00  0.18363141562E+01  0.18363141562E+01  0.00000000000E+00 0. -1.
         13   -1    0    0    0    0 -0.00000000000E+00 -0.00000000000E+00 -0.10000000000E+04  0.10000000000E+04  0.00000000000E+00 0.  1.
    9000005    2    1    2  501    0 -0.40061594600E+02 -0.13047182493E+02 -0.41334379582E+03  0.41550069005E+03  0.35453565621E+01 0.  0.
         13    1    3    3    0    0 -0.22150415298E+01 -0.96235365470E+00 -0.17004762872E+02  0.17175403747E+02  0.00000000000E+00 0.  1.
          3    1    3    3  501    0 -0.37846553070E+02 -0.12084828838E+02 -0.39633903295E+03  0.39832528630E+03  0.00000000000E+00 0.  1.
         -1    1    1    2    0  502  0.40061594600E+02  0.13047182493E+02 -0.58481989002E+03  0.58633562411E+03  0.00000000000E+00 0. -1.
<mgrwt>
<rscale>  1 0.30000000E+03</rscale>
<asrwt>0</asrwt>
<pdfrwt beam="1">  1       21 0.66775201E-02 0.30000000E+03</pdfrwt>
<pdfrwt beam="2">0</pdfrwt>
<totfact> 0.17512974E+04</totfact>
</mgrwt>
</event>
<event>
 6    1  0.1284012E-001  0.3000000E+03  0.7818608E-02  0.1093470E+00
         21   -1    0    0  501  502  0.00000000000E+00  0.00000000000E+00  0.17577965085E+01  0.17577965085E+01  0.00000000000E+00 0. -1.
         13   -1    0    0    0    0 -0.00000000000E+00 -0.00000000000E+00 -0.10000000000E+04  0.10000000000E+04  0.00000000000E+00 0.  1.
    9000005    2    1    2  501    0 -0.95945731680E+01  0.37828189327E+02 -0.68070166529E+03  0.68182808369E+03  0.34279497477E+01 0.  0.
         13    1    3    3    0    0 -0.80330894959E+01  0.25223283225E+02 -0.46418657871E+03  0.46494077515E+03  0.00000000000E+00 0.  1.
          1    1    3    3  501    0 -0.15614836721E+01  0.12604906103E+02 -0.21651508658E+03  0.21688730854E+03  0.00000000000E+00 0.  1.
         -1    1    1    2    0  502  0.95945731680E+01 -0.37828189327E+02 -0.31754053820E+03  0.31992971282E+03  0.00000000000E+00 0. -1.
<mgrwt>
<rscale>  1 0.30000000E+03</rscale>
<asrwt>0</asrwt>
<pdfrwt beam="1">  1       21 0.63920008E-02 0.30000000E+03</pdfrwt>
<pdfrwt beam="2">0</pdfrwt>
<totfact> 0.18889899E+04</totfact>
</mgrwt>
</event>
<event>
 6    1  0.1284012E-001  0.3000000E+03  0.7818608E-02  0.1093470E+00
         21   -1    0    0  501  502  0.00000000000E+00  0.00000000000E+00  0.18659584692E+01  0.18659584692E+01  0.00000000000E+00 0. -1.
         13   -1    0    0    0    0 -0.00000000000E+00 -0.00000000000E+00 -0.10000000000E+04  0.10000000000E+04  0.00000000000E+00 0.  1.
    9000005    2    1    2  501    0 -0.17222966908E+02 -0.29667493806E+02 -0.80194336991E+03  0.80269876637E+03  0.59456043188E+01 0.  0.
         13    1    3    3    0    0 -0.13165006835E+02 -0.18947069314E+02 -0.48559466181E+03  0.48614245280E+03  0.00000000000E+00 0.  1.
          3    1    3    3  501    0 -0.40579600725E+01 -0.10720424493E+02 -0.31634870810E+03  0.31655631357E+03  0.00000000000E+00 0.  1.
         -3    1    1    2    0  502  0.17222966908E+02  0.29667493806E+02 -0.19619067162E+03  0.19916719210E+03  0.00000000000E+00 0. -1.
<mgrwt>
<rscale>  1 0.30000000E+03</rscale>
<asrwt>0</asrwt>
<pdfrwt beam="1">  1       21 0.67853178E-02 0.30000000E+03</pdfrwt>
<pdfrwt beam="2">0</pdfrwt>
<totfact> 0.17033003E+04</totfact>
</mgrwt>
</event>
<event>
 6    1  0.1284012E-001  0.3000000E+03  0.7818608E-02  0.1093470E+00
         21   -1    0    0  501  502  0.00000000000E+00  0.00000000000E+00  0.11510517443E+01  0.11510517443E+01  0.00000000000E+00 0. -1.
         13   -1    0    0    0    0 -0.00000000000E+00 -0.00000000000E+00 -0.10000000000E+04  0.10000000000E+04  0.00000000000E+00 0.  1.
    9000005    2    1    2  501    0  0.99640947392E+01 -0.31371351366E+02 -0.61751525385E+03  0.61839939419E+03  0.30458378320E+01 0.  0.
         13    1    3    3    0    0  0.10098691047E+02 -0.31241940403E+02 -0.61562358840E+03  0.61649853609E+03  0.00000000000E+00 0.  1.
          3    1    3    3  501    0 -0.13459630789E+00 -0.12941096309E+00 -0.18916654511E+01  0.19008581069E+01  0.00000000000E+00 0.  1.
         -3    1    1    2    0  502 -0.99640947392E+01  0.31371351366E+02 -0.38133369440E+03  0.38275165755E+03  0.00000000000E+00 0. -1.
<mgrwt>
<rscale>  1 0.30000000E+03</rscale>
<asrwt>0</asrwt>
<pdfrwt beam="1">  1       21 0.41856515E-02 0.30000000E+03</pdfrwt>
<pdfrwt beam="2">0</pdfrwt>
<totfact> 0.38950874E+04</totfact>
</mgrwt>
</event>
<event>
 6    1  0.1284012E-001  0.3000000E+03  0.7818608E-02  0.1093470E+00
         21   -1    0    0  501  502  0.00000000000E+00  0.00000000000E+00  0.11350282846E+01  0.11350282846E+01  0.00000000000E+00 0. -1.
         13   -1    0    0    0    0 -0.00000000000E+00 -0.00000000000E+00 -0.10000000000E+04  0.10000000000E+04  0.00000000000E+00 0.  1.
    9000005    2    1    2  501    0  0.45036419772E+01  0.32259019109E+02 -0.62317056271E+03  0.62403130772E+03  0.35490397073E+01 0.  0.
         13    1    3    3    0    0  0.51140883412E+01  0.28910205764E+02 -0.56028778632E+03  0.56105646543E+03  0.00000000000E+00 0.  1.
          3    1    3    3  501    0 -0.61044636400E+00  0.33488133452E+01 -0.62882776392E+02  0.62974842297E+02  0.00000000000E+00 0.  1.
         -1    1    1    2    0  502 -0.45036419772E+01 -0.32259019109E+02 -0.37569440900E+03  0.37710372056E+03  0.00000000000E+00 0. -1.
<mgrwt>
<rscale>  1 0.30000000E+03</rscale>
<asrwt>0</asrwt>
<pdfrwt beam="1">  1       21 0.41273843E-02 0.30000000E+03</pdfrwt>
<pdfrwt beam="2">0</pdfrwt>
<totfact> 0.39883332E+04</totfact>
</mgrwt>
</event>
<event>
 6    1  0.1284012E-001  0.3000000E+03  0.7818608E-02  0.1093470E+00
         21   -1    0    0  501  502  0.00000000000E+00  0.00000000000E+00  0.20159282080E+02  0.20159282080E+02  0.00000000000E+00 0. -1.
         13   -1    0    0    0    0 -0.00000000000E+00 -0.00000000000E+00 -0.10000000000E+04  0.10000000000E+04  0.00000000000E+00 0.  1.
    9000005    2    1    2  501    0  0.54330841437E+02  0.24244023233E+02 -0.95302775998E+03  0.95490173304E+03  0.59829308992E+01 0.  0.
         13    1    3    3    0    0  0.47725970238E+02  0.19200228924E+02 -0.83223901803E+03  0.83382744028E+03  0.00000000000E+00 0.  1.
          3    1    3    3  501    0  0.66048711994E+01  0.50437943090E+01 -0.12078874195E+03  0.12107429276E+03  0.00000000000E+00 0.  1.
         -1    1    1    2    0  502 -0.54330841437E+02 -0.24244023233E+02 -0.26812957936E+02  0.65257549043E+02  0.00000000000E+00 0. -1.
<mgrwt>
<rscale>  1 0.30000000E+03</rscale>
<asrwt>0</asrwt>
<pdfrwt beam="1">  1       21 0.73306635E-01 0.30000000E+03</pdfrwt>
<pdfrwt beam="2">0</pdfrwt>
<totfact> 0.15835011E+02</totfact>
</mgrwt>
</event>
<event>
 6    1  0.1284012E-001  0.3000000E+03  0.7818608E-02  0.1093470E+00
         21   -1    0    0  501  502  0.00000000000E+00  0.00000000000E+00  0.12358081566E+01  0.12358081566E+01  0.00000000000E+00 0. -1.
         13   -1    0    0    0    0 -0.00000000000E+00 -0.00000000000E+00 -0.10000000000E+04  0.10000000000E+04  0.00000000000E+00 0.  1.
    9000005    2    1    2  501    0 -0.31783641683E+02 -0.10779889034E+02 -0.35439008596E+03  0.35598826324E+03  0.29840664431E+01 0.  0.
         13    1    3    3    0    0 -0.24520614272E+02 -0.93832882629E+01 -0.28374622520E+03  0.28495828982E+03  0.00000000000E+00 0.  1.
          1    1    3    3  501    0 -0.72630274112E+01 -0.13966007716E+01 -0.70643860754E+02  0.71029973414E+02  0.00000000000E+00 0.  1.
         -3    1    1    2    0  502  0.31783641683E+02  0.10779889034E+02 -0.64437410589E+03  0.64524754492E+03  0.00000000000E+00 0. -1.
<mgrwt>
<rscale>  1 0.30000000E+03</rscale>
<asrwt>0</asrwt>
<pdfrwt beam="1">  1       21 0.44938573E-02 0.30000000E+03</pdfrwt>
<pdfrwt beam="2">0</pdfrwt>
<totfact> 0.34538148E+04</totfact>
</mgrwt>
</event>
<event>
 6    1  0.1284012E-001  0.3000000E+03  0.7818608E-02  0.1093470E+00
         21   -1    0    0  501  502  0.00000000000E+00  0.00000000000E+00  0.27940718916E+01  0.27940718916E+01  0.00000000000E+00 0. -1.
         13   -1    0    0    0    0 -0.00000000000E+00 -0.00000000000E+00 -0.10000000000E+04  0.10000000000E+04  0.00000000000E+00 0.  1.
    9000005    2    1    2  501    0  0.29717767665E+02  0.16093624440E+02 -0.11420094367E+03  0.11914258346E+03  0.33089569297E+01 0.  0.
         13    1    3    3    0    0  0.28470843526E+02  0.15727057796E+02 -0.10734417713E+03  0.11216372694E+03  0.00000000000E+00 0.  1.
          3    1    3    3  501    0  0.12469241395E+01  0.36656664435E+00 -0.68567665402E+01  0.69788565182E+01  0.00000000000E+00 0.  1.
         -3    1    1    2    0  502 -0.29717767665E+02 -0.16093624440E+02 -0.88300498444E+03  0.88365148843E+03  0.00000000000E+00 0. -1.
<mgrwt>
<rscale>  1 0.30000000E+03</rscale>
<asrwt>0</asrwt>
<pdfrwt beam="1">  1       21 0.10160283E-01 0.30000000E+03</pdfrwt>
<pdfrwt beam="2">0</pdfrwt>
<totfact> 0.83620817E+03</totfact>
</mgrwt>
</event>
<event>
 6    1  0.1284012E-001  0.3000000E+03  0.7818608E-02  0.1093470E+00
         21   -1    0    0  501  502  0.00000000000E+00  0.00000000000E+00  0.19585448027E+01  0.19585448027E+01  0.00000000000E+00 0. -1.
         13   -1    0    0    0    0 -0.00000000000E+00 -0.00000000000E+00 -0.10000000000E+04  0.10000000000E+04  0.00000000000E+00 0.  1.
    9000005    2    1    2  501    0  0.35397355761E+02  0.19382340259E+02 -0.70455514893E+03  0.70571057455E+03  0.89958194736E+00 0.  0.
         13    1    3    3    0    0  0.96293827285E+01  0.51699828288E+01 -0.18407435974E+03  0.18439854568E+03  0.00000000000E+00 0.  1.
          3    1    3    3  501    0  0.25767973033E+02  0.14212357430E+02 -0.52048078919E+03  0.52131202888E+03  0.00000000000E+00 0.  1.
         -1    1    1    2    0  502 -0.35397355761E+02 -0.19382340259E+02 -0.29348630627E+03  0.29624797025E+03  0.00000000000E+00 0. -1.
<mgrwt>
<rscale>  1 0.30000000E+03</rscale>
<asrwt>0</asrwt>
<pdfrwt beam="1">  1       21 0.71219961E-02 0.30000000E+03</pdfrwt>
<pdfrwt beam="2">0</pdfrwt>
<totfact> 0.15656996E+04</totfact>
</mgrwt>
</event>
<event>
 6    1  0.1284012E-001  0.3000000E+03  0.7818608E-02  0.1093470E+00
         21   -1    0    0  501  502  0.00000000000E+00  0.00000000000E+00  0.17685300411E+01  0.17685300411E+01  0.00000000000E+00 0. -1.
         13   -1    0    0    0    0 -0.00000000000E+00 -0.00000000000E+00 -0.10000000000E+04  0.10000000000E+04  0.00000000000E+00 0.  1.
    9000005    2    1    2  501    0 -0.19016731155E+02  0.26651201076E+02 -0.81301729873E+03  0.81368287985E+03  0.32830396421E+01 0.  0.
         13    1    3    3    0    0 -0.14982614081E+02  0.22235771651E+02 -0.68886081915E+03  0.68938243118E+03  0.00000000000E+00 0.  1.
          1    1    3    3  501    0 -0.40341170736E+01  0.44154294248E+01 -0.12415647959E+03  0.12430044868E+03  0.00000000000E+00 0.  1.
         -3    1    1    2    0  502  0.19016731155E+02 -0.26651201076E+02 -0.18521417123E+03  0.18808565019E+03  0.00000000000E+00 0. -1.
<mgrwt>
<rscale>  1 0.30000000E+03</rscale>
<asrwt>0</asrwt>
<pdfrwt beam="1">  1       21 0.64310319E-02 0.30000000E+03</pdfrwt>
<pdfrwt beam="2">0</pdfrwt>
<totfact> 0.18691996E+04</totfact>
</mgrwt>
</event>
<event>
 6    1  0.1284012E-001  0.3000000E+03  0.7818608E-02  0.1093470E+00
         21   -1    0    0  501  502  0.00000000000E+00  0.00000000000E+00  0.68020281818E+01  0.68020281818E+01  0.00000000000E+00 0. -1.
         13   -1    0    0    0    0 -0.00000000000E+00 -0.00000000000E+00 -0.10000000000E+04  0.10000000000E+04  0.00000000000E+00 0.  1.
    9000005    2    1    2  501    0 -0.51628503043E+02  0.51425524580E+02 -0.73220069664E+03  0.73582294309E+03  0.27306625523E+01 0.  0.
         13    1    3    3    0    0 -0.19899657776E+02  0.21165656948E+02 -0.28238768505E+03  0.28387811835E+03  0.00000000000E+00 0.  1.
          1    1    3    3  501    0 -0.31728845267E+02  0.30259867633E+02 -0.44981301160E+03  0.45194482474E+03  0.00000000000E+00 0.  1.
         -1    1    1    2    0  502  0.51628503043E+02 -0.51425524580E+02 -0.26099727518E+03  0.27097908509E+03  0.00000000000E+00 0. -1.
<mgrwt>
<rscale>  1 0.30000000E+03</rscale>
<asrwt>0</asrwt>
<pdfrwt beam="1">  1       21 0.24734700E-01 0.30000000E+03</pdfrwt>
<pdfrwt beam="2">0</pdfrwt>
<totfact> 0.15924794E+03</totfact>
</mgrwt>
</event>
<event>
 6    1  0.1284012E-001  0.3000000E+03  0.7818608E-02  0.1093470E+00
         21   -1    0    0  501  502  0.00000000000E+00  0.00000000000E+00  0.18736125730E+01  0.18736125730E+01  0.00000000000E+00 0. -1.
         13   -1    0    0    0    0 -0.00000000000E+00 -0.00000000000E+00 -0.10000000000E+04  0.10000000000E+04  0.00000000000E+00 0.  1.
    9000005    2    1    2  501    0 -0.10206419588E+02  0.38071287865E+02 -0.70406757066E+03  0.70518491767E+03  0.45858591406E+01 0.  0.
         13    1    3    3    0    0 -0.69169360715E+01  0.21151899907E+02 -0.36204263237E+03  0.36272594962E+03  0.00000000000E+00 0.  1.
          1    1    3    3  501    0 -0.32894835167E+01  0.16919387958E+02 -0.34202493828E+03  0.34245896805E+03  0.00000000000E+00 0.  1.
         -3    1    1    2    0  502  0.10206419588E+02 -0.38071287865E+02 -0.29405881677E+03  0.29668869490E+03  0.00000000000E+00 0. -1.
<mgrwt>
<rscale>  1 0.30000000E+03</rscale>
<asrwt>0</asrwt>
<pdfrwt beam="1">  1       21 0.68131510E-02 0.30000000E+03</pdfrwt>
<pdfrwt beam="2">0</pdfrwt>
<totfact> 0.16912355E+04</totfact>
</mgrwt>
</event>
<event>
 6    1  0.1284012E-001  0.3000000E+03  0.7818608E-02  0.1093470E+00
         21   -1    0    0  501  502  0.00000000000E+00  0.00000000000E+00  0.23651703276E+01  0.23651703276E+01  0.00000000000E+00 0. -1.
         13   -1    0    0    0    0 -0.00000000000E+00 -0.00000000000E+00 -0.10000000000E+04  0.10000000000E+04  0.00000000000E+00 0.  1.
    9000005    2    1    2  501    0 -0.19644728103E+02  0.30511881729E+02 -0.83212822258E+03  0.83292690056E+03  0.35989723204E+01 0.  0.
         13    1    3    3    0    0 -0.14635986999E+02  0.23494699536E+02 -0.66627668904E+03  0.66685143726E+03  0.00000000000E+00 0.  1.
          3    1    3    3  501    0 -0.50087411040E+01  0.70171821929E+01 -0.16585153354E+03  0.16607546330E+03  0.00000000000E+00 0.  1.
         -3    1    1    2    0  502  0.19644728103E+02 -0.30511881729E+02 -0.16550660709E+03  0.16943826976E+03  0.00000000000E+00 0. -1.
<mgrwt>
<rscale>  1 0.30000000E+03</rscale>
<asrwt>0</asrwt>
<pdfrwt beam="1">  1       21 0.86006375E-02 0.30000000E+03</pdfrwt>
<pdfrwt beam="2">0</pdfrwt>
<totfact> 0.11245320E+04</totfact>
</mgrwt>
</event>
<event>
 6    1  0.1284012E-001  0.3000000E+03  0.7818608E-02  0.1093470E+00
         21   -1    0    0  501  502  0.00000000000E+00  0.00000000000E+00  0.38375214994E+01  0.38375214994E+01  0.00000000000E+00 0. -1.
         13   -1    0    0    0    0 -0.00000000000E+00 -0.00000000000E+00 -0.10000000000E+04  0.10000000000E+04  0.00000000000E+00 0.  1.
    9000005    2    1    2  501    0  0.16480376042E+02  0.26364885358E+02 -0.93213391618E+03  0.93265910646E+03  0.35582576839E+01 0.  0.
         13    1    3    3    0    0  0.94797644753E+01  0.18207178487E+02 -0.62659531381E+03  0.62693145923E+03  0.00000000000E+00 0.  1.
          3    1    3    3  501    0  0.70006115665E+01  0.81577068714E+01 -0.30553860238E+03  0.30572764724E+03  0.00000000000E+00 0.  1.
         -1    1    1    2    0  502 -0.16480376042E+02 -0.26364885358E+02 -0.64028562318E+02  0.71178415035E+02  0.00000000000E+00 0. -1.
<mgrwt>
<rscale>  1 0.30000000E+03</rscale>
<asrwt>0</asrwt>
<pdfrwt beam="1">  1       21 0.13954653E-01 0.30000000E+03</pdfrwt>
<pdfrwt beam="2">0</pdfrwt>
<totfact> 0.47046332E+03</totfact>
</mgrwt>
</event>
<event>
 6    1  0.1284012E-001  0.3000000E+03  0.7818608E-02  0.1093470E+00
         21   -1    0    0  501  502  0.00000000000E+00  0.00000000000E+00  0.12894671354E+01  0.12894671354E+01  0.00000000000E+00 0. -1.
         13   -1    0    0    0    0 -0.00000000000E+00 -0.00000000000E+00 -0.10000000000E+04  0.10000000000E+04  0.00000000000E+00 0.  1.
    9000005    2    1    2  501    0  0.30165241079E+01 -0.35635601052E+02 -0.47325665989E+03  0.47461996156E+03  0.36395466690E+01 0.  0.
         13    1    3    3    0    0  0.37757222786E+01 -0.30562910923E+02 -0.41145159581E+03  0.41260242764E+03  0.00000000000E+00 0.  1.
          3    1    3    3  501    0 -0.75919817072E+00 -0.50726901291E+01 -0.61805064082E+02  0.62017533918E+02  0.00000000000E+00 0.  1.
         -1    1    1    2    0  502 -0.30165241079E+01  0.35635601052E+02 -0.52545387297E+03  0.52666950558E+03  0.00000000000E+00 0. -1.
<mgrwt>
<rscale>  1 0.30000000E+03</rscale>
<asrwt>0</asrwt>
<pdfrwt beam="1">  1       21 0.46889813E-02 0.30000000E+03</pdfrwt>
<pdfrwt beam="2">0</pdfrwt>
<totfact> 0.32132302E+04</totfact>
</mgrwt>
</event>
<event>
 6    1  0.1284012E-001  0.3000000E+03  0.7818608E-02  0.1093470E+00
         21   -1    0    0  501  502  0.00000000000E+00  0.00000000000E+00  0.13120376302E+01  0.13120376302E+01  0.00000000000E+00 0. -1.
         13   -1    0    0    0    0 -0.00000000000E+00 -0.00000000000E+00 -0.10000000000E+04  0.10000000000E+04  0.00000000000E+00 0.  1.
    9000005    2    1    2  501    0  0.31956791273E+02 -0.51830209681E+01 -0.72261447270E+03  0.72334680255E+03  0.32894359517E+01 0.  0.
         13    1    3    3    0    0  0.37776336101E+00 -0.20154567361E+00 -0.43012818517E+01  0.43225399227E+01  0.00000000000E+00 0.  1.
          1    1    3    3  501    0  0.31579027912E+02 -0.49814752944E+01 -0.71831319085E+03  0.71902426263E+03  0.00000000000E+00 0.  1.
         -3    1    1    2    0  502 -0.31956791273E+02  0.51830209681E+01 -0.27607348967E+03  0.27796523508E+03  0.00000000000E+00 0. -1.
<mgrwt>
<rscale>  1 0.30000000E+03</rscale>
<asrwt>0</asrwt>
<pdfrwt beam="1">  1       21 0.47710560E-02 0.30000000E+03</pdfrwt>
<pdfrwt beam="2">0</pdfrwt>
<totfact> 0.31197938E+04</totfact>
</mgrwt>
</event>
<event>
 6    1  0.1284012E-001  0.3000000E+03  0.7818608E-02  0.1093470E+00
         21   -1    0    0  501  502  0.00000000000E+00  0.00000000000E+00  0.42476462242E+01  0.42476462242E+01  0.00000000000E+00 0. -1.
         13   -1    0    0    0    0 -0.00000000000E+00 -0.00000000000E+00 -0.10000000000E+04  0.10000000000E+04  0.00000000000E+00 0.  1.
    9000005    2    1    2  501    0 -0.54600163321E+02 -0.19395311874E+02 -0.72722700811E+03  0.72954195422E+03  0.38711339130E+01 0.  0.
         13    1    3    3    0    0 -0.36125832009E+02 -0.11060127688E+02 -0.46338268740E+03  0.46492033419E+03  0.00000000000E+00 0.  1.
          1    1    3    3  501    0 -0.18474331312E+02 -0.83351841857E+01 -0.26384432071E+03  0.26462162002E+03  0.00000000000E+00 0.  1.
         -3    1    1    2    0  502  0.54600163321E+02  0.19395311874E+02 -0.26852534567E+03  0.27470569201E+03  0.00000000000E+00 0. -1.
<mgrwt>
<rscale>  1 0.30000000E+03</rscale>
<asrwt>0</asrwt>
<pdfrwt beam="1">  1       21 0.15446019E-01 0.30000000E+03</pdfrwt>
<pdfrwt beam="2">0</pdfrwt>
<totfact> 0.39002661E+03</totfact>
</mgrwt>
</event>
<event>
 6    1  0.1284012E-001  0.3000000E+03  0.7818608E-02  0.1093470E+00
         21   -1    0    0  501  502  0.00000000000E+00  0.00000000000E+00  0.31780578604E+01  0.31780578604E+01  0.00000000000E+00 0. -1.
         13   -1    0    0    0    0 -0.00000000000E+00 -0.00000000000E+00 -0.10000000000E+04  0.10000000000E+04  0.00000000000E+00 0.  1.
    9000005    2    1    2  501    0  0.28682239908E+02 -0.33152680318E+02 -0.81290357202E+03  0.81410733573E+03  0.60634637708E+01 0.  0.
         13    1    3    3    0    0  0.17775818084E+01 -0.43270976192E+01 -0.67827228851E+02  0.67988355948E+02  0.00000000000E+00 0.  1.
          1    1    3    3  501    0  0.26904658099E+02 -0.28825582698E+02 -0.74507634317E+03  0.74611897978E+03  0.00000000000E+00 0.  1.
         -3    1    1    2    0  502 -0.28682239908E+02  0.33152680318E+02 -0.18391837012E+03  0.18907072213E+03  0.00000000000E+00 0. -1.
<mgrwt>
<rscale>  1 0.30000000E+03</rscale>
<asrwt>0</asrwt>
<pdfrwt beam="1">  1       21 0.11556598E-01 0.30000000E+03</pdfrwt>
<pdfrwt beam="2">0</pdfrwt>
<totfact> 0.66344335E+03</totfact>
</mgrwt>
</event>
<event>
 6    1  0.1284012E-001  0.3000000E+03  0.7818608E-02  0.1093470E+00
         21   -1    0    0  501  502  0.00000000000E+00  0.00000000000E+00  0.20202840956E+01  0.20202840956E+01  0.00000000000E+00 0. -1.
         13   -1    0    0    0    0 -0.00000000000E+00 -0.00000000000E+00 -0.10000000000E+04  0.10000000000E+04  0.00000000000E+00 0.  1.
    9000005    2    1    2  501    0 -0.34406185965E+02 -0.27038437449E+02 -0.38791208717E+03  0.39038528316E+03  0.31653132095E+01 0.  0.
         13    1    3    3    0    0 -0.26907504863E+02 -0.19542081487E+02 -0.28966080285E+03  0.29156352220E+03  0.00000000000E+00 0.  1.
          3    1    3    3  501    0 -0.74986811025E+01 -0.74963559618E+01 -0.98251284315E+02  0.98821760966E+02  0.00000000000E+00 0.  1.
         -3    1    1    2    0  502  0.34406185965E+02  0.27038437449E+02 -0.61006762874E+03  0.61163500093E+03  0.00000000000E+00 0. -1.
<mgrwt>
<rscale>  1 0.30000000E+03</rscale>
<asrwt>0</asrwt>
<pdfrwt beam="1">  1       21 0.73465031E-02 0.30000000E+03</pdfrwt>
<pdfrwt beam="2">0</pdfrwt>
<totfact> 0.14831453E+04</totfact>
</mgrwt>
</event>
<event>
 6    1  0.1284012E-001  0.3000000E+03  0.7818608E-02  0.1093470E+00
         21   -1    0    0  501  502  0.00000000000E+00  0.00000000000E+00  0.16685590738E+01  0.16685590738E+01  0.00000000000E+00 0. -1.
         13   -1    0    0    0    0 -0.00000000000E+00 -0.00000000000E+00 -0.10000000000E+04  0.10000000000E+04  0.00000000000E+00 0.  1.
    9000005    2    1    2  501    0 -0.37965668897E+02 -0.98459825225E+01 -0.63705702818E+03  0.63827134294E+03  0.32116478317E+01 0.  0.
         13    1    3    3    0    0 -0.26180488255E+02 -0.69538060595E+01 -0.46311754916E+03  0.46390908347E+03  0.00000000000E+00 0.  1.
          1    1    3    3  501    0 -0.11785180642E+02 -0.28921764630E+01 -0.17393947902E+03  0.17436225947E+03  0.00000000000E+00 0.  1.
         -1    1    1    2    0  502  0.37965668897E+02  0.98459825225E+01 -0.36127441275E+03  0.36339721613E+03  0.00000000000E+00 0. -1.
<mgrwt>
<rscale>  1 0.30000000E+03</rscale>
<asrwt>0</asrwt>
<pdfrwt beam="1">  1       21 0.60675003E-02 0.30000000E+03</pdfrwt>
<pdfrwt beam="2">0</pdfrwt>
<totfact> 0.20668916E+04</totfact>
</mgrwt>
</event>
<event>
 6    1  0.1284012E-001  0.3000000E+03  0.7818608E-02  0.1093470E+00
         21   -1    0    0  501  502  0.00000000000E+00  0.00000000000E+00  0.13604968962E+01  0.13604968962E+01  0.00000000000E+00 0. -1.
         13   -1    0    0    0    0 -0.00000000000E+00 -0.00000000000E+00 -0.10000000000E+04  0.10000000000E+04  0.00000000000E+00 0.  1.
    9000005    2    1    2  501    0  0.30800950266E+02 -0.19797829926E+02 -0.44598235934E+03  0.44749176592E+03  0.28218984599E+01 0.  0.
         13    1    3    3    0    0  0.19663015174E+02 -0.12414402932E+02 -0.29927461188E+03  0.30017668944E+03  0.00000000000E+00 0.  1.
          1    1    3    3  501    0  0.11137935092E+02 -0.73834269938E+01 -0.14670774746E+03  0.14731507648E+03  0.00000000000E+00 0.  1.
         -3    1    1    2    0  502 -0.30800950266E+02  0.19797829926E+02 -0.55265714376E+03  0.55386873098E+03  0.00000000000E+00 0. -1.
<mgrwt>
<rscale>  1 0.30000000E+03</rscale>
<asrwt>0</asrwt>
<pdfrwt beam="1">  1       21 0.49472719E-02 0.30000000E+03</pdfrwt>
<pdfrwt beam="2">0</pdfrwt>
<totfact> 0.29329834E+04</totfact>
</mgrwt>
</event>
<event>
 6    1  0.1284012E-001  0.3000000E+03  0.7818608E-02  0.1093470E+00
         21   -1    0    0  501  502  0.00000000000E+00  0.00000000000E+00  0.16945326952E+01  0.16945326952E+01  0.00000000000E+00 0. -1.
         13   -1    0    0    0    0 -0.00000000000E+00 -0.00000000000E+00 -0.10000000000E+04  0.10000000000E+04  0.00000000000E+00 0.  1.
    9000005    2    1    2  501    0  0.35513174336E+02 -0.15351414985E+02 -0.66793749501E+03  0.66906884425E+03  0.39710976170E+01 0.  0.
         13    1    3    3    0    0  0.19993400420E+02 -0.75363915486E+01 -0.39724390460E+03  0.39781811547E+03  0.00000000000E+00 0.  1.
          1    1    3    3  501    0  0.15519773916E+02 -0.78150234362E+01 -0.27069359041E+03  0.27125072878E+03  0.00000000000E+00 0.  1.
         -3    1    1    2    0  502 -0.35513174336E+02  0.15351414985E+02 -0.33036797230E+03  0.33262568845E+03  0.00000000000E+00 0. -1.
<mgrwt>
<rscale>  1 0.30000000E+03</rscale>
<asrwt>0</asrwt>
<pdfrwt beam="1">  1       21 0.61619501E-02 0.30000000E+03</pdfrwt>
<pdfrwt beam="2">0</pdfrwt>
<totfact> 0.20125146E+04</totfact>
</mgrwt>
</event>
<event>
 6    1  0.1284012E-001  0.3000000E+03  0.7818608E-02  0.1093470E+00
         21   -1    0    0  501  502  0.00000000000E+00  0.00000000000E+00  0.56602502049E+01  0.56602502049E+01  0.00000000000E+00 0. -1.
         13   -1    0    0    0    0 -0.00000000000E+00 -0.00000000000E+00 -0.10000000000E+04  0.10000000000E+04  0.00000000000E+00 0.  1.
    9000005    2    1    2  501    0  0.19181890542E+02  0.30579348878E+02 -0.93810362302E+03  0.93883552830E+03  0.84083398575E+01 0.  0.
         13    1    3    3    0    0  0.11860525985E+01  0.15332007250E+01 -0.19375978328E+02  0.19472697846E+02  0.00000000000E+00 0.  1.
          3    1    3    3  501    0  0.17995837944E+02  0.29046148153E+02 -0.91872764469E+03  0.91936283045E+03  0.00000000000E+00 0.  1.
         -3    1    1    2    0  502 -0.19181890542E+02 -0.30579348878E+02 -0.56236126779E+02  0.66824721905E+02  0.00000000000E+00 0. -1.
<mgrwt>
<rscale>  1 0.30000000E+03</rscale>
<asrwt>0</asrwt>
<pdfrwt beam="1">  1       21 0.20582771E-01 0.30000000E+03</pdfrwt>
<pdfrwt beam="2">0</pdfrwt>
<totfact> 0.22710546E+03</totfact>
</mgrwt>
</event>
<event>
 6    1  0.1284012E-001  0.3000000E+03  0.7818608E-02  0.1093470E+00
         21   -1    0    0  501  502  0.00000000000E+00  0.00000000000E+00  0.18829455491E+01  0.18829455491E+01  0.00000000000E+00 0. -1.
         13   -1    0    0    0    0 -0.00000000000E+00 -0.00000000000E+00 -0.10000000000E+04  0.10000000000E+04  0.00000000000E+00 0.  1.
    9000005    2    1    2  501    0  0.30411199073E+02 -0.20291944748E+02 -0.23150422794E+03  0.23439885463E+03  0.34657531163E+01 0.  0.
         13    1    3    3    0    0  0.13562497404E+02 -0.95132819813E+01 -0.11570397305E+03  0.11688393067E+03  0.00000000000E+00 0.  1.
          1    1    3    3  501    0  0.16848701668E+02 -0.10778662767E+02 -0.11580025489E+03  0.11751492396E+03  0.00000000000E+00 0.  1.
         -1    1    1    2    0  502 -0.30411199073E+02  0.20291944748E+02 -0.76661282651E+03  0.76748409092E+03  0.00000000000E+00 0. -1.
<mgrwt>
<rscale>  1 0.30000000E+03</rscale>
<asrwt>0</asrwt>
<pdfrwt beam="1">  1       21 0.68470892E-02 0.30000000E+03</pdfrwt>
<pdfrwt beam="2">0</pdfrwt>
<totfact> 0.16767009E+04</totfact>
</mgrwt>
</event>
<event>
 6    1  0.1284012E-001  0.3000000E+03  0.7818608E-02  0.1093470E+00
         21   -1    0    0  501  502  0.00000000000E+00  0.00000000000E+00  0.16279297379E+01  0.16279297379E+01  0.00000000000E+00 0. -1.
         13   -1    0    0    0    0 -0.00000000000E+00 -0.00000000000E+00 -0.10000000000E+04  0.10000000000E+04  0.00000000000E+00 0.  1.
    9000005    2    1    2  501    0 -0.10279712320E+02  0.31038254341E+02 -0.79205199817E+03  0.79273317665E+03  0.32366409782E+01 0.  0.
         13    1    3    3    0    0 -0.28663555601E+01  0.13325073371E+02 -0.31390766535E+03  0.31420343082E+03  0.00000000000E+00 0.  1.
          3    1    3    3  501    0 -0.74133567601E+01  0.17713180970E+02 -0.47814433282E+03  0.47852974583E+03  0.00000000000E+00 0.  1.
         -3    1    1    2    0  502  0.10279712320E+02 -0.31038254341E+02 -0.20632007209E+03  0.20889475308E+03  0.00000000000E+00 0. -1.
<mgrwt>
<rscale>  1 0.30000000E+03</rscale>
<asrwt>0</asrwt>
<pdfrwt beam="1">  1       21 0.59197570E-02 0.30000000E+03</pdfrwt>
<pdfrwt beam="2">0</pdfrwt>
<totfact> 0.21566559E+04</totfact>
</mgrwt>
</event>
<event>
 6    1  0.1284012E-001  0.3000000E+03  0.7818608E-02  0.1093470E+00
         21   -1    0    0  501  502  0.00000000000E+00  0.00000000000E+00  0.10469377984E+01  0.10469377984E+01  0.00000000000E+00 0. -1.
         13   -1    0    0    0    0 -0.00000000000E+00 -0.00000000000E+00 -0.10000000000E+04  0.10000000000E+04  0.00000000000E+00 0.  1.
    9000005    2    1    2  501    0  0.15253531238E+02 -0.28109224694E+02 -0.56771430393E+03  0.56862392111E+03  0.32915104704E+01 0.  0.
         13    1    3    3    0    0  0.27996014252E+01 -0.62833271475E+01 -0.10144018768E+03  0.10167315105E+03  0.00000000000E+00 0.  1.
          3    1    3    3  501    0  0.12453929813E+02 -0.21825897546E+02 -0.46627411625E+03  0.46695077006E+03  0.00000000000E+00 0.  1.
         -1    1    1    2    0  502 -0.15253531238E+02  0.28109224694E+02 -0.43123875827E+03  0.43242301669E+03  0.00000000000E+00 0. -1.
<mgrwt>
<rscale>  1 0.30000000E+03</rscale>
<asrwt>0</asrwt>
<pdfrwt beam="1">  1       21 0.38070546E-02 0.30000000E+03</pdfrwt>
<pdfrwt beam="2">0</pdfrwt>
<totfact> 0.45693462E+04</totfact>
</mgrwt>
</event>
<event>
 6    1  0.1284012E-001  0.3000000E+03  0.7818608E-02  0.1093470E+00
         21   -1    0    0  501  502  0.00000000000E+00  0.00000000000E+00  0.62305831988E+01  0.62305831988E+01  0.00000000000E+00 0. -1.
         13   -1    0    0    0    0 -0.00000000000E+00 -0.00000000000E+00 -0.10000000000E+04  0.10000000000E+04  0.00000000000E+00 0.  1.
    9000005    2    1    2  501    0 -0.34647550039E+02  0.17514438394E+02 -0.93465257485E+03  0.93550569877E+03  0.93951301437E+01 0.  0.
         13    1    3    3    0    0 -0.25970822165E+02  0.99423477185E+01 -0.58013871333E+03  0.58080483864E+03  0.00000000000E+00 0.  1.
          3    1    3    3  501    0 -0.86767278745E+01  0.75720906755E+01 -0.35451386152E+03  0.35470086013E+03  0.00000000000E+00 0.  1.
         -3    1    1    2    0  502  0.34647550039E+02 -0.17514438394E+02 -0.59116841950E+02  0.70724884433E+02  0.00000000000E+00 0. -1.
<mgrwt>
<rscale>  1 0.30000000E+03</rscale>
<asrwt>0</asrwt>
<pdfrwt beam="1">  1       21 0.22656714E-01 0.30000000E+03</pdfrwt>
<pdfrwt beam="2">0</pdfrwt>
<totfact> 0.18883853E+03</totfact>
</mgrwt>
</event>
<event>
 6    1  0.1284012E-001  0.3000000E+03  0.7818608E-02  0.1093470E+00
         21   -1    0    0  501  502  0.00000000000E+00  0.00000000000E+00  0.14775911935E+01  0.14775911935E+01  0.00000000000E+00 0. -1.
         13   -1    0    0    0    0 -0.00000000000E+00 -0.00000000000E+00 -0.10000000000E+04  0.10000000000E+04  0.00000000000E+00 0.  1.
    9000005    2    1    2  501    0 -0.85221890517E+01  0.28887042989E+02 -0.80962848802E+03  0.81019768564E+03  0.38616372531E+01 0.  0.
         13    1    3    3    0    0 -0.74610735510E+01  0.20080891970E+02 -0.59722485189E+03  0.59760893029E+03  0.00000000000E+00 0.  1.
          1    1    3    3  501    0 -0.10611155007E+01  0.88061510188E+01 -0.21240363613E+03  0.21258875535E+03  0.00000000000E+00 0.  1.
         -3    1    1    2    0  502  0.85221890517E+01 -0.28887042989E+02 -0.18889392078E+03  0.19127990555E+03  0.00000000000E+00 0. -1.
<mgrwt>
<rscale>  1 0.30000000E+03</rscale>
<asrwt>0</asrwt>
<pdfrwt beam="1">  1       21 0.53730702E-02 0.30000000E+03</pdfrwt>
<pdfrwt beam="2">0</pdfrwt>
<totfact> 0.25473005E+04</totfact>
</mgrwt>
</event>
<event>
 6    1  0.1284012E-001  0.3000000E+03  0.7818608E-02  0.1093470E+00
         21   -1    0    0  501  502  0.00000000000E+00  0.00000000000E+00  0.12857238642E+01  0.12857238642E+01  0.00000000000E+00 0. -1.
         13   -1    0    0    0    0 -0.00000000000E+00 -0.00000000000E+00 -0.10000000000E+04  0.10000000000E+04  0.00000000000E+00 0.  1.
    9000005    2    1    2  501    0  0.75901166038E+01  0.30042320782E+02 -0.75055508203E+03  0.75119946569E+03  0.27486696003E+01 0.  0.
         13    1    3    3    0    0  0.42780972264E+01  0.13102467285E+02 -0.30945140055E+03  0.30975820581E+03  0.00000000000E+00 0.  1.
          3    1    3    3  501    0  0.33120193774E+01  0.16939853497E+02 -0.44110368149E+03  0.44144125988E+03  0.00000000000E+00 0.  1.
         -3    1    1    2    0  502 -0.75901166038E+01 -0.30042320782E+02 -0.24815919410E+03  0.25008625817E+03  0.00000000000E+00 0. -1.
<mgrwt>
<rscale>  1 0.30000000E+03</rscale>
<asrwt>0</asrwt>
<pdfrwt beam="1">  1       21 0.46753694E-02 0.30000000E+03</pdfrwt>
<pdfrwt beam="2">0</pdfrwt>
<totfact> 0.32291499E+04</totfact>
</mgrwt>
</event>
<event>
 6    1  0.1284012E-001  0.3000000E+03  0.7818608E-02  0.1093470E+00
         21   -1    0    0  501  502  0.00000000000E+00  0.00000000000E+00  0.24967904741E+01  0.24967904741E+01  0.00000000000E+00 0. -1.
         13   -1    0    0    0    0 -0.00000000000E+00 -0.00000000000E+00 -0.10000000000E+04  0.10000000000E+04  0.00000000000E+00 0.  1.
    9000005    2    1    2  501    0 -0.28336942770E+02  0.40660631123E+02 -0.55822945686E+03  0.56043604913E+03  0.34884694523E+01 0.  0.
         13    1    3    3    0    0 -0.21136171648E+02  0.32758966015E+02 -0.43415161728E+03  0.43589851387E+03  0.00000000000E+00 0.  1.
          3    1    3    3  501    0 -0.72007711219E+01  0.79016651085E+01 -0.12407783958E+03  0.12453753527E+03  0.00000000000E+00 0.  1.
         -1    1    1    2    0  502  0.28336942770E+02 -0.40660631123E+02 -0.43927375267E+03  0.44206074134E+03  0.00000000000E+00 0. -1.
<mgrwt>
<rscale>  1 0.30000000E+03</rscale>
<asrwt>0</asrwt>
<pdfrwt beam="1">  1       21 0.90792572E-02 0.30000000E+03</pdfrwt>
<pdfrwt beam="2">0</pdfrwt>
<totfact> 0.10218062E+04</totfact>
</mgrwt>
</event>
<event>
 6    1  0.1284012E-001  0.3000000E+03  0.7818608E-02  0.1093470E+00
         21   -1    0    0  501  502  0.00000000000E+00  0.00000000000E+00  0.11258150301E+01  0.11258150301E+01  0.00000000000E+00 0. -1.
         13   -1    0    0    0    0 -0.00000000000E+00 -0.00000000000E+00 -0.10000000000E+04  0.10000000000E+04  0.00000000000E+00 0.  1.
    9000005    2    1    2  501    0  0.31931420427E+02  0.44974881867E+01 -0.61792431962E+03  0.61881358279E+03  0.77422514140E+01 0.  0.
         13    1    3    3    0    0  0.27023258198E+02  0.83029875118E+00 -0.50304045986E+03  0.50376646389E+03  0.00000000000E+00 0.  1.
          1    1    3    3  501    0  0.49081622288E+01  0.36671894355E+01 -0.11488385975E+03  0.11504711890E+03  0.00000000000E+00 0.  1.
         -3    1    1    2    0  502 -0.31931420427E+02 -0.44974881867E+01 -0.38094986535E+03  0.38231223224E+03  0.00000000000E+00 0. -1.
<mgrwt>
<rscale>  1 0.30000000E+03</rscale>
<asrwt>0</asrwt>
<pdfrwt beam="1">  1       21 0.40938815E-02 0.30000000E+03</pdfrwt>
<pdfrwt beam="2">0</pdfrwt>
<totfact> 0.40435332E+04</totfact>
</mgrwt>
</event>
<event>
 6    1  0.1284012E-001  0.3000000E+03  0.7818608E-02  0.1093470E+00
         21   -1    0    0  501  502  0.00000000000E+00  0.00000000000E+00  0.30629799461E+01  0.30629799461E+01  0.00000000000E+00 0. -1.
         13   -1    0    0    0    0 -0.00000000000E+00 -0.00000000000E+00 -0.10000000000E+04  0.10000000000E+04  0.00000000000E+00 0.  1.
    9000005    2    1    2  501    0 -0.28344556972E+02  0.33457765527E+02 -0.80408420174E+03  0.80528774005E+03  0.37556364140E+01 0.  0.
         13    1    3    3    0    0 -0.26589817375E+02  0.32436171055E+02 -0.77339955493E+03  0.77453598700E+03  0.00000000000E+00 0.  1.
          3    1    3    3  501    0 -0.17547395966E+01  0.10215944719E+01 -0.30684646801E+02  0.30751753049E+02  0.00000000000E+00 0.  1.
         -3    1    1    2    0  502  0.28344556972E+02 -0.33457765527E+02 -0.19285281832E+03  0.19777523990E+03  0.00000000000E+00 0. -1.
<mgrwt>
<rscale>  1 0.30000000E+03</rscale>
<asrwt>0</asrwt>
<pdfrwt beam="1">  1       21 0.11138132E-01 0.30000000E+03</pdfrwt>
<pdfrwt beam="2">0</pdfrwt>
<totfact> 0.70909289E+03</totfact>
</mgrwt>
</event>
<event>
 6    1  0.1284012E-001  0.3000000E+03  0.7818608E-02  0.1093470E+00
         21   -1    0    0  501  502  0.00000000000E+00  0.00000000000E+00  0.22016117413E+01  0.22016117413E+01  0.00000000000E+00 0. -1.
         13   -1    0    0    0    0 -0.00000000000E+00 -0.00000000000E+00 -0.10000000000E+04  0.10000000000E+04  0.00000000000E+00 0.  1.
    9000005    2    1    2  501    0  0.45002109401E+02 -0.43025283368E+01 -0.63112139308E+03  0.63274833947E+03  0.35421314095E+01 0.  0.
         13    1    3    3    0    0  0.44494028096E+02 -0.40951227566E+01 -0.61673156427E+03  0.61834804999E+03  0.00000000000E+00 0.  1.
          1    1    3    3  501    0  0.50808130484E+00 -0.20740558023E+00 -0.14389828816E+02  0.14400289478E+02  0.00000000000E+00 0.  1.
         -1    1    1    2    0  502 -0.45002109401E+02  0.43025283368E+01 -0.36667699517E+03  0.36945327227E+03  0.00000000000E+00 0. -1.
<mgrwt>
<rscale>  1 0.30000000E+03</rscale>
<asrwt>0</asrwt>
<pdfrwt beam="1">  1       21 0.80058778E-02 0.30000000E+03</pdfrwt>
<pdfrwt beam="2">0</pdfrwt>
<totfact> 0.12757400E+04</totfact>
</mgrwt>
</event>
<event>
 6    1  0.1284012E-001  0.3000000E+03  0.7818608E-02  0.1093470E+00
         21   -1    0    0  501  502  0.00000000000E+00  0.00000000000E+00  0.66866186884E+01  0.66866186884E+01  0.00000000000E+00 0. -1.
         13   -1    0    0    0    0 -0.00000000000E+00 -0.00000000000E+00 -0.10000000000E+04  0.10000000000E+04  0.00000000000E+00 0.  1.
    9000005    2    1    2  501    0  0.70249719491E+01  0.40204768755E+02 -0.93278673290E+03  0.93368491439E+03  0.32644505186E+01 0.  0.
         13    1    3    3    0    0  0.50969426018E+01  0.19700972079E+02 -0.46557973587E+03  0.46602424570E+03  0.00000000000E+00 0.  1.
          3    1    3    3  501    0  0.19280293472E+01  0.20503796677E+02 -0.46720699702E+03  0.46766066869E+03  0.00000000000E+00 0.  1.
         -3    1    1    2    0  502 -0.70249719491E+01 -0.40204768755E+02 -0.60526648415E+02  0.73001704295E+02  0.00000000000E+00 0. -1.
<mgrwt>
<rscale>  1 0.30000000E+03</rscale>
<asrwt>0</asrwt>
<pdfrwt beam="1">  1       21 0.24315028E-01 0.30000000E+03</pdfrwt>
<pdfrwt beam="2">0</pdfrwt>
<totfact> 0.16465593E+03</totfact>
</mgrwt>
</event>
<event>
 6    1  0.1284012E-001  0.3000000E+03  0.7818608E-02  0.1093470E+00
         21   -1    0    0  501  502  0.00000000000E+00  0.00000000000E+00  0.30495914786E+01  0.30495914786E+01  0.00000000000E+00 0. -1.
         13   -1    0    0    0    0 -0.00000000000E+00 -0.00000000000E+00 -0.10000000000E+04  0.10000000000E+04  0.00000000000E+00 0.  1.
    9000005    2    1    2  501    0 -0.26088288569E+02 -0.27237863818E+02 -0.86465754661E+03  0.86548541977E+03  0.31367011979E+01 0.  0.
         13    1    3    3    0    0 -0.12309840228E+02 -0.11461769220E+02 -0.41335271207E+03  0.41369477746E+03  0.00000000000E+00 0.  1.
          1    1    3    3  501    0 -0.13778448341E+02 -0.15776094598E+02 -0.45130483455E+03  0.45179064232E+03  0.00000000000E+00 0.  1.
         -3    1    1    2    0  502  0.26088288569E+02  0.27237863818E+02 -0.13229286191E+03  0.13756417171E+03  0.00000000000E+00 0. -1.
<mgrwt>
<rscale>  1 0.30000000E+03</rscale>
<asrwt>0</asrwt>
<pdfrwt beam="1">  1       21 0.11089447E-01 0.30000000E+03</pdfrwt>
<pdfrwt beam="2">0</pdfrwt>
<totfact> 0.71470864E+03</totfact>
</mgrwt>
</event>
<event>
 6    1  0.1284012E-001  0.3000000E+03  0.7818608E-02  0.1093470E+00
         21   -1    0    0  501  502  0.00000000000E+00  0.00000000000E+00  0.11111560891E+01  0.11111560891E+01  0.00000000000E+00 0. -1.
         13   -1    0    0    0    0 -0.00000000000E+00 -0.00000000000E+00 -0.10000000000E+04  0.10000000000E+04  0.00000000000E+00 0.  1.
    9000005    2    1    2  501    0 -0.24617467072E+02  0.20720384832E+02 -0.62659961911E+03  0.62743399471E+03  0.33137618599E+01 0.  0.
         13    1    3    3    0    0 -0.12145746463E+02  0.85890750158E+01 -0.30986340532E+03  0.31022027871E+03  0.00000000000E+00 0.  1.
          3    1    3    3  501    0 -0.12471720610E+02  0.12131309817E+02 -0.31673621379E+03  0.31721371600E+03  0.00000000000E+00 0.  1.
         -1    1    1    2    0  502  0.24617467072E+02 -0.20720384832E+02 -0.37228922481E+03  0.37367716138E+03  0.00000000000E+00 0. -1.
<mgrwt>
<rscale>  1 0.30000000E+03</rscale>
<asrwt>0</asrwt>
<pdfrwt beam="1">  1       21 0.40405761E-02 0.30000000E+03</pdfrwt>
<pdfrwt beam="2">0</pdfrwt>
<totfact> 0.41338511E+04</totfact>
</mgrwt>
</event>
<event>
 6    1  0.1284012E-001  0.3000000E+03  0.7818608E-02  0.1093470E+00
         21   -1    0    0  501  502  0.00000000000E+00  0.00000000000E+00  0.13977264292E+01  0.13977264292E+01  0.00000000000E+00 0. -1.
         13   -1    0    0    0    0 -0.00000000000E+00 -0.00000000000E+00 -0.10000000000E+04  0.10000000000E+04  0.00000000000E+00 0.  1.
    9000005    2    1    2  501    0  0.21014677017E+02 -0.30245791194E+02 -0.55629194539E+03  0.55755670652E+03  0.72338059787E+01 0.  0.
         13    1    3    3    0    0  0.41661823892E+01 -0.11897889436E+02 -0.17909381353E+03  0.17953693463E+03  0.00000000000E+00 0.  1.
          1    1    3    3  501    0  0.16848494628E+02 -0.18347901758E+02 -0.37719813185E+03  0.37801977189E+03  0.00000000000E+00 0.  1.
         -1    1    1    2    0  502 -0.21014677017E+02  0.30245791194E+02 -0.44231032818E+03  0.44384101991E+03  0.00000000000E+00 0. -1.
<mgrwt>
<rscale>  1 0.30000000E+03</rscale>
<asrwt>0</asrwt>
<pdfrwt beam="1">  1       21 0.50826523E-02 0.30000000E+03</pdfrwt>
<pdfrwt beam="2">0</pdfrwt>
<totfact> 0.28010402E+04</totfact>
</mgrwt>
</event>
<event>
 6    1  0.1284012E-001  0.3000000E+03  0.7818608E-02  0.1093470E+00
         21   -1    0    0  501  502  0.00000000000E+00  0.00000000000E+00  0.12196347435E+01  0.12196347435E+01  0.00000000000E+00 0. -1.
         13   -1    0    0    0    0 -0.00000000000E+00 -0.00000000000E+00 -0.10000000000E+04  0.10000000000E+04  0.00000000000E+00 0.  1.
    9000005    2    1    2  501    0  0.19260703938E+02  0.27555604970E+02 -0.63118589309E+03  0.63209095521E+03  0.36135785854E+01 0.  0.
         13    1    3    3    0    0  0.10892521634E+02  0.18596310511E+02 -0.40586189293E+03  0.40643369192E+03  0.00000000000E+00 0.  1.
          1    1    3    3  501    0  0.83681823036E+01  0.89592944591E+01 -0.22532400015E+03  0.22565726329E+03  0.00000000000E+00 0.  1.
         -1    1    1    2    0  502 -0.19260703938E+02 -0.27555604970E+02 -0.36759447217E+03  0.36912867953E+03  0.00000000000E+00 0. -1.
<mgrwt>
<rscale>  1 0.30000000E+03</rscale>
<asrwt>0</asrwt>
<pdfrwt beam="1">  1       21 0.44350448E-02 0.30000000E+03</pdfrwt>
<pdfrwt beam="2">0</pdfrwt>
<totfact> 0.35318431E+04</totfact>
</mgrwt>
</event>
<event>
 6    1  0.1284012E-001  0.3000000E+03  0.7818608E-02  0.1093470E+00
         21   -1    0    0  501  502  0.00000000000E+00  0.00000000000E+00  0.12733001916E+01  0.12733001916E+01  0.00000000000E+00 0. -1.
         13   -1    0    0    0    0 -0.00000000000E+00 -0.00000000000E+00 -0.10000000000E+04  0.10000000000E+04  0.00000000000E+00 0.  1.
    9000005    2    1    2  501    0 -0.12232780335E+02 -0.30588482731E+02 -0.31040691460E+03  0.31216559968E+03  0.31004521596E+01 0.  0.
         13    1    3    3    0    0 -0.79426582827E+01 -0.18534357609E+02 -0.17615612949E+03  0.17730648660E+03  0.00000000000E+00 0.  1.
          3    1    3    3  501    0 -0.42901220521E+01 -0.12054125122E+02 -0.13425078511E+03  0.13485911308E+03  0.00000000000E+00 0.  1.
         -3    1    1    2    0  502  0.12232780335E+02  0.30588482731E+02 -0.68831978521E+03  0.68910770051E+03  0.00000000000E+00 0. -1.
<mgrwt>
<rscale>  1 0.30000000E+03</rscale>
<asrwt>0</asrwt>
<pdfrwt beam="1">  1       21 0.46301923E-02 0.30000000E+03</pdfrwt>
<pdfrwt beam="2">0</pdfrwt>
<totfact> 0.32828824E+04</totfact>
</mgrwt>
</event>
<event>
 6    1  0.1284012E-001  0.3000000E+03  0.7818608E-02  0.1093470E+00
         21   -1    0    0  501  502  0.00000000000E+00  0.00000000000E+00  0.14397799416E+01  0.14397799416E+01  0.00000000000E+00 0. -1.
         13   -1    0    0    0    0 -0.00000000000E+00 -0.00000000000E+00 -0.10000000000E+04  0.10000000000E+04  0.00000000000E+00 0.  1.
    9000005    2    1    2  501    0  0.10866933588E+02 -0.29393316518E+02 -0.78060379634E+03  0.78124200533E+03  0.38375432114E+01 0.  0.
         13    1    3    3    0    0  0.77068265328E+01 -0.16740259619E+02 -0.48746460361E+03  0.48781284448E+03  0.00000000000E+00 0.  1.
          3    1    3    3  501    0  0.31601070555E+01 -0.12653056899E+02 -0.29313919273E+03  0.29342916085E+03  0.00000000000E+00 0.  1.
         -1    1    1    2    0  502 -0.10866933588E+02  0.29393316518E+02 -0.21795642372E+03  0.22019777461E+03  0.00000000000E+00 0. -1.
<mgrwt>
<rscale>  1 0.30000000E+03</rscale>
<asrwt>0</asrwt>
<pdfrwt beam="1">  1       21 0.52355745E-02 0.30000000E+03</pdfrwt>
<pdfrwt beam="2">0</pdfrwt>
<totfact> 0.26627863E+04</totfact>
</mgrwt>
</event>
<event>
 6    1  0.1284012E-001  0.3000000E+03  0.7818608E-02  0.1093470E+00
         21   -1    0    0  501  502  0.00000000000E+00  0.00000000000E+00  0.13316065557E+01  0.13316065557E+01  0.00000000000E+00 0. -1.
         13   -1    0    0    0    0 -0.00000000000E+00 -0.00000000000E+00 -0.10000000000E+04  0.10000000000E+04  0.00000000000E+00 0.  1.
    9000005    2    1    2  501    0 -0.28027779717E+02  0.20472766797E+02 -0.35604326119E+03  0.35776983701E+03  0.52689485635E+01 0.  0.
         13    1    3    3    0    0 -0.20917126885E+02  0.17928408110E+02 -0.28189672836E+03  0.28323968556E+03  0.00000000000E+00 0.  1.
          3    1    3    3  501    0 -0.71106528319E+01  0.25443586877E+01 -0.74146532830E+02  0.74530151452E+02  0.00000000000E+00 0.  1.
         -1    1    1    2    0  502  0.28027779717E+02 -0.20472766797E+02 -0.64262513226E+03  0.64356176955E+03  0.00000000000E+00 0. -1.
<mgrwt>
<rscale>  1 0.30000000E+03</rscale>
<asrwt>0</asrwt>
<pdfrwt beam="1">  1       21 0.48422159E-02 0.30000000E+03</pdfrwt>
<pdfrwt beam="2">0</pdfrwt>
<totfact> 0.30421776E+04</totfact>
</mgrwt>
</event>
<event>
 6    1  0.1284012E-001  0.3000000E+03  0.7818608E-02  0.1093470E+00
         21   -1    0    0  501  502  0.00000000000E+00  0.00000000000E+00  0.17835354986E+01  0.17835354986E+01  0.00000000000E+00 0. -1.
         13   -1    0    0    0    0 -0.00000000000E+00 -0.00000000000E+00 -0.10000000000E+04  0.10000000000E+04  0.00000000000E+00 0.  1.
    9000005    2    1    2  501    0 -0.41980115206E+02 -0.78508942632E+00 -0.45673840718E+03  0.45868001590E+03  0.37997310633E+01 0.  0.
         13    1    3    3    0    0 -0.32701445861E+02  0.47619754790E+00 -0.36701413452E+03  0.36846843320E+03  0.00000000000E+00 0.  1.
          3    1    3    3  501    0 -0.92786693445E+01 -0.12612869742E+01 -0.89724272655E+02  0.90211582699E+02  0.00000000000E+00 0.  1.
         -3    1    1    2    0  502  0.41980115206E+02  0.78508942632E+00 -0.54147805732E+03  0.54310351960E+03  0.00000000000E+00 0. -1.
<mgrwt>
<rscale>  1 0.30000000E+03</rscale>
<asrwt>0</asrwt>
<pdfrwt beam="1">  1       21 0.64855973E-02 0.30000000E+03</pdfrwt>
<pdfrwt beam="2">0</pdfrwt>
<totfact> 0.18420653E+04</totfact>
</mgrwt>
</event>
<event>
 6    1  0.1284012E-001  0.3000000E+03  0.7818608E-02  0.1093470E+00
         21   -1    0    0  501  502  0.00000000000E+00  0.00000000000E+00  0.16460843128E+01  0.16460843128E+01  0.00000000000E+00 0. -1.
         13   -1    0    0    0    0 -0.00000000000E+00 -0.00000000000E+00 -0.10000000000E+04  0.10000000000E+04  0.00000000000E+00 0.  1.
    9000005    2    1    2  501    0 -0.33963895358E+02 -0.53496516008E+01 -0.76425661133E+03  0.76503730834E+03  0.34278608372E+01 0.  0.
         13    1    3    3    0    0 -0.29453595698E+01  0.39866832880E+00 -0.75995504590E+02  0.76053604763E+02  0.00000000000E+00 0.  1.
          3    1    3    3  501    0 -0.31018535788E+02 -0.57483199296E+01 -0.68826110674E+03  0.68898370358E+03  0.00000000000E+00 0.  1.
         -1    1    1    2    0  502  0.33963895358E+02  0.53496516008E+01 -0.23409730436E+03  0.23660877597E+03  0.00000000000E+00 0. -1.
<mgrwt>
<rscale>  1 0.30000000E+03</rscale>
<asrwt>0</asrwt>
<pdfrwt beam="1">  1       21 0.59857738E-02 0.30000000E+03</pdfrwt>
<pdfrwt beam="2">0</pdfrwt>
<totfact> 0.21158106E+04</totfact>
</mgrwt>
</event>
<event>
 6    1  0.1284012E-001  0.3000000E+03  0.7818608E-02  0.1093470E+00
         21   -1    0    0  501  502  0.00000000000E+00  0.00000000000E+00  0.47856624790E+01  0.47856624790E+01  0.00000000000E+00 0. -1.
         13   -1    0    0    0    0 -0.00000000000E+00 -0.00000000000E+00 -0.10000000000E+04  0.10000000000E+04  0.00000000000E+00 0.  1.
    9000005    2    1    2  501    0  0.44990035002E+02  0.15549659986E+02 -0.86204933694E+03  0.86336850456E+03  0.31968994437E+01 0.  0.
         13    1    3    3    0    0  0.25453828260E+01  0.95317413353E+00 -0.64393356530E+02  0.64450693401E+02  0.00000000000E+00 0.  1.
          1    1    3    3  501    0  0.42444652176E+02  0.14596485853E+02 -0.79765598041E+03  0.79891781116E+03  0.00000000000E+00 0.  1.
         -3    1    1    2    0  502 -0.44990035002E+02 -0.15549659986E+02 -0.13316500058E+03  0.14141715792E+03  0.00000000000E+00 0. -1.
<mgrwt>
<rscale>  1 0.30000000E+03</rscale>
<asrwt>0</asrwt>
<pdfrwt beam="1">  1       21 0.17402446E-01 0.30000000E+03</pdfrwt>
<pdfrwt beam="2">0</pdfrwt>
<totfact> 0.31215350E+03</totfact>
</mgrwt>
</event>
<event>
 6    1  0.1284012E-001  0.3000000E+03  0.7818608E-02  0.1093470E+00
         21   -1    0    0  501  502  0.00000000000E+00  0.00000000000E+00  0.16187381937E+01  0.16187381937E+01  0.00000000000E+00 0. -1.
         13   -1    0    0    0    0 -0.00000000000E+00 -0.00000000000E+00 -0.10000000000E+04  0.10000000000E+04  0.00000000000E+00 0.  1.
    9000005    2    1    2  501    0 -0.18623464798E+02 -0.25366560543E+02 -0.81080333569E+03  0.81141943693E+03  0.30261573199E+01 0.  0.
         13    1    3    3    0    0 -0.12045409754E+02 -0.16527583572E+02 -0.48879222303E+03  0.48921987920E+03  0.00000000000E+00 0.  1.
          1    1    3    3  501    0 -0.65780550442E+01 -0.88389769705E+01 -0.32201111266E+03  0.32219955773E+03  0.00000000000E+00 0.  1.
         -1    1    1    2    0  502  0.18623464798E+02  0.25366560543E+02 -0.18757792612E+03  0.19019930127E+03  0.00000000000E+00 0. -1.
<mgrwt>
<rscale>  1 0.30000000E+03</rscale>
<asrwt>0</asrwt>
<pdfrwt beam="1">  1       21 0.58863331E-02 0.30000000E+03</pdfrwt>
<pdfrwt beam="2">0</pdfrwt>
<totfact> 0.21778061E+04</totfact>
</mgrwt>
</event>
<event>
 6    1  0.1284012E-001  0.3000000E+03  0.7818608E-02  0.1093470E+00
         21   -1    0    0  501  502  0.00000000000E+00  0.00000000000E+00  0.27071732612E+01  0.27071732612E+01  0.00000000000E+00 0. -1.
         13   -1    0    0    0    0 -0.00000000000E+00 -0.00000000000E+00 -0.10000000000E+04  0.10000000000E+04  0.00000000000E+00 0.  1.
    9000005    2    1    2  501    0  0.16594185475E+02 -0.28618147559E+02 -0.88544763781E+03  0.88607222289E+03  0.34784357348E+01 0.  0.
         13    1    3    3    0    0  0.12771039086E+02 -0.20249777380E+02 -0.67225852856E+03  0.67268468256E+03  0.00000000000E+00 0.  1.
          1    1    3    3  501    0  0.38231463883E+01 -0.83683701790E+01 -0.21318910924E+03  0.21338754033E+03  0.00000000000E+00 0.  1.
         -1    1    1    2    0  502 -0.16594185475E+02  0.28618147559E+02 -0.11184518893E+03  0.11663495037E+03  0.00000000000E+00 0. -1.
<mgrwt>
<rscale>  1 0.30000000E+03</rscale>
<asrwt>0</asrwt>
<pdfrwt beam="1">  1       21 0.98442872E-02 0.30000000E+03</pdfrwt>
<pdfrwt beam="2">0</pdfrwt>
<totfact> 0.88477515E+03</totfact>
</mgrwt>
</event>
<event>
 6    1  0.1284012E-001  0.3000000E+03  0.7818608E-02  0.1093470E+00
         21   -1    0    0  501  502  0.00000000000E+00  0.00000000000E+00  0.13714087000E+01  0.13714087000E+01  0.00000000000E+00 0. -1.
         13   -1    0    0    0    0 -0.00000000000E+00 -0.00000000000E+00 -0.10000000000E+04  0.10000000000E+04  0.00000000000E+00 0.  1.
    9000005    2    1    2  501    0 -0.30773363163E+02  0.29060266980E+01 -0.77418770777E+03  0.77481202339E+03  0.34087913778E+01 0.  0.
         13    1    3    3    0    0 -0.13732981886E+02 -0.28132344943E+00 -0.32662000323E+03  0.32690870353E+03  0.00000000000E+00 0.  1.
          1    1    3    3  501    0 -0.17040381277E+02  0.31873501475E+01 -0.44756770454E+03  0.44790331986E+03  0.00000000000E+00 0.  1.
         -1    1    1    2    0  502  0.30773363163E+02 -0.29060266980E+01 -0.22444088353E+03  0.22655938531E+03  0.00000000000E+00 0. -1.
<mgrwt>
<rscale>  1 0.30000000E+03</rscale>
<asrwt>0</asrwt>
<pdfrwt beam="1">  1       21 0.49869512E-02 0.30000000E+03</pdfrwt>
<pdfrwt beam="2">0</pdfrwt>
<totfact> 0.28933250E+04</totfact>
</mgrwt>
</event>
<event>
 6    1  0.1284012E-001  0.3000000E+03  0.7818608E-02  0.1093470E+00
         21   -1    0    0  501  502  0.00000000000E+00  0.00000000000E+00  0.15577506327E+01  0.15577506327E+01  0.00000000000E+00 0. -1.
         13   -1    0    0    0    0 -0.00000000000E+00 -0.00000000000E+00 -0.10000000000E+04  0.10000000000E+04  0.00000000000E+00 0.  1.
    9000005    2    1    2  501    0  0.97649608340E+00  0.38402048303E+02 -0.60661329996E+03  0.60785024949E+03  0.51535681247E+01 0.  0.
         13    1    3    3    0    0 -0.13580323549E+01  0.17020439287E+02 -0.29745643567E+03  0.29794608695E+03  0.00000000000E+00 0.  1.
          3    1    3    3  501    0  0.23345284383E+01  0.21381609016E+02 -0.30915686429E+03  0.30990416254E+03  0.00000000000E+00 0.  1.
         -3    1    1    2    0  502 -0.97649608340E+00 -0.38402048303E+02 -0.39182894941E+03  0.39370750114E+03  0.00000000000E+00 0. -1.
<mgrwt>
<rscale>  1 0.30000000E+03</rscale>
<asrwt>0</asrwt>
<pdfrwt beam="1">  1       21 0.56645597E-02 0.30000000E+03</pdfrwt>
<pdfrwt beam="2">0</pdfrwt>
<totfact> 0.23266388E+04</totfact>
</mgrwt>
</event>
<event>
 6    1  0.1284012E-001  0.3000000E+03  0.7818608E-02  0.1093470E+00
         21   -1    0    0  501  502  0.00000000000E+00  0.00000000000E+00  0.16172134125E+01  0.16172134125E+01  0.00000000000E+00 0. -1.
         13   -1    0    0    0    0 -0.00000000000E+00 -0.00000000000E+00 -0.10000000000E+04  0.10000000000E+04  0.00000000000E+00 0.  1.
    9000005    2    1    2  501    0 -0.26029347191E+02  0.28371140530E+02 -0.64037093486E+03  0.64154092357E+03  0.41681974533E+01 0.  0.
         13    1    3    3    0    0 -0.23918887853E+02  0.27470405418E+02 -0.60547397504E+03  0.60656860356E+03  0.00000000000E+00 0.  1.
          3    1    3    3  501    0 -0.21104593374E+01  0.90073511149E+00 -0.34896959818E+02  0.34972320011E+02  0.00000000000E+00 0.  1.
         -1    1    1    2    0  502  0.26029347191E+02 -0.28371140530E+02 -0.35801185173E+03  0.36007628984E+03  0.00000000000E+00 0. -1.
<mgrwt>
<rscale>  1 0.30000000E+03</rscale>
<asrwt>0</asrwt>
<pdfrwt beam="1">  1       21 0.58807884E-02 0.30000000E+03</pdfrwt>
<pdfrwt beam="2">0</pdfrwt>
<totfact> 0.21813460E+04</totfact>
</mgrwt>
</event>
<event>
 6    1  0.1284012E-001  0.3000000E+03  0.7818608E-02  0.1093470E+00
         21   -1    0    0  501  502  0.00000000000E+00  0.00000000000E+00  0.37165784837E+01  0.37165784837E+01  0.00000000000E+00 0. -1.
         13   -1    0    0    0    0 -0.00000000000E+00 -0.00000000000E+00 -0.10000000000E+04  0.10000000000E+04  0.00000000000E+00 0.  1.
    9000005    2    1    2  501    0 -0.59908752669E+02 -0.68257869837E+01 -0.57050273357E+03  0.57368769080E+03  0.29236194437E+01 0.  0.
         13    1    3    3    0    0 -0.75781896257E+01  0.73926392583E-01 -0.74153928933E+02  0.74540187814E+02  0.00000000000E+00 0.  1.
          1    1    3    3  501    0 -0.52330563043E+02 -0.68997133763E+01 -0.49634880463E+03  0.49914750298E+03  0.00000000000E+00 0.  1.
         -1    1    1    2    0  502  0.59908752669E+02  0.68257869837E+01 -0.42578068795E+03  0.43002888769E+03  0.00000000000E+00 0. -1.
<mgrwt>
<rscale>  1 0.30000000E+03</rscale>
<asrwt>0</asrwt>
<pdfrwt beam="1">  1       21 0.13514859E-01 0.30000000E+03</pdfrwt>
<pdfrwt beam="2">0</pdfrwt>
<totfact> 0.49892386E+03</totfact>
</mgrwt>
</event>
<event>
 6    1  0.1284012E-001  0.3000000E+03  0.7818608E-02  0.1093470E+00
         21   -1    0    0  501  502  0.00000000000E+00  0.00000000000E+00  0.16050400797E+01  0.16050400797E+01  0.00000000000E+00 0. -1.
         13   -1    0    0    0    0 -0.00000000000E+00 -0.00000000000E+00 -0.10000000000E+04  0.10000000000E+04  0.00000000000E+00 0.  1.
    9000005    2    1    2  501    0 -0.28244973425E+02 -0.17832265596E+02 -0.77486302946E+03  0.77559111981E+03  0.36197355297E+01 0.  0.
         13    1    3    3    0    0 -0.12212779731E+01 -0.12614846968E-01 -0.31354558096E+02  0.31378336355E+02  0.00000000000E+00 0.  1.
          1    1    3    3  501    0 -0.27023695452E+02 -0.17819650749E+02 -0.74350847136E+03  0.74421278345E+03  0.00000000000E+00 0.  1.
         -1    1    1    2    0  502  0.28244973425E+02  0.17832265596E+02 -0.22353193046E+03  0.22601392027E+03  0.00000000000E+00 0. -1.
<mgrwt>
<rscale>  1 0.30000000E+03</rscale>
<asrwt>0</asrwt>
<pdfrwt beam="1">  1       21 0.58365217E-02 0.30000000E+03</pdfrwt>
<pdfrwt beam="2">0</pdfrwt>
<totfact> 0.22099318E+04</totfact>
</mgrwt>
</event>
<event>
 6    1  0.1284012E-001  0.3000000E+03  0.7818608E-02  0.1093470E+00
         21   -1    0    0  501  502  0.00000000000E+00  0.00000000000E+00  0.22726005607E+01  0.22726005607E+01  0.00000000000E+00 0. -1.
         13   -1    0    0    0    0 -0.00000000000E+00 -0.00000000000E+00 -0.10000000000E+04  0.10000000000E+04  0.00000000000E+00 0.  1.
    9000005    2    1    2  501    0 -0.12964294726E+02 -0.32325585922E+02 -0.84071175466E+03  0.84144061012E+03  0.36096393817E+01 0.  0.
         13    1    3    3    0    0 -0.79954073927E+01 -0.18914254979E+02 -0.53648559805E+03  0.53687845226E+03  0.00000000000E+00 0.  1.
          1    1    3    3  501    0 -0.49688873335E+01 -0.13411330942E+02 -0.30422615661E+03  0.30456215786E+03  0.00000000000E+00 0.  1.
         -3    1    1    2    0  502  0.12964294726E+02  0.32325585922E+02 -0.15701564478E+03  0.16083199044E+03  0.00000000000E+00 0. -1.
<mgrwt>
<rscale>  1 0.30000000E+03</rscale>
<asrwt>0</asrwt>
<pdfrwt beam="1">  1       21 0.82640195E-02 0.30000000E+03</pdfrwt>
<pdfrwt beam="2">0</pdfrwt>
<totfact> 0.12065075E+04</totfact>
</mgrwt>
</event>
<event>
 6    1  0.1284012E-001  0.3000000E+03  0.7818608E-02  0.1093470E+00
         21   -1    0    0  501  502  0.00000000000E+00  0.00000000000E+00  0.11504493214E+01  0.11504493214E+01  0.00000000000E+00 0. -1.
         13   -1    0    0    0    0 -0.00000000000E+00 -0.00000000000E+00 -0.10000000000E+04  0.10000000000E+04  0.00000000000E+00 0.  1.
    9000005    2    1    2  501    0  0.31911235614E+02 -0.71634982373E+01 -0.62590363235E+03  0.62677323225E+03  0.44367790909E+01 0.  0.
         13    1    3    3    0    0  0.60976979848E+00 -0.41411101513E+00 -0.63434122478E+01  0.63860931786E+01  0.00000000000E+00 0.  1.
          1    1    3    3  501    0  0.31301465815E+02 -0.67493872222E+01 -0.61956022010E+03  0.62038713907E+03  0.00000000000E+00 0.  1.
         -1    1    1    2    0  502 -0.31911235614E+02  0.71634982373E+01 -0.37294591833E+03  0.37437721707E+03  0.00000000000E+00 0. -1.
<mgrwt>
<rscale>  1 0.30000000E+03</rscale>
<asrwt>0</asrwt>
<pdfrwt beam="1">  1       21 0.41834609E-02 0.30000000E+03</pdfrwt>
<pdfrwt beam="2">0</pdfrwt>
<totfact> 0.38985314E+04</totfact>
</mgrwt>
</event>
<event>
 6    1  0.1284012E-001  0.3000000E+03  0.7818608E-02  0.1093470E+00
         21   -1    0    0  501  502  0.00000000000E+00  0.00000000000E+00  0.10727830178E+01  0.10727830178E+01  0.00000000000E+00 0. -1.
         13   -1    0    0    0    0 -0.00000000000E+00 -0.00000000000E+00 -0.10000000000E+04  0.10000000000E+04  0.00000000000E+00 0.  1.
    9000005    2    1    2  501    0 -0.28696255443E+02  0.11172642910E+02 -0.33510451189E+03  0.33653618747E+03  0.36426037130E+01 0.  0.
         13    1    3    3    0    0 -0.91321699076E+01  0.17696544881E+01 -0.10158135700E+03  0.10200637379E+03  0.00000000000E+00 0.  1.
          3    1    3    3  501    0 -0.19564085536E+02  0.94029884218E+01 -0.23352315489E+03  0.23452981368E+03  0.00000000000E+00 0.  1.
         -1    1    1    2    0  502  0.28696255443E+02 -0.11172642910E+02 -0.66382270510E+03  0.66453659555E+03  0.00000000000E+00 0. -1.
<mgrwt>
<rscale>  1 0.30000000E+03</rscale>
<asrwt>0</asrwt>
<pdfrwt beam="1">  1       21 0.39010374E-02 0.30000000E+03</pdfrwt>
<pdfrwt beam="2">0</pdfrwt>
<totfact> 0.43858044E+04</totfact>
</mgrwt>
</event>
<event>
 6    1  0.1284012E-001  0.3000000E+03  0.7818608E-02  0.1093470E+00
         21   -1    0    0  501  502  0.00000000000E+00  0.00000000000E+00  0.11979247950E+02  0.11979247950E+02  0.00000000000E+00 0. -1.
         13   -1    0    0    0    0 -0.00000000000E+00 -0.00000000000E+00 -0.10000000000E+04  0.10000000000E+04  0.00000000000E+00 0.  1.
    9000005    2    1    2  501    0  0.35201631800E+02 -0.14662714747E+02 -0.96828627688E+03  0.96904208927E+03  0.31791034290E+01 0.  0.
         13    1    3    3    0    0  0.35428296279E-01 -0.17322306219E-01 -0.85555617983E+01  0.85556526876E+01  0.00000000000E+00 0.  1.
          1    1    3    3  501    0  0.35166203504E+02 -0.14645392441E+02 -0.95973071508E+03  0.96048643658E+03  0.00000000000E+00 0.  1.
         -1    1    1    2    0  502 -0.35201631800E+02  0.14662714747E+02 -0.19734475169E+02  0.42937158678E+02  0.00000000000E+00 0. -1.
<mgrwt>
<rscale>  1 0.30000000E+03</rscale>
<asrwt>0</asrwt>
<pdfrwt beam="1">  1       21 0.43560993E-01 0.30000000E+03</pdfrwt>
<pdfrwt beam="2">0</pdfrwt>
<totfact> 0.50475587E+02</totfact>
</mgrwt>
</event>
<event>
 6    1  0.1284012E-001  0.3000000E+03  0.7818608E-02  0.1093470E+00
         21   -1    0    0  501  502  0.00000000000E+00  0.00000000000E+00  0.39841996842E+01  0.39841996842E+01  0.00000000000E+00 0. -1.
         13   -1    0    0    0    0 -0.00000000000E+00 -0.00000000000E+00 -0.10000000000E+04  0.10000000000E+04  0.00000000000E+00 0.  1.
    9000005    2    1    2  501    0 -0.27245937860E+02 -0.26610906652E+02 -0.89820441620E+03  0.89901968975E+03  0.38402861558E+01 0.  0.
         13    1    3    3    0    0 -0.16256983356E+02 -0.14608918931E+02 -0.55354643677E+03  0.55397776822E+03  0.00000000000E+00 0.  1.
          1    1    3    3  501    0 -0.10988954504E+02 -0.12001987721E+02 -0.34465797943E+03  0.34504192153E+03  0.00000000000E+00 0.  1.
         -3    1    1    2    0  502  0.27245937860E+02  0.26610906652E+02 -0.97811384118E+02  0.10496450993E+03  0.00000000000E+00 0. -1.
<mgrwt>
<rscale>  1 0.30000000E+03</rscale>
<asrwt>0</asrwt>
<pdfrwt beam="1">  1       21 0.14488029E-01 0.30000000E+03</pdfrwt>
<pdfrwt beam="2">0</pdfrwt>
<totfact> 0.43908583E+03</totfact>
</mgrwt>
</event>
<event>
 6    1  0.1284012E-001  0.3000000E+03  0.7818608E-02  0.1093470E+00
         21   -1    0    0  501  502  0.00000000000E+00  0.00000000000E+00  0.21968214220E+01  0.21968214220E+01  0.00000000000E+00 0. -1.
         13   -1    0    0    0    0 -0.00000000000E+00 -0.00000000000E+00 -0.10000000000E+04  0.10000000000E+04  0.00000000000E+00 0.  1.
    9000005    2    1    2  501    0  0.10267249116E+02 -0.44108385870E+02 -0.62569207645E+03  0.62733999750E+03  0.37325369166E+01 0.  0.
         13    1    3    3    0    0  0.28254406156E+01 -0.65448221391E+01 -0.10495174893E+03  0.10519357117E+03  0.00000000000E+00 0.  1.
          1    1    3    3  501    0  0.74418085001E+01 -0.37563563731E+02 -0.52074032752E+03  0.52214642634E+03  0.00000000000E+00 0.  1.
         -3    1    1    2    0  502 -0.10267249116E+02  0.44108385870E+02 -0.37211110213E+03  0.37485682392E+03  0.00000000000E+00 0. -1.
<mgrwt>
<rscale>  1 0.30000000E+03</rscale>
<asrwt>0</asrwt>
<pdfrwt beam="1">  1       21 0.79884584E-02 0.30000000E+03</pdfrwt>
<pdfrwt beam="2">0</pdfrwt>
<totfact> 0.12806301E+04</totfact>
</mgrwt>
</event>
<event>
 6    1  0.1284012E-001  0.3000000E+03  0.7818608E-02  0.1093470E+00
         21   -1    0    0  501  502  0.00000000000E+00  0.00000000000E+00  0.15530962737E+01  0.15530962737E+01  0.00000000000E+00 0. -1.
         13   -1    0    0    0    0 -0.00000000000E+00 -0.00000000000E+00 -0.10000000000E+04  0.10000000000E+04  0.00000000000E+00 0.  1.
    9000005    2    1    2  501    0 -0.31700194438E+01 -0.35712541786E+02 -0.70586576336E+03  0.70678342626E+03  0.33016787953E+01 0.  0.
         13    1    3    3    0    0 -0.25568391198E+01 -0.13345829248E+02 -0.25055082163E+03  0.25091903635E+03  0.00000000000E+00 0.  1.
          3    1    3    3  501    0 -0.61318032400E+00 -0.22366712538E+02 -0.45531494173E+03  0.45586438991E+03  0.00000000000E+00 0.  1.
         -1    1    1    2    0  502  0.31700194438E+01  0.35712541786E+02 -0.29258114036E+03  0.29476967002E+03  0.00000000000E+00 0. -1.
<mgrwt>
<rscale>  1 0.30000000E+03</rscale>
<asrwt>0</asrwt>
<pdfrwt beam="1">  1       21 0.56476347E-02 0.30000000E+03</pdfrwt>
<pdfrwt beam="2">0</pdfrwt>
<totfact> 0.23386334E+04</totfact>
</mgrwt>
</event>
<event>
 6    1  0.1284012E-001  0.3000000E+03  0.7818608E-02  0.1093470E+00
         21   -1    0    0  501  502  0.00000000000E+00  0.00000000000E+00  0.13014668983E+01  0.13014668983E+01  0.00000000000E+00 0. -1.
         13   -1    0    0    0    0 -0.00000000000E+00 -0.00000000000E+00 -0.10000000000E+04  0.10000000000E+04  0.00000000000E+00 0.  1.
    9000005    2    1    2  501    0 -0.84715146993E+00  0.34384763111E+02 -0.35267207042E+03  0.35436003208E+03  0.32269926484E+01 0.  0.
         13    1    3    3    0    0 -0.87305125836E+00  0.62987427544E+01 -0.55219678062E+02  0.55584613195E+02  0.00000000000E+00 0.  1.
          1    1    3    3  501    0  0.25899788425E-01  0.28086020357E+02 -0.29745239236E+03  0.29877541888E+03  0.00000000000E+00 0.  1.
         -3    1    1    2    0  502  0.84715146993E+00 -0.34384763111E+02 -0.64602646268E+03  0.64694143482E+03  0.00000000000E+00 0. -1.
<mgrwt>
<rscale>  1 0.30000000E+03</rscale>
<asrwt>0</asrwt>
<pdfrwt beam="1">  1       21 0.47326169E-02 0.30000000E+03</pdfrwt>
<pdfrwt beam="2">0</pdfrwt>
<totfact> 0.31630169E+04</totfact>
</mgrwt>
</event>
<event>
 6    1  0.1284012E-001  0.3000000E+03  0.7818608E-02  0.1093470E+00
         21   -1    0    0  501  502  0.00000000000E+00  0.00000000000E+00  0.41474034448E+01  0.41474034448E+01  0.00000000000E+00 0. -1.
         13   -1    0    0    0    0 -0.00000000000E+00 -0.00000000000E+00 -0.10000000000E+04  0.10000000000E+04  0.00000000000E+00 0.  1.
    9000005    2    1    2  501    0 -0.17117441718E+02  0.27584412793E+02 -0.93149174264E+03  0.93206254958E+03  0.31341795057E+01 0.  0.
         13    1    3    3    0    0 -0.10127518789E+02  0.17937154962E+02 -0.62501189310E+03  0.62535124105E+03  0.00000000000E+00 0.  1.
          1    1    3    3  501    0 -0.69899229292E+01  0.96472578306E+01 -0.30647984954E+03  0.30671130853E+03  0.00000000000E+00 0.  1.
         -1    1    1    2    0  502  0.17117441718E+02 -0.27584412793E+02 -0.64360853912E+02  0.72084853862E+02  0.00000000000E+00 0. -1.
<mgrwt>
<rscale>  1 0.30000000E+03</rscale>
<asrwt>0</asrwt>
<pdfrwt beam="1">  1       21 0.15081499E-01 0.30000000E+03</pdfrwt>
<pdfrwt beam="2">0</pdfrwt>
<totfact> 0.40769287E+03</totfact>
</mgrwt>
</event>
<event>
 6    1  0.1284012E-001  0.3000000E+03  0.7818608E-02  0.1093470E+00
         21   -1    0    0  501  502  0.00000000000E+00  0.00000000000E+00  0.21699199724E+01  0.21699199724E+01  0.00000000000E+00 0. -1.
         13   -1    0    0    0    0 -0.00000000000E+00 -0.00000000000E+00 -0.10000000000E+04  0.10000000000E+04  0.00000000000E+00 0.  1.
    9000005    2    1    2  501    0  0.14214334524E+02  0.29147417379E+02 -0.85833278345E+03  0.85895289934E+03  0.36464910393E+01 0.  0.
         13    1    3    3    0    0  0.13854600930E+02  0.26045572635E+02 -0.78198427868E+03  0.78254056376E+03  0.00000000000E+00 0.  1.
          1    1    3    3  501    0  0.35973359441E+00  0.31018447444E+01 -0.76348504763E+02  0.76412335578E+02  0.00000000000E+00 0.  1.
         -3    1    1    2    0  502 -0.14214334524E+02 -0.29147417379E+02 -0.13949729658E+03  0.14321702063E+03  0.00000000000E+00 0. -1.
<mgrwt>
<rscale>  1 0.30000000E+03</rscale>
<asrwt>0</asrwt>
<pdfrwt beam="1">  1       21 0.78906347E-02 0.30000000E+03</pdfrwt>
<pdfrwt beam="2">0</pdfrwt>
<totfact> 0.13086353E+04</totfact>
</mgrwt>
</event>
<event>
 6    1  0.1284012E-001  0.3000000E+03  0.7818608E-02  0.1093470E+00
         21   -1    0    0  501  502  0.00000000000E+00  0.00000000000E+00  0.26356431010E+01  0.26356431010E+01  0.00000000000E+00 0. -1.
         13   -1    0    0    0    0 -0.00000000000E+00 -0.00000000000E+00 -0.10000000000E+04  0.10000000000E+04  0.00000000000E+00 0.  1.
    9000005    2    1    2  501    0 -0.33003956668E+02 -0.93271286769E+01 -0.87154513177E+03  0.87222577423E+03  0.32600684268E+01 0.  0.
         13    1    3    3    0    0 -0.15585226574E+02 -0.27165905082E+01 -0.40097522500E+03  0.40128719169E+03  0.00000000000E+00 0.  1.
          1    1    3    3  501    0 -0.17418730094E+02 -0.66105381687E+01 -0.47056990677E+03  0.47093858254E+03  0.00000000000E+00 0.  1.
         -1    1    1    2    0  502  0.33003956668E+02  0.93271286769E+01 -0.12581922513E+03  0.13040986887E+03  0.00000000000E+00 0. -1.
<mgrwt>
<rscale>  1 0.30000000E+03</rscale>
<asrwt>0</asrwt>
<pdfrwt beam="1">  1       21 0.95841769E-02 0.30000000E+03</pdfrwt>
<pdfrwt beam="2">0</pdfrwt>
<totfact> 0.92806643E+03</totfact>
</mgrwt>
</event>
<event>
 6    1  0.1284012E-001  0.3000000E+03  0.7818608E-02  0.1093470E+00
         21   -1    0    0  501  502  0.00000000000E+00  0.00000000000E+00  0.24425552389E+01  0.24425552389E+01  0.00000000000E+00 0. -1.
         13   -1    0    0    0    0 -0.00000000000E+00 -0.00000000000E+00 -0.10000000000E+04  0.10000000000E+04  0.00000000000E+00 0.  1.
    9000005    2    1    2  501    0 -0.21653418527E+02 -0.34502386709E+02 -0.78178694506E+03  0.78286069405E+03  0.45556116425E+01 0.  0.
         13    1    3    3    0    0 -0.17929138667E+02 -0.26774258939E+02 -0.64583532683E+03  0.64663868144E+03  0.00000000000E+00 0.  1.
          3    1    3    3  501    0 -0.37242798600E+01 -0.77281277704E+01 -0.13595161824E+03  0.13622201261E+03  0.00000000000E+00 0.  1.
         -1    1    1    2    0  502  0.21653418527E+02  0.34502386709E+02 -0.21577049970E+03  0.21958186119E+03  0.00000000000E+00 0. -1.
<mgrwt>
<rscale>  1 0.30000000E+03</rscale>
<asrwt>0</asrwt>
<pdfrwt beam="1">  1       21 0.88820378E-02 0.30000000E+03</pdfrwt>
<pdfrwt beam="2">0</pdfrwt>
<totfact> 0.10623382E+04</totfact>
</mgrwt>
</event>
<event>
 6    1  0.1284012E-001  0.3000000E+03  0.7818608E-02  0.1093470E+00
         21   -1    0    0  501  502  0.00000000000E+00  0.00000000000E+00  0.16143802574E+01  0.16143802574E+01  0.00000000000E+00 0. -1.
         13   -1    0    0    0    0 -0.00000000000E+00 -0.00000000000E+00 -0.10000000000E+04  0.10000000000E+04  0.00000000000E+00 0.  1.
    9000005    2    1    2  501    0  0.30242537877E+02 -0.25941772570E+02 -0.44561422917E+03  0.44740882552E+03  0.38767585679E+01 0.  0.
         13    1    3    3    0    0  0.56543746515E+01 -0.59590091911E+01 -0.77818830092E+02  0.78251211237E+02  0.00000000000E+00 0.  1.
          1    1    3    3  501    0  0.24588163226E+02 -0.19982763379E+02 -0.36779539907E+03  0.36915761428E+03  0.00000000000E+00 0.  1.
         -3    1    1    2    0  502 -0.30242537877E+02  0.25941772570E+02 -0.55277139058E+03  0.55420555474E+03  0.00000000000E+00 0. -1.
<mgrwt>
<rscale>  1 0.30000000E+03</rscale>
<asrwt>0</asrwt>
<pdfrwt beam="1">  1       21 0.58704860E-02 0.30000000E+03</pdfrwt>
<pdfrwt beam="2">0</pdfrwt>
<totfact> 0.21879472E+04</totfact>
</mgrwt>
</event>
<event>
 6    1  0.1284012E-001  0.3000000E+03  0.7818608E-02  0.1093470E+00
         21   -1    0    0  501  502  0.00000000000E+00  0.00000000000E+00  0.28702638489E+01  0.28702638489E+01  0.00000000000E+00 0. -1.
         13   -1    0    0    0    0 -0.00000000000E+00 -0.00000000000E+00 -0.10000000000E+04  0.10000000000E+04  0.00000000000E+00 0.  1.
    9000005    2    1    2  501    0 -0.37166079313E+02  0.65174400375E+01 -0.85406423806E+03  0.85491239410E+03  0.50679758512E+01 0.  0.
         13    1    3    3    0    0 -0.16993393047E+02  0.46320466845E+00 -0.39156832516E+03  0.39193716746E+03  0.00000000000E+00 0.  1.
          1    1    3    3  501    0 -0.20172686266E+02  0.60542353690E+01 -0.46249591290E+03  0.46297522664E+03  0.00000000000E+00 0.  1.
         -3    1    1    2    0  502  0.37166079313E+02 -0.65174400375E+01 -0.14306549810E+03  0.14795786975E+03  0.00000000000E+00 0. -1.
<mgrwt>
<rscale>  1 0.30000000E+03</rscale>
<asrwt>0</asrwt>
<pdfrwt beam="1">  1       21 0.10437345E-01 0.30000000E+03</pdfrwt>
<pdfrwt beam="2">0</pdfrwt>
<totfact> 0.79688879E+03</totfact>
</mgrwt>
</event>
<event>
 6    1  0.1284012E-001  0.3000000E+03  0.7818608E-02  0.1093470E+00
         21   -1    0    0  501  502  0.00000000000E+00  0.00000000000E+00  0.44863092419E+01  0.44863092419E+01  0.00000000000E+00 0. -1.
         13   -1    0    0    0    0 -0.00000000000E+00 -0.00000000000E+00 -0.10000000000E+04  0.10000000000E+04  0.00000000000E+00 0.  1.
    9000005    2    1    2  501    0  0.17111831311E+01  0.45868456924E+02 -0.86303223043E+03  0.86427867457E+03  0.67936054934E+01 0.  0.
         13    1    3    3    0    0 -0.38052996053E-01  0.15246758782E+02 -0.23096735165E+03  0.23147004694E+03  0.00000000000E+00 0.  1.
          1    1    3    3  501    0  0.17492361271E+01  0.30621698141E+02 -0.63206487878E+03  0.63280862763E+03  0.00000000000E+00 0.  1.
         -3    1    1    2    0  502 -0.17111831311E+01 -0.45868456924E+02 -0.13248146033E+03  0.14020763467E+03  0.00000000000E+00 0. -1.
<mgrwt>
<rscale>  1 0.30000000E+03</rscale>
<asrwt>0</asrwt>
<pdfrwt beam="1">  1       21 0.16313886E-01 0.30000000E+03</pdfrwt>
<pdfrwt beam="2">0</pdfrwt>
<totfact> 0.35226695E+03</totfact>
</mgrwt>
</event>
<event>
 6    1  0.1284012E-001  0.3000000E+03  0.7818608E-02  0.1093470E+00
         21   -1    0    0  501  502  0.00000000000E+00  0.00000000000E+00  0.23938732903E+01  0.23938732903E+01  0.00000000000E+00 0. -1.
         13   -1    0    0    0    0 -0.00000000000E+00 -0.00000000000E+00 -0.10000000000E+04  0.10000000000E+04  0.00000000000E+00 0.  1.
    9000005    2    1    2  501    0 -0.43753430040E+02 -0.21344167825E+02 -0.48074630853E+03  0.48324648787E+03  0.63418240818E+01 0.  0.
         13    1    3    3    0    0 -0.29281339758E+02 -0.11394881357E+02 -0.32363662682E+03  0.32515827900E+03  0.00000000000E+00 0.  1.
          1    1    3    3  501    0 -0.14472090282E+02 -0.99492864684E+01 -0.15710968170E+03  0.15808820887E+03  0.00000000000E+00 0.  1.
         -3    1    1    2    0  502  0.43753430040E+02  0.21344167825E+02 -0.51685981818E+03  0.51914738542E+03  0.00000000000E+00 0. -1.
<mgrwt>
<rscale>  1 0.30000000E+03</rscale>
<asrwt>0</asrwt>
<pdfrwt beam="1">  1       21 0.87050121E-02 0.30000000E+03</pdfrwt>
<pdfrwt beam="2">0</pdfrwt>
<totfact> 0.11008331E+04</totfact>
</mgrwt>
</event>
<event>
 6    1  0.1284012E-001  0.3000000E+03  0.7818608E-02  0.1093470E+00
         21   -1    0    0  501  502  0.00000000000E+00  0.00000000000E+00  0.26500700407E+01  0.26500700407E+01  0.00000000000E+00 0. -1.
         13   -1    0    0    0    0 -0.00000000000E+00 -0.00000000000E+00 -0.10000000000E+04  0.10000000000E+04  0.00000000000E+00 0.  1.
    9000005    2    1    2  501    0 -0.27615244477E+02  0.16883842600E+02 -0.88830302147E+03  0.88890081018E+03  0.38375137764E+01 0.  0.
         13    1    3    3    0    0 -0.27746922624E+02  0.16776019463E+02 -0.88369703196E+03  0.88429167746E+03  0.00000000000E+00 0.  1.
          3    1    3    3  501    0  0.13167814629E+00  0.10782313679E+00 -0.46059895147E+01  0.46091327137E+01  0.00000000000E+00 0.  1.
         -1    1    1    2    0  502  0.27615244477E+02 -0.16883842600E+02 -0.10904690849E+03  0.11374925986E+03  0.00000000000E+00 0. -1.
<mgrwt>
<rscale>  1 0.30000000E+03</rscale>
<asrwt>0</asrwt>
<pdfrwt beam="1">  1       21 0.96366387E-02 0.30000000E+03</pdfrwt>
<pdfrwt beam="2">0</pdfrwt>
<totfact> 0.91907757E+03</totfact>
</mgrwt>
</event>
<event>
 6    1  0.1284012E-001  0.3000000E+03  0.7818608E-02  0.1093470E+00
         21   -1    0    0  501  502  0.00000000000E+00  0.00000000000E+00  0.17107155182E+01  0.17107155182E+01  0.00000000000E+00 0. -1.
         13   -1    0    0    0    0 -0.00000000000E+00 -0.00000000000E+00 -0.10000000000E+04  0.10000000000E+04  0.00000000000E+00 0.  1.
    9000005    2    1    2  501    0  0.57623416220E+01 -0.34620343863E+02 -0.76344831723E+03  0.76426166269E+03  0.32837757656E+01 0.  0.
         13    1    3    3    0    0  0.43972754148E+01 -0.30397115478E+02 -0.64648519040E+03  0.64721435558E+03  0.00000000000E+00 0.  1.
          1    1    3    3  501    0  0.13650662072E+01 -0.42232283859E+01 -0.11696312683E+03  0.11704730711E+03  0.00000000000E+00 0.  1.
         -3    1    1    2    0  502 -0.57623416220E+01  0.34620343863E+02 -0.23484096725E+03  0.23744905283E+03  0.00000000000E+00 0. -1.
<mgrwt>
<rscale>  1 0.30000000E+03</rscale>
<asrwt>0</asrwt>
<pdfrwt beam="1">  1       21 0.62207968E-02 0.30000000E+03</pdfrwt>
<pdfrwt beam="2">0</pdfrwt>
<totfact> 0.19797501E+04</totfact>
</mgrwt>
</event>
<event>
 6    1  0.1284012E-001  0.3000000E+03  0.7818608E-02  0.1093470E+00
         21   -1    0    0  501  502  0.00000000000E+00  0.00000000000E+00  0.14314012356E+01  0.14314012356E+01  0.00000000000E+00 0. -1.
         13   -1    0    0    0    0 -0.00000000000E+00 -0.00000000000E+00 -0.10000000000E+04  0.10000000000E+04  0.00000000000E+00 0.  1.
    9000005    2    1    2  501    0 -0.30573897383E+02 -0.82548395200E+01 -0.77247216209E+03  0.77312786588E+03  0.32481113171E+01 0.  0.
         13    1    3    3    0    0 -0.16650096473E+02 -0.30482084603E+01 -0.39127192747E+03  0.39163789208E+03  0.00000000000E+00 0.  1.
          3    1    3    3  501    0 -0.13923800911E+02 -0.52066310596E+01 -0.38120023462E+03  0.38148997381E+03  0.00000000000E+00 0.  1.
         -3    1    1    2    0  502  0.30573897383E+02  0.82548395200E+01 -0.22609643667E+03  0.22830353535E+03  0.00000000000E+00 0. -1.
<mgrwt>
<rscale>  1 0.30000000E+03</rscale>
<asrwt>0</asrwt>
<pdfrwt beam="1">  1       21 0.52051064E-02 0.30000000E+03</pdfrwt>
<pdfrwt beam="2">0</pdfrwt>
<totfact> 0.26894748E+04</totfact>
</mgrwt>
</event>
<event>
 6    1  0.1284012E-001  0.3000000E+03  0.7818608E-02  0.1093470E+00
         21   -1    0    0  501  502  0.00000000000E+00  0.00000000000E+00  0.16376239341E+01  0.16376239341E+01  0.00000000000E+00 0. -1.
         13   -1    0    0    0    0 -0.00000000000E+00 -0.00000000000E+00 -0.10000000000E+04  0.10000000000E+04  0.00000000000E+00 0.  1.
    9000005    2    1    2  501    0  0.36061362871E+02  0.17469636378E+02 -0.56216156746E+03  0.56360023339E+03  0.37396603365E+01 0.  0.
         13    1    3    3    0    0  0.13451412236E+02  0.81951235121E+01 -0.20613957490E+03  0.20674047712E+03  0.00000000000E+00 0.  1.
          1    1    3    3  501    0  0.22609950635E+02  0.92745128662E+01 -0.35602199256E+03  0.35685975627E+03  0.00000000000E+00 0.  1.
         -3    1    1    2    0  502 -0.36061362871E+02 -0.17469636378E+02 -0.43620080860E+03  0.43803739054E+03  0.00000000000E+00 0. -1.
<mgrwt>
<rscale>  1 0.30000000E+03</rscale>
<asrwt>0</asrwt>
<pdfrwt beam="1">  1       21 0.59550087E-02 0.30000000E+03</pdfrwt>
<pdfrwt beam="2">0</pdfrwt>
<totfact> 0.21346940E+04</totfact>
</mgrwt>
</event>
<event>
 6    1  0.1284012E-001  0.3000000E+03  0.7818608E-02  0.1093470E+00
         21   -1    0    0  501  502  0.00000000000E+00  0.00000000000E+00  0.35155075088E+01  0.35155075088E+01  0.00000000000E+00 0. -1.
         13   -1    0    0    0    0 -0.00000000000E+00 -0.00000000000E+00 -0.10000000000E+04  0.10000000000E+04  0.00000000000E+00 0.  1.
    9000005    2    1    2  501    0 -0.40531884118E+01  0.50992374508E+02 -0.75161693455E+03  0.75336201158E+03  0.31070230193E+01 0.  0.
         13    1    3    3    0    0 -0.27249999479E+01  0.29818406315E+02 -0.46158917848E+03  0.46255932881E+03  0.00000000000E+00 0.  1.
          1    1    3    3  501    0 -0.13281884639E+01  0.21173968193E+02 -0.29002775608E+03  0.29080268277E+03  0.00000000000E+00 0.  1.
         -3    1    1    2    0  502  0.40531884118E+01 -0.50992374508E+02 -0.24486755794E+03  0.25015349593E+03  0.00000000000E+00 0. -1.
<mgrwt>
<rscale>  1 0.30000000E+03</rscale>
<asrwt>0</asrwt>
<pdfrwt beam="1">  1       21 0.12783691E-01 0.30000000E+03</pdfrwt>
<pdfrwt beam="2">0</pdfrwt>
<totfact> 0.55230952E+03</totfact>
</mgrwt>
</event>
<event>
 6    1  0.1284012E-001  0.3000000E+03  0.7818608E-02  0.1093470E+00
         21   -1    0    0  501  502  0.00000000000E+00  0.00000000000E+00  0.14404629556E+01  0.14404629556E+01  0.00000000000E+00 0. -1.
         13   -1    0    0    0    0 -0.00000000000E+00 -0.00000000000E+00 -0.10000000000E+04  0.10000000000E+04  0.00000000000E+00 0.  1.
    9000005    2    1    2  501    0 -0.29600074589E+02  0.21301690286E+02 -0.63067839637E+03  0.63175619214E+03  0.55425837184E+01 0.  0.
         13    1    3    3    0    0 -0.61528782312E+01  0.44287653130E+01 -0.96520192938E+02  0.96817454612E+02  0.00000000000E+00 0.  1.
          3    1    3    3  501    0 -0.23447196358E+02  0.16872924973E+02 -0.53415820343E+03  0.53493873753E+03  0.00000000000E+00 0.  1.
         -3    1    1    2    0  502  0.29600074589E+02 -0.21301690286E+02 -0.36788114067E+03  0.36968427082E+03  0.00000000000E+00 0. -1.
<mgrwt>
<rscale>  1 0.30000000E+03</rscale>
<asrwt>0</asrwt>
<pdfrwt beam="1">  1       21 0.52380582E-02 0.30000000E+03</pdfrwt>
<pdfrwt beam="2">0</pdfrwt>
<totfact> 0.26606288E+04</totfact>
</mgrwt>
</event>
<event>
 6    1  0.1284012E-001  0.3000000E+03  0.7818608E-02  0.1093470E+00
         21   -1    0    0  501  502  0.00000000000E+00  0.00000000000E+00  0.14247230941E+01  0.14247230941E+01  0.00000000000E+00 0. -1.
         13   -1    0    0    0    0 -0.00000000000E+00 -0.00000000000E+00 -0.10000000000E+04  0.10000000000E+04  0.00000000000E+00 0.  1.
    9000005    2    1    2  501    0 -0.32923807396E+02 -0.24410166991E+01 -0.74106514106E+03  0.74180691608E+03  0.31657214289E+01 0.  0.
         13    1    3    3    0    0 -0.15732986551E+02  0.28231593646E+00 -0.33754374300E+03  0.33791032095E+03  0.00000000000E+00 0.  1.
          1    1    3    3  501    0 -0.17190820845E+02 -0.27233326355E+01 -0.40352139806E+03  0.40389659512E+03  0.00000000000E+00 0.  1.
         -1    1    1    2    0  502  0.32923807396E+02  0.24410166991E+01 -0.25751013585E+03  0.25961780702E+03  0.00000000000E+00 0. -1.
<mgrwt>
<rscale>  1 0.30000000E+03</rscale>
<asrwt>0</asrwt>
<pdfrwt beam="1">  1       21 0.51808222E-02 0.30000000E+03</pdfrwt>
<pdfrwt beam="2">0</pdfrwt>
<totfact> 0.27110448E+04</totfact>
</mgrwt>
</event>
<event>
 6    1  0.1284012E-001  0.3000000E+03  0.7818608E-02  0.1093470E+00
         21   -1    0    0  501  502  0.00000000000E+00  0.00000000000E+00  0.39548228658E+01  0.39548228658E+01  0.00000000000E+00 0. -1.
         13   -1    0    0    0    0 -0.00000000000E+00 -0.00000000000E+00 -0.10000000000E+04  0.10000000000E+04  0.00000000000E+00 0.  1.
    9000005    2    1    2  501    0 -0.40083692726E+02 -0.34571198141E+02 -0.76867464504E+03  0.77050412352E+03  0.37448978196E+01 0.  0.
         13    1    3    3    0    0 -0.30715585038E+02 -0.28158586923E+02 -0.59104715677E+03  0.59251421477E+03  0.00000000000E+00 0.  1.
          3    1    3    3  501    0 -0.93681076888E+01 -0.64126112179E+01 -0.17762748828E+03  0.17798990875E+03  0.00000000000E+00 0.  1.
         -3    1    1    2    0  502  0.40083692726E+02  0.34571198141E+02 -0.22737053209E+03  0.23345069935E+03  0.00000000000E+00 0. -1.
<mgrwt>
<rscale>  1 0.30000000E+03</rscale>
<asrwt>0</asrwt>
<pdfrwt beam="1">  1       21 0.14381204E-01 0.30000000E+03</pdfrwt>
<pdfrwt beam="2">0</pdfrwt>
<totfact> 0.44511549E+03</totfact>
</mgrwt>
</event>
<event>
 6    1  0.1284012E-001  0.3000000E+03  0.7818608E-02  0.1093470E+00
         21   -1    0    0  501  502  0.00000000000E+00  0.00000000000E+00  0.21855821785E+01  0.21855821785E+01  0.00000000000E+00 0. -1.
         13   -1    0    0    0    0 -0.00000000000E+00 -0.00000000000E+00 -0.10000000000E+04  0.10000000000E+04  0.00000000000E+00 0.  1.
    9000005    2    1    2  501    0  0.39097952779E+02 -0.20833061058E+02 -0.65743245850E+03  0.65893269497E+03  0.34918001164E+01 0.  0.
         13    1    3    3    0    0  0.24867949747E+02 -0.14354135913E+02 -0.44534291161E+03  0.44626759356E+03  0.00000000000E+00 0.  1.
          3    1    3    3  501    0  0.14230003032E+02 -0.64789251456E+01 -0.21208954689E+03  0.21266510141E+03  0.00000000000E+00 0.  1.
         -1    1    1    2    0  502 -0.39097952779E+02  0.20833061058E+02 -0.34038195932E+03  0.34325288721E+03  0.00000000000E+00 0. -1.
<mgrwt>
<rscale>  1 0.30000000E+03</rscale>
<asrwt>0</asrwt>
<pdfrwt beam="1">  1       21 0.79475883E-02 0.30000000E+03</pdfrwt>
<pdfrwt beam="2">0</pdfrwt>
<totfact> 0.12922173E+04</totfact>
</mgrwt>
</event>
<event>
 6    1  0.1284012E-001  0.3000000E+03  0.7818608E-02  0.1093470E+00
         21   -1    0    0  501  502  0.00000000000E+00  0.00000000000E+00  0.40655111663E+01  0.40655111663E+01  0.00000000000E+00 0. -1.
         13   -1    0    0    0    0 -0.00000000000E+00 -0.00000000000E+00 -0.10000000000E+04  0.10000000000E+04  0.00000000000E+00 0.  1.
    9000005    2    1    2  501    0  0.23690181002E+02  0.19187872678E+02 -0.93877891655E+03  0.93928774819E+03  0.51206051196E+01 0.  0.
         13    1    3    3    0    0  0.20412958740E+02  0.14223396306E+02 -0.78354564241E+03  0.78394053832E+03  0.00000000000E+00 0.  1.
          3    1    3    3  501    0  0.32772222624E+01  0.49644763720E+01 -0.15523327414E+03  0.15534720986E+03  0.00000000000E+00 0.  1.
         -1    1    1    2    0  502 -0.23690181002E+02 -0.19187872678E+02 -0.57155572281E+02  0.64777762979E+02  0.00000000000E+00 0. -1.
<mgrwt>
<rscale>  1 0.30000000E+03</rscale>
<asrwt>0</asrwt>
<pdfrwt beam="1">  1       21 0.14783708E-01 0.30000000E+03</pdfrwt>
<pdfrwt beam="2">0</pdfrwt>
<totfact> 0.42301459E+03</totfact>
</mgrwt>
</event>
<event>
 6    1  0.1284012E-001  0.3000000E+03  0.7818608E-02  0.1093470E+00
         21   -1    0    0  501  502  0.00000000000E+00  0.00000000000E+00  0.17759086091E+01  0.17759086091E+01  0.00000000000E+00 0. -1.
         13   -1    0    0    0    0 -0.00000000000E+00 -0.00000000000E+00 -0.10000000000E+04  0.10000000000E+04  0.00000000000E+00 0.  1.
    9000005    2    1    2  501    0  0.24762127979E+02  0.27979322313E+02 -0.72988789847E+03  0.73085097825E+03  0.32867332998E+01 0.  0.
         13    1    3    3    0    0  0.11661949100E+02  0.13935802027E+02 -0.32445012911E+03  0.32495860339E+03  0.00000000000E+00 0.  1.
          3    1    3    3  501    0  0.13100178879E+02  0.14043520286E+02 -0.40543776936E+03  0.40589237487E+03  0.00000000000E+00 0.  1.
         -1    1    1    2    0  502 -0.24762127979E+02 -0.27979322313E+02 -0.26833619292E+03  0.27092493036E+03  0.00000000000E+00 0. -1.
<mgrwt>
<rscale>  1 0.30000000E+03</rscale>
<asrwt>0</asrwt>
<pdfrwt beam="1">  1       21 0.64578631E-02 0.30000000E+03</pdfrwt>
<pdfrwt beam="2">0</pdfrwt>
<totfact> 0.18557803E+04</totfact>
</mgrwt>
</event>
<event>
 6    1  0.1284012E-001  0.3000000E+03  0.7818608E-02  0.1093470E+00
         21   -1    0    0  501  502  0.00000000000E+00  0.00000000000E+00  0.12641009749E+01  0.12641009749E+01  0.00000000000E+00 0. -1.
         13   -1    0    0    0    0 -0.00000000000E+00 -0.00000000000E+00 -0.10000000000E+04  0.10000000000E+04  0.00000000000E+00 0.  1.
    9000005    2    1    2  501    0 -0.28847318410E+02  0.14836454247E+02 -0.70209746154E+03  0.70285724658E+03  0.38955641771E+01 0.  0.
         13    1    3    3    0    0 -0.16607684915E+02  0.68114098710E+01 -0.41190513401E+03  0.41229607072E+03  0.00000000000E+00 0.  1.
          1    1    3    3  501    0 -0.12239633495E+02  0.80250443763E+01 -0.29019232753E+03  0.29056117587E+03  0.00000000000E+00 0.  1.
         -3    1    1    2    0  502  0.28847318410E+02 -0.14836454247E+02 -0.29663843749E+03  0.29840685439E+03  0.00000000000E+00 0. -1.
<mgrwt>
<rscale>  1 0.30000000E+03</rscale>
<asrwt>0</asrwt>
<pdfrwt beam="1">  1       21 0.45967405E-02 0.30000000E+03</pdfrwt>
<pdfrwt beam="2">0</pdfrwt>
<totfact> 0.33235785E+04</totfact>
</mgrwt>
</event>
<event>
 6    1  0.1284012E-001  0.3000000E+03  0.7818608E-02  0.1093470E+00
         21   -1    0    0  501  502  0.00000000000E+00  0.00000000000E+00  0.28540037402E+01  0.28540037402E+01  0.00000000000E+00 0. -1.
         13   -1    0    0    0    0 -0.00000000000E+00 -0.00000000000E+00 -0.10000000000E+04  0.10000000000E+04  0.00000000000E+00 0.  1.
    9000005    2    1    2  501    0 -0.19908729689E+02  0.26887336791E+02 -0.88922691208E+03  0.88986809698E+03  0.46305990276E+01 0.  0.
         13    1    3    3    0    0 -0.77272683651E+01  0.10002410676E+02 -0.27913067087E+03  0.27941669656E+03  0.00000000000E+00 0.  1.
          1    1    3    3  501    0 -0.12181461324E+02  0.16884926115E+02 -0.61009624121E+03  0.61045140042E+03  0.00000000000E+00 0.  1.
         -1    1    1    2    0  502  0.19908729689E+02 -0.26887336791E+02 -0.10791908418E+03  0.11298590676E+03  0.00000000000E+00 0. -1.
<mgrwt>
<rscale>  1 0.30000000E+03</rscale>
<asrwt>0</asrwt>
<pdfrwt beam="1">  1       21 0.10378217E-01 0.30000000E+03</pdfrwt>
<pdfrwt beam="2">0</pdfrwt>
<totfact> 0.80504048E+03</totfact>
</mgrwt>
</event>
<event>
 6    1  0.1284012E-001  0.3000000E+03  0.7818608E-02  0.1093470E+00
         21   -1    0    0  501  502  0.00000000000E+00  0.00000000000E+00  0.11530205004E+01  0.11530205004E+01  0.00000000000E+00 0. -1.
         13   -1    0    0    0    0 -0.00000000000E+00 -0.00000000000E+00 -0.10000000000E+04  0.10000000000E+04  0.00000000000E+00 0.  1.
    9000005    2    1    2  501    0  0.33704963230E+02 -0.28696006460E+01 -0.52684122061E+03  0.52793668986E+03  0.33492713472E+01 0.  0.
         13    1    3    3    0    0  0.30013461451E+02 -0.33043294575E+01 -0.47950686938E+03  0.48045662057E+03  0.00000000000E+00 0.  1.
          3    1    3    3  501    0  0.36915017796E+01  0.43472881150E+00 -0.47334351227E+02  0.47480069298E+02  0.00000000000E+00 0.  1.
         -1    1    1    2    0  502 -0.33704963230E+02  0.28696006460E+01 -0.47200575889E+03  0.47321633064E+03  0.00000000000E+00 0. -1.
<mgrwt>
<rscale>  1 0.30000000E+03</rscale>
<asrwt>0</asrwt>
<pdfrwt beam="1">  1       21 0.41928107E-02 0.30000000E+03</pdfrwt>
<pdfrwt beam="2">0</pdfrwt>
<totfact> 0.38838650E+04</totfact>
</mgrwt>
</event>
<event>
 6    1  0.1284012E-001  0.3000000E+03  0.7818608E-02  0.1093470E+00
         21   -1    0    0  501  502  0.00000000000E+00  0.00000000000E+00  0.15671079221E+01  0.15671079221E+01  0.00000000000E+00 0. -1.
         13   -1    0    0    0    0 -0.00000000000E+00 -0.00000000000E+00 -0.10000000000E+04  0.10000000000E+04  0.00000000000E+00 0.  1.
    9000005    2    1    2  501    0  0.72019117098E-01 -0.38871284732E+02 -0.40944753492E+03  0.41130044538E+03  0.31289859843E+01 0.  0.
         13    1    3    3    0    0  0.98366847517E+00 -0.23551681561E+02 -0.23509754504E+03  0.23627633185E+03  0.00000000000E+00 0.  1.
          1    1    3    3  501    0 -0.91164935808E+00 -0.15319603171E+02 -0.17434998988E+03  0.17502411353E+03  0.00000000000E+00 0.  1.
         -1    1    1    2    0  502 -0.72019117098E-01  0.38871284732E+02 -0.58898535716E+03  0.59026666254E+03  0.00000000000E+00 0. -1.
<mgrwt>
<rscale>  1 0.30000000E+03</rscale>
<asrwt>0</asrwt>
<pdfrwt beam="1">  1       21 0.56985863E-02 0.30000000E+03</pdfrwt>
<pdfrwt beam="2">0</pdfrwt>
<totfact> 0.23028080E+04</totfact>
</mgrwt>
</event>
<event>
 6    1  0.1284012E-001  0.3000000E+03  0.7818608E-02  0.1093470E+00
         21   -1    0    0  501  502  0.00000000000E+00  0.00000000000E+00  0.36681993096E+01  0.36681993096E+01  0.00000000000E+00 0. -1.
         13   -1    0    0    0    0 -0.00000000000E+00 -0.00000000000E+00 -0.10000000000E+04  0.10000000000E+04  0.00000000000E+00 0.  1.
    9000005    2    1    2  501    0 -0.51566988293E+02  0.15048638722E+02 -0.72949433670E+03  0.73147736920E+03  0.33968455817E+01 0.  0.
         13    1    3    3    0    0 -0.39695660928E+02  0.12060808314E+02 -0.58092883150E+03  0.58240837550E+03  0.00000000000E+00 0.  1.
          3    1    3    3  501    0 -0.11871327365E+02  0.29878304079E+01 -0.14856550520E+03  0.14906899369E+03  0.00000000000E+00 0.  1.
         -3    1    1    2    0  502  0.51566988293E+02 -0.15048638722E+02 -0.26683746399E+03  0.27219083011E+03  0.00000000000E+00 0. -1.
<mgrwt>
<rscale>  1 0.30000000E+03</rscale>
<asrwt>0</asrwt>
<pdfrwt beam="1">  1       21 0.13338935E-01 0.30000000E+03</pdfrwt>
<pdfrwt beam="2">0</pdfrwt>
<totfact> 0.51103583E+03</totfact>
</mgrwt>
</event>
<event>
 6    1  0.1284012E-001  0.3000000E+03  0.7818608E-02  0.1093470E+00
         21   -1    0    0  501  502  0.00000000000E+00  0.00000000000E+00  0.23044742132E+01  0.23044742132E+01  0.00000000000E+00 0. -1.
         13   -1    0    0    0    0 -0.00000000000E+00 -0.00000000000E+00 -0.10000000000E+04  0.10000000000E+04  0.00000000000E+00 0.  1.
    9000005    2    1    2  501    0  0.28299744495E+02 -0.14812552825E+02 -0.87276223950E+03  0.87335249368E+03  0.32193585601E+01 0.  0.
         13    1    3    3    0    0  0.23650987242E+02 -0.11604944562E+02 -0.74447864640E+03  0.74494462806E+03  0.00000000000E+00 0.  1.
          1    1    3    3  501    0  0.46487572534E+01 -0.32076082629E+01 -0.12828359310E+03  0.12840786562E+03  0.00000000000E+00 0.  1.
         -1    1    1    2    0  502 -0.28299744495E+02  0.14812552825E+02 -0.12493328629E+03  0.12895198053E+03  0.00000000000E+00 0. -1.
<mgrwt>
<rscale>  1 0.30000000E+03</rscale>
<asrwt>0</asrwt>
<pdfrwt beam="1">  1       21 0.83799239E-02 0.30000000E+03</pdfrwt>
<pdfrwt beam="2">0</pdfrwt>
<totfact> 0.11772797E+04</totfact>
</mgrwt>
</event>
<event>
 6    1  0.1284012E-001  0.3000000E+03  0.7818608E-02  0.1093470E+00
         21   -1    0    0  501  502  0.00000000000E+00  0.00000000000E+00  0.97861041710E+00  0.97861041710E+00  0.00000000000E+00 0. -1.
         13   -1    0    0    0    0 -0.00000000000E+00 -0.00000000000E+00 -0.10000000000E+04  0.10000000000E+04  0.00000000000E+00 0.  1.
    9000005    2    1    2  501    0  0.19270542510E+02  0.24536989122E+02 -0.49428732907E+03  0.49528118163E+03  0.31729403007E+01 0.  0.
         13    1    3    3    0    0  0.76957283758E+01  0.74106877860E+01 -0.17300850772E+03  0.17333806931E+03  0.00000000000E+00 0.  1.
          1    1    3    3  501    0  0.11574814134E+02  0.17126301336E+02 -0.32127882135E+03  0.32194311232E+03  0.00000000000E+00 0.  1.
         -3    1    1    2    0  502 -0.19270542510E+02 -0.24536989122E+02 -0.50473406051E+03  0.50569742879E+03  0.00000000000E+00 0. -1.
<mgrwt>
<rscale>  1 0.30000000E+03</rscale>
<asrwt>0</asrwt>
<pdfrwt beam="1">  1       21 0.35585908E-02 0.30000000E+03</pdfrwt>
<pdfrwt beam="2">0</pdfrwt>
<totfact> 0.51173390E+04</totfact>
</mgrwt>
</event>
<event>
 6    1  0.1284012E-001  0.3000000E+03  0.7818608E-02  0.1093470E+00
         21   -1    0    0  501  502  0.00000000000E+00  0.00000000000E+00  0.32445209651E+01  0.32445209651E+01  0.00000000000E+00 0. -1.
         13   -1    0    0    0    0 -0.00000000000E+00 -0.00000000000E+00 -0.10000000000E+04  0.10000000000E+04  0.00000000000E+00 0.  1.
    9000005    2    1    2  501    0 -0.31045634477E+02  0.12716052507E+02 -0.90364295757E+03  0.90427244881E+03  0.35408354082E+01 0.  0.
         13    1    3    3    0    0 -0.24178969852E+02  0.84587462232E+01 -0.66760084314E+03  0.66809210348E+03  0.00000000000E+00 0.  1.
          3    1    3    3  501    0 -0.68666646252E+01  0.42573062841E+01 -0.23604211442E+03  0.23618034533E+03  0.00000000000E+00 0.  1.
         -1    1    1    2    0  502  0.31045634477E+02 -0.12716052507E+02 -0.93112521470E+02  0.98972072151E+02  0.00000000000E+00 0. -1.
<mgrwt>
<rscale>  1 0.30000000E+03</rscale>
<asrwt>0</asrwt>
<pdfrwt beam="1">  1       21 0.11798283E-01 0.30000000E+03</pdfrwt>
<pdfrwt beam="2">0</pdfrwt>
<totfact> 0.63905645E+03</totfact>
</mgrwt>
</event>
<event>
 6    1  0.1284012E-001  0.3000000E+03  0.7818608E-02  0.1093470E+00
         21   -1    0    0  501  502  0.00000000000E+00  0.00000000000E+00  0.30398929348E+01  0.30398929348E+01  0.00000000000E+00 0. -1.
         13   -1    0    0    0    0 -0.00000000000E+00 -0.00000000000E+00 -0.10000000000E+04  0.10000000000E+04  0.00000000000E+00 0.  1.
    9000005    2    1    2  501    0  0.37058490502E+02 -0.38822546473E+02 -0.61190331388E+03  0.61426070649E+03  0.31667285827E+01 0.  0.
         13    1    3    3    0    0  0.13327528036E+02 -0.15908398128E+02 -0.22772646253E+03  0.22867015955E+03  0.00000000000E+00 0.  1.
          3    1    3    3  501    0  0.23730962466E+02 -0.22914148345E+02 -0.38417685135E+03  0.38559054694E+03  0.00000000000E+00 0.  1.
         -3    1    1    2    0  502 -0.37058490502E+02  0.38822546473E+02 -0.38505679318E+03  0.38877918644E+03  0.00000000000E+00 0. -1.
<mgrwt>
<rscale>  1 0.30000000E+03</rscale>
<asrwt>0</asrwt>
<pdfrwt beam="1">  1       21 0.11054179E-01 0.30000000E+03</pdfrwt>
<pdfrwt beam="2">0</pdfrwt>
<totfact> 0.71881861E+03</totfact>
</mgrwt>
</event>
<event>
 6    1  0.1284012E-001  0.3000000E+03  0.7818608E-02  0.1093470E+00
         21   -1    0    0  501  502  0.00000000000E+00  0.00000000000E+00  0.71174504350E+01  0.71174504350E+01  0.00000000000E+00 0. -1.
         13   -1    0    0    0    0 -0.00000000000E+00 -0.00000000000E+00 -0.10000000000E+04  0.10000000000E+04  0.00000000000E+00 0.  1.
    9000005    2    1    2  501    0 -0.27970831151E+02 -0.19680186916E+02 -0.95674671858E+03  0.95736330053E+03  0.32447686285E+01 0.  0.
         13    1    3    3    0    0 -0.20104676384E+02 -0.15039057602E+02 -0.66562582843E+03  0.66609917786E+03  0.00000000000E+00 0.  1.
          1    1    3    3  501    0 -0.78661547675E+01 -0.46411293139E+01 -0.29112089015E+03  0.29126412267E+03  0.00000000000E+00 0.  1.
         -1    1    1    2    0  502  0.27970831151E+02  0.19680186916E+02 -0.36135830981E+02  0.49754149908E+02  0.00000000000E+00 0. -1.
<mgrwt>
<rscale>  1 0.30000000E+03</rscale>
<asrwt>0</asrwt>
<pdfrwt beam="1">  1       21 0.25881693E-01 0.30000000E+03</pdfrwt>
<pdfrwt beam="2">0</pdfrwt>
<totfact> 0.14570327E+03</totfact>
</mgrwt>
</event>
<event>
 6    1  0.1284012E-001  0.3000000E+03  0.7818608E-02  0.1093470E+00
         21   -1    0    0  501  502  0.00000000000E+00  0.00000000000E+00  0.14804146667E+01  0.14804146667E+01  0.00000000000E+00 0. -1.
         13   -1    0    0    0    0 -0.00000000000E+00 -0.00000000000E+00 -0.10000000000E+04  0.10000000000E+04  0.00000000000E+00 0.  1.
    9000005    2    1    2  501    0 -0.27156106730E+02 -0.22029391481E+02 -0.31758490977E+03  0.31964848479E+03  0.96036810589E+01 0.  0.
         13    1    3    3    0    0 -0.10524303384E+02 -0.38527732941E+01 -0.12313054004E+03  0.12363953540E+03  0.00000000000E+00 0.  1.
          3    1    3    3  501    0 -0.16631803346E+02 -0.18176618187E+02 -0.19445436974E+03  0.19600894939E+03  0.00000000000E+00 0.  1.
         -3    1    1    2    0  502  0.27156106730E+02  0.22029391481E+02 -0.68093467556E+03  0.68183192988E+03  0.00000000000E+00 0. -1.
<mgrwt>
<rscale>  1 0.30000000E+03</rscale>
<asrwt>0</asrwt>
<pdfrwt beam="1">  1       21 0.53833374E-02 0.30000000E+03</pdfrwt>
<pdfrwt beam="2">0</pdfrwt>
<totfact> 0.25389890E+04</totfact>
</mgrwt>
</event>
<event>
 6    1  0.1284012E-001  0.3000000E+03  0.7818608E-02  0.1093470E+00
         21   -1    0    0  501  502  0.00000000000E+00  0.00000000000E+00  0.12353807030E+01  0.12353807030E+01  0.00000000000E+00 0. -1.
         13   -1    0    0    0    0 -0.00000000000E+00 -0.00000000000E+00 -0.10000000000E+04  0.10000000000E+04  0.00000000000E+00 0.  1.
    9000005    2    1    2  501    0  0.30030050724E+02 -0.73472235473E+01 -0.26450000630E+03  0.26632021040E+03  0.32273046008E+01 0.  0.
         13    1    3    3    0    0  0.19809412398E+02 -0.55486615914E+01 -0.16375583644E+03  0.16504294723E+03  0.00000000000E+00 0.  1.
          3    1    3    3  501    0  0.10220638326E+02 -0.17985619558E+01 -0.10074416986E+03  0.10127726316E+03  0.00000000000E+00 0.  1.
         -3    1    1    2    0  502 -0.30030050724E+02  0.73472235473E+01 -0.73426461300E+03  0.73491517030E+03  0.00000000000E+00 0. -1.
<mgrwt>
<rscale>  1 0.30000000E+03</rscale>
<asrwt>0</asrwt>
<pdfrwt beam="1">  1       21 0.44923029E-02 0.30000000E+03</pdfrwt>
<pdfrwt beam="2">0</pdfrwt>
<totfact> 0.34558427E+04</totfact>
</mgrwt>
</event>
<event>
 6    1  0.1284012E-001  0.3000000E+03  0.7818608E-02  0.1093470E+00
         21   -1    0    0  501  502  0.00000000000E+00  0.00000000000E+00  0.14364307670E+01  0.14364307670E+01  0.00000000000E+00 0. -1.
         13   -1    0    0    0    0 -0.00000000000E+00 -0.00000000000E+00 -0.10000000000E+04  0.10000000000E+04  0.00000000000E+00 0.  1.
    9000005    2    1    2  501    0 -0.10918069025E+02 -0.33431388669E+02 -0.68440765947E+03  0.68531810225E+03  0.31929552615E+01 0.  0.
         13    1    3    3    0    0 -0.97990531268E+00 -0.69815452582E+01 -0.14275062398E+03  0.14292460542E+03  0.00000000000E+00 0.  1.
          1    1    3    3  501    0 -0.99381637125E+01 -0.26449843411E+02 -0.54165703549E+03  0.54239349683E+03  0.00000000000E+00 0.  1.
         -1    1    1    2    0  502  0.10918069025E+02  0.33431388669E+02 -0.31415590977E+03  0.31611832851E+03  0.00000000000E+00 0. -1.
<mgrwt>
<rscale>  1 0.30000000E+03</rscale>
<asrwt>0</asrwt>
<pdfrwt beam="1">  1       21 0.52233956E-02 0.30000000E+03</pdfrwt>
<pdfrwt beam="2">0</pdfrwt>
<totfact> 0.26734049E+04</totfact>
</mgrwt>
</event>
<event>
 6    1  0.1284012E-001  0.3000000E+03  0.7818608E-02  0.1093470E+00
         21   -1    0    0  501  502  0.00000000000E+00  0.00000000000E+00  0.28100271891E+01  0.28100271891E+01  0.00000000000E+00 0. -1.
         13   -1    0    0    0    0 -0.00000000000E+00 -0.00000000000E+00 -0.10000000000E+04  0.10000000000E+04  0.00000000000E+00 0.  1.
    9000005    2    1    2  501    0 -0.28873252626E+02  0.27673525081E+02 -0.82675319019E+03  0.82774379521E+03  0.62820632755E+01 0.  0.
         13    1    3    3    0    0 -0.99011834948E+01  0.65852010487E+01 -0.20616309155E+03  0.20650573509E+03  0.00000000000E+00 0.  1.
          3    1    3    3  501    0 -0.18972069131E+02  0.21088324032E+02 -0.62059009864E+03  0.62123806012E+03  0.00000000000E+00 0.  1.
         -3    1    1    2    0  502  0.28873252626E+02 -0.27673525081E+02 -0.17043678262E+03  0.17506623198E+03  0.00000000000E+00 0. -1.
<mgrwt>
<rscale>  1 0.30000000E+03</rscale>
<asrwt>0</asrwt>
<pdfrwt beam="1">  1       21 0.10218302E-01 0.30000000E+03</pdfrwt>
<pdfrwt beam="2">0</pdfrwt>
<totfact> 0.82773351E+03</totfact>
</mgrwt>
</event>
<event>
 6    1  0.1284012E-001  0.3000000E+03  0.7818608E-02  0.1093470E+00
         21   -1    0    0  501  502  0.00000000000E+00  0.00000000000E+00  0.15359335810E+01  0.15359335810E+01  0.00000000000E+00 0. -1.
         13   -1    0    0    0    0 -0.00000000000E+00 -0.00000000000E+00 -0.10000000000E+04  0.10000000000E+04  0.00000000000E+00 0.  1.
    9000005    2    1    2  501    0 -0.36511338117E+02 -0.47156378914E+01 -0.65782175799E+03  0.65891004818E+03  0.88131300797E+01 0.  0.
         13    1    3    3    0    0 -0.14029002764E+02 -0.57332365602E+01 -0.23268467828E+03  0.23317770568E+03  0.00000000000E+00 0.  1.
          1    1    3    3  501    0 -0.22482335352E+02  0.10175986689E+01 -0.42513707970E+03  0.42573234250E+03  0.00000000000E+00 0.  1.
         -1    1    1    2    0  502  0.36511338117E+02  0.47156378914E+01 -0.34064230843E+03  0.34262588540E+03  0.00000000000E+00 0. -1.
<mgrwt>
<rscale>  1 0.30000000E+03</rscale>
<asrwt>0</asrwt>
<pdfrwt beam="1">  1       21 0.55852248E-02 0.30000000E+03</pdfrwt>
<pdfrwt beam="2">0</pdfrwt>
<totfact> 0.23836936E+04</totfact>
</mgrwt>
</event>
<event>
 6    1  0.1284012E-001  0.3000000E+03  0.7818608E-02  0.1093470E+00
         21   -1    0    0  501  502  0.00000000000E+00  0.00000000000E+00  0.13416667330E+01  0.13416667330E+01  0.00000000000E+00 0. -1.
         13   -1    0    0    0    0 -0.00000000000E+00 -0.00000000000E+00 -0.10000000000E+04  0.10000000000E+04  0.00000000000E+00 0.  1.
    9000005    2    1    2  501    0 -0.12966387823E+02 -0.34177971913E+02 -0.51418352836E+03  0.51548973706E+03  0.29507965290E+01 0.  0.
         13    1    3    3    0    0 -0.18509401773E+01 -0.42513172940E+01 -0.79883280199E+02  0.80017736369E+02  0.00000000000E+00 0.  1.
          1    1    3    3  501    0 -0.11115447646E+02 -0.29926654619E+02 -0.43430024816E+03  0.43547200069E+03  0.00000000000E+00 0.  1.
         -1    1    1    2    0  502  0.12966387823E+02  0.34177971913E+02 -0.48447480490E+03  0.48585192967E+03  0.00000000000E+00 0. -1.
<mgrwt>
<rscale>  1 0.30000000E+03</rscale>
<asrwt>0</asrwt>
<pdfrwt beam="1">  1       21 0.48787984E-02 0.30000000E+03</pdfrwt>
<pdfrwt beam="2">0</pdfrwt>
<totfact> 0.30034442E+04</totfact>
</mgrwt>
</event>
<event>
 6    1  0.1284012E-001  0.3000000E+03  0.7818608E-02  0.1093470E+00
         21   -1    0    0  501  502  0.00000000000E+00  0.00000000000E+00  0.28461827936E+01  0.28461827936E+01  0.00000000000E+00 0. -1.
         13   -1    0    0    0    0 -0.00000000000E+00 -0.00000000000E+00 -0.10000000000E+04  0.10000000000E+04  0.00000000000E+00 0.  1.
    9000005    2    1    2  501    0  0.34425751766E+02 -0.79970852471E+01 -0.87403634759E+03  0.87475638194E+03  0.31788496950E+01 0.  0.
         13    1    3    3    0    0  0.12271745129E+02 -0.17673716619E+01 -0.27971707437E+03  0.27999171599E+03  0.00000000000E+00 0.  1.
          1    1    3    3  501    0  0.22154006637E+02 -0.62297135852E+01 -0.59431927322E+03  0.59476466595E+03  0.00000000000E+00 0.  1.
         -1    1    1    2    0  502 -0.34425751766E+02  0.79970852471E+01 -0.12311746962E+03  0.12808980085E+03  0.00000000000E+00 0. -1.
<mgrwt>
<rscale>  1 0.30000000E+03</rscale>
<asrwt>0</asrwt>
<pdfrwt beam="1">  1       21 0.10349777E-01 0.30000000E+03</pdfrwt>
<pdfrwt beam="2">0</pdfrwt>
<totfact> 0.80900657E+03</totfact>
</mgrwt>
</event>
<event>
 6    1  0.1284012E-001  0.3000000E+03  0.7818608E-02  0.1093470E+00
         21   -1    0    0  501  502  0.00000000000E+00  0.00000000000E+00  0.20743947408E+01  0.20743947408E+01  0.00000000000E+00 0. -1.
         13   -1    0    0    0    0 -0.00000000000E+00 -0.00000000000E+00 -0.10000000000E+04  0.10000000000E+04  0.00000000000E+00 0.  1.
    9000005    2    1    2  501    0 -0.30272145033E+02 -0.24022699592E+02 -0.76330631776E+03  0.76429360720E+03  0.38328060120E+01 0.  0.
         13    1    3    3    0    0 -0.30115752631E+02 -0.23349697992E+02 -0.75348287061E+03  0.75444589154E+03  0.00000000000E+00 0.  1.
          3    1    3    3  501    0 -0.15639240240E+00 -0.67300159948E+00 -0.98234471511E+01  0.98477156573E+01  0.00000000000E+00 0.  1.
         -3    1    1    2    0  502  0.30272145033E+02  0.24022699592E+02 -0.23461928749E+03  0.23778078754E+03  0.00000000000E+00 0. -1.
<mgrwt>
<rscale>  1 0.30000000E+03</rscale>
<asrwt>0</asrwt>
<pdfrwt beam="1">  1       21 0.75432695E-02 0.30000000E+03</pdfrwt>
<pdfrwt beam="2">0</pdfrwt>
<totfact> 0.14161091E+04</totfact>
</mgrwt>
</event>
<event>
 6    1  0.1284012E-001  0.3000000E+03  0.7818608E-02  0.1093470E+00
         21   -1    0    0  501  502  0.00000000000E+00  0.00000000000E+00  0.33711410022E+01  0.33711410022E+01  0.00000000000E+00 0. -1.
         13   -1    0    0    0    0 -0.00000000000E+00 -0.00000000000E+00 -0.10000000000E+04  0.10000000000E+04  0.00000000000E+00 0.  1.
    9000005    2    1    2  501    0  0.41833609948E+02  0.45800093327E+01 -0.84377038838E+03  0.84482543956E+03  0.32446280224E+01 0.  0.
         13    1    3    3    0    0  0.38132301001E+02  0.32467442131E+01 -0.76846733247E+03  0.76941968704E+03  0.00000000000E+00 0.  1.
          3    1    3    3  501    0  0.37013089477E+01  0.13332651196E+01 -0.75303055905E+02  0.75405752515E+02  0.00000000000E+00 0.  1.
         -3    1    1    2    0  502 -0.41833609948E+02 -0.45800093327E+01 -0.15285847062E+03  0.15854570145E+03  0.00000000000E+00 0. -1.
<mgrwt>
<rscale>  1 0.30000000E+03</rscale>
<asrwt>0</asrwt>
<pdfrwt beam="1">  1       21 0.12258720E-01 0.30000000E+03</pdfrwt>
<pdfrwt beam="2">0</pdfrwt>
<totfact> 0.59614985E+03</totfact>
</mgrwt>
</event>
<event>
 6    1  0.1284012E-001  0.3000000E+03  0.7818608E-02  0.1093470E+00
         21   -1    0    0  501  502  0.00000000000E+00  0.00000000000E+00  0.23286575679E+01  0.23286575679E+01  0.00000000000E+00 0. -1.
         13   -1    0    0    0    0 -0.00000000000E+00 -0.00000000000E+00 -0.10000000000E+04  0.10000000000E+04  0.00000000000E+00 0.  1.
    9000005    2    1    2  501    0 -0.33725190635E+02  0.11536904211E+01 -0.85686512446E+03  0.85753532034E+03  0.32038470729E+01 0.  0.
         13    1    3    3    0    0 -0.63238051810E+01 -0.65815231442E+00 -0.13963595289E+03  0.13978062461E+03  0.00000000000E+00 0.  1.
          1    1    3    3  501    0 -0.27401385454E+02  0.18118427355E+01 -0.71722917157E+03  0.71775469573E+03  0.00000000000E+00 0.  1.
         -1    1    1    2    0  502  0.33725190635E+02 -0.11536904211E+01 -0.14080621798E+03  0.14479333723E+03  0.00000000000E+00 0. -1.
<mgrwt>
<rscale>  1 0.30000000E+03</rscale>
<asrwt>0</asrwt>
<pdfrwt beam="1">  1       21 0.84678636E-02 0.30000000E+03</pdfrwt>
<pdfrwt beam="2">0</pdfrwt>
<totfact> 0.11558197E+04</totfact>
</mgrwt>
</event>
<event>
 6    1  0.1284012E-001  0.3000000E+03  0.7818608E-02  0.1093470E+00
         21   -1    0    0  501  502  0.00000000000E+00  0.00000000000E+00  0.17526912846E+01  0.17526912846E+01  0.00000000000E+00 0. -1.
         13   -1    0    0    0    0 -0.00000000000E+00 -0.00000000000E+00 -0.10000000000E+04  0.10000000000E+04  0.00000000000E+00 0.  1.
    9000005    2    1    2  501    0 -0.22110801466E+02  0.33709932977E+02 -0.63231907583E+03  0.63361043787E+03  0.30864547671E+01 0.  0.
         13    1    3    3    0    0 -0.83735463259E+01  0.10574328894E+02 -0.22418737009E+03  0.22459276394E+03  0.00000000000E+00 0.  1.
          1    1    3    3  501    0 -0.13737255140E+02  0.23135604083E+02 -0.40813170574E+03  0.40901767393E+03  0.00000000000E+00 0.  1.
         -1    1    1    2    0  502  0.22110801466E+02 -0.33709932977E+02 -0.36592823289E+03  0.36814225341E+03  0.00000000000E+00 0. -1.
<mgrwt>
<rscale>  1 0.30000000E+03</rscale>
<asrwt>0</asrwt>
<pdfrwt beam="1">  1       21 0.63734363E-02 0.30000000E+03</pdfrwt>
<pdfrwt beam="2">0</pdfrwt>
<totfact> 0.18985167E+04</totfact>
</mgrwt>
</event>
<event>
 6    1  0.1284012E-001  0.3000000E+03  0.7818608E-02  0.1093470E+00
         21   -1    0    0  501  502  0.00000000000E+00  0.00000000000E+00  0.10931731280E+01  0.10931731280E+01  0.00000000000E+00 0. -1.
         13   -1    0    0    0    0 -0.00000000000E+00 -0.00000000000E+00 -0.10000000000E+04  0.10000000000E+04  0.00000000000E+00 0.  1.
    9000005    2    1    2  501    0 -0.14691393413E+02  0.29255150113E+02 -0.56174006392E+03  0.56270238915E+03  0.32215666323E+01 0.  0.
         13    1    3    3    0    0 -0.66599065296E+01  0.14205926873E+02 -0.29579538364E+03  0.29621119442E+03  0.00000000000E+00 0.  1.
          1    1    3    3  501    0 -0.80314868835E+01  0.15049223239E+02 -0.26594468028E+03  0.26649119473E+03  0.00000000000E+00 0.  1.
         -3    1    1    2    0  502  0.14691393413E+02 -0.29255150113E+02 -0.43716676295E+03  0.43839078398E+03  0.00000000000E+00 0. -1.
<mgrwt>
<rscale>  1 0.30000000E+03</rscale>
<asrwt>0</asrwt>
<pdfrwt beam="1">  1       21 0.39751834E-02 0.30000000E+03</pdfrwt>
<pdfrwt beam="2">0</pdfrwt>
<totfact> 0.42490250E+04</totfact>
</mgrwt>
</event>
<event>
 6    1  0.1284012E-001  0.3000000E+03  0.7818608E-02  0.1093470E+00
         21   -1    0    0  501  502  0.00000000000E+00  0.00000000000E+00  0.16790414681E+01  0.16790414681E+01  0.00000000000E+00 0. -1.
         13   -1    0    0    0    0 -0.00000000000E+00 -0.00000000000E+00 -0.10000000000E+04  0.10000000000E+04  0.00000000000E+00 0.  1.
    9000005    2    1    2  501    0 -0.14744637790E+02 -0.37683078023E+02 -0.45170111633E+03  0.45356347829E+03  0.69650289911E+01 0.  0.
         13    1    3    3    0    0 -0.75306105745E+01 -0.12921884993E+02 -0.13973926567E+03  0.14053735297E+03  0.00000000000E+00 0.  1.
          3    1    3    3  501    0 -0.72140272156E+01 -0.24761193030E+02 -0.31196185065E+03  0.31302612532E+03  0.00000000000E+00 0.  1.
         -3    1    1    2    0  502  0.14744637790E+02  0.37683078023E+02 -0.54661984220E+03  0.54811556318E+03  0.00000000000E+00 0. -1.
<mgrwt>
<rscale>  1 0.30000000E+03</rscale>
<asrwt>0</asrwt>
<pdfrwt beam="1">  1       21 0.61056182E-02 0.30000000E+03</pdfrwt>
<pdfrwt beam="2">0</pdfrwt>
<totfact> 0.20446746E+04</totfact>
</mgrwt>
</event>
<event>
 6    1  0.1284012E-001  0.3000000E+03  0.7818608E-02  0.1093470E+00
         21   -1    0    0  501  502  0.00000000000E+00  0.00000000000E+00  0.13852429511E+02  0.13852429511E+02  0.00000000000E+00 0. -1.
         13   -1    0    0    0    0 -0.00000000000E+00 -0.00000000000E+00 -0.10000000000E+04  0.10000000000E+04  0.00000000000E+00 0.  1.
    9000005    2    1    2  501    0  0.82996106031E+02 -0.33451132728E+02 -0.82231683791E+03  0.82717666559E+03  0.29870207229E+01 0.  0.
         13    1    3    3    0    0  0.52817625756E+02 -0.21628101832E+02 -0.53729421130E+03  0.54031707902E+03  0.00000000000E+00 0.  1.
          3    1    3    3  501    0  0.30178480275E+02 -0.11823030896E+02 -0.28502262661E+03  0.28685958657E+03  0.00000000000E+00 0.  1.
         -1    1    1    2    0  502 -0.82996106031E+02  0.33451132728E+02 -0.16383073258E+03  0.18667576392E+03  0.00000000000E+00 0. -1.
<mgrwt>
<rscale>  1 0.30000000E+03</rscale>
<asrwt>0</asrwt>
<pdfrwt beam="1">  1       21 0.50372577E-01 0.30000000E+03</pdfrwt>
<pdfrwt beam="2">0</pdfrwt>
<totfact> 0.36972162E+02</totfact>
</mgrwt>
</event>
<event>
 6    1  0.1284012E-001  0.3000000E+03  0.7818608E-02  0.1093470E+00
         21   -1    0    0  501  502  0.00000000000E+00  0.00000000000E+00  0.13454745544E+01  0.13454745544E+01  0.00000000000E+00 0. -1.
         13   -1    0    0    0    0 -0.00000000000E+00 -0.00000000000E+00 -0.10000000000E+04  0.10000000000E+04  0.00000000000E+00 0.  1.
    9000005    2    1    2  501    0 -0.10344369210E+02  0.32196501086E+02 -0.69118217664E+03  0.69201900311E+03  0.37254131498E+01 0.  0.
         13    1    3    3    0    0 -0.83401233421E+01  0.29526846098E+02 -0.62536226664E+03  0.62611449180E+03  0.00000000000E+00 0.  1.
          3    1    3    3  501    0 -0.20042458683E+01  0.26696549883E+01 -0.65819910000E+02  0.65904511315E+02  0.00000000000E+00 0.  1.
         -3    1    1    2    0  502  0.10344369210E+02 -0.32196501086E+02 -0.30747234881E+03  0.30932647144E+03  0.00000000000E+00 0. -1.
<mgrwt>
<rscale>  1 0.30000000E+03</rscale>
<asrwt>0</asrwt>
<pdfrwt beam="1">  1       21 0.48926451E-02 0.30000000E+03</pdfrwt>
<pdfrwt beam="2">0</pdfrwt>
<totfact> 0.29889840E+04</totfact>
</mgrwt>
</event>
<event>
 6    1  0.1284012E-001  0.3000000E+03  0.7818608E-02  0.1093470E+00
         21   -1    0    0  501  502  0.00000000000E+00  0.00000000000E+00  0.20254672689E+01  0.20254672689E+01  0.00000000000E+00 0. -1.
         13   -1    0    0    0    0 -0.00000000000E+00 -0.00000000000E+00 -0.10000000000E+04  0.10000000000E+04  0.00000000000E+00 0.  1.
    9000005    2    1    2  501    0 -0.34568144397E+02 -0.31016286952E+01 -0.81759623811E+03  0.81833848930E+03  0.31141256062E+01 0.  0.
         13    1    3    3    0    0 -0.21869987904E+02 -0.11651703850E+01 -0.48474935380E+03  0.48524384592E+03  0.00000000000E+00 0.  1.
          1    1    3    3  501    0 -0.12698156494E+02 -0.19364583102E+01 -0.33284688431E+03  0.33309464338E+03  0.00000000000E+00 0.  1.
         -3    1    1    2    0  502  0.34568144397E+02  0.31016286952E+01 -0.18037829462E+03  0.18368697797E+03  0.00000000000E+00 0. -1.
<mgrwt>
<rscale>  1 0.30000000E+03</rscale>
<asrwt>0</asrwt>
<pdfrwt beam="1">  1       21 0.73653511E-02 0.30000000E+03</pdfrwt>
<pdfrwt beam="2">0</pdfrwt>
<totfact> 0.14765171E+04</totfact>
</mgrwt>
</event>
<event>
 6    1  0.1284012E-001  0.3000000E+03  0.7818608E-02  0.1093470E+00
         21   -1    0    0  501  502  0.00000000000E+00  0.00000000000E+00  0.97711791579E+01  0.97711791579E+01  0.00000000000E+00 0. -1.
         13   -1    0    0    0    0 -0.00000000000E+00 -0.00000000000E+00 -0.10000000000E+04  0.10000000000E+04  0.00000000000E+00 0.  1.
    9000005    2    1    2  501    0 -0.67685175349E+02 -0.21611816366E+02 -0.84560739475E+03  0.84863859259E+03  0.93403004470E+01 0.  0.
         13    1    3    3    0    0 -0.37406625094E+02 -0.72073132653E+01 -0.46353269842E+03  0.46509543480E+03  0.00000000000E+00 0.  1.
          3    1    3    3  501    0 -0.30278550255E+02 -0.14404503101E+02 -0.38207469632E+03  0.38354315779E+03  0.00000000000E+00 0.  1.
         -1    1    1    2    0  502  0.67685175349E+02  0.21611816366E+02 -0.14462142610E+03  0.16113258657E+03  0.00000000000E+00 0. -1.
<mgrwt>
<rscale>  1 0.30000000E+03</rscale>
<asrwt>0</asrwt>
<pdfrwt beam="1">  1       21 0.35531636E-01 0.30000000E+03</pdfrwt>
<pdfrwt beam="2">0</pdfrwt>
<totfact> 0.77160753E+02</totfact>
</mgrwt>
</event>
<event>
 6    1  0.1284012E-001  0.3000000E+03  0.7818608E-02  0.1093470E+00
         21   -1    0    0  501  502  0.00000000000E+00  0.00000000000E+00  0.20508745571E+01  0.20508745571E+01  0.00000000000E+00 0. -1.
         13   -1    0    0    0    0 -0.00000000000E+00 -0.00000000000E+00 -0.10000000000E+04  0.10000000000E+04  0.00000000000E+00 0.  1.
    9000005    2    1    2  501    0  0.34787045650E+02 -0.99402384682E+01 -0.19926721469E+03  0.20254994182E+03  0.31794959564E+01 0.  0.
         13    1    3    3    0    0  0.15707940656E+02 -0.48069460364E+01 -0.99192392286E+02  0.10054340763E+03  0.00000000000E+00 0.  1.
          1    1    3    3  501    0  0.19079104994E+02 -0.51332924318E+01 -0.10007482240E+03  0.10200653419E+03  0.00000000000E+00 0.  1.
         -1    1    1    2    0  502 -0.34787045650E+02  0.99402384682E+01 -0.79868191075E+03  0.79950093274E+03  0.00000000000E+00 0. -1.
<mgrwt>
<rscale>  1 0.30000000E+03</rscale>
<asrwt>0</asrwt>
<pdfrwt beam="1">  1       21 0.74577414E-02 0.30000000E+03</pdfrwt>
<pdfrwt beam="2">0</pdfrwt>
<totfact> 0.14446664E+04</totfact>
</mgrwt>
</event>
<event>
 6    1  0.1284012E-001  0.3000000E+03  0.7818608E-02  0.1093470E+00
         21   -1    0    0  501  502  0.00000000000E+00  0.00000000000E+00  0.12943593417E+01  0.12943593417E+01  0.00000000000E+00 0. -1.
         13   -1    0    0    0    0 -0.00000000000E+00 -0.00000000000E+00 -0.10000000000E+04  0.10000000000E+04  0.00000000000E+00 0.  1.
    9000005    2    1    2  501    0  0.33087390861E+02  0.21328001243E+01 -0.69062970282E+03  0.69143938077E+03  0.44392108354E+01 0.  0.
         13    1    3    3    0    0  0.14846744176E+02  0.18201707973E+01 -0.26961301001E+03  0.27002761711E+03  0.00000000000E+00 0.  1.
          1    1    3    3  501    0  0.18240646686E+02  0.31262932698E+00 -0.42101669281E+03  0.42141176366E+03  0.00000000000E+00 0.  1.
         -3    1    1    2    0  502 -0.33087390861E+02 -0.21328001243E+01 -0.30807593784E+03  0.30985497857E+03  0.00000000000E+00 0. -1.
<mgrwt>
<rscale>  1 0.30000000E+03</rscale>
<asrwt>0</asrwt>
<pdfrwt beam="1">  1       21 0.47067712E-02 0.30000000E+03</pdfrwt>
<pdfrwt beam="2">0</pdfrwt>
<totfact> 0.31926089E+04</totfact>
</mgrwt>
</event>
<event>
 6    1  0.1284012E-001  0.3000000E+03  0.7818608E-02  0.1093470E+00
         21   -1    0    0  501  502  0.00000000000E+00  0.00000000000E+00  0.20491468168E+01  0.20491468168E+01  0.00000000000E+00 0. -1.
         13   -1    0    0    0    0 -0.00000000000E+00 -0.00000000000E+00 -0.10000000000E+04  0.10000000000E+04  0.00000000000E+00 0.  1.
    9000005    2    1    2  501    0 -0.11969085535E+02  0.39162264248E+02 -0.71008145414E+03  0.71128165748E+03  0.53835680415E+01 0.  0.
         13    1    3    3    0    0 -0.10779841556E+02  0.35716480122E+02 -0.66871765998E+03  0.66975755368E+03  0.00000000000E+00 0.  1.
          1    1    3    3  501    0 -0.11892439795E+01  0.34457841258E+01 -0.41363794158E+02  0.41524103803E+02  0.00000000000E+00 0.  1.
         -1    1    1    2    0  502  0.11969085535E+02 -0.39162264248E+02 -0.28786939904E+03  0.29076748934E+03  0.00000000000E+00 0. -1.
<mgrwt>
<rscale>  1 0.30000000E+03</rscale>
<asrwt>0</asrwt>
<pdfrwt beam="1">  1       21 0.74514587E-02 0.30000000E+03</pdfrwt>
<pdfrwt beam="2">0</pdfrwt>
<totfact> 0.14467992E+04</totfact>
</mgrwt>
</event>
<event>
 6    1  0.1284012E-001  0.3000000E+03  0.7818608E-02  0.1093470E+00
         21   -1    0    0  501  502  0.00000000000E+00  0.00000000000E+00  0.19785546987E+01  0.19785546987E+01  0.00000000000E+00 0. -1.
         13   -1    0    0    0    0 -0.00000000000E+00 -0.00000000000E+00 -0.10000000000E+04  0.10000000000E+04  0.00000000000E+00 0.  1.
    9000005    2    1    2  501    0  0.38861448783E+02  0.71892420486E+01 -0.27113213373E+03  0.27401566507E+03  0.31707032290E+01 0.  0.
         13    1    3    3    0    0  0.16103425318E+02  0.40143121572E+01 -0.12199589566E+03  0.12311959051E+03  0.00000000000E+00 0.  1.
          3    1    3    3  501    0  0.22758023465E+02  0.31749298914E+01 -0.14913623807E+03  0.15089607456E+03  0.00000000000E+00 0.  1.
         -3    1    1    2    0  502 -0.38861448783E+02 -0.71892420486E+01 -0.72688931157E+03  0.72796288963E+03  0.00000000000E+00 0. -1.
<mgrwt>
<rscale>  1 0.30000000E+03</rscale>
<asrwt>0</asrwt>
<pdfrwt beam="1">  1       21 0.71947595E-02 0.30000000E+03</pdfrwt>
<pdfrwt beam="2">0</pdfrwt>
<totfact> 0.15381939E+04</totfact>
</mgrwt>
</event>
<event>
 6    1  0.1284012E-001  0.3000000E+03  0.7818608E-02  0.1093470E+00
         21   -1    0    0  501  502  0.00000000000E+00  0.00000000000E+00  0.36313714816E+01  0.36313714816E+01  0.00000000000E+00 0. -1.
         13   -1    0    0    0    0 -0.00000000000E+00 -0.00000000000E+00 -0.10000000000E+04  0.10000000000E+04  0.00000000000E+00 0.  1.
    9000005    2    1    2  501    0  0.48674971383E+02 -0.42219282069E+01 -0.79163222910E+03  0.79314604952E+03  0.34629745901E+01 0.  0.
         13    1    3    3    0    0  0.32522800546E+02 -0.12020576764E+01 -0.52170910186E+03  0.52272321974E+03  0.00000000000E+00 0.  1.
          3    1    3    3  501    0  0.16152170837E+02 -0.30198705305E+01 -0.26992312724E+03  0.27042282977E+03  0.00000000000E+00 0.  1.
         -3    1    1    2    0  502 -0.48674971383E+02  0.42219282069E+01 -0.20473639942E+03  0.21048532197E+03  0.00000000000E+00 0. -1.
<mgrwt>
<rscale>  1 0.30000000E+03</rscale>
<asrwt>0</asrwt>
<pdfrwt beam="1">  1       21 0.13205015E-01 0.30000000E+03</pdfrwt>
<pdfrwt beam="2">0</pdfrwt>
<totfact> 0.52055465E+03</totfact>
</mgrwt>
</event>
<event>
 6    1  0.1284012E-001  0.3000000E+03  0.7818608E-02  0.1093470E+00
         21   -1    0    0  501  502  0.00000000000E+00  0.00000000000E+00  0.55471141883E+01  0.55471141883E+01  0.00000000000E+00 0. -1.
         13   -1    0    0    0    0 -0.00000000000E+00 -0.00000000000E+00 -0.10000000000E+04  0.10000000000E+04  0.00000000000E+00 0.  1.
    9000005    2    1    2  501    0 -0.24748558405E+02 -0.69453502477E+02 -0.42819987958E+03  0.43451406154E+03  0.33245533369E+01 0.  0.
         13    1    3    3    0    0 -0.13213613026E+02 -0.38849888796E+02 -0.24731785715E+03  0.25069909432E+03  0.00000000000E+00 0.  1.
          1    1    3    3  501    0 -0.11534945379E+02 -0.30603613681E+02 -0.18088202243E+03  0.18381496722E+03  0.00000000000E+00 0.  1.
         -1    1    1    2    0  502  0.24748558405E+02  0.69453502477E+02 -0.56625300623E+03  0.57103305265E+03  0.00000000000E+00 0. -1.
<mgrwt>
<rscale>  1 0.30000000E+03</rscale>
<asrwt>0</asrwt>
<pdfrwt beam="1">  1       21 0.20171367E-01 0.30000000E+03</pdfrwt>
<pdfrwt beam="2">0</pdfrwt>
<totfact> 0.23604437E+03</totfact>
</mgrwt>
</event>
<event>
 6    1  0.1284012E-001  0.3000000E+03  0.7818608E-02  0.1093470E+00
         21   -1    0    0  501  502  0.00000000000E+00  0.00000000000E+00  0.16510264098E+01  0.16510264098E+01  0.00000000000E+00 0. -1.
         13   -1    0    0    0    0 -0.00000000000E+00 -0.00000000000E+00 -0.10000000000E+04  0.10000000000E+04  0.00000000000E+00 0.  1.
    9000005    2    1    2  501    0  0.33357003806E+00  0.31365390798E+02 -0.81703572764E+03  0.81764452608E+03  0.33603228345E+01 0.  0.
         13    1    3    3    0    0 -0.61460945424E+00  0.19824805094E+02 -0.47879237068E+03  0.47920302051E+03  0.00000000000E+00 0.  1.
          1    1    3    3  501    0  0.94817949230E+00  0.11540585704E+02 -0.33824335696E+03  0.33844150556E+03  0.00000000000E+00 0.  1.
         -3    1    1    2    0  502 -0.33357003806E+00 -0.31365390798E+02 -0.18131324595E+03  0.18400650033E+03  0.00000000000E+00 0. -1.
<mgrwt>
<rscale>  1 0.30000000E+03</rscale>
<asrwt>0</asrwt>
<pdfrwt beam="1">  1       21 0.60037451E-02 0.30000000E+03</pdfrwt>
<pdfrwt beam="2">0</pdfrwt>
<totfact> 0.21049001E+04</totfact>
</mgrwt>
</event>
<event>
 6    1  0.1284012E-001  0.3000000E+03  0.7818608E-02  0.1093470E+00
         21   -1    0    0  501  502  0.00000000000E+00  0.00000000000E+00  0.79016079716E+01  0.79016079716E+01  0.00000000000E+00 0. -1.
         13   -1    0    0    0    0 -0.00000000000E+00 -0.00000000000E+00 -0.10000000000E+04  0.10000000000E+04  0.00000000000E+00 0.  1.
    9000005    2    1    2  501    0  0.36727333480E+02  0.79837756279E+02 -0.57132885601E+03  0.57805283597E+03  0.23356173676E+01 0.  0.
         13    1    3    3    0    0  0.26744475978E+02  0.56926204750E+02 -0.40272047136E+03  0.40760230352E+03  0.00000000000E+00 0.  1.
          3    1    3    3  501    0  0.99828575015E+01  0.22911551529E+02 -0.16860838465E+03  0.17045053245E+03  0.00000000000E+00 0.  1.
         -1    1    1    2    0  502 -0.36727333480E+02 -0.79837756279E+02 -0.42076953602E+03  0.42984877200E+03  0.00000000000E+00 0. -1.
<mgrwt>
<rscale>  1 0.30000000E+03</rscale>
<asrwt>0</asrwt>
<pdfrwt beam="1">  1       21 0.28733180E-01 0.30000000E+03</pdfrwt>
<pdfrwt beam="2">0</pdfrwt>
<totfact> 0.11849875E+03</totfact>
</mgrwt>
</event>
<event>
 6    1  0.1284012E-001  0.3000000E+03  0.7818608E-02  0.1093470E+00
         21   -1    0    0  501  502  0.00000000000E+00  0.00000000000E+00  0.12545088995E+01  0.12545088995E+01  0.00000000000E+00 0. -1.
         13   -1    0    0    0    0 -0.00000000000E+00 -0.00000000000E+00 -0.10000000000E+04  0.10000000000E+04  0.00000000000E+00 0.  1.
    9000005    2    1    2  501    0 -0.23685933920E+02  0.25672640632E+02 -0.42580712682E+03  0.42725235106E+03  0.35713150131E+01 0.  0.
         13    1    3    3    0    0 -0.67217251778E+01  0.94324171617E+01 -0.13064619970E+03  0.13115861229E+03  0.00000000000E+00 0.  1.
          1    1    3    3  501    0 -0.16964208742E+02  0.16240223470E+02 -0.29516092712E+03  0.29609373877E+03  0.00000000000E+00 0.  1.
         -3    1    1    2    0  502  0.23685933920E+02 -0.25672640632E+02 -0.57293836428E+03  0.57400215784E+03  0.00000000000E+00 0. -1.
<mgrwt>
<rscale>  1 0.30000000E+03</rscale>
<asrwt>0</asrwt>
<pdfrwt beam="1">  1       21 0.45618602E-02 0.30000000E+03</pdfrwt>
<pdfrwt beam="2">0</pdfrwt>
<totfact> 0.33668622E+04</totfact>
</mgrwt>
</event>
<event>
 6    1  0.1284012E-001  0.3000000E+03  0.7818608E-02  0.1093470E+00
         21   -1    0    0  501  502  0.00000000000E+00  0.00000000000E+00  0.30108355616E+01  0.30108355616E+01  0.00000000000E+00 0. -1.
         13   -1    0    0    0    0 -0.00000000000E+00 -0.00000000000E+00 -0.10000000000E+04  0.10000000000E+04  0.00000000000E+00 0.  1.
    9000005    2    1    2  501    0  0.36209986302E+02  0.15558149853E+02 -0.84728421907E+03  0.84820518385E+03  0.28752193617E+01 0.  0.
         13    1    3    3    0    0  0.25935102797E+02  0.10381713898E+02 -0.57575983154E+03  0.57643715456E+03  0.00000000000E+00 0.  1.
          3    1    3    3  501    0  0.10274883505E+02  0.51764359558E+01 -0.27152438753E+03  0.27176802929E+03  0.00000000000E+00 0.  1.
         -1    1    1    2    0  502 -0.36209986302E+02 -0.15558149853E+02 -0.14970494537E+03  0.15480565172E+03  0.00000000000E+00 0. -1.
<mgrwt>
<rscale>  1 0.30000000E+03</rscale>
<asrwt>0</asrwt>
<pdfrwt beam="1">  1       21 0.10948516E-01 0.30000000E+03</pdfrwt>
<pdfrwt beam="2">0</pdfrwt>
<totfact> 0.73134791E+03</totfact>
</mgrwt>
</event>
<event>
 6    1  0.1284012E-001  0.3000000E+03  0.7818608E-02  0.1093470E+00
         21   -1    0    0  501  502  0.00000000000E+00  0.00000000000E+00  0.13866361242E+01  0.13866361242E+01  0.00000000000E+00 0. -1.
         13   -1    0    0    0    0 -0.00000000000E+00 -0.00000000000E+00 -0.10000000000E+04  0.10000000000E+04  0.00000000000E+00 0.  1.
    9000005    2    1    2  501    0 -0.33103787546E+02 -0.16926588703E+02 -0.51136970775E+03  0.51272647754E+03  0.26631952195E+01 0.  0.
         13    1    3    3    0    0 -0.25179021529E+02 -0.11589021154E+02 -0.38301707609E+03  0.38401870932E+03  0.00000000000E+00 0.  1.
          3    1    3    3  501    0 -0.79247660169E+01 -0.53375675488E+01 -0.12835263167E+03  0.12870776822E+03  0.00000000000E+00 0.  1.
         -1    1    1    2    0  502  0.33103787546E+02  0.16926588703E+02 -0.48724365612E+03  0.48866015858E+03  0.00000000000E+00 0. -1.
<mgrwt>
<rscale>  1 0.30000000E+03</rscale>
<asrwt>0</asrwt>
<pdfrwt beam="1">  1       21 0.50423238E-02 0.30000000E+03</pdfrwt>
<pdfrwt beam="2">0</pdfrwt>
<totfact> 0.28393625E+04</totfact>
</mgrwt>
</event>
<event>
 6    1  0.1284012E-001  0.3000000E+03  0.7818608E-02  0.1093470E+00
         21   -1    0    0  501  502  0.00000000000E+00  0.00000000000E+00  0.13432611165E+01  0.13432611165E+01  0.00000000000E+00 0. -1.
         13   -1    0    0    0    0 -0.00000000000E+00 -0.00000000000E+00 -0.10000000000E+04  0.10000000000E+04  0.00000000000E+00 0.  1.
    9000005    2    1    2  501    0 -0.93517404358E+01  0.30968442939E+02 -0.73296685235E+03  0.73369121963E+03  0.39874310946E+01 0.  0.
         13    1    3    3    0    0 -0.28390259737E+00  0.11137982078E+01 -0.48449912254E+02  0.48463544490E+02  0.00000000000E+00 0.  1.
          3    1    3    3  501    0 -0.90678378384E+01  0.29854644731E+02 -0.68451694010E+03  0.68522767514E+03  0.00000000000E+00 0.  1.
         -3    1    1    2    0  502  0.93517404358E+01 -0.30968442939E+02 -0.26568988653E+03  0.26765204149E+03  0.00000000000E+00 0. -1.
<mgrwt>
<rscale>  1 0.30000000E+03</rscale>
<asrwt>0</asrwt>
<pdfrwt beam="1">  1       21 0.48845962E-02 0.30000000E+03</pdfrwt>
<pdfrwt beam="2">0</pdfrwt>
<totfact> 0.29973763E+04</totfact>
</mgrwt>
</event>
<event>
 6    1  0.1284012E-001  0.3000000E+03  0.7818608E-02  0.1093470E+00
         21   -1    0    0  501  502  0.00000000000E+00  0.00000000000E+00  0.33639090226E+01  0.33639090226E+01  0.00000000000E+00 0. -1.
         13   -1    0    0    0    0 -0.00000000000E+00 -0.00000000000E+00 -0.10000000000E+04  0.10000000000E+04  0.00000000000E+00 0.  1.
    9000005    2    1    2  501    0  0.11917710028E+02 -0.35136348659E+02 -0.88380880319E+03  0.88459273542E+03  0.31164326947E+01 0.  0.
         13    1    3    3    0    0  0.13326544984E+01 -0.17498390246E+01 -0.57085894268E+02  0.57128252459E+02  0.00000000000E+00 0.  1.
          1    1    3    3  501    0  0.10585055529E+02 -0.33386509634E+02 -0.82672290892E+03  0.82746448296E+03  0.00000000000E+00 0.  1.
         -1    1    1    2    0  502 -0.11917710028E+02  0.35136348659E+02 -0.11282728778E+03  0.11877117360E+03  0.00000000000E+00 0. -1.
<mgrwt>
<rscale>  1 0.30000000E+03</rscale>
<asrwt>0</asrwt>
<pdfrwt beam="1">  1       21 0.12232422E-01 0.30000000E+03</pdfrwt>
<pdfrwt beam="2">0</pdfrwt>
<totfact> 0.59848342E+03</totfact>
</mgrwt>
</event>
<event>
 6    1  0.1284012E-001  0.3000000E+03  0.7818608E-02  0.1093470E+00
         21   -1    0    0  501  502  0.00000000000E+00  0.00000000000E+00  0.53876255888E+01  0.53876255888E+01  0.00000000000E+00 0. -1.
         13   -1    0    0    0    0 -0.00000000000E+00 -0.00000000000E+00 -0.10000000000E+04  0.10000000000E+04  0.00000000000E+00 0.  1.
    9000005    2    1    2  501    0  0.19727825640E+02  0.56926110789E+02 -0.78421746538E+03  0.78653656450E+03  0.36007071543E+01 0.  0.
         13    1    3    3    0    0  0.17040074120E+02  0.51900496227E+02 -0.71703249294E+03  0.71911029860E+03  0.00000000000E+00 0.  1.
          1    1    3    3  501    0  0.26877515195E+01  0.50256145613E+01 -0.67184972449E+02  0.67426265898E+02  0.00000000000E+00 0.  1.
         -1    1    1    2    0  502 -0.19727825640E+02 -0.56926110789E+02 -0.21039490903E+03  0.21885106109E+03  0.00000000000E+00 0. -1.
<mgrwt>
<rscale>  1 0.30000000E+03</rscale>
<asrwt>0</asrwt>
<pdfrwt beam="1">  1       21 0.19591407E-01 0.30000000E+03</pdfrwt>
<pdfrwt beam="2">0</pdfrwt>
<totfact> 0.24954987E+03</totfact>
</mgrwt>
</event>
<event>
 6    1  0.1284012E-001  0.3000000E+03  0.7818608E-02  0.1093470E+00
         21   -1    0    0  501  502  0.00000000000E+00  0.00000000000E+00  0.17519102811E+01  0.17519102811E+01  0.00000000000E+00 0. -1.
         13   -1    0    0    0    0 -0.00000000000E+00 -0.00000000000E+00 -0.10000000000E+04  0.10000000000E+04  0.00000000000E+00 0.  1.
    9000005    2    1    2  501    0  0.37619617402E+02 -0.11624342352E+02 -0.65372627604E+03  0.65498737771E+03  0.10003000838E+02 0.  0.
         13    1    3    3    0    0  0.30146995612E+02 -0.96737786870E+01 -0.57848770325E+03  0.57935347255E+03  0.00000000000E+00 0.  1.
          3    1    3    3  501    0  0.74726217907E+01 -0.19505636645E+01 -0.75238572784E+02  0.75633905159E+02  0.00000000000E+00 0.  1.
         -3    1    1    2    0  502 -0.37619617402E+02  0.11624342352E+02 -0.34452181368E+03  0.34676453258E+03  0.00000000000E+00 0. -1.
<mgrwt>
<rscale>  1 0.30000000E+03</rscale>
<asrwt>0</asrwt>
<pdfrwt beam="1">  1       21 0.63705963E-02 0.30000000E+03</pdfrwt>
<pdfrwt beam="2">0</pdfrwt>
<totfact> 0.18999807E+04</totfact>
</mgrwt>
</event>
<event>
 6    1  0.1284012E-001  0.3000000E+03  0.7818608E-02  0.1093470E+00
         21   -1    0    0  501  502  0.00000000000E+00  0.00000000000E+00  0.22291476353E+01  0.22291476353E+01  0.00000000000E+00 0. -1.
         13   -1    0    0    0    0 -0.00000000000E+00 -0.00000000000E+00 -0.10000000000E+04  0.10000000000E+04  0.00000000000E+00 0.  1.
    9000005    2    1    2  501    0 -0.12856567759E+02  0.34028634628E+02 -0.81660473913E+03  0.81744711416E+03  0.72969292777E+01 0.  0.
         13    1    3    3    0    0 -0.10077812276E+02  0.18751699940E+02 -0.52117811751E+03  0.52161270951E+03  0.00000000000E+00 0.  1.
          3    1    3    3  501    0 -0.27787554828E+01  0.15276934688E+02 -0.29542662161E+03  0.29583440465E+03  0.00000000000E+00 0.  1.
         -1    1    1    2    0  502  0.12856567759E+02 -0.34028634628E+02 -0.18116611324E+03  0.18478203348E+03  0.00000000000E+00 0. -1.
<mgrwt>
<rscale>  1 0.30000000E+03</rscale>
<asrwt>0</asrwt>
<pdfrwt beam="1">  1       21 0.81060085E-02 0.30000000E+03</pdfrwt>
<pdfrwt beam="2">0</pdfrwt>
<totfact> 0.12481789E+04</totfact>
</mgrwt>
</event>
<event>
 6    1  0.1284012E-001  0.3000000E+03  0.7818608E-02  0.1093470E+00
         21   -1    0    0  501  502  0.00000000000E+00  0.00000000000E+00  0.11880903209E+01  0.11880903209E+01  0.00000000000E+00 0. -1.
         13   -1    0    0    0    0 -0.00000000000E+00 -0.00000000000E+00 -0.10000000000E+04  0.10000000000E+04  0.00000000000E+00 0.  1.
    9000005    2    1    2  501    0  0.24300615760E+02  0.21159893640E+02 -0.67491340920E+03  0.67569077906E+03  0.34143760968E+01 0.  0.
         13    1    3    3    0    0  0.16624527243E+01  0.12087192246E+01 -0.28886713001E+02  0.28959746878E+02  0.00000000000E+00 0.  1.
          3    1    3    3  501    0  0.22638163035E+02  0.19951174415E+02 -0.64602669620E+03  0.64673103218E+03  0.00000000000E+00 0.  1.
         -1    1    1    2    0  502 -0.24300615760E+02 -0.21159893640E+02 -0.32389850048E+03  0.32549731126E+03  0.00000000000E+00 0. -1.
<mgrwt>
<rscale>  1 0.30000000E+03</rscale>
<asrwt>0</asrwt>
<pdfrwt beam="1">  1       21 0.43203375E-02 0.30000000E+03</pdfrwt>
<pdfrwt beam="2">0</pdfrwt>
<totfact> 0.36920889E+04</totfact>
</mgrwt>
</event>
<event>
 6    1  0.1284012E-001  0.3000000E+03  0.7818608E-02  0.1093470E+00
         21   -1    0    0  501  502  0.00000000000E+00  0.00000000000E+00  0.46089637285E+01  0.46089637285E+01  0.00000000000E+00 0. -1.
         13   -1    0    0    0    0 -0.00000000000E+00 -0.00000000000E+00 -0.10000000000E+04  0.10000000000E+04  0.00000000000E+00 0.  1.
    9000005    2    1    2  501    0  0.26350298790E+02  0.21676658012E+02 -0.93189635121E+03  0.93252712982E+03  0.34384150095E+01 0.  0.
         13    1    3    3    0    0  0.14125964849E+02  0.10354607560E+02 -0.51593057492E+03  0.51622777814E+03  0.00000000000E+00 0.  1.
          1    1    3    3  501    0  0.12224333941E+02  0.11322050452E+02 -0.41596577629E+03  0.41629935169E+03  0.00000000000E+00 0.  1.
         -1    1    1    2    0  502 -0.26350298790E+02 -0.21676658012E+02 -0.63494685058E+02  0.72081833908E+02  0.00000000000E+00 0. -1.
<mgrwt>
<rscale>  1 0.30000000E+03</rscale>
<asrwt>0</asrwt>
<pdfrwt beam="1">  1       21 0.16759903E-01 0.30000000E+03</pdfrwt>
<pdfrwt beam="2">0</pdfrwt>
<totfact> 0.33495233E+03</totfact>
</mgrwt>
</event>
<event>
 6    1  0.1284012E-001  0.3000000E+03  0.7818608E-02  0.1093470E+00
         21   -1    0    0  501  502  0.00000000000E+00  0.00000000000E+00  0.49954816609E+01  0.49954816609E+01  0.00000000000E+00 0. -1.
         13   -1    0    0    0    0 -0.00000000000E+00 -0.00000000000E+00 -0.10000000000E+04  0.10000000000E+04  0.00000000000E+00 0.  1.
    9000005    2    1    2  501    0 -0.34445922065E+02 -0.12248029267E+02 -0.92749979637E+03  0.92822684708E+03  0.35597189390E+01 0.  0.
         13    1    3    3    0    0 -0.25091641807E+02 -0.74829068523E+01 -0.63966201852E+03  0.64019769003E+03  0.00000000000E+00 0.  1.
          1    1    3    3  501    0 -0.93542802589E+01 -0.47651224146E+01 -0.28783777785E+03  0.28802915705E+03  0.00000000000E+00 0.  1.
         -1    1    1    2    0  502  0.34445922065E+02  0.12248029267E+02 -0.67504721968E+02  0.76768634584E+02  0.00000000000E+00 0. -1.
<mgrwt>
<rscale>  1 0.30000000E+03</rscale>
<asrwt>0</asrwt>
<pdfrwt beam="1">  1       21 0.18165426E-01 0.30000000E+03</pdfrwt>
<pdfrwt beam="2">0</pdfrwt>
<totfact> 0.28794834E+03</totfact>
</mgrwt>
</event>
<event>
 6    1  0.1284012E-001  0.3000000E+03  0.7818608E-02  0.1093470E+00
         21   -1    0    0  501  502  0.00000000000E+00  0.00000000000E+00  0.15829621169E+01  0.15829621169E+01  0.00000000000E+00 0. -1.
         13   -1    0    0    0    0 -0.00000000000E+00 -0.00000000000E+00 -0.10000000000E+04  0.10000000000E+04  0.00000000000E+00 0.  1.
    9000005    2    1    2  501    0 -0.18567956999E+02  0.25942389955E+02 -0.79779189543E+03  0.79843714156E+03  0.34905575089E+01 0.  0.
         13    1    3    3    0    0 -0.16808197992E+02  0.24836182962E+02 -0.75334887086E+03  0.75394553698E+03  0.00000000000E+00 0.  1.
          3    1    3    3  501    0 -0.17597590071E+01  0.11062069926E+01 -0.44443024561E+02  0.44491604577E+02  0.00000000000E+00 0.  1.
         -1    1    1    2    0  502  0.18567956999E+02 -0.25942389955E+02 -0.20062514246E+03  0.20314582056E+03  0.00000000000E+00 0. -1.
<mgrwt>
<rscale>  1 0.30000000E+03</rscale>
<asrwt>0</asrwt>
<pdfrwt beam="1">  1       21 0.57562380E-02 0.30000000E+03</pdfrwt>
<pdfrwt beam="2">0</pdfrwt>
<totfact> 0.22632760E+04</totfact>
</mgrwt>
</event>
<event>
 6    1  0.1284012E-001  0.3000000E+03  0.7818608E-02  0.1093470E+00
         21   -1    0    0  501  502  0.00000000000E+00  0.00000000000E+00  0.65904453658E+01  0.65904453658E+01  0.00000000000E+00 0. -1.
         13   -1    0    0    0    0 -0.00000000000E+00 -0.00000000000E+00 -0.10000000000E+04  0.10000000000E+04  0.00000000000E+00 0.  1.
    9000005    2    1    2  501    0  0.49022886659E+02 -0.51137674147E+02 -0.25102391168E+03  0.26083261067E+03  0.15301713932E+01 0.  0.
         13    1    3    3    0    0  0.18337059424E+02 -0.19340865899E+02 -0.97128880752E+02  0.10071909609E+03  0.00000000000E+00 0.  1.
          1    1    3    3  501    0  0.30685827234E+02 -0.31796808247E+02 -0.15389503092E+03  0.16011351458E+03  0.00000000000E+00 0.  1.
         -1    1    1    2    0  502 -0.49022886659E+02  0.51137674147E+02 -0.74238564296E+03  0.74575783469E+03  0.00000000000E+00 0. -1.
<mgrwt>
<rscale>  1 0.30000000E+03</rscale>
<asrwt>0</asrwt>
<pdfrwt beam="1">  1       21 0.23965306E-01 0.30000000E+03</pdfrwt>
<pdfrwt beam="2">0</pdfrwt>
<totfact> 0.16936671E+03</totfact>
</mgrwt>
</event>
<event>
 6    1  0.1284012E-001  0.3000000E+03  0.7818608E-02  0.1093470E+00
         21   -1    0    0  501  502  0.00000000000E+00  0.00000000000E+00  0.65051761629E+01  0.65051761629E+01  0.00000000000E+00 0. -1.
         13   -1    0    0    0    0 -0.00000000000E+00 -0.00000000000E+00 -0.10000000000E+04  0.10000000000E+04  0.00000000000E+00 0.  1.
    9000005    2    1    2  501    0 -0.36253709395E+02  0.70764478643E+02 -0.41275892564E+03  0.42035150489E+03  0.18745911336E+01 0.  0.
         13    1    3    3    0    0 -0.22974256155E+02  0.43114942519E+02 -0.25598178183E+03  0.26060197111E+03  0.00000000000E+00 0.  1.
          1    1    3    3  501    0 -0.13279453240E+02  0.27649536124E+02 -0.15677714380E+03  0.15974953379E+03  0.00000000000E+00 0.  1.
         -1    1    1    2    0  502  0.36253709395E+02 -0.70764478643E+02 -0.58073589820E+03  0.58615367127E+03  0.00000000000E+00 0. -1.
<mgrwt>
<rscale>  1 0.30000000E+03</rscale>
<asrwt>0</asrwt>
<pdfrwt beam="1">  1       21 0.23655236E-01 0.30000000E+03</pdfrwt>
<pdfrwt beam="2">0</pdfrwt>
<totfact> 0.17370783E+03</totfact>
</mgrwt>
</event>
<event>
 6    1  0.1284012E-001  0.3000000E+03  0.7818608E-02  0.1093470E+00
         21   -1    0    0  501  502  0.00000000000E+00  0.00000000000E+00  0.60610792182E+01  0.60610792182E+01  0.00000000000E+00 0. -1.
         13   -1    0    0    0    0 -0.00000000000E+00 -0.00000000000E+00 -0.10000000000E+04  0.10000000000E+04  0.00000000000E+00 0.  1.
    9000005    2    1    2  501    0  0.34241444188E+02  0.42117702773E+02 -0.85749554749E+03  0.85921704120E+03  0.29887341214E+01 0.  0.
         13    1    3    3    0    0  0.28024148594E+02  0.36146546780E+02 -0.72566915815E+03  0.72710910655E+03  0.00000000000E+00 0.  1.
          3    1    3    3  501    0  0.62172955937E+01  0.59711559931E+01 -0.13182638935E+03  0.13210793465E+03  0.00000000000E+00 0.  1.
         -3    1    1    2    0  502 -0.34241444188E+02 -0.42117702773E+02 -0.13644337329E+03  0.14684403802E+03  0.00000000000E+00 0. -1.
<mgrwt>
<rscale>  1 0.30000000E+03</rscale>
<asrwt>0</asrwt>
<pdfrwt beam="1">  1       21 0.22040335E-01 0.30000000E+03</pdfrwt>
<pdfrwt beam="2">0</pdfrwt>
<totfact> 0.19915565E+03</totfact>
</mgrwt>
</event>
<event>
 6    1  0.1284012E-001  0.3000000E+03  0.7818608E-02  0.1093470E+00
         21   -1    0    0  501  502  0.00000000000E+00  0.00000000000E+00  0.19535756502E+01  0.19535756502E+01  0.00000000000E+00 0. -1.
         13   -1    0    0    0    0 -0.00000000000E+00 -0.00000000000E+00 -0.10000000000E+04  0.10000000000E+04  0.00000000000E+00 0.  1.
    9000005    2    1    2  501    0  0.15871750919E+02  0.35473961638E+02 -0.73677196751E+03  0.73780464753E+03  0.35286502569E+01 0.  0.
         13    1    3    3    0    0  0.15263536449E+02  0.34903155384E+02 -0.72688767097E+03  0.72788521898E+03  0.00000000000E+00 0.  1.
          1    1    3    3  501    0  0.60821447035E+00  0.57080625430E+00 -0.98842965402E+01  0.99194285479E+01  0.00000000000E+00 0.  1.
         -3    1    1    2    0  502 -0.15871750919E+02 -0.35473961638E+02 -0.26127445684E+03  0.26414892812E+03  0.00000000000E+00 0. -1.
<mgrwt>
<rscale>  1 0.30000000E+03</rscale>
<asrwt>0</asrwt>
<pdfrwt beam="1">  1       21 0.71039264E-02 0.30000000E+03</pdfrwt>
<pdfrwt beam="2">0</pdfrwt>
<totfact> 0.15726463E+04</totfact>
</mgrwt>
</event>
<event>
 6    1  0.1284012E-001  0.3000000E+03  0.7818608E-02  0.1093470E+00
         21   -1    0    0  501  502  0.00000000000E+00  0.00000000000E+00  0.11530479586E+01  0.11530479586E+01  0.00000000000E+00 0. -1.
         13   -1    0    0    0    0 -0.00000000000E+00 -0.00000000000E+00 -0.10000000000E+04  0.10000000000E+04  0.00000000000E+00 0.  1.
    9000005    2    1    2  501    0 -0.30276162110E+02 -0.13955271614E+02 -0.58937896426E+03  0.59033018027E+03  0.32806444147E+01 0.  0.
         13    1    3    3    0    0 -0.23364630141E+02 -0.11448679289E+02 -0.47966422867E+03  0.48036938960E+03  0.00000000000E+00 0.  1.
          3    1    3    3  501    0 -0.69115319693E+01 -0.25065923249E+01 -0.10971473560E+03  0.10996079068E+03  0.00000000000E+00 0.  1.
         -3    1    1    2    0  502  0.30276162110E+02  0.13955271614E+02 -0.40946798778E+03  0.41082286769E+03  0.00000000000E+00 0. -1.
<mgrwt>
<rscale>  1 0.30000000E+03</rscale>
<asrwt>0</asrwt>
<pdfrwt beam="1">  1       21 0.41929105E-02 0.30000000E+03</pdfrwt>
<pdfrwt beam="2">0</pdfrwt>
<totfact> 0.38837088E+04</totfact>
</mgrwt>
</event>
<event>
 6    1  0.1284012E-001  0.3000000E+03  0.7818608E-02  0.1093470E+00
         21   -1    0    0  501  502  0.00000000000E+00  0.00000000000E+00  0.16426966391E+01  0.16426966391E+01  0.00000000000E+00 0. -1.
         13   -1    0    0    0    0 -0.00000000000E+00 -0.00000000000E+00 -0.10000000000E+04  0.10000000000E+04  0.00000000000E+00 0.  1.
    9000005    2    1    2  501    0  0.72214329901E+01 -0.29823727883E+02 -0.82580855627E+03  0.82638667260E+03  0.36820107767E+01 0.  0.
         13    1    3    3    0    0  0.14825933513E+01 -0.73821030377E+01 -0.16374977991E+03  0.16392279875E+03  0.00000000000E+00 0.  1.
          3    1    3    3  501    0  0.57388396388E+01 -0.22441624846E+02 -0.66205877636E+03  0.66246387385E+03  0.00000000000E+00 0.  1.
         -3    1    1    2    0  502 -0.72214329901E+01  0.29823727883E+02 -0.17254874709E+03  0.17525602404E+03  0.00000000000E+00 0. -1.
<mgrwt>
<rscale>  1 0.30000000E+03</rscale>
<asrwt>0</asrwt>
<pdfrwt beam="1">  1       21 0.59734549E-02 0.30000000E+03</pdfrwt>
<pdfrwt beam="2">0</pdfrwt>
<totfact> 0.21233405E+04</totfact>
</mgrwt>
</event>
<event>
 6    1  0.1284012E-001  0.3000000E+03  0.7818608E-02  0.1093470E+00
         21   -1    0    0  501  502  0.00000000000E+00  0.00000000000E+00  0.46275153761E+01  0.46275153761E+01  0.00000000000E+00 0. -1.
         13   -1    0    0    0    0 -0.00000000000E+00 -0.00000000000E+00 -0.10000000000E+04  0.10000000000E+04  0.00000000000E+00 0.  1.
    9000005    2    1    2  501    0 -0.25851730247E+02 -0.31285072489E+02 -0.90074637952E+03  0.90166554431E+03  0.31057803623E+01 0.  0.
         13    1    3    3    0    0 -0.48790732681E+01 -0.68939565745E+01 -0.21266804619E+03  0.21283568747E+03  0.00000000000E+00 0.  1.
          3    1    3    3  501    0 -0.20972656979E+02 -0.24391115915E+02 -0.68807833333E+03  0.68882985684E+03  0.00000000000E+00 0.  1.
         -1    1    1    2    0  502  0.25851730247E+02  0.31285072489E+02 -0.94626105108E+02  0.10296197106E+03  0.00000000000E+00 0. -1.
<mgrwt>
<rscale>  1 0.30000000E+03</rscale>
<asrwt>0</asrwt>
<pdfrwt beam="1">  1       21 0.16827364E-01 0.30000000E+03</pdfrwt>
<pdfrwt beam="2">0</pdfrwt>
<totfact> 0.33244434E+03</totfact>
</mgrwt>
</event>
<event>
 6    1  0.1284012E-001  0.3000000E+03  0.7818608E-02  0.1093470E+00
         21   -1    0    0  501  502  0.00000000000E+00  0.00000000000E+00  0.17043015670E+01  0.17043015670E+01  0.00000000000E+00 0. -1.
         13   -1    0    0    0    0 -0.00000000000E+00 -0.00000000000E+00 -0.10000000000E+04  0.10000000000E+04  0.00000000000E+00 0.  1.
    9000005    2    1    2  501    0  0.11551930422E+02  0.31762284770E+02 -0.78615928492E+03  0.78689241230E+03  0.33102033974E+01 0.  0.
         13    1    3    3    0    0  0.51434269168E+01  0.14108427641E+02 -0.31160158908E+03  0.31196322361E+03  0.00000000000E+00 0.  1.
          1    1    3    3  501    0  0.64085035057E+01  0.17653857129E+02 -0.47455769584E+03  0.47492918869E+03  0.00000000000E+00 0.  1.
         -3    1    1    2    0  502 -0.11551930422E+02 -0.31762284770E+02 -0.21213641352E+03  0.21481188926E+03  0.00000000000E+00 0. -1.
<mgrwt>
<rscale>  1 0.30000000E+03</rscale>
<asrwt>0</asrwt>
<pdfrwt beam="1">  1       21 0.61974733E-02 0.30000000E+03</pdfrwt>
<pdfrwt beam="2">0</pdfrwt>
<totfact> 0.19926364E+04</totfact>
</mgrwt>
</event>
<event>
 6    1  0.1284012E-001  0.3000000E+03  0.7818608E-02  0.1093470E+00
         21   -1    0    0  501  502  0.00000000000E+00  0.00000000000E+00  0.23733938549E+01  0.23733938549E+01  0.00000000000E+00 0. -1.
         13   -1    0    0    0    0 -0.00000000000E+00 -0.00000000000E+00 -0.10000000000E+04  0.10000000000E+04  0.00000000000E+00 0.  1.
    9000005    2    1    2  501    0  0.17786922822E+02 -0.28451911780E+02 -0.86195741965E+03  0.86261641166E+03  0.32549149687E+01 0.  0.
         13    1    3    3    0    0  0.17621873036E+02 -0.28305666254E+02 -0.86008442145E+03  0.86073047650E+03  0.00000000000E+00 0.  1.
          1    1    3    3  501    0  0.16504978624E+00 -0.14624552592E+00 -0.18729982036E+01  0.18859351677E+01  0.00000000000E+00 0.  1.
         -3    1    1    2    0  502 -0.17786922822E+02  0.28451911780E+02 -0.13566918649E+03  0.13975698219E+03  0.00000000000E+00 0. -1.
<mgrwt>
<rscale>  1 0.30000000E+03</rscale>
<asrwt>0</asrwt>
<pdfrwt beam="1">  1       21 0.86305413E-02 0.30000000E+03</pdfrwt>
<pdfrwt beam="2">0</pdfrwt>
<totfact> 0.11176634E+04</totfact>
</mgrwt>
</event>
<event>
 6    1  0.1284012E-001  0.3000000E+03  0.7818608E-02  0.1093470E+00
         21   -1    0    0  501  502  0.00000000000E+00  0.00000000000E+00  0.11149397240E+01  0.11149397240E+01  0.00000000000E+00 0. -1.
         13   -1    0    0    0    0 -0.00000000000E+00 -0.00000000000E+00 -0.10000000000E+04  0.10000000000E+04  0.00000000000E+00 0.  1.
    9000005    2    1    2  501    0  0.31979794400E+02  0.88835461629E+01 -0.54242546406E+03  0.54345022881E+03  0.33380362463E+01 0.  0.
         13    1    3    3    0    0  0.27377229279E+02  0.73908485104E+01 -0.44251312902E+03  0.44342080091E+03  0.00000000000E+00 0.  1.
          1    1    3    3  501    0  0.46025651209E+01  0.14926976525E+01 -0.99912335040E+02  0.10002942790E+03  0.00000000000E+00 0.  1.
         -3    1    1    2    0  502 -0.31979794400E+02 -0.88835461629E+01 -0.45645959621E+03  0.45766471092E+03  0.00000000000E+00 0. -1.
<mgrwt>
<rscale>  1 0.30000000E+03</rscale>
<asrwt>0</asrwt>
<pdfrwt beam="1">  1       21 0.40543348E-02 0.30000000E+03</pdfrwt>
<pdfrwt beam="2">0</pdfrwt>
<totfact> 0.41102397E+04</totfact>
</mgrwt>
</event>
<event>
 6    1  0.1284012E-001  0.3000000E+03  0.7818608E-02  0.1093470E+00
         21   -1    0    0  501  502  0.00000000000E+00  0.00000000000E+00  0.16204956171E+01  0.16204956171E+01  0.00000000000E+00 0. -1.
         13   -1    0    0    0    0 -0.00000000000E+00 -0.00000000000E+00 -0.10000000000E+04  0.10000000000E+04  0.00000000000E+00 0.  1.
    9000005    2    1    2  501    0  0.86103196601E+01 -0.36136125133E+02 -0.31398636619E+03  0.31621993773E+03  0.52586805803E+01 0.  0.
         13    1    3    3    0    0  0.55945652275E+01 -0.30135701936E+02 -0.24579773490E+03  0.24770140527E+03  0.00000000000E+00 0.  1.
          1    1    3    3  501    0  0.30157544326E+01 -0.60004231976E+01 -0.68188631290E+02  0.68518532460E+02  0.00000000000E+00 0.  1.
         -3    1    1    2    0  502 -0.86103196601E+01  0.36136125133E+02 -0.68439313820E+03  0.68540055789E+03  0.00000000000E+00 0. -1.
<mgrwt>
<rscale>  1 0.30000000E+03</rscale>
<asrwt>0</asrwt>
<pdfrwt beam="1">  1       21 0.58927238E-02 0.30000000E+03</pdfrwt>
<pdfrwt beam="2">0</pdfrwt>
<totfact> 0.21737372E+04</totfact>
</mgrwt>
</event>
<event>
 6    1  0.1284012E-001  0.3000000E+03  0.7818608E-02  0.1093470E+00
         21   -1    0    0  501  502  0.00000000000E+00  0.00000000000E+00  0.28168649219E+01  0.28168649219E+01  0.00000000000E+00 0. -1.
         13   -1    0    0    0    0 -0.00000000000E+00 -0.00000000000E+00 -0.10000000000E+04  0.10000000000E+04  0.00000000000E+00 0.  1.
    9000005    2    1    2  501    0 -0.21628264495E+02  0.37775352358E+02 -0.78503788312E+03  0.78625193932E+03  0.35881870744E+01 0.  0.
         13    1    3    3    0    0 -0.85044818535E+01  0.12103659593E+02 -0.28466086652E+03  0.28504496788E+03  0.00000000000E+00 0.  1.
          3    1    3    3  501    0 -0.13123782642E+02  0.25671692765E+02 -0.50037701660E+03  0.50120697144E+03  0.00000000000E+00 0.  1.
         -1    1    1    2    0  502  0.21628264495E+02 -0.37775352358E+02 -0.21214525196E+03  0.21656492560E+03  0.00000000000E+00 0. -1.
<mgrwt>
<rscale>  1 0.30000000E+03</rscale>
<asrwt>0</asrwt>
<pdfrwt beam="1">  1       21 0.10243167E-01 0.30000000E+03</pdfrwt>
<pdfrwt beam="2">0</pdfrwt>
<totfact> 0.82414163E+03</totfact>
</mgrwt>
</event>
<event>
 6    1  0.1284012E-001  0.3000000E+03  0.7818608E-02  0.1093470E+00
         21   -1    0    0  501  502  0.00000000000E+00  0.00000000000E+00  0.14103398849E+01  0.14103398849E+01  0.00000000000E+00 0. -1.
         13   -1    0    0    0    0 -0.00000000000E+00 -0.00000000000E+00 -0.10000000000E+04  0.10000000000E+04  0.00000000000E+00 0.  1.
    9000005    2    1    2  501    0 -0.37816048535E+01 -0.36956178020E+02 -0.43273438472E+03  0.43433692989E+03  0.30759257836E+01 0.  0.
         13    1    3    3    0    0 -0.36173705388E+01 -0.34550219884E+02 -0.39450676603E+03  0.39603332121E+03  0.00000000000E+00 0.  1.
          1    1    3    3  501    0 -0.16423431471E+00 -0.24059581358E+01 -0.38227618684E+02  0.38303608677E+02  0.00000000000E+00 0.  1.
         -1    1    1    2    0  502  0.37816048535E+01  0.36956178020E+02 -0.56585527540E+03  0.56707341000E+03  0.00000000000E+00 0. -1.
<mgrwt>
<rscale>  1 0.30000000E+03</rscale>
<asrwt>0</asrwt>
<pdfrwt beam="1">  1       21 0.51285195E-02 0.30000000E+03</pdfrwt>
<pdfrwt beam="2">0</pdfrwt>
<totfact> 0.27584237E+04</totfact>
</mgrwt>
</event>
<event>
 6    1  0.1284012E-001  0.3000000E+03  0.7818608E-02  0.1093470E+00
         21   -1    0    0  501  502  0.00000000000E+00  0.00000000000E+00  0.27176933789E+01  0.27176933789E+01  0.00000000000E+00 0. -1.
         13   -1    0    0    0    0 -0.00000000000E+00 -0.00000000000E+00 -0.10000000000E+04  0.10000000000E+04  0.00000000000E+00 0.  1.
    9000005    2    1    2  501    0  0.66962666462E+01  0.32739138643E+02 -0.88331374555E+03  0.88395101413E+03  0.30872521983E+01 0.  0.
         13    1    3    3    0    0  0.37280241109E+00  0.78821172605E+01 -0.22089708725E+03  0.22103798295E+03  0.00000000000E+00 0.  1.
          3    1    3    3  501    0  0.63234642351E+01  0.24857021383E+02 -0.66241665830E+03  0.66291303118E+03  0.00000000000E+00 0.  1.
         -3    1    1    2    0  502 -0.66962666462E+01 -0.32739138643E+02 -0.11396856107E+03  0.11876667925E+03  0.00000000000E+00 0. -1.
<mgrwt>
<rscale>  1 0.30000000E+03</rscale>
<asrwt>0</asrwt>
<pdfrwt beam="1">  1       21 0.98825422E-02 0.30000000E+03</pdfrwt>
<pdfrwt beam="2">0</pdfrwt>
<totfact> 0.87866951E+03</totfact>
</mgrwt>
</event>
<event>
 6    1  0.1284012E-001  0.3000000E+03  0.7818608E-02  0.1093470E+00
         21   -1    0    0  501  502  0.00000000000E+00  0.00000000000E+00  0.35257341876E+01  0.35257341876E+01  0.00000000000E+00 0. -1.
         13   -1    0    0    0    0 -0.00000000000E+00 -0.00000000000E+00 -0.10000000000E+04  0.10000000000E+04  0.00000000000E+00 0.  1.
    9000005    2    1    2  501    0  0.27918654504E+02 -0.35243273254E+02 -0.82569295039E+03  0.82692506240E+03  0.38302637050E+01 0.  0.
         13    1    3    3    0    0  0.59556211775E+01 -0.10174594462E+02 -0.22175276365E+03  0.22206593612E+03  0.00000000000E+00 0.  1.
          3    1    3    3  501    0  0.21963033327E+02 -0.25068678791E+02 -0.60394018674E+03  0.60485912628E+03  0.00000000000E+00 0.  1.
         -3    1    1    2    0  502 -0.27918654504E+02  0.35243273254E+02 -0.17078131542E+03  0.17660067179E+03  0.00000000000E+00 0. -1.
<mgrwt>
<rscale>  1 0.30000000E+03</rscale>
<asrwt>0</asrwt>
<pdfrwt beam="1">  1       21 0.12820879E-01 0.30000000E+03</pdfrwt>
<pdfrwt beam="2">0</pdfrwt>
<totfact> 0.54939062E+03</totfact>
</mgrwt>
</event>
<event>
 6    1  0.1284012E-001  0.3000000E+03  0.7818608E-02  0.1093470E+00
         21   -1    0    0  501  502  0.00000000000E+00  0.00000000000E+00  0.13757480086E+01  0.13757480086E+01  0.00000000000E+00 0. -1.
         13   -1    0    0    0    0 -0.00000000000E+00 -0.00000000000E+00 -0.10000000000E+04  0.10000000000E+04  0.00000000000E+00 0.  1.
    9000005    2    1    2  501    0  0.35928723807E+01 -0.33209345789E+02 -0.71350106473E+03  0.71430258435E+03  0.53519395179E+01 0.  0.
         13    1    3    3    0    0  0.49031171152E+01 -0.29013992633E+02 -0.61522378395E+03  0.61592707089E+03  0.00000000000E+00 0.  1.
          1    1    3    3  501    0 -0.13102447345E+01 -0.41953531562E+01 -0.98277280780E+02  0.98375513452E+02  0.00000000000E+00 0.  1.
         -1    1    1    2    0  502 -0.35928723807E+01  0.33209345789E+02 -0.28512318726E+03  0.28707316366E+03  0.00000000000E+00 0. -1.
<mgrwt>
<rscale>  1 0.30000000E+03</rscale>
<asrwt>0</asrwt>
<pdfrwt beam="1">  1       21 0.50027306E-02 0.30000000E+03</pdfrwt>
<pdfrwt beam="2">0</pdfrwt>
<totfact> 0.28777858E+04</totfact>
</mgrwt>
</event>
<event>
 6    1  0.1284012E-001  0.3000000E+03  0.7818608E-02  0.1093470E+00
         21   -1    0    0  501  502  0.00000000000E+00  0.00000000000E+00  0.51750674603E+01  0.51750674603E+01  0.00000000000E+00 0. -1.
         13   -1    0    0    0    0 -0.00000000000E+00 -0.00000000000E+00 -0.10000000000E+04  0.10000000000E+04  0.00000000000E+00 0.  1.
    9000005    2    1    2  501    0 -0.49207060792E+02  0.52419332215E+02 -0.49169552638E+03  0.49693465135E+03  0.32304538630E+01 0.  0.
         13    1    3    3    0    0 -0.48833059275E+02  0.51665632774E+02 -0.48741500323E+03  0.49257221873E+03  0.00000000000E+00 0.  1.
          1    1    3    3  501    0 -0.37400151723E+00  0.75369944127E+00 -0.42805231455E+01  0.43624326221E+01  0.00000000000E+00 0.  1.
         -3    1    1    2    0  502  0.49207060792E+02 -0.52419332215E+02 -0.50312940616E+03  0.50824041611E+03  0.00000000000E+00 0. -1.
<mgrwt>
<rscale>  1 0.30000000E+03</rscale>
<asrwt>0</asrwt>
<pdfrwt beam="1">  1       21 0.18818467E-01 0.30000000E+03</pdfrwt>
<pdfrwt beam="2">0</pdfrwt>
<totfact> 0.26936307E+03</totfact>
</mgrwt>
</event>
<event>
 6    1  0.1284012E-001  0.3000000E+03  0.7818608E-02  0.1093470E+00
         21   -1    0    0  501  502  0.00000000000E+00  0.00000000000E+00  0.42461649073E+01  0.42461649073E+01  0.00000000000E+00 0. -1.
         13   -1    0    0    0    0 -0.00000000000E+00 -0.00000000000E+00 -0.10000000000E+04  0.10000000000E+04  0.00000000000E+00 0.  1.
    9000005    2    1    2  501    0  0.44854900302E+02  0.14773529494E+02 -0.84370996167E+03  0.84503699840E+03  0.32878545772E+01 0.  0.
         13    1    3    3    0    0  0.13204920642E+02  0.53024557547E+01 -0.27605551606E+03  0.27642202140E+03  0.00000000000E+00 0.  1.
          3    1    3    3  501    0  0.31649979660E+02  0.94710737391E+01 -0.56765444561E+03  0.56861497700E+03  0.00000000000E+00 0.  1.
         -3    1    1    2    0  502 -0.44854900302E+02 -0.14773529494E+02 -0.15204387342E+03  0.15920916651E+03  0.00000000000E+00 0. -1.
<mgrwt>
<rscale>  1 0.30000000E+03</rscale>
<asrwt>0</asrwt>
<pdfrwt beam="1">  1       21 0.15440632E-01 0.30000000E+03</pdfrwt>
<pdfrwt beam="2">0</pdfrwt>
<totfact> 0.39027942E+03</totfact>
</mgrwt>
</event>
<event>
 6    1  0.1284012E-001  0.3000000E+03  0.7818608E-02  0.1093470E+00
         21   -1    0    0  501  502  0.00000000000E+00  0.00000000000E+00  0.42523859344E+01  0.42523859344E+01  0.00000000000E+00 0. -1.
         13   -1    0    0    0    0 -0.00000000000E+00 -0.00000000000E+00 -0.10000000000E+04  0.10000000000E+04  0.00000000000E+00 0.  1.
    9000005    2    1    2  501    0  0.32172155310E+01 -0.47806852554E+02 -0.15803950971E+03  0.16517508692E+03  0.32368319538E+01 0.  0.
         13    1    3    3    0    0  0.11396760863E+01 -0.27189631009E+02 -0.84700796864E+02  0.88965161077E+02  0.00000000000E+00 0.  1.
          3    1    3    3  501    0  0.20775394447E+01 -0.20617221545E+02 -0.73338712851E+02  0.76209925843E+02  0.00000000000E+00 0.  1.
         -1    1    1    2    0  502 -0.32172155310E+01  0.47806852554E+02 -0.83770810435E+03  0.83907729901E+03  0.00000000000E+00 0. -1.
<mgrwt>
<rscale>  1 0.30000000E+03</rscale>
<asrwt>0</asrwt>
<pdfrwt beam="1">  1       21 0.15463254E-01 0.30000000E+03</pdfrwt>
<pdfrwt beam="2">0</pdfrwt>
<totfact> 0.38921934E+03</totfact>
</mgrwt>
</event>
<event>
 6    1  0.1284012E-001  0.3000000E+03  0.7818608E-02  0.1093470E+00
         21   -1    0    0  501  502  0.00000000000E+00  0.00000000000E+00  0.19310013972E+01  0.19310013972E+01  0.00000000000E+00 0. -1.
         13   -1    0    0    0    0 -0.00000000000E+00 -0.00000000000E+00 -0.10000000000E+04  0.10000000000E+04  0.00000000000E+00 0.  1.
    9000005    2    1    2  501    0 -0.29232640918E+02  0.14570507426E+02 -0.83378994510E+03  0.83443636148E+03  0.33943815194E+01 0.  0.
         13    1    3    3    0    0 -0.29034965966E+02  0.14741948297E+02 -0.82462206438E+03  0.82526474743E+03  0.00000000000E+00 0.  1.
          1    1    3    3  501    0 -0.19767495153E+00 -0.17144087191E+00 -0.91678807265E+01  0.91716140550E+01  0.00000000000E+00 0.  1.
         -1    1    1    2    0  502  0.29232640918E+02 -0.14570507426E+02 -0.16427905350E+03  0.16749463991E+03  0.00000000000E+00 0. -1.
<mgrwt>
<rscale>  1 0.30000000E+03</rscale>
<asrwt>0</asrwt>
<pdfrwt beam="1">  1       21 0.70218381E-02 0.30000000E+03</pdfrwt>
<pdfrwt beam="2">0</pdfrwt>
<totfact> 0.16048045E+04</totfact>
</mgrwt>
</event>
<event>
 6    1  0.1284012E-001  0.3000000E+03  0.7818608E-02  0.1093470E+00
         21   -1    0    0  501  502  0.00000000000E+00  0.00000000000E+00  0.37576408876E+01  0.37576408876E+01  0.00000000000E+00 0. -1.
         13   -1    0    0    0    0 -0.00000000000E+00 -0.00000000000E+00 -0.10000000000E+04  0.10000000000E+04  0.00000000000E+00 0.  1.
    9000005    2    1    2  501    0  0.52030117920E+01  0.35556879899E+02 -0.90446465909E+03  0.90519543078E+03  0.55754212768E+01 0.  0.
         13    1    3    3    0    0  0.38981247170E+01  0.34380428403E+02 -0.85654414645E+03  0.85724272178E+03  0.00000000000E+00 0.  1.
          3    1    3    3  501    0  0.13048870750E+01  0.11764514961E+01 -0.47920512646E+02  0.47952709002E+02  0.00000000000E+00 0.  1.
         -3    1    1    2    0  502 -0.52030117920E+01 -0.35556879899E+02 -0.91777700018E+02  0.98562210103E+02  0.00000000000E+00 0. -1.
<mgrwt>
<rscale>  1 0.30000000E+03</rscale>
<asrwt>0</asrwt>
<pdfrwt beam="1">  1       21 0.13664177E-01 0.30000000E+03</pdfrwt>
<pdfrwt beam="2">0</pdfrwt>
<totfact> 0.48897853E+03</totfact>
</mgrwt>
</event>
<event>
 6    1  0.1284012E-001  0.3000000E+03  0.7818608E-02  0.1093470E+00
         21   -1    0    0  501  502  0.00000000000E+00  0.00000000000E+00  0.19037711508E+01  0.19037711508E+01  0.00000000000E+00 0. -1.
         13   -1    0    0    0    0 -0.00000000000E+00 -0.00000000000E+00 -0.10000000000E+04  0.10000000000E+04  0.00000000000E+00 0.  1.
    9000005    2    1    2  501    0  0.33336485833E+02 -0.10567148836E+02 -0.79815423670E+03  0.79892646664E+03  0.32136602312E+01 0.  0.
         13    1    3    3    0    0  0.17008915607E+02 -0.47473570297E+01 -0.36898195480E+03  0.36940428202E+03  0.00000000000E+00 0.  1.
          1    1    3    3  501    0  0.16327570226E+02 -0.58197918067E+01 -0.42917228190E+03  0.42952218462E+03  0.00000000000E+00 0.  1.
         -3    1    1    2    0  502 -0.33336485833E+02  0.10567148836E+02 -0.19994199215E+03  0.20297730451E+03  0.00000000000E+00 0. -1.
<mgrwt>
<rscale>  1 0.30000000E+03</rscale>
<asrwt>0</asrwt>
<pdfrwt beam="1">  1       21 0.69228188E-02 0.30000000E+03</pdfrwt>
<pdfrwt beam="2">0</pdfrwt>
<totfact> 0.16449504E+04</totfact>
</mgrwt>
</event>
<event>
 6    1  0.1284012E-001  0.3000000E+03  0.7818608E-02  0.1093470E+00
         21   -1    0    0  501  502  0.00000000000E+00  0.00000000000E+00  0.63071215816E+01  0.63071215816E+01  0.00000000000E+00 0. -1.
         13   -1    0    0    0    0 -0.00000000000E+00 -0.00000000000E+00 -0.10000000000E+04  0.10000000000E+04  0.00000000000E+00 0.  1.
    9000005    2    1    2  501    0 -0.49694124552E+02 -0.44797331369E+02 -0.76760624021E+03  0.77052867709E+03  0.43353532905E+01 0.  0.
         13    1    3    3    0    0 -0.12278842943E+01 -0.21690630198E+01 -0.26458878501E+02  0.26576018997E+02  0.00000000000E+00 0.  1.
          1    1    3    3  501    0 -0.48466240258E+02 -0.42628268349E+02 -0.74114736171E+03  0.74395265809E+03  0.00000000000E+00 0.  1.
         -1    1    1    2    0  502  0.49694124552E+02  0.44797331369E+02 -0.22608663820E+03  0.23577844449E+03  0.00000000000E+00 0. -1.
<mgrwt>
<rscale>  1 0.30000000E+03</rscale>
<asrwt>0</asrwt>
<pdfrwt beam="1">  1       21 0.22935036E-01 0.30000000E+03</pdfrwt>
<pdfrwt beam="2">0</pdfrwt>
<totfact> 0.18443424E+03</totfact>
</mgrwt>
</event>
<event>
 6    1  0.1284012E-001  0.3000000E+03  0.7818608E-02  0.1093470E+00
         21   -1    0    0  501  502  0.00000000000E+00  0.00000000000E+00  0.39873878969E+01  0.39873878969E+01  0.00000000000E+00 0. -1.
         13   -1    0    0    0    0 -0.00000000000E+00 -0.00000000000E+00 -0.10000000000E+04  0.10000000000E+04  0.00000000000E+00 0.  1.
    9000005    2    1    2  501    0 -0.41493134123E+02  0.59977494731E+01 -0.87326920968E+03  0.87428158226E+03  0.33940126691E+01 0.  0.
         13    1    3    3    0    0 -0.81120012518E+01 -0.16891663570E+00 -0.16527810219E+03  0.16547714090E+03  0.00000000000E+00 0.  1.
          3    1    3    3  501    0 -0.33381132871E+02  0.61666661088E+01 -0.70799110749E+03  0.70880444136E+03  0.00000000000E+00 0.  1.
         -1    1    1    2    0  502  0.41493134123E+02 -0.59977494731E+01 -0.12274340242E+03  0.12970580564E+03  0.00000000000E+00 0. -1.
<mgrwt>
<rscale>  1 0.30000000E+03</rscale>
<asrwt>0</asrwt>
<pdfrwt beam="1">  1       21 0.14499623E-01 0.30000000E+03</pdfrwt>
<pdfrwt beam="2">0</pdfrwt>
<totfact> 0.43843875E+03</totfact>
</mgrwt>
</event>
<event>
 6    1  0.1284012E-001  0.3000000E+03  0.7818608E-02  0.1093470E+00
         21   -1    0    0  501  502  0.00000000000E+00  0.00000000000E+00  0.28292756630E+01  0.28292756630E+01  0.00000000000E+00 0. -1.
         13   -1    0    0    0    0 -0.00000000000E+00 -0.00000000000E+00 -0.10000000000E+04  0.10000000000E+04  0.00000000000E+00 0.  1.
    9000005    2    1    2  501    0  0.78016988586E+01  0.49075999134E+02 -0.67644624796E+03  0.67827803172E+03  0.34988200816E+01 0.  0.
         13    1    3    3    0    0  0.19588468162E+01  0.52913333418E+01 -0.77236921652E+02  0.77442735977E+02  0.00000000000E+00 0.  1.
          3    1    3    3  501    0  0.58428520424E+01  0.43784665792E+02 -0.59920932631E+03  0.60083529574E+03  0.00000000000E+00 0.  1.
         -1    1    1    2    0  502 -0.78016988586E+01 -0.49075999134E+02 -0.32072447638E+03  0.32455124394E+03  0.00000000000E+00 0. -1.
<mgrwt>
<rscale>  1 0.30000000E+03</rscale>
<asrwt>0</asrwt>
<pdfrwt beam="1">  1       21 0.10288297E-01 0.30000000E+03</pdfrwt>
<pdfrwt beam="2">0</pdfrwt>
<totfact> 0.81768256E+03</totfact>
</mgrwt>
</event>
<event>
 6    1  0.1284012E-001  0.3000000E+03  0.7818608E-02  0.1093470E+00
         21   -1    0    0  501  502  0.00000000000E+00  0.00000000000E+00  0.45208805882E+01  0.45208805882E+01  0.00000000000E+00 0. -1.
         13   -1    0    0    0    0 -0.00000000000E+00 -0.00000000000E+00 -0.10000000000E+04  0.10000000000E+04  0.00000000000E+00 0.  1.
    9000005    2    1    2  501    0  0.38593324048E+02  0.21424690399E+02 -0.87649073101E+03  0.87760871177E+03  0.35478736525E+01 0.  0.
         13    1    3    3    0    0  0.51956142663E+01  0.37380260124E+01 -0.10836300960E+03  0.10855187283E+03  0.00000000000E+00 0.  1.
          1    1    3    3  501    0  0.33397709781E+02  0.17686664387E+02 -0.76812772141E+03  0.76905683894E+03  0.00000000000E+00 0.  1.
         -3    1    1    2    0  502 -0.38593324048E+02 -0.21424690399E+02 -0.11898838840E+03  0.12691216881E+03  0.00000000000E+00 0. -1.
<mgrwt>
<rscale>  1 0.30000000E+03</rscale>
<asrwt>0</asrwt>
<pdfrwt beam="1">  1       21 0.16439600E-01 0.30000000E+03</pdfrwt>
<pdfrwt beam="2">0</pdfrwt>
<totfact> 0.34725389E+03</totfact>
</mgrwt>
</event>
<event>
 6    1  0.1284012E-001  0.3000000E+03  0.7818608E-02  0.1093470E+00
         21   -1    0    0  501  502  0.00000000000E+00  0.00000000000E+00  0.15505217711E+01  0.15505217711E+01  0.00000000000E+00 0. -1.
         13   -1    0    0    0    0 -0.00000000000E+00 -0.00000000000E+00 -0.10000000000E+04  0.10000000000E+04  0.00000000000E+00 0.  1.
    9000005    2    1    2  501    0  0.18677147538E+02  0.34235641496E+02 -0.56073851948E+03  0.56210564651E+03  0.37623948820E+01 0.  0.
         13    1    3    3    0    0  0.28048426427E+01  0.28150691671E+01 -0.59372390105E+02  0.59505230555E+02  0.00000000000E+00 0.  1.
          1    1    3    3  501    0  0.15872304895E+02  0.31420572329E+02 -0.50136612938E+03  0.50260041595E+03  0.00000000000E+00 0.  1.
         -3    1    1    2    0  502 -0.18677147538E+02 -0.34235641496E+02 -0.43771095875E+03  0.43944487526E+03  0.00000000000E+00 0. -1.
<mgrwt>
<rscale>  1 0.30000000E+03</rscale>
<asrwt>0</asrwt>
<pdfrwt beam="1">  1       21 0.56382729E-02 0.30000000E+03</pdfrwt>
<pdfrwt beam="2">0</pdfrwt>
<totfact> 0.23453089E+04</totfact>
</mgrwt>
</event>
<event>
 6    1  0.1284012E-001  0.3000000E+03  0.7818608E-02  0.1093470E+00
         21   -1    0    0  501  502  0.00000000000E+00  0.00000000000E+00  0.37255867111E+01  0.37255867111E+01  0.00000000000E+00 0. -1.
         13   -1    0    0    0    0 -0.00000000000E+00 -0.00000000000E+00 -0.10000000000E+04  0.10000000000E+04  0.00000000000E+00 0.  1.
    9000005    2    1    2  501    0 -0.52563064839E+02 -0.38269682881E+01 -0.75099631533E+03  0.75284938854E+03  0.30355742537E+01 0.  0.
         13    1    3    3    0    0 -0.48595694147E+02 -0.39600004882E+01 -0.68394828709E+03  0.68568395235E+03  0.00000000000E+00 0.  1.
          1    1    3    3  501    0 -0.39673706919E+01  0.13303220010E+00 -0.67048028245E+02  0.67165436195E+02  0.00000000000E+00 0.  1.
         -3    1    1    2    0  502  0.52563064839E+02  0.38269682881E+01 -0.24527809796E+03  0.25087619817E+03  0.00000000000E+00 0. -1.
<mgrwt>
<rscale>  1 0.30000000E+03</rscale>
<asrwt>0</asrwt>
<pdfrwt beam="1">  1       21 0.13547617E-01 0.30000000E+03</pdfrwt>
<pdfrwt beam="2">0</pdfrwt>
<totfact> 0.49671625E+03</totfact>
</mgrwt>
</event>
<event>
 6    1  0.1284012E-001  0.3000000E+03  0.7818608E-02  0.1093470E+00
         21   -1    0    0  501  502  0.00000000000E+00  0.00000000000E+00  0.47053479378E+01  0.47053479378E+01  0.00000000000E+00 0. -1.
         13   -1    0    0    0    0 -0.00000000000E+00 -0.00000000000E+00 -0.10000000000E+04  0.10000000000E+04  0.00000000000E+00 0.  1.
    9000005    2    1    2  501    0 -0.12986537549E+02  0.32253373327E+02 -0.93058904636E+03  0.93124960849E+03  0.45749163392E+01 0.  0.
         13    1    3    3    0    0 -0.58522451796E+01  0.10940117359E+02 -0.37837992736E+03  0.37858328591E+03  0.00000000000E+00 0.  1.
          1    1    3    3  501    0 -0.71342923689E+01  0.21313255969E+02 -0.55220911901E+03  0.55266632259E+03  0.00000000000E+00 0.  1.
         -1    1    1    2    0  502  0.12986537549E+02 -0.32253373327E+02 -0.64705605702E+02  0.73455739447E+02  0.00000000000E+00 0. -1.
<mgrwt>
<rscale>  1 0.30000000E+03</rscale>
<asrwt>0</asrwt>
<pdfrwt beam="1">  1       21 0.17110392E-01 0.30000000E+03</pdfrwt>
<pdfrwt beam="2">0</pdfrwt>
<totfact> 0.32222090E+03</totfact>
</mgrwt>
</event>
<event>
 6    1  0.1284012E-001  0.3000000E+03  0.7818608E-02  0.1093470E+00
         21   -1    0    0  501  502  0.00000000000E+00  0.00000000000E+00  0.19038116296E+01  0.19038116296E+01  0.00000000000E+00 0. -1.
         13   -1    0    0    0    0 -0.00000000000E+00 -0.00000000000E+00 -0.10000000000E+04  0.10000000000E+04  0.00000000000E+00 0.  1.
    9000005    2    1    2  501    0  0.38673233739E+02 -0.68784035498E+01 -0.28370245532E+03  0.28643100483E+03  0.35645381102E+01 0.  0.
         13    1    3    3    0    0  0.26035540693E+01  0.10933023911E+00 -0.24371775497E+02  0.24510689255E+02  0.00000000000E+00 0.  1.
          3    1    3    3  501    0  0.36069679670E+02 -0.69877337889E+01 -0.25933067982E+03  0.26192031558E+03  0.00000000000E+00 0.  1.
         -3    1    1    2    0  502 -0.38673233739E+02  0.68784035498E+01 -0.71439373305E+03  0.71547280680E+03  0.00000000000E+00 0. -1.
<mgrwt>
<rscale>  1 0.30000000E+03</rscale>
<asrwt>0</asrwt>
<pdfrwt beam="1">  1       21 0.69229660E-02 0.30000000E+03</pdfrwt>
<pdfrwt beam="2">0</pdfrwt>
<totfact> 0.16448896E+04</totfact>
</mgrwt>
</event>
<event>
 6    1  0.1284012E-001  0.3000000E+03  0.7818608E-02  0.1093470E+00
         21   -1    0    0  501  502  0.00000000000E+00  0.00000000000E+00  0.20033241702E+01  0.20033241702E+01  0.00000000000E+00 0. -1.
         13   -1    0    0    0    0 -0.00000000000E+00 -0.00000000000E+00 -0.10000000000E+04  0.10000000000E+04  0.00000000000E+00 0.  1.
    9000005    2    1    2  501    0 -0.11745447138E+02  0.42865902430E+02 -0.44714320877E+03  0.44935969280E+03  0.34122201997E+01 0.  0.
         13    1    3    3    0    0 -0.41504066811E+01  0.20532411221E+02 -0.20090180948E+03  0.20199094742E+03  0.00000000000E+00 0.  1.
          1    1    3    3  501    0 -0.75950404571E+01  0.22333491209E+02 -0.24624139929E+03  0.24736874538E+03  0.00000000000E+00 0.  1.
         -1    1    1    2    0  502  0.11745447138E+02 -0.42865902430E+02 -0.55085346706E+03  0.55264363137E+03  0.00000000000E+00 0. -1.
<mgrwt>
<rscale>  1 0.30000000E+03</rscale>
<asrwt>0</asrwt>
<pdfrwt beam="1">  1       21 0.72848305E-02 0.30000000E+03</pdfrwt>
<pdfrwt beam="2">0</pdfrwt>
<totfact> 0.15051518E+04</totfact>
</mgrwt>
</event>
<event>
 6    1  0.1284012E-001  0.3000000E+03  0.7818608E-02  0.1093470E+00
         21   -1    0    0  501  502  0.00000000000E+00  0.00000000000E+00  0.22775857827E+01  0.22775857827E+01  0.00000000000E+00 0. -1.
         13   -1    0    0    0    0 -0.00000000000E+00 -0.00000000000E+00 -0.10000000000E+04  0.10000000000E+04  0.00000000000E+00 0.  1.
    9000005    2    1    2  501    0  0.34531096919E+02  0.15306250614E+02 -0.80383700515E+03  0.80474725947E+03  0.61272196645E+01 0.  0.
         13    1    3    3    0    0  0.83623973555E+01  0.51761697858E+01 -0.26136786267E+03  0.26155282843E+03  0.00000000000E+00 0.  1.
          3    1    3    3  501    0  0.26168699564E+02  0.10130080828E+02 -0.54246914248E+03  0.54319443104E+03  0.00000000000E+00 0.  1.
         -1    1    1    2    0  502 -0.34531096919E+02 -0.15306250614E+02 -0.19388540907E+03  0.19753032631E+03  0.00000000000E+00 0. -1.
<mgrwt>
<rscale>  1 0.30000000E+03</rscale>
<asrwt>0</asrwt>
<pdfrwt beam="1">  1       21 0.82821476E-02 0.30000000E+03</pdfrwt>
<pdfrwt beam="2">0</pdfrwt>
<totfact> 0.12018633E+04</totfact>
</mgrwt>
</event>
<event>
 6    1  0.1284012E-001  0.3000000E+03  0.7818608E-02  0.1093470E+00
         21   -1    0    0  501  502  0.00000000000E+00  0.00000000000E+00  0.10336398622E+01  0.10336398622E+01  0.00000000000E+00 0. -1.
         13   -1    0    0    0    0 -0.00000000000E+00 -0.00000000000E+00 -0.10000000000E+04  0.10000000000E+04  0.00000000000E+00 0.  1.
    9000005    2    1    2  501    0  0.10144901070E+02  0.30469705120E+02 -0.50360275627E+03  0.50463015278E+03  0.21290906318E+01 0.  0.
         13    1    3    3    0    0  0.20021583935E+00  0.15095181232E+01 -0.18951058170E+02  0.19012136574E+02  0.00000000000E+00 0.  1.
          1    1    3    3  501    0  0.99446852308E+01  0.28960186997E+02 -0.48465169810E+03  0.48561801621E+03  0.00000000000E+00 0.  1.
         -3    1    1    2    0  502 -0.10144901070E+02 -0.30469705120E+02 -0.49536360387E+03  0.49640348708E+03  0.00000000000E+00 0. -1.
<mgrwt>
<rscale>  1 0.30000000E+03</rscale>
<asrwt>0</asrwt>
<pdfrwt beam="1">  1       21 0.37586983E-02 0.30000000E+03</pdfrwt>
<pdfrwt beam="2">0</pdfrwt>
<totfact> 0.46685275E+04</totfact>
</mgrwt>
</event>
<event>
 6    1  0.1284012E-001  0.3000000E+03  0.7818608E-02  0.1093470E+00
         21   -1    0    0  501  502  0.00000000000E+00  0.00000000000E+00  0.26815622207E+01  0.26815622207E+01  0.00000000000E+00 0. -1.
         13   -1    0    0    0    0 -0.00000000000E+00 -0.00000000000E+00 -0.10000000000E+04  0.10000000000E+04  0.00000000000E+00 0.  1.
    9000005    2    1    2  501    0 -0.27810844078E+02 -0.25317909825E+02 -0.84308871901E+03  0.84393255984E+03  0.30228834504E+01 0.  0.
         13    1    3    3    0    0 -0.17748657656E+02 -0.16888804970E+02 -0.51838837526E+03  0.51896700684E+03  0.00000000000E+00 0.  1.
          3    1    3    3  501    0 -0.10062186422E+02 -0.84291048558E+01 -0.32470034375E+03  0.32496555300E+03  0.00000000000E+00 0.  1.
         -1    1    1    2    0  502  0.27810844078E+02  0.25317909825E+02 -0.15422971877E+03  0.15874900238E+03  0.00000000000E+00 0. -1.
<mgrwt>
<rscale>  1 0.30000000E+03</rscale>
<asrwt>0</asrwt>
<pdfrwt beam="1">  1       21 0.97511559E-02 0.30000000E+03</pdfrwt>
<pdfrwt beam="2">0</pdfrwt>
<totfact> 0.89991332E+03</totfact>
</mgrwt>
</event>
<event>
 6    1  0.1284012E-001  0.3000000E+03  0.7818608E-02  0.1093470E+00
         21   -1    0    0  501  502  0.00000000000E+00  0.00000000000E+00  0.16345654811E+01  0.16345654811E+01  0.00000000000E+00 0. -1.
         13   -1    0    0    0    0 -0.00000000000E+00 -0.00000000000E+00 -0.10000000000E+04  0.10000000000E+04  0.00000000000E+00 0.  1.
    9000005    2    1    2  501    0 -0.20838392345E+02  0.23835673163E+02 -0.81015913196E+03  0.81078386406E+03  0.32058085678E+01 0.  0.
         13    1    3    3    0    0 -0.16840078774E+02  0.20105949926E+02 -0.69577004705E+03  0.69626417102E+03  0.00000000000E+00 0.  1.
          3    1    3    3  501    0 -0.39983135705E+01  0.37297232369E+01 -0.11438908492E+03  0.11451969305E+03  0.00000000000E+00 0.  1.
         -1    1    1    2    0  502  0.20838392345E+02 -0.23835673163E+02 -0.18820630255E+03  0.19085070142E+03  0.00000000000E+00 0. -1.
<mgrwt>
<rscale>  1 0.30000000E+03</rscale>
<asrwt>0</asrwt>
<pdfrwt beam="1">  1       21 0.59438870E-02 0.30000000E+03</pdfrwt>
<pdfrwt beam="2">0</pdfrwt>
<totfact> 0.21415850E+04</totfact>
</mgrwt>
</event>
<event>
 6    1  0.1284012E-001  0.3000000E+03  0.7818608E-02  0.1093470E+00
         21   -1    0    0  501  502  0.00000000000E+00  0.00000000000E+00  0.44457205892E+01  0.44457205892E+01  0.00000000000E+00 0. -1.
         13   -1    0    0    0    0 -0.00000000000E+00 -0.00000000000E+00 -0.10000000000E+04  0.10000000000E+04  0.00000000000E+00 0.  1.
    9000005    2    1    2  501    0 -0.62575037749E+02  0.10682162017E+02 -0.34558387286E+03  0.35138272721E+03  0.34443959277E+01 0.  0.
         13    1    3    3    0    0 -0.94210745678E+01  0.24651270289E+01 -0.58192834042E+02  0.59002029042E+02  0.00000000000E+00 0.  1.
          1    1    3    3  501    0 -0.53153963181E+02  0.82170349883E+01 -0.28739103882E+03  0.29238069816E+03  0.00000000000E+00 0.  1.
         -3    1    1    2    0  502  0.62575037749E+02 -0.10682162017E+02 -0.64997040655E+03  0.65306299338E+03  0.00000000000E+00 0. -1.
<mgrwt>
<rscale>  1 0.30000000E+03</rscale>
<asrwt>0</asrwt>
<pdfrwt beam="1">  1       21 0.16166291E-01 0.30000000E+03</pdfrwt>
<pdfrwt beam="2">0</pdfrwt>
<totfact> 0.35829184E+03</totfact>
</mgrwt>
</event>
<event>
 6    1  0.1284012E-001  0.3000000E+03  0.7818608E-02  0.1093470E+00
         21   -1    0    0  501  502  0.00000000000E+00  0.00000000000E+00  0.24923632639E+01  0.24923632639E+01  0.00000000000E+00 0. -1.
         13   -1    0    0    0    0 -0.00000000000E+00 -0.00000000000E+00 -0.10000000000E+04  0.10000000000E+04  0.00000000000E+00 0.  1.
    9000005    2    1    2  501    0  0.26561673632E+02 -0.26839826827E+02 -0.82407634975E+03  0.82499782781E+03  0.96791974878E+01 0.  0.
         13    1    3    3    0    0 -0.29115314169E+00  0.33838358814E+00 -0.29983525748E+01  0.30314009579E+01  0.00000000000E+00 0.  1.
          3    1    3    3  501    0  0.26852826774E+02 -0.27178210415E+02 -0.82107799718E+03  0.82196642685E+03  0.00000000000E+00 0.  1.
         -1    1    1    2    0  502 -0.26561673632E+02  0.26839826827E+02 -0.17343128699E+03  0.17749453545E+03  0.00000000000E+00 0. -1.
<mgrwt>
<rscale>  1 0.30000000E+03</rscale>
<asrwt>0</asrwt>
<pdfrwt beam="1">  1       21 0.90631583E-02 0.30000000E+03</pdfrwt>
<pdfrwt beam="2">0</pdfrwt>
<totfact> 0.10250264E+04</totfact>
</mgrwt>
</event>
<event>
 6    1  0.1284012E-001  0.3000000E+03  0.7818608E-02  0.1093470E+00
         21   -1    0    0  501  502  0.00000000000E+00  0.00000000000E+00  0.18165153762E+01  0.18165153762E+01  0.00000000000E+00 0. -1.
         13   -1    0    0    0    0 -0.00000000000E+00 -0.00000000000E+00 -0.10000000000E+04  0.10000000000E+04  0.00000000000E+00 0.  1.
    9000005    2    1    2  501    0  0.94318654242E+01  0.35890805624E+02 -0.74339671651E+03  0.74434145402E+03  0.53302948554E+01 0.  0.
         13    1    3    3    0    0  0.78596301134E+01  0.23204807479E+02 -0.45007619847E+03  0.45074252218E+03  0.00000000000E+00 0.  1.
          3    1    3    3  501    0  0.15722353108E+01  0.12685998144E+02 -0.29332051804E+03  0.29359893184E+03  0.00000000000E+00 0.  1.
         -1    1    1    2    0  502 -0.94318654242E+01 -0.35890805624E+02 -0.25478676811E+03  0.25747506135E+03  0.00000000000E+00 0. -1.
<mgrwt>
<rscale>  1 0.30000000E+03</rscale>
<asrwt>0</asrwt>
<pdfrwt beam="1">  1       21 0.66055244E-02 0.30000000E+03</pdfrwt>
<pdfrwt beam="2">0</pdfrwt>
<totfact> 0.17845223E+04</totfact>
</mgrwt>
</event>
<event>
 6    1  0.1284012E-001  0.3000000E+03  0.7818608E-02  0.1093470E+00
         21   -1    0    0  501  502  0.00000000000E+00  0.00000000000E+00  0.36639179347E+01  0.36639179347E+01  0.00000000000E+00 0. -1.
         13   -1    0    0    0    0 -0.00000000000E+00 -0.00000000000E+00 -0.10000000000E+04  0.10000000000E+04  0.00000000000E+00 0.  1.
    9000005    2    1    2  501    0 -0.37186495709E+02  0.74602486905E+01 -0.88916884071E+03  0.88998318785E+03  0.32181650403E+01 0.  0.
         13    1    3    3    0    0 -0.18349892479E+02  0.37207571230E+01 -0.40137904176E+03  0.40181550213E+03  0.00000000000E+00 0.  1.
          1    1    3    3  501    0 -0.18836603230E+02  0.37394915675E+01 -0.48778979895E+03  0.48816768572E+03  0.00000000000E+00 0.  1.
         -1    1    1    2    0  502  0.37186495709E+02 -0.74602486905E+01 -0.10716724135E+03  0.11368073009E+03  0.00000000000E+00 0. -1.
<mgrwt>
<rscale>  1 0.30000000E+03</rscale>
<asrwt>0</asrwt>
<pdfrwt beam="1">  1       21 0.13323366E-01 0.30000000E+03</pdfrwt>
<pdfrwt beam="2">0</pdfrwt>
<totfact> 0.51212892E+03</totfact>
</mgrwt>
</event>
<event>
 6    1  0.1284012E-001  0.3000000E+03  0.7818608E-02  0.1093470E+00
         21   -1    0    0  501  502  0.00000000000E+00  0.00000000000E+00  0.12361802021E+01  0.12361802021E+01  0.00000000000E+00 0. -1.
         13   -1    0    0    0    0 -0.00000000000E+00 -0.00000000000E+00 -0.10000000000E+04  0.10000000000E+04  0.00000000000E+00 0.  1.
    9000005    2    1    2  501    0 -0.92654123037E+01  0.28890187878E+02 -0.75150515195E+03  0.75212307407E+03  0.29384214113E+01 0.  0.
         13    1    3    3    0    0 -0.92423884355E+01  0.26055759135E+02 -0.68021949853E+03  0.68078108854E+03  0.00000000000E+00 0.  1.
          3    1    3    3  501    0 -0.23023868124E-01  0.28344287437E+01 -0.71285653421E+02  0.71341985534E+02  0.00000000000E+00 0.  1.
         -1    1    1    2    0  502  0.92654123037E+01 -0.28890187878E+02 -0.24725866784E+03  0.24911310613E+03  0.00000000000E+00 0. -1.
<mgrwt>
<rscale>  1 0.30000000E+03</rscale>
<asrwt>0</asrwt>
<pdfrwt beam="1">  1       21 0.44952102E-02 0.30000000E+03</pdfrwt>
<pdfrwt beam="2">0</pdfrwt>
<totfact> 0.34520513E+04</totfact>
</mgrwt>
</event>
<event>
 6    1  0.1284012E-001  0.3000000E+03  0.7818608E-02  0.1093470E+00
         21   -1    0    0  501  502  0.00000000000E+00  0.00000000000E+00  0.14267215370E+01  0.14267215370E+01  0.00000000000E+00 0. -1.
         13   -1    0    0    0    0 -0.00000000000E+00 -0.00000000000E+00 -0.10000000000E+04  0.10000000000E+04  0.00000000000E+00 0.  1.
    9000005    2    1    2  501    0 -0.37291500721E+01  0.37494478042E+02 -0.52068875509E+03  0.52205905458E+03  0.30223084445E+01 0.  0.
         13    1    3    3    0    0 -0.14246445825E+01  0.20495989768E+02 -0.26464281232E+03  0.26543913299E+03  0.00000000000E+00 0.  1.
          3    1    3    3  501    0 -0.23045054896E+01  0.16998488274E+02 -0.25604594276E+03  0.25661992159E+03  0.00000000000E+00 0.  1.
         -1    1    1    2    0  502  0.37291500721E+01 -0.37494478042E+02 -0.47788452337E+03  0.47936766696E+03  0.00000000000E+00 0. -1.
<mgrwt>
<rscale>  1 0.30000000E+03</rscale>
<asrwt>0</asrwt>
<pdfrwt beam="1">  1       21 0.51880893E-02 0.30000000E+03</pdfrwt>
<pdfrwt beam="2">0</pdfrwt>
<totfact> 0.27045619E+04</totfact>
</mgrwt>
</event>
<event>
 6    1  0.1284012E-001  0.3000000E+03  0.7818608E-02  0.1093470E+00
         21   -1    0    0  501  502  0.00000000000E+00  0.00000000000E+00  0.37877107053E+01  0.37877107053E+01  0.00000000000E+00 0. -1.
         13   -1    0    0    0    0 -0.00000000000E+00 -0.00000000000E+00 -0.10000000000E+04  0.10000000000E+04  0.00000000000E+00 0.  1.
    9000005    2    1    2  501    0  0.46166896787E+02 -0.17194474275E+02 -0.79870029222E+03  0.80022440042E+03  0.31467341845E+01 0.  0.
         13    1    3    3    0    0  0.20330440326E+02 -0.65052650247E+01 -0.32650774548E+03  0.32720475720E+03  0.00000000000E+00 0.  1.
          3    1    3    3  501    0  0.25836456461E+02 -0.10689209251E+02 -0.47219254674E+03  0.47301964322E+03  0.00000000000E+00 0.  1.
         -1    1    1    2    0  502 -0.46166896787E+02  0.17194474275E+02 -0.19751199708E+03  0.20356331028E+03  0.00000000000E+00 0. -1.
<mgrwt>
<rscale>  1 0.30000000E+03</rscale>
<asrwt>0</asrwt>
<pdfrwt beam="1">  1       21 0.13773523E-01 0.30000000E+03</pdfrwt>
<pdfrwt beam="2">0</pdfrwt>
<totfact> 0.48188286E+03</totfact>
</mgrwt>
</event>
<event>
 6    1  0.1284012E-001  0.3000000E+03  0.7818608E-02  0.1093470E+00
         21   -1    0    0  501  502  0.00000000000E+00  0.00000000000E+00  0.72937610369E+01  0.72937610369E+01  0.00000000000E+00 0. -1.
         13   -1    0    0    0    0 -0.00000000000E+00 -0.00000000000E+00 -0.10000000000E+04  0.10000000000E+04  0.00000000000E+00 0.  1.
    9000005    2    1    2  501    0  0.64860831663E+02  0.26577185038E+02 -0.78316817631E+03  0.78634246788E+03  0.82951885708E+01 0.  0.
         13    1    3    3    0    0  0.29274518402E+02  0.13540003440E+02 -0.40367558952E+03  0.40496211020E+03  0.00000000000E+00 0.  1.
          1    1    3    3  501    0  0.35586313262E+02  0.13037181599E+02 -0.37949258679E+03  0.38138035768E+03  0.00000000000E+00 0.  1.
         -1    1    1    2    0  502 -0.64860831663E+02 -0.26577185038E+02 -0.20953806265E+03  0.22095129316E+03  0.00000000000E+00 0. -1.
<mgrwt>
<rscale>  1 0.30000000E+03</rscale>
<asrwt>0</asrwt>
<pdfrwt beam="1">  1       21 0.26522823E-01 0.30000000E+03</pdfrwt>
<pdfrwt beam="2">0</pdfrwt>
<totfact> 0.13884835E+03</totfact>
</mgrwt>
</event>
<event>
 6    1  0.1284012E-001  0.3000000E+03  0.7818608E-02  0.1093470E+00
         21   -1    0    0  501  502  0.00000000000E+00  0.00000000000E+00  0.36173328620E+01  0.36173328620E+01  0.00000000000E+00 0. -1.
         13   -1    0    0    0    0 -0.00000000000E+00 -0.00000000000E+00 -0.10000000000E+04  0.10000000000E+04  0.00000000000E+00 0.  1.
    9000005    2    1    2  501    0 -0.31801037708E+02  0.34329503469E+02 -0.81315412748E+03  0.81450752732E+03  0.36133380787E+01 0.  0.
         13    1    3    3    0    0 -0.78266056708E+01  0.98971322051E+01 -0.24166597304E+03  0.24199514769E+03  0.00000000000E+00 0.  1.
          1    1    3    3  501    0 -0.23974432037E+02  0.24432371264E+02 -0.57148815444E+03  0.57251237963E+03  0.00000000000E+00 0.  1.
         -1    1    1    2    0  502  0.31801037708E+02 -0.34329503469E+02 -0.18322853966E+03  0.18910980555E+03  0.00000000000E+00 0. -1.
<mgrwt>
<rscale>  1 0.30000000E+03</rscale>
<asrwt>0</asrwt>
<pdfrwt beam="1">  1       21 0.13153965E-01 0.30000000E+03</pdfrwt>
<pdfrwt beam="2">0</pdfrwt>
<totfact> 0.52425355E+03</totfact>
</mgrwt>
</event>
<event>
 6    1  0.1284012E-001  0.3000000E+03  0.7818608E-02  0.1093470E+00
         21   -1    0    0  501  502  0.00000000000E+00  0.00000000000E+00  0.14662223322E+01  0.14662223322E+01  0.00000000000E+00 0. -1.
         13   -1    0    0    0    0 -0.00000000000E+00 -0.00000000000E+00 -0.10000000000E+04  0.10000000000E+04  0.00000000000E+00 0.  1.
    9000005    2    1    2  501    0  0.30215653065E+02  0.10468413783E+02 -0.77369885136E+03  0.77436862775E+03  0.37796388565E+01 0.  0.
         13    1    3    3    0    0  0.97456257717E+01  0.52697027205E+01 -0.26290966556E+03  0.26314300149E+03  0.00000000000E+00 0.  1.
          1    1    3    3  501    0  0.20470027293E+02  0.51987110627E+01 -0.51078918581E+03  0.51122562627E+03  0.00000000000E+00 0.  1.
         -3    1    1    2    0  502 -0.30215653065E+02 -0.10468413783E+02 -0.22483492630E+03  0.22709759458E+03  0.00000000000E+00 0. -1.
<mgrwt>
<rscale>  1 0.30000000E+03</rscale>
<asrwt>0</asrwt>
<pdfrwt beam="1">  1       21 0.53317288E-02 0.30000000E+03</pdfrwt>
<pdfrwt beam="2">0</pdfrwt>
<totfact> 0.25811964E+04</totfact>
</mgrwt>
</event>
<event>
 6    1  0.1284012E-001  0.3000000E+03  0.7818608E-02  0.1093470E+00
         21   -1    0    0  501  502  0.00000000000E+00  0.00000000000E+00  0.63260922283E+01  0.63260922283E+01  0.00000000000E+00 0. -1.
         13   -1    0    0    0    0 -0.00000000000E+00 -0.00000000000E+00 -0.10000000000E+04  0.10000000000E+04  0.00000000000E+00 0.  1.
    9000005    2    1    2  501    0 -0.55681369230E+02  0.35089111598E+02 -0.21653805919E+03  0.22640828388E+03  0.63497479126E+01 0.  0.
         13    1    3    3    0    0 -0.16159879158E+02  0.11202995629E+02 -0.74544466861E+02  0.77094269211E+02  0.00000000000E+00 0.  1.
          3    1    3    3  501    0 -0.39521490072E+02  0.23886115968E+02 -0.14199359233E+03  0.14931401467E+03  0.00000000000E+00 0.  1.
         -3    1    1    2    0  502  0.55681369230E+02 -0.35089111598E+02 -0.77713584858E+03  0.77991780835E+03  0.00000000000E+00 0. -1.
<mgrwt>
<rscale>  1 0.30000000E+03</rscale>
<asrwt>0</asrwt>
<pdfrwt beam="1">  1       21 0.23004020E-01 0.30000000E+03</pdfrwt>
<pdfrwt beam="2">0</pdfrwt>
<totfact> 0.18336575E+03</totfact>
</mgrwt>
</event>
<event>
 6    1  0.1284012E-001  0.3000000E+03  0.7818608E-02  0.1093470E+00
         21   -1    0    0  501  502  0.00000000000E+00  0.00000000000E+00  0.17380250093E+01  0.17380250093E+01  0.00000000000E+00 0. -1.
         13   -1    0    0    0    0 -0.00000000000E+00 -0.00000000000E+00 -0.10000000000E+04  0.10000000000E+04  0.00000000000E+00 0.  1.
    9000005    2    1    2  501    0  0.34883547300E+02  0.16703802689E+02 -0.68466333230E+03  0.68576336211E+03  0.34104722165E+01 0.  0.
         13    1    3    3    0    0  0.75083485922E+01  0.43781841648E+01 -0.13296367398E+03  0.13324744798E+03  0.00000000000E+00 0.  1.
          1    1    3    3  501    0  0.27375198708E+02  0.12325618524E+02 -0.55169965831E+03  0.55251591412E+03  0.00000000000E+00 0.  1.
         -3    1    1    2    0  502 -0.34883547300E+02 -0.16703802689E+02 -0.31359864269E+03  0.31597466290E+03  0.00000000000E+00 0. -1.
<mgrwt>
<rscale>  1 0.30000000E+03</rscale>
<asrwt>0</asrwt>
<pdfrwt beam="1">  1       21 0.63201043E-02 0.30000000E+03</pdfrwt>
<pdfrwt beam="2">0</pdfrwt>
<totfact> 0.19263030E+04</totfact>
</mgrwt>
</event>
<event>
 6    1  0.1284012E-001  0.3000000E+03  0.7818608E-02  0.1093470E+00
         21   -1    0    0  501  502  0.00000000000E+00  0.00000000000E+00  0.37736726126E+01  0.37736726126E+01  0.00000000000E+00 0. -1.
         13   -1    0    0    0    0 -0.00000000000E+00 -0.00000000000E+00 -0.10000000000E+04  0.10000000000E+04  0.00000000000E+00 0.  1.
    9000005    2    1    2  501    0 -0.40919447455E+02  0.39465166266E+01 -0.87088213835E+03  0.87186028474E+03  0.38315849761E+01 0.  0.
         13    1    3    3    0    0 -0.13214204849E+02  0.24469548421E-01 -0.25291293955E+03  0.25325791360E+03  0.00000000000E+00 0.  1.
          3    1    3    3  501    0 -0.27705242606E+02  0.39220470782E+01 -0.61796919880E+03  0.61860237114E+03  0.00000000000E+00 0.  1.
         -1    1    1    2    0  502  0.40919447455E+02 -0.39465166266E+01 -0.12534418904E+03  0.13191338787E+03  0.00000000000E+00 0. -1.
<mgrwt>
<rscale>  1 0.30000000E+03</rscale>
<asrwt>0</asrwt>
<pdfrwt beam="1">  1       21 0.13722475E-01 0.30000000E+03</pdfrwt>
<pdfrwt beam="2">0</pdfrwt>
<totfact> 0.48517615E+03</totfact>
</mgrwt>
</event>
<event>
 6    1  0.1284012E-001  0.3000000E+03  0.7818608E-02  0.1093470E+00
         21   -1    0    0  501  502  0.00000000000E+00  0.00000000000E+00  0.82005017161E+01  0.82005017161E+01  0.00000000000E+00 0. -1.
         13   -1    0    0    0    0 -0.00000000000E+00 -0.00000000000E+00 -0.10000000000E+04  0.10000000000E+04  0.00000000000E+00 0.  1.
    9000005    2    1    2  501    0  0.86275843730E+01  0.80317498001E+02 -0.72354893691E+03  0.72805107842E+03  0.31580030718E+01 0.  0.
         13    1    3    3    0    0  0.85696327052E+00  0.34507306599E+01 -0.28178552395E+02  0.28401984847E+02  0.00000000000E+00 0.  1.
          1    1    3    3  501    0  0.77706211025E+01  0.76866767341E+02 -0.69537038452E+03  0.69964909357E+03  0.00000000000E+00 0.  1.
         -3    1    1    2    0  502 -0.86275843730E+01 -0.80317498001E+02 -0.26825056137E+03  0.28014942330E+03  0.00000000000E+00 0. -1.
<mgrwt>
<rscale>  1 0.30000000E+03</rscale>
<asrwt>0</asrwt>
<pdfrwt beam="1">  1       21 0.29820069E-01 0.30000000E+03</pdfrwt>
<pdfrwt beam="2">0</pdfrwt>
<totfact> 0.11004374E+03</totfact>
</mgrwt>
</event>
<event>
 6    1  0.1284012E-001  0.3000000E+03  0.7818608E-02  0.1093470E+00
         21   -1    0    0  501  502  0.00000000000E+00  0.00000000000E+00  0.22399737508E+01  0.22399737508E+01  0.00000000000E+00 0. -1.
         13   -1    0    0    0    0 -0.00000000000E+00 -0.00000000000E+00 -0.10000000000E+04  0.10000000000E+04  0.00000000000E+00 0.  1.
    9000005    2    1    2  501    0 -0.18869559831E+02  0.41363596823E+02 -0.63658765564E+03  0.63821732512E+03  0.32408840983E+01 0.  0.
         13    1    3    3    0    0 -0.91695456340E+01  0.17155905025E+02 -0.28660034593E+03  0.28725974993E+03  0.00000000000E+00 0.  1.
          3    1    3    3  501    0 -0.97000141974E+01  0.24207691798E+02 -0.34998730972E+03  0.35095757518E+03  0.00000000000E+00 0.  1.
         -1    1    1    2    0  502  0.18869559831E+02 -0.41363596823E+02 -0.36117237061E+03  0.36402264863E+03  0.00000000000E+00 0. -1.
<mgrwt>
<rscale>  1 0.30000000E+03</rscale>
<asrwt>0</asrwt>
<pdfrwt beam="1">  1       21 0.81453763E-02 0.30000000E+03</pdfrwt>
<pdfrwt beam="2">0</pdfrwt>
<totfact> 0.12375925E+04</totfact>
</mgrwt>
</event>
<event>
 6    1  0.1284012E-001  0.3000000E+03  0.7818608E-02  0.1093470E+00
         21   -1    0    0  501  502  0.00000000000E+00  0.00000000000E+00  0.10370193119E+01  0.10370193119E+01  0.00000000000E+00 0. -1.
         13   -1    0    0    0    0 -0.00000000000E+00 -0.00000000000E+00 -0.10000000000E+04  0.10000000000E+04  0.00000000000E+00 0.  1.
    9000005    2    1    2  501    0  0.24422617871E+02 -0.18071585720E+02 -0.66177189290E+03  0.66247996923E+03  0.38242553586E+01 0.  0.
         13    1    3    3    0    0  0.61832949918E+00 -0.66384041841E+00 -0.99386153150E+01  0.99799343610E+01  0.00000000000E+00 0.  1.
          1    1    3    3  501    0  0.23804288372E+02 -0.17407745302E+02 -0.65183327758E+03  0.65250003487E+03  0.00000000000E+00 0.  1.
         -1    1    1    2    0  502 -0.24422617871E+02  0.18071585720E+02 -0.33719108779E+03  0.33855705008E+03  0.00000000000E+00 0. -1.
<mgrwt>
<rscale>  1 0.30000000E+03</rscale>
<asrwt>0</asrwt>
<pdfrwt beam="1">  1       21 0.37709873E-02 0.30000000E+03</pdfrwt>
<pdfrwt beam="2">0</pdfrwt>
<totfact> 0.46430037E+04</totfact>
</mgrwt>
</event>
<event>
 6    1  0.1284012E-001  0.3000000E+03  0.7818608E-02  0.1093470E+00
         21   -1    0    0  501  502  0.00000000000E+00  0.00000000000E+00  0.57381964611E+01  0.57381964611E+01  0.00000000000E+00 0. -1.
         13   -1    0    0    0    0 -0.00000000000E+00 -0.00000000000E+00 -0.10000000000E+04  0.10000000000E+04  0.00000000000E+00 0.  1.
    9000005    2    1    2  501    0  0.81870960892E+01 -0.37636157518E+02 -0.93008240793E+03  0.93088832194E+03  0.40340411275E+01 0.  0.
         13    1    3    3    0    0  0.85888873056E+01 -0.36547716743E+02 -0.90721765743E+03  0.90799415336E+03  0.00000000000E+00 0.  1.
          1    1    3    3  501    0 -0.40179121643E+00 -0.10884407749E+01 -0.22864750504E+02  0.22894168583E+02  0.00000000000E+00 0.  1.
         -1    1    1    2    0  502 -0.81870960892E+01  0.37636157518E+02 -0.64179395606E+02  0.74849874519E+02  0.00000000000E+00 0. -1.
<mgrwt>
<rscale>  1 0.30000000E+03</rscale>
<asrwt>0</asrwt>
<pdfrwt beam="1">  1       21 0.20866213E-01 0.30000000E+03</pdfrwt>
<pdfrwt beam="2">0</pdfrwt>
<totfact> 0.22123539E+03</totfact>
</mgrwt>
</event>
<event>
 6    1  0.1284012E-001  0.3000000E+03  0.7818608E-02  0.1093470E+00
         21   -1    0    0  501  502  0.00000000000E+00  0.00000000000E+00  0.21681482204E+01  0.21681482204E+01  0.00000000000E+00 0. -1.
         13   -1    0    0    0    0 -0.00000000000E+00 -0.00000000000E+00 -0.10000000000E+04  0.10000000000E+04  0.00000000000E+00 0.  1.
    9000005    2    1    2  501    0  0.78598381063E+01 -0.33567404067E+02 -0.83560802496E+03  0.83632147909E+03  0.20730058171E+01 0.  0.
         13    1    3    3    0    0  0.74313779088E+01 -0.28530506312E+02 -0.71282591441E+03  0.71343535056E+03  0.00000000000E+00 0.  1.
          1    1    3    3  501    0  0.42846019749E+00 -0.50368977546E+01 -0.12278211054E+03  0.12288612854E+03  0.00000000000E+00 0.  1.
         -3    1    1    2    0  502 -0.78598381063E+01  0.33567404067E+02 -0.16222382682E+03  0.16584666913E+03  0.00000000000E+00 0. -1.
<mgrwt>
<rscale>  1 0.30000000E+03</rscale>
<asrwt>0</asrwt>
<pdfrwt beam="1">  1       21 0.78841920E-02 0.30000000E+03</pdfrwt>
<pdfrwt beam="2">0</pdfrwt>
<totfact> 0.13105127E+04</totfact>
</mgrwt>
</event>
<event>
 6    1  0.1284012E-001  0.3000000E+03  0.7818608E-02  0.1093470E+00
         21   -1    0    0  501  502  0.00000000000E+00  0.00000000000E+00  0.58394755036E+01  0.58394755036E+01  0.00000000000E+00 0. -1.
         13   -1    0    0    0    0 -0.00000000000E+00 -0.00000000000E+00 -0.10000000000E+04  0.10000000000E+04  0.00000000000E+00 0.  1.
    9000005    2    1    2  501    0 -0.16389633881E+02 -0.28207455938E+02 -0.95183146408E+03  0.95239763772E+03  0.37207078065E+01 0.  0.
         13    1    3    3    0    0 -0.43362034029E+01 -0.72200443167E+01 -0.20146928820E+03  0.20164524737E+03  0.00000000000E+00 0.  1.
          1    1    3    3  501    0 -0.12053430478E+02 -0.20987411621E+02 -0.75036217588E+03  0.75075239035E+03  0.00000000000E+00 0.  1.
         -1    1    1    2    0  502  0.16389633881E+02  0.28207455938E+02 -0.42329060420E+02  0.53441837780E+02  0.00000000000E+00 0. -1.
<mgrwt>
<rscale>  1 0.30000000E+03</rscale>
<asrwt>0</asrwt>
<pdfrwt beam="1">  1       21 0.21234501E-01 0.30000000E+03</pdfrwt>
<pdfrwt beam="2">0</pdfrwt>
<totfact> 0.21393716E+03</totfact>
</mgrwt>
</event>
<event>
 6    1  0.1284012E-001  0.3000000E+03  0.7818608E-02  0.1093470E+00
         21   -1    0    0  501  502  0.00000000000E+00  0.00000000000E+00  0.13186246621E+01  0.13186246621E+01  0.00000000000E+00 0. -1.
         13   -1    0    0    0    0 -0.00000000000E+00 -0.00000000000E+00 -0.10000000000E+04  0.10000000000E+04  0.00000000000E+00 0.  1.
    9000005    2    1    2  501    0  0.35307686331E+02  0.74957729240E+01 -0.54417335392E+03  0.54537963658E+03  0.33896234148E+01 0.  0.
         13    1    3    3    0    0  0.99619242390E+01  0.57635967684E+00 -0.15202955107E+03  0.15235667535E+03  0.00000000000E+00 0.  1.
          1    1    3    3  501    0  0.25345762092E+02  0.69194132472E+01 -0.39214380285E+03  0.39302296123E+03  0.00000000000E+00 0.  1.
         -1    1    1    2    0  502 -0.35307686331E+02 -0.74957729240E+01 -0.45450802142E+03  0.45593898809E+03  0.00000000000E+00 0. -1.
<mgrwt>
<rscale>  1 0.30000000E+03</rscale>
<asrwt>0</asrwt>
<pdfrwt beam="1">  1       21 0.47950089E-02 0.30000000E+03</pdfrwt>
<pdfrwt beam="2">0</pdfrwt>
<totfact> 0.30933253E+04</totfact>
</mgrwt>
</event>
<event>
 6    1  0.1284012E-001  0.3000000E+03  0.7818608E-02  0.1093470E+00
         21   -1    0    0  501  502  0.00000000000E+00  0.00000000000E+00  0.19634195800E+01  0.19634195800E+01  0.00000000000E+00 0. -1.
         13   -1    0    0    0    0 -0.00000000000E+00 -0.00000000000E+00 -0.10000000000E+04  0.10000000000E+04  0.00000000000E+00 0.  1.
    9000005    2    1    2  501    0 -0.38310253959E+02  0.20646752617E+02 -0.59031502151E+03  0.59192581941E+03  0.32229044996E+01 0.  0.
         13    1    3    3    0    0 -0.14094328810E+02  0.73512167875E+01 -0.19518599649E+03  0.19583223361E+03  0.00000000000E+00 0.  1.
          1    1    3    3  501    0 -0.24215925149E+02  0.13295535830E+02 -0.39512902501E+03  0.39609358580E+03  0.00000000000E+00 0.  1.
         -1    1    1    2    0  502  0.38310253959E+02 -0.20646752617E+02 -0.40772155891E+03  0.41003760017E+03  0.00000000000E+00 0. -1.
<mgrwt>
<rscale>  1 0.30000000E+03</rscale>
<asrwt>0</asrwt>
<pdfrwt beam="1">  1       21 0.71397226E-02 0.30000000E+03</pdfrwt>
<pdfrwt beam="2">0</pdfrwt>
<totfact> 0.15589301E+04</totfact>
</mgrwt>
</event>
<event>
 6    1  0.1284012E-001  0.3000000E+03  0.7818608E-02  0.1093470E+00
         21   -1    0    0  501  502  0.00000000000E+00  0.00000000000E+00  0.11516460753E+01  0.11516460753E+01  0.00000000000E+00 0. -1.
         13   -1    0    0    0    0 -0.00000000000E+00 -0.00000000000E+00 -0.10000000000E+04  0.10000000000E+04  0.00000000000E+00 0.  1.
    9000005    2    1    2  501    0 -0.10399958818E+02 -0.30188749224E+02 -0.66725698358E+03  0.66802650951E+03  0.28311749247E+01 0.  0.
         13    1    3    3    0    0 -0.55386823688E+01 -0.14276111904E+02 -0.29305542187E+03  0.29345521747E+03  0.00000000000E+00 0.  1.
          1    1    3    3  501    0 -0.48612764489E+01 -0.15912637321E+02 -0.37420156171E+03  0.37457129204E+03  0.00000000000E+00 0.  1.
         -3    1    1    2    0  502  0.10399958818E+02  0.30188749224E+02 -0.33159137035E+03  0.33312513656E+03  0.00000000000E+00 0. -1.
<mgrwt>
<rscale>  1 0.30000000E+03</rscale>
<asrwt>0</asrwt>
<pdfrwt beam="1">  1       21 0.41878127E-02 0.30000000E+03</pdfrwt>
<pdfrwt beam="2">0</pdfrwt>
<totfact> 0.38916942E+04</totfact>
</mgrwt>
</event>
<event>
 6    1  0.1284012E-001  0.3000000E+03  0.7818608E-02  0.1093470E+00
         21   -1    0    0  501  502  0.00000000000E+00  0.00000000000E+00  0.17250930511E+01  0.17250930511E+01  0.00000000000E+00 0. -1.
         13   -1    0    0    0    0 -0.00000000000E+00 -0.00000000000E+00 -0.10000000000E+04  0.10000000000E+04  0.00000000000E+00 0.  1.
    9000005    2    1    2  501    0 -0.36195656200E+02  0.19883983303E+02 -0.54589694772E+03  0.54746600804E+03  0.31708214613E+01 0.  0.
         13    1    3    3    0    0 -0.28367708151E+01  0.22772773498E+01 -0.40221728110E+02  0.40385896956E+02  0.00000000000E+00 0.  1.
          1    1    3    3  501    0 -0.33358885385E+02  0.17606705953E+02 -0.50567521961E+03  0.50708011108E+03  0.00000000000E+00 0.  1.
         -1    1    1    2    0  502  0.36195656200E+02 -0.19883983303E+02 -0.45237795923E+03  0.45425908502E+03  0.00000000000E+00 0. -1.
<mgrwt>
<rscale>  1 0.30000000E+03</rscale>
<asrwt>0</asrwt>
<pdfrwt beam="1">  1       21 0.62730789E-02 0.30000000E+03</pdfrwt>
<pdfrwt beam="2">0</pdfrwt>
<totfact> 0.19513295E+04</totfact>
</mgrwt>
</event>
<event>
 6    1  0.1284012E-001  0.3000000E+03  0.7818608E-02  0.1093470E+00
         21   -1    0    0  501  502  0.00000000000E+00  0.00000000000E+00  0.18788412350E+01  0.18788412350E+01  0.00000000000E+00 0. -1.
         13   -1    0    0    0    0 -0.00000000000E+00 -0.00000000000E+00 -0.10000000000E+04  0.10000000000E+04  0.00000000000E+00 0.  1.
    9000005    2    1    2  501    0 -0.26481845298E+02  0.29123815202E+02 -0.70785958175E+03  0.70896030677E+03  0.31692832990E+01 0.  0.
         13    1    3    3    0    0 -0.33822955734E+01  0.38145452944E+01 -0.74215409141E+02  0.74390306042E+02  0.00000000000E+00 0.  1.
          1    1    3    3  501    0 -0.23099549725E+02  0.25309269908E+02 -0.63364417261E+03  0.63457000073E+03  0.00000000000E+00 0.  1.
         -3    1    1    2    0  502  0.26481845298E+02 -0.29123815202E+02 -0.29026157701E+03  0.29291853446E+03  0.00000000000E+00 0. -1.
<mgrwt>
<rscale>  1 0.30000000E+03</rscale>
<asrwt>0</asrwt>
<pdfrwt beam="1">  1       21 0.68321644E-02 0.30000000E+03</pdfrwt>
<pdfrwt beam="2">0</pdfrwt>
<totfact> 0.16830690E+04</totfact>
</mgrwt>
</event>
<event>
 6    1  0.1284012E-001  0.3000000E+03  0.7818608E-02  0.1093470E+00
         21   -1    0    0  501  502  0.00000000000E+00  0.00000000000E+00  0.26602235540E+01  0.26602235540E+01  0.00000000000E+00 0. -1.
         13   -1    0    0    0    0 -0.00000000000E+00 -0.00000000000E+00 -0.10000000000E+04  0.10000000000E+04  0.00000000000E+00 0.  1.
    9000005    2    1    2  501    0  0.39737254827E+02  0.25929025420E+02 -0.69422029202E+03  0.69584955617E+03  0.36643134107E+01 0.  0.
         13    1    3    3    0    0  0.26254953055E+02  0.17371605043E+02 -0.43477141938E+03  0.43590971809E+03  0.00000000000E+00 0.  1.
          3    1    3    3  501    0  0.13482301772E+02  0.85574203776E+01 -0.25944887264E+03  0.25993983808E+03  0.00000000000E+00 0.  1.
         -3    1    1    2    0  502 -0.39737254827E+02 -0.25929025420E+02 -0.30311948443E+03  0.30681066738E+03  0.00000000000E+00 0. -1.
<mgrwt>
<rscale>  1 0.30000000E+03</rscale>
<asrwt>0</asrwt>
<pdfrwt beam="1">  1       21 0.96735606E-02 0.30000000E+03</pdfrwt>
<pdfrwt beam="2">0</pdfrwt>
<totfact> 0.91283103E+03</totfact>
</mgrwt>
</event>
<event>
 6    1  0.1284012E-001  0.3000000E+03  0.7818608E-02  0.1093470E+00
         21   -1    0    0  501  502  0.00000000000E+00  0.00000000000E+00  0.11239339500E+02  0.11239339500E+02  0.00000000000E+00 0. -1.
         13   -1    0    0    0    0 -0.00000000000E+00 -0.00000000000E+00 -0.10000000000E+04  0.10000000000E+04  0.00000000000E+00 0.  1.
    9000005    2    1    2  501    0 -0.63548684484E+02  0.53567582102E+02 -0.80818817589E+03  0.81245718902E+03  0.32611632536E+01 0.  0.
         13    1    3    3    0    0 -0.37658625343E+01  0.32255246485E+01 -0.41205395052E+02  0.41502654268E+02  0.00000000000E+00 0.  1.
          3    1    3    3  501    0 -0.59782821950E+02  0.50342057454E+02 -0.76698278084E+03  0.77095453475E+03  0.00000000000E+00 0.  1.
         -3    1    1    2    0  502  0.63548684484E+02 -0.53567582102E+02 -0.18057248461E+03  0.19878215048E+03  0.00000000000E+00 0. -1.
<mgrwt>
<rscale>  1 0.30000000E+03</rscale>
<asrwt>0</asrwt>
<pdfrwt beam="1">  1       21 0.40870412E-01 0.30000000E+03</pdfrwt>
<pdfrwt beam="2">0</pdfrwt>
<totfact> 0.57741700E+02</totfact>
</mgrwt>
</event>
<event>
 6    1  0.1284012E-001  0.3000000E+03  0.7818608E-02  0.1093470E+00
         21   -1    0    0  501  502  0.00000000000E+00  0.00000000000E+00  0.62520599879E+01  0.62520599879E+01  0.00000000000E+00 0. -1.
         13   -1    0    0    0    0 -0.00000000000E+00 -0.00000000000E+00 -0.10000000000E+04  0.10000000000E+04  0.00000000000E+00 0.  1.
    9000005    2    1    2  501    0  0.47580306830E+02  0.37636691045E+02 -0.81939237701E+03  0.82164364073E+03  0.37414890514E+01 0.  0.
         13    1    3    3    0    0  0.17494744283E+02  0.11694714939E+02 -0.27590531004E+03  0.27670665432E+03  0.00000000000E+00 0.  1.
          1    1    3    3  501    0  0.30085562547E+02  0.25941976106E+02 -0.54348706696E+03  0.54493698641E+03  0.00000000000E+00 0.  1.
         -3    1    1    2    0  502 -0.47580306830E+02 -0.37636691045E+02 -0.17435556300E+03  0.18460841926E+03  0.00000000000E+00 0. -1.
<mgrwt>
<rscale>  1 0.30000000E+03</rscale>
<asrwt>0</asrwt>
<pdfrwt beam="1">  1       21 0.22734812E-01 0.30000000E+03</pdfrwt>
<pdfrwt beam="2">0</pdfrwt>
<totfact> 0.18758734E+03</totfact>
</mgrwt>
</event>
<event>
 6    1  0.1284012E-001  0.3000000E+03  0.7818608E-02  0.1093470E+00
         21   -1    0    0  501  502  0.00000000000E+00  0.00000000000E+00  0.24601543614E+01  0.24601543614E+01  0.00000000000E+00 0. -1.
         13   -1    0    0    0    0 -0.00000000000E+00 -0.00000000000E+00 -0.10000000000E+04  0.10000000000E+04  0.00000000000E+00 0.  1.
    9000005    2    1    2  501    0  0.35884371610E+01  0.33226332502E+02 -0.86895429090E+03  0.86960267079E+03  0.32216957750E+01 0.  0.
         13    1    3    3    0    0  0.27577410557E+01  0.16108808404E+02 -0.45666758125E+03  0.45695993108E+03  0.00000000000E+00 0.  1.
          3    1    3    3  501    0  0.83069610529E+00  0.17117524098E+02 -0.41228670965E+03  0.41264273971E+03  0.00000000000E+00 0.  1.
         -1    1    1    2    0  502 -0.35884371610E+01 -0.33226332502E+02 -0.12858555474E+03  0.13285748357E+03  0.00000000000E+00 0. -1.
<mgrwt>
<rscale>  1 0.30000000E+03</rscale>
<asrwt>0</asrwt>
<pdfrwt beam="1">  1       21 0.89460347E-02 0.30000000E+03</pdfrwt>
<pdfrwt beam="2">0</pdfrwt>
<totfact> 0.10489230E+04</totfact>
</mgrwt>
</event>
<event>
 6    1  0.1284012E-001  0.3000000E+03  0.7818608E-02  0.1093470E+00
         21   -1    0    0  501  502  0.00000000000E+00  0.00000000000E+00  0.14242206627E+01  0.14242206627E+01  0.00000000000E+00 0. -1.
         13   -1    0    0    0    0 -0.00000000000E+00 -0.00000000000E+00 -0.10000000000E+04  0.10000000000E+04  0.00000000000E+00 0.  1.
    9000005    2    1    2  501    0 -0.10434574898E+02 -0.35592894814E+02 -0.58837344279E+03  0.58954840027E+03  0.28763808721E+01 0.  0.
         13    1    3    3    0    0 -0.44996290648E+01 -0.15813100515E+02 -0.23844268102E+03  0.23900881352E+03  0.00000000000E+00 0.  1.
          1    1    3    3  501    0 -0.59349458334E+01 -0.19779794299E+02 -0.34993076177E+03  0.35053958675E+03  0.00000000000E+00 0.  1.
         -1    1    1    2    0  502  0.10434574898E+02  0.35592894814E+02 -0.41020233655E+03  0.41187582039E+03  0.00000000000E+00 0. -1.
<mgrwt>
<rscale>  1 0.30000000E+03</rscale>
<asrwt>0</asrwt>
<pdfrwt beam="1">  1       21 0.51789951E-02 0.30000000E+03</pdfrwt>
<pdfrwt beam="2">0</pdfrwt>
<totfact> 0.27126785E+04</totfact>
</mgrwt>
</event>
<event>
 6    1  0.1284012E-001  0.3000000E+03  0.7818608E-02  0.1093470E+00
         21   -1    0    0  501  502  0.00000000000E+00  0.00000000000E+00  0.14181531301E+01  0.14181531301E+01  0.00000000000E+00 0. -1.
         13   -1    0    0    0    0 -0.00000000000E+00 -0.00000000000E+00 -0.10000000000E+04  0.10000000000E+04  0.00000000000E+00 0.  1.
    9000005    2    1    2  501    0 -0.23674590498E+02  0.26958668050E+02 -0.64937196382E+03  0.65037001051E+03  0.31539111282E+01 0.  0.
         13    1    3    3    0    0 -0.23571416456E+02  0.26765218796E+02 -0.63810594250E+03  0.63910185610E+03  0.00000000000E+00 0.  1.
          3    1    3    3  501    0 -0.10317404138E+00  0.19344925410E+00 -0.11266021315E+02  0.11268154409E+02  0.00000000000E+00 0.  1.
         -1    1    1    2    0  502  0.23674590498E+02 -0.26958668050E+02 -0.34920988305E+03  0.35104814262E+03  0.00000000000E+00 0. -1.
<mgrwt>
<rscale>  1 0.30000000E+03</rscale>
<asrwt>0</asrwt>
<pdfrwt beam="1">  1       21 0.51569313E-02 0.30000000E+03</pdfrwt>
<pdfrwt beam="2">0</pdfrwt>
<totfact> 0.27325285E+04</totfact>
</mgrwt>
</event>
<event>
 6    1  0.1284012E-001  0.3000000E+03  0.7818608E-02  0.1093470E+00
         21   -1    0    0  501  502  0.00000000000E+00  0.00000000000E+00  0.16540620543E+01  0.16540620543E+01  0.00000000000E+00 0. -1.
         13   -1    0    0    0    0 -0.00000000000E+00 -0.00000000000E+00 -0.10000000000E+04  0.10000000000E+04  0.00000000000E+00 0.  1.
    9000005    2    1    2  501    0  0.99651099408E+01  0.31610969791E+02 -0.78851470200E+03  0.78922123877E+03  0.40213975924E+01 0.  0.
         13    1    3    3    0    0  0.23264469613E+01  0.13269214956E+02 -0.33939552858E+03  0.33966278754E+03  0.00000000000E+00 0.  1.
          1    1    3    3  501    0  0.76386629795E+01  0.18341754836E+02 -0.44911917342E+03  0.44955845123E+03  0.00000000000E+00 0.  1.
         -1    1    1    2    0  502 -0.99651099408E+01 -0.31610969791E+02 -0.20983123595E+03  0.21243282328E+03  0.00000000000E+00 0. -1.
<mgrwt>
<rscale>  1 0.30000000E+03</rscale>
<asrwt>0</asrwt>
<pdfrwt beam="1">  1       21 0.60147838E-02 0.30000000E+03</pdfrwt>
<pdfrwt beam="2">0</pdfrwt>
<totfact> 0.20982417E+04</totfact>
</mgrwt>
</event>
<event>
 6    1  0.1284012E-001  0.3000000E+03  0.7818608E-02  0.1093470E+00
         21   -1    0    0  501  502  0.00000000000E+00  0.00000000000E+00  0.28530725133E+01  0.28530725133E+01  0.00000000000E+00 0. -1.
         13   -1    0    0    0    0 -0.00000000000E+00 -0.00000000000E+00 -0.10000000000E+04  0.10000000000E+04  0.00000000000E+00 0.  1.
    9000005    2    1    2  501    0 -0.48495136223E+02 -0.17435590753E+02 -0.62945788254E+03  0.63157014558E+03  0.28008618733E+01 0.  0.
         13    1    3    3    0    0 -0.26271199697E+01 -0.16404188380E+01 -0.38981247262E+02  0.39104096606E+02  0.00000000000E+00 0.  1.
          3    1    3    3  501    0 -0.45868016254E+02 -0.15795171915E+02 -0.59047663528E+03  0.59246604897E+03  0.00000000000E+00 0.  1.
         -1    1    1    2    0  502  0.48495136223E+02  0.17435590753E+02 -0.36768904494E+03  0.37128292693E+03  0.00000000000E+00 0. -1.
<mgrwt>
<rscale>  1 0.30000000E+03</rscale>
<asrwt>0</asrwt>
<pdfrwt beam="1">  1       21 0.10374831E-01 0.30000000E+03</pdfrwt>
<pdfrwt beam="2">0</pdfrwt>
<totfact> 0.80551116E+03</totfact>
</mgrwt>
</event>
<event>
 6    1  0.1284012E-001  0.3000000E+03  0.7818608E-02  0.1093470E+00
         21   -1    0    0  501  502  0.00000000000E+00  0.00000000000E+00  0.38892575193E+01  0.38892575193E+01  0.00000000000E+00 0. -1.
         13   -1    0    0    0    0 -0.00000000000E+00 -0.00000000000E+00 -0.10000000000E+04  0.10000000000E+04  0.00000000000E+00 0.  1.
    9000005    2    1    2  501    0  0.99481728454E+01  0.41361185359E+02 -0.86497301547E+03  0.86602404348E+03  0.31004180941E+01 0.  0.
         13    1    3    3    0    0  0.52255104398E+01  0.15310551946E+02 -0.33026488436E+03  0.33066087280E+03  0.00000000000E+00 0.  1.
          3    1    3    3  501    0  0.47226624055E+01  0.26050633414E+02 -0.53470813111E+03  0.53536317067E+03  0.00000000000E+00 0.  1.
         -1    1    1    2    0  502 -0.99481728454E+01 -0.41361185359E+02 -0.13113772701E+03  0.13786521404E+03  0.00000000000E+00 0. -1.
<mgrwt>
<rscale>  1 0.30000000E+03</rscale>
<asrwt>0</asrwt>
<pdfrwt beam="1">  1       21 0.14142784E-01 0.30000000E+03</pdfrwt>
<pdfrwt beam="2">0</pdfrwt>
<totfact> 0.45902517E+03</totfact>
</mgrwt>
</event>
<event>
 6    1  0.1284012E-001  0.3000000E+03  0.7818608E-02  0.1093470E+00
         21   -1    0    0  501  502  0.00000000000E+00  0.00000000000E+00  0.38133591749E+01  0.38133591749E+01  0.00000000000E+00 0. -1.
         13   -1    0    0    0    0 -0.00000000000E+00 -0.00000000000E+00 -0.10000000000E+04  0.10000000000E+04  0.00000000000E+00 0.  1.
    9000005    2    1    2  501    0 -0.11702103843E+02 -0.47543458198E+02 -0.80366769436E+03  0.80516577072E+03  0.35826981721E+01 0.  0.
         13    1    3    3    0    0 -0.36582777153E+01 -0.21905694818E+02 -0.37334965050E+03  0.37400963088E+03  0.00000000000E+00 0.  1.
          1    1    3    3  501    0 -0.80438261278E+01 -0.25637763379E+02 -0.43031804385E+03  0.43115613983E+03  0.00000000000E+00 0.  1.
         -1    1    1    2    0  502  0.11702103843E+02  0.47543458198E+02 -0.19251894647E+03  0.19864758846E+03  0.00000000000E+00 0. -1.
<mgrwt>
<rscale>  1 0.30000000E+03</rscale>
<asrwt>0</asrwt>
<pdfrwt beam="1">  1       21 0.13866790E-01 0.30000000E+03</pdfrwt>
<pdfrwt beam="2">0</pdfrwt>
<totfact> 0.47595161E+03</totfact>
</mgrwt>
</event>
<event>
 6    1  0.1284012E-001  0.3000000E+03  0.7818608E-02  0.1093470E+00
         21   -1    0    0  501  502  0.00000000000E+00  0.00000000000E+00  0.29412222592E+01  0.29412222592E+01  0.00000000000E+00 0. -1.
         13   -1    0    0    0    0 -0.00000000000E+00 -0.00000000000E+00 -0.10000000000E+04  0.10000000000E+04  0.00000000000E+00 0.  1.
    9000005    2    1    2  501    0  0.37159882778E+02  0.20335714304E+02 -0.81152295765E+03  0.81263111034E+03  0.23264833639E+01 0.  0.
         13    1    3    3    0    0  0.25088128867E+02  0.12598904661E+02 -0.54623138779E+03  0.54695235223E+03  0.00000000000E+00 0.  1.
          3    1    3    3  501    0  0.12071753911E+02  0.77368096429E+01 -0.26529156986E+03  0.26567875810E+03  0.00000000000E+00 0.  1.
         -1    1    1    2    0  502 -0.37159882778E+02 -0.20335714304E+02 -0.18553582009E+03  0.19031011192E+03  0.00000000000E+00 0. -1.
<mgrwt>
<rscale>  1 0.30000000E+03</rscale>
<asrwt>0</asrwt>
<pdfrwt beam="1">  1       21 0.10695376E-01 0.30000000E+03</pdfrwt>
<pdfrwt beam="2">0</pdfrwt>
<totfact> 0.76274085E+03</totfact>
</mgrwt>
</event>
<event>
 6    1  0.1284012E-001  0.3000000E+03  0.7818608E-02  0.1093470E+00
         21   -1    0    0  501  502  0.00000000000E+00  0.00000000000E+00  0.41817551778E+01  0.41817551778E+01  0.00000000000E+00 0. -1.
         13   -1    0    0    0    0 -0.00000000000E+00 -0.00000000000E+00 -0.10000000000E+04  0.10000000000E+04  0.00000000000E+00 0.  1.
    9000005    2    1    2  501    0  0.63250428051E+01 -0.35825532352E+02 -0.91299043249E+03  0.91371672640E+03  0.18031537038E+01 0.  0.
         13    1    3    3    0    0  0.64330078111E+01 -0.35566687036E+02 -0.90603347828E+03  0.90675412134E+03  0.00000000000E+00 0.  1.
          1    1    3    3  501    0 -0.10796500593E+00 -0.25884531587E+00 -0.69569542111E+01  0.69626050610E+01  0.00000000000E+00 0.  1.
         -1    1    1    2    0  502 -0.63250428051E+01  0.35825532352E+02 -0.82827812335E+02  0.90465028774E+02  0.00000000000E+00 0. -1.
<mgrwt>
<rscale>  1 0.30000000E+03</rscale>
<asrwt>0</asrwt>
<pdfrwt beam="1">  1       21 0.15206415E-01 0.30000000E+03</pdfrwt>
<pdfrwt beam="2">0</pdfrwt>
<totfact> 0.40150867E+03</totfact>
</mgrwt>
</event>
<event>
 6    1  0.1284012E-001  0.3000000E+03  0.7818608E-02  0.1093470E+00
         21   -1    0    0  501  502  0.00000000000E+00  0.00000000000E+00  0.56729287040E+01  0.56729287040E+01  0.00000000000E+00 0. -1.
         13   -1    0    0    0    0 -0.00000000000E+00 -0.00000000000E+00 -0.10000000000E+04  0.10000000000E+04  0.00000000000E+00 0.  1.
    9000005    2    1    2  501    0 -0.18744171366E+02 -0.32657155730E+02 -0.93261075450E+03  0.93337674942E+03  0.33916314422E+01 0.  0.
         13    1    3    3    0    0 -0.13076283156E+02 -0.19478226443E+02 -0.57986631571E+03  0.58034070561E+03  0.00000000000E+00 0.  1.
          1    1    3    3  501    0 -0.56678882104E+01 -0.13178929287E+02 -0.35274443878E+03  0.35303604381E+03  0.00000000000E+00 0.  1.
         -1    1    1    2    0  502  0.18744171366E+02  0.32657155730E+02 -0.61716316798E+02  0.72296179288E+02  0.00000000000E+00 0. -1.
<mgrwt>
<rscale>  1 0.30000000E+03</rscale>
<asrwt>0</asrwt>
<pdfrwt beam="1">  1       21 0.20628875E-01 0.30000000E+03</pdfrwt>
<pdfrwt beam="2">0</pdfrwt>
<totfact> 0.22613508E+03</totfact>
</mgrwt>
</event>
<event>
 6    1  0.1284012E-001  0.3000000E+03  0.7818608E-02  0.1093470E+00
         21   -1    0    0  501  502  0.00000000000E+00  0.00000000000E+00  0.19139591832E+01  0.19139591832E+01  0.00000000000E+00 0. -1.
         13   -1    0    0    0    0 -0.00000000000E+00 -0.00000000000E+00 -0.10000000000E+04  0.10000000000E+04  0.00000000000E+00 0.  1.
    9000005    2    1    2  501    0 -0.23379409898E+02 -0.28882044422E+02 -0.76285069904E+03  0.76376183276E+03  0.31904331649E+01 0.  0.
         13    1    3    3    0    0 -0.22756936071E+02 -0.28586846929E+02 -0.74106257108E+03  0.74196281592E+03  0.00000000000E+00 0.  1.
          3    1    3    3  501    0 -0.62247382669E+00 -0.29519749249E+00 -0.21788127960E+02  0.21799016841E+02  0.00000000000E+00 0.  1.
         -1    1    1    2    0  502  0.23379409898E+02  0.28882044422E+02 -0.23523534178E+03  0.23815212642E+03  0.00000000000E+00 0. -1.
<mgrwt>
<rscale>  1 0.30000000E+03</rscale>
<asrwt>0</asrwt>
<pdfrwt beam="1">  1       21 0.69598663E-02 0.30000000E+03</pdfrwt>
<pdfrwt beam="2">0</pdfrwt>
<totfact> 0.16297521E+04</totfact>
</mgrwt>
</event>
<event>
 6    1  0.1284012E-001  0.3000000E+03  0.7818608E-02  0.1093470E+00
         21   -1    0    0  501  502  0.00000000000E+00  0.00000000000E+00  0.23593811139E+01  0.23593811139E+01  0.00000000000E+00 0. -1.
         13   -1    0    0    0    0 -0.00000000000E+00 -0.00000000000E+00 -0.10000000000E+04  0.10000000000E+04  0.00000000000E+00 0.  1.
    9000005    2    1    2  501    0  0.41991425755E+02 -0.11437330600E+02 -0.27701140767E+03  0.28041717260E+03  0.20924493879E+01 0.  0.
         13    1    3    3    0    0  0.38301187522E+02 -0.10836726370E+02 -0.25026273449E+03  0.25340846844E+03  0.00000000000E+00 0.  1.
          3    1    3    3  501    0  0.36902382332E+01 -0.60060422946E+00 -0.26748673176E+02  0.27008704159E+02  0.00000000000E+00 0.  1.
         -3    1    1    2    0  502 -0.41991425755E+02  0.11437330600E+02 -0.72062921122E+03  0.72194220851E+03  0.00000000000E+00 0. -1.
<mgrwt>
<rscale>  1 0.30000000E+03</rscale>
<asrwt>0</asrwt>
<pdfrwt beam="1">  1       21 0.85795858E-02 0.30000000E+03</pdfrwt>
<pdfrwt beam="2">0</pdfrwt>
<totfact> 0.11294060E+04</totfact>
</mgrwt>
</event>
<event>
 6    1  0.1284012E-001  0.3000000E+03  0.7818608E-02  0.1093470E+00
         21   -1    0    0  501  502  0.00000000000E+00  0.00000000000E+00  0.29269400365E+01  0.29269400365E+01  0.00000000000E+00 0. -1.
         13   -1    0    0    0    0 -0.00000000000E+00 -0.00000000000E+00 -0.10000000000E+04  0.10000000000E+04  0.00000000000E+00 0.  1.
    9000005    2    1    2  501    0  0.76695695147E+01 -0.45224082804E+02 -0.76403013433E+03  0.76541263489E+03  0.32273086179E+01 0.  0.
         13    1    3    3    0    0  0.30455509373E+01 -0.16997985584E+02 -0.26219413682E+03  0.26276219720E+03  0.00000000000E+00 0.  1.
          3    1    3    3  501    0  0.46240185774E+01 -0.28226097220E+02 -0.50183599752E+03  0.50265043769E+03  0.00000000000E+00 0.  1.
         -3    1    1    2    0  502 -0.76695695147E+01  0.45224082804E+02 -0.23304292563E+03  0.23751430515E+03  0.00000000000E+00 0. -1.
<mgrwt>
<rscale>  1 0.30000000E+03</rscale>
<asrwt>0</asrwt>
<pdfrwt beam="1">  1       21 0.10643441E-01 0.30000000E+03</pdfrwt>
<pdfrwt beam="2">0</pdfrwt>
<totfact> 0.76943338E+03</totfact>
</mgrwt>
</event>
<event>
 6    1  0.1284012E-001  0.3000000E+03  0.7818608E-02  0.1093470E+00
         21   -1    0    0  501  502  0.00000000000E+00  0.00000000000E+00  0.38986145883E+01  0.38986145883E+01  0.00000000000E+00 0. -1.
         13   -1    0    0    0    0 -0.00000000000E+00 -0.00000000000E+00 -0.10000000000E+04  0.10000000000E+04  0.00000000000E+00 0.  1.
    9000005    2    1    2  501    0 -0.44947134906E+02  0.32557798650E+02 -0.72772642077E+03  0.72984501247E+03  0.27827229853E+01 0.  0.
         13    1    3    3    0    0 -0.39374553744E+02  0.28032872314E+02 -0.64419099258E+03  0.64600172781E+03  0.00000000000E+00 0.  1.
          3    1    3    3  501    0 -0.55725811617E+01  0.45249263362E+01 -0.83535428190E+02  0.83843284657E+02  0.00000000000E+00 0.  1.
         -1    1    1    2    0  502  0.44947134906E+02 -0.32557798650E+02 -0.26837496464E+03  0.27405360212E+03  0.00000000000E+00 0. -1.
<mgrwt>
<rscale>  1 0.30000000E+03</rscale>
<asrwt>0</asrwt>
<pdfrwt beam="1">  1       21 0.14176810E-01 0.30000000E+03</pdfrwt>
<pdfrwt beam="2">0</pdfrwt>
<totfact> 0.45700080E+03</totfact>
</mgrwt>
</event>
<event>
 6    1  0.1284012E-001  0.3000000E+03  0.7818608E-02  0.1093470E+00
         21   -1    0    0  501  502  0.00000000000E+00  0.00000000000E+00  0.59840677397E+01  0.59840677397E+01  0.00000000000E+00 0. -1.
         13   -1    0    0    0    0 -0.00000000000E+00 -0.00000000000E+00 -0.10000000000E+04  0.10000000000E+04  0.00000000000E+00 0.  1.
    9000005    2    1    2  501    0  0.36026575120E+02 -0.77618077023E+01 -0.93921341637E+03  0.93994259955E+03  0.34769485408E+01 0.  0.
         13    1    3    3    0    0  0.11961744058E+02 -0.35962180718E+01 -0.35190731013E+03  0.35212891251E+03  0.00000000000E+00 0.  1.
          3    1    3    3  501    0  0.24064831062E+02 -0.41655896305E+01 -0.58730610625E+03  0.58781368703E+03  0.00000000000E+00 0.  1.
         -3    1    1    2    0  502 -0.36026575120E+02  0.77618077023E+01 -0.54802515886E+02  0.66041468193E+02  0.00000000000E+00 0. -1.
<mgrwt>
<rscale>  1 0.30000000E+03</rscale>
<asrwt>0</asrwt>
<pdfrwt beam="1">  1       21 0.21760292E-01 0.30000000E+03</pdfrwt>
<pdfrwt beam="2">0</pdfrwt>
<totfact> 0.20411748E+03</totfact>
</mgrwt>
</event>
<event>
 6    1  0.1284012E-001  0.3000000E+03  0.7818608E-02  0.1093470E+00
         21   -1    0    0  501  502  0.00000000000E+00  0.00000000000E+00  0.92941047458E+00  0.92941047458E+00  0.00000000000E+00 0. -1.
         13   -1    0    0    0    0 -0.00000000000E+00 -0.00000000000E+00 -0.10000000000E+04  0.10000000000E+04  0.00000000000E+00 0.  1.
    9000005    2    1    2  501    0 -0.29107659918E+02 -0.74981625538E+01 -0.57757726213E+03  0.57836568351E+03  0.28092391250E+01 0.  0.
         13    1    3    3    0    0 -0.90415403594E+01 -0.34064172049E+01 -0.20068075852E+03  0.20091321502E+03  0.00000000000E+00 0.  1.
          3    1    3    3  501    0 -0.20066119559E+02 -0.40917453489E+01 -0.37689650361E+03  0.37745246849E+03  0.00000000000E+00 0.  1.
         -1    1    1    2    0  502  0.29107659918E+02  0.74981625538E+01 -0.42149332740E+03  0.42256372696E+03  0.00000000000E+00 0. -1.
<mgrwt>
<rscale>  1 0.30000000E+03</rscale>
<asrwt>0</asrwt>
<pdfrwt beam="1">  1       21 0.33796816E-02 0.30000000E+03</pdfrwt>
<pdfrwt beam="2">0</pdfrwt>
<totfact> 0.55786914E+04</totfact>
</mgrwt>
</event>
<event>
 6    1  0.1284012E-001  0.3000000E+03  0.7818608E-02  0.1093470E+00
         21   -1    0    0  501  502  0.00000000000E+00  0.00000000000E+00  0.12125672083E+01  0.12125672083E+01  0.00000000000E+00 0. -1.
         13   -1    0    0    0    0 -0.00000000000E+00 -0.00000000000E+00 -0.10000000000E+04  0.10000000000E+04  0.00000000000E+00 0.  1.
    9000005    2    1    2  501    0  0.28395020207E+02  0.10672768018E+02 -0.74285929226E+03  0.74349295548E+03  0.46542037073E+01 0.  0.
         13    1    3    3    0    0  0.19162337154E+02  0.48258489472E+01 -0.47628858399E+03  0.47669833147E+03  0.00000000000E+00 0.  1.
          3    1    3    3  501    0  0.92326830530E+01  0.58469190706E+01 -0.26657070826E+03  0.26679462402E+03  0.00000000000E+00 0.  1.
         -3    1    1    2    0  502 -0.28395020207E+02 -0.10672768018E+02 -0.25592814053E+03  0.25771961172E+03  0.00000000000E+00 0. -1.
<mgrwt>
<rscale>  1 0.30000000E+03</rscale>
<asrwt>0</asrwt>
<pdfrwt beam="1">  1       21 0.44093446E-02 0.30000000E+03</pdfrwt>
<pdfrwt beam="2">0</pdfrwt>
<totfact> 0.35667981E+04</totfact>
</mgrwt>
</event>
<event>
 6    1  0.1284012E-001  0.3000000E+03  0.7818608E-02  0.1093470E+00
         21   -1    0    0  501  502  0.00000000000E+00  0.00000000000E+00  0.11111339289E+01  0.11111339289E+01  0.00000000000E+00 0. -1.
         13   -1    0    0    0    0 -0.00000000000E+00 -0.00000000000E+00 -0.10000000000E+04  0.10000000000E+04  0.00000000000E+00 0.  1.
    9000005    2    1    2  501    0  0.67605449514E+01 -0.29999230142E+02 -0.69097708381E+03  0.69166756164E+03  0.30044457426E+01 0.  0.
         13    1    3    3    0    0  0.35341045355E+01 -0.15222291622E+02 -0.31752883375E+03  0.31791314587E+03  0.00000000000E+00 0.  1.
          3    1    3    3  501    0  0.32264404159E+01 -0.14776938520E+02 -0.37344825006E+03  0.37375441576E+03  0.00000000000E+00 0.  1.
         -3    1    1    2    0  502 -0.67605449514E+01  0.29999230142E+02 -0.30791178226E+03  0.30944357229E+03  0.00000000000E+00 0. -1.
<mgrwt>
<rscale>  1 0.30000000E+03</rscale>
<asrwt>0</asrwt>
<pdfrwt beam="1">  1       21 0.40404955E-02 0.30000000E+03</pdfrwt>
<pdfrwt beam="2">0</pdfrwt>
<totfact> 0.41339900E+04</totfact>
</mgrwt>
</event>
<event>
 6    1  0.1284012E-001  0.3000000E+03  0.7818608E-02  0.1093470E+00
         21   -1    0    0  501  502  0.00000000000E+00  0.00000000000E+00  0.33207898136E+01  0.33207898136E+01  0.00000000000E+00 0. -1.
         13   -1    0    0    0    0 -0.00000000000E+00 -0.00000000000E+00 -0.10000000000E+04  0.10000000000E+04  0.00000000000E+00 0.  1.
    9000005    2    1    2  501    0  0.12241627345E+02  0.33539878564E+02 -0.89197370622E+03  0.89269518945E+03  0.35815907169E+01 0.  0.
         13    1    3    3    0    0  0.18381570858E+01  0.96496313195E+01 -0.24933616686E+03  0.24952959405E+03  0.00000000000E+00 0.  1.
          3    1    3    3  501    0  0.10403470259E+02  0.23890247244E+02 -0.64263753936E+03  0.64316559540E+03  0.00000000000E+00 0.  1.
         -1    1    1    2    0  502 -0.12241627345E+02 -0.33539878564E+02 -0.10470550397E+03  0.11062560036E+03  0.00000000000E+00 0. -1.
<mgrwt>
<rscale>  1 0.30000000E+03</rscale>
<asrwt>0</asrwt>
<pdfrwt beam="1">  1       21 0.12075625E-01 0.30000000E+03</pdfrwt>
<pdfrwt beam="2">0</pdfrwt>
<totfact> 0.61268367E+03</totfact>
</mgrwt>
</event>
<event>
 6    1  0.1284012E-001  0.3000000E+03  0.7818608E-02  0.1093470E+00
         21   -1    0    0  501  502  0.00000000000E+00  0.00000000000E+00  0.36615907024E+01  0.36615907024E+01  0.00000000000E+00 0. -1.
         13   -1    0    0    0    0 -0.00000000000E+00 -0.00000000000E+00 -0.10000000000E+04  0.10000000000E+04  0.00000000000E+00 0.  1.
    9000005    2    1    2  501    0  0.23268610015E+02 -0.29862245797E+02 -0.88951243495E+03  0.89032593554E+03  0.38363557405E+01 0.  0.
         13    1    3    3    0    0  0.21913042979E+02 -0.29288923388E+02 -0.85424820845E+03  0.85503100770E+03  0.00000000000E+00 0.  1.
          1    1    3    3  501    0  0.13555670363E+01 -0.57332240892E+00 -0.35264226503E+02  0.35294927843E+02  0.00000000000E+00 0.  1.
         -3    1    1    2    0  502 -0.23268610015E+02  0.29862245797E+02 -0.10682597434E+03  0.11333565516E+03  0.00000000000E+00 0. -1.
<mgrwt>
<rscale>  1 0.30000000E+03</rscale>
<asrwt>0</asrwt>
<pdfrwt beam="1">  1       21 0.13314903E-01 0.30000000E+03</pdfrwt>
<pdfrwt beam="2">0</pdfrwt>
<totfact> 0.51272457E+03</totfact>
</mgrwt>
</event>
<event>
 6    1  0.1284012E-001  0.3000000E+03  0.7818608E-02  0.1093470E+00
         21   -1    0    0  501  502  0.00000000000E+00  0.00000000000E+00  0.29485260032E+01  0.29485260032E+01  0.00000000000E+00 0. -1.
         13   -1    0    0    0    0 -0.00000000000E+00 -0.00000000000E+00 -0.10000000000E+04  0.10000000000E+04  0.00000000000E+00 0.  1.
    9000005    2    1    2  501    0  0.25086007803E+02 -0.47417375887E+02 -0.52950471742E+03  0.53233436886E+03  0.11265840847E+02 0.  0.
         13    1    3    3    0    0  0.13235205852E+02 -0.35986721217E+02 -0.37402570530E+03  0.37598596118E+03  0.00000000000E+00 0.  1.
          1    1    3    3  501    0  0.11850801951E+02 -0.11430654670E+02 -0.15547901213E+03  0.15634840768E+03  0.00000000000E+00 0.  1.
         -1    1    1    2    0  502 -0.25086007803E+02  0.47417375887E+02 -0.46754675657E+03  0.47061415714E+03  0.00000000000E+00 0. -1.
<mgrwt>
<rscale>  1 0.30000000E+03</rscale>
<asrwt>0</asrwt>
<pdfrwt beam="1">  1       21 0.10721935E-01 0.30000000E+03</pdfrwt>
<pdfrwt beam="2">0</pdfrwt>
<totfact> 0.75935239E+03</totfact>
</mgrwt>
</event>
<event>
 6    1  0.1284012E-001  0.3000000E+03  0.7818608E-02  0.1093470E+00
         21   -1    0    0  501  502  0.00000000000E+00  0.00000000000E+00  0.11838392342E+01  0.11838392342E+01  0.00000000000E+00 0. -1.
         13   -1    0    0    0    0 -0.00000000000E+00 -0.00000000000E+00 -0.10000000000E+04  0.10000000000E+04  0.00000000000E+00 0.  1.
    9000005    2    1    2  501    0 -0.34043730839E+02 -0.24744380447E+01 -0.55292446475E+03  0.55398757021E+03  0.34155197579E+01 0.  0.
         13    1    3    3    0    0 -0.29577125353E+02 -0.32865099879E+01 -0.48288958601E+03  0.48380570457E+03  0.00000000000E+00 0.  1.
          3    1    3    3  501    0 -0.44666054860E+01  0.81207194316E+00 -0.70034878738E+02  0.70181865644E+02  0.00000000000E+00 0.  1.
         -1    1    1    2    0  502  0.34043730839E+02  0.24744380447E+01 -0.44589169602E+03  0.44719626902E+03  0.00000000000E+00 0. -1.
<mgrwt>
<rscale>  1 0.30000000E+03</rscale>
<asrwt>0</asrwt>
<pdfrwt beam="1">  1       21 0.43048790E-02 0.30000000E+03</pdfrwt>
<pdfrwt beam="2">0</pdfrwt>
<totfact> 0.37145433E+04</totfact>
</mgrwt>
</event>
<event>
 6    1  0.1284012E-001  0.3000000E+03  0.7818608E-02  0.1093470E+00
         21   -1    0    0  501  502  0.00000000000E+00  0.00000000000E+00  0.11557462086E+01  0.11557462086E+01  0.00000000000E+00 0. -1.
         13   -1    0    0    0    0 -0.00000000000E+00 -0.00000000000E+00 -0.10000000000E+04  0.10000000000E+04  0.00000000000E+00 0.  1.
    9000005    2    1    2  501    0 -0.28201964145E+01 -0.32663787008E+02 -0.62775048229E+03  0.62861653520E+03  0.36337069006E+01 0.  0.
         13    1    3    3    0    0 -0.37045552153E+01 -0.27039333077E+02 -0.51797929383E+03  0.51869779072E+03  0.00000000000E+00 0.  1.
          3    1    3    3  501    0  0.88435880082E+00 -0.56244539307E+01 -0.10977118846E+03  0.10991874448E+03  0.00000000000E+00 0.  1.
         -1    1    1    2    0  502  0.28201964145E+01  0.32663787008E+02 -0.37109377150E+03  0.37253921101E+03  0.00000000000E+00 0. -1.
<mgrwt>
<rscale>  1 0.30000000E+03</rscale>
<asrwt>0</asrwt>
<pdfrwt beam="1">  1       21 0.42027223E-02 0.30000000E+03</pdfrwt>
<pdfrwt beam="2">0</pdfrwt>
<totfact> 0.38684107E+04</totfact>
</mgrwt>
</event>
<event>
 6    1  0.1284012E-001  0.3000000E+03  0.7818608E-02  0.1093470E+00
         21   -1    0    0  501  502  0.00000000000E+00  0.00000000000E+00  0.12302309689E+01  0.12302309689E+01  0.00000000000E+00 0. -1.
         13   -1    0    0    0    0 -0.00000000000E+00 -0.00000000000E+00 -0.10000000000E+04  0.10000000000E+04  0.00000000000E+00 0.  1.
    9000005    2    1    2  501    0  0.32383653067E+02 -0.99988700961E+01 -0.37571998945E+03  0.37725931320E+03  0.32249856258E+01 0.  0.
         13    1    3    3    0    0  0.66003883638E+01 -0.14134115839E+01 -0.62887761664E+02  0.63248979643E+02  0.00000000000E+00 0.  1.
          3    1    3    3  501    0  0.25783264703E+02 -0.85854585122E+01 -0.31283222779E+03  0.31401033356E+03  0.00000000000E+00 0.  1.
         -3    1    1    2    0  502 -0.32383653067E+02  0.99988700961E+01 -0.62304977958E+03  0.62397091777E+03  0.00000000000E+00 0. -1.
<mgrwt>
<rscale>  1 0.30000000E+03</rscale>
<asrwt>0</asrwt>
<pdfrwt beam="1">  1       21 0.44735766E-02 0.30000000E+03</pdfrwt>
<pdfrwt beam="2">0</pdfrwt>
<totfact> 0.34804187E+04</totfact>
</mgrwt>
</event>
<event>
 6    1  0.1284012E-001  0.3000000E+03  0.7818608E-02  0.1093470E+00
         21   -1    0    0  501  502  0.00000000000E+00  0.00000000000E+00  0.26266441191E+01  0.26266441191E+01  0.00000000000E+00 0. -1.
         13   -1    0    0    0    0 -0.00000000000E+00 -0.00000000000E+00 -0.10000000000E+04  0.10000000000E+04  0.00000000000E+00 0.  1.
    9000005    2    1    2  501    0 -0.60176500923E+01  0.42795598078E+02 -0.23076379380E+03  0.23479990845E+03  0.33753746160E+01 0.  0.
         13    1    3    3    0    0 -0.43004050054E+01  0.35381781771E+02 -0.18387577257E+03  0.18729832809E+03  0.00000000000E+00 0.  1.
          3    1    3    3  501    0 -0.17172450869E+01  0.74138163067E+01 -0.46888021223E+02  0.47501580365E+02  0.00000000000E+00 0.  1.
         -1    1    1    2    0  502  0.60176500923E+01 -0.42795598078E+02 -0.76660956208E+03  0.76782673567E+03  0.00000000000E+00 0. -1.
<mgrwt>
<rscale>  1 0.30000000E+03</rscale>
<asrwt>0</asrwt>
<pdfrwt beam="1">  1       21 0.95514533E-02 0.30000000E+03</pdfrwt>
<pdfrwt beam="2">0</pdfrwt>
<totfact> 0.93374177E+03</totfact>
</mgrwt>
</event>
<event>
 6    1  0.1284012E-001  0.3000000E+03  0.7818608E-02  0.1093470E+00
         21   -1    0    0  501  502  0.00000000000E+00  0.00000000000E+00  0.12425650493E+01  0.12425650493E+01  0.00000000000E+00 0. -1.
         13   -1    0    0    0    0 -0.00000000000E+00 -0.00000000000E+00 -0.10000000000E+04  0.10000000000E+04  0.00000000000E+00 0.  1.
    9000005    2    1    2  501    0 -0.30355870407E+02 -0.12673462660E+02 -0.67786133308E+03  0.67866481672E+03  0.28019705845E+01 0.  0.
         13    1    3    3    0    0 -0.89229741572E+00 -0.63477788558E+00 -0.33492980559E+02  0.33510877105E+02  0.00000000000E+00 0.  1.
          1    1    3    3  501    0 -0.29463572991E+02 -0.12038684775E+02 -0.64436835252E+03  0.64515393961E+03  0.00000000000E+00 0.  1.
         -1    1    1    2    0  502  0.30355870407E+02  0.12673462660E+02 -0.32089610187E+03  0.32257774833E+03  0.00000000000E+00 0. -1.
<mgrwt>
<rscale>  1 0.30000000E+03</rscale>
<asrwt>0</asrwt>
<pdfrwt beam="1">  1       21 0.45184279E-02 0.30000000E+03</pdfrwt>
<pdfrwt beam="2">0</pdfrwt>
<totfact> 0.34220017E+04</totfact>
</mgrwt>
</event>
<event>
 6    1  0.1284012E-001  0.3000000E+03  0.7818608E-02  0.1093470E+00
         21   -1    0    0  501  502  0.00000000000E+00  0.00000000000E+00  0.12192599788E+01  0.12192599788E+01  0.00000000000E+00 0. -1.
         13   -1    0    0    0    0 -0.00000000000E+00 -0.00000000000E+00 -0.10000000000E+04  0.10000000000E+04  0.00000000000E+00 0.  1.
    9000005    2    1    2  501    0 -0.29650539201E+02  0.16762012143E+02 -0.60519614883E+03  0.60616363105E+03  0.34423134422E+01 0.  0.
         13    1    3    3    0    0 -0.20898581613E+02  0.10001727390E+02 -0.41516424070E+03  0.41581021154E+03  0.00000000000E+00 0.  1.
          1    1    3    3  501    0 -0.87519575882E+01  0.67602847523E+01 -0.19003190813E+03  0.19035341951E+03  0.00000000000E+00 0.  1.
         -3    1    1    2    0  502  0.29650539201E+02 -0.16762012143E+02 -0.39358459119E+03  0.39505562893E+03  0.00000000000E+00 0. -1.
<mgrwt>
<rscale>  1 0.30000000E+03</rscale>
<asrwt>0</asrwt>
<pdfrwt beam="1">  1       21 0.44336820E-02 0.30000000E+03</pdfrwt>
<pdfrwt beam="2">0</pdfrwt>
<totfact> 0.35336833E+04</totfact>
</mgrwt>
</event>
<event>
 6    1  0.1284012E-001  0.3000000E+03  0.7818608E-02  0.1093470E+00
         21   -1    0    0  501  502  0.00000000000E+00  0.00000000000E+00  0.30220010148E+01  0.30220010148E+01  0.00000000000E+00 0. -1.
         13   -1    0    0    0    0 -0.00000000000E+00 -0.00000000000E+00 -0.10000000000E+04  0.10000000000E+04  0.00000000000E+00 0.  1.
    9000005    2    1    2  501    0  0.45121731635E+02  0.12244943118E+01 -0.78442004529E+03  0.78572415535E+03  0.31891681999E+01 0.  0.
         13    1    3    3    0    0  0.31663326389E+02 -0.37633881984E+00 -0.56262878871E+03  0.56351917603E+03  0.00000000000E+00 0.  1.
          3    1    3    3  501    0  0.13458405246E+02  0.16008331316E+01 -0.22179125658E+03  0.22220497932E+03  0.00000000000E+00 0.  1.
         -1    1    1    2    0  502 -0.45121731635E+02 -0.12244943118E+01 -0.21255795370E+03  0.21729784567E+03  0.00000000000E+00 0. -1.
<mgrwt>
<rscale>  1 0.30000000E+03</rscale>
<asrwt>0</asrwt>
<pdfrwt beam="1">  1       21 0.10989118E-01 0.30000000E+03</pdfrwt>
<pdfrwt beam="2">0</pdfrwt>
<totfact> 0.72649477E+03</totfact>
</mgrwt>
</event>
<event>
 6    1  0.1284012E-001  0.3000000E+03  0.7818608E-02  0.1093470E+00
         21   -1    0    0  501  502  0.00000000000E+00  0.00000000000E+00  0.13085999958E+01  0.13085999958E+01  0.00000000000E+00 0. -1.
         13   -1    0    0    0    0 -0.00000000000E+00 -0.00000000000E+00 -0.10000000000E+04  0.10000000000E+04  0.00000000000E+00 0.  1.
    9000005    2    1    2  501    0  0.33108717600E+02  0.13272168010E+02 -0.57746091457E+03  0.57857054933E+03  0.32303353961E+01 0.  0.
         13    1    3    3    0    0  0.24451873609E+02  0.10564409198E+02 -0.41026291556E+03  0.41112669671E+03  0.00000000000E+00 0.  1.
          3    1    3    3  501    0  0.86568439903E+01  0.27077588117E+01 -0.16719799901E+03  0.16744385262E+03  0.00000000000E+00 0.  1.
         -1    1    1    2    0  502 -0.33108717600E+02 -0.13272168010E+02 -0.42123048543E+03  0.42273805067E+03  0.00000000000E+00 0. -1.
<mgrwt>
<rscale>  1 0.30000000E+03</rscale>
<asrwt>0</asrwt>
<pdfrwt beam="1">  1       21 0.47585555E-02 0.30000000E+03</pdfrwt>
<pdfrwt beam="2">0</pdfrwt>
<totfact> 0.31337481E+04</totfact>
</mgrwt>
</event>
<event>
 6    1  0.1284012E-001  0.3000000E+03  0.7818608E-02  0.1093470E+00
         21   -1    0    0  501  502  0.00000000000E+00  0.00000000000E+00  0.83932257469E+01  0.83932257469E+01  0.00000000000E+00 0. -1.
         13   -1    0    0    0    0 -0.00000000000E+00 -0.00000000000E+00 -0.10000000000E+04  0.10000000000E+04  0.00000000000E+00 0.  1.
    9000005    2    1    2  501    0  0.40071201624E+02 -0.54537723023E+02 -0.83526039736E+03  0.83802816477E+03  0.71560552847E+01 0.  0.
         13    1    3    3    0    0  0.49839309210E+01 -0.10362647171E+02 -0.16277804689E+03  0.16318368966E+03  0.00000000000E+00 0.  1.
          1    1    3    3  501    0  0.35087270703E+02 -0.44175075852E+02 -0.67248235047E+03  0.67484447511E+03  0.00000000000E+00 0.  1.
         -3    1    1    2    0  502 -0.40071201624E+02  0.54537723023E+02 -0.15634637689E+03  0.17036506097E+03  0.00000000000E+00 0. -1.
<mgrwt>
<rscale>  1 0.30000000E+03</rscale>
<asrwt>0</asrwt>
<pdfrwt beam="1">  1       21 0.30520885E-01 0.30000000E+03</pdfrwt>
<pdfrwt beam="2">0</pdfrwt>
<totfact> 0.10504299E+03</totfact>
</mgrwt>
</event>
<event>
 6    1  0.1284012E-001  0.3000000E+03  0.7818608E-02  0.1093470E+00
         21   -1    0    0  501  502  0.00000000000E+00  0.00000000000E+00  0.17856170923E+01  0.17856170923E+01  0.00000000000E+00 0. -1.
         13   -1    0    0    0    0 -0.00000000000E+00 -0.00000000000E+00 -0.10000000000E+04  0.10000000000E+04  0.00000000000E+00 0.  1.
    9000005    2    1    2  501    0  0.44647696103E+01  0.33602663981E+02 -0.79776015874E+03  0.79848542235E+03  0.29369445347E+01 0.  0.
         13    1    3    3    0    0 -0.91080677146E-01  0.90042282000E+01 -0.20612446918E+03  0.20632106344E+03  0.00000000000E+00 0.  1.
          3    1    3    3  501    0  0.45558502875E+01  0.24598435781E+02 -0.59163568956E+03  0.59216435892E+03  0.00000000000E+00 0.  1.
         -3    1    1    2    0  502 -0.44647696103E+01 -0.33602663981E+02 -0.20045422417E+03  0.20330019474E+03  0.00000000000E+00 0. -1.
<mgrwt>
<rscale>  1 0.30000000E+03</rscale>
<asrwt>0</asrwt>
<pdfrwt beam="1">  1       21 0.64931668E-02 0.30000000E+03</pdfrwt>
<pdfrwt beam="2">0</pdfrwt>
<totfact> 0.18383492E+04</totfact>
</mgrwt>
</event>
<event>
 6    1  0.1284012E-001  0.3000000E+03  0.7818608E-02  0.1093470E+00
         21   -1    0    0  501  502  0.00000000000E+00  0.00000000000E+00  0.97213421062E+00  0.97213421062E+00  0.00000000000E+00 0. -1.
         13   -1    0    0    0    0 -0.00000000000E+00 -0.00000000000E+00 -0.10000000000E+04  0.10000000000E+04  0.00000000000E+00 0.  1.
    9000005    2    1    2  501    0  0.23965203876E+02  0.19238454375E+02 -0.43109399205E+03  0.43220739017E+03  0.40925556692E+01 0.  0.
         13    1    3    3    0    0  0.11010601833E+02  0.65973756273E+01 -0.19303199952E+03  0.19345829410E+03  0.00000000000E+00 0.  1.
          3    1    3    3  501    0  0.12954602044E+02  0.12641078748E+02 -0.23806199253E+03  0.23874909607E+03  0.00000000000E+00 0.  1.
         -1    1    1    2    0  502 -0.23965203876E+02 -0.19238454375E+02 -0.56793387374E+03  0.56876474404E+03  0.00000000000E+00 0. -1.
<mgrwt>
<rscale>  1 0.30000000E+03</rscale>
<asrwt>0</asrwt>
<pdfrwt beam="1">  1       21 0.35350409E-02 0.30000000E+03</pdfrwt>
<pdfrwt beam="2">0</pdfrwt>
<totfact> 0.51746074E+04</totfact>
</mgrwt>
</event>
<event>
 6    1  0.1284012E-001  0.3000000E+03  0.7818608E-02  0.1093470E+00
         21   -1    0    0  501  502  0.00000000000E+00  0.00000000000E+00  0.39799058529E+01  0.39799058529E+01  0.00000000000E+00 0. -1.
         13   -1    0    0    0    0 -0.00000000000E+00 -0.00000000000E+00 -0.10000000000E+04  0.10000000000E+04  0.00000000000E+00 0.  1.
    9000005    2    1    2  501    0 -0.40725541687E+02 -0.59340086685E+01 -0.87835993964E+03  0.87932961839E+03  0.32576094730E+01 0.  0.
         13    1    3    3    0    0 -0.32697826711E+02 -0.36295861668E+01 -0.71438039576E+03  0.71513751937E+03  0.00000000000E+00 0.  1.
          1    1    3    3  501    0 -0.80277149754E+01 -0.23044225018E+01 -0.16397954388E+03  0.16419209902E+03  0.00000000000E+00 0.  1.
         -1    1    1    2    0  502  0.40725541687E+02  0.59340086685E+01 -0.11766015451E+03  0.12465028746E+03  0.00000000000E+00 0. -1.
<mgrwt>
<rscale>  1 0.30000000E+03</rscale>
<asrwt>0</asrwt>
<pdfrwt beam="1">  1       21 0.14472415E-01 0.30000000E+03</pdfrwt>
<pdfrwt beam="2">0</pdfrwt>
<totfact> 0.43995955E+03</totfact>
</mgrwt>
</event>
<event>
 6    1  0.1284012E-001  0.3000000E+03  0.7818608E-02  0.1093470E+00
         21   -1    0    0  501  502  0.00000000000E+00  0.00000000000E+00  0.56093928132E+01  0.56093928132E+01  0.00000000000E+00 0. -1.
         13   -1    0    0    0    0 -0.00000000000E+00 -0.00000000000E+00 -0.10000000000E+04  0.10000000000E+04  0.00000000000E+00 0.  1.
    9000005    2    1    2  501    0 -0.61706978211E+02 -0.65345908562E+01 -0.77854644325E+03  0.78102276111E+03  0.33966196710E+01 0.  0.
         13    1    3    3    0    0 -0.12027608244E+02 -0.12520614549E+01 -0.16935315892E+03  0.16978434396E+03  0.00000000000E+00 0.  1.
          3    1    3    3  501    0 -0.49679369967E+02 -0.52825294014E+01 -0.60919328433E+03  0.61123841714E+03  0.00000000000E+00 0.  1.
         -1    1    1    2    0  502  0.61706978211E+02  0.65345908562E+01 -0.21584416393E+03  0.22458663171E+03  0.00000000000E+00 0. -1.
<mgrwt>
<rscale>  1 0.30000000E+03</rscale>
<asrwt>0</asrwt>
<pdfrwt beam="1">  1       21 0.20397835E-01 0.30000000E+03</pdfrwt>
<pdfrwt beam="2">0</pdfrwt>
<totfact> 0.23106055E+03</totfact>
</mgrwt>
</event>
<event>
 6    1  0.1284012E-001  0.3000000E+03  0.7818608E-02  0.1093470E+00
         21   -1    0    0  501  502  0.00000000000E+00  0.00000000000E+00  0.19937138098E+01  0.19937138098E+01  0.00000000000E+00 0. -1.
         13   -1    0    0    0    0 -0.00000000000E+00 -0.00000000000E+00 -0.10000000000E+04  0.10000000000E+04  0.00000000000E+00 0.  1.
    9000005    2    1    2  501    0  0.40305473585E+02 -0.12995721798E+02 -0.65634395246E+03  0.65771683355E+03  0.32602498245E+01 0.  0.
         13    1    3    3    0    0  0.68667903442E+00 -0.68405057700E+00 -0.18042733025E+02  0.18068748388E+02  0.00000000000E+00 0.  1.
          1    1    3    3  501    0  0.39618794550E+02 -0.12311671221E+02 -0.63830121943E+03  0.63964808517E+03  0.00000000000E+00 0.  1.
         -3    1    1    2    0  502 -0.40305473585E+02  0.12995721798E+02 -0.34166233373E+03  0.34427688026E+03  0.00000000000E+00 0. -1.
<mgrwt>
<rscale>  1 0.30000000E+03</rscale>
<asrwt>0</asrwt>
<pdfrwt beam="1">  1       21 0.72498837E-02 0.30000000E+03</pdfrwt>
<pdfrwt beam="2">0</pdfrwt>
<totfact> 0.15178426E+04</totfact>
</mgrwt>
</event>
<event>
 6    1  0.1284012E-001  0.3000000E+03  0.7818608E-02  0.1093470E+00
         21   -1    0    0  501  502  0.00000000000E+00  0.00000000000E+00  0.17766883745E+01  0.17766883745E+01  0.00000000000E+00 0. -1.
         13   -1    0    0    0    0 -0.00000000000E+00 -0.00000000000E+00 -0.10000000000E+04  0.10000000000E+04  0.00000000000E+00 0.  1.
    9000005    2    1    2  501    0  0.37862272491E+02 -0.15710996088E+02 -0.60834494679E+03  0.60974923213E+03  0.54922428854E+01 0.  0.
         13    1    3    3    0    0  0.35406032396E+02 -0.15889755461E+02 -0.58038853904E+03  0.58168456031E+03  0.00000000000E+00 0.  1.
          1    1    3    3  501    0  0.24562400954E+01  0.17875937284E+00 -0.27956407749E+02  0.28064671823E+02  0.00000000000E+00 0.  1.
         -1    1    1    2    0  502 -0.37862272491E+02  0.15710996088E+02 -0.38987836484E+03  0.39202745624E+03  0.00000000000E+00 0. -1.
<mgrwt>
<rscale>  1 0.30000000E+03</rscale>
<asrwt>0</asrwt>
<pdfrwt beam="1">  1       21 0.64606986E-02 0.30000000E+03</pdfrwt>
<pdfrwt beam="2">0</pdfrwt>
<totfact> 0.18543709E+04</totfact>
</mgrwt>
</event>
<event>
 6    1  0.1284012E-001  0.3000000E+03  0.7818608E-02  0.1093470E+00
         21   -1    0    0  501  502  0.00000000000E+00  0.00000000000E+00  0.14505391325E+01  0.14505391325E+01  0.00000000000E+00 0. -1.
         13   -1    0    0    0    0 -0.00000000000E+00 -0.00000000000E+00 -0.10000000000E+04  0.10000000000E+04  0.00000000000E+00 0.  1.
    9000005    2    1    2  501    0 -0.36404026471E+02  0.69094563767E+01 -0.38785992687E+03  0.38963790387E+03  0.30626020220E+01 0.  0.
         13    1    3    3    0    0 -0.13938010611E+02  0.39653281816E+01 -0.14359795192E+03  0.14432728003E+03  0.00000000000E+00 0.  1.
          3    1    3    3  501    0 -0.22466015860E+02  0.29441281950E+01 -0.24426197495E+03  0.24531062383E+03  0.00000000000E+00 0.  1.
         -1    1    1    2    0  502  0.36404026471E+02 -0.69094563767E+01 -0.61068953400E+03  0.61181263526E+03  0.00000000000E+00 0. -1.
<mgrwt>
<rscale>  1 0.30000000E+03</rscale>
<asrwt>0</asrwt>
<pdfrwt beam="1">  1       21 0.52746989E-02 0.30000000E+03</pdfrwt>
<pdfrwt beam="2">0</pdfrwt>
<totfact> 0.26291128E+04</totfact>
</mgrwt>
</event>
<event>
 6    1  0.1284012E-001  0.3000000E+03  0.7818608E-02  0.1093470E+00
         21   -1    0    0  501  502  0.00000000000E+00  0.00000000000E+00  0.22453113203E+01  0.22453113203E+01  0.00000000000E+00 0. -1.
         13   -1    0    0    0    0 -0.00000000000E+00 -0.00000000000E+00 -0.10000000000E+04  0.10000000000E+04  0.00000000000E+00 0.  1.
    9000005    2    1    2  501    0 -0.42616929517E+02 -0.11211257339E+02 -0.68206250936E+03  0.68349235516E+03  0.32615832701E+01 0.  0.
         13    1    3    3    0    0 -0.95053764761E+01 -0.11521493570E+01 -0.14295906597E+03  0.14327935710E+03  0.00000000000E+00 0.  1.
          1    1    3    3  501    0 -0.33111553041E+02 -0.10059107982E+02 -0.53910344339E+03  0.54021299806E+03  0.00000000000E+00 0.  1.
         -3    1    1    2    0  502  0.42616929517E+02  0.11211257339E+02 -0.31569217932E+03  0.31875295616E+03  0.00000000000E+00 0. -1.
<mgrwt>
<rscale>  1 0.30000000E+03</rscale>
<asrwt>0</asrwt>
<pdfrwt beam="1">  1       21 0.81647857E-02 0.30000000E+03</pdfrwt>
<pdfrwt beam="2">0</pdfrwt>
<totfact> 0.12324238E+04</totfact>
</mgrwt>
</event>
<event>
 6    1  0.1284012E-001  0.3000000E+03  0.7818608E-02  0.1093470E+00
         21   -1    0    0  501  502  0.00000000000E+00  0.00000000000E+00  0.58855432187E+01  0.58855432187E+01  0.00000000000E+00 0. -1.
         13   -1    0    0    0    0 -0.00000000000E+00 -0.00000000000E+00 -0.10000000000E+04  0.10000000000E+04  0.00000000000E+00 0.  1.
    9000005    2    1    2  501    0 -0.50805440085E+02  0.53092345380E+02 -0.64092514207E+03  0.64513260573E+03  0.33243584030E+01 0.  0.
         13    1    3    3    0    0 -0.21198239027E+02  0.19833212584E+02 -0.25064349037E+03  0.25231900627E+03  0.00000000000E+00 0.  1.
          1    1    3    3  501    0 -0.29607201058E+02  0.33259132796E+02 -0.39028165170E+03  0.39281359947E+03  0.00000000000E+00 0.  1.
         -3    1    1    2    0  502  0.50805440085E+02 -0.53092345380E+02 -0.35318931471E+03  0.36075293749E+03  0.00000000000E+00 0. -1.
<mgrwt>
<rscale>  1 0.30000000E+03</rscale>
<asrwt>0</asrwt>
<pdfrwt beam="1">  1       21 0.21402020E-01 0.30000000E+03</pdfrwt>
<pdfrwt beam="2">0</pdfrwt>
<totfact> 0.21073447E+03</totfact>
</mgrwt>
</event>
<event>
 6    1  0.1284012E-001  0.3000000E+03  0.7818608E-02  0.1093470E+00
         21   -1    0    0  501  502  0.00000000000E+00  0.00000000000E+00  0.51453363525E+01  0.51453363525E+01  0.00000000000E+00 0. -1.
         13   -1    0    0    0    0 -0.00000000000E+00 -0.00000000000E+00 -0.10000000000E+04  0.10000000000E+04  0.00000000000E+00 0.  1.
    9000005    2    1    2  501    0  0.24512498819E+02 -0.51222745358E+02 -0.80430962574E+03  0.80631866885E+03  0.33450607850E+01 0.  0.
         13    1    3    3    0    0  0.21145036180E+02 -0.41197284812E+02 -0.65248916684E+03  0.65413029411E+03  0.00000000000E+00 0.  1.
          1    1    3    3  501    0  0.33674626390E+01 -0.10025460546E+02 -0.15182045891E+03  0.15218837474E+03  0.00000000000E+00 0.  1.
         -1    1    1    2    0  502 -0.24512498819E+02  0.51222745358E+02 -0.19054503790E+03  0.19882666750E+03  0.00000000000E+00 0. -1.
<mgrwt>
<rscale>  1 0.30000000E+03</rscale>
<asrwt>0</asrwt>
<pdfrwt beam="1">  1       21 0.18710353E-01 0.30000000E+03</pdfrwt>
<pdfrwt beam="2">0</pdfrwt>
<totfact> 0.27231614E+03</totfact>
</mgrwt>
</event>
<event>
 6    1  0.1284012E-001  0.3000000E+03  0.7818608E-02  0.1093470E+00
         21   -1    0    0  501  502  0.00000000000E+00  0.00000000000E+00  0.14741035231E+01  0.14741035231E+01  0.00000000000E+00 0. -1.
         13   -1    0    0    0    0 -0.00000000000E+00 -0.00000000000E+00 -0.10000000000E+04  0.10000000000E+04  0.00000000000E+00 0.  1.
    9000005    2    1    2  501    0 -0.28919772482E+02  0.12674340243E+02 -0.78025333568E+03  0.78092954355E+03  0.76610700172E+01 0.  0.
         13    1    3    3    0    0 -0.33733425220E+00  0.70954434989E+00 -0.53940132627E+01  0.54509289722E+01  0.00000000000E+00 0.  1.
          1    1    3    3  501    0 -0.28582438230E+02  0.11964795893E+02 -0.77485932242E+03  0.77547861457E+03  0.00000000000E+00 0.  1.
         -1    1    1    2    0  502  0.28919772482E+02 -0.12674340243E+02 -0.21827256079E+03  0.22054455998E+03  0.00000000000E+00 0. -1.
<mgrwt>
<rscale>  1 0.30000000E+03</rscale>
<asrwt>0</asrwt>
<pdfrwt beam="1">  1       21 0.53603878E-02 0.30000000E+03</pdfrwt>
<pdfrwt beam="2">0</pdfrwt>
<totfact> 0.25576254E+04</totfact>
</mgrwt>
</event>
<event>
 6    1  0.1284012E-001  0.3000000E+03  0.7818608E-02  0.1093470E+00
         21   -1    0    0  501  502  0.00000000000E+00  0.00000000000E+00  0.13282909124E+01  0.13282909124E+01  0.00000000000E+00 0. -1.
         13   -1    0    0    0    0 -0.00000000000E+00 -0.00000000000E+00 -0.10000000000E+04  0.10000000000E+04  0.00000000000E+00 0.  1.
    9000005    2    1    2  501    0 -0.29581194592E+02 -0.11923653398E+02 -0.73436073340E+03  0.73509998202E+03  0.83112111250E+01 0.  0.
         13    1    3    3    0    0 -0.24755770619E+02 -0.13027598276E+02 -0.63545042930E+03  0.63606588856E+03  0.00000000000E+00 0.  1.
          3    1    3    3  501    0 -0.48254239730E+01  0.11039448783E+01 -0.98910304100E+02  0.99034093462E+02  0.00000000000E+00 0.  1.
         -3    1    1    2    0  502  0.29581194592E+02  0.11923653398E+02 -0.26431097569E+03  0.26622830889E+03  0.00000000000E+00 0. -1.
<mgrwt>
<rscale>  1 0.30000000E+03</rscale>
<asrwt>0</asrwt>
<pdfrwt beam="1">  1       21 0.48301590E-02 0.30000000E+03</pdfrwt>
<pdfrwt beam="2">0</pdfrwt>
<totfact> 0.30551146E+04</totfact>
</mgrwt>
</event>
<event>
 6    1  0.1284012E-001  0.3000000E+03  0.7818608E-02  0.1093470E+00
         21   -1    0    0  501  502  0.00000000000E+00  0.00000000000E+00  0.81111248050E+01  0.81111248050E+01  0.00000000000E+00 0. -1.
         13   -1    0    0    0    0 -0.00000000000E+00 -0.00000000000E+00 -0.10000000000E+04  0.10000000000E+04  0.00000000000E+00 0.  1.
    9000005    2    1    2  501    0  0.47074826553E+02  0.72753888714E+01 -0.92369396797E+03  0.92492749691E+03  0.33700888888E+01 0.  0.
         13    1    3    3    0    0  0.24527256881E+02  0.24367819350E+01 -0.49699203555E+03  0.49760286136E+03  0.00000000000E+00 0.  1.
          1    1    3    3  501    0  0.22547569672E+02  0.48386069364E+01 -0.42670193242E+03  0.42732463555E+03  0.00000000000E+00 0.  1.
         -3    1    1    2    0  502 -0.47074826553E+02 -0.72753888714E+01 -0.68194907225E+02  0.83183627894E+02  0.00000000000E+00 0. -1.
<mgrwt>
<rscale>  1 0.30000000E+03</rscale>
<asrwt>0</asrwt>
<pdfrwt beam="1">  1       21 0.29495061E-01 0.30000000E+03</pdfrwt>
<pdfrwt beam="2">0</pdfrwt>
<totfact> 0.11247881E+03</totfact>
</mgrwt>
</event>
<event>
 6    1  0.1284012E-001  0.3000000E+03  0.7818608E-02  0.1093470E+00
         21   -1    0    0  501  502  0.00000000000E+00  0.00000000000E+00  0.18285892429E+01  0.18285892429E+01  0.00000000000E+00 0. -1.
         13   -1    0    0    0    0 -0.00000000000E+00 -0.00000000000E+00 -0.10000000000E+04  0.10000000000E+04  0.00000000000E+00 0.  1.
    9000005    2    1    2  501    0 -0.33409129443E+02 -0.24116076237E+02 -0.36694170138E+03  0.36925550962E+03  0.23799390454E+01 0.  0.
         13    1    3    3    0    0 -0.71103066647E+01 -0.49975390901E+01 -0.69105295533E+02  0.69649649881E+02  0.00000000000E+00 0.  1.
          1    1    3    3  501    0 -0.26298822778E+02 -0.19118537147E+02 -0.29783640585E+03  0.29960585974E+03  0.00000000000E+00 0.  1.
         -1    1    1    2    0  502  0.33409129443E+02  0.24116076237E+02 -0.63122970938E+03  0.63257307962E+03  0.00000000000E+00 0. -1.
<mgrwt>
<rscale>  1 0.30000000E+03</rscale>
<asrwt>0</asrwt>
<pdfrwt beam="1">  1       21 0.66494295E-02 0.30000000E+03</pdfrwt>
<pdfrwt beam="2">0</pdfrwt>
<totfact> 0.17641466E+04</totfact>
</mgrwt>
</event>
<event>
 6    1  0.1284012E-001  0.3000000E+03  0.7818608E-02  0.1093470E+00
         21   -1    0    0  501  502  0.00000000000E+00  0.00000000000E+00  0.69049891235E+01  0.69049891235E+01  0.00000000000E+00 0. -1.
         13   -1    0    0    0    0 -0.00000000000E+00 -0.00000000000E+00 -0.10000000000E+04  0.10000000000E+04  0.00000000000E+00 0.  1.
    9000005    2    1    2  501    0 -0.15508606365E+01  0.65984785465E+02 -0.80228032355E+03  0.80499748064E+03  0.32907755213E+01 0.  0.
         13    1    3    3    0    0 -0.20654233892E+01  0.29126872642E+02 -0.36530632651E+03  0.36647148985E+03  0.00000000000E+00 0.  1.
          1    1    3    3  501    0  0.51456275263E+00  0.36857912823E+02 -0.43697399704E+03  0.43852599080E+03  0.00000000000E+00 0.  1.
         -3    1    1    2    0  502  0.15508606365E+01 -0.65984785465E+02 -0.19081468732E+03  0.20190750848E+03  0.00000000000E+00 0. -1.
<mgrwt>
<rscale>  1 0.30000000E+03</rscale>
<asrwt>0</asrwt>
<pdfrwt beam="1">  1       21 0.25109104E-01 0.30000000E+03</pdfrwt>
<pdfrwt beam="2">0</pdfrwt>
<totfact> 0.15463570E+03</totfact>
</mgrwt>
</event>
<event>
 6    1  0.1284012E-001  0.3000000E+03  0.7818608E-02  0.1093470E+00
         21   -1    0    0  501  502  0.00000000000E+00  0.00000000000E+00  0.12048806530E+01  0.12048806530E+01  0.00000000000E+00 0. -1.
         13   -1    0    0    0    0 -0.00000000000E+00 -0.00000000000E+00 -0.10000000000E+04  0.10000000000E+04  0.00000000000E+00 0.  1.
    9000005    2    1    2  501    0 -0.25165235936E+02 -0.23787255672E+02 -0.51095112222E+03  0.51213342559E+03  0.32363047759E+01 0.  0.
         13    1    3    3    0    0 -0.10421288558E+02 -0.10890901610E+02 -0.24326355981E+03  0.24373012641E+03  0.00000000000E+00 0.  1.
          1    1    3    3  501    0 -0.14743947378E+02 -0.12896354062E+02 -0.26768756242E+03  0.26840329917E+03  0.00000000000E+00 0.  1.
         -1    1    1    2    0  502  0.25165235936E+02  0.23787255672E+02 -0.48784399712E+03  0.48907145507E+03  0.00000000000E+00 0. -1.
<mgrwt>
<rscale>  1 0.30000000E+03</rscale>
<asrwt>0</asrwt>
<pdfrwt beam="1">  1       21 0.43813934E-02 0.30000000E+03</pdfrwt>
<pdfrwt beam="2">0</pdfrwt>
<totfact> 0.36054256E+04</totfact>
</mgrwt>
</event>
<event>
 6    1  0.1284012E-001  0.3000000E+03  0.7818608E-02  0.1093470E+00
         21   -1    0    0  501  502  0.00000000000E+00  0.00000000000E+00  0.17697937925E+01  0.17697937925E+01  0.00000000000E+00 0. -1.
         13   -1    0    0    0    0 -0.00000000000E+00 -0.00000000000E+00 -0.10000000000E+04  0.10000000000E+04  0.00000000000E+00 0.  1.
    9000005    2    1    2  501    0  0.11819699530E+02  0.29493467922E+02 -0.82691173705E+03  0.82752976446E+03  0.35944749957E+01 0.  0.
         13    1    3    3    0    0  0.28269929570E+01  0.58171528461E+01 -0.13538870564E+03  0.13554310300E+03  0.00000000000E+00 0.  1.
          3    1    3    3  501    0  0.89927065732E+01  0.23676315076E+02 -0.69152303141E+03  0.69198666146E+03  0.00000000000E+00 0.  1.
         -1    1    1    2    0  502 -0.11819699530E+02 -0.29493467922E+02 -0.17131846916E+03  0.17424002933E+03  0.00000000000E+00 0. -1.
<mgrwt>
<rscale>  1 0.30000000E+03</rscale>
<asrwt>0</asrwt>
<pdfrwt beam="1">  1       21 0.64356274E-02 0.30000000E+03</pdfrwt>
<pdfrwt beam="2">0</pdfrwt>
<totfact> 0.18668906E+04</totfact>
</mgrwt>
</event>
<event>
 6    1  0.1284012E-001  0.3000000E+03  0.7818608E-02  0.1093470E+00
         21   -1    0    0  501  502  0.00000000000E+00  0.00000000000E+00  0.23765924422E+01  0.23765924422E+01  0.00000000000E+00 0. -1.
         13   -1    0    0    0    0 -0.00000000000E+00 -0.00000000000E+00 -0.10000000000E+04  0.10000000000E+04  0.00000000000E+00 0.  1.
    9000005    2    1    2  501    0 -0.15177604025E+02  0.46068325520E+02 -0.54418158662E+03  0.54634793626E+03  0.31333629990E+01 0.  0.
         13    1    3    3    0    0 -0.10819030014E+02  0.36892694373E+02 -0.42929146086E+03  0.43100960624E+03  0.00000000000E+00 0.  1.
          1    1    3    3  501    0 -0.43585740110E+01  0.91756311468E+01 -0.11489012576E+03  0.11533833002E+03  0.00000000000E+00 0.  1.
         -3    1    1    2    0  502  0.15177604025E+02 -0.46068325520E+02 -0.45344182094E+03  0.45602865618E+03  0.00000000000E+00 0. -1.
<mgrwt>
<rscale>  1 0.30000000E+03</rscale>
<asrwt>0</asrwt>
<pdfrwt beam="1">  1       21 0.86421726E-02 0.30000000E+03</pdfrwt>
<pdfrwt beam="2">0</pdfrwt>
<totfact> 0.11150090E+04</totfact>
</mgrwt>
</event>
<event>
 6    1  0.1284012E-001  0.3000000E+03  0.7818608E-02  0.1093470E+00
         21   -1    0    0  501  502  0.00000000000E+00  0.00000000000E+00  0.99203608003E+00  0.99203608003E+00  0.00000000000E+00 0. -1.
         13   -1    0    0    0    0 -0.00000000000E+00 -0.00000000000E+00 -0.10000000000E+04  0.10000000000E+04  0.00000000000E+00 0.  1.
    9000005    2    1    2  501    0  0.30460401490E+02 -0.61573249275E+01 -0.57440865726E+03  0.57525700120E+03  0.30924397786E+01 0.  0.
         13    1    3    3    0    0  0.21830492425E+02 -0.53151666937E+01 -0.43338913068E+03  0.43397115110E+03  0.00000000000E+00 0.  1.
          1    1    3    3  501    0  0.86299090650E+01 -0.84215823382E+00 -0.14101952658E+03  0.14128585010E+03  0.00000000000E+00 0.  1.
         -3    1    1    2    0  502 -0.30460401490E+02  0.61573249275E+01 -0.42459930666E+03  0.42573503488E+03  0.00000000000E+00 0. -1.
<mgrwt>
<rscale>  1 0.30000000E+03</rscale>
<asrwt>0</asrwt>
<pdfrwt beam="1">  1       21 0.36074115E-02 0.30000000E+03</pdfrwt>
<pdfrwt beam="2">0</pdfrwt>
<totfact> 0.50017503E+04</totfact>
</mgrwt>
</event>
<event>
 6    1  0.1284012E-001  0.3000000E+03  0.7818608E-02  0.1093470E+00
         21   -1    0    0  501  502  0.00000000000E+00  0.00000000000E+00  0.25233029289E+01  0.25233029289E+01  0.00000000000E+00 0. -1.
         13   -1    0    0    0    0 -0.00000000000E+00 -0.00000000000E+00 -0.10000000000E+04  0.10000000000E+04  0.00000000000E+00 0.  1.
    9000005    2    1    2  501    0  0.38289441013E+02  0.14332216986E+02 -0.78959812062E+03  0.79066250834E+03  0.32428798447E+01 0.  0.
         13    1    3    3    0    0  0.80883634584E+01  0.18489464179E+01 -0.14697501647E+03  0.14720902042E+03  0.00000000000E+00 0.  1.
          3    1    3    3  501    0  0.30201077555E+02  0.12483270568E+02 -0.64262310416E+03  0.64345348793E+03  0.00000000000E+00 0.  1.
         -3    1    1    2    0  502 -0.38289441013E+02 -0.14332216986E+02 -0.20787857645E+03  0.21186079459E+03  0.00000000000E+00 0. -1.
<mgrwt>
<rscale>  1 0.30000000E+03</rscale>
<asrwt>0</asrwt>
<pdfrwt beam="1">  1       21 0.91756664E-02 0.30000000E+03</pdfrwt>
<pdfrwt beam="2">0</pdfrwt>
<totfact> 0.10028378E+04</totfact>
</mgrwt>
</event>
<event>
 6    1  0.1284012E-001  0.3000000E+03  0.7818608E-02  0.1093470E+00
         21   -1    0    0  501  502  0.00000000000E+00  0.00000000000E+00  0.78272758911E+01  0.78272758911E+01  0.00000000000E+00 0. -1.
         13   -1    0    0    0    0 -0.00000000000E+00 -0.00000000000E+00 -0.10000000000E+04  0.10000000000E+04  0.00000000000E+00 0.  1.
    9000005    2    1    2  501    0  0.60329637118E+02  0.63900676144E+02 -0.43963407483E+03  0.44834365641E+03  0.33095257173E+01 0.  0.
         13    1    3    3    0    0  0.30486723503E+02  0.29998257588E+02 -0.21642077418E+03  0.22060663468E+03  0.00000000000E+00 0.  1.
          1    1    3    3  501    0  0.29842913616E+02  0.33902418556E+02 -0.22321330065E+03  0.22773702172E+03  0.00000000000E+00 0.  1.
         -3    1    1    2    0  502 -0.60329637118E+02 -0.63900676144E+02 -0.55253864928E+03  0.55948361948E+03  0.00000000000E+00 0. -1.
<mgrwt>
<rscale>  1 0.30000000E+03</rscale>
<asrwt>0</asrwt>
<pdfrwt beam="1">  1       21 0.28462881E-01 0.30000000E+03</pdfrwt>
<pdfrwt beam="2">0</pdfrwt>
<totfact> 0.12074610E+03</totfact>
</mgrwt>
</event>
<event>
 6    1  0.1284012E-001  0.3000000E+03  0.7818608E-02  0.1093470E+00
         21   -1    0    0  501  502  0.00000000000E+00  0.00000000000E+00  0.40573384527E+01  0.40573384527E+01  0.00000000000E+00 0. -1.
         13   -1    0    0    0    0 -0.00000000000E+00 -0.00000000000E+00 -0.10000000000E+04  0.10000000000E+04  0.00000000000E+00 0.  1.
    9000005    2    1    2  501    0  0.61919534076E+02  0.12038504853E+02 -0.56457730952E+03  0.56810433499E+03  0.40053351085E+01 0.  0.
         13    1    3    3    0    0  0.45199501803E+02  0.75367866958E+01 -0.39780751281E+03  0.40043802937E+03  0.00000000000E+00 0.  1.
          1    1    3    3  501    0  0.16720032273E+02  0.45017181569E+01 -0.16676979671E+03  0.16766630562E+03  0.00000000000E+00 0.  1.
         -3    1    1    2    0  502 -0.61919534076E+02 -0.12038504853E+02 -0.43136535203E+03  0.43595300346E+03  0.00000000000E+00 0. -1.
<mgrwt>
<rscale>  1 0.30000000E+03</rscale>
<asrwt>0</asrwt>
<pdfrwt beam="1">  1       21 0.14753989E-01 0.30000000E+03</pdfrwt>
<pdfrwt beam="2">0</pdfrwt>
<totfact> 0.42459019E+03</totfact>
</mgrwt>
</event>
<event>
 6    1  0.1284012E-001  0.3000000E+03  0.7818608E-02  0.1093470E+00
         21   -1    0    0  501  502  0.00000000000E+00  0.00000000000E+00  0.62377658277E+01  0.62377658277E+01  0.00000000000E+00 0. -1.
         13   -1    0    0    0    0 -0.00000000000E+00 -0.00000000000E+00 -0.10000000000E+04  0.10000000000E+04  0.00000000000E+00 0.  1.
    9000005    2    1    2  501    0  0.47064473511E+02  0.91343601486E+01 -0.89664548888E+03  0.89793188686E+03  0.31685190873E+01 0.  0.
         13    1    3    3    0    0  0.17568997094E+02  0.49738437270E+01 -0.34236527928E+03  0.34285185319E+03  0.00000000000E+00 0.  1.
          1    1    3    3  501    0  0.29495476417E+02  0.41605164216E+01 -0.55428020960E+03  0.55508003367E+03  0.00000000000E+00 0.  1.
         -1    1    1    2    0  502 -0.47064473511E+02 -0.91343601486E+01 -0.97116745290E+02  0.10830587896E+03  0.00000000000E+00 0. -1.
<mgrwt>
<rscale>  1 0.30000000E+03</rscale>
<asrwt>0</asrwt>
<pdfrwt beam="1">  1       21 0.22682833E-01 0.30000000E+03</pdfrwt>
<pdfrwt beam="2">0</pdfrwt>
<totfact> 0.18841874E+03</totfact>
</mgrwt>
</event>
<event>
 6    1  0.1284012E-001  0.3000000E+03  0.7818608E-02  0.1093470E+00
         21   -1    0    0  501  502  0.00000000000E+00  0.00000000000E+00  0.12021003536E+01  0.12021003536E+01  0.00000000000E+00 0. -1.
         13   -1    0    0    0    0 -0.00000000000E+00 -0.00000000000E+00 -0.10000000000E+04  0.10000000000E+04  0.00000000000E+00 0.  1.
    9000005    2    1    2  501    0 -0.57236429303E+01  0.34084847465E+02 -0.47774320551E+03  0.47900239602E+03  0.31918764598E+01 0.  0.
         13    1    3    3    0    0 -0.59382869039E+01  0.28162203387E+02 -0.39762180305E+03  0.39866210154E+03  0.00000000000E+00 0.  1.
          1    1    3    3  501    0  0.21464397360E+00  0.59226440784E+01 -0.80121402460E+02  0.80340294480E+02  0.00000000000E+00 0.  1.
         -1    1    1    2    0  502  0.57236429303E+01 -0.34084847465E+02 -0.52105469414E+03  0.52219970433E+03  0.00000000000E+00 0. -1.
<mgrwt>
<rscale>  1 0.30000000E+03</rscale>
<asrwt>0</asrwt>
<pdfrwt beam="1">  1       21 0.43712832E-02 0.30000000E+03</pdfrwt>
<pdfrwt beam="2">0</pdfrwt>
<totfact> 0.36195571E+04</totfact>
</mgrwt>
</event>
<event>
 6    1  0.1284012E-001  0.3000000E+03  0.7818608E-02  0.1093470E+00
         21   -1    0    0  501  502  0.00000000000E+00  0.00000000000E+00  0.33878397455E+01  0.33878397455E+01  0.00000000000E+00 0. -1.
         13   -1    0    0    0    0 -0.00000000000E+00 -0.00000000000E+00 -0.10000000000E+04  0.10000000000E+04  0.00000000000E+00 0.  1.
    9000005    2    1    2  501    0  0.17661008693E+02 -0.34884641702E+02 -0.86986520824E+03  0.87074682309E+03  0.23874585744E+01 0.  0.
         13    1    3    3    0    0  0.95401930652E+01 -0.17658694355E+02 -0.42261100103E+03  0.42308734673E+03  0.00000000000E+00 0.  1.
          3    1    3    3  501    0  0.81208156283E+01 -0.17225947347E+02 -0.44725420721E+03  0.44765947636E+03  0.00000000000E+00 0.  1.
         -1    1    1    2    0  502 -0.17661008693E+02  0.34884641702E+02 -0.12674695202E+03  0.13264101666E+03  0.00000000000E+00 0. -1.
<mgrwt>
<rscale>  1 0.30000000E+03</rscale>
<asrwt>0</asrwt>
<pdfrwt beam="1">  1       21 0.12319443E-01 0.30000000E+03</pdfrwt>
<pdfrwt beam="2">0</pdfrwt>
<totfact> 0.59081410E+03</totfact>
</mgrwt>
</event>
<event>
 6    1  0.1284012E-001  0.3000000E+03  0.7818608E-02  0.1093470E+00
         21   -1    0    0  501  502  0.00000000000E+00  0.00000000000E+00  0.12683467235E+01  0.12683467235E+01  0.00000000000E+00 0. -1.
         13   -1    0    0    0    0 -0.00000000000E+00 -0.00000000000E+00 -0.10000000000E+04  0.10000000000E+04  0.00000000000E+00 0.  1.
    9000005    2    1    2  501    0 -0.17279760960E+02 -0.25626971864E+02 -0.74707203370E+03  0.74771776804E+03  0.31472653412E+01 0.  0.
         13    1    3    3    0    0 -0.48857820228E+01 -0.83322954522E+01 -0.26637826465E+03  0.26655333030E+03  0.00000000000E+00 0.  1.
          1    1    3    3  501    0 -0.12393978937E+02 -0.17294676412E+02 -0.48069376905E+03  0.48116443774E+03  0.00000000000E+00 0.  1.
         -3    1    1    2    0  502  0.17279760960E+02  0.25626971864E+02 -0.25165961958E+03  0.25355057869E+03  0.00000000000E+00 0. -1.
<mgrwt>
<rscale>  1 0.30000000E+03</rscale>
<asrwt>0</asrwt>
<pdfrwt beam="1">  1       21 0.46121796E-02 0.30000000E+03</pdfrwt>
<pdfrwt beam="2">0</pdfrwt>
<totfact> 0.33046981E+04</totfact>
</mgrwt>
</event>
<event>
 6    1  0.1284012E-001  0.3000000E+03  0.7818608E-02  0.1093470E+00
         21   -1    0    0  501  502  0.00000000000E+00  0.00000000000E+00  0.18335601404E+01  0.18335601404E+01  0.00000000000E+00 0. -1.
         13   -1    0    0    0    0 -0.00000000000E+00 -0.00000000000E+00 -0.10000000000E+04  0.10000000000E+04  0.00000000000E+00 0.  1.
    9000005    2    1    2  501    0 -0.34451856724E+02 -0.21733249637E+02 -0.65195641055E+03  0.65323544058E+03  0.31804074301E+01 0.  0.
         13    1    3    3    0    0 -0.32034748342E+02 -0.20265436967E+02 -0.59198893697E+03  0.59320132715E+03  0.00000000000E+00 0.  1.
          1    1    3    3  501    0 -0.24171083820E+01 -0.14678126703E+01 -0.59967473585E+02  0.60034113428E+02  0.00000000000E+00 0.  1.
         -3    1    1    2    0  502  0.34451856724E+02  0.21733249637E+02 -0.34621002931E+03  0.34859811956E+03  0.00000000000E+00 0. -1.
<mgrwt>
<rscale>  1 0.30000000E+03</rscale>
<asrwt>0</asrwt>
<pdfrwt beam="1">  1       21 0.66675055E-02 0.30000000E+03</pdfrwt>
<pdfrwt beam="2">0</pdfrwt>
<totfact> 0.17558617E+04</totfact>
</mgrwt>
</event>
<event>
 6    1  0.1284012E-001  0.3000000E+03  0.7818608E-02  0.1093470E+00
         21   -1    0    0  501  502  0.00000000000E+00  0.00000000000E+00  0.47522395975E+01  0.47522395975E+01  0.00000000000E+00 0. -1.
         13   -1    0    0    0    0 -0.00000000000E+00 -0.00000000000E+00 -0.10000000000E+04  0.10000000000E+04  0.00000000000E+00 0.  1.
    9000005    2    1    2  501    0 -0.63680982949E+02  0.19780463959E+02 -0.62419794715E+03  0.62775821012E+03  0.32800622389E+01 0.  0.
         13    1    3    3    0    0 -0.86699445354E+01  0.38915683477E+01 -0.88778499762E+02  0.89285689012E+02  0.00000000000E+00 0.  1.
          1    1    3    3  501    0 -0.55011038414E+02  0.15888895611E+02 -0.53541944739E+03  0.53847252111E+03  0.00000000000E+00 0.  1.
         -3    1    1    2    0  502  0.63680982949E+02 -0.19780463959E+02 -0.37104981325E+03  0.37699402947E+03  0.00000000000E+00 0. -1.
<mgrwt>
<rscale>  1 0.30000000E+03</rscale>
<asrwt>0</asrwt>
<pdfrwt beam="1">  1       21 0.17280908E-01 0.30000000E+03</pdfrwt>
<pdfrwt beam="2">0</pdfrwt>
<totfact> 0.31628556E+03</totfact>
</mgrwt>
</event>
<event>
 6    1  0.1284012E-001  0.3000000E+03  0.7818608E-02  0.1093470E+00
         21   -1    0    0  501  502  0.00000000000E+00  0.00000000000E+00  0.81138025060E+01  0.81138025060E+01  0.00000000000E+00 0. -1.
         13   -1    0    0    0    0 -0.00000000000E+00 -0.00000000000E+00 -0.10000000000E+04  0.10000000000E+04  0.00000000000E+00 0.  1.
    9000005    2    1    2  501    0  0.67787692166E+02  0.11316508433E+02 -0.82168671681E+03  0.82456245330E+03  0.33082061964E+01 0.  0.
         13    1    3    3    0    0  0.46448398050E+02  0.66198252949E+01 -0.54775663336E+03  0.54976231697E+03  0.00000000000E+00 0.  1.
          3    1    3    3  501    0  0.21339294116E+02  0.46966831381E+01 -0.27393008345E+03  0.27480013632E+03  0.00000000000E+00 0.  1.
         -3    1    1    2    0  502 -0.67787692166E+02 -0.11316508433E+02 -0.17019948068E+03  0.18355134921E+03  0.00000000000E+00 0. -1.
<mgrwt>
<rscale>  1 0.30000000E+03</rscale>
<asrwt>0</asrwt>
<pdfrwt beam="1">  1       21 0.29504799E-01 0.30000000E+03</pdfrwt>
<pdfrwt beam="2">0</pdfrwt>
<totfact> 0.11240474E+03</totfact>
</mgrwt>
</event>
<event>
 6    1  0.1284012E-001  0.3000000E+03  0.7818608E-02  0.1093470E+00
         21   -1    0    0  501  502  0.00000000000E+00  0.00000000000E+00  0.21036758981E+01  0.21036758981E+01  0.00000000000E+00 0. -1.
         13   -1    0    0    0    0 -0.00000000000E+00 -0.00000000000E+00 -0.10000000000E+04  0.10000000000E+04  0.00000000000E+00 0.  1.
    9000005    2    1    2  501    0  0.15458522902E+02 -0.29700703378E+02 -0.83917328990E+03  0.83988746433E+03  0.88342817515E+01 0.  0.
         13    1    3    3    0    0 -0.22078603188E+00  0.37159931782E+00 -0.35468242299E+01  0.35730651607E+01  0.00000000000E+00 0.  1.
          1    1    3    3  501    0  0.15679308934E+02 -0.30072302696E+02 -0.83562646567E+03  0.83631439917E+03  0.00000000000E+00 0.  1.
         -3    1    1    2    0  502 -0.15458522902E+02  0.29700703378E+02 -0.15872303420E+03  0.16221621157E+03  0.00000000000E+00 0. -1.
<mgrwt>
<rscale>  1 0.30000000E+03</rscale>
<asrwt>0</asrwt>
<pdfrwt beam="1">  1       21 0.76497467E-02 0.30000000E+03</pdfrwt>
<pdfrwt beam="2">0</pdfrwt>
<totfact> 0.13817595E+04</totfact>
</mgrwt>
</event>
<event>
 6    1  0.1284012E-001  0.3000000E+03  0.7818608E-02  0.1093470E+00
         21   -1    0    0  501  502  0.00000000000E+00  0.00000000000E+00  0.14344529723E+01  0.14344529723E+01  0.00000000000E+00 0. -1.
         13   -1    0    0    0    0 -0.00000000000E+00 -0.00000000000E+00 -0.10000000000E+04  0.10000000000E+04  0.00000000000E+00 0.  1.
    9000005    2    1    2  501    0 -0.13697543890E+02 -0.31126929424E+02 -0.28126582857E+03  0.28332903276E+03  0.28924103405E+01 0.  0.
         13    1    3    3    0    0 -0.26872123868E+01 -0.42218332469E+01 -0.35929729777E+02  0.36276582918E+02  0.00000000000E+00 0.  1.
          3    1    3    3  501    0 -0.11010331503E+02 -0.26905096177E+02 -0.24533609880E+03  0.24705244984E+03  0.00000000000E+00 0.  1.
         -1    1    1    2    0  502  0.13697543890E+02  0.31126929424E+02 -0.71729971846E+03  0.71810542021E+03  0.00000000000E+00 0. -1.
<mgrwt>
<rscale>  1 0.30000000E+03</rscale>
<asrwt>0</asrwt>
<pdfrwt beam="1">  1       21 0.52162036E-02 0.30000000E+03</pdfrwt>
<pdfrwt beam="2">0</pdfrwt>
<totfact> 0.26797064E+04</totfact>
</mgrwt>
</event>
<event>
 6    1  0.1284012E-001  0.3000000E+03  0.7818608E-02  0.1093470E+00
         21   -1    0    0  501  502  0.00000000000E+00  0.00000000000E+00  0.44037102223E+01  0.44037102223E+01  0.00000000000E+00 0. -1.
         13   -1    0    0    0    0 -0.00000000000E+00 -0.00000000000E+00 -0.10000000000E+04  0.10000000000E+04  0.00000000000E+00 0.  1.
    9000005    2    1    2  501    0  0.65306253875E+02  0.11311634111E+02 -0.50769739762E+03  0.51202358386E+03  0.43177568285E+01 0.  0.
         13    1    3    3    0    0  0.42534000891E+02  0.75468936076E+01 -0.31477061978E+03  0.31772100955E+03  0.00000000000E+00 0.  1.
          3    1    3    3  501    0  0.22772252983E+02  0.37647405034E+01 -0.19292677784E+03  0.19430257431E+03  0.00000000000E+00 0.  1.
         -1    1    1    2    0  502 -0.65306253875E+02 -0.11311634111E+02 -0.48789889216E+03  0.49238012636E+03  0.00000000000E+00 0. -1.
<mgrwt>
<rscale>  1 0.30000000E+03</rscale>
<asrwt>0</asrwt>
<pdfrwt beam="1">  1       21 0.16013525E-01 0.30000000E+03</pdfrwt>
<pdfrwt beam="2">0</pdfrwt>
<totfact> 0.36469159E+03</totfact>
</mgrwt>
</event>
<event>
 6    1  0.1284012E-001  0.3000000E+03  0.7818608E-02  0.1093470E+00
         21   -1    0    0  501  502  0.00000000000E+00  0.00000000000E+00  0.10283365955E+01  0.10283365955E+01  0.00000000000E+00 0. -1.
         13   -1    0    0    0    0 -0.00000000000E+00 -0.00000000000E+00 -0.10000000000E+04  0.10000000000E+04  0.00000000000E+00 0.  1.
    9000005    2    1    2  501    0 -0.29604283940E+02  0.10437178475E+02 -0.40363962954E+03  0.40486931513E+03  0.29771599678E+01 0.  0.
         13    1    3    3    0    0 -0.28995432057E+02  0.10432989423E+02 -0.39928313294E+03  0.40047047656E+03  0.00000000000E+00 0.  1.
          1    1    3    3  501    0 -0.60885188327E+00  0.41890518864E-02 -0.43564966025E+01  0.43988385753E+01  0.00000000000E+00 0.  1.
         -3    1    1    2    0  502  0.29604283940E+02 -0.10437178475E+02 -0.59533203387E+03  0.59615902146E+03  0.00000000000E+00 0. -1.
<mgrwt>
<rscale>  1 0.30000000E+03</rscale>
<asrwt>0</asrwt>
<pdfrwt beam="1">  1       21 0.37394137E-02 0.30000000E+03</pdfrwt>
<pdfrwt beam="2">0</pdfrwt>
<totfact> 0.47090285E+04</totfact>
</mgrwt>
</event>
<event>
 6    1  0.1284012E-001  0.3000000E+03  0.7818608E-02  0.1093470E+00
         21   -1    0    0  501  502  0.00000000000E+00  0.00000000000E+00  0.14339692815E+01  0.14339692815E+01  0.00000000000E+00 0. -1.
         13   -1    0    0    0    0 -0.00000000000E+00 -0.00000000000E+00 -0.10000000000E+04  0.10000000000E+04  0.00000000000E+00 0.  1.
    9000005    2    1    2  501    0  0.30468704223E+02 -0.18964802936E+02 -0.65692399574E+03  0.65791208388E+03  0.33418924753E+01 0.  0.
         13    1    3    3    0    0  0.29540570697E+02 -0.18467013796E+02 -0.62447626548E+03  0.62544726561E+03  0.00000000000E+00 0.  1.
          1    1    3    3  501    0  0.92813352588E+00 -0.49778913974E+00 -0.32447730259E+02  0.32464818263E+02  0.00000000000E+00 0.  1.
         -3    1    1    2    0  502 -0.30468704223E+02  0.18964802936E+02 -0.34164203498E+03  0.34352188541E+03  0.00000000000E+00 0. -1.
<mgrwt>
<rscale>  1 0.30000000E+03</rscale>
<asrwt>0</asrwt>
<pdfrwt beam="1">  1       21 0.52144447E-02 0.30000000E+03</pdfrwt>
<pdfrwt beam="2">0</pdfrwt>
<totfact> 0.26812510E+04</totfact>
</mgrwt>
</event>
<event>
 6    1  0.1284012E-001  0.3000000E+03  0.7818608E-02  0.1093470E+00
         21   -1    0    0  501  502  0.00000000000E+00  0.00000000000E+00  0.24034390248E+01  0.24034390248E+01  0.00000000000E+00 0. -1.
         13   -1    0    0    0    0 -0.00000000000E+00 -0.00000000000E+00 -0.10000000000E+04  0.10000000000E+04  0.00000000000E+00 0.  1.
    9000005    2    1    2  501    0  0.10852325209E+02 -0.41140073137E+02 -0.25696414743E+03  0.26054991536E+03  0.67384530515E+01 0.  0.
         13    1    3    3    0    0  0.45434220569E+01 -0.28107068399E+02 -0.17951177957E+03  0.18175568487E+03  0.00000000000E+00 0.  1.
          3    1    3    3  501    0  0.63089031517E+01 -0.13033004737E+02 -0.77452367858E+02  0.78794230488E+02  0.00000000000E+00 0.  1.
         -1    1    1    2    0  502 -0.10852325209E+02  0.41140073137E+02 -0.74063241355E+03  0.74185352367E+03  0.00000000000E+00 0. -1.
<mgrwt>
<rscale>  1 0.30000000E+03</rscale>
<asrwt>0</asrwt>
<pdfrwt beam="1">  1       21 0.87397967E-02 0.30000000E+03</pdfrwt>
<pdfrwt beam="2">0</pdfrwt>
<totfact> 0.10931036E+04</totfact>
</mgrwt>
</event>
<event>
 6    1  0.1284012E-001  0.3000000E+03  0.7818608E-02  0.1093470E+00
         21   -1    0    0  501  502  0.00000000000E+00  0.00000000000E+00  0.21909771683E+01  0.21909771683E+01  0.00000000000E+00 0. -1.
         13   -1    0    0    0    0 -0.00000000000E+00 -0.00000000000E+00 -0.10000000000E+04  0.10000000000E+04  0.00000000000E+00 0.  1.
    9000005    2    1    2  501    0  0.40108391500E+02 -0.15044562437E+02 -0.69967252731E+03  0.70099271706E+03  0.37579219388E+01 0.  0.
         13    1    3    3    0    0  0.34715711614E+02 -0.11770810068E+02 -0.58635068245E+03  0.58749540884E+03  0.00000000000E+00 0.  1.
          3    1    3    3  501    0  0.53926798856E+01 -0.32737523692E+01 -0.11332184486E+03  0.11349730822E+03  0.00000000000E+00 0.  1.
         -3    1    1    2    0  502 -0.40108391500E+02  0.15044562437E+02 -0.29813649552E+03  0.30119826011E+03  0.00000000000E+00 0. -1.
<mgrwt>
<rscale>  1 0.30000000E+03</rscale>
<asrwt>0</asrwt>
<pdfrwt beam="1">  1       21 0.79672065E-02 0.30000000E+03</pdfrwt>
<pdfrwt beam="2">0</pdfrwt>
<totfact> 0.12866353E+04</totfact>
</mgrwt>
</event>
<event>
 6    1  0.1284012E-001  0.3000000E+03  0.7818608E-02  0.1093470E+00
         21   -1    0    0  501  502  0.00000000000E+00  0.00000000000E+00  0.45484973417E+01  0.45484973417E+01  0.00000000000E+00 0. -1.
         13   -1    0    0    0    0 -0.00000000000E+00 -0.00000000000E+00 -0.10000000000E+04  0.10000000000E+04  0.00000000000E+00 0.  1.
    9000005    2    1    2  501    0  0.46652831916E+02  0.15671127405E+02 -0.84098118566E+03  0.84242770968E+03  0.36083839720E+01 0.  0.
         13    1    3    3    0    0  0.85053283531E+01  0.42706633428E+01 -0.17052345318E+03  0.17078883822E+03  0.00000000000E+00 0.  1.
          3    1    3    3  501    0  0.38147503563E+02  0.11400464062E+02 -0.67045773248E+03  0.67163887146E+03  0.00000000000E+00 0.  1.
         -3    1    1    2    0  502 -0.46652831916E+02 -0.15671127405E+02 -0.15447031700E+03  0.16212078767E+03  0.00000000000E+00 0. -1.
<mgrwt>
<rscale>  1 0.30000000E+03</rscale>
<asrwt>0</asrwt>
<pdfrwt beam="1">  1       21 0.16540025E-01 0.30000000E+03</pdfrwt>
<pdfrwt beam="2">0</pdfrwt>
<totfact> 0.34332544E+03</totfact>
</mgrwt>
</event>
<event>
 6    1  0.1284012E-001  0.3000000E+03  0.7818608E-02  0.1093470E+00
         21   -1    0    0  501  502  0.00000000000E+00  0.00000000000E+00  0.10119849521E+01  0.10119849521E+01  0.00000000000E+00 0. -1.
         13   -1    0    0    0    0 -0.00000000000E+00 -0.00000000000E+00 -0.10000000000E+04  0.10000000000E+04  0.00000000000E+00 0.  1.
    9000005    2    1    2  501    0 -0.29220296546E+02 -0.90423476470E+01 -0.36809663369E+03  0.36937955636E+03  0.32457879555E+01 0.  0.
         13    1    3    3    0    0 -0.23411201510E+02 -0.62576430092E+01 -0.27908418940E+03  0.28013430212E+03  0.00000000000E+00 0.  1.
          3    1    3    3  501    0 -0.58090950367E+01 -0.27847046378E+01 -0.89012444293E+02  0.89245254238E+02  0.00000000000E+00 0.  1.
         -1    1    1    2    0  502  0.29220296546E+02  0.90423476470E+01 -0.63089138136E+03  0.63163242860E+03  0.00000000000E+00 0. -1.
<mgrwt>
<rscale>  1 0.30000000E+03</rscale>
<asrwt>0</asrwt>
<pdfrwt beam="1">  1       21 0.36799530E-02 0.30000000E+03</pdfrwt>
<pdfrwt beam="2">0</pdfrwt>
<totfact> 0.48374508E+04</totfact>
</mgrwt>
</event>
<event>
 6    1  0.1284012E-001  0.3000000E+03  0.7818608E-02  0.1093470E+00
         21   -1    0    0  501  502  0.00000000000E+00  0.00000000000E+00  0.12016503622E+01  0.12016503622E+01  0.00000000000E+00 0. -1.
         13   -1    0    0    0    0 -0.00000000000E+00 -0.00000000000E+00 -0.10000000000E+04  0.10000000000E+04  0.00000000000E+00 0.  1.
    9000005    2    1    2  501    0  0.26210208065E+02 -0.19810064748E+02 -0.65688236873E+03  0.65771081836E+03  0.31081444825E+01 0.  0.
         13    1    3    3    0    0  0.13534581120E+02 -0.92507404244E+01 -0.35419075592E+03  0.35456995454E+03  0.00000000000E+00 0.  1.
          3    1    3    3  501    0  0.12675626945E+02 -0.10559324324E+02 -0.30269161281E+03  0.30314086382E+03  0.00000000000E+00 0.  1.
         -1    1    1    2    0  502 -0.26210208065E+02  0.19810064748E+02 -0.34191598091E+03  0.34349083201E+03  0.00000000000E+00 0. -1.
<mgrwt>
<rscale>  1 0.30000000E+03</rscale>
<asrwt>0</asrwt>
<pdfrwt beam="1">  1       21 0.43696469E-02 0.30000000E+03</pdfrwt>
<pdfrwt beam="2">0</pdfrwt>
<totfact> 0.36218523E+04</totfact>
</mgrwt>
</event>
<event>
 6    1  0.1284012E-001  0.3000000E+03  0.7818608E-02  0.1093470E+00
         21   -1    0    0  501  502  0.00000000000E+00  0.00000000000E+00  0.18912722695E+01  0.18912722695E+01  0.00000000000E+00 0. -1.
         13   -1    0    0    0    0 -0.00000000000E+00 -0.00000000000E+00 -0.10000000000E+04  0.10000000000E+04  0.00000000000E+00 0.  1.
    9000005    2    1    2  501    0  0.39099595057E+02 -0.51926764427E+01 -0.70879602633E+03  0.70990226321E+03  0.36978563262E+01 0.  0.
         13    1    3    3    0    0  0.94901478887E+01 -0.89797349083E+00 -0.14510911989E+03  0.14542188948E+03  0.00000000000E+00 0.  1.
          1    1    3    3  501    0  0.29609447168E+02 -0.42947029519E+01 -0.56368690644E+03  0.56448037373E+03  0.00000000000E+00 0.  1.
         -3    1    1    2    0  502 -0.39099595057E+02  0.51926764427E+01 -0.28931270140E+03  0.29198900906E+03  0.00000000000E+00 0. -1.
<mgrwt>
<rscale>  1 0.30000000E+03</rscale>
<asrwt>0</asrwt>
<pdfrwt beam="1">  1       21 0.68773682E-02 0.30000000E+03</pdfrwt>
<pdfrwt beam="2">0</pdfrwt>
<totfact> 0.16638943E+04</totfact>
</mgrwt>
</event>
<event>
 6    1  0.1284012E-001  0.3000000E+03  0.7818608E-02  0.1093470E+00
         21   -1    0    0  501  502  0.00000000000E+00  0.00000000000E+00  0.47737342138E+01  0.47737342138E+01  0.00000000000E+00 0. -1.
         13   -1    0    0    0    0 -0.00000000000E+00 -0.00000000000E+00 -0.10000000000E+04  0.10000000000E+04  0.00000000000E+00 0.  1.
    9000005    2    1    2  501    0 -0.11919690374E+02  0.34125770665E+02 -0.92570165719E+03  0.92641355017E+03  0.34439195516E+01 0.  0.
         13    1    3    3    0    0 -0.90311510401E+01  0.23788687680E+02 -0.61350087696E+03  0.61402832946E+03  0.00000000000E+00 0.  1.
          3    1    3    3  501    0 -0.28885393341E+01  0.10337082986E+02 -0.31220078023E+03  0.31238522072E+03  0.00000000000E+00 0.  1.
         -3    1    1    2    0  502  0.11919690374E+02 -0.34125770665E+02 -0.69524608597E+02  0.78360184040E+02  0.00000000000E+00 0. -1.
<mgrwt>
<rscale>  1 0.30000000E+03</rscale>
<asrwt>0</asrwt>
<pdfrwt beam="1">  1       21 0.17359070E-01 0.30000000E+03</pdfrwt>
<pdfrwt beam="2">0</pdfrwt>
<totfact> 0.31361895E+03</totfact>
</mgrwt>
</event>
<event>
 6    1  0.1284012E-001  0.3000000E+03  0.7818608E-02  0.1093470E+00
         21   -1    0    0  501  502  0.00000000000E+00  0.00000000000E+00  0.88396577963E+01  0.88396577963E+01  0.00000000000E+00 0. -1.
         13   -1    0    0    0    0 -0.00000000000E+00 -0.00000000000E+00 -0.10000000000E+04  0.10000000000E+04  0.00000000000E+00 0.  1.
    9000005    2    1    2  501    0  0.17833268249E+02  0.68460731379E+02 -0.82772580325E+03  0.83075050675E+03  0.33914454256E+01 0.  0.
         13    1    3    3    0    0  0.81165331411E+01  0.25306672003E+02 -0.31916377897E+03  0.32026836179E+03  0.00000000000E+00 0.  1.
          1    1    3    3  501    0  0.97167351078E+01  0.43154059376E+02 -0.50856202428E+03  0.51048214496E+03  0.00000000000E+00 0.  1.
         -1    1    1    2    0  502 -0.17833268249E+02 -0.68460731379E+02 -0.16343453895E+03  0.17808915105E+03  0.00000000000E+00 0. -1.
<mgrwt>
<rscale>  1 0.30000000E+03</rscale>
<asrwt>0</asrwt>
<pdfrwt beam="1">  1       21 0.32144278E-01 0.30000000E+03</pdfrwt>
<pdfrwt beam="2">0</pdfrwt>
<totfact> 0.94631949E+02</totfact>
</mgrwt>
</event>
<event>
 6    1  0.1284012E-001  0.3000000E+03  0.7818608E-02  0.1093470E+00
         21   -1    0    0  501  502  0.00000000000E+00  0.00000000000E+00  0.98438173849E+00  0.98438173849E+00  0.00000000000E+00 0. -1.
         13   -1    0    0    0    0 -0.00000000000E+00 -0.00000000000E+00 -0.10000000000E+04  0.10000000000E+04  0.00000000000E+00 0.  1.
    9000005    2    1    2  501    0 -0.22705330558E+02  0.20919847590E+02 -0.41961507576E+03  0.42076187209E+03  0.32510206865E+01 0.  0.
         13    1    3    3    0    0 -0.21744757849E+02  0.18953262061E+02 -0.39265234480E+03  0.39371045772E+03  0.00000000000E+00 0.  1.
          3    1    3    3  501    0 -0.96057270900E+00  0.19665855290E+01 -0.26962730960E+02  0.27051414370E+02  0.00000000000E+00 0.  1.
         -1    1    1    2    0  502  0.22705330558E+02 -0.20919847590E+02 -0.57940054250E+03  0.58022250965E+03  0.00000000000E+00 0. -1.
<mgrwt>
<rscale>  1 0.30000000E+03</rscale>
<asrwt>0</asrwt>
<pdfrwt beam="1">  1       21 0.35795775E-02 0.30000000E+03</pdfrwt>
<pdfrwt beam="2">0</pdfrwt>
<totfact> 0.50671392E+04</totfact>
</mgrwt>
</event>
<event>
 6    1  0.1284012E-001  0.3000000E+03  0.7818608E-02  0.1093470E+00
         21   -1    0    0  501  502  0.00000000000E+00  0.00000000000E+00  0.28324139256E+01  0.28324139256E+01  0.00000000000E+00 0. -1.
         13   -1    0    0    0    0 -0.00000000000E+00 -0.00000000000E+00 -0.10000000000E+04  0.10000000000E+04  0.00000000000E+00 0.  1.
    9000005    2    1    2  501    0  0.40812304864E+02 -0.25266498494E+02 -0.71478578234E+03  0.71640000784E+03  0.24932762158E+01 0.  0.
         13    1    3    3    0    0  0.18337117719E+02 -0.11360400885E+02 -0.30283104766E+03  0.30359833995E+03  0.00000000000E+00 0.  1.
          1    1    3    3  501    0  0.22475187145E+02 -0.13906097609E+02 -0.41195473468E+03  0.41280166789E+03  0.00000000000E+00 0.  1.
         -1    1    1    2    0  502 -0.40812304864E+02  0.25266498494E+02 -0.28238180373E+03  0.28643240608E+03  0.00000000000E+00 0. -1.
<mgrwt>
<rscale>  1 0.30000000E+03</rscale>
<asrwt>0</asrwt>
<pdfrwt beam="1">  1       21 0.10299709E-01 0.30000000E+03</pdfrwt>
<pdfrwt beam="2">0</pdfrwt>
<totfact> 0.81606148E+03</totfact>
</mgrwt>
</event>
<event>
 6    1  0.1284012E-001  0.3000000E+03  0.7818608E-02  0.1093470E+00
         21   -1    0    0  501  502  0.00000000000E+00  0.00000000000E+00  0.14259675697E+01  0.14259675697E+01  0.00000000000E+00 0. -1.
         13   -1    0    0    0    0 -0.00000000000E+00 -0.00000000000E+00 -0.10000000000E+04  0.10000000000E+04  0.00000000000E+00 0.  1.
    9000005    2    1    2  501    0  0.32220056249E+02  0.52677398112E+01 -0.74975346376E+03  0.75047267211E+03  0.36185715730E+01 0.  0.
         13    1    3    3    0    0  0.20397434350E+02  0.49276461020E+01 -0.49613861124E+03  0.49658217707E+03  0.00000000000E+00 0.  1.
          1    1    3    3  501    0  0.11822621899E+02  0.34009370917E+00 -0.25361485253E+03  0.25389049504E+03  0.00000000000E+00 0.  1.
         -1    1    1    2    0  502 -0.32220056249E+02 -0.52677398112E+01 -0.24882056867E+03  0.25095329546E+03  0.00000000000E+00 0. -1.
<mgrwt>
<rscale>  1 0.30000000E+03</rscale>
<asrwt>0</asrwt>
<pdfrwt beam="1">  1       21 0.51853476E-02 0.30000000E+03</pdfrwt>
<pdfrwt beam="2">0</pdfrwt>
<totfact> 0.27070049E+04</totfact>
</mgrwt>
</event>
<event>
 6    1  0.1284012E-001  0.3000000E+03  0.7818608E-02  0.1093470E+00
         21   -1    0    0  501  502  0.00000000000E+00  0.00000000000E+00  0.26652876073E+01  0.26652876073E+01  0.00000000000E+00 0. -1.
         13   -1    0    0    0    0 -0.00000000000E+00 -0.00000000000E+00 -0.10000000000E+04  0.10000000000E+04  0.00000000000E+00 0.  1.
    9000005    2    1    2  501    0 -0.12422702555E+02 -0.49835632671E+02 -0.46089698417E+03  0.46377443587E+03  0.47732095834E+01 0.  0.
         13    1    3    3    0    0 -0.59180040981E+01 -0.20030043204E+02 -0.16814727896E+03  0.16943946655E+03  0.00000000000E+00 0.  1.
          1    1    3    3  501    0 -0.65046984571E+01 -0.29805589467E+02 -0.29274970521E+03  0.29433496932E+03  0.00000000000E+00 0.  1.
         -3    1    1    2    0  502  0.12422702555E+02  0.49835632671E+02 -0.53643772822E+03  0.53889085173E+03  0.00000000000E+00 0. -1.
<mgrwt>
<rscale>  1 0.30000000E+03</rscale>
<asrwt>0</asrwt>
<pdfrwt beam="1">  1       21 0.96919754E-02 0.30000000E+03</pdfrwt>
<pdfrwt beam="2">0</pdfrwt>
<totfact> 0.90973985E+03</totfact>
</mgrwt>
</event>
<event>
 6    1  0.1284012E-001  0.3000000E+03  0.7818608E-02  0.1093470E+00
         21   -1    0    0  501  502  0.00000000000E+00  0.00000000000E+00  0.15611643920E+01  0.15611643920E+01  0.00000000000E+00 0. -1.
         13   -1    0    0    0    0 -0.00000000000E+00 -0.00000000000E+00 -0.10000000000E+04  0.10000000000E+04  0.00000000000E+00 0.  1.
    9000005    2    1    2  501    0 -0.27148936812E+02  0.26044219751E+02 -0.64994238991E+03  0.65103992564E+03  0.35367247817E+01 0.  0.
         13    1    3    3    0    0 -0.17305017157E+02  0.17572135151E+02 -0.39867429528E+03  0.39943639953E+03  0.00000000000E+00 0.  1.
          3    1    3    3  501    0 -0.98439196556E+01  0.84720846001E+01 -0.25126809463E+03  0.25160352611E+03  0.00000000000E+00 0.  1.
         -1    1    1    2    0  502  0.27148936812E+02 -0.26044219751E+02 -0.34849644570E+03  0.35052123876E+03  0.00000000000E+00 0. -1.
<mgrwt>
<rscale>  1 0.30000000E+03</rscale>
<asrwt>0</asrwt>
<pdfrwt beam="1">  1       21 0.56769734E-02 0.30000000E+03</pdfrwt>
<pdfrwt beam="2">0</pdfrwt>
<totfact> 0.23179011E+04</totfact>
</mgrwt>
</event>
<event>
 6    1  0.1284012E-001  0.3000000E+03  0.7818608E-02  0.1093470E+00
         21   -1    0    0  501  502  0.00000000000E+00  0.00000000000E+00  0.13778803315E+01  0.13778803315E+01  0.00000000000E+00 0. -1.
         13   -1    0    0    0    0 -0.00000000000E+00 -0.00000000000E+00 -0.10000000000E+04  0.10000000000E+04  0.00000000000E+00 0.  1.
    9000005    2    1    2  501    0  0.23829806474E+02  0.26900829118E+02 -0.38016812389E+03  0.38188061708E+03  0.36727366214E+01 0.  0.
         13    1    3    3    0    0  0.21553797278E+02  0.24117854495E+02 -0.35225037130E+03  0.35373232983E+03  0.00000000000E+00 0.  1.
          3    1    3    3  501    0  0.22760091968E+01  0.27829746229E+01 -0.27917752591E+02  0.28148287254E+02  0.00000000000E+00 0.  1.
         -3    1    1    2    0  502 -0.23829806474E+02 -0.26900829118E+02 -0.61845399578E+03  0.61949726325E+03  0.00000000000E+00 0. -1.
<mgrwt>
<rscale>  1 0.30000000E+03</rscale>
<asrwt>0</asrwt>
<pdfrwt beam="1">  1       21 0.50104845E-02 0.30000000E+03</pdfrwt>
<pdfrwt beam="2">0</pdfrwt>
<totfact> 0.28701975E+04</totfact>
</mgrwt>
</event>
<event>
 6    1  0.1284012E-001  0.3000000E+03  0.7818608E-02  0.1093470E+00
         21   -1    0    0  501  502  0.00000000000E+00  0.00000000000E+00  0.40654055242E+01  0.40654055242E+01  0.00000000000E+00 0. -1.
         13   -1    0    0    0    0 -0.00000000000E+00 -0.00000000000E+00 -0.10000000000E+04  0.10000000000E+04  0.00000000000E+00 0.  1.
    9000005    2    1    2  501    0  0.49711018324E+02  0.31205487155E+02 -0.69359700505E+03  0.69608328632E+03  0.31887779371E+01 0.  0.
         13    1    3    3    0    0  0.34591214520E+01  0.13568607796E+01 -0.48192138549E+02  0.48335171566E+02  0.00000000000E+00 0.  1.
          1    1    3    3  501    0  0.46251896872E+02  0.29848626375E+02 -0.64540486650E+03  0.64774811475E+03  0.00000000000E+00 0.  1.
         -1    1    1    2    0  502 -0.49711018324E+02 -0.31205487155E+02 -0.30233758942E+03  0.30798211920E+03  0.00000000000E+00 0. -1.
<mgrwt>
<rscale>  1 0.30000000E+03</rscale>
<asrwt>0</asrwt>
<pdfrwt beam="1">  1       21 0.14783324E-01 0.30000000E+03</pdfrwt>
<pdfrwt beam="2">0</pdfrwt>
<totfact> 0.42303490E+03</totfact>
</mgrwt>
</event>
<event>
 6    1  0.1284012E-001  0.3000000E+03  0.7818608E-02  0.1093470E+00
         21   -1    0    0  501  502  0.00000000000E+00  0.00000000000E+00  0.22051175427E+01  0.22051175427E+01  0.00000000000E+00 0. -1.
         13   -1    0    0    0    0 -0.00000000000E+00 -0.00000000000E+00 -0.10000000000E+04  0.10000000000E+04  0.00000000000E+00 0.  1.
    9000005    2    1    2  501    0 -0.87212168287E+01 -0.31360268234E+02 -0.85969454406E+03  0.86032055351E+03  0.41496566269E+01 0.  0.
         13    1    3    3    0    0 -0.53088988653E+01 -0.19759655023E+02 -0.48620738289E+03  0.48663769639E+03  0.00000000000E+00 0.  1.
          3    1    3    3  501    0 -0.34123179634E+01 -0.11600613211E+02 -0.37348716118E+03  0.37368285712E+03  0.00000000000E+00 0.  1.
         -1    1    1    2    0  502  0.87212168287E+01  0.31360268234E+02 -0.13810033839E+03  0.14188456403E+03  0.00000000000E+00 0. -1.
<mgrwt>
<rscale>  1 0.30000000E+03</rscale>
<asrwt>0</asrwt>
<pdfrwt beam="1">  1       21 0.80186262E-02 0.30000000E+03</pdfrwt>
<pdfrwt beam="2">0</pdfrwt>
<totfact> 0.12721794E+04</totfact>
</mgrwt>
</event>
<event>
 6    1  0.1284012E-001  0.3000000E+03  0.7818608E-02  0.1093470E+00
         21   -1    0    0  501  502  0.00000000000E+00  0.00000000000E+00  0.28142007342E+01  0.28142007342E+01  0.00000000000E+00 0. -1.
         13   -1    0    0    0    0 -0.00000000000E+00 -0.00000000000E+00 -0.10000000000E+04  0.10000000000E+04  0.00000000000E+00 0.  1.
    9000005    2    1    2  501    0 -0.80175399014E+01 -0.34695108062E+02 -0.86999645123E+03  0.87073406701E+03  0.39948515337E+01 0.  0.
         13    1    3    3    0    0 -0.23851594650E+01 -0.49834152869E+01 -0.15480832422E+03  0.15490687739E+03  0.00000000000E+00 0.  1.
          1    1    3    3  501    0 -0.56323804364E+01 -0.29711692775E+02 -0.71518812700E+03  0.71582718962E+03  0.00000000000E+00 0.  1.
         -3    1    1    2    0  502  0.80175399014E+01  0.34695108062E+02 -0.12718934804E+03  0.13208013372E+03  0.00000000000E+00 0. -1.
<mgrwt>
<rscale>  1 0.30000000E+03</rscale>
<asrwt>0</asrwt>
<pdfrwt beam="1">  1       21 0.10233479E-01 0.30000000E+03</pdfrwt>
<pdfrwt beam="2">0</pdfrwt>
<totfact> 0.82553831E+03</totfact>
</mgrwt>
</event>
<event>
 6    1  0.1284012E-001  0.3000000E+03  0.7818608E-02  0.1093470E+00
         21   -1    0    0  501  502  0.00000000000E+00  0.00000000000E+00  0.17111877831E+01  0.17111877831E+01  0.00000000000E+00 0. -1.
         13   -1    0    0    0    0 -0.00000000000E+00 -0.00000000000E+00 -0.10000000000E+04  0.10000000000E+04  0.00000000000E+00 0.  1.
    9000005    2    1    2  501    0 -0.23521410721E+02  0.28933766417E+02 -0.28553547391E+03  0.28798312972E+03  0.36546600372E+01 0.  0.
         13    1    3    3    0    0 -0.88269664156E+01  0.12185375139E+02 -0.10311866766E+03  0.10421064401E+03  0.00000000000E+00 0.  1.
          1    1    3    3  501    0 -0.14694444305E+02  0.16748391278E+02 -0.18241680625E+03  0.18377248572E+03  0.00000000000E+00 0.  1.
         -3    1    1    2    0  502  0.23521410721E+02 -0.28933766417E+02 -0.71275333830E+03  0.71372805806E+03  0.00000000000E+00 0. -1.
<mgrwt>
<rscale>  1 0.30000000E+03</rscale>
<asrwt>0</asrwt>
<pdfrwt beam="1">  1       21 0.62225142E-02 0.30000000E+03</pdfrwt>
<pdfrwt beam="2">0</pdfrwt>
<totfact> 0.19788064E+04</totfact>
</mgrwt>
</event>
<event>
 6    1  0.1284012E-001  0.3000000E+03  0.7818608E-02  0.1093470E+00
         21   -1    0    0  501  502  0.00000000000E+00  0.00000000000E+00  0.13702564430E+01  0.13702564430E+01  0.00000000000E+00 0. -1.
         13   -1    0    0    0    0 -0.00000000000E+00 -0.00000000000E+00 -0.10000000000E+04  0.10000000000E+04  0.00000000000E+00 0.  1.
    9000005    2    1    2  501    0 -0.34154809716E+02  0.12350060304E+02 -0.57782161699E+03  0.57899772609E+03  0.64397775038E+01 0.  0.
         13    1    3    3    0    0 -0.30378632894E+02  0.12682888074E+02 -0.49871086356E+03  0.49979620089E+03  0.00000000000E+00 0.  1.
          3    1    3    3  501    0 -0.37761768220E+01 -0.33282776984E+00 -0.79110753428E+02  0.79201525197E+02  0.00000000000E+00 0.  1.
         -3    1    1    2    0  502  0.34154809716E+02 -0.12350060304E+02 -0.42080812657E+03  0.42237253036E+03  0.00000000000E+00 0. -1.
<mgrwt>
<rscale>  1 0.30000000E+03</rscale>
<asrwt>0</asrwt>
<pdfrwt beam="1">  1       21 0.49827612E-02 0.30000000E+03</pdfrwt>
<pdfrwt beam="2">0</pdfrwt>
<totfact> 0.28974732E+04</totfact>
</mgrwt>
</event>
<event>
 6    1  0.1284012E-001  0.3000000E+03  0.7818608E-02  0.1093470E+00
         21   -1    0    0  501  502  0.00000000000E+00  0.00000000000E+00  0.74853963547E+01  0.74853963547E+01  0.00000000000E+00 0. -1.
         13   -1    0    0    0    0 -0.00000000000E+00 -0.00000000000E+00 -0.10000000000E+04  0.10000000000E+04  0.00000000000E+00 0.  1.
    9000005    2    1    2  501    0 -0.36756313553E+02  0.32790757798E+02 -0.83928723921E+02  0.97565311283E+02  0.69784585471E+01 0.  0.
         13    1    3    3    0    0 -0.39442447808E+01  0.47806136925E+01 -0.15241964136E+02  0.16453838606E+02  0.00000000000E+00 0.  1.
          1    1    3    3  501    0 -0.32812068772E+02  0.28010144105E+02 -0.68686759786E+02  0.81111472677E+02  0.00000000000E+00 0.  1.
         -3    1    1    2    0  502  0.36756313553E+02 -0.32790757798E+02 -0.90858587972E+03  0.90992008507E+03  0.00000000000E+00 0. -1.
<mgrwt>
<rscale>  1 0.30000000E+03</rscale>
<asrwt>0</asrwt>
<pdfrwt beam="1">  1       21 0.27219681E-01 0.30000000E+03</pdfrwt>
<pdfrwt beam="2">0</pdfrwt>
<totfact> 0.13191859E+03</totfact>
</mgrwt>
</event>
<event>
 6    1  0.1284012E-001  0.3000000E+03  0.7818608E-02  0.1093470E+00
         21   -1    0    0  501  502  0.00000000000E+00  0.00000000000E+00  0.10216305320E+01  0.10216305320E+01  0.00000000000E+00 0. -1.
         13   -1    0    0    0    0 -0.00000000000E+00 -0.00000000000E+00 -0.10000000000E+04  0.10000000000E+04  0.00000000000E+00 0.  1.
    9000005    2    1    2  501    0  0.23927513560E+02 -0.19847282313E+02 -0.61048963023E+03  0.61129102994E+03  0.35628851394E+01 0.  0.
         13    1    3    3    0    0  0.20386940317E+02 -0.17560232917E+02 -0.50356141695E+03  0.50427977330E+03  0.00000000000E+00 0.  1.
          3    1    3    3  501    0  0.35405732432E+01 -0.22870493962E+01 -0.10692821328E+03  0.10701125665E+03  0.00000000000E+00 0.  1.
         -1    1    1    2    0  502 -0.23927513560E+02  0.19847282313E+02 -0.38848873924E+03  0.38973060059E+03  0.00000000000E+00 0. -1.
<mgrwt>
<rscale>  1 0.30000000E+03</rscale>
<asrwt>0</asrwt>
<pdfrwt beam="1">  1       21 0.37150280E-02 0.30000000E+03</pdfrwt>
<pdfrwt beam="2">0</pdfrwt>
<totfact> 0.47610396E+04</totfact>
</mgrwt>
</event>
<event>
 6    1  0.1284012E-001  0.3000000E+03  0.7818608E-02  0.1093470E+00
         21   -1    0    0  501  502  0.00000000000E+00  0.00000000000E+00  0.37684093230E+02  0.37684093230E+02  0.00000000000E+00 0. -1.
         13   -1    0    0    0    0 -0.00000000000E+00 -0.00000000000E+00 -0.10000000000E+04  0.10000000000E+04  0.00000000000E+00 0.  1.
    9000005    2    1    2  501    0  0.10088199599E+03 -0.16151848789E+02 -0.92232104697E+03  0.92796787681E+03  0.31948981387E+01 0.  0.
         13    1    3    3    0    0  0.25281971922E+02 -0.29536142031E+01 -0.22198868914E+03  0.22344323675E+03  0.00000000000E+00 0.  1.
          1    1    3    3  501    0  0.75600024073E+02 -0.13198234586E+02 -0.70033235783E+03  0.70452464006E+03  0.00000000000E+00 0.  1.
         -1    1    1    2    0  502 -0.10088199599E+03  0.16151848789E+02 -0.39994859800E+02  0.10971621642E+03  0.00000000000E+00 0. -1.
<mgrwt>
<rscale>  1 0.30000000E+03</rscale>
<asrwt>0</asrwt>
<pdfrwt beam="1">  1       21 0.13703336E+00 0.30000000E+03</pdfrwt>
<pdfrwt beam="2">0</pdfrwt>
<totfact> 0.31239567E+01</totfact>
</mgrwt>
</event>
<event>
 6    1  0.1284012E-001  0.3000000E+03  0.7818608E-02  0.1093470E+00
         21   -1    0    0  501  502  0.00000000000E+00  0.00000000000E+00  0.11980324382E+01  0.11980324382E+01  0.00000000000E+00 0. -1.
         13   -1    0    0    0    0 -0.00000000000E+00 -0.00000000000E+00 -0.10000000000E+04  0.10000000000E+04  0.00000000000E+00 0.  1.
    9000005    2    1    2  501    0  0.31762422469E+02 -0.44144303140E+01 -0.68513600669E+03  0.68589710684E+03  0.38929200530E+01 0.  0.
         13    1    3    3    0    0  0.14041664895E+02 -0.15230164821E+00 -0.28252492484E+03  0.28287369037E+03  0.00000000000E+00 0.  1.
          3    1    3    3  501    0  0.17720757574E+02 -0.42621286658E+01 -0.40261108185E+03  0.40302341647E+03  0.00000000000E+00 0.  1.
         -3    1    1    2    0  502 -0.31762422469E+02  0.44144303140E+01 -0.31366596087E+03  0.31530092560E+03  0.00000000000E+00 0. -1.
<mgrwt>
<rscale>  1 0.30000000E+03</rscale>
<asrwt>0</asrwt>
<pdfrwt beam="1">  1       21 0.43564908E-02 0.30000000E+03</pdfrwt>
<pdfrwt beam="2">0</pdfrwt>
<totfact> 0.36403882E+04</totfact>
</mgrwt>
</event>
<event>
 6    1  0.1284012E-001  0.3000000E+03  0.7818608E-02  0.1093470E+00
         21   -1    0    0  501  502  0.00000000000E+00  0.00000000000E+00  0.10923963700E+01  0.10923963700E+01  0.00000000000E+00 0. -1.
         13   -1    0    0    0    0 -0.00000000000E+00 -0.00000000000E+00 -0.10000000000E+04  0.10000000000E+04  0.00000000000E+00 0.  1.
    9000005    2    1    2  501    0 -0.36586263852E+01  0.32372795353E+02 -0.50926924008E+03  0.51037138552E+03  0.78999268295E+01 0.  0.
         13    1    3    3    0    0 -0.36499475758E+01  0.59748898682E+01 -0.12570085371E+03  0.12589569512E+03  0.00000000000E+00 0.  1.
          1    1    3    3  501    0 -0.86788094241E-02  0.26397905485E+02 -0.38356838637E+03  0.38447569040E+03  0.00000000000E+00 0.  1.
         -3    1    1    2    0  502  0.36586263852E+01 -0.32372795353E+02 -0.48963836355E+03  0.49072101085E+03  0.00000000000E+00 0. -1.
<mgrwt>
<rscale>  1 0.30000000E+03</rscale>
<asrwt>0</asrwt>
<pdfrwt beam="1">  1       21 0.39723588E-02 0.30000000E+03</pdfrwt>
<pdfrwt beam="2">0</pdfrwt>
<totfact> 0.42541125E+04</totfact>
</mgrwt>
</event>
<event>
 6    1  0.1284012E-001  0.3000000E+03  0.7818608E-02  0.1093470E+00
         21   -1    0    0  501  502  0.00000000000E+00  0.00000000000E+00  0.12062566250E+01  0.12062566250E+01  0.00000000000E+00 0. -1.
         13   -1    0    0    0    0 -0.00000000000E+00 -0.00000000000E+00 -0.10000000000E+04  0.10000000000E+04  0.00000000000E+00 0.  1.
    9000005    2    1    2  501    0  0.33869635544E+02 -0.27164302531E+01 -0.59770816136E+03  0.59868398978E+03  0.35975349955E+01 0.  0.
         13    1    3    3    0    0  0.28927778009E+02 -0.12963371242E+01 -0.52042646101E+03  0.52123142476E+03  0.00000000000E+00 0.  1.
          3    1    3    3  501    0  0.49418575345E+01 -0.14200931289E+01 -0.77281700348E+02  0.77452565025E+02  0.00000000000E+00 0.  1.
         -3    1    1    2    0  502 -0.33869635544E+02  0.27164302531E+01 -0.40108558201E+03  0.40252226684E+03  0.00000000000E+00 0. -1.
<mgrwt>
<rscale>  1 0.30000000E+03</rscale>
<asrwt>0</asrwt>
<pdfrwt beam="1">  1       21 0.43863970E-02 0.30000000E+03</pdfrwt>
<pdfrwt beam="2">0</pdfrwt>
<totfact> 0.35984634E+04</totfact>
</mgrwt>
</event>
<event>
 6    1  0.1284012E-001  0.3000000E+03  0.7818608E-02  0.1093470E+00
         21   -1    0    0  501  502  0.00000000000E+00  0.00000000000E+00  0.64411702628E+01  0.64411702628E+01  0.00000000000E+00 0. -1.
         13   -1    0    0    0    0 -0.00000000000E+00 -0.00000000000E+00 -0.10000000000E+04  0.10000000000E+04  0.00000000000E+00 0.  1.
    9000005    2    1    2  501    0 -0.30102071350E+02  0.59151290415E+02 -0.77945199611E+03  0.78228331057E+03  0.40931522241E+01 0.  0.
         13    1    3    3    0    0 -0.26390198154E+02  0.48958810849E+02 -0.66077489047E+03  0.66311150163E+03  0.00000000000E+00 0.  1.
          1    1    3    3  501    0 -0.37118731961E+01  0.10192479566E+02 -0.11867710564E+03  0.11917180894E+03  0.00000000000E+00 0.  1.
         -1    1    1    2    0  502  0.30102071350E+02 -0.59151290415E+02 -0.21410683363E+03  0.22415785970E+03  0.00000000000E+00 0. -1.
<mgrwt>
<rscale>  1 0.30000000E+03</rscale>
<asrwt>0</asrwt>
<pdfrwt beam="1">  1       21 0.23422487E-01 0.30000000E+03</pdfrwt>
<pdfrwt beam="2">0</pdfrwt>
<totfact> 0.17707301E+03</totfact>
</mgrwt>
</event>
<event>
 6    1  0.1284012E-001  0.3000000E+03  0.7818608E-02  0.1093470E+00
         21   -1    0    0  501  502  0.00000000000E+00  0.00000000000E+00  0.27490220653E+01  0.27490220653E+01  0.00000000000E+00 0. -1.
         13   -1    0    0    0    0 -0.00000000000E+00 -0.00000000000E+00 -0.10000000000E+04  0.10000000000E+04  0.00000000000E+00 0.  1.
    9000005    2    1    2  501    0  0.34451749610E+02  0.23615892915E+02 -0.80136235906E+03  0.80245677445E+03  0.32574371402E+01 0.  0.
         13    1    3    3    0    0  0.22204257285E+02  0.15904558684E+02 -0.55081300365E+03  0.55148975423E+03  0.00000000000E+00 0.  1.
          1    1    3    3  501    0  0.12247492325E+02  0.77113342305E+01 -0.25054935540E+03  0.25096702022E+03  0.00000000000E+00 0.  1.
         -1    1    1    2    0  502 -0.34451749610E+02 -0.23615892915E+02 -0.19588861888E+03  0.20029224762E+03  0.00000000000E+00 0. -1.
<mgrwt>
<rscale>  1 0.30000000E+03</rscale>
<asrwt>0</asrwt>
<pdfrwt beam="1">  1       21 0.99964650E-02 0.30000000E+03</pdfrwt>
<pdfrwt beam="2">0</pdfrwt>
<totfact> 0.86086345E+03</totfact>
</mgrwt>
</event>
<event>
 6    1  0.1284012E-001  0.3000000E+03  0.7818608E-02  0.1093470E+00
         21   -1    0    0  501  502  0.00000000000E+00  0.00000000000E+00  0.11221735783E+01  0.11221735783E+01  0.00000000000E+00 0. -1.
         13   -1    0    0    0    0 -0.00000000000E+00 -0.00000000000E+00 -0.10000000000E+04  0.10000000000E+04  0.00000000000E+00 0.  1.
    9000005    2    1    2  501    0 -0.11910823863E+02 -0.29408843196E+02 -0.65721108118E+03  0.65798530208E+03  0.33918628336E+01 0.  0.
         13    1    3    3    0    0 -0.48948750738E+01 -0.11893160272E+02 -0.30140333960E+03  0.30167760968E+03  0.00000000000E+00 0.  1.
          1    1    3    3  501    0 -0.70159487895E+01 -0.17515682924E+02 -0.35580774159E+03  0.35630769239E+03  0.00000000000E+00 0.  1.
         -1    1    1    2    0  502  0.11910823863E+02  0.29408843196E+02 -0.34166674524E+03  0.34313687150E+03  0.00000000000E+00 0. -1.
<mgrwt>
<rscale>  1 0.30000000E+03</rscale>
<asrwt>0</asrwt>
<pdfrwt beam="1">  1       21 0.40806398E-02 0.30000000E+03</pdfrwt>
<pdfrwt beam="2">0</pdfrwt>
<totfact> 0.40656796E+04</totfact>
</mgrwt>
</event>
<event>
 6    1  0.1284012E-001  0.3000000E+03  0.7818608E-02  0.1093470E+00
         21   -1    0    0  501  502  0.00000000000E+00  0.00000000000E+00  0.13433393928E+01  0.13433393928E+01  0.00000000000E+00 0. -1.
         13   -1    0    0    0    0 -0.00000000000E+00 -0.00000000000E+00 -0.10000000000E+04  0.10000000000E+04  0.00000000000E+00 0.  1.
    9000005    2    1    2  501    0  0.27900038769E+02  0.11277250249E+02 -0.78467449190E+03  0.78525549368E+03  0.25580447899E+01 0.  0.
         13    1    3    3    0    0  0.20164780724E+02  0.88846154256E+01 -0.59658545488E+03  0.59699226105E+03  0.00000000000E+00 0.  1.
          1    1    3    3  501    0  0.77352580450E+01  0.23926348230E+01 -0.18808903701E+03  0.18826323263E+03  0.00000000000E+00 0.  1.
         -1    1    1    2    0  502 -0.27900038769E+02 -0.11277250249E+02 -0.21398216871E+03  0.21608784571E+03  0.00000000000E+00 0. -1.
<mgrwt>
<rscale>  1 0.30000000E+03</rscale>
<asrwt>0</asrwt>
<pdfrwt beam="1">  1       21 0.48848808E-02 0.30000000E+03</pdfrwt>
<pdfrwt beam="2">0</pdfrwt>
<totfact> 0.29970789E+04</totfact>
</mgrwt>
</event>
<event>
 6    1  0.1284012E-001  0.3000000E+03  0.7818608E-02  0.1093470E+00
         21   -1    0    0  501  502  0.00000000000E+00  0.00000000000E+00  0.21350998323E+01  0.21350998323E+01  0.00000000000E+00 0. -1.
         13   -1    0    0    0    0 -0.00000000000E+00 -0.00000000000E+00 -0.10000000000E+04  0.10000000000E+04  0.00000000000E+00 0.  1.
    9000005    2    1    2  501    0 -0.29438420230E+02  0.19002966972E+02 -0.82534800155E+03  0.82609586089E+03  0.27045100307E+01 0.  0.
         13    1    3    3    0    0 -0.54176130824E+00  0.55717133730E+00 -0.28789204657E+02  0.28799691838E+02  0.00000000000E+00 0.  1.
          3    1    3    3  501    0 -0.28896658921E+02  0.18445795635E+02 -0.79655879689E+03  0.79729616905E+03  0.00000000000E+00 0.  1.
         -1    1    1    2    0  502  0.29438420230E+02 -0.19002966972E+02 -0.17251689862E+03  0.17603923894E+03  0.00000000000E+00 0. -1.
<mgrwt>
<rscale>  1 0.30000000E+03</rscale>
<asrwt>0</asrwt>
<pdfrwt beam="1">  1       21 0.77640158E-02 0.30000000E+03</pdfrwt>
<pdfrwt beam="2">0</pdfrwt>
<totfact> 0.13463070E+04</totfact>
</mgrwt>
</event>
<event>
 6    1  0.1284012E-001  0.3000000E+03  0.7818608E-02  0.1093470E+00
         21   -1    0    0  501  502  0.00000000000E+00  0.00000000000E+00  0.24898694809E+01  0.24898694809E+01  0.00000000000E+00 0. -1.
         13   -1    0    0    0    0 -0.00000000000E+00 -0.00000000000E+00 -0.10000000000E+04  0.10000000000E+04  0.00000000000E+00 0.  1.
    9000005    2    1    2  501    0 -0.63551330498E+01 -0.42481353487E+02 -0.75337916601E+03  0.75460888807E+03  0.30582798000E+01 0.  0.
         13    1    3    3    0    0 -0.11518516893E+01 -0.43911868251E+01 -0.94757713237E+02  0.94866398171E+02  0.00000000000E+00 0.  1.
          3    1    3    3  501    0 -0.52032813606E+01 -0.38090166662E+02 -0.65862145277E+03  0.65974248990E+03  0.00000000000E+00 0.  1.
         -3    1    1    2    0  502  0.63551330498E+01  0.42481353487E+02 -0.24413096451E+03  0.24788098141E+03  0.00000000000E+00 0. -1.
<mgrwt>
<rscale>  1 0.30000000E+03</rscale>
<asrwt>0</asrwt>
<pdfrwt beam="1">  1       21 0.90540899E-02 0.30000000E+03</pdfrwt>
<pdfrwt beam="2">0</pdfrwt>
<totfact> 0.10268471E+04</totfact>
</mgrwt>
</event>
<event>
 6    1  0.1284012E-001  0.3000000E+03  0.7818608E-02  0.1093470E+00
         21   -1    0    0  501  502  0.00000000000E+00  0.00000000000E+00  0.10544115155E+01  0.10544115155E+01  0.00000000000E+00 0. -1.
         13   -1    0    0    0    0 -0.00000000000E+00 -0.00000000000E+00 -0.10000000000E+04  0.10000000000E+04  0.00000000000E+00 0.  1.
    9000005    2    1    2  501    0 -0.76835108198E+01  0.29035217701E+02 -0.31513020807E+03  0.31657975553E+03  0.36896291005E+01 0.  0.
         13    1    3    3    0    0 -0.49133172454E+01  0.17480802599E+02 -0.17135246512E+03  0.17231188714E+03  0.00000000000E+00 0.  1.
          1    1    3    3  501    0 -0.27701935744E+01  0.11554415102E+02 -0.14377774295E+03  0.14426786839E+03  0.00000000000E+00 0.  1.
         -3    1    1    2    0  502  0.76835108198E+01 -0.29035217701E+02 -0.68381538041E+03  0.68447465599E+03  0.00000000000E+00 0. -1.
<mgrwt>
<rscale>  1 0.30000000E+03</rscale>
<asrwt>0</asrwt>
<pdfrwt beam="1">  1       21 0.38342318E-02 0.30000000E+03</pdfrwt>
<pdfrwt beam="2">0</pdfrwt>
<totfact> 0.45150497E+04</totfact>
</mgrwt>
</event>
<event>
 6    1  0.1284012E-001  0.3000000E+03  0.7818608E-02  0.1093470E+00
         21   -1    0    0  501  502  0.00000000000E+00  0.00000000000E+00  0.15686148739E+01  0.15686148739E+01  0.00000000000E+00 0. -1.
         13   -1    0    0    0    0 -0.00000000000E+00 -0.00000000000E+00 -0.10000000000E+04  0.10000000000E+04  0.00000000000E+00 0.  1.
    9000005    2    1    2  501    0 -0.23544957017E+02 -0.19396275842E+02 -0.81829684405E+03  0.81886931711E+03  0.25793394353E+01 0.  0.
         13    1    3    3    0    0 -0.16469955065E+02 -0.12291702315E+02 -0.56846471818E+03  0.56883607585E+03  0.00000000000E+00 0.  1.
          1    1    3    3  501    0 -0.70750019520E+01 -0.71045735274E+01 -0.24983212587E+03  0.25003324126E+03  0.00000000000E+00 0.  1.
         -3    1    1    2    0  502  0.23544957017E+02  0.19396275842E+02 -0.18013454107E+03  0.18269929777E+03  0.00000000000E+00 0. -1.
<mgrwt>
<rscale>  1 0.30000000E+03</rscale>
<asrwt>0</asrwt>
<pdfrwt beam="1">  1       21 0.57040661E-02 0.30000000E+03</pdfrwt>
<pdfrwt beam="2">0</pdfrwt>
<totfact> 0.22990052E+04</totfact>
</mgrwt>
</event>
<event>
 6    1  0.1284012E-001  0.3000000E+03  0.7818608E-02  0.1093470E+00
         21   -1    0    0  501  502  0.00000000000E+00  0.00000000000E+00  0.17828310957E+01  0.17828310957E+01  0.00000000000E+00 0. -1.
         13   -1    0    0    0    0 -0.00000000000E+00 -0.00000000000E+00 -0.10000000000E+04  0.10000000000E+04  0.00000000000E+00 0.  1.
    9000005    2    1    2  501    0 -0.26158203282E+02 -0.19689501996E+02 -0.81485574376E+03  0.81552134737E+03  0.36409880539E+01 0.  0.
         13    1    3    3    0    0 -0.17348853466E+02 -0.13963465299E+02 -0.51409234505E+03  0.51457448471E+03  0.00000000000E+00 0.  1.
          3    1    3    3  501    0 -0.88093498162E+01 -0.57260366964E+01 -0.30076339871E+03  0.30094686266E+03  0.00000000000E+00 0.  1.
         -1    1    1    2    0  502  0.26158203282E+02  0.19689501996E+02 -0.18336142515E+03  0.18626148372E+03  0.00000000000E+00 0. -1.
<mgrwt>
<rscale>  1 0.30000000E+03</rscale>
<asrwt>0</asrwt>
<pdfrwt beam="1">  1       21 0.64830358E-02 0.30000000E+03</pdfrwt>
<pdfrwt beam="2">0</pdfrwt>
<totfact> 0.18433254E+04</totfact>
</mgrwt>
</event>
<event>
 6    1  0.1284012E-001  0.3000000E+03  0.7818608E-02  0.1093470E+00
         21   -1    0    0  501  502  0.00000000000E+00  0.00000000000E+00  0.16944384481E+01  0.16944384481E+01  0.00000000000E+00 0. -1.
         13   -1    0    0    0    0 -0.00000000000E+00 -0.00000000000E+00 -0.10000000000E+04  0.10000000000E+04  0.00000000000E+00 0.  1.
    9000005    2    1    2  501    0 -0.37672135944E+02 -0.15372127962E+02 -0.52883681816E+03  0.53046583876E+03  0.83745866784E+01 0.  0.
         13    1    3    3    0    0 -0.17178137175E+02 -0.80959560498E+01 -0.19542515136E+03  0.19634567142E+03  0.00000000000E+00 0.  1.
          3    1    3    3  501    0 -0.20493998769E+02 -0.72761719122E+01 -0.33341166680E+03  0.33412016734E+03  0.00000000000E+00 0.  1.
         -1    1    1    2    0  502  0.37672135944E+02  0.15372127962E+02 -0.46946874339E+03  0.47122859969E+03  0.00000000000E+00 0. -1.
<mgrwt>
<rscale>  1 0.30000000E+03</rscale>
<asrwt>0</asrwt>
<pdfrwt beam="1">  1       21 0.61616073E-02 0.30000000E+03</pdfrwt>
<pdfrwt beam="2">0</pdfrwt>
<totfact> 0.20127079E+04</totfact>
</mgrwt>
</event>
<event>
 6    1  0.1284012E-001  0.3000000E+03  0.7818608E-02  0.1093470E+00
         21   -1    0    0  501  502  0.00000000000E+00  0.00000000000E+00  0.11045031274E+01  0.11045031274E+01  0.00000000000E+00 0. -1.
         13   -1    0    0    0    0 -0.00000000000E+00 -0.00000000000E+00 -0.10000000000E+04  0.10000000000E+04  0.00000000000E+00 0.  1.
    9000005    2    1    2  501    0  0.19728581000E+02  0.24765716208E+02 -0.64981366971E+03  0.65058962518E+03  0.25490080155E+01 0.  0.
         13    1    3    3    0    0  0.13007284732E+02  0.14592389663E+02 -0.38767073638E+03  0.38816327381E+03  0.00000000000E+00 0.  1.
          1    1    3    3  501    0  0.67212962673E+01  0.10173326545E+02 -0.26214293333E+03  0.26242635136E+03  0.00000000000E+00 0.  1.
         -1    1    1    2    0  502 -0.19728581000E+02 -0.24765716208E+02 -0.34908182716E+03  0.35051487795E+03  0.00000000000E+00 0. -1.
<mgrwt>
<rscale>  1 0.30000000E+03</rscale>
<asrwt>0</asrwt>
<pdfrwt beam="1">  1       21 0.40163835E-02 0.30000000E+03</pdfrwt>
<pdfrwt beam="2">0</pdfrwt>
<totfact> 0.41758855E+04</totfact>
</mgrwt>
</event>
<event>
 6    1  0.1284012E-001  0.3000000E+03  0.7818608E-02  0.1093470E+00
         21   -1    0    0  501  502  0.00000000000E+00  0.00000000000E+00  0.12207194761E+01  0.12207194761E+01  0.00000000000E+00 0. -1.
         13   -1    0    0    0    0 -0.00000000000E+00 -0.00000000000E+00 -0.10000000000E+04  0.10000000000E+04  0.00000000000E+00 0.  1.
    9000005    2    1    2  501    0  0.26930581339E+02  0.20017418487E+02 -0.63594672516E+03  0.63683985213E+03  0.32873649470E+01 0.  0.
         13    1    3    3    0    0  0.24234475386E+02  0.16999455459E+02 -0.54544013370E+03  0.54624283128E+03  0.00000000000E+00 0.  1.
          1    1    3    3  501    0  0.26961059534E+01  0.30179630287E+01 -0.90506591462E+02  0.90597020846E+02  0.00000000000E+00 0.  1.
         -3    1    1    2    0  502 -0.26930581339E+02 -0.20017418487E+02 -0.36283255537E+03  0.36438086735E+03  0.00000000000E+00 0. -1.
<mgrwt>
<rscale>  1 0.30000000E+03</rscale>
<asrwt>0</asrwt>
<pdfrwt beam="1">  1       21 0.44389893E-02 0.30000000E+03</pdfrwt>
<pdfrwt beam="2">0</pdfrwt>
<totfact> 0.35265250E+04</totfact>
</mgrwt>
</event>
<event>
 6    1  0.1284012E-001  0.3000000E+03  0.7818608E-02  0.1093470E+00
         21   -1    0    0  501  502  0.00000000000E+00  0.00000000000E+00  0.31851854608E+01  0.31851854608E+01  0.00000000000E+00 0. -1.
         13   -1    0    0    0    0 -0.00000000000E+00 -0.00000000000E+00 -0.10000000000E+04  0.10000000000E+04  0.00000000000E+00 0.  1.
    9000005    2    1    2  501    0  0.40442421737E+02  0.24127676940E+02 -0.77446095288E+03  0.77589907927E+03  0.34466524642E+01 0.  0.
         13    1    3    3    0    0  0.71756984474E+01  0.33266378110E+01 -0.11441026805E+03  0.11468333184E+03  0.00000000000E+00 0.  1.
          3    1    3    3  501    0  0.33266723289E+02  0.20801039129E+02 -0.66005068483E+03  0.66121574743E+03  0.00000000000E+00 0.  1.
         -1    1    1    2    0  502 -0.40442421737E+02 -0.24127676940E+02 -0.22235386166E+03  0.22728610619E+03  0.00000000000E+00 0. -1.
<mgrwt>
<rscale>  1 0.30000000E+03</rscale>
<asrwt>0</asrwt>
<pdfrwt beam="1">  1       21 0.11582517E-01 0.30000000E+03</pdfrwt>
<pdfrwt beam="2">0</pdfrwt>
<totfact> 0.66076207E+03</totfact>
</mgrwt>
</event>
<event>
 6    1  0.1284012E-001  0.3000000E+03  0.7818608E-02  0.1093470E+00
         21   -1    0    0  501  502  0.00000000000E+00  0.00000000000E+00  0.85755505511E+01  0.85755505511E+01  0.00000000000E+00 0. -1.
         13   -1    0    0    0    0 -0.00000000000E+00 -0.00000000000E+00 -0.10000000000E+04  0.10000000000E+04  0.00000000000E+00 0.  1.
    9000005    2    1    2  501    0 -0.70332464119E+01  0.35512027975E+02 -0.95985218962E+03  0.96054037306E+03  0.33183839671E+01 0.  0.
         13    1    3    3    0    0 -0.50201991535E+01  0.30407597790E+02 -0.79634734366E+03  0.79694348367E+03  0.00000000000E+00 0.  1.
          1    1    3    3  501    0 -0.20130472584E+01  0.51044301848E+01 -0.16350484596E+03  0.16359688939E+03  0.00000000000E+00 0.  1.
         -3    1    1    2    0  502  0.70332464119E+01 -0.35512027975E+02 -0.31572259829E+02  0.48035177492E+02  0.00000000000E+00 0. -1.
<mgrwt>
<rscale>  1 0.30000000E+03</rscale>
<asrwt>0</asrwt>
<pdfrwt beam="1">  1       21 0.31183886E-01 0.30000000E+03</pdfrwt>
<pdfrwt beam="2">0</pdfrwt>
<totfact> 0.10060444E+03</totfact>
</mgrwt>
</event>
<event>
 6    1  0.1284012E-001  0.3000000E+03  0.7818608E-02  0.1093470E+00
         21   -1    0    0  501  502  0.00000000000E+00  0.00000000000E+00  0.23176378266E+01  0.23176378266E+01  0.00000000000E+00 0. -1.
         13   -1    0    0    0    0 -0.00000000000E+00 -0.00000000000E+00 -0.10000000000E+04  0.10000000000E+04  0.00000000000E+00 0.  1.
    9000005    2    1    2  501    0  0.34591607575E+02  0.18225253770E+02 -0.79084769070E+03  0.79181984564E+03  0.31398858332E+01 0.  0.
         13    1    3    3    0    0  0.97194863534E+01  0.43956065507E+01 -0.19143293565E+03  0.19172991061E+03  0.00000000000E+00 0.  1.
          1    1    3    3  501    0  0.24872121222E+02  0.13829647219E+02 -0.59941475505E+03  0.60008993503E+03  0.00000000000E+00 0.  1.
         -3    1    1    2    0  502 -0.34591607575E+02 -0.18225253770E+02 -0.20683467148E+03  0.21049779219E+03  0.00000000000E+00 0. -1.
<mgrwt>
<rscale>  1 0.30000000E+03</rscale>
<asrwt>0</asrwt>
<pdfrwt beam="1">  1       21 0.84277917E-02 0.30000000E+03</pdfrwt>
<pdfrwt beam="2">0</pdfrwt>
<totfact> 0.11655237E+04</totfact>
</mgrwt>
</event>
<event>
 6    1  0.1284012E-001  0.3000000E+03  0.7818608E-02  0.1093470E+00
         21   -1    0    0  501  502  0.00000000000E+00  0.00000000000E+00  0.17882532572E+01  0.17882532572E+01  0.00000000000E+00 0. -1.
         13   -1    0    0    0    0 -0.00000000000E+00 -0.00000000000E+00 -0.10000000000E+04  0.10000000000E+04  0.00000000000E+00 0.  1.
    9000005    2    1    2  501    0 -0.31954341186E+02 -0.27580411064E+02 -0.50916900982E+03  0.51092721637E+03  0.34323277023E+01 0.  0.
         13    1    3    3    0    0 -0.65423694995E+00 -0.56615944897E+00 -0.18124082699E+02  0.18144721992E+02  0.00000000000E+00 0.  1.
          3    1    3    3  501    0 -0.31300104236E+02 -0.27014251615E+02 -0.49104492712E+03  0.49278249438E+03  0.00000000000E+00 0.  1.
         -3    1    1    2    0  502  0.31954341186E+02  0.27580411064E+02 -0.48904273692E+03  0.49086103689E+03  0.00000000000E+00 0. -1.
<mgrwt>
<rscale>  1 0.30000000E+03</rscale>
<asrwt>0</asrwt>
<pdfrwt beam="1">  1       21 0.65027528E-02 0.30000000E+03</pdfrwt>
<pdfrwt beam="2">0</pdfrwt>
<totfact> 0.18336597E+04</totfact>
</mgrwt>
</event>
<event>
 6    1  0.1284012E-001  0.3000000E+03  0.7818608E-02  0.1093470E+00
         21   -1    0    0  501  502  0.00000000000E+00  0.00000000000E+00  0.30875822001E+01  0.30875822001E+01  0.00000000000E+00 0. -1.
         13   -1    0    0    0    0 -0.00000000000E+00 -0.00000000000E+00 -0.10000000000E+04  0.10000000000E+04  0.00000000000E+00 0.  1.
    9000005    2    1    2  501    0 -0.24385464628E+02  0.47462425066E+02 -0.63730279736E+03  0.63954059515E+03  0.31598492353E+01 0.  0.
         13    1    3    3    0    0 -0.86297709705E+01  0.14733749720E+02 -0.21757832726E+03  0.21824730198E+03  0.00000000000E+00 0.  1.
          1    1    3    3  501    0 -0.15755693657E+02  0.32728675346E+02 -0.41972447010E+03  0.42129329318E+03  0.00000000000E+00 0.  1.
         -1    1    1    2    0  502  0.24385464628E+02 -0.47462425066E+02 -0.35960962044E+03  0.36354698705E+03  0.00000000000E+00 0. -1.
<mgrwt>
<rscale>  1 0.30000000E+03</rscale>
<asrwt>0</asrwt>
<pdfrwt beam="1">  1       21 0.11227595E-01 0.30000000E+03</pdfrwt>
<pdfrwt beam="2">0</pdfrwt>
<totfact> 0.69894527E+03</totfact>
</mgrwt>
</event>
<event>
 6    1  0.1284012E-001  0.3000000E+03  0.7818608E-02  0.1093470E+00
         21   -1    0    0  501  502  0.00000000000E+00  0.00000000000E+00  0.37489629869E+01  0.37489629869E+01  0.00000000000E+00 0. -1.
         13   -1    0    0    0    0 -0.00000000000E+00 -0.00000000000E+00 -0.10000000000E+04  0.10000000000E+04  0.00000000000E+00 0.  1.
    9000005    2    1    2  501    0 -0.49169887745E+02  0.54678118135E+01 -0.79340745037E+03  0.79495936681E+03  0.41758543242E+01 0.  0.
         13    1    3    3    0    0 -0.34070020025E+02  0.33277790337E+01 -0.51785445939E+03  0.51898466402E+03  0.00000000000E+00 0.  1.
          1    1    3    3  501    0 -0.15099867720E+02  0.21400327798E+01 -0.27555299098E+03  0.27597470279E+03  0.00000000000E+00 0.  1.
         -3    1    1    2    0  502  0.49169887745E+02 -0.54678118135E+01 -0.20284358665E+03  0.20878959617E+03  0.00000000000E+00 0. -1.
<mgrwt>
<rscale>  1 0.30000000E+03</rscale>
<asrwt>0</asrwt>
<pdfrwt beam="1">  1       21 0.13632621E-01 0.30000000E+03</pdfrwt>
<pdfrwt beam="2">0</pdfrwt>
<totfact> 0.49105540E+03</totfact>
</mgrwt>
</event>
<event>
 6    1  0.1284012E-001  0.3000000E+03  0.7818608E-02  0.1093470E+00
         21   -1    0    0  501  502  0.00000000000E+00  0.00000000000E+00  0.60438683860E+01  0.60438683860E+01  0.00000000000E+00 0. -1.
         13   -1    0    0    0    0 -0.00000000000E+00 -0.00000000000E+00 -0.10000000000E+04  0.10000000000E+04  0.00000000000E+00 0.  1.
    9000005    2    1    2  501    0 -0.12630784507E+02 -0.73868170475E+02 -0.62974726784E+03  0.63420500573E+03  0.42807265502E+01 0.  0.
         13    1    3    3    0    0 -0.12157207600E+02 -0.71070704311E+02 -0.59798993897E+03  0.60232118493E+03  0.00000000000E+00 0.  1.
          1    1    3    3  501    0 -0.47357690713E+00 -0.27974661644E+01 -0.31757328869E+02  0.31883820802E+02  0.00000000000E+00 0.  1.
         -1    1    1    2    0  502  0.12630784507E+02  0.73868170475E+02 -0.36420886378E+03  0.37183886266E+03  0.00000000000E+00 0. -1.
<mgrwt>
<rscale>  1 0.30000000E+03</rscale>
<asrwt>0</asrwt>
<pdfrwt beam="1">  1       21 0.21977750E-01 0.30000000E+03</pdfrwt>
<pdfrwt beam="2">0</pdfrwt>
<totfact> 0.20024906E+03</totfact>
</mgrwt>
</event>
<event>
 6    1  0.1284012E-001  0.3000000E+03  0.7818608E-02  0.1093470E+00
         21   -1    0    0  501  502  0.00000000000E+00  0.00000000000E+00  0.10218061568E+01  0.10218061568E+01  0.00000000000E+00 0. -1.
         13   -1    0    0    0    0 -0.00000000000E+00 -0.00000000000E+00 -0.10000000000E+04  0.10000000000E+04  0.00000000000E+00 0.  1.
    9000005    2    1    2  501    0  0.29746580029E+02  0.10939779552E+02 -0.49977354984E+03  0.50081203577E+03  0.58784562929E+01 0.  0.
         13    1    3    3    0    0  0.11597760095E+02  0.12959555243E+01 -0.17420402674E+03  0.17459447435E+03  0.00000000000E+00 0.  1.
          1    1    3    3  501    0  0.18148819933E+02  0.96438240275E+01 -0.32556952310E+03  0.32621756142E+03  0.00000000000E+00 0.  1.
         -3    1    1    2    0  502 -0.29746580029E+02 -0.10939779552E+02 -0.49920464400E+03  0.50020977039E+03  0.00000000000E+00 0. -1.
<mgrwt>
<rscale>  1 0.30000000E+03</rscale>
<asrwt>0</asrwt>
<pdfrwt beam="1">  1       21 0.37156666E-02 0.30000000E+03</pdfrwt>
<pdfrwt beam="2">0</pdfrwt>
<totfact> 0.47596660E+04</totfact>
</mgrwt>
</event>
<event>
 6    1  0.1284012E-001  0.3000000E+03  0.7818608E-02  0.1093470E+00
         21   -1    0    0  501  502  0.00000000000E+00  0.00000000000E+00  0.25924351552E+01  0.25924351552E+01  0.00000000000E+00 0. -1.
         13   -1    0    0    0    0 -0.00000000000E+00 -0.00000000000E+00 -0.10000000000E+04  0.10000000000E+04  0.00000000000E+00 0.  1.
    9000005    2    1    2  501    0  0.48796123956E+02 -0.11688891732E+02 -0.57893625367E+03  0.58112365793E+03  0.44528737169E+01 0.  0.
         13    1    3    3    0    0  0.31922236737E+02 -0.69738099469E+01 -0.35294444411E+03  0.35445372597E+03  0.00000000000E+00 0.  1.
          1    1    3    3  501    0  0.16873887220E+02 -0.47150817848E+01 -0.22599180956E+03  0.22666993196E+03  0.00000000000E+00 0.  1.
         -1    1    1    2    0  502 -0.48796123956E+02  0.11688891732E+02 -0.41847131117E+03  0.42146877723E+03  0.00000000000E+00 0. -1.
<mgrwt>
<rscale>  1 0.30000000E+03</rscale>
<asrwt>0</asrwt>
<pdfrwt beam="1">  1       21 0.94270568E-02 0.30000000E+03</pdfrwt>
<pdfrwt beam="2">0</pdfrwt>
<totfact> 0.95580081E+03</totfact>
</mgrwt>
</event>
<event>
 6    1  0.1284012E-001  0.3000000E+03  0.7818608E-02  0.1093470E+00
         21   -1    0    0  501  502  0.00000000000E+00  0.00000000000E+00  0.15800690581E+01  0.15800690581E+01  0.00000000000E+00 0. -1.
         13   -1    0    0    0    0 -0.00000000000E+00 -0.00000000000E+00 -0.10000000000E+04  0.10000000000E+04  0.00000000000E+00 0.  1.
    9000005    2    1    2  501    0  0.33157227020E+02 -0.13930102669E+02 -0.30718499921E+03  0.30941016195E+03  0.88642603902E+01 0.  0.
         13    1    3    3    0    0  0.36659525287E+01  0.12478104354E+01 -0.32626448163E+02  0.32855461625E+02  0.00000000000E+00 0.  1.
          3    1    3    3  501    0  0.29491274492E+02 -0.15177913105E+02 -0.27455855105E+03  0.27655470032E+03  0.00000000000E+00 0.  1.
         -1    1    1    2    0  502 -0.33157227020E+02  0.13930102669E+02 -0.69123493173E+03  0.69216990711E+03  0.00000000000E+00 0. -1.
<mgrwt>
<rscale>  1 0.30000000E+03</rscale>
<asrwt>0</asrwt>
<pdfrwt beam="1">  1       21 0.57457178E-02 0.30000000E+03</pdfrwt>
<pdfrwt beam="2">0</pdfrwt>
<totfact> 0.22704119E+04</totfact>
</mgrwt>
</event>
<event>
 6    1  0.1284012E-001  0.3000000E+03  0.7818608E-02  0.1093470E+00
         21   -1    0    0  501  502  0.00000000000E+00  0.00000000000E+00  0.15856539582E+01  0.15856539582E+01  0.00000000000E+00 0. -1.
         13   -1    0    0    0    0 -0.00000000000E+00 -0.00000000000E+00 -0.10000000000E+04  0.10000000000E+04  0.00000000000E+00 0.  1.
    9000005    2    1    2  501    0 -0.33463496735E+02  0.10567069976E+02 -0.73496462938E+03  0.73580901505E+03  0.32297992894E+01 0.  0.
         13    1    3    3    0    0 -0.52256725455E+01  0.60138031427E+00 -0.98526461572E+02  0.98666777295E+02  0.00000000000E+00 0.  1.
          3    1    3    3  501    0 -0.28237824190E+02  0.99656896618E+01 -0.63643816781E+03  0.63714223775E+03  0.00000000000E+00 0.  1.
         -1    1    1    2    0  502  0.33463496735E+02 -0.10567069976E+02 -0.26344971666E+03  0.26577663891E+03  0.00000000000E+00 0. -1.
<mgrwt>
<rscale>  1 0.30000000E+03</rscale>
<asrwt>0</asrwt>
<pdfrwt beam="1">  1       21 0.57660266E-02 0.30000000E+03</pdfrwt>
<pdfrwt beam="2">0</pdfrwt>
<totfact> 0.22566672E+04</totfact>
</mgrwt>
</event>
<event>
 6    1  0.1284012E-001  0.3000000E+03  0.7818608E-02  0.1093470E+00
         21   -1    0    0  501  502  0.00000000000E+00  0.00000000000E+00  0.12483947362E+01  0.12483947362E+01  0.00000000000E+00 0. -1.
         13   -1    0    0    0    0 -0.00000000000E+00 -0.00000000000E+00 -0.10000000000E+04  0.10000000000E+04  0.00000000000E+00 0.  1.
    9000005    2    1    2  501    0  0.24624002531E+02 -0.20172374996E+02 -0.71513166174E+03  0.71584773149E+03  0.33785871203E+01 0.  0.
         13    1    3    3    0    0  0.23287399673E+02 -0.19809521909E+02 -0.69148043854E+03  0.69215599183E+03  0.00000000000E+00 0.  1.
          3    1    3    3  501    0  0.13366028582E+01 -0.36285308706E+00 -0.23651223196E+02  0.23691739662E+02  0.00000000000E+00 0.  1.
         -3    1    1    2    0  502 -0.24624002531E+02  0.20172374996E+02 -0.28361994353E+03  0.28540066324E+03  0.00000000000E+00 0. -1.
<mgrwt>
<rscale>  1 0.30000000E+03</rscale>
<asrwt>0</asrwt>
<pdfrwt beam="1">  1       21 0.45396268E-02 0.30000000E+03</pdfrwt>
<pdfrwt beam="2">0</pdfrwt>
<totfact> 0.33949154E+04</totfact>
</mgrwt>
</event>
<event>
 6    1  0.1284012E-001  0.3000000E+03  0.7818608E-02  0.1093470E+00
         21   -1    0    0  501  502  0.00000000000E+00  0.00000000000E+00  0.15513712864E+01  0.15513712864E+01  0.00000000000E+00 0. -1.
         13   -1    0    0    0    0 -0.00000000000E+00 -0.00000000000E+00 -0.10000000000E+04  0.10000000000E+04  0.00000000000E+00 0.  1.
    9000005    2    1    2  501    0  0.21444029333E+01 -0.36846335386E+02 -0.33070225649E+03  0.33278574081E+03  0.44850797476E+01 0.  0.
         13    1    3    3    0    0  0.33009586140E+01 -0.25204380354E+02 -0.23514654836E+03  0.23651650328E+03  0.00000000000E+00 0.  1.
          3    1    3    3  501    0 -0.11565556808E+01 -0.11641955032E+02 -0.95555708135E+02  0.96269237533E+02  0.00000000000E+00 0.  1.
         -3    1    1    2    0  502 -0.21444029333E+01  0.36846335386E+02 -0.66774637222E+03  0.66876563048E+03  0.00000000000E+00 0. -1.
<mgrwt>
<rscale>  1 0.30000000E+03</rscale>
<asrwt>0</asrwt>
<pdfrwt beam="1">  1       21 0.56413620E-02 0.30000000E+03</pdfrwt>
<pdfrwt beam="2">0</pdfrwt>
<totfact> 0.23431030E+04</totfact>
</mgrwt>
</event>
<event>
 6    1  0.1284012E-001  0.3000000E+03  0.7818608E-02  0.1093470E+00
         21   -1    0    0  501  502  0.00000000000E+00  0.00000000000E+00  0.43489919139E+01  0.43489919139E+01  0.00000000000E+00 0. -1.
         13   -1    0    0    0    0 -0.00000000000E+00 -0.00000000000E+00 -0.10000000000E+04  0.10000000000E+04  0.00000000000E+00 0.  1.
    9000005    2    1    2  501    0  0.60097879845E+02 -0.26443456405E+02 -0.54149310020E+03  0.54546946868E+03  0.33394832599E+01 0.  0.
         13    1    3    3    0    0  0.58611723499E+02 -0.25872112361E+02 -0.53197829077E+03  0.53582236065E+03  0.00000000000E+00 0.  1.
          1    1    3    3  501    0  0.14861563467E+01 -0.57134404401E+00 -0.95148094358E+01  0.96471080280E+01  0.00000000000E+00 0.  1.
         -1    1    1    2    0  502 -0.60097879845E+02  0.26443456405E+02 -0.45415790788E+03  0.45887952323E+03  0.00000000000E+00 0. -1.
<mgrwt>
<rscale>  1 0.30000000E+03</rscale>
<asrwt>0</asrwt>
<pdfrwt beam="1">  1       21 0.15814549E-01 0.30000000E+03</pdfrwt>
<pdfrwt beam="2">0</pdfrwt>
<totfact> 0.37328725E+03</totfact>
</mgrwt>
</event>
<event>
 6    1  0.1284012E-001  0.3000000E+03  0.7818608E-02  0.1093470E+00
         21   -1    0    0  501  502  0.00000000000E+00  0.00000000000E+00  0.42349541335E+01  0.42349541335E+01  0.00000000000E+00 0. -1.
         13   -1    0    0    0    0 -0.00000000000E+00 -0.00000000000E+00 -0.10000000000E+04  0.10000000000E+04  0.00000000000E+00 0.  1.
    9000005    2    1    2  501    0 -0.27683741905E+02 -0.55223110950E+02 -0.65069247906E+03  0.65367674511E+03  0.87523281599E+01 0.  0.
         13    1    3    3    0    0 -0.19678882919E+02 -0.33908762696E+02 -0.44689192772E+03  0.44860835668E+03  0.00000000000E+00 0.  1.
          3    1    3    3  501    0 -0.80048589861E+01 -0.21314348253E+02 -0.20380055134E+03  0.20506838843E+03  0.00000000000E+00 0.  1.
         -3    1    1    2    0  502  0.27683741905E+02  0.55223110950E+02 -0.34507256681E+03  0.35055820902E+03  0.00000000000E+00 0. -1.
<mgrwt>
<rscale>  1 0.30000000E+03</rscale>
<asrwt>0</asrwt>
<pdfrwt beam="1">  1       21 0.15399866E-01 0.30000000E+03</pdfrwt>
<pdfrwt beam="2">0</pdfrwt>
<totfact> 0.39220048E+03</totfact>
</mgrwt>
</event>
<event>
 6    1  0.1284012E-001  0.3000000E+03  0.7818608E-02  0.1093470E+00
         21   -1    0    0  501  502  0.00000000000E+00  0.00000000000E+00  0.83763575439E+01  0.83763575439E+01  0.00000000000E+00 0. -1.
         13   -1    0    0    0    0 -0.00000000000E+00 -0.00000000000E+00 -0.10000000000E+04  0.10000000000E+04  0.00000000000E+00 0.  1.
    9000005    2    1    2  501    0  0.86885409460E+02  0.14613462751E+01 -0.33890898452E+03  0.34990264160E+03  0.46204867128E+01 0.  0.
         13    1    3    3    0    0  0.84131983363E+01  0.38268181551E+00 -0.38641645942E+02  0.39548769295E+02  0.00000000000E+00 0.  1.
          1    1    3    3  501    0  0.78472211123E+02  0.10786644596E+01 -0.30026733858E+03  0.31035387230E+03  0.00000000000E+00 0.  1.
         -1    1    1    2    0  502 -0.86885409460E+02 -0.14613462751E+01 -0.65271465794E+03  0.65847371595E+03  0.00000000000E+00 0. -1.
<mgrwt>
<rscale>  1 0.30000000E+03</rscale>
<asrwt>0</asrwt>
<pdfrwt beam="1">  1       21 0.30459546E-01 0.30000000E+03</pdfrwt>
<pdfrwt beam="2">0</pdfrwt>
<totfact> 0.10546760E+03</totfact>
</mgrwt>
</event>
<event>
 6    1  0.1284012E-001  0.3000000E+03  0.7818608E-02  0.1093470E+00
         21   -1    0    0  501  502  0.00000000000E+00  0.00000000000E+00  0.13904473469E+01  0.13904473469E+01  0.00000000000E+00 0. -1.
         13   -1    0    0    0    0 -0.00000000000E+00 -0.00000000000E+00 -0.10000000000E+04  0.10000000000E+04  0.00000000000E+00 0.  1.
    9000005    2    1    2  501    0  0.36088888403E+02  0.57184465939E+01 -0.50222122699E+03  0.50365911586E+03  0.10546830957E+02 0.  0.
         13    1    3    3    0    0  0.32962191421E+02  0.39338117715E+01 -0.48015235335E+03  0.48129851793E+03  0.00000000000E+00 0.  1.
          1    1    3    3  501    0  0.31266969822E+01  0.17846348224E+01 -0.22068873644E+02  0.22360597921E+02  0.00000000000E+00 0.  1.
         -3    1    1    2    0  502 -0.36088888403E+02 -0.57184465939E+01 -0.49638832566E+03  0.49773133149E+03  0.00000000000E+00 0. -1.
<mgrwt>
<rscale>  1 0.30000000E+03</rscale>
<asrwt>0</asrwt>
<pdfrwt beam="1">  1       21 0.50561828E-02 0.30000000E+03</pdfrwt>
<pdfrwt beam="2">0</pdfrwt>
<totfact> 0.28261014E+04</totfact>
</mgrwt>
</event>
<event>
 6    1  0.1284012E-001  0.3000000E+03  0.7818608E-02  0.1093470E+00
         21   -1    0    0  501  502  0.00000000000E+00  0.00000000000E+00  0.99395820514E+00  0.99395820514E+00  0.00000000000E+00 0. -1.
         13   -1    0    0    0    0 -0.00000000000E+00 -0.00000000000E+00 -0.10000000000E+04  0.10000000000E+04  0.00000000000E+00 0.  1.
    9000005    2    1    2  501    0 -0.30968823681E+02 -0.10484615975E+01 -0.58396950977E+03  0.58480230737E+03  0.36308468942E+01 0.  0.
         13    1    3    3    0    0 -0.65648490461E+01 -0.28909350918E+00 -0.15399647203E+03  0.15413660895E+03  0.00000000000E+00 0.  1.
          1    1    3    3  501    0 -0.24403974635E+02 -0.75936808832E+00 -0.42997303773E+03  0.43066569842E+03  0.00000000000E+00 0.  1.
         -3    1    1    2    0  502  0.30968823681E+02  0.10484615975E+01 -0.41503653203E+03  0.41619165084E+03  0.00000000000E+00 0. -1.
<mgrwt>
<rscale>  1 0.30000000E+03</rscale>
<asrwt>0</asrwt>
<pdfrwt beam="1">  1       21 0.36144011E-02 0.30000000E+03</pdfrwt>
<pdfrwt beam="2">0</pdfrwt>
<totfact> 0.49855392E+04</totfact>
</mgrwt>
</event>
<event>
 6    1  0.1284012E-001  0.3000000E+03  0.7818608E-02  0.1093470E+00
         21   -1    0    0  501  502  0.00000000000E+00  0.00000000000E+00  0.53521099580E+01  0.53521099580E+01  0.00000000000E+00 0. -1.
         13   -1    0    0    0    0 -0.00000000000E+00 -0.00000000000E+00 -0.10000000000E+04  0.10000000000E+04  0.00000000000E+00 0.  1.
    9000005    2    1    2  501    0  0.81423311811E+01  0.65158318054E+02 -0.71864380942E+03  0.72164423822E+03  0.30947961325E+01 0.  0.
         13    1    3    3    0    0  0.21191451318E+01  0.84961619971E+01 -0.95235923025E+02  0.95637631606E+02  0.00000000000E+00 0.  1.
          3    1    3    3  501    0  0.60231860493E+01  0.56662156057E+02 -0.62340788640E+03  0.62600660661E+03  0.00000000000E+00 0.  1.
         -1    1    1    2    0  502 -0.81423311811E+01 -0.65158318054E+02 -0.27600408062E+03  0.28370787174E+03  0.00000000000E+00 0. -1.
<mgrwt>
<rscale>  1 0.30000000E+03</rscale>
<asrwt>0</asrwt>
<pdfrwt beam="1">  1       21 0.19462259E-01 0.30000000E+03</pdfrwt>
<pdfrwt beam="2">0</pdfrwt>
<totfact> 0.25270954E+03</totfact>
</mgrwt>
</event>
<event>
 6    1  0.1284012E-001  0.3000000E+03  0.7818608E-02  0.1093470E+00
         21   -1    0    0  501  502  0.00000000000E+00  0.00000000000E+00  0.93259961565E+00  0.93259961565E+00  0.00000000000E+00 0. -1.
         13   -1    0    0    0    0 -0.00000000000E+00 -0.00000000000E+00 -0.10000000000E+04  0.10000000000E+04  0.00000000000E+00 0.  1.
    9000005    2    1    2  501    0  0.10341691167E+01  0.30101572999E+02 -0.57569846722E+03  0.57649364314E+03  0.30035349373E+01 0.  0.
         13    1    3    3    0    0  0.11346202381E+01  0.90112987033E+01 -0.15298615072E+03  0.15325551598E+03  0.00000000000E+00 0.  1.
          3    1    3    3  501    0 -0.10045112144E+00  0.21090274296E+02 -0.42271231650E+03  0.42323812716E+03  0.00000000000E+00 0.  1.
         -3    1    1    2    0  502 -0.10341691167E+01 -0.30101572999E+02 -0.42336893317E+03  0.42443895647E+03  0.00000000000E+00 0. -1.
<mgrwt>
<rscale>  1 0.30000000E+03</rscale>
<asrwt>0</asrwt>
<pdfrwt beam="1">  1       21 0.33912785E-02 0.30000000E+03</pdfrwt>
<pdfrwt beam="2">0</pdfrwt>
<totfact> 0.55468570E+04</totfact>
</mgrwt>
</event>
<event>
 6    1  0.1284012E-001  0.3000000E+03  0.7818608E-02  0.1093470E+00
         21   -1    0    0  501  502  0.00000000000E+00  0.00000000000E+00  0.29291520352E+01  0.29291520352E+01  0.00000000000E+00 0. -1.
         13   -1    0    0    0    0 -0.00000000000E+00 -0.00000000000E+00 -0.10000000000E+04  0.10000000000E+04  0.00000000000E+00 0.  1.
    9000005    2    1    2  501    0  0.36959418747E+02  0.26375997063E+02 -0.77050937908E+03  0.77186251438E+03  0.50344806653E+01 0.  0.
         13    1    3    3    0    0  0.28516588420E+02  0.22815445040E+02 -0.61777412764E+03  0.61885265865E+03  0.00000000000E+00 0.  1.
          1    1    3    3  501    0  0.84428303272E+01  0.35605520230E+01 -0.15273525145E+03  0.15300985572E+03  0.00000000000E+00 0.  1.
         -3    1    1    2    0  502 -0.36959418747E+02 -0.26375997063E+02 -0.22656146888E+03  0.23106663766E+03  0.00000000000E+00 0. -1.
<mgrwt>
<rscale>  1 0.30000000E+03</rscale>
<asrwt>0</asrwt>
<pdfrwt beam="1">  1       21 0.10651484E-01 0.30000000E+03</pdfrwt>
<pdfrwt beam="2">0</pdfrwt>
<totfact> 0.76839104E+03</totfact>
</mgrwt>
</event>
<event>
 6    1  0.1284012E-001  0.3000000E+03  0.7818608E-02  0.1093470E+00
         21   -1    0    0  501  502  0.00000000000E+00  0.00000000000E+00  0.16382655839E+01  0.16382655839E+01  0.00000000000E+00 0. -1.
         13   -1    0    0    0    0 -0.00000000000E+00 -0.00000000000E+00 -0.10000000000E+04  0.10000000000E+04  0.00000000000E+00 0.  1.
    9000005    2    1    2  501    0 -0.24712701903E+02  0.24404905826E+02 -0.75549786421E+03  0.75630344026E+03  0.33990975637E+01 0.  0.
         13    1    3    3    0    0 -0.23965095359E+02  0.22843484805E+02 -0.70721962477E+03  0.70799417247E+03  0.00000000000E+00 0.  1.
          3    1    3    3  501    0 -0.74760654388E+00  0.15614210212E+01 -0.48278239439E+02  0.48309267791E+02  0.00000000000E+00 0.  1.
         -1    1    1    2    0  502  0.24712701903E+02 -0.24404905826E+02 -0.24286387021E+03  0.24533482532E+03  0.00000000000E+00 0. -1.
<mgrwt>
<rscale>  1 0.30000000E+03</rscale>
<asrwt>0</asrwt>
<pdfrwt beam="1">  1       21 0.59573420E-02 0.30000000E+03</pdfrwt>
<pdfrwt beam="2">0</pdfrwt>
<totfact> 0.21332527E+04</totfact>
</mgrwt>
</event>
<event>
 6    1  0.1284012E-001  0.3000000E+03  0.7818608E-02  0.1093470E+00
         21   -1    0    0  501  502  0.00000000000E+00  0.00000000000E+00  0.27272863183E+01  0.27272863183E+01  0.00000000000E+00 0. -1.
         13   -1    0    0    0    0 -0.00000000000E+00 -0.00000000000E+00 -0.10000000000E+04  0.10000000000E+04  0.00000000000E+00 0.  1.
    9000005    2    1    2  501    0 -0.16621375894E+02 -0.25600945169E+02 -0.90533673437E+03  0.90585673960E+03  0.31861485150E+01 0.  0.
         13    1    3    3    0    0 -0.47524150316E+01 -0.77554150491E+01 -0.22918058694E+03  0.22936101094E+03  0.00000000000E+00 0.  1.
          3    1    3    3  501    0 -0.11868960862E+02 -0.17845530120E+02 -0.67615614744E+03  0.67649572866E+03  0.00000000000E+00 0.  1.
         -3    1    1    2    0  502  0.16621375894E+02  0.25600945169E+02 -0.91935979307E+02  0.96870546718E+02  0.00000000000E+00 0. -1.
<mgrwt>
<rscale>  1 0.30000000E+03</rscale>
<asrwt>0</asrwt>
<pdfrwt beam="1">  1       21 0.99174257E-02 0.30000000E+03</pdfrwt>
<pdfrwt beam="2">0</pdfrwt>
<totfact> 0.87315794E+03</totfact>
</mgrwt>
</event>
<event>
 6    1  0.1284012E-001  0.3000000E+03  0.7818608E-02  0.1093470E+00
         21   -1    0    0  501  502  0.00000000000E+00  0.00000000000E+00  0.70183250924E+01  0.70183250924E+01  0.00000000000E+00 0. -1.
         13   -1    0    0    0    0 -0.00000000000E+00 -0.00000000000E+00 -0.10000000000E+04  0.10000000000E+04  0.00000000000E+00 0.  1.
    9000005    2    1    2  501    0  0.28064977935E+02  0.24280847781E+02 -0.94788226009E+03  0.94861319028E+03  0.30005374748E+01 0.  0.
         13    1    3    3    0    0  0.18988536121E+02  0.15046764981E+02 -0.64216585397E+03  0.64262271485E+03  0.00000000000E+00 0.  1.
          3    1    3    3  501    0  0.90764418137E+01  0.92340827997E+01 -0.30571640613E+03  0.30599047543E+03  0.00000000000E+00 0.  1.
         -1    1    1    2    0  502 -0.28064977935E+02 -0.24280847781E+02 -0.45099414814E+02  0.58405134808E+02  0.00000000000E+00 0. -1.
<mgrwt>
<rscale>  1 0.30000000E+03</rscale>
<asrwt>0</asrwt>
<pdfrwt beam="1">  1       21 0.25521236E-01 0.30000000E+03</pdfrwt>
<pdfrwt beam="2">0</pdfrwt>
<totfact> 0.14977626E+03</totfact>
</mgrwt>
</event>
<event>
 6    1  0.1284012E-001  0.3000000E+03  0.7818608E-02  0.1093470E+00
         21   -1    0    0  501  502  0.00000000000E+00  0.00000000000E+00  0.13949992637E+02  0.13949992637E+02  0.00000000000E+00 0. -1.
         13   -1    0    0    0    0 -0.00000000000E+00 -0.00000000000E+00 -0.10000000000E+04  0.10000000000E+04  0.00000000000E+00 0.  1.
    9000005    2    1    2  501    0 -0.29254745515E+00 -0.62709160819E+02 -0.92262418946E+03  0.92475717448E+03  0.28128870912E+01 0.  0.
         13    1    3    3    0    0 -0.10851196608E+01 -0.26870549243E+02 -0.41039189003E+03  0.41127205996E+03  0.00000000000E+00 0.  1.
          3    1    3    3  501    0  0.79257220560E+00 -0.35838611576E+02 -0.51223229943E+03  0.51348511451E+03  0.00000000000E+00 0.  1.
         -3    1    1    2    0  502  0.29254745515E+00  0.62709160819E+02 -0.63425817900E+02  0.89192818158E+02  0.00000000000E+00 0. -1.
<mgrwt>
<rscale>  1 0.30000000E+03</rscale>
<asrwt>0</asrwt>
<pdfrwt beam="1">  1       21 0.50727353E-01 0.30000000E+03</pdfrwt>
<pdfrwt beam="2">0</pdfrwt>
<totfact> 0.36412576E+02</totfact>
</mgrwt>
</event>
<event>
 6    1  0.1284012E-001  0.3000000E+03  0.7818608E-02  0.1093470E+00
         21   -1    0    0  501  502  0.00000000000E+00  0.00000000000E+00  0.62142470491E+01  0.62142470491E+01  0.00000000000E+00 0. -1.
         13   -1    0    0    0    0 -0.00000000000E+00 -0.00000000000E+00 -0.10000000000E+04  0.10000000000E+04  0.00000000000E+00 0.  1.
    9000005    2    1    2  501    0 -0.93914264625E+01 -0.42813719857E+02 -0.91501723143E+03  0.91607161850E+03  0.30761841979E+01 0.  0.
         13    1    3    3    0    0 -0.77334245765E+00 -0.91227069897E+01 -0.19800099157E+03  0.19821254880E+03  0.00000000000E+00 0.  1.
          3    1    3    3  501    0 -0.86180840049E+01 -0.33691012868E+02 -0.71701623986E+03  0.71785906970E+03  0.00000000000E+00 0.  1.
         -3    1    1    2    0  502  0.93914264625E+01  0.42813719857E+02 -0.78768521519E+02  0.90142628547E+02  0.00000000000E+00 0. -1.
<mgrwt>
<rscale>  1 0.30000000E+03</rscale>
<asrwt>0</asrwt>
<pdfrwt beam="1">  1       21 0.22597310E-01 0.30000000E+03</pdfrwt>
<pdfrwt beam="2">0</pdfrwt>
<totfact> 0.18979841E+03</totfact>
</mgrwt>
</event>
<event>
 6    1  0.1284012E-001  0.3000000E+03  0.7818608E-02  0.1093470E+00
         21   -1    0    0  501  502  0.00000000000E+00  0.00000000000E+00  0.15271666069E+01  0.15271666069E+01  0.00000000000E+00 0. -1.
         13   -1    0    0    0    0 -0.00000000000E+00 -0.00000000000E+00 -0.10000000000E+04  0.10000000000E+04  0.00000000000E+00 0.  1.
    9000005    2    1    2  501    0 -0.33186183488E+02 -0.63795624277E+00 -0.76188267455E+03  0.76262000258E+03  0.47253349854E+01 0.  0.
         13    1    3    3    0    0 -0.42673968776E+01  0.15062960323E+01 -0.10659959624E+03  0.10669561155E+03  0.00000000000E+00 0.  1.
          3    1    3    3  501    0 -0.28918786610E+02 -0.21442522751E+01 -0.65528307830E+03  0.65592439103E+03  0.00000000000E+00 0.  1.
         -3    1    1    2    0  502  0.33186183488E+02  0.63795624277E+00 -0.23659015885E+03  0.23890716403E+03  0.00000000000E+00 0. -1.
<mgrwt>
<rscale>  1 0.30000000E+03</rscale>
<asrwt>0</asrwt>
<pdfrwt beam="1">  1       21 0.55533448E-02 0.30000000E+03</pdfrwt>
<pdfrwt beam="2">0</pdfrwt>
<totfact> 0.24072277E+04</totfact>
</mgrwt>
</event>
<event>
 6    1  0.1284012E-001  0.3000000E+03  0.7818608E-02  0.1093470E+00
         21   -1    0    0  501  502  0.00000000000E+00  0.00000000000E+00  0.10410340377E+01  0.10410340377E+01  0.00000000000E+00 0. -1.
         13   -1    0    0    0    0 -0.00000000000E+00 -0.00000000000E+00 -0.10000000000E+04  0.10000000000E+04  0.00000000000E+00 0.  1.
    9000005    2    1    2  501    0  0.21113649376E+02 -0.24214705934E+02 -0.52784631284E+03  0.52883422542E+03  0.34307175310E+01 0.  0.
         13    1    3    3    0    0  0.19202407097E+02 -0.21386724139E+02 -0.45383565447E+03  0.45474490176E+03  0.00000000000E+00 0.  1.
          3    1    3    3  501    0  0.19112422788E+01 -0.28279817949E+01 -0.74010658375E+02  0.74089323665E+02  0.00000000000E+00 0.  1.
         -1    1    1    2    0  502 -0.21113649376E+02  0.24214705934E+02 -0.47111265312E+03  0.47220680861E+03  0.00000000000E+00 0. -1.
<mgrwt>
<rscale>  1 0.30000000E+03</rscale>
<asrwt>0</asrwt>
<pdfrwt beam="1">  1       21 0.37855863E-02 0.30000000E+03</pdfrwt>
<pdfrwt beam="2">0</pdfrwt>
<totfact> 0.46129659E+04</totfact>
</mgrwt>
</event>
<event>
 6    1  0.1284012E-001  0.3000000E+03  0.7818608E-02  0.1093470E+00
         21   -1    0    0  501  502  0.00000000000E+00  0.00000000000E+00  0.25220556604E+01  0.25220556604E+01  0.00000000000E+00 0. -1.
         13   -1    0    0    0    0 -0.00000000000E+00 -0.00000000000E+00 -0.10000000000E+04  0.10000000000E+04  0.00000000000E+00 0.  1.
    9000005    2    1    2  501    0  0.41557599170E+02  0.26556241604E+02 -0.40912351509E+03  0.41210423544E+03  0.39474359348E+01 0.  0.
         13    1    3    3    0    0  0.32225822117E+02  0.18586398061E+02 -0.30932172757E+03  0.31155078070E+03  0.00000000000E+00 0.  1.
          3    1    3    3  501    0  0.93317770537E+01  0.79698435431E+01 -0.99801787520E+02  0.10055345475E+03  0.00000000000E+00 0.  1.
         -3    1    1    2    0  502 -0.41557599170E+02 -0.26556241604E+02 -0.58835442925E+03  0.59041782022E+03  0.00000000000E+00 0. -1.
<mgrwt>
<rscale>  1 0.30000000E+03</rscale>
<asrwt>0</asrwt>
<pdfrwt beam="1">  1       21 0.91711308E-02 0.30000000E+03</pdfrwt>
<pdfrwt beam="2">0</pdfrwt>
<totfact> 0.10037182E+04</totfact>
</mgrwt>
</event>
<event>
 6    1  0.1284012E-001  0.3000000E+03  0.7818608E-02  0.1093470E+00
         21   -1    0    0  501  502  0.00000000000E+00  0.00000000000E+00  0.11931030944E+01  0.11931030944E+01  0.00000000000E+00 0. -1.
         13   -1    0    0    0    0 -0.00000000000E+00 -0.00000000000E+00 -0.10000000000E+04  0.10000000000E+04  0.00000000000E+00 0.  1.
    9000005    2    1    2  501    0  0.29876024828E+02  0.45505606940E+01 -0.74070110033E+03  0.74132412324E+03  0.31703647373E+01 0.  0.
         13    1    3    3    0    0  0.34373746638E+01  0.15596100472E+01 -0.87896190389E+02  0.87977202803E+02  0.00000000000E+00 0.  1.
          3    1    3    3  501    0  0.26438650164E+02  0.29909506468E+01 -0.65280490994E+03  0.65334692044E+03  0.00000000000E+00 0.  1.
         -1    1    1    2    0  502 -0.29876024828E+02 -0.45505606940E+01 -0.25810579658E+03  0.25986897985E+03  0.00000000000E+00 0. -1.
<mgrwt>
<rscale>  1 0.30000000E+03</rscale>
<asrwt>0</asrwt>
<pdfrwt beam="1">  1       21 0.43385659E-02 0.30000000E+03</pdfrwt>
<pdfrwt beam="2">0</pdfrwt>
<totfact> 0.36658804E+04</totfact>
</mgrwt>
</event>
<event>
 6    1  0.1284012E-001  0.3000000E+03  0.7818608E-02  0.1093470E+00
         21   -1    0    0  501  502  0.00000000000E+00  0.00000000000E+00  0.10046586054E+01  0.10046586054E+01  0.00000000000E+00 0. -1.
         13   -1    0    0    0    0 -0.00000000000E+00 -0.00000000000E+00 -0.10000000000E+04  0.10000000000E+04  0.00000000000E+00 0.  1.
    9000005    2    1    2  501    0 -0.29904837346E+02 -0.61450624562E+01 -0.62917307765E+03  0.62992438717E+03  0.37297210780E+01 0.  0.
         13    1    3    3    0    0 -0.29026012032E+02 -0.61559632425E+01 -0.61991198634E+03  0.62062168514E+03  0.00000000000E+00 0.  1.
          3    1    3    3  501    0 -0.87882531371E+00  0.10900786338E-01 -0.92610913175E+01  0.93027020349E+01  0.00000000000E+00 0.  1.
         -3    1    1    2    0  502  0.29904837346E+02  0.61450624562E+01 -0.36982226374E+03  0.37108027144E+03  0.00000000000E+00 0. -1.
<mgrwt>
<rscale>  1 0.30000000E+03</rscale>
<asrwt>0</asrwt>
<pdfrwt beam="1">  1       21 0.36533117E-02 0.30000000E+03</pdfrwt>
<pdfrwt beam="2">0</pdfrwt>
<totfact> 0.48967888E+04</totfact>
</mgrwt>
</event>
<event>
 6    1  0.1284012E-001  0.3000000E+03  0.7818608E-02  0.1093470E+00
         21   -1    0    0  501  502  0.00000000000E+00  0.00000000000E+00  0.19345486712E+01  0.19345486712E+01  0.00000000000E+00 0. -1.
         13   -1    0    0    0    0 -0.00000000000E+00 -0.00000000000E+00 -0.10000000000E+04  0.10000000000E+04  0.00000000000E+00 0.  1.
    9000005    2    1    2  501    0 -0.37858056149E+02 -0.21759330848E+02 -0.55560377608E+03  0.55732344337E+03  0.26764976259E+01 0.  0.
         13    1    3    3    0    0 -0.24780360710E+02 -0.12759922671E+02 -0.35330664510E+03  0.35440438397E+03  0.00000000000E+00 0.  1.
          1    1    3    3  501    0 -0.13077695439E+02 -0.89994081772E+01 -0.20229713098E+03  0.20291905941E+03  0.00000000000E+00 0.  1.
         -3    1    1    2    0  502  0.37858056149E+02  0.21759330848E+02 -0.44246167524E+03  0.44461110530E+03  0.00000000000E+00 0. -1.
<mgrwt>
<rscale>  1 0.30000000E+03</rscale>
<asrwt>0</asrwt>
<pdfrwt beam="1">  1       21 0.70347373E-02 0.30000000E+03</pdfrwt>
<pdfrwt beam="2">0</pdfrwt>
<totfact> 0.15996851E+04</totfact>
</mgrwt>
</event>
<event>
 6    1  0.1284012E-001  0.3000000E+03  0.7818608E-02  0.1093470E+00
         21   -1    0    0  501  502  0.00000000000E+00  0.00000000000E+00  0.35044180430E+01  0.35044180430E+01  0.00000000000E+00 0. -1.
         13   -1    0    0    0    0 -0.00000000000E+00 -0.00000000000E+00 -0.10000000000E+04  0.10000000000E+04  0.00000000000E+00 0.  1.
    9000005    2    1    2  501    0  0.38463103107E+02 -0.64139526627E+00 -0.87948359858E+03  0.88033126373E+03  0.34513836117E+01 0.  0.
         13    1    3    3    0    0  0.12749647083E+02  0.59373675179E+00 -0.26024594808E+03  0.26055874484E+03  0.00000000000E+00 0.  1.
          3    1    3    3  501    0  0.25713456024E+02 -0.12351320181E+01 -0.61923765050E+03  0.61977251889E+03  0.00000000000E+00 0.  1.
         -3    1    1    2    0  502 -0.38463103107E+02  0.64139526627E+00 -0.11701198338E+03  0.12317315431E+03  0.00000000000E+00 0. -1.
<mgrwt>
<rscale>  1 0.30000000E+03</rscale>
<asrwt>0</asrwt>
<pdfrwt beam="1">  1       21 0.12743365E-01 0.30000000E+03</pdfrwt>
<pdfrwt beam="2">0</pdfrwt>
<totfact> 0.55550125E+03</totfact>
</mgrwt>
</event>
<event>
 6    1  0.1284012E-001  0.3000000E+03  0.7818608E-02  0.1093470E+00
         21   -1    0    0  501  502  0.00000000000E+00  0.00000000000E+00  0.94820897482E+01  0.94820897482E+01  0.00000000000E+00 0. -1.
         13   -1    0    0    0    0 -0.00000000000E+00 -0.00000000000E+00 -0.10000000000E+04  0.10000000000E+04  0.00000000000E+00 0.  1.
    9000005    2    1    2  501    0  0.56368219273E+02 -0.53938596122E+02 -0.19364540671E+03  0.20879954641E+03  0.34581422744E+01 0.  0.
         13    1    3    3    0    0  0.16460482700E+02 -0.13927978894E+02 -0.51340300305E+02  0.55684490858E+02  0.00000000000E+00 0.  1.
          3    1    3    3  501    0  0.39907736574E+02 -0.40010617228E+02 -0.14230510640E+03  0.15311505555E+03  0.00000000000E+00 0.  1.
         -1    1    1    2    0  502 -0.56368219273E+02  0.53938596122E+02 -0.79687250355E+03  0.80068254334E+03  0.00000000000E+00 0. -1.
<mgrwt>
<rscale>  1 0.30000000E+03</rscale>
<asrwt>0</asrwt>
<pdfrwt beam="1">  1       21 0.34480399E-01 0.30000000E+03</pdfrwt>
<pdfrwt beam="2">0</pdfrwt>
<totfact> 0.82049511E+02</totfact>
</mgrwt>
</event>
<event>
 6    1  0.1284012E-001  0.3000000E+03  0.7818608E-02  0.1093470E+00
         21   -1    0    0  501  502  0.00000000000E+00  0.00000000000E+00  0.10501741645E+01  0.10501741645E+01  0.00000000000E+00 0. -1.
         13   -1    0    0    0    0 -0.00000000000E+00 -0.00000000000E+00 -0.10000000000E+04  0.10000000000E+04  0.00000000000E+00 0.  1.
    9000005    2    1    2  501    0 -0.25433788271E+02  0.16170746851E+02 -0.68120863945E+03  0.68188276955E+03  0.32450446881E+01 0.  0.
         13    1    3    3    0    0 -0.20042435789E+02  0.11100454430E+02 -0.51218015264E+03  0.51269233276E+03  0.00000000000E+00 0.  1.
          1    1    3    3  501    0 -0.53913524819E+01  0.50702924209E+01 -0.16902848681E+03  0.16919043679E+03  0.00000000000E+00 0.  1.
         -1    1    1    2    0  502  0.25433788271E+02 -0.16170746851E+02 -0.31774118639E+03  0.31916740461E+03  0.00000000000E+00 0. -1.
<mgrwt>
<rscale>  1 0.30000000E+03</rscale>
<asrwt>0</asrwt>
<pdfrwt beam="1">  1       21 0.38188232E-02 0.30000000E+03</pdfrwt>
<pdfrwt beam="2">0</pdfrwt>
<totfact> 0.45457088E+04</totfact>
</mgrwt>
</event>
<event>
 6    1  0.1284012E-001  0.3000000E+03  0.7818608E-02  0.1093470E+00
         21   -1    0    0  501  502  0.00000000000E+00  0.00000000000E+00  0.17998931262E+01  0.17998931262E+01  0.00000000000E+00 0. -1.
         13   -1    0    0    0    0 -0.00000000000E+00 -0.00000000000E+00 -0.10000000000E+04  0.10000000000E+04  0.00000000000E+00 0.  1.
    9000005    2    1    2  501    0  0.95236093098E+01  0.37939889091E+02 -0.68975522049E+03  0.69088449908E+03  0.53844737232E+01 0.  0.
         13    1    3    3    0    0  0.25364657239E+00  0.26752626344E+01 -0.75673723457E+02  0.75721422257E+02  0.00000000000E+00 0.  1.
          1    1    3    3  501    0  0.92699627374E+01  0.35264626457E+02 -0.61408149703E+03  0.61516307682E+03  0.00000000000E+00 0.  1.
         -1    1    1    2    0  502 -0.95236093098E+01 -0.37939889091E+02 -0.30844488638E+03  0.31091539404E+03  0.00000000000E+00 0. -1.
<mgrwt>
<rscale>  1 0.30000000E+03</rscale>
<asrwt>0</asrwt>
<pdfrwt beam="1">  1       21 0.65450797E-02 0.30000000E+03</pdfrwt>
<pdfrwt beam="2">0</pdfrwt>
<totfact> 0.18131726E+04</totfact>
</mgrwt>
</event>
<event>
 6    1  0.1284012E-001  0.3000000E+03  0.7818608E-02  0.1093470E+00
         21   -1    0    0  501  502  0.00000000000E+00  0.00000000000E+00  0.10309579867E+01  0.10309579867E+01  0.00000000000E+00 0. -1.
         13   -1    0    0    0    0 -0.00000000000E+00 -0.00000000000E+00 -0.10000000000E+04  0.10000000000E+04  0.00000000000E+00 0.  1.
    9000005    2    1    2  501    0  0.10183709106E+02  0.28717801829E+02 -0.64986165465E+03  0.65059638779E+03  0.52028411327E+01 0.  0.
         13    1    3    3    0    0  0.38888999083E+01  0.17347976332E+02 -0.34482146125E+03  0.34527947516E+03  0.00000000000E+00 0.  1.
          1    1    3    3  501    0  0.62948091978E+01  0.11369825497E+02 -0.30504019340E+03  0.30531691264E+03  0.00000000000E+00 0.  1.
         -3    1    1    2    0  502 -0.10183709106E+02 -0.28717801829E+02 -0.34910738737E+03  0.35043457019E+03  0.00000000000E+00 0. -1.
<mgrwt>
<rscale>  1 0.30000000E+03</rscale>
<asrwt>0</asrwt>
<pdfrwt beam="1">  1       21 0.37489460E-02 0.30000000E+03</pdfrwt>
<pdfrwt beam="2">0</pdfrwt>
<totfact> 0.46889402E+04</totfact>
</mgrwt>
</event>
<event>
 6    1  0.1284012E-001  0.3000000E+03  0.7818608E-02  0.1093470E+00
         21   -1    0    0  501  502  0.00000000000E+00  0.00000000000E+00  0.66174907980E+01  0.66174907980E+01  0.00000000000E+00 0. -1.
         13   -1    0    0    0    0 -0.00000000000E+00 -0.00000000000E+00 -0.10000000000E+04  0.10000000000E+04  0.00000000000E+00 0.  1.
    9000005    2    1    2  501    0 -0.76454255414E+02 -0.27205770517E+02 -0.52858418283E+03  0.53478818764E+03  0.34293120129E+01 0.  0.
         13    1    3    3    0    0 -0.23488412553E+01 -0.14359352577E+01 -0.16344866068E+02  0.16575090108E+02  0.00000000000E+00 0.  1.
          1    1    3    3  501    0 -0.74105414159E+02 -0.25769835259E+02 -0.51223931676E+03  0.51821309753E+03  0.00000000000E+00 0.  1.
         -3    1    1    2    0  502  0.76454255414E+02  0.27205770517E+02 -0.46479832637E+03  0.47182930316E+03  0.00000000000E+00 0. -1.
<mgrwt>
<rscale>  1 0.30000000E+03</rscale>
<asrwt>0</asrwt>
<pdfrwt beam="1">  1       21 0.24063654E-01 0.30000000E+03</pdfrwt>
<pdfrwt beam="2">0</pdfrwt>
<totfact> 0.16802253E+03</totfact>
</mgrwt>
</event>
<event>
 6    1  0.1284012E-001  0.3000000E+03  0.7818608E-02  0.1093470E+00
         21   -1    0    0  501  502  0.00000000000E+00  0.00000000000E+00  0.96463992375E+00  0.96463992375E+00  0.00000000000E+00 0. -1.
         13   -1    0    0    0    0 -0.00000000000E+00 -0.00000000000E+00 -0.10000000000E+04  0.10000000000E+04  0.00000000000E+00 0.  1.
    9000005    2    1    2  501    0  0.33158968581E+01 -0.30197270377E+02 -0.59755260524E+03  0.59833419803E+03  0.34389228786E+01 0.  0.
         13    1    3    3    0    0  0.17761607123E+01 -0.22143721820E+02 -0.40799068085E+03  0.40859502545E+03  0.00000000000E+00 0.  1.
          1    1    3    3  501    0  0.15397361458E+01 -0.80535485576E+01 -0.18956192439E+03  0.18973917257E+03  0.00000000000E+00 0.  1.
         -3    1    1    2    0  502 -0.33158968581E+01  0.30197270377E+02 -0.40148275484E+03  0.40263044190E+03  0.00000000000E+00 0. -1.
<mgrwt>
<rscale>  1 0.30000000E+03</rscale>
<asrwt>0</asrwt>
<pdfrwt beam="1">  1       21 0.35077889E-02 0.30000000E+03</pdfrwt>
<pdfrwt beam="2">0</pdfrwt>
<totfact> 0.52421303E+04</totfact>
</mgrwt>
</event>
<event>
 6    1  0.1284012E-001  0.3000000E+03  0.7818608E-02  0.1093470E+00
         21   -1    0    0  501  502  0.00000000000E+00  0.00000000000E+00  0.34152721810E+01  0.34152721810E+01  0.00000000000E+00 0. -1.
         13   -1    0    0    0    0 -0.00000000000E+00 -0.00000000000E+00 -0.10000000000E+04  0.10000000000E+04  0.00000000000E+00 0.  1.
    9000005    2    1    2  501    0 -0.48472916842E+02 -0.52246714022E+01 -0.22307372836E+03  0.22836934635E+03  0.37079928323E+01 0.  0.
         13    1    3    3    0    0 -0.10304596165E+02 -0.24748937525E+01 -0.45180415358E+02  0.46406677678E+02  0.00000000000E+00 0.  1.
          3    1    3    3  501    0 -0.38168320676E+02 -0.27497776497E+01 -0.17789331300E+03  0.18196266867E+03  0.00000000000E+00 0.  1.
         -3    1    1    2    0  502  0.48472916842E+02  0.52246714022E+01 -0.77351099946E+03  0.77504592583E+03  0.00000000000E+00 0. -1.
<mgrwt>
<rscale>  1 0.30000000E+03</rscale>
<asrwt>0</asrwt>
<pdfrwt beam="1">  1       21 0.12419198E-01 0.30000000E+03</pdfrwt>
<pdfrwt beam="2">0</pdfrwt>
<totfact> 0.58220457E+03</totfact>
</mgrwt>
</event>
<event>
 6    1  0.1284012E-001  0.3000000E+03  0.7818608E-02  0.1093470E+00
         21   -1    0    0  501  502  0.00000000000E+00  0.00000000000E+00  0.11568154905E+02  0.11568154905E+02  0.00000000000E+00 0. -1.
         13   -1    0    0    0    0 -0.00000000000E+00 -0.00000000000E+00 -0.10000000000E+04  0.10000000000E+04  0.00000000000E+00 0.  1.
    9000005    2    1    2  501    0 -0.44561530115E+02 -0.56415260883E+02 -0.87036785181E+03  0.87333820830E+03  0.33191856056E+01 0.  0.
         13    1    3    3    0    0 -0.36670524864E+02 -0.44343307804E+02 -0.69210262866E+03  0.69449053625E+03  0.00000000000E+00 0.  1.
          3    1    3    3  501    0 -0.78910052510E+01 -0.12071953078E+02 -0.17826522315E+03  0.17884767205E+03  0.00000000000E+00 0.  1.
         -1    1    1    2    0  502  0.44561530115E+02  0.56415260883E+02 -0.11806399329E+03  0.13822994660E+03  0.00000000000E+00 0. -1.
<mgrwt>
<rscale>  1 0.30000000E+03</rscale>
<asrwt>0</asrwt>
<pdfrwt beam="1">  1       21 0.42066107E-01 0.30000000E+03</pdfrwt>
<pdfrwt beam="2">0</pdfrwt>
<totfact> 0.54343683E+02</totfact>
</mgrwt>
</event>
<event>
 6    1  0.1284012E-001  0.3000000E+03  0.7818608E-02  0.1093470E+00
         21   -1    0    0  501  502  0.00000000000E+00  0.00000000000E+00  0.16568267437E+01  0.16568267437E+01  0.00000000000E+00 0. -1.
         13   -1    0    0    0    0 -0.00000000000E+00 -0.00000000000E+00 -0.10000000000E+04  0.10000000000E+04  0.00000000000E+00 0.  1.
    9000005    2    1    2  501    0  0.34933683998E+02 -0.79171153579E+01 -0.73597598988E+03  0.73685580351E+03  0.35741421304E+01 0.  0.
         13    1    3    3    0    0  0.28804414618E+02 -0.51206579861E+01 -0.59368804129E+03  0.59440845032E+03  0.00000000000E+00 0.  1.
          1    1    3    3  501    0  0.61292693799E+01 -0.27964573718E+01 -0.14228794859E+03  0.14244735319E+03  0.00000000000E+00 0.  1.
         -3    1    1    2    0  502 -0.34933683998E+02  0.79171153579E+01 -0.26236718338E+03  0.26480102323E+03  0.00000000000E+00 0. -1.
<mgrwt>
<rscale>  1 0.30000000E+03</rscale>
<asrwt>0</asrwt>
<pdfrwt beam="1">  1       21 0.60248372E-02 0.30000000E+03</pdfrwt>
<pdfrwt beam="2">0</pdfrwt>
<totfact> 0.20922062E+04</totfact>
</mgrwt>
</event>
<event>
 6    1  0.1284012E-001  0.3000000E+03  0.7818608E-02  0.1093470E+00
         21   -1    0    0  501  502  0.00000000000E+00  0.00000000000E+00  0.18601069924E+01  0.18601069924E+01  0.00000000000E+00 0. -1.
         13   -1    0    0    0    0 -0.00000000000E+00 -0.00000000000E+00 -0.10000000000E+04  0.10000000000E+04  0.00000000000E+00 0.  1.
    9000005    2    1    2  501    0 -0.25467935320E+02  0.20749256409E+02 -0.82317998167E+03  0.82384292258E+03  0.35681215488E+01 0.  0.
         13    1    3    3    0    0 -0.89252595878E+01  0.94132334743E+01 -0.33657487742E+03  0.33682475760E+03  0.00000000000E+00 0.  1.
          3    1    3    3  501    0 -0.16542675732E+02  0.11336022935E+02 -0.48660510426E+03  0.48701816498E+03  0.00000000000E+00 0.  1.
         -1    1    1    2    0  502  0.25467935320E+02 -0.20749256409E+02 -0.17495991133E+03  0.17801718441E+03  0.00000000000E+00 0. -1.
<mgrwt>
<rscale>  1 0.30000000E+03</rscale>
<asrwt>0</asrwt>
<pdfrwt beam="1">  1       21 0.67640397E-02 0.30000000E+03</pdfrwt>
<pdfrwt beam="2">0</pdfrwt>
<totfact> 0.17126130E+04</totfact>
</mgrwt>
</event>
<event>
 6    1  0.1284012E-001  0.3000000E+03  0.7818608E-02  0.1093470E+00
         21   -1    0    0  501  502  0.00000000000E+00  0.00000000000E+00  0.74090302960E+01  0.74090302960E+01  0.00000000000E+00 0. -1.
         13   -1    0    0    0    0 -0.00000000000E+00 -0.00000000000E+00 -0.10000000000E+04  0.10000000000E+04  0.00000000000E+00 0.  1.
    9000005    2    1    2  501    0 -0.20076204946E+02  0.26612906451E+02 -0.96066727337E+03  0.96125252282E+03  0.36744673348E+01 0.  0.
         13    1    3    3    0    0 -0.11321998652E+02  0.13687836208E+02 -0.46366860216E+03  0.46400874684E+03  0.00000000000E+00 0.  1.
          1    1    3    3  501    0 -0.87542062940E+01  0.12925070243E+02 -0.49699867121E+03  0.49724377598E+03  0.00000000000E+00 0.  1.
         -3    1    1    2    0  502  0.20076204946E+02 -0.26612906451E+02 -0.31923696338E+02  0.46156507480E+02  0.00000000000E+00 0. -1.
<mgrwt>
<rscale>  1 0.30000000E+03</rscale>
<asrwt>0</asrwt>
<pdfrwt beam="1">  1       21 0.26941985E-01 0.30000000E+03</pdfrwt>
<pdfrwt beam="2">0</pdfrwt>
<totfact> 0.13461837E+03</totfact>
</mgrwt>
</event>
<event>
 6    1  0.1284012E-001  0.3000000E+03  0.7818608E-02  0.1093470E+00
         21   -1    0    0  501  502  0.00000000000E+00  0.00000000000E+00  0.22152279547E+01  0.22152279547E+01  0.00000000000E+00 0. -1.
         13   -1    0    0    0    0 -0.00000000000E+00 -0.00000000000E+00 -0.10000000000E+04  0.10000000000E+04  0.00000000000E+00 0.  1.
    9000005    2    1    2  501    0  0.38819711927E+02  0.13678768752E+02 -0.74140145000E+03  0.74254912202E+03  0.30016330354E+01 0.  0.
         13    1    3    3    0    0  0.31729923400E+02  0.12381147027E+02 -0.61383767001E+03  0.61478188487E+03  0.00000000000E+00 0.  1.
          1    1    3    3  501    0  0.70897885266E+01  0.12976217246E+01 -0.12756377999E+03  0.12776723715E+03  0.00000000000E+00 0.  1.
         -3    1    1    2    0  502 -0.38819711927E+02 -0.13678768752E+02 -0.25638332204E+03  0.25966610593E+03  0.00000000000E+00 0. -1.
<mgrwt>
<rscale>  1 0.30000000E+03</rscale>
<asrwt>0</asrwt>
<pdfrwt beam="1">  1       21 0.80553914E-02 0.30000000E+03</pdfrwt>
<pdfrwt beam="2">0</pdfrwt>
<totfact> 0.12619958E+04</totfact>
</mgrwt>
</event>
<event>
 6    1  0.1284012E-001  0.3000000E+03  0.7818608E-02  0.1093470E+00
         21   -1    0    0  501  502  0.00000000000E+00  0.00000000000E+00  0.33871472989E+01  0.33871472989E+01  0.00000000000E+00 0. -1.
         13   -1    0    0    0    0 -0.00000000000E+00 -0.00000000000E+00 -0.10000000000E+04  0.10000000000E+04  0.00000000000E+00 0.  1.
    9000005    2    1    2  501    0 -0.33763588678E+02  0.72451166062E+00 -0.90677337533E+03  0.90740987639E+03  0.37715670517E+01 0.  0.
         13    1    3    3    0    0 -0.28153486978E+02 -0.17214236122E+00 -0.78344745582E+03  0.78395316473E+03  0.00000000000E+00 0.  1.
          1    1    3    3  501    0 -0.56101017001E+01  0.89665402185E+00 -0.12332591951E+03  0.12345671165E+03  0.00000000000E+00 0.  1.
         -1    1    1    2    0  502  0.33763588678E+02 -0.72451166062E+00 -0.89839477371E+02  0.95977270912E+02  0.00000000000E+00 0. -1.
<mgrwt>
<rscale>  1 0.30000000E+03</rscale>
<asrwt>0</asrwt>
<pdfrwt beam="1">  1       21 0.12316925E-01 0.30000000E+03</pdfrwt>
<pdfrwt beam="2">0</pdfrwt>
<totfact> 0.59103391E+03</totfact>
</mgrwt>
</event>
<event>
 6    1  0.1284012E-001  0.3000000E+03  0.7818608E-02  0.1093470E+00
         21   -1    0    0  501  502  0.00000000000E+00  0.00000000000E+00  0.22146847094E+01  0.22146847094E+01  0.00000000000E+00 0. -1.
         13   -1    0    0    0    0 -0.00000000000E+00 -0.00000000000E+00 -0.10000000000E+04  0.10000000000E+04  0.00000000000E+00 0.  1.
    9000005    2    1    2  501    0  0.14246599712E+02  0.33223233892E+02 -0.81927062103E+03  0.82007670147E+03  0.38336572757E+01 0.  0.
         13    1    3    3    0    0  0.33248351595E+01  0.50434488687E+01 -0.15917649695E+03  0.15929107974E+03  0.00000000000E+00 0.  1.
          1    1    3    3  501    0  0.10921764553E+02  0.28179785023E+02 -0.66009412409E+03  0.66078562172E+03  0.00000000000E+00 0.  1.
         -1    1    1    2    0  502 -0.14246599712E+02 -0.33223233892E+02 -0.17851469426E+03  0.18213798324E+03  0.00000000000E+00 0. -1.
<mgrwt>
<rscale>  1 0.30000000E+03</rscale>
<asrwt>0</asrwt>
<pdfrwt beam="1">  1       21 0.80534159E-02 0.30000000E+03</pdfrwt>
<pdfrwt beam="2">0</pdfrwt>
<totfact> 0.12625398E+04</totfact>
</mgrwt>
</event>
<event>
 6    1  0.1284012E-001  0.3000000E+03  0.7818608E-02  0.1093470E+00
         21   -1    0    0  501  502  0.00000000000E+00  0.00000000000E+00  0.11114571603E+01  0.11114571603E+01  0.00000000000E+00 0. -1.
         13   -1    0    0    0    0 -0.00000000000E+00 -0.00000000000E+00 -0.10000000000E+04  0.10000000000E+04  0.00000000000E+00 0.  1.
    9000005    2    1    2  501    0 -0.22622804060E+02 -0.20111570514E+02 -0.29392595211E+03  0.29549929679E+03  0.33320486757E+01 0.  0.
         13    1    3    3    0    0 -0.43969805096E+01 -0.23697409162E+01 -0.52606366869E+02  0.52842964951E+02  0.00000000000E+00 0.  1.
          3    1    3    3  501    0 -0.18225823551E+02 -0.17741829598E+02 -0.24131958524E+03  0.24265633184E+03  0.00000000000E+00 0.  1.
         -3    1    1    2    0  502  0.22622804060E+02  0.20111570514E+02 -0.70496259073E+03  0.70561216037E+03  0.00000000000E+00 0. -1.
<mgrwt>
<rscale>  1 0.30000000E+03</rscale>
<asrwt>0</asrwt>
<pdfrwt beam="1">  1       21 0.40416709E-02 0.30000000E+03</pdfrwt>
<pdfrwt beam="2">0</pdfrwt>
<totfact> 0.41319646E+04</totfact>
</mgrwt>
</event>
<event>
 6    1  0.1284012E-001  0.3000000E+03  0.7818608E-02  0.1093470E+00
         21   -1    0    0  501  502  0.00000000000E+00  0.00000000000E+00  0.15113256585E+01  0.15113256585E+01  0.00000000000E+00 0. -1.
         13   -1    0    0    0    0 -0.00000000000E+00 -0.00000000000E+00 -0.10000000000E+04  0.10000000000E+04  0.00000000000E+00 0.  1.
    9000005    2    1    2  501    0 -0.30092344615E+02  0.74160082439E+01 -0.79450704904E+03  0.79518864188E+03  0.11089581199E+02 0.  0.
         13    1    3    3    0    0 -0.28689621893E+02  0.77779492579E+01 -0.78579059211E+03  0.78635262164E+03  0.00000000000E+00 0.  1.
          3    1    3    3  501    0 -0.14027227219E+01 -0.36194101402E+00 -0.87164569245E+01  0.88360202381E+01  0.00000000000E+00 0.  1.
         -1    1    1    2    0  502  0.30092344615E+02 -0.74160082439E+01 -0.20398162530E+03  0.20632268378E+03  0.00000000000E+00 0. -1.
<mgrwt>
<rscale>  1 0.30000000E+03</rscale>
<asrwt>0</asrwt>
<pdfrwt beam="1">  1       21 0.54957413E-02 0.30000000E+03</pdfrwt>
<pdfrwt beam="2">0</pdfrwt>
<totfact> 0.24506677E+04</totfact>
</mgrwt>
</event>
<event>
 6    1  0.1284012E-001  0.3000000E+03  0.7818608E-02  0.1093470E+00
         21   -1    0    0  501  502  0.00000000000E+00  0.00000000000E+00  0.40494949197E+01  0.40494949197E+01  0.00000000000E+00 0. -1.
         13   -1    0    0    0    0 -0.00000000000E+00 -0.00000000000E+00 -0.10000000000E+04  0.10000000000E+04  0.00000000000E+00 0.  1.
    9000005    2    1    2  501    0  0.40614326798E+02  0.73903724558E+01 -0.87980835584E+03  0.88078903907E+03  0.47378467673E+01 0.  0.
         13    1    3    3    0    0  0.67775544643E+01 -0.49596899523E+00 -0.15223847042E+03  0.15239006892E+03  0.00000000000E+00 0.  1.
          3    1    3    3  501    0  0.33836772333E+02  0.78863414510E+01 -0.72756988543E+03  0.72839897016E+03  0.00000000000E+00 0.  1.
         -1    1    1    2    0  502 -0.40614326798E+02 -0.73903724558E+01 -0.11614214924E+03  0.12326045585E+03  0.00000000000E+00 0. -1.
<mgrwt>
<rscale>  1 0.30000000E+03</rscale>
<asrwt>0</asrwt>
<pdfrwt beam="1">  1       21 0.14725467E-01 0.30000000E+03</pdfrwt>
<pdfrwt beam="2">0</pdfrwt>
<totfact> 0.42611050E+03</totfact>
</mgrwt>
</event>
<event>
 6    1  0.1284012E-001  0.3000000E+03  0.7818608E-02  0.1093470E+00
         21   -1    0    0  501  502  0.00000000000E+00  0.00000000000E+00  0.78940457647E+01  0.78940457647E+01  0.00000000000E+00 0. -1.
         13   -1    0    0    0    0 -0.00000000000E+00 -0.00000000000E+00 -0.10000000000E+04  0.10000000000E+04  0.00000000000E+00 0.  1.
    9000005    2    1    2  501    0  0.17506646462E+02  0.25492441500E+02 -0.96847481629E+03  0.96897389771E+03  0.32553665503E+01 0.  0.
         13    1    3    3    0    0  0.11045224998E+02  0.13228989677E+02 -0.53924406718E+03  0.53951938534E+03  0.00000000000E+00 0.  1.
          3    1    3    3  501    0  0.64614214639E+01  0.12263451823E+02 -0.42923074911E+03  0.42945451237E+03  0.00000000000E+00 0.  1.
         -1    1    1    2    0  502 -0.17506646462E+02 -0.25492441500E+02 -0.23631137943E+02  0.38920148053E+02  0.00000000000E+00 0. -1.
<mgrwt>
<rscale>  1 0.30000000E+03</rscale>
<asrwt>0</asrwt>
<pdfrwt beam="1">  1       21 0.28705681E-01 0.30000000E+03</pdfrwt>
<pdfrwt beam="2">0</pdfrwt>
<totfact> 0.11872462E+03</totfact>
</mgrwt>
</event>
<event>
 6    1  0.1284012E-001  0.3000000E+03  0.7818608E-02  0.1093470E+00
         21   -1    0    0  501  502  0.00000000000E+00  0.00000000000E+00  0.13910992382E+01  0.13910992382E+01  0.00000000000E+00 0. -1.
         13   -1    0    0    0    0 -0.00000000000E+00 -0.00000000000E+00 -0.10000000000E+04  0.10000000000E+04  0.00000000000E+00 0.  1.
    9000005    2    1    2  501    0  0.23419059635E+02  0.25231321790E+02 -0.31091863471E+03  0.31283974024E+03  0.36378168085E+01 0.  0.
         13    1    3    3    0    0  0.11647517030E+02  0.99554437514E+01 -0.14118948253E+03  0.14201846884E+03  0.00000000000E+00 0.  1.
          1    1    3    3  501    0  0.11771542606E+02  0.15275878039E+02 -0.16972915218E+03  0.17082127140E+03  0.00000000000E+00 0.  1.
         -3    1    1    2    0  502 -0.23419059635E+02 -0.25231321790E+02 -0.68769026605E+03  0.68855135900E+03  0.00000000000E+00 0. -1.
<mgrwt>
<rscale>  1 0.30000000E+03</rscale>
<asrwt>0</asrwt>
<pdfrwt beam="1">  1       21 0.50585534E-02 0.30000000E+03</pdfrwt>
<pdfrwt beam="2">0</pdfrwt>
<totfact> 0.28238428E+04</totfact>
</mgrwt>
</event>
<event>
 6    1  0.1284012E-001  0.3000000E+03  0.7818608E-02  0.1093470E+00
         21   -1    0    0  501  502  0.00000000000E+00  0.00000000000E+00  0.25413981980E+01  0.25413981980E+01  0.00000000000E+00 0. -1.
         13   -1    0    0    0    0 -0.00000000000E+00 -0.00000000000E+00 -0.10000000000E+04  0.10000000000E+04  0.00000000000E+00 0.  1.
    9000005    2    1    2  501    0 -0.19575064494E+02 -0.41520523481E+02 -0.29325954371E+03  0.29684780290E+03  0.32126456999E+01 0.  0.
         13    1    3    3    0    0 -0.99812132954E+01 -0.19007233462E+02 -0.14552917252E+03  0.14710417940E+03  0.00000000000E+00 0.  1.
          3    1    3    3  501    0 -0.95938511989E+01 -0.22513290019E+02 -0.14773037119E+03  0.14974362350E+03  0.00000000000E+00 0.  1.
         -1    1    1    2    0  502  0.19575064494E+02  0.41520523481E+02 -0.70419905809E+03  0.70569359529E+03  0.00000000000E+00 0. -1.
<mgrwt>
<rscale>  1 0.30000000E+03</rscale>
<asrwt>0</asrwt>
<pdfrwt beam="1">  1       21 0.92414675E-02 0.30000000E+03</pdfrwt>
<pdfrwt beam="2">0</pdfrwt>
<totfact> 0.99019481E+03</totfact>
</mgrwt>
</event>
<event>
 6    1  0.1284012E-001  0.3000000E+03  0.7818608E-02  0.1093470E+00
         21   -1    0    0  501  502  0.00000000000E+00  0.00000000000E+00  0.13794252786E+01  0.13794252786E+01  0.00000000000E+00 0. -1.
         13   -1    0    0    0    0 -0.00000000000E+00 -0.00000000000E+00 -0.10000000000E+04  0.10000000000E+04  0.00000000000E+00 0.  1.
    9000005    2    1    2  501    0 -0.29060345503E+02 -0.10529306084E+02 -0.77604956654E+03  0.77667245242E+03  0.34349173848E+01 0.  0.
         13    1    3    3    0    0 -0.11217130626E+02 -0.47851938384E+01 -0.34507961317E+03  0.34529503547E+03  0.00000000000E+00 0.  1.
          3    1    3    3  501    0 -0.17843214876E+02 -0.57441122454E+01 -0.43096995337E+03  0.43137741695E+03  0.00000000000E+00 0.  1.
         -1    1    1    2    0  502  0.29060345503E+02  0.10529306084E+02 -0.22257100818E+03  0.22470697286E+03  0.00000000000E+00 0. -1.
<mgrwt>
<rscale>  1 0.30000000E+03</rscale>
<asrwt>0</asrwt>
<pdfrwt beam="1">  1       21 0.50161025E-02 0.30000000E+03</pdfrwt>
<pdfrwt beam="2">0</pdfrwt>
<totfact> 0.28647189E+04</totfact>
</mgrwt>
</event>
<event>
 6    1  0.1284012E-001  0.3000000E+03  0.7818608E-02  0.1093470E+00
         21   -1    0    0  501  502  0.00000000000E+00  0.00000000000E+00  0.12912213007E+01  0.12912213007E+01  0.00000000000E+00 0. -1.
         13   -1    0    0    0    0 -0.00000000000E+00 -0.00000000000E+00 -0.10000000000E+04  0.10000000000E+04  0.00000000000E+00 0.  1.
    9000005    2    1    2  501    0 -0.34702023586E+02 -0.81065247428E+01 -0.55261811419E+03  0.55377940342E+03  0.38602243542E+01 0.  0.
         13    1    3    3    0    0 -0.87996980457E+01 -0.40461420262E+00 -0.14228722161E+03  0.14255964307E+03  0.00000000000E+00 0.  1.
          1    1    3    3  501    0 -0.25902325540E+02 -0.77019105402E+01 -0.41033089258E+03  0.41121976035E+03  0.00000000000E+00 0.  1.
         -3    1    1    2    0  502  0.34702023586E+02  0.81065247428E+01 -0.44609066451E+03  0.44751181788E+03  0.00000000000E+00 0. -1.
<mgrwt>
<rscale>  1 0.30000000E+03</rscale>
<asrwt>0</asrwt>
<pdfrwt beam="1">  1       21 0.46953601E-02 0.30000000E+03</pdfrwt>
<pdfrwt beam="2">0</pdfrwt>
<totfact> 0.32058123E+04</totfact>
</mgrwt>
</event>
<event>
 6    1  0.1284012E-001  0.3000000E+03  0.7818608E-02  0.1093470E+00
         21   -1    0    0  501  502  0.00000000000E+00  0.00000000000E+00  0.41264397678E+01  0.41264397678E+01  0.00000000000E+00 0. -1.
         13   -1    0    0    0    0 -0.00000000000E+00 -0.00000000000E+00 -0.10000000000E+04  0.10000000000E+04  0.00000000000E+00 0.  1.
    9000005    2    1    2  501    0 -0.26211774768E+02  0.31374731193E+02 -0.88509887551E+03  0.88604823827E+03  0.31670517219E+01 0.  0.
         13    1    3    3    0    0 -0.44766612538E+01  0.70981280201E+01 -0.19506963108E+03  0.19525005733E+03  0.00000000000E+00 0.  1.
          1    1    3    3  501    0 -0.21735113514E+02  0.24276603173E+02 -0.69002924443E+03  0.69079818094E+03  0.00000000000E+00 0.  1.
         -3    1    1    2    0  502  0.26211774768E+02 -0.31374731193E+02 -0.11077468472E+03  0.11807820150E+03  0.00000000000E+00 0. -1.
<mgrwt>
<rscale>  1 0.30000000E+03</rscale>
<asrwt>0</asrwt>
<pdfrwt beam="1">  1       21 0.15005267E-01 0.30000000E+03</pdfrwt>
<pdfrwt beam="2">0</pdfrwt>
<totfact> 0.41153609E+03</totfact>
</mgrwt>
</event>
<event>
 6    1  0.1284012E-001  0.3000000E+03  0.7818608E-02  0.1093470E+00
         21   -1    0    0  501  502  0.00000000000E+00  0.00000000000E+00  0.95210186510E+00  0.95210186510E+00  0.00000000000E+00 0. -1.
         13   -1    0    0    0    0 -0.00000000000E+00 -0.00000000000E+00 -0.10000000000E+04  0.10000000000E+04  0.00000000000E+00 0.  1.
    9000005    2    1    2  501    0 -0.16273575223E+01 -0.30751850625E+02 -0.50945880498E+03  0.51039547441E+03  0.26347127956E+01 0.  0.
         13    1    3    3    0    0 -0.47934820680E+00 -0.16856506755E+02 -0.25816145129E+03  0.25871162812E+03  0.00000000000E+00 0.  1.
          3    1    3    3  501    0 -0.11480093155E+01 -0.13895343870E+02 -0.25129735370E+03  0.25168384629E+03  0.00000000000E+00 0.  1.
         -1    1    1    2    0  502  0.16273575223E+01  0.30751850625E+02 -0.48958909315E+03  0.49055662746E+03  0.00000000000E+00 0. -1.
<mgrwt>
<rscale>  1 0.30000000E+03</rscale>
<asrwt>0</asrwt>
<pdfrwt beam="1">  1       21 0.34621959E-02 0.30000000E+03</pdfrwt>
<pdfrwt beam="2">0</pdfrwt>
<totfact> 0.53581994E+04</totfact>
</mgrwt>
</event>
<event>
 6    1  0.1284012E-001  0.3000000E+03  0.7818608E-02  0.1093470E+00
         21   -1    0    0  501  502  0.00000000000E+00  0.00000000000E+00  0.10306392616E+01  0.10306392616E+01  0.00000000000E+00 0. -1.
         13   -1    0    0    0    0 -0.00000000000E+00 -0.00000000000E+00 -0.10000000000E+04  0.10000000000E+04  0.00000000000E+00 0.  1.
    9000005    2    1    2  501    0 -0.30412381874E+02 -0.89440138520E+01 -0.56792910724E+03  0.56882627962E+03  0.38674518589E+01 0.  0.
         13    1    3    3    0    0 -0.89673790366E+01 -0.93239076324E+00 -0.17119703142E+03  0.17143426380E+03  0.00000000000E+00 0.  1.
          1    1    3    3  501    0 -0.21445002837E+02 -0.80116230887E+01 -0.39673207582E+03  0.39739201582E+03  0.00000000000E+00 0.  1.
         -3    1    1    2    0  502  0.30412381874E+02  0.89440138520E+01 -0.43104025350E+03  0.43220435964E+03  0.00000000000E+00 0. -1.
<mgrwt>
<rscale>  1 0.30000000E+03</rscale>
<asrwt>0</asrwt>
<pdfrwt beam="1">  1       21 0.37477870E-02 0.30000000E+03</pdfrwt>
<pdfrwt beam="2">0</pdfrwt>
<totfact> 0.46913755E+04</totfact>
</mgrwt>
</event>
<event>
 6    1  0.1284012E-001  0.3000000E+03  0.7818608E-02  0.1093470E+00
         21   -1    0    0  501  502  0.00000000000E+00  0.00000000000E+00  0.12803677544E+01  0.12803677544E+01  0.00000000000E+00 0. -1.
         13   -1    0    0    0    0 -0.00000000000E+00 -0.00000000000E+00 -0.10000000000E+04  0.10000000000E+04  0.00000000000E+00 0.  1.
    9000005    2    1    2  501    0  0.17589550677E+02 -0.27269543945E+02 -0.70852811981E+03  0.70928013794E+03  0.36327950136E+01 0.  0.
         13    1    3    3    0    0  0.10992635300E+02 -0.15850095758E+02 -0.38396994497E+03  0.38445413537E+03  0.00000000000E+00 0.  1.
          3    1    3    3  501    0  0.65969153775E+01 -0.11419448187E+02 -0.32455817484E+03  0.32482600257E+03  0.00000000000E+00 0.  1.
         -1    1    1    2    0  502 -0.17589550677E+02  0.27269543945E+02 -0.29019151244E+03  0.29200022981E+03  0.00000000000E+00 0. -1.
<mgrwt>
<rscale>  1 0.30000000E+03</rscale>
<asrwt>0</asrwt>
<pdfrwt beam="1">  1       21 0.46558926E-02 0.30000000E+03</pdfrwt>
<pdfrwt beam="2">0</pdfrwt>
<totfact> 0.32521448E+04</totfact>
</mgrwt>
</event>
<event>
 6    1  0.1597202E+000  0.3000000E+03  0.7818608E-02  0.1093470E+00
         21   -1    0    0  501  502  0.00000000000E+00  0.00000000000E+00  0.10485722047E+01  0.10485722047E+01  0.00000000000E+00 0. -1.
         13   -1    0    0    0    0 -0.00000000000E+00 -0.00000000000E+00 -0.10000000000E+04  0.10000000000E+04  0.00000000000E+00 0.  1.
    9000005    2    1    2  501    0 -0.31560937002E+02  0.35240526285E+01 -0.59193278609E+03  0.59279290919E+03  0.32400989531E+01 0.  0.
         13    1    3    3    0    0 -0.31023706022E+02  0.32577062273E+01 -0.57092169190E+03  0.57177326036E+03  0.00000000000E+00 0.  1.
          3    1    3    3  501    0 -0.53723097997E+00  0.26634640121E+00 -0.21011094197E+02  0.21019648829E+02  0.00000000000E+00 0.  1.
         -3    1    1    2    0  502  0.31560937002E+02 -0.35240526285E+01 -0.40701864170E+03  0.40825566301E+03  0.00000000000E+00 0. -1.
<mgrwt>
<rscale>  1 0.30000000E+03</rscale>
<asrwt>0</asrwt>
<pdfrwt beam="1">  1       21 0.38129979E-02 0.30000000E+03</pdfrwt>
<pdfrwt beam="2">0</pdfrwt>
<totfact> 0.45573850E+04</totfact>
</mgrwt>
</event>
<event>
 6    1  0.1284012E-001  0.3000000E+03  0.7818608E-02  0.1093470E+00
         21   -1    0    0  501  502  0.00000000000E+00  0.00000000000E+00  0.45001209020E+01  0.45001209020E+01  0.00000000000E+00 0. -1.
         13   -1    0    0    0    0 -0.00000000000E+00 -0.00000000000E+00 -0.10000000000E+04  0.10000000000E+04  0.00000000000E+00 0.  1.
    9000005    2    1    2  501    0 -0.33523277033E+02  0.16074885326E+02 -0.91571051094E+03  0.91647424225E+03  0.41333789247E+01 0.  0.
         13    1    3    3    0    0 -0.31961438102E+02  0.14933019642E+02 -0.88500335325E+03  0.88570619500E+03  0.00000000000E+00 0.  1.
          1    1    3    3  501    0 -0.15618389306E+01  0.11418656844E+01 -0.30707157693E+02  0.30768047251E+02  0.00000000000E+00 0.  1.
         -3    1    1    2    0  502  0.33523277033E+02 -0.16074885326E+02 -0.79789368154E+02  0.88025878647E+02  0.00000000000E+00 0. -1.
<mgrwt>
<rscale>  1 0.30000000E+03</rscale>
<asrwt>0</asrwt>
<pdfrwt beam="1">  1       21 0.16364111E-01 0.30000000E+03</pdfrwt>
<pdfrwt beam="2">0</pdfrwt>
<totfact> 0.35025129E+03</totfact>
</mgrwt>
</event>
<event>
 6    1  0.1284012E-001  0.3000000E+03  0.7818608E-02  0.1093470E+00
         21   -1    0    0  501  502  0.00000000000E+00  0.00000000000E+00  0.51525317773E+01  0.51525317773E+01  0.00000000000E+00 0. -1.
         13   -1    0    0    0    0 -0.00000000000E+00 -0.00000000000E+00 -0.10000000000E+04  0.10000000000E+04  0.00000000000E+00 0.  1.
    9000005    2    1    2  501    0 -0.15708688395E+02  0.43280957153E+02 -0.88287428137E+03  0.88408230952E+03  0.38117135777E+01 0.  0.
         13    1    3    3    0    0 -0.60487330782E+01  0.12466062402E+02 -0.24634872093E+03  0.24673808419E+03  0.00000000000E+00 0.  1.
          3    1    3    3  501    0 -0.96599553166E+01  0.30814894751E+02 -0.63652556044E+03  0.63734422534E+03  0.00000000000E+00 0.  1.
         -3    1    1    2    0  502  0.15708688395E+02 -0.43280957153E+02 -0.11197318685E+03  0.12107022225E+03  0.00000000000E+00 0. -1.
<mgrwt>
<rscale>  1 0.30000000E+03</rscale>
<asrwt>0</asrwt>
<pdfrwt beam="1">  1       21 0.18736519E-01 0.30000000E+03</pdfrwt>
<pdfrwt beam="2">0</pdfrwt>
<totfact> 0.27159712E+03</totfact>
</mgrwt>
</event>
<event>
 6    1  0.1284012E-001  0.3000000E+03  0.7818608E-02  0.1093470E+00
         21   -1    0    0  501  502  0.00000000000E+00  0.00000000000E+00  0.50320091872E+01  0.50320091872E+01  0.00000000000E+00 0. -1.
         13   -1    0    0    0    0 -0.00000000000E+00 -0.00000000000E+00 -0.10000000000E+04  0.10000000000E+04  0.00000000000E+00 0.  1.
    9000005    2    1    2  501    0 -0.13338736169E+02 -0.44333666009E+02 -0.87813844488E+03  0.87936364154E+03  0.31448148307E+01 0.  0.
         13    1    3    3    0    0 -0.37777266592E+01 -0.17830253857E+02 -0.34073509623E+03  0.34122220762E+03  0.00000000000E+00 0.  1.
          3    1    3    3  501    0 -0.95610095098E+01 -0.26503412152E+02 -0.53740334866E+03  0.53814143392E+03  0.00000000000E+00 0.  1.
         -3    1    1    2    0  502  0.13338736169E+02  0.44333666009E+02 -0.11682954593E+03  0.12566836764E+03  0.00000000000E+00 0. -1.
<mgrwt>
<rscale>  1 0.30000000E+03</rscale>
<asrwt>0</asrwt>
<pdfrwt beam="1">  1       21 0.18298254E-01 0.30000000E+03</pdfrwt>
<pdfrwt beam="2">0</pdfrwt>
<totfact> 0.28401874E+03</totfact>
</mgrwt>
</event>
<event>
 6    1  0.1284012E-001  0.3000000E+03  0.7818608E-02  0.1093470E+00
         21   -1    0    0  501  502  0.00000000000E+00  0.00000000000E+00  0.12803307740E+01  0.12803307740E+01  0.00000000000E+00 0. -1.
         13   -1    0    0    0    0 -0.00000000000E+00 -0.00000000000E+00 -0.10000000000E+04  0.10000000000E+04  0.00000000000E+00 0.  1.
    9000005    2    1    2  501    0  0.22542800105E+01 -0.30506031927E+02 -0.75823434648E+03  0.75885737349E+03  0.30804796946E+01 0.  0.
         13    1    3    3    0    0  0.26150004770E+01 -0.17275388546E+02 -0.41307206183E+03  0.41344141731E+03  0.00000000000E+00 0.  1.
          3    1    3    3  501    0 -0.36072046655E+00 -0.13230643381E+02 -0.34516228464E+03  0.34541595618E+03  0.00000000000E+00 0.  1.
         -3    1    1    2    0  502 -0.22542800105E+01  0.30506031927E+02 -0.24048532275E+03  0.24242295729E+03  0.00000000000E+00 0. -1.
<mgrwt>
<rscale>  1 0.30000000E+03</rscale>
<asrwt>0</asrwt>
<pdfrwt beam="1">  1       21 0.46557581E-02 0.30000000E+03</pdfrwt>
<pdfrwt beam="2">0</pdfrwt>
<totfact> 0.32523044E+04</totfact>
</mgrwt>
</event>
<event>
 6    1  0.1284012E-001  0.3000000E+03  0.7818608E-02  0.1093470E+00
         21   -1    0    0  501  502  0.00000000000E+00  0.00000000000E+00  0.31761902846E+01  0.31761902846E+01  0.00000000000E+00 0. -1.
         13   -1    0    0    0    0 -0.00000000000E+00 -0.00000000000E+00 -0.10000000000E+04  0.10000000000E+04  0.00000000000E+00 0.  1.
    9000005    2    1    2  501    0  0.33592331490E+02  0.23772421296E+02 -0.84088751699E+03  0.84190095927E+03  0.34403843461E+01 0.  0.
         13    1    3    3    0    0  0.17891937026E+02  0.11975837553E+02 -0.47276499870E+03  0.47325499056E+03  0.00000000000E+00 0.  1.
          3    1    3    3  501    0  0.15700394464E+02  0.11796583744E+02 -0.36812251829E+03  0.36864596871E+03  0.00000000000E+00 0.  1.
         -3    1    1    2    0  502 -0.33592331490E+02 -0.23772421296E+02 -0.15593629273E+03  0.16127523101E+03  0.00000000000E+00 0. -1.
<mgrwt>
<rscale>  1 0.30000000E+03</rscale>
<asrwt>0</asrwt>
<pdfrwt beam="1">  1       21 0.11549807E-01 0.30000000E+03</pdfrwt>
<pdfrwt beam="2">0</pdfrwt>
<totfact> 0.66414859E+03</totfact>
</mgrwt>
</event>
<event>
 6    1  0.1284012E-001  0.3000000E+03  0.7818608E-02  0.1093470E+00
         21   -1    0    0  501  502  0.00000000000E+00  0.00000000000E+00  0.16381749332E+01  0.16381749332E+01  0.00000000000E+00 0. -1.
         13   -1    0    0    0    0 -0.00000000000E+00 -0.00000000000E+00 -0.10000000000E+04  0.10000000000E+04  0.00000000000E+00 0.  1.
    9000005    2    1    2  501    0  0.37081668102E+02  0.14614815050E+02 -0.58140747428E+03  0.58278310028E+03  0.35843950007E+01 0.  0.
         13    1    3    3    0    0  0.34091661479E+02  0.12345418988E+02 -0.52364591690E+03  0.52489970189E+03  0.00000000000E+00 0.  1.
          1    1    3    3  501    0  0.29900066222E+01  0.22693960618E+01 -0.57761557378E+02  0.57883398387E+02  0.00000000000E+00 0.  1.
         -1    1    1    2    0  502 -0.37081668102E+02 -0.14614815050E+02 -0.41695435078E+03  0.41885507466E+03  0.00000000000E+00 0. -1.
<mgrwt>
<rscale>  1 0.30000000E+03</rscale>
<asrwt>0</asrwt>
<pdfrwt beam="1">  1       21 0.59570123E-02 0.30000000E+03</pdfrwt>
<pdfrwt beam="2">0</pdfrwt>
<totfact> 0.21334562E+04</totfact>
</mgrwt>
</event>
<event>
 6    1  0.1284012E-001  0.3000000E+03  0.7818608E-02  0.1093470E+00
         21   -1    0    0  501  502  0.00000000000E+00  0.00000000000E+00  0.97113490024E+01  0.97113490024E+01  0.00000000000E+00 0. -1.
         13   -1    0    0    0    0 -0.00000000000E+00 -0.00000000000E+00 -0.10000000000E+04  0.10000000000E+04  0.00000000000E+00 0.  1.
    9000005    2    1    2  501    0  0.37203337632E+02  0.50608659984E+02 -0.88395918871E+03  0.88621527884E+03  0.69532970548E+01 0.  0.
         13    1    3    3    0    0  0.17047416552E+02  0.18688284586E+02 -0.32530727967E+03  0.32628927748E+03  0.00000000000E+00 0.  1.
          1    1    3    3  501    0  0.20155921080E+02  0.31920375398E+02 -0.55865190904E+03  0.55992600136E+03  0.00000000000E+00 0.  1.
         -1    1    1    2    0  502 -0.37203337632E+02 -0.50608659984E+02 -0.10632946229E+03  0.12349607017E+03  0.00000000000E+00 0. -1.
<mgrwt>
<rscale>  1 0.30000000E+03</rscale>
<asrwt>0</asrwt>
<pdfrwt beam="1">  1       21 0.35314071E-01 0.30000000E+03</pdfrwt>
<pdfrwt beam="2">0</pdfrwt>
<totfact> 0.78137705E+02</totfact>
</mgrwt>
</event>
<event>
 6    1  0.1284012E-001  0.3000000E+03  0.7818608E-02  0.1093470E+00
         21   -1    0    0  501  502  0.00000000000E+00  0.00000000000E+00  0.23569426818E+01  0.23569426818E+01  0.00000000000E+00 0. -1.
         13   -1    0    0    0    0 -0.00000000000E+00 -0.00000000000E+00 -0.10000000000E+04  0.10000000000E+04  0.00000000000E+00 0.  1.
    9000005    2    1    2  501    0  0.29328315462E+02  0.23209085711E+02 -0.81799568961E+03  0.81885765529E+03  0.34784573787E+01 0.  0.
         13    1    3    3    0    0  0.21539869106E+02  0.17628848271E+02 -0.57537256894E+03  0.57604542819E+03  0.00000000000E+00 0.  1.
          1    1    3    3  501    0  0.77884463558E+01  0.55802374395E+01 -0.24262312067E+03  0.24281222710E+03  0.00000000000E+00 0.  1.
         -1    1    1    2    0  502 -0.29328315462E+02 -0.23209085711E+02 -0.17964736771E+03  0.18349928739E+03  0.00000000000E+00 0. -1.
<mgrwt>
<rscale>  1 0.30000000E+03</rscale>
<asrwt>0</asrwt>
<pdfrwt beam="1">  1       21 0.85707187E-02 0.30000000E+03</pdfrwt>
<pdfrwt beam="2">0</pdfrwt>
<totfact> 0.11314686E+04</totfact>
</mgrwt>
</event>
<event>
 6    1  0.1284012E-001  0.3000000E+03  0.7818608E-02  0.1093470E+00
         21   -1    0    0  501  502  0.00000000000E+00  0.00000000000E+00  0.15170039967E+01  0.15170039967E+01  0.00000000000E+00 0. -1.
         13   -1    0    0    0    0 -0.00000000000E+00 -0.00000000000E+00 -0.10000000000E+04  0.10000000000E+04  0.00000000000E+00 0.  1.
    9000005    2    1    2  501    0  0.18958505465E+02  0.33913280504E+02 -0.50261111314E+03  0.50412534771E+03  0.38600042812E+01 0.  0.
         13    1    3    3    0    0  0.59048050885E+01  0.14259842700E+02 -0.20595154939E+03  0.20652905494E+03  0.00000000000E+00 0.  1.
          3    1    3    3  501    0  0.13053700376E+02  0.19653437804E+02 -0.29665956374E+03  0.29759629277E+03  0.00000000000E+00 0.  1.
         -1    1    1    2    0  502 -0.18958505465E+02 -0.33913280504E+02 -0.49587188287E+03  0.49739165629E+03  0.00000000000E+00 0. -1.
<mgrwt>
<rscale>  1 0.30000000E+03</rscale>
<asrwt>0</asrwt>
<pdfrwt beam="1">  1       21 0.55163898E-02 0.30000000E+03</pdfrwt>
<pdfrwt beam="2">0</pdfrwt>
<totfact> 0.24349585E+04</totfact>
</mgrwt>
</event>
<event>
 6    1  0.1284012E-001  0.3000000E+03  0.7818608E-02  0.1093470E+00
         21   -1    0    0  501  502  0.00000000000E+00  0.00000000000E+00  0.50702406674E+01  0.50702406674E+01  0.00000000000E+00 0. -1.
         13   -1    0    0    0    0 -0.00000000000E+00 -0.00000000000E+00 -0.10000000000E+04  0.10000000000E+04  0.00000000000E+00 0.  1.
    9000005    2    1    2  501    0  0.59668885799E+02  0.35484935479E+02 -0.60414798957E+03  0.60816981467E+03  0.74949046300E+01 0.  0.
         13    1    3    3    0    0  0.51669034077E+01  0.83330452057E+00 -0.47758509195E+02  0.48044422026E+02  0.00000000000E+00 0.  1.
          1    1    3    3  501    0  0.54501982391E+02  0.34651630958E+02 -0.55638948037E+03  0.56012539264E+03  0.00000000000E+00 0.  1.
         -3    1    1    2    0  502 -0.59668885799E+02 -0.35484935479E+02 -0.39078176976E+03  0.39690042600E+03  0.00000000000E+00 0. -1.
<mgrwt>
<rscale>  1 0.30000000E+03</rscale>
<asrwt>0</asrwt>
<pdfrwt beam="1">  1       21 0.18437278E-01 0.30000000E+03</pdfrwt>
<pdfrwt beam="2">0</pdfrwt>
<totfact> 0.27998969E+03</totfact>
</mgrwt>
</event>
<event>
 6    1  0.1284012E-001  0.3000000E+03  0.7818608E-02  0.1093470E+00
         21   -1    0    0  501  502  0.00000000000E+00  0.00000000000E+00  0.13664834878E+01  0.13664834878E+01  0.00000000000E+00 0. -1.
         13   -1    0    0    0    0 -0.00000000000E+00 -0.00000000000E+00 -0.10000000000E+04  0.10000000000E+04  0.00000000000E+00 0.  1.
    9000005    2    1    2  501    0  0.11359682595E+02 -0.35075100490E+02 -0.48043373630E+03  0.48185679419E+03  0.31764867676E+01 0.  0.
         13    1    3    3    0    0  0.45009229603E+01 -0.18136753073E+02 -0.25465504249E+03  0.25533975559E+03  0.00000000000E+00 0.  1.
          1    1    3    3  501    0  0.68587596344E+01 -0.16938347418E+02 -0.22577869381E+03  0.22651703860E+03  0.00000000000E+00 0.  1.
         -3    1    1    2    0  502 -0.11359682595E+02  0.35075100490E+02 -0.51819978021E+03  0.51950968930E+03  0.00000000000E+00 0. -1.
<mgrwt>
<rscale>  1 0.30000000E+03</rscale>
<asrwt>0</asrwt>
<pdfrwt beam="1">  1       21 0.49690413E-02 0.30000000E+03</pdfrwt>
<pdfrwt beam="2">0</pdfrwt>
<totfact> 0.29111213E+04</totfact>
</mgrwt>
</event>
<event>
 6    1  0.1284012E-001  0.3000000E+03  0.7818608E-02  0.1093470E+00
         21   -1    0    0  501  502  0.00000000000E+00  0.00000000000E+00  0.40377616651E+01  0.40377616651E+01  0.00000000000E+00 0. -1.
         13   -1    0    0    0    0 -0.00000000000E+00 -0.00000000000E+00 -0.10000000000E+04  0.10000000000E+04  0.00000000000E+00 0.  1.
    9000005    2    1    2  501    0 -0.46684042881E+02 -0.20514183313E+02 -0.79729244443E+03  0.79892823340E+03  0.32937204712E+01 0.  0.
         13    1    3    3    0    0 -0.26526857104E+02 -0.10364661039E+02 -0.42705276405E+03  0.42800135937E+03  0.00000000000E+00 0.  1.
          3    1    3    3  501    0 -0.20157185777E+02 -0.10149522275E+02 -0.37023968038E+03  0.37092687402E+03  0.00000000000E+00 0.  1.
         -1    1    1    2    0  502  0.46684042881E+02  0.20514183313E+02 -0.19866979391E+03  0.20510952827E+03  0.00000000000E+00 0. -1.
<mgrwt>
<rscale>  1 0.30000000E+03</rscale>
<asrwt>0</asrwt>
<pdfrwt beam="1">  1       21 0.14682801E-01 0.30000000E+03</pdfrwt>
<pdfrwt beam="2">0</pdfrwt>
<totfact> 0.42839986E+03</totfact>
</mgrwt>
</event>
<event>
 6    1  0.1284012E-001  0.3000000E+03  0.7818608E-02  0.1093470E+00
         21   -1    0    0  501  502  0.00000000000E+00  0.00000000000E+00  0.14232379673E+01  0.14232379673E+01  0.00000000000E+00 0. -1.
         13   -1    0    0    0    0 -0.00000000000E+00 -0.00000000000E+00 -0.10000000000E+04  0.10000000000E+04  0.00000000000E+00 0.  1.
    9000005    2    1    2  501    0  0.36323404481E+02 -0.86909197245E+01 -0.55123844241E+03  0.55252849083E+03  0.53843288195E+01 0.  0.
         13    1    3    3    0    0  0.16135044480E+01 -0.11535085043E+01 -0.18143892377E+02  0.18251980962E+02  0.00000000000E+00 0.  1.
          1    1    3    3  501    0  0.34709900033E+02 -0.75374112201E+01 -0.53309455003E+03  0.53427650987E+03  0.00000000000E+00 0.  1.
         -1    1    1    2    0  502 -0.36323404481E+02  0.86909197245E+01 -0.44733831963E+03  0.44889474714E+03  0.00000000000E+00 0. -1.
<mgrwt>
<rscale>  1 0.30000000E+03</rscale>
<asrwt>0</asrwt>
<pdfrwt beam="1">  1       21 0.51754217E-02 0.30000000E+03</pdfrwt>
<pdfrwt beam="2">0</pdfrwt>
<totfact> 0.27158782E+04</totfact>
</mgrwt>
</event>
<event>
 6    1  0.1284012E-001  0.3000000E+03  0.7818608E-02  0.1093470E+00
         21   -1    0    0  501  502  0.00000000000E+00  0.00000000000E+00  0.18848732967E+01  0.18848732967E+01  0.00000000000E+00 0. -1.
         13   -1    0    0    0    0 -0.00000000000E+00 -0.00000000000E+00 -0.10000000000E+04  0.10000000000E+04  0.00000000000E+00 0.  1.
    9000005    2    1    2  501    0 -0.37108536442E+02 -0.11025468020E+02 -0.72527922006E+03  0.72631630401E+03  0.26118969865E+01 0.  0.
         13    1    3    3    0    0 -0.46850443672E+01 -0.11917030698E+01 -0.10753410087E+03  0.10764270828E+03  0.00000000000E+00 0.  1.
          3    1    3    3  501    0 -0.32423492075E+02 -0.98337649504E+01 -0.61774511919E+03  0.61867359573E+03  0.00000000000E+00 0.  1.
         -1    1    1    2    0  502  0.37108536442E+02  0.11025468020E+02 -0.27283590665E+03  0.27556856928E+03  0.00000000000E+00 0. -1.
<mgrwt>
<rscale>  1 0.30000000E+03</rscale>
<asrwt>0</asrwt>
<pdfrwt beam="1">  1       21 0.68540992E-02 0.30000000E+03</pdfrwt>
<pdfrwt beam="2">0</pdfrwt>
<totfact> 0.16737226E+04</totfact>
</mgrwt>
</event>
<event>
 6    1  0.1284012E-001  0.3000000E+03  0.7818608E-02  0.1093470E+00
         21   -1    0    0  501  502  0.00000000000E+00  0.00000000000E+00  0.39871649930E+01  0.39871649930E+01  0.00000000000E+00 0. -1.
         13   -1    0    0    0    0 -0.00000000000E+00 -0.00000000000E+00 -0.10000000000E+04  0.10000000000E+04  0.00000000000E+00 0.  1.
    9000005    2    1    2  501    0 -0.30293267482E+02  0.60384312093E+00 -0.93838376978E+03  0.93887836498E+03  0.32308115952E+01 0.  0.
         13    1    3    3    0    0 -0.22146053346E+02  0.73065082196E+00 -0.64045831169E+03  0.64084150188E+03  0.00000000000E+00 0.  1.
          3    1    3    3  501    0 -0.81472141364E+01 -0.12680770102E+00 -0.29792545810E+03  0.29803686309E+03  0.00000000000E+00 0.  1.
         -1    1    1    2    0  502  0.30293267482E+02 -0.60384312093E+00 -0.57629065223E+02  0.65108800017E+02  0.00000000000E+00 0. -1.
<mgrwt>
<rscale>  1 0.30000000E+03</rscale>
<asrwt>0</asrwt>
<pdfrwt beam="1">  1       21 0.14498812E-01 0.30000000E+03</pdfrwt>
<pdfrwt beam="2">0</pdfrwt>
<totfact> 0.43848394E+03</totfact>
</mgrwt>
</event>
<event>
 6    1  0.1284012E-001  0.3000000E+03  0.7818608E-02  0.1093470E+00
         21   -1    0    0  501  502  0.00000000000E+00  0.00000000000E+00  0.22690464166E+01  0.22690464166E+01  0.00000000000E+00 0. -1.
         13   -1    0    0    0    0 -0.00000000000E+00 -0.00000000000E+00 -0.10000000000E+04  0.10000000000E+04  0.00000000000E+00 0.  1.
    9000005    2    1    2  501    0 -0.20373111575E+01 -0.44112580787E+02 -0.68538682415E+03  0.68681869277E+03  0.38402614121E+01 0.  0.
         13    1    3    3    0    0  0.10007041043E+01 -0.14156496815E+02 -0.23039714566E+03  0.23083382019E+03  0.00000000000E+00 0.  1.
          3    1    3    3  501    0 -0.30380152618E+01 -0.29956083972E+02 -0.45498967848E+03  0.45598487259E+03  0.00000000000E+00 0.  1.
         -1    1    1    2    0  502  0.20373111575E+01  0.44112580787E+02 -0.31234412944E+03  0.31545035364E+03  0.00000000000E+00 0. -1.
<mgrwt>
<rscale>  1 0.30000000E+03</rscale>
<asrwt>0</asrwt>
<pdfrwt beam="1">  1       21 0.82510953E-02 0.30000000E+03</pdfrwt>
<pdfrwt beam="2">0</pdfrwt>
<totfact> 0.12098353E+04</totfact>
</mgrwt>
</event>
<event>
 6    1  0.1284012E-001  0.3000000E+03  0.7818608E-02  0.1093470E+00
         21   -1    0    0  501  502  0.00000000000E+00  0.00000000000E+00  0.94500844488E+00  0.94500844488E+00  0.00000000000E+00 0. -1.
         13   -1    0    0    0    0 -0.00000000000E+00 -0.00000000000E+00 -0.10000000000E+04  0.10000000000E+04  0.00000000000E+00 0.  1.
    9000005    2    1    2  501    0 -0.30459185156E+01 -0.30255810205E+02 -0.43837658649E+03  0.43944259030E+03  0.33266981290E+01 0.  0.
         13    1    3    3    0    0 -0.70340389403E-01 -0.16667656743E+02 -0.23275354167E+03  0.23334958087E+03  0.00000000000E+00 0.  1.
          1    1    3    3  501    0 -0.29755781262E+01 -0.13588153462E+02 -0.20562304481E+03  0.20609300943E+03  0.00000000000E+00 0.  1.
         -3    1    1    2    0  502  0.30459185156E+01  0.30255810205E+02 -0.56067840507E+03  0.56150241814E+03  0.00000000000E+00 0. -1.
<mgrwt>
<rscale>  1 0.30000000E+03</rscale>
<asrwt>0</asrwt>
<pdfrwt beam="1">  1       21 0.34364016E-02 0.30000000E+03</pdfrwt>
<pdfrwt beam="2">0</pdfrwt>
<totfact> 0.54256460E+04</totfact>
</mgrwt>
</event>
<event>
 6    1  0.1284012E-001  0.3000000E+03  0.7818608E-02  0.1093470E+00
         21   -1    0    0  501  502  0.00000000000E+00  0.00000000000E+00  0.18791667861E+01  0.18791667861E+01  0.00000000000E+00 0. -1.
         13   -1    0    0    0    0 -0.00000000000E+00 -0.00000000000E+00 -0.10000000000E+04  0.10000000000E+04  0.00000000000E+00 0.  1.
    9000005    2    1    2  501    0 -0.73876382160E+01  0.38580435127E+02 -0.70970481915E+03  0.71080044146E+03  0.36482971568E+01 0.  0.
         13    1    3    3    0    0 -0.23664050205E+00  0.93736148180E+01 -0.17322759586E+03  0.17348118233E+03  0.00000000000E+00 0.  1.
          1    1    3    3  501    0 -0.71509977139E+01  0.29206820309E+02 -0.53647722329E+03  0.53731925913E+03  0.00000000000E+00 0.  1.
         -1    1    1    2    0  502  0.73876382160E+01 -0.38580435127E+02 -0.28841601406E+03  0.29107872533E+03  0.00000000000E+00 0. -1.
<mgrwt>
<rscale>  1 0.30000000E+03</rscale>
<asrwt>0</asrwt>
<pdfrwt beam="1">  1       21 0.68333482E-02 0.30000000E+03</pdfrwt>
<pdfrwt beam="2">0</pdfrwt>
<totfact> 0.16825625E+04</totfact>
</mgrwt>
</event>
<event>
 6    1  0.1284012E-001  0.3000000E+03  0.7818608E-02  0.1093470E+00
         21   -1    0    0  501  502  0.00000000000E+00  0.00000000000E+00  0.85135364857E+01  0.85135364857E+01  0.00000000000E+00 0. -1.
         13   -1    0    0    0    0 -0.00000000000E+00 -0.00000000000E+00 -0.10000000000E+04  0.10000000000E+04  0.00000000000E+00 0.  1.
    9000005    2    1    2  501    0  0.24658077046E+02 -0.31954647756E+02 -0.94899768432E+03  0.94990964042E+03  0.10129158010E+02 0.  0.
         13    1    3    3    0    0  0.17739117704E+02 -0.16141243843E+02 -0.48815517400E+03  0.48874399225E+03  0.00000000000E+00 0.  1.
          3    1    3    3  501    0  0.69189593420E+01 -0.15813403913E+02 -0.46084251031E+03  0.46116564817E+03  0.00000000000E+00 0.  1.
         -3    1    1    2    0  502 -0.24658077046E+02  0.31954647756E+02 -0.42488779199E+02  0.58603896070E+02  0.00000000000E+00 0. -1.
<mgrwt>
<rscale>  1 0.30000000E+03</rscale>
<asrwt>0</asrwt>
<pdfrwt beam="1">  1       21 0.30958380E-01 0.30000000E+03</pdfrwt>
<pdfrwt beam="2">0</pdfrwt>
<totfact> 0.10208375E+03</totfact>
</mgrwt>
</event>
<event>
 6    1  0.1284012E-001  0.3000000E+03  0.7818608E-02  0.1093470E+00
         21   -1    0    0  501  502  0.00000000000E+00  0.00000000000E+00  0.10240570111E+01  0.10240570111E+01  0.00000000000E+00 0. -1.
         13   -1    0    0    0    0 -0.00000000000E+00 -0.00000000000E+00 -0.10000000000E+04  0.10000000000E+04  0.00000000000E+00 0.  1.
    9000005    2    1    2  501    0 -0.25612275799E+02  0.18279150532E+02 -0.58213720379E+03  0.58299935618E+03  0.37959508983E+01 0.  0.
         13    1    3    3    0    0 -0.13333804091E+02  0.79927976564E+01 -0.31317936530E+03  0.31356496934E+03  0.00000000000E+00 0.  1.
          1    1    3    3  501    0 -0.12278471708E+02  0.10286352875E+02 -0.26895783849E+03  0.26943438683E+03  0.00000000000E+00 0.  1.
         -3    1    1    2    0  502  0.25612275799E+02 -0.18279150532E+02 -0.41683873919E+03  0.41802470084E+03  0.00000000000E+00 0. -1.
<mgrwt>
<rscale>  1 0.30000000E+03</rscale>
<asrwt>0</asrwt>
<pdfrwt beam="1">  1       21 0.37238515E-02 0.30000000E+03</pdfrwt>
<pdfrwt beam="2">0</pdfrwt>
<totfact> 0.47421163E+04</totfact>
</mgrwt>
</event>
<event>
 6    1  0.1284012E-001  0.3000000E+03  0.7818608E-02  0.1093470E+00
         21   -1    0    0  501  502  0.00000000000E+00  0.00000000000E+00  0.36080908932E+01  0.36080908932E+01  0.00000000000E+00 0. -1.
         13   -1    0    0    0    0 -0.00000000000E+00 -0.00000000000E+00 -0.10000000000E+04  0.10000000000E+04  0.00000000000E+00 0.  1.
    9000005    2    1    2  501    0 -0.23015008100E+02  0.35171091126E+02 -0.85620696027E+03  0.85725742937E+03  0.57658599331E+01 0.  0.
         13    1    3    3    0    0 -0.26060688027E+01  0.31259383326E+01 -0.55105987839E+02  0.55256067367E+02  0.00000000000E+00 0.  1.
          3    1    3    3  501    0 -0.20408939297E+02  0.32045152794E+02 -0.80110097243E+03  0.80200136200E+03  0.00000000000E+00 0.  1.
         -3    1    1    2    0  502  0.23015008100E+02 -0.35171091126E+02 -0.14018494884E+03  0.14635066153E+03  0.00000000000E+00 0. -1.
<mgrwt>
<rscale>  1 0.30000000E+03</rscale>
<asrwt>0</asrwt>
<pdfrwt beam="1">  1       21 0.13120358E-01 0.30000000E+03</pdfrwt>
<pdfrwt beam="2">0</pdfrwt>
<totfact> 0.52671027E+03</totfact>
</mgrwt>
</event>
<event>
 6    1  0.1284012E-001  0.3000000E+03  0.7818608E-02  0.1093470E+00
         21   -1    0    0  501  502  0.00000000000E+00  0.00000000000E+00  0.11050332358E+01  0.11050332358E+01  0.00000000000E+00 0. -1.
         13   -1    0    0    0    0 -0.00000000000E+00 -0.00000000000E+00 -0.10000000000E+04  0.10000000000E+04  0.00000000000E+00 0.  1.
    9000005    2    1    2  501    0  0.24744892400E+02 -0.20907942909E+02 -0.60854419938E+03  0.60941233051E+03  0.28096607732E+01 0.  0.
         13    1    3    3    0    0  0.11428114144E+02 -0.10260735369E+02 -0.26367085094E+03  0.26411778077E+03  0.00000000000E+00 0.  1.
          3    1    3    3  501    0  0.13316778256E+02 -0.10647207540E+02 -0.34487334845E+03  0.34529454974E+03  0.00000000000E+00 0.  1.
         -3    1    1    2    0  502 -0.24744892400E+02  0.20907942909E+02 -0.39035076738E+03  0.39169270273E+03  0.00000000000E+00 0. -1.
<mgrwt>
<rscale>  1 0.30000000E+03</rscale>
<asrwt>0</asrwt>
<pdfrwt beam="1">  1       21 0.40183111E-02 0.30000000E+03</pdfrwt>
<pdfrwt beam="2">0</pdfrwt>
<totfact> 0.41725118E+04</totfact>
</mgrwt>
</event>
<event>
 6    1  0.1284012E-001  0.3000000E+03  0.7818608E-02  0.1093470E+00
         21   -1    0    0  501  502  0.00000000000E+00  0.00000000000E+00  0.15318369500E+01  0.15318369500E+01  0.00000000000E+00 0. -1.
         13   -1    0    0    0    0 -0.00000000000E+00 -0.00000000000E+00 -0.10000000000E+04  0.10000000000E+04  0.00000000000E+00 0.  1.
    9000005    2    1    2  501    0 -0.32231451703E+02 -0.82518698825E+01 -0.23957447838E+03  0.24190917768E+03  0.41424295004E+01 0.  0.
         13    1    3    3    0    0 -0.23762379714E+02 -0.72258114110E+01 -0.16744744939E+03  0.16927938843E+03  0.00000000000E+00 0.  1.
          1    1    3    3  501    0 -0.84690719889E+01 -0.10260584715E+01 -0.72127028988E+02  0.72629789254E+02  0.00000000000E+00 0.  1.
         -3    1    1    2    0  502  0.32231451703E+02  0.82518698825E+01 -0.75889368467E+03  0.75962265927E+03  0.00000000000E+00 0. -1.
<mgrwt>
<rscale>  1 0.30000000E+03</rscale>
<asrwt>0</asrwt>
<pdfrwt beam="1">  1       21 0.55703279E-02 0.30000000E+03</pdfrwt>
<pdfrwt beam="2">0</pdfrwt>
<totfact> 0.23946464E+04</totfact>
</mgrwt>
</event>
<event>
 6    1  0.1284012E-001  0.3000000E+03  0.7818608E-02  0.1093470E+00
         21   -1    0    0  501  502  0.00000000000E+00  0.00000000000E+00  0.33848472233E+01  0.33848472233E+01  0.00000000000E+00 0. -1.
         13   -1    0    0    0    0 -0.00000000000E+00 -0.00000000000E+00 -0.10000000000E+04  0.10000000000E+04  0.00000000000E+00 0.  1.
    9000005    2    1    2  501    0  0.34730972192E+02 -0.45668450679E+00 -0.90068798128E+03  0.90136293182E+03  0.31378745543E+01 0.  0.
         13    1    3    3    0    0  0.84013132631E+01 -0.13162936041E+01 -0.20466726491E+03  0.20484385277E+03  0.00000000000E+00 0.  1.
          1    1    3    3  501    0  0.26329658928E+02  0.85960909728E+00 -0.69602071637E+03  0.69651907905E+03  0.00000000000E+00 0.  1.
         -3    1    1    2    0  502 -0.34730972192E+02  0.45668450679E+00 -0.95927171499E+02  0.10202191540E+03  0.00000000000E+00 0. -1.
<mgrwt>
<rscale>  1 0.30000000E+03</rscale>
<asrwt>0</asrwt>
<pdfrwt beam="1">  1       21 0.12308561E-01 0.30000000E+03</pdfrwt>
<pdfrwt beam="2">0</pdfrwt>
<totfact> 0.59176496E+03</totfact>
</mgrwt>
</event>
<event>
 6    1  0.1284012E-001  0.3000000E+03  0.7818608E-02  0.1093470E+00
         21   -1    0    0  501  502  0.00000000000E+00  0.00000000000E+00  0.36143522923E+01  0.36143522923E+01  0.00000000000E+00 0. -1.
         13   -1    0    0    0    0 -0.00000000000E+00 -0.00000000000E+00 -0.10000000000E+04  0.10000000000E+04  0.00000000000E+00 0.  1.
    9000005    2    1    2  501    0  0.43787338541E+02  0.26045180255E+02 -0.76420729537E+03  0.76591187077E+03  0.35385092485E+01 0.  0.
         13    1    3    3    0    0  0.10084499900E+02  0.72023144290E+01 -0.16952850110E+03  0.16998083173E+03  0.00000000000E+00 0.  1.
          3    1    3    3  501    0  0.33702838641E+02  0.18842865826E+02 -0.59467879427E+03  0.59593103903E+03  0.00000000000E+00 0.  1.
         -3    1    1    2    0  502 -0.43787338541E+02 -0.26045180255E+02 -0.23217835233E+03  0.23770248152E+03  0.00000000000E+00 0. -1.
<mgrwt>
<rscale>  1 0.30000000E+03</rscale>
<asrwt>0</asrwt>
<pdfrwt beam="1">  1       21 0.13143127E-01 0.30000000E+03</pdfrwt>
<pdfrwt beam="2">0</pdfrwt>
<totfact> 0.52504396E+03</totfact>
</mgrwt>
</event>
<event>
 6    1  0.1284012E-001  0.3000000E+03  0.7818608E-02  0.1093470E+00
         21   -1    0    0  501  502  0.00000000000E+00  0.00000000000E+00  0.13318636347E+01  0.13318636347E+01  0.00000000000E+00 0. -1.
         13   -1    0    0    0    0 -0.00000000000E+00 -0.00000000000E+00 -0.10000000000E+04  0.10000000000E+04  0.00000000000E+00 0.  1.
    9000005    2    1    2  501    0  0.31375380257E+01  0.35039453587E+02 -0.63022921809E+03  0.63121722740E+03  0.29518442309E+01 0.  0.
         13    1    3    3    0    0  0.20066829553E+00  0.73216559704E+00 -0.79724313683E+01  0.80084952487E+01  0.00000000000E+00 0.  1.
          1    1    3    3  501    0  0.29368697302E+01  0.34307287990E+02 -0.62225678672E+03  0.62320873215E+03  0.00000000000E+00 0.  1.
         -3    1    1    2    0  502 -0.31375380257E+01 -0.35039453587E+02 -0.36843891828E+03  0.37011463623E+03  0.00000000000E+00 0. -1.
<mgrwt>
<rscale>  1 0.30000000E+03</rscale>
<asrwt>0</asrwt>
<pdfrwt beam="1">  1       21 0.48431507E-02 0.30000000E+03</pdfrwt>
<pdfrwt beam="2">0</pdfrwt>
<totfact> 0.30411781E+04</totfact>
</mgrwt>
</event>
<event>
 6    1  0.1284012E-001  0.3000000E+03  0.7818608E-02  0.1093470E+00
         21   -1    0    0  501  502  0.00000000000E+00  0.00000000000E+00  0.11589509555E+01  0.11589509555E+01  0.00000000000E+00 0. -1.
         13   -1    0    0    0    0 -0.00000000000E+00 -0.00000000000E+00 -0.10000000000E+04  0.10000000000E+04  0.00000000000E+00 0.  1.
    9000005    2    1    2  501    0  0.25578036440E+02  0.20414413912E+02 -0.37199391690E+03  0.37345813742E+03  0.45301154756E+01 0.  0.
         13    1    3    3    0    0  0.16855959167E+02  0.10906364774E+02 -0.21545540276E+03  0.21638877681E+03  0.00000000000E+00 0.  1.
          1    1    3    3  501    0  0.87220772732E+01  0.95080491386E+01 -0.15653851415E+03  0.15706936061E+03  0.00000000000E+00 0.  1.
         -1    1    1    2    0  502 -0.25578036440E+02 -0.20414413912E+02 -0.62684713214E+03  0.62770081354E+03  0.00000000000E+00 0. -1.
<mgrwt>
<rscale>  1 0.30000000E+03</rscale>
<asrwt>0</asrwt>
<pdfrwt beam="1">  1       21 0.42143760E-02 0.30000000E+03</pdfrwt>
<pdfrwt beam="2">0</pdfrwt>
<totfact> 0.38503623E+04</totfact>
</mgrwt>
</event>
<event>
 6    1  0.1284012E-001  0.3000000E+03  0.7818608E-02  0.1093470E+00
         21   -1    0    0  501  502  0.00000000000E+00  0.00000000000E+00  0.85069411916E+01  0.85069411916E+01  0.00000000000E+00 0. -1.
         13   -1    0    0    0    0 -0.00000000000E+00 -0.00000000000E+00 -0.10000000000E+04  0.10000000000E+04  0.00000000000E+00 0.  1.
    9000005    2    1    2  501    0  0.83314162019E+02  0.35361275304E+02 -0.59142759570E+03  0.59833131521E+03  0.47002565135E+01 0.  0.
         13    1    3    3    0    0  0.35689644377E+02  0.17630274206E+02 -0.25669289690E+03  0.25976108370E+03  0.00000000000E+00 0.  1.
          1    1    3    3  501    0  0.47624517642E+02  0.17731001098E+02 -0.33473469880E+03  0.33857023151E+03  0.00000000000E+00 0.  1.
         -1    1    1    2    0  502 -0.83314162019E+02 -0.35361275304E+02 -0.40006546310E+03  0.41017562599E+03  0.00000000000E+00 0. -1.
<mgrwt>
<rscale>  1 0.30000000E+03</rscale>
<asrwt>0</asrwt>
<pdfrwt beam="1">  1       21 0.30934397E-01 0.30000000E+03</pdfrwt>
<pdfrwt beam="2">0</pdfrwt>
<totfact> 0.10224289E+03</totfact>
</mgrwt>
</event>
<event>
 6    1  0.1284012E-001  0.3000000E+03  0.7818608E-02  0.1093470E+00
         21   -1    0    0  501  502  0.00000000000E+00  0.00000000000E+00  0.18267789401E+01  0.18267789401E+01  0.00000000000E+00 0. -1.
         13   -1    0    0    0    0 -0.00000000000E+00 -0.00000000000E+00 -0.10000000000E+04  0.10000000000E+04  0.00000000000E+00 0.  1.
    9000005    2    1    2  501    0 -0.23168334181E+02  0.28400335452E+02 -0.75596393641E+03  0.75686007032E+03  0.35131363396E+01 0.  0.
         13    1    3    3    0    0 -0.21864075983E+02  0.26632632168E+02 -0.72493800735E+03  0.72575646702E+03  0.00000000000E+00 0.  1.
          1    1    3    3  501    0 -0.13042581976E+01  0.17677032838E+01 -0.31025929058E+02  0.31103603300E+02  0.00000000000E+00 0.  1.
         -3    1    1    2    0  502  0.23168334181E+02 -0.28400335452E+02 -0.24220928465E+03  0.24496670862E+03  0.00000000000E+00 0. -1.
<mgrwt>
<rscale>  1 0.30000000E+03</rscale>
<asrwt>0</asrwt>
<pdfrwt beam="1">  1       21 0.66428465E-02 0.30000000E+03</pdfrwt>
<pdfrwt beam="2">0</pdfrwt>
<totfact> 0.17671788E+04</totfact>
</mgrwt>
</event>
<event>
 6    1  0.1284012E-001  0.3000000E+03  0.7818608E-02  0.1093470E+00
         21   -1    0    0  501  502  0.00000000000E+00  0.00000000000E+00  0.92794134412E+00  0.92794134412E+00  0.00000000000E+00 0. -1.
         13   -1    0    0    0    0 -0.00000000000E+00 -0.00000000000E+00 -0.10000000000E+04  0.10000000000E+04  0.00000000000E+00 0.  1.
    9000005    2    1    2  501    0 -0.21620946722E+02  0.21044666534E+02 -0.55402573616E+03  0.55486004013E+03  0.38476588316E+01 0.  0.
         13    1    3    3    0    0 -0.17733448768E+02  0.18987077208E+02 -0.48301106931E+03  0.48370929016E+03  0.00000000000E+00 0.  1.
          1    1    3    3  501    0 -0.38874979536E+01  0.20575893255E+01 -0.71014666845E+02  0.71150749970E+02  0.00000000000E+00 0.  1.
         -1    1    1    2    0  502  0.21620946722E+02 -0.21044666534E+02 -0.44504632250E+03  0.44606790122E+03  0.00000000000E+00 0. -1.
<mgrwt>
<rscale>  1 0.30000000E+03</rscale>
<asrwt>0</asrwt>
<pdfrwt beam="1">  1       21 0.33743393E-02 0.30000000E+03</pdfrwt>
<pdfrwt beam="2">0</pdfrwt>
<totfact> 0.55934525E+04</totfact>
</mgrwt>
</event>
<event>
 6    1  0.1284012E-001  0.3000000E+03  0.7818608E-02  0.1093470E+00
         21   -1    0    0  501  502  0.00000000000E+00  0.00000000000E+00  0.10469954735E+01  0.10469954735E+01  0.00000000000E+00 0. -1.
         13   -1    0    0    0    0 -0.00000000000E+00 -0.00000000000E+00 -0.10000000000E+04  0.10000000000E+04  0.00000000000E+00 0.  1.
    9000005    2    1    2  501    0 -0.47604472020E+01 -0.31576744435E+02 -0.57435316268E+03  0.57524800728E+03  0.29936194735E+01 0.  0.
         13    1    3    3    0    0 -0.47295560163E+01 -0.25158483098E+02 -0.47223958828E+03  0.47293291989E+03  0.00000000000E+00 0.  1.
          3    1    3    3  501    0 -0.30891185659E-01 -0.64182613369E+01 -0.10211357440E+03  0.10231508740E+03  0.00000000000E+00 0.  1.
         -3    1    1    2    0  502  0.47604472020E+01  0.31576744435E+02 -0.42459984185E+03  0.42579898819E+03  0.00000000000E+00 0. -1.
<mgrwt>
<rscale>  1 0.30000000E+03</rscale>
<asrwt>0</asrwt>
<pdfrwt beam="1">  1       21 0.38072643E-02 0.30000000E+03</pdfrwt>
<pdfrwt beam="2">0</pdfrwt>
<totfact> 0.45689233E+04</totfact>
</mgrwt>
</event>
<event>
 6    1  0.1284012E-001  0.3000000E+03  0.7818608E-02  0.1093470E+00
         21   -1    0    0  501  502  0.00000000000E+00  0.00000000000E+00  0.12209483279E+01  0.12209483279E+01  0.00000000000E+00 0. -1.
         13   -1    0    0    0    0 -0.00000000000E+00 -0.00000000000E+00 -0.10000000000E+04  0.10000000000E+04  0.00000000000E+00 0.  1.
    9000005    2    1    2  501    0  0.24971341626E+02 -0.22863120676E+02 -0.38126626126E+03  0.38278070343E+03  0.32885789858E+01 0.  0.
         13    1    3    3    0    0  0.12606504387E+02 -0.13653761127E+02 -0.20269038501E+03  0.20354051518E+03  0.00000000000E+00 0.  1.
          3    1    3    3  501    0  0.12364837239E+02 -0.92093595492E+01 -0.17857587625E+03  0.17924018824E+03  0.00000000000E+00 0.  1.
         -3    1    1    2    0  502 -0.24971341626E+02  0.22863120676E+02 -0.61751279041E+03  0.61844024490E+03  0.00000000000E+00 0. -1.
<mgrwt>
<rscale>  1 0.30000000E+03</rscale>
<asrwt>0</asrwt>
<pdfrwt beam="1">  1       21 0.44398215E-02 0.30000000E+03</pdfrwt>
<pdfrwt beam="2">0</pdfrwt>
<totfact> 0.35254047E+04</totfact>
</mgrwt>
</event>
<event>
 6    1  0.1284012E-001  0.3000000E+03  0.7818608E-02  0.1093470E+00
         21   -1    0    0  501  502  0.00000000000E+00  0.00000000000E+00  0.11826223844E+01  0.11826223844E+01  0.00000000000E+00 0. -1.
         13   -1    0    0    0    0 -0.00000000000E+00 -0.00000000000E+00 -0.10000000000E+04  0.10000000000E+04  0.00000000000E+00 0.  1.
    9000005    2    1    2  501    0 -0.21046881451E+02 -0.26537816449E+02 -0.58052573091E+03  0.58152189201E+03  0.32186502330E+01 0.  0.
         13    1    3    3    0    0 -0.20927289186E+01 -0.38057068638E+01 -0.61755464238E+02  0.61907998533E+02  0.00000000000E+00 0.  1.
          1    1    3    3  501    0 -0.18954152532E+02 -0.22732109585E+02 -0.51877026668E+03  0.51961389347E+03  0.00000000000E+00 0.  1.
         -1    1    1    2    0  502  0.21046881451E+02  0.26537816449E+02 -0.41829164670E+03  0.41966073038E+03  0.00000000000E+00 0. -1.
<mgrwt>
<rscale>  1 0.30000000E+03</rscale>
<asrwt>0</asrwt>
<pdfrwt beam="1">  1       21 0.43004541E-02 0.30000000E+03</pdfrwt>
<pdfrwt beam="2">0</pdfrwt>
<totfact> 0.37210098E+04</totfact>
</mgrwt>
</event>
<event>
 6    1  0.1284012E-001  0.3000000E+03  0.7818608E-02  0.1093470E+00
         21   -1    0    0  501  502  0.00000000000E+00  0.00000000000E+00  0.98634203747E+00  0.98634203747E+00  0.00000000000E+00 0. -1.
         13   -1    0    0    0    0 -0.00000000000E+00 -0.00000000000E+00 -0.10000000000E+04  0.10000000000E+04  0.00000000000E+00 0.  1.
    9000005    2    1    2  501    0  0.17498431925E+02 -0.24980905525E+02 -0.57538940526E+03  0.57626555347E+03  0.88757914509E+01 0.  0.
         13    1    3    3    0    0  0.79102101143E+01 -0.18677661340E+02 -0.36169135571E+03  0.36225966275E+03  0.00000000000E+00 0.  1.
          1    1    3    3  501    0  0.95882218110E+01 -0.63032441848E+01 -0.21369804955E+03  0.21400589072E+03  0.00000000000E+00 0.  1.
         -3    1    1    2    0  502 -0.17498431925E+02  0.24980905525E+02 -0.42362425270E+03  0.42472078857E+03  0.00000000000E+00 0. -1.
<mgrwt>
<rscale>  1 0.30000000E+03</rscale>
<asrwt>0</asrwt>
<pdfrwt beam="1">  1       21 0.35867059E-02 0.30000000E+03</pdfrwt>
<pdfrwt beam="2">0</pdfrwt>
<totfact> 0.50502649E+04</totfact>
</mgrwt>
</event>
<event>
 6    1  0.1284012E-001  0.3000000E+03  0.7818608E-02  0.1093470E+00
         21   -1    0    0  501  502  0.00000000000E+00  0.00000000000E+00  0.57917155012E+01  0.57917155012E+01  0.00000000000E+00 0. -1.
         13   -1    0    0    0    0 -0.00000000000E+00 -0.00000000000E+00 -0.10000000000E+04  0.10000000000E+04  0.00000000000E+00 0.  1.
    9000005    2    1    2  501    0  0.89578651108E+01 -0.43239294779E+02 -0.90662369796E+03  0.90770532623E+03  0.35425430756E+01 0.  0.
         13    1    3    3    0    0  0.14024891391E+01 -0.12469076158E+02 -0.23521774865E+03  0.23555218979E+03  0.00000000000E+00 0.  1.
          3    1    3    3  501    0  0.75553759717E+01 -0.30770218621E+02 -0.67140594931E+03  0.67215313644E+03  0.00000000000E+00 0.  1.
         -1    1    1    2    0  502 -0.89578651108E+01  0.43239294779E+02 -0.87584586543E+02  0.98086389271E+02  0.00000000000E+00 0. -1.
<mgrwt>
<rscale>  1 0.30000000E+03</rscale>
<asrwt>0</asrwt>
<pdfrwt beam="1">  1       21 0.21060828E-01 0.30000000E+03</pdfrwt>
<pdfrwt beam="2">0</pdfrwt>
<totfact> 0.21733380E+03</totfact>
</mgrwt>
</event>
<event>
 6    1  0.1284012E-001  0.3000000E+03  0.7818608E-02  0.1093470E+00
         21   -1    0    0  501  502  0.00000000000E+00  0.00000000000E+00  0.26783754219E+01  0.26783754219E+01  0.00000000000E+00 0. -1.
         13   -1    0    0    0    0 -0.00000000000E+00 -0.00000000000E+00 -0.10000000000E+04  0.10000000000E+04  0.00000000000E+00 0.  1.
    9000005    2    1    2  501    0  0.29600462326E+02  0.53994459179E+01 -0.90644165896E+03  0.90694693055E+03  0.33033852060E+01 0.  0.
         13    1    3    3    0    0  0.10503667857E+02  0.35661268711E+00 -0.30461432369E+03  0.30479557150E+03  0.00000000000E+00 0.  1.
          3    1    3    3  501    0  0.19096794469E+02  0.50428332307E+01 -0.60182733527E+03  0.60215135905E+03  0.00000000000E+00 0.  1.
         -1    1    1    2    0  502 -0.29600462326E+02 -0.53994459179E+01 -0.90879965622E+02  0.95731444873E+02  0.00000000000E+00 0. -1.
<mgrwt>
<rscale>  1 0.30000000E+03</rscale>
<asrwt>0</asrwt>
<pdfrwt beam="1">  1       21 0.97395675E-02 0.30000000E+03</pdfrwt>
<pdfrwt beam="2">0</pdfrwt>
<totfact> 0.90182466E+03</totfact>
</mgrwt>
</event>
<event>
 6    1  0.1284012E-001  0.3000000E+03  0.7818608E-02  0.1093470E+00
         21   -1    0    0  501  502  0.00000000000E+00  0.00000000000E+00  0.28132447093E+01  0.28132447093E+01  0.00000000000E+00 0. -1.
         13   -1    0    0    0    0 -0.00000000000E+00 -0.00000000000E+00 -0.10000000000E+04  0.10000000000E+04  0.00000000000E+00 0.  1.
    9000005    2    1    2  501    0 -0.33083250192E+02 -0.35346491713E+02 -0.70244645408E+03  0.70412323638E+03  0.38256028271E+01 0.  0.
         13    1    3    3    0    0 -0.21657014943E+02 -0.22183436044E+02 -0.47399655867E+03  0.47500933545E+03  0.00000000000E+00 0.  1.
          3    1    3    3  501    0 -0.11426235249E+02 -0.13163055670E+02 -0.22844989541E+03  0.22911390093E+03  0.00000000000E+00 0.  1.
         -1    1    1    2    0  502  0.33083250192E+02  0.35346491713E+02 -0.29474030121E+03  0.29869000833E+03  0.00000000000E+00 0. -1.
<mgrwt>
<rscale>  1 0.30000000E+03</rscale>
<asrwt>0</asrwt>
<pdfrwt beam="1">  1       21 0.10230002E-01 0.30000000E+03</pdfrwt>
<pdfrwt beam="2">0</pdfrwt>
<totfact> 0.82604038E+03</totfact>
</mgrwt>
</event>
<event>
 6    1  0.1284012E-001  0.3000000E+03  0.7818608E-02  0.1093470E+00
         21   -1    0    0  501  502  0.00000000000E+00  0.00000000000E+00  0.18899680330E+01  0.18899680330E+01  0.00000000000E+00 0. -1.
         13   -1    0    0    0    0 -0.00000000000E+00 -0.00000000000E+00 -0.10000000000E+04  0.10000000000E+04  0.00000000000E+00 0.  1.
    9000005    2    1    2  501    0  0.37770525744E+02  0.16301684428E+02 -0.34041264473E+03  0.34290725907E+03  0.35017285110E+01 0.  0.
         13    1    3    3    0    0  0.29611238987E+02  0.11169026026E+02 -0.26097733497E+03  0.26288921999E+03  0.00000000000E+00 0.  1.
          3    1    3    3  501    0  0.81592867571E+01  0.51326584016E+01 -0.79435309759E+02  0.80018039086E+02  0.00000000000E+00 0.  1.
         -1    1    1    2    0  502 -0.37770525744E+02 -0.16301684428E+02 -0.65769738724E+03  0.65898270896E+03  0.00000000000E+00 0. -1.
<mgrwt>
<rscale>  1 0.30000000E+03</rscale>
<asrwt>0</asrwt>
<pdfrwt beam="1">  1       21 0.68726255E-02 0.30000000E+03</pdfrwt>
<pdfrwt beam="2">0</pdfrwt>
<totfact> 0.16658903E+04</totfact>
</mgrwt>
</event>
<event>
 6    1  0.1284012E-001  0.3000000E+03  0.7818608E-02  0.1093470E+00
         21   -1    0    0  501  502  0.00000000000E+00  0.00000000000E+00  0.15493520585E+01  0.15493520585E+01  0.00000000000E+00 0. -1.
         13   -1    0    0    0    0 -0.00000000000E+00 -0.00000000000E+00 -0.10000000000E+04  0.10000000000E+04  0.00000000000E+00 0.  1.
    9000005    2    1    2  501    0 -0.10066187508E+02 -0.32699884728E+02 -0.74592328498E+03  0.74671473974E+03  0.32779375823E+01 0.  0.
         13    1    3    3    0    0 -0.60807044375E+01 -0.20200680525E+02 -0.49364324903E+03  0.49409381677E+03  0.00000000000E+00 0.  1.
          1    1    3    3  501    0 -0.39854830708E+01 -0.12499204203E+02 -0.25228003595E+03  0.25262092297E+03  0.00000000000E+00 0.  1.
         -3    1    1    2    0  502  0.10066187508E+02  0.32699884728E+02 -0.25252736296E+03  0.25483461232E+03  0.00000000000E+00 0. -1.
<mgrwt>
<rscale>  1 0.30000000E+03</rscale>
<asrwt>0</asrwt>
<pdfrwt beam="1">  1       21 0.56340194E-02 0.30000000E+03</pdfrwt>
<pdfrwt beam="2">0</pdfrwt>
<totfact> 0.23483516E+04</totfact>
</mgrwt>
</event>
<event>
 6    1  0.1284012E-001  0.3000000E+03  0.7818608E-02  0.1093470E+00
         21   -1    0    0  501  502  0.00000000000E+00  0.00000000000E+00  0.12413272099E+01  0.12413272099E+01  0.00000000000E+00 0. -1.
         13   -1    0    0    0    0 -0.00000000000E+00 -0.00000000000E+00 -0.10000000000E+04  0.10000000000E+04  0.00000000000E+00 0.  1.
    9000005    2    1    2  501    0  0.33104150429E+02 -0.60680170389E+01 -0.63282904829E+03  0.63376725236E+03  0.74578942689E+01 0.  0.
         13    1    3    3    0    0  0.84908944081E+01  0.84286377499E+00 -0.20226863895E+03  0.20244853175E+03  0.00000000000E+00 0.  1.
          1    1    3    3  501    0  0.24613256021E+02 -0.69108808139E+01 -0.43056040935E+03  0.43131872060E+03  0.00000000000E+00 0.  1.
         -1    1    1    2    0  502 -0.33104150429E+02  0.60680170389E+01 -0.36592962450E+03  0.36747407485E+03  0.00000000000E+00 0. -1.
<mgrwt>
<rscale>  1 0.30000000E+03</rscale>
<asrwt>0</asrwt>
<pdfrwt beam="1">  1       21 0.45139266E-02 0.30000000E+03</pdfrwt>
<pdfrwt beam="2">0</pdfrwt>
<totfact> 0.34277958E+04</totfact>
</mgrwt>
</event>
<event>
 6    1  0.1284012E-001  0.3000000E+03  0.7818608E-02  0.1093470E+00
         21   -1    0    0  501  502  0.00000000000E+00  0.00000000000E+00  0.16187108924E+01  0.16187108924E+01  0.00000000000E+00 0. -1.
         13   -1    0    0    0    0 -0.00000000000E+00 -0.00000000000E+00 -0.10000000000E+04  0.10000000000E+04  0.00000000000E+00 0.  1.
    9000005    2    1    2  501    0 -0.21451465758E+02 -0.23238012753E+02 -0.80829441405E+03  0.80891896858E+03  0.31412285646E+01 0.  0.
         13    1    3    3    0    0 -0.79480215920E+00 -0.18969914996E+01 -0.60548153176E+02  0.60583076351E+02  0.00000000000E+00 0.  1.
          1    1    3    3  501    0 -0.20656663599E+02 -0.21341021254E+02 -0.74774626088E+03  0.74833589223E+03  0.00000000000E+00 0.  1.
         -3    1    1    2    0  502  0.21451465758E+02  0.23238012753E+02 -0.19008687506E+03  0.19269974231E+03  0.00000000000E+00 0. -1.
<mgrwt>
<rscale>  1 0.30000000E+03</rscale>
<asrwt>0</asrwt>
<pdfrwt beam="1">  1       21 0.58862338E-02 0.30000000E+03</pdfrwt>
<pdfrwt beam="2">0</pdfrwt>
<totfact> 0.21778694E+04</totfact>
</mgrwt>
</event>
<event>
 6    1  0.1284012E-001  0.3000000E+03  0.7818608E-02  0.1093470E+00
         21   -1    0    0  501  502  0.00000000000E+00  0.00000000000E+00  0.11569971288E+01  0.11569971288E+01  0.00000000000E+00 0. -1.
         13   -1    0    0    0    0 -0.00000000000E+00 -0.00000000000E+00 -0.10000000000E+04  0.10000000000E+04  0.00000000000E+00 0.  1.
    9000005    2    1    2  501    0 -0.20940463553E+02  0.22776655100E+02 -0.70369120176E+03  0.70438795439E+03  0.48789156723E+01 0.  0.
         13    1    3    3    0    0 -0.49966651873E+01  0.32090620864E+01 -0.10952963128E+03  0.10969049581E+03  0.00000000000E+00 0.  1.
          3    1    3    3  501    0 -0.15943798366E+02  0.19567593014E+02 -0.59416157048E+03  0.59469745857E+03  0.00000000000E+00 0.  1.
         -1    1    1    2    0  502  0.20940463553E+02 -0.22776655100E+02 -0.29515180111E+03  0.29676904274E+03  0.00000000000E+00 0. -1.
<mgrwt>
<rscale>  1 0.30000000E+03</rscale>
<asrwt>0</asrwt>
<pdfrwt beam="1">  1       21 0.42072712E-02 0.30000000E+03</pdfrwt>
<pdfrwt beam="2">0</pdfrwt>
<totfact> 0.38613501E+04</totfact>
</mgrwt>
</event>
<event>
 6    1  0.1284012E-001  0.3000000E+03  0.7818608E-02  0.1093470E+00
         21   -1    0    0  501  502  0.00000000000E+00  0.00000000000E+00  0.59353346295E+01  0.59353346295E+01  0.00000000000E+00 0. -1.
         13   -1    0    0    0    0 -0.00000000000E+00 -0.00000000000E+00 -0.10000000000E+04  0.10000000000E+04  0.00000000000E+00 0.  1.
    9000005    2    1    2  501    0  0.32758695622E+02 -0.47596186700E+02 -0.82958327965E+03  0.83160044032E+03  0.35135920557E+01 0.  0.
         13    1    3    3    0    0  0.26658813834E+02 -0.40932231664E+02 -0.70378184061E+03  0.70547503083E+03  0.00000000000E+00 0.  1.
          1    1    3    3  501    0  0.60998817880E+01 -0.66639550363E+01 -0.12580143904E+03  0.12612540949E+03  0.00000000000E+00 0.  1.
         -1    1    1    2    0  502 -0.32758695622E+02  0.47596186700E+02 -0.16448138572E+03  0.17433489431E+03  0.00000000000E+00 0. -1.
<mgrwt>
<rscale>  1 0.30000000E+03</rscale>
<asrwt>0</asrwt>
<pdfrwt beam="1">  1       21 0.21583081E-01 0.30000000E+03</pdfrwt>
<pdfrwt beam="2">0</pdfrwt>
<totfact> 0.20735165E+03</totfact>
</mgrwt>
</event>
<event>
 6    1  0.1284012E-001  0.3000000E+03  0.7818608E-02  0.1093470E+00
         21   -1    0    0  501  502  0.00000000000E+00  0.00000000000E+00  0.24478790319E+01  0.24478790319E+01  0.00000000000E+00 0. -1.
         13   -1    0    0    0    0 -0.00000000000E+00 -0.00000000000E+00 -0.10000000000E+04  0.10000000000E+04  0.00000000000E+00 0.  1.
    9000005    2    1    2  501    0  0.28184297511E+00  0.31558028818E+02 -0.88462192143E+03  0.88519081704E+03  0.32939468861E+01 0.  0.
         13    1    3    3    0    0  0.59565205597E+00  0.14470776028E+02 -0.36224697439E+03  0.36253638247E+03  0.00000000000E+00 0.  1.
          1    1    3    3  501    0 -0.31380908087E+00  0.17087252790E+02 -0.52237494704E+03  0.52265443457E+03  0.00000000000E+00 0.  1.
         -3    1    1    2    0  502 -0.28184297511E+00 -0.31558028818E+02 -0.11293019954E+03  0.11725706199E+03  0.00000000000E+00 0. -1.
<mgrwt>
<rscale>  1 0.30000000E+03</rscale>
<asrwt>0</asrwt>
<pdfrwt beam="1">  1       21 0.89013971E-02 0.30000000E+03</pdfrwt>
<pdfrwt beam="2">0</pdfrwt>
<totfact> 0.10582528E+04</totfact>
</mgrwt>
</event>
<event>
 6    1  0.1284012E-001  0.3000000E+03  0.7818608E-02  0.1093470E+00
         21   -1    0    0  501  502  0.00000000000E+00  0.00000000000E+00  0.12105619801E+01  0.12105619801E+01  0.00000000000E+00 0. -1.
         13   -1    0    0    0    0 -0.00000000000E+00 -0.00000000000E+00 -0.10000000000E+04  0.10000000000E+04  0.00000000000E+00 0.  1.
    9000005    2    1    2  501    0  0.28710655539E+02  0.13393433927E+02 -0.70450461718E+03  0.70522535696E+03  0.35160571435E+01 0.  0.
         13    1    3    3    0    0  0.26019595587E+02  0.12532967979E+02 -0.61773394573E+03  0.61840870171E+03  0.00000000000E+00 0.  1.
          1    1    3    3  501    0  0.26910599520E+01  0.86046594856E+00 -0.86770671451E+02  0.86816655253E+02  0.00000000000E+00 0.  1.
         -1    1    1    2    0  502 -0.28710655539E+02 -0.13393433927E+02 -0.29428482084E+03  0.29598520502E+03  0.00000000000E+00 0. -1.
<mgrwt>
<rscale>  1 0.30000000E+03</rscale>
<asrwt>0</asrwt>
<pdfrwt beam="1">  1       21 0.44020528E-02 0.30000000E+03</pdfrwt>
<pdfrwt beam="2">0</pdfrwt>
<totfact> 0.35768131E+04</totfact>
</mgrwt>
</event>
<event>
 6    1  0.1284012E-001  0.3000000E+03  0.7818608E-02  0.1093470E+00
         21   -1    0    0  501  502  0.00000000000E+00  0.00000000000E+00  0.19246780393E+01  0.19246780393E+01  0.00000000000E+00 0. -1.
         13   -1    0    0    0    0 -0.00000000000E+00 -0.00000000000E+00 -0.10000000000E+04  0.10000000000E+04  0.00000000000E+00 0.  1.
    9000005    2    1    2  501    0  0.33936597063E+02 -0.11776425726E+02 -0.21316671788E+03  0.21619451215E+03  0.31049396753E+01 0.  0.
         13    1    3    3    0    0  0.42438112655E+01 -0.24642174919E+01 -0.32171190851E+02  0.32543322244E+02  0.00000000000E+00 0.  1.
          1    1    3    3  501    0  0.29692785798E+02 -0.93122082342E+01 -0.18099552703E+03  0.18365118991E+03  0.00000000000E+00 0.  1.
         -3    1    1    2    0  502 -0.33936597063E+02  0.11776425726E+02 -0.78490860408E+03  0.78573016588E+03  0.00000000000E+00 0. -1.
<mgrwt>
<rscale>  1 0.30000000E+03</rscale>
<asrwt>0</asrwt>
<pdfrwt beam="1">  1       21 0.69988440E-02 0.30000000E+03</pdfrwt>
<pdfrwt beam="2">0</pdfrwt>
<totfact> 0.16139925E+04</totfact>
</mgrwt>
</event>
<event>
 6    1  0.1284012E-001  0.3000000E+03  0.7818608E-02  0.1093470E+00
         21   -1    0    0  501  502  0.00000000000E+00  0.00000000000E+00  0.15042076086E+01  0.15042076086E+01  0.00000000000E+00 0. -1.
         13   -1    0    0    0    0 -0.00000000000E+00 -0.00000000000E+00 -0.10000000000E+04  0.10000000000E+04  0.00000000000E+00 0.  1.
    9000005    2    1    2  501    0 -0.22464044859E+02 -0.28156137496E+02 -0.68369752583E+03  0.68465195494E+03  0.29310730288E+01 0.  0.
         13    1    3    3    0    0 -0.15332726290E+02 -0.20538121337E+02 -0.46552318475E+03  0.46622820856E+03  0.00000000000E+00 0.  1.
          1    1    3    3  501    0 -0.71313185697E+01 -0.76180161595E+01 -0.21817434108E+03  0.21842374637E+03  0.00000000000E+00 0.  1.
         -1    1    1    2    0  502  0.22464044859E+02  0.28156137496E+02 -0.31479826656E+03  0.31685225267E+03  0.00000000000E+00 0. -1.
<mgrwt>
<rscale>  1 0.30000000E+03</rscale>
<asrwt>0</asrwt>
<pdfrwt beam="1">  1       21 0.54698574E-02 0.30000000E+03</pdfrwt>
<pdfrwt beam="2">0</pdfrwt>
<totfact> 0.24705814E+04</totfact>
</mgrwt>
</event>
<event>
 6    1  0.1284012E-001  0.3000000E+03  0.7818608E-02  0.1093470E+00
         21   -1    0    0  501  502  0.00000000000E+00  0.00000000000E+00  0.22290488286E+01  0.22290488286E+01  0.00000000000E+00 0. -1.
         13   -1    0    0    0    0 -0.00000000000E+00 -0.00000000000E+00 -0.10000000000E+04  0.10000000000E+04  0.00000000000E+00 0.  1.
    9000005    2    1    2  501    0 -0.40051063753E+02 -0.16770839590E+02 -0.69444902816E+03  0.69581505152E+03  0.37127400901E+01 0.  0.
         13    1    3    3    0    0 -0.11026157751E+02 -0.41682721014E+01 -0.21510611413E+03  0.21542885364E+03  0.00000000000E+00 0.  1.
          3    1    3    3  501    0 -0.29024906002E+02 -0.12602567488E+02 -0.47934291404E+03  0.48038619788E+03  0.00000000000E+00 0.  1.
         -3    1    1    2    0  502  0.40051063753E+02  0.16770839590E+02 -0.30332192301E+03  0.30641399731E+03  0.00000000000E+00 0. -1.
<mgrwt>
<rscale>  1 0.30000000E+03</rscale>
<asrwt>0</asrwt>
<pdfrwt beam="1">  1       21 0.81056492E-02 0.30000000E+03</pdfrwt>
<pdfrwt beam="2">0</pdfrwt>
<totfact> 0.12482761E+04</totfact>
</mgrwt>
</event>
<event>
 6    1  0.1284012E-001  0.3000000E+03  0.7818608E-02  0.1093470E+00
         21   -1    0    0  501  502  0.00000000000E+00  0.00000000000E+00  0.55396442176E+01  0.55396442176E+01  0.00000000000E+00 0. -1.
         13   -1    0    0    0    0 -0.00000000000E+00 -0.00000000000E+00 -0.10000000000E+04  0.10000000000E+04  0.00000000000E+00 0.  1.
    9000005    2    1    2  501    0  0.19932893917E+02  0.57808445410E+02 -0.78333174040E+03  0.78573421013E+03  0.55223936757E+01 0.  0.
         13    1    3    3    0    0  0.20167755330E+02  0.55080136196E+02 -0.74685261963E+03  0.74915245124E+03  0.00000000000E+00 0.  1.
          3    1    3    3  501    0 -0.23486141318E+00  0.27283092132E+01 -0.36479120775E+02  0.36581758891E+02  0.00000000000E+00 0.  1.
         -3    1    1    2    0  502 -0.19932893917E+02 -0.57808445410E+02 -0.21112861538E+03  0.21980543408E+03  0.00000000000E+00 0. -1.
<mgrwt>
<rscale>  1 0.30000000E+03</rscale>
<asrwt>0</asrwt>
<pdfrwt beam="1">  1       21 0.20144203E-01 0.30000000E+03</pdfrwt>
<pdfrwt beam="2">0</pdfrwt>
<totfact> 0.23665284E+03</totfact>
</mgrwt>
</event>
<event>
 6    1  0.1284012E-001  0.3000000E+03  0.7818608E-02  0.1093470E+00
         21   -1    0    0  501  502  0.00000000000E+00  0.00000000000E+00  0.19340497808E+01  0.19340497808E+01  0.00000000000E+00 0. -1.
         13   -1    0    0    0    0 -0.00000000000E+00 -0.00000000000E+00 -0.10000000000E+04  0.10000000000E+04  0.00000000000E+00 0.  1.
    9000005    2    1    2  501    0  0.36361931612E+02 -0.51189035002E+01 -0.77374769800E+03  0.77463013094E+03  0.42363132321E+01 0.  0.
         13    1    3    3    0    0  0.28385825943E+02 -0.23876963735E+01 -0.58007299041E+03  0.58077201242E+03  0.00000000000E+00 0.  1.
          3    1    3    3  501    0  0.79761056684E+01 -0.27312071267E+01 -0.19367470760E+03  0.19385811852E+03  0.00000000000E+00 0.  1.
         -1    1    1    2    0  502 -0.36361931612E+02  0.51189035002E+01 -0.22431825221E+03  0.22730391884E+03  0.00000000000E+00 0. -1.
<mgrwt>
<rscale>  1 0.30000000E+03</rscale>
<asrwt>0</asrwt>
<pdfrwt beam="1">  1       21 0.70329231E-02 0.30000000E+03</pdfrwt>
<pdfrwt beam="2">0</pdfrwt>
<totfact> 0.16004036E+04</totfact>
</mgrwt>
</event>
<event>
 6    1  0.1284012E-001  0.3000000E+03  0.7818608E-02  0.1093470E+00
         21   -1    0    0  501  502  0.00000000000E+00  0.00000000000E+00  0.28172352560E+01  0.28172352560E+01  0.00000000000E+00 0. -1.
         13   -1    0    0    0    0 -0.00000000000E+00 -0.00000000000E+00 -0.10000000000E+04  0.10000000000E+04  0.00000000000E+00 0.  1.
    9000005    2    1    2  501    0  0.14430918879E+02 -0.41330511003E+02 -0.78166610511E+03  0.78289931161E+03  0.36013452416E+01 0.  0.
         13    1    3    3    0    0  0.37406305505E+01 -0.13680265052E+02 -0.22910177457E+03  0.22954033432E+03  0.00000000000E+00 0.  1.
          1    1    3    3  501    0  0.10690288328E+02 -0.27650245952E+02 -0.55256433054E+03  0.55335897729E+03  0.00000000000E+00 0.  1.
         -3    1    1    2    0  502 -0.14430918879E+02  0.41330511003E+02 -0.21551665963E+03  0.21991792364E+03  0.00000000000E+00 0. -1.
<mgrwt>
<rscale>  1 0.30000000E+03</rscale>
<asrwt>0</asrwt>
<pdfrwt beam="1">  1       21 0.10244513E-01 0.30000000E+03</pdfrwt>
<pdfrwt beam="2">0</pdfrwt>
<totfact> 0.82394777E+03</totfact>
</mgrwt>
</event>
<event>
 6    1  0.1284012E-001  0.3000000E+03  0.7818608E-02  0.1093470E+00
         21   -1    0    0  501  502  0.00000000000E+00  0.00000000000E+00  0.14225281901E+01  0.14225281901E+01  0.00000000000E+00 0. -1.
         13   -1    0    0    0    0 -0.00000000000E+00 -0.00000000000E+00 -0.10000000000E+04  0.10000000000E+04  0.00000000000E+00 0.  1.
    9000005    2    1    2  501    0  0.30916766825E+02  0.11075208295E+02 -0.25548056851E+03  0.25760029512E+03  0.30140424774E+01 0.  0.
         13    1    3    3    0    0  0.19459944761E+02  0.79945671844E+01 -0.17162932702E+03  0.17291393365E+03  0.00000000000E+00 0.  1.
          1    1    3    3  501    0  0.11456822064E+02  0.30806411104E+01 -0.83851241487E+02  0.84686361478E+02  0.00000000000E+00 0.  1.
         -1    1    1    2    0  502 -0.30916766825E+02 -0.11075208295E+02 -0.74309690330E+03  0.74382223307E+03  0.00000000000E+00 0. -1.
<mgrwt>
<rscale>  1 0.30000000E+03</rscale>
<asrwt>0</asrwt>
<pdfrwt beam="1">  1       21 0.51728407E-02 0.30000000E+03</pdfrwt>
<pdfrwt beam="2">0</pdfrwt>
<totfact> 0.27181929E+04</totfact>
</mgrwt>
</event>
<event>
 6    1  0.1284012E-001  0.3000000E+03  0.7818608E-02  0.1093470E+00
         21   -1    0    0  501  502  0.00000000000E+00  0.00000000000E+00  0.14326495828E+01  0.14326495828E+01  0.00000000000E+00 0. -1.
         13   -1    0    0    0    0 -0.00000000000E+00 -0.00000000000E+00 -0.10000000000E+04  0.10000000000E+04  0.00000000000E+00 0.  1.
    9000005    2    1    2  501    0 -0.36056697754E+02 -0.50459980723E+01 -0.63303604601E+03  0.63409264080E+03  0.36460968108E+01 0.  0.
         13    1    3    3    0    0 -0.32481728442E+02 -0.37260750328E+01 -0.57902286330E+03  0.57994518925E+03  0.00000000000E+00 0.  1.
          3    1    3    3  501    0 -0.35749693115E+01 -0.13199230395E+01 -0.54013182713E+02  0.54147451549E+02  0.00000000000E+00 0.  1.
         -3    1    1    2    0  502  0.36056697754E+02  0.50459980723E+01 -0.36553130441E+03  0.36734000878E+03  0.00000000000E+00 0. -1.
<mgrwt>
<rscale>  1 0.30000000E+03</rscale>
<asrwt>0</asrwt>
<pdfrwt beam="1">  1       21 0.52096458E-02 0.30000000E+03</pdfrwt>
<pdfrwt beam="2">0</pdfrwt>
<totfact> 0.26854723E+04</totfact>
</mgrwt>
</event>
<event>
 6    1  0.1284012E-001  0.3000000E+03  0.7818608E-02  0.1093470E+00
         21   -1    0    0  501  502  0.00000000000E+00  0.00000000000E+00  0.23134369978E+01  0.23134369978E+01  0.00000000000E+00 0. -1.
         13   -1    0    0    0    0 -0.00000000000E+00 -0.00000000000E+00 -0.10000000000E+04  0.10000000000E+04  0.00000000000E+00 0.  1.
    9000005    2    1    2  501    0  0.42562316429E+01  0.32977678717E+02 -0.85997979399E+03  0.86064905533E+03  0.67755124609E+01 0.  0.
         13    1    3    3    0    0  0.77146056823E+00  0.26292594487E+02 -0.64077316289E+03  0.64131282691E+03  0.00000000000E+00 0.  1.
          3    1    3    3  501    0  0.34847710746E+01  0.66850842302E+01 -0.21920663110E+03  0.21933622842E+03  0.00000000000E+00 0.  1.
         -3    1    1    2    0  502 -0.42562316429E+01 -0.32977678717E+02 -0.13770676902E+03  0.14166438167E+03  0.00000000000E+00 0. -1.
<mgrwt>
<rscale>  1 0.30000000E+03</rscale>
<asrwt>0</asrwt>
<pdfrwt beam="1">  1       21 0.84125159E-02 0.30000000E+03</pdfrwt>
<pdfrwt beam="2">0</pdfrwt>
<totfact> 0.11692558E+04</totfact>
</mgrwt>
</event>
<event>
 6    1  0.1284012E-001  0.3000000E+03  0.7818608E-02  0.1093470E+00
         21   -1    0    0  501  502  0.00000000000E+00  0.00000000000E+00  0.15511317029E+01  0.15511317029E+01  0.00000000000E+00 0. -1.
         13   -1    0    0    0    0 -0.00000000000E+00 -0.00000000000E+00 -0.10000000000E+04  0.10000000000E+04  0.00000000000E+00 0.  1.
    9000005    2    1    2  501    0 -0.26098216216E+02 -0.22854228129E+02 -0.73087349152E+03  0.73173635284E+03  0.76548569207E+01 0.  0.
         13    1    3    3    0    0 -0.81641610785E+00  0.57200677849E+00 -0.14527174060E+02  0.14561336243E+02  0.00000000000E+00 0.  1.
          3    1    3    3  501    0 -0.25281800108E+02 -0.23426234908E+02 -0.71634631746E+03  0.71717501660E+03  0.00000000000E+00 0.  1.
         -3    1    1    2    0  502  0.26098216216E+02  0.22854228129E+02 -0.26757537678E+03  0.26981477886E+03  0.00000000000E+00 0. -1.
<mgrwt>
<rscale>  1 0.30000000E+03</rscale>
<asrwt>0</asrwt>
<pdfrwt beam="1">  1       21 0.56404908E-02 0.30000000E+03</pdfrwt>
<pdfrwt beam="2">0</pdfrwt>
<totfact> 0.23437248E+04</totfact>
</mgrwt>
</event>
<event>
 6    1  0.1284012E-001  0.3000000E+03  0.7818608E-02  0.1093470E+00
         21   -1    0    0  501  502  0.00000000000E+00  0.00000000000E+00  0.27125516533E+01  0.27125516533E+01  0.00000000000E+00 0. -1.
         13   -1    0    0    0    0 -0.00000000000E+00 -0.00000000000E+00 -0.10000000000E+04  0.10000000000E+04  0.00000000000E+00 0.  1.
    9000005    2    1    2  501    0 -0.16527341107E+02 -0.31255977737E+02 -0.86651242660E+03  0.86724227646E+03  0.39104318321E+01 0.  0.
         13    1    3    3    0    0 -0.92101080345E+01 -0.14133567813E+02 -0.38255783375E+03  0.38292960187E+03  0.00000000000E+00 0.  1.
          3    1    3    3  501    0 -0.73172330728E+01 -0.17122409924E+02 -0.48395459285E+03  0.48431267459E+03  0.00000000000E+00 0.  1.
         -1    1    1    2    0  502  0.16527341107E+02  0.31255977737E+02 -0.13077502175E+03  0.13547027519E+03  0.00000000000E+00 0. -1.
<mgrwt>
<rscale>  1 0.30000000E+03</rscale>
<asrwt>0</asrwt>
<pdfrwt beam="1">  1       21 0.98638450E-02 0.30000000E+03</pdfrwt>
<pdfrwt beam="2">0</pdfrwt>
<totfact> 0.88164558E+03</totfact>
</mgrwt>
</event>
<event>
 6    1  0.1284012E-001  0.3000000E+03  0.7818608E-02  0.1093470E+00
         21   -1    0    0  501  502  0.00000000000E+00  0.00000000000E+00  0.35050030653E+01  0.35050030653E+01  0.00000000000E+00 0. -1.
         13   -1    0    0    0    0 -0.00000000000E+00 -0.00000000000E+00 -0.10000000000E+04  0.10000000000E+04  0.00000000000E+00 0.  1.
    9000005    2    1    2  501    0 -0.12629510316E+02 -0.56369392140E+02 -0.39039330286E+03  0.39465668332E+03  0.31549750004E+01 0.  0.
         13    1    3    3    0    0 -0.52426596850E+01 -0.18311972841E+02 -0.13539396053E+03  0.13672724080E+03  0.00000000000E+00 0.  1.
          3    1    3    3  501    0 -0.73868506313E+01 -0.38057419299E+02 -0.25499934234E+03  0.25792944252E+03  0.00000000000E+00 0.  1.
         -3    1    1    2    0  502  0.12629510316E+02  0.56369392140E+02 -0.60610169407E+03  0.60884831975E+03  0.00000000000E+00 0. -1.
<mgrwt>
<rscale>  1 0.30000000E+03</rscale>
<asrwt>0</asrwt>
<pdfrwt beam="1">  1       21 0.12745493E-01 0.30000000E+03</pdfrwt>
<pdfrwt beam="2">0</pdfrwt>
<totfact> 0.55533217E+03</totfact>
</mgrwt>
</event>
<event>
 6    1  0.1284012E-001  0.3000000E+03  0.7818608E-02  0.1093470E+00
         21   -1    0    0  501  502  0.00000000000E+00  0.00000000000E+00  0.18818468853E+01  0.18818468853E+01  0.00000000000E+00 0. -1.
         13   -1    0    0    0    0 -0.00000000000E+00 -0.00000000000E+00 -0.10000000000E+04  0.10000000000E+04  0.00000000000E+00 0.  1.
    9000005    2    1    2  501    0 -0.18217625709E+01 -0.34464639877E+02 -0.80171083850E+03  0.80246528926E+03  0.43751204714E+01 0.  0.
         13    1    3    3    0    0 -0.19091079331E+00 -0.35297149917E+01 -0.56142055241E+02  0.56253228365E+02  0.00000000000E+00 0.  1.
          3    1    3    3  501    0 -0.16308517775E+01 -0.30934924885E+02 -0.74556878326E+03  0.74621206089E+03  0.00000000000E+00 0.  1.
         -3    1    1    2    0  502  0.18217625709E+01  0.34464639877E+02 -0.19640731462E+03  0.19941655763E+03  0.00000000000E+00 0. -1.
<mgrwt>
<rscale>  1 0.30000000E+03</rscale>
<asrwt>0</asrwt>
<pdfrwt beam="1">  1       21 0.68430940E-02 0.30000000E+03</pdfrwt>
<pdfrwt beam="2">0</pdfrwt>
<totfact> 0.16784019E+04</totfact>
</mgrwt>
</event>
<event>
 6    1  0.1284012E-001  0.3000000E+03  0.7818608E-02  0.1093470E+00
         21   -1    0    0  501  502  0.00000000000E+00  0.00000000000E+00  0.38613350082E+01  0.38613350082E+01  0.00000000000E+00 0. -1.
         13   -1    0    0    0    0 -0.00000000000E+00 -0.00000000000E+00 -0.10000000000E+04  0.10000000000E+04  0.00000000000E+00 0.  1.
    9000005    2    1    2  501    0  0.58372310180E+02 -0.14480048455E+02 -0.61763787184E+03  0.62061226611E+03  0.81268511308E+01 0.  0.
         13    1    3    3    0    0  0.26640044315E+02 -0.52488624786E+01 -0.31815350855E+03  0.31931003354E+03  0.00000000000E+00 0.  1.
          1    1    3    3  501    0  0.31732265865E+02 -0.92311859763E+01 -0.29948436330E+03  0.30130223257E+03  0.00000000000E+00 0.  1.
         -3    1    1    2    0  502 -0.58372310180E+02  0.14480048455E+02 -0.37850079315E+03  0.38324906890E+03  0.00000000000E+00 0. -1.
<mgrwt>
<rscale>  1 0.30000000E+03</rscale>
<asrwt>0</asrwt>
<pdfrwt beam="1">  1       21 0.14041248E-01 0.30000000E+03</pdfrwt>
<pdfrwt beam="2">0</pdfrwt>
<totfact> 0.46514626E+03</totfact>
</mgrwt>
</event>
<event>
 6    1  0.1284012E-001  0.3000000E+03  0.7818608E-02  0.1093470E+00
         21   -1    0    0  501  502  0.00000000000E+00  0.00000000000E+00  0.37747270002E+01  0.37747270002E+01  0.00000000000E+00 0. -1.
         13   -1    0    0    0    0 -0.00000000000E+00 -0.00000000000E+00 -0.10000000000E+04  0.10000000000E+04  0.00000000000E+00 0.  1.
    9000005    2    1    2  501    0 -0.12390433655E-01 -0.34097213788E+02 -0.91539958368E+03  0.91605122846E+03  0.55529474449E+01 0.  0.
         13    1    3    3    0    0 -0.87103969108E+00 -0.32828841056E+02 -0.88983582441E+03  0.89044162409E+03  0.00000000000E+00 0.  1.
          1    1    3    3  501    0  0.85864925743E+00 -0.12683727316E+01 -0.25563759273E+02  0.25609604373E+02  0.00000000000E+00 0.  1.
         -3    1    1    2    0  502  0.12390433655E-01  0.34097213788E+02 -0.80825689319E+02  0.87723498537E+02  0.00000000000E+00 0. -1.
<mgrwt>
<rscale>  1 0.30000000E+03</rscale>
<asrwt>0</asrwt>
<pdfrwt beam="1">  1       21 0.13726309E-01 0.30000000E+03</pdfrwt>
<pdfrwt beam="2">0</pdfrwt>
<totfact> 0.48492763E+03</totfact>
</mgrwt>
</event>
<event>
 6    1  0.1284012E-001  0.3000000E+03  0.7818608E-02  0.1093470E+00
         21   -1    0    0  501  502  0.00000000000E+00  0.00000000000E+00  0.13928412238E+01  0.13928412238E+01  0.00000000000E+00 0. -1.
         13   -1    0    0    0    0 -0.00000000000E+00 -0.00000000000E+00 -0.10000000000E+04  0.10000000000E+04  0.00000000000E+00 0.  1.
    9000005    2    1    2  501    0  0.32721256305E+02 -0.16552185297E+02 -0.58545034665E+03  0.58661192693E+03  0.40974354404E+01 0.  0.
         13    1    3    3    0    0  0.21672928718E+02 -0.11727153006E+02 -0.36340499425E+03  0.36423952531E+03  0.00000000000E+00 0.  1.
          3    1    3    3  501    0  0.11048327587E+02 -0.48250322903E+01 -0.22204535240E+03  0.22237240162E+03  0.00000000000E+00 0.  1.
         -1    1    1    2    0  502 -0.32721256305E+02  0.16552185297E+02 -0.41315681213E+03  0.41478091429E+03  0.00000000000E+00 0. -1.
<mgrwt>
<rscale>  1 0.30000000E+03</rscale>
<asrwt>0</asrwt>
<pdfrwt beam="1">  1       21 0.50648879E-02 0.30000000E+03</pdfrwt>
<pdfrwt beam="2">0</pdfrwt>
<totfact> 0.28178211E+04</totfact>
</mgrwt>
</event>
<event>
 6    1  0.1284012E-001  0.3000000E+03  0.7818608E-02  0.1093470E+00
         21   -1    0    0  501  502  0.00000000000E+00  0.00000000000E+00  0.15553176648E+01  0.15553176648E+01  0.00000000000E+00 0. -1.
         13   -1    0    0    0    0 -0.00000000000E+00 -0.00000000000E+00 -0.10000000000E+04  0.10000000000E+04  0.00000000000E+00 0.  1.
    9000005    2    1    2  501    0 -0.33313642847E+02  0.18610425871E+02 -0.62276667384E+03  0.62394425743E+03  0.34582616025E+01 0.  0.
         13    1    3    3    0    0 -0.74550692183E+01  0.42096747233E+01 -0.16464701154E+03  0.16486945692E+03  0.00000000000E+00 0.  1.
          3    1    3    3  501    0 -0.25858573629E+02  0.14400751147E+02 -0.45811966231E+03  0.45907480050E+03  0.00000000000E+00 0.  1.
         -1    1    1    2    0  502  0.33313642847E+02 -0.18610425871E+02 -0.37567800849E+03  0.37761106024E+03  0.00000000000E+00 0. -1.
<mgrwt>
<rscale>  1 0.30000000E+03</rscale>
<asrwt>0</asrwt>
<pdfrwt beam="1">  1       21 0.56557125E-02 0.30000000E+03</pdfrwt>
<pdfrwt beam="2">0</pdfrwt>
<totfact> 0.23328969E+04</totfact>
</mgrwt>
</event>
<event>
 6    1  0.1284012E-001  0.3000000E+03  0.7818608E-02  0.1093470E+00
         21   -1    0    0  501  502  0.00000000000E+00  0.00000000000E+00  0.25879717876E+01  0.25879717876E+01  0.00000000000E+00 0. -1.
         13   -1    0    0    0    0 -0.00000000000E+00 -0.00000000000E+00 -0.10000000000E+04  0.10000000000E+04  0.00000000000E+00 0.  1.
    9000005    2    1    2  501    0  0.26492748885E+01 -0.35938026138E+02 -0.85216883138E+03  0.85294123241E+03  0.42974864632E+01 0.  0.
         13    1    3    3    0    0  0.22785303069E+01 -0.34153085289E+02 -0.78206338827E+03  0.78281208998E+03  0.00000000000E+00 0.  1.
          3    1    3    3  501    0  0.37074458158E+00 -0.17849408491E+01 -0.70105443105E+02  0.70129142433E+02  0.00000000000E+00 0.  1.
         -1    1    1    2    0  502 -0.26492748885E+01  0.35938026138E+02 -0.14524319683E+03  0.14964673938E+03  0.00000000000E+00 0. -1.
<mgrwt>
<rscale>  1 0.30000000E+03</rscale>
<asrwt>0</asrwt>
<pdfrwt beam="1">  1       21 0.94108263E-02 0.30000000E+03</pdfrwt>
<pdfrwt beam="2">0</pdfrwt>
<totfact> 0.95873648E+03</totfact>
</mgrwt>
</event>
<event>
 6    1  0.1284012E-001  0.3000000E+03  0.7818608E-02  0.1093470E+00
         21   -1    0    0  501  502  0.00000000000E+00  0.00000000000E+00  0.80537513467E+01  0.80537513467E+01  0.00000000000E+00 0. -1.
         13   -1    0    0    0    0 -0.00000000000E+00 -0.00000000000E+00 -0.10000000000E+04  0.10000000000E+04  0.00000000000E+00 0.  1.
    9000005    2    1    2  501    0  0.48968291933E+01  0.42451969864E+02 -0.93914911981E+03  0.94012963563E+03  0.40637264919E+01 0.  0.
         13    1    3    3    0    0  0.30407373602E+01  0.33720902142E+02 -0.77253576804E+03  0.77327734884E+03  0.00000000000E+00 0.  1.
          1    1    3    3  501    0  0.18560918330E+01  0.87310677219E+01 -0.16661335177E+03  0.16685228679E+03  0.00000000000E+00 0.  1.
         -3    1    1    2    0  502 -0.48968291933E+01 -0.42451969864E+02 -0.52797128844E+02  0.67924115715E+02  0.00000000000E+00 0. -1.
<mgrwt>
<rscale>  1 0.30000000E+03</rscale>
<asrwt>0</asrwt>
<pdfrwt beam="1">  1       21 0.29286430E-01 0.30000000E+03</pdfrwt>
<pdfrwt beam="2">0</pdfrwt>
<totfact> 0.11408282E+03</totfact>
</mgrwt>
</event>
<event>
 6    1  0.1284012E-001  0.3000000E+03  0.7818608E-02  0.1093470E+00
         21   -1    0    0  501  502  0.00000000000E+00  0.00000000000E+00  0.25818648563E+01  0.25818648563E+01  0.00000000000E+00 0. -1.
         13   -1    0    0    0    0 -0.00000000000E+00 -0.00000000000E+00 -0.10000000000E+04  0.10000000000E+04  0.00000000000E+00 0.  1.
    9000005    2    1    2  501    0  0.22388378724E+02  0.30209254172E+02 -0.83561256475E+03  0.83646479424E+03  0.33399245885E+01 0.  0.
         13    1    3    3    0    0  0.16176938496E+02  0.19717699785E+02 -0.58550662518E+03  0.58606184755E+03  0.00000000000E+00 0.  1.
          3    1    3    3  501    0  0.62114402273E+01  0.10491554387E+02 -0.25010593957E+03  0.25040294669E+03  0.00000000000E+00 0.  1.
         -1    1    1    2    0  502 -0.22388378724E+02 -0.30209254172E+02 -0.16180557039E+03  0.16611707061E+03  0.00000000000E+00 0. -1.
<mgrwt>
<rscale>  1 0.30000000E+03</rscale>
<asrwt>0</asrwt>
<pdfrwt beam="1">  1       21 0.93886193E-02 0.30000000E+03</pdfrwt>
<pdfrwt beam="2">0</pdfrwt>
<totfact> 0.96277515E+03</totfact>
</mgrwt>
</event>
<event>
 6    1  0.1284012E-001  0.3000000E+03  0.7818608E-02  0.1093470E+00
         21   -1    0    0  501  502  0.00000000000E+00  0.00000000000E+00  0.13021506709E+01  0.13021506709E+01  0.00000000000E+00 0. -1.
         13   -1    0    0    0    0 -0.00000000000E+00 -0.00000000000E+00 -0.10000000000E+04  0.10000000000E+04  0.00000000000E+00 0.  1.
    9000005    2    1    2  501    0  0.28435469031E+02 -0.10681245060E+02 -0.76844463708E+03  0.76905399321E+03  0.37708504512E+01 0.  0.
         13    1    3    3    0    0  0.21231576446E+02 -0.70797411964E+01 -0.59919439143E+03  0.59961222577E+03  0.00000000000E+00 0.  1.
          3    1    3    3  501    0  0.72038925847E+01 -0.36015038635E+01 -0.16925024565E+03  0.16944176744E+03  0.00000000000E+00 0.  1.
         -3    1    1    2    0  502 -0.28435469031E+02  0.10681245060E+02 -0.23025321225E+03  0.23224815746E+03  0.00000000000E+00 0. -1.
<mgrwt>
<rscale>  1 0.30000000E+03</rscale>
<asrwt>0</asrwt>
<pdfrwt beam="1">  1       21 0.47351033E-02 0.30000000E+03</pdfrwt>
<pdfrwt beam="2">0</pdfrwt>
<totfact> 0.31601927E+04</totfact>
</mgrwt>
</event>
<event>
 6    1  0.1284012E-001  0.3000000E+03  0.7818608E-02  0.1093470E+00
         21   -1    0    0  501  502  0.00000000000E+00  0.00000000000E+00  0.57491453681E+01  0.57491453681E+01  0.00000000000E+00 0. -1.
         13   -1    0    0    0    0 -0.00000000000E+00 -0.00000000000E+00 -0.10000000000E+04  0.10000000000E+04  0.00000000000E+00 0.  1.
    9000005    2    1    2  501    0 -0.11228726962E+02 -0.31689916328E+02 -0.94783733741E+03  0.94843815439E+03  0.29965657033E+01 0.  0.
         13    1    3    3    0    0 -0.73785055745E+01 -0.17043365023E+02 -0.49973621598E+03  0.50008119760E+03  0.00000000000E+00 0.  1.
          1    1    3    3  501    0 -0.38502213878E+01 -0.14646551304E+02 -0.44810112143E+03  0.44835695679E+03  0.00000000000E+00 0.  1.
         -3    1    1    2    0  502  0.11228726962E+02  0.31689916328E+02 -0.46413517219E+02  0.57310990976E+02  0.00000000000E+00 0. -1.
<mgrwt>
<rscale>  1 0.30000000E+03</rscale>
<asrwt>0</asrwt>
<pdfrwt beam="1">  1       21 0.20906027E-01 0.30000000E+03</pdfrwt>
<pdfrwt beam="2">0</pdfrwt>
<totfact> 0.22042883E+03</totfact>
</mgrwt>
</event>
<event>
 6    1  0.1284012E-001  0.3000000E+03  0.7818608E-02  0.1093470E+00
         21   -1    0    0  501  502  0.00000000000E+00  0.00000000000E+00  0.18267596235E+01  0.18267596235E+01  0.00000000000E+00 0. -1.
         13   -1    0    0    0    0 -0.00000000000E+00 -0.00000000000E+00 -0.10000000000E+04  0.10000000000E+04  0.00000000000E+00 0.  1.
    9000005    2    1    2  501    0  0.30053445416E+02 -0.44395760948E+01 -0.85113359907E+03  0.85168157811E+03  0.31918023934E+01 0.  0.
         13    1    3    3    0    0  0.24465564711E+02 -0.34897409430E+01 -0.72407675706E+03  0.72449837285E+03  0.00000000000E+00 0.  1.
          1    1    3    3  501    0  0.55878807051E+01 -0.94983515177E+00 -0.12705684201E+03  0.12718320526E+03  0.00000000000E+00 0.  1.
         -3    1    1    2    0  502 -0.30053445416E+02  0.44395760948E+01 -0.14703964130E+03  0.15014518151E+03  0.00000000000E+00 0. -1.
<mgrwt>
<rscale>  1 0.30000000E+03</rscale>
<asrwt>0</asrwt>
<pdfrwt beam="1">  1       21 0.66427763E-02 0.30000000E+03</pdfrwt>
<pdfrwt beam="2">0</pdfrwt>
<totfact> 0.17672112E+04</totfact>
</mgrwt>
</event>
<event>
 6    1  0.1284012E-001  0.3000000E+03  0.7818608E-02  0.1093470E+00
         21   -1    0    0  501  502  0.00000000000E+00  0.00000000000E+00  0.10530607818E+02  0.10530607818E+02  0.00000000000E+00 0. -1.
         13   -1    0    0    0    0 -0.00000000000E+00 -0.00000000000E+00 -0.10000000000E+04  0.10000000000E+04  0.00000000000E+00 0.  1.
    9000005    2    1    2  501    0  0.42161614185E+02 -0.97413489445E+01 -0.95286197386E+03  0.95385081719E+03  0.35978642881E+01 0.  0.
         13    1    3    3    0    0  0.38358305026E+02 -0.90079297555E+01 -0.88744279575E+03  0.88831707070E+03  0.00000000000E+00 0.  1.
          1    1    3    3  501    0  0.38033091587E+01 -0.73341918902E+00 -0.65419178110E+02  0.65533746489E+02  0.00000000000E+00 0.  1.
         -1    1    1    2    0  502 -0.42161614185E+02  0.97413489445E+01 -0.36607418322E+02  0.56679790632E+02  0.00000000000E+00 0. -1.
<mgrwt>
<rscale>  1 0.30000000E+03</rscale>
<asrwt>0</asrwt>
<pdfrwt beam="1">  1       21 0.38293200E-01 0.30000000E+03</pdfrwt>
<pdfrwt beam="2">0</pdfrwt>
<totfact> 0.66135355E+02</totfact>
</mgrwt>
</event>
<event>
 6    1  0.1284012E-001  0.3000000E+03  0.7818608E-02  0.1093470E+00
         21   -1    0    0  501  502  0.00000000000E+00  0.00000000000E+00  0.18316310022E+01  0.18316310022E+01  0.00000000000E+00 0. -1.
         13   -1    0    0    0    0 -0.00000000000E+00 -0.00000000000E+00 -0.10000000000E+04  0.10000000000E+04  0.00000000000E+00 0.  1.
    9000005    2    1    2  501    0 -0.10288853166E+02 -0.29415627780E+02 -0.84204345624E+03  0.84262695757E+03  0.34449644394E+01 0.  0.
         13    1    3    3    0    0 -0.77732477259E+01 -0.24097685891E+02 -0.64853146428E+03  0.64902556345E+03  0.00000000000E+00 0.  1.
          3    1    3    3  501    0 -0.25156054399E+01 -0.53179418889E+01 -0.19351199195E+03  0.19360139412E+03  0.00000000000E+00 0.  1.
         -3    1    1    2    0  502  0.10288853166E+02  0.29415627780E+02 -0.15612491276E+03  0.15920467343E+03  0.00000000000E+00 0. -1.
<mgrwt>
<rscale>  1 0.30000000E+03</rscale>
<asrwt>0</asrwt>
<pdfrwt beam="1">  1       21 0.66604904E-02 0.30000000E+03</pdfrwt>
<pdfrwt beam="2">0</pdfrwt>
<totfact> 0.17590699E+04</totfact>
</mgrwt>
</event>
<event>
 6    1  0.1284012E-001  0.3000000E+03  0.7818608E-02  0.1093470E+00
         21   -1    0    0  501  502  0.00000000000E+00  0.00000000000E+00  0.57810794368E+01  0.57810794368E+01  0.00000000000E+00 0. -1.
         13   -1    0    0    0    0 -0.00000000000E+00 -0.00000000000E+00 -0.10000000000E+04  0.10000000000E+04  0.00000000000E+00 0.  1.
    9000005    2    1    2  501    0 -0.43107158571E+01  0.55506574565E+02 -0.83949998344E+03  0.84135020765E+03  0.32229847430E+01 0.  0.
         13    1    3    3    0    0 -0.37982842697E+01  0.50028398651E+02 -0.74092459998E+03  0.74262139108E+03  0.00000000000E+00 0.  1.
          3    1    3    3  501    0 -0.51243158740E+00  0.54781759138E+01 -0.98575383454E+02  0.98728816566E+02  0.00000000000E+00 0.  1.
         -3    1    1    2    0  502  0.43107158571E+01 -0.55506574565E+02 -0.15471893713E+03  0.16443087179E+03  0.00000000000E+00 0. -1.
<mgrwt>
<rscale>  1 0.30000000E+03</rscale>
<asrwt>0</asrwt>
<pdfrwt beam="1">  1       21 0.21022151E-01 0.30000000E+03</pdfrwt>
<pdfrwt beam="2">0</pdfrwt>
<totfact> 0.21810105E+03</totfact>
</mgrwt>
</event>
<event>
 6    1  0.1284012E-001  0.3000000E+03  0.7818608E-02  0.1093470E+00
         21   -1    0    0  501  502  0.00000000000E+00  0.00000000000E+00  0.15862123415E+01  0.15862123415E+01  0.00000000000E+00 0. -1.
         13   -1    0    0    0    0 -0.00000000000E+00 -0.00000000000E+00 -0.10000000000E+04  0.10000000000E+04  0.00000000000E+00 0.  1.
    9000005    2    1    2  501    0 -0.35491447572E+02  0.10009272029E+02 -0.31325743285E+03  0.31543822618E+03  0.33506601291E+01 0.  0.
         13    1    3    3    0    0 -0.15040484364E+01  0.27290338940E+00 -0.84374474365E+01  0.85747977936E+01  0.00000000000E+00 0.  1.
          1    1    3    3  501    0 -0.33987399136E+02  0.97363686396E+01 -0.30481998541E+03  0.30686342838E+03  0.00000000000E+00 0.  1.
         -1    1    1    2    0  502  0.35491447572E+02 -0.10009272029E+02 -0.68515635481E+03  0.68614798616E+03  0.00000000000E+00 0. -1.
<mgrwt>
<rscale>  1 0.30000000E+03</rscale>
<asrwt>0</asrwt>
<pdfrwt beam="1">  1       21 0.57680570E-02 0.30000000E+03</pdfrwt>
<pdfrwt beam="2">0</pdfrwt>
<totfact> 0.22553000E+04</totfact>
</mgrwt>
</event>
<event>
 6    1  0.1284012E-001  0.3000000E+03  0.7818608E-02  0.1093470E+00
         21   -1    0    0  501  502  0.00000000000E+00  0.00000000000E+00  0.35744122301E+01  0.35744122301E+01  0.00000000000E+00 0. -1.
         13   -1    0    0    0    0 -0.00000000000E+00 -0.00000000000E+00 -0.10000000000E+04  0.10000000000E+04  0.00000000000E+00 0.  1.
    9000005    2    1    2  501    0 -0.91455596833E+01  0.53844227412E+02 -0.70173026728E+03  0.70386092570E+03  0.34630372627E+01 0.  0.
         13    1    3    3    0    0 -0.26806789985E+01  0.87722014121E+01 -0.11087106997E+03  0.11124986164E+03  0.00000000000E+00 0.  1.
          3    1    3    3  501    0 -0.64648806848E+01  0.45072026000E+02 -0.59085919731E+03  0.59261106407E+03  0.00000000000E+00 0.  1.
         -3    1    1    2    0  502  0.91455596833E+01 -0.53844227412E+02 -0.29469532049E+03  0.29971348653E+03  0.00000000000E+00 0. -1.
<mgrwt>
<rscale>  1 0.30000000E+03</rscale>
<asrwt>0</asrwt>
<pdfrwt beam="1">  1       21 0.12997890E-01 0.30000000E+03</pdfrwt>
<pdfrwt beam="2">0</pdfrwt>
<totfact> 0.53581123E+03</totfact>
</mgrwt>
</event>
<event>
 6    1  0.1284012E-001  0.3000000E+03  0.7818608E-02  0.1093470E+00
         21   -1    0    0  501  502  0.00000000000E+00  0.00000000000E+00  0.17201971551E+02  0.17201971551E+02  0.00000000000E+00 0. -1.
         13   -1    0    0    0    0 -0.00000000000E+00 -0.00000000000E+00 -0.10000000000E+04  0.10000000000E+04  0.00000000000E+00 0.  1.
    9000005    2    1    2  501    0  0.62924497955E+01 -0.50025386430E+02 -0.96090759234E+03  0.96223538711E+03  0.33771259102E+01 0.  0.
         13    1    3    3    0    0  0.64852165054E+01 -0.43191334005E+02 -0.82123847172E+03  0.82239903745E+03  0.00000000000E+00 0.  1.
          3    1    3    3  501    0 -0.19276670990E+00 -0.68340524244E+01 -0.13966912062E+03  0.13983634966E+03  0.00000000000E+00 0.  1.
         -3    1    1    2    0  502 -0.62924497955E+01  0.50025386430E+02 -0.21890436108E+02  0.54966584439E+02  0.00000000000E+00 0. -1.
<mgrwt>
<rscale>  1 0.30000000E+03</rscale>
<asrwt>0</asrwt>
<pdfrwt beam="1">  1       21 0.62552756E-01 0.30000000E+03</pdfrwt>
<pdfrwt beam="2">0</pdfrwt>
<totfact> 0.22856332E+02</totfact>
</mgrwt>
</event>
<event>
 6    1  0.1284012E-001  0.3000000E+03  0.7818608E-02  0.1093470E+00
         21   -1    0    0  501  502  0.00000000000E+00  0.00000000000E+00  0.64944386809E+01  0.64944386809E+01  0.00000000000E+00 0. -1.
         13   -1    0    0    0    0 -0.00000000000E+00 -0.00000000000E+00 -0.10000000000E+04  0.10000000000E+04  0.00000000000E+00 0.  1.
    9000005    2    1    2  501    0  0.84321348873E+01  0.67923680542E+02 -0.76221659684E+03  0.76529055735E+03  0.32816764985E+01 0.  0.
         13    1    3    3    0    0  0.73938497146E+01  0.61103224468E+02 -0.69556748553E+03  0.69828532848E+03  0.00000000000E+00 0.  1.
          3    1    3    3  501    0  0.10382851727E+01  0.68204560737E+01 -0.66649111308E+02  0.67005228866E+02  0.00000000000E+00 0.  1.
         -3    1    1    2    0  502 -0.84321348873E+01 -0.67923680542E+02 -0.23128896448E+03  0.24120388133E+03  0.00000000000E+00 0. -1.
<mgrwt>
<rscale>  1 0.30000000E+03</rscale>
<asrwt>0</asrwt>
<pdfrwt beam="1">  1       21 0.23616190E-01 0.30000000E+03</pdfrwt>
<pdfrwt beam="2">0</pdfrwt>
<totfact> 0.17426587E+03</totfact>
</mgrwt>
</event>
<event>
 6    1  0.1284012E-001  0.3000000E+03  0.7818608E-02  0.1093470E+00
         21   -1    0    0  501  502  0.00000000000E+00  0.00000000000E+00  0.10848299726E+01  0.10848299726E+01  0.00000000000E+00 0. -1.
         13   -1    0    0    0    0 -0.00000000000E+00 -0.00000000000E+00 -0.10000000000E+04  0.10000000000E+04  0.00000000000E+00 0.  1.
    9000005    2    1    2  501    0  0.38743381811E+01  0.31060633318E+02 -0.35224405885E+03  0.35365661042E+03  0.41650524487E+01 0.  0.
         13    1    3    3    0    0  0.20211709358E+01  0.23358010378E+02 -0.27983579322E+03  0.28081622629E+03  0.00000000000E+00 0.  1.
          1    1    3    3  501    0  0.18531672453E+01  0.77026229392E+01 -0.72408265626E+02  0.72840384129E+02  0.00000000000E+00 0.  1.
         -3    1    1    2    0  502 -0.38743381811E+01 -0.31060633318E+02 -0.64667111118E+03  0.64742821955E+03  0.00000000000E+00 0. -1.
<mgrwt>
<rscale>  1 0.30000000E+03</rscale>
<asrwt>0</asrwt>
<pdfrwt beam="1">  1       21 0.39448446E-02 0.30000000E+03</pdfrwt>
<pdfrwt beam="2">0</pdfrwt>
<totfact> 0.43041732E+04</totfact>
</mgrwt>
</event>
<event>
 6    1  0.1284012E-001  0.3000000E+03  0.7818608E-02  0.1093470E+00
         21   -1    0    0  501  502  0.00000000000E+00  0.00000000000E+00  0.10609933507E+01  0.10609933507E+01  0.00000000000E+00 0. -1.
         13   -1    0    0    0    0 -0.00000000000E+00 -0.00000000000E+00 -0.10000000000E+04  0.10000000000E+04  0.00000000000E+00 0.  1.
    9000005    2    1    2  501    0  0.17546947615E+02  0.27070669049E+02 -0.53089076201E+03  0.53190230399E+03  0.58603163902E+01 0.  0.
         13    1    3    3    0    0  0.97383494665E+01  0.11788854007E+02 -0.21254794210E+03  0.21309725531E+03  0.00000000000E+00 0.  1.
          1    1    3    3  501    0  0.78085981482E+01  0.15281815042E+02 -0.31834281991E+03  0.31880504868E+03  0.00000000000E+00 0.  1.
         -1    1    1    2    0  502 -0.17546947615E+02 -0.27070669049E+02 -0.46804824464E+03  0.46915868936E+03  0.00000000000E+00 0. -1.
<mgrwt>
<rscale>  1 0.30000000E+03</rscale>
<asrwt>0</asrwt>
<pdfrwt beam="1">  1       21 0.38581658E-02 0.30000000E+03</pdfrwt>
<pdfrwt beam="2">0</pdfrwt>
<totfact> 0.44680668E+04</totfact>
</mgrwt>
</event>
<event>
 6    1  0.1284012E-001  0.3000000E+03  0.7818608E-02  0.1093470E+00
         21   -1    0    0  501  502  0.00000000000E+00  0.00000000000E+00  0.99575137564E+00  0.99575137564E+00  0.00000000000E+00 0. -1.
         13   -1    0    0    0    0 -0.00000000000E+00 -0.00000000000E+00 -0.10000000000E+04  0.10000000000E+04  0.00000000000E+00 0.  1.
    9000005    2    1    2  501    0 -0.33492980949E+01  0.30241587859E+02 -0.56198366899E+03  0.56291726702E+03  0.11154992631E+02 0.  0.
         13    1    3    3    0    0  0.26502766729E+01  0.12926166462E+02 -0.30228106195E+03  0.30256891803E+03  0.00000000000E+00 0.  1.
          3    1    3    3  501    0 -0.59995747678E+01  0.17315421396E+02 -0.25970260704E+03  0.26034834898E+03  0.00000000000E+00 0.  1.
         -3    1    1    2    0  502  0.33492980949E+01 -0.30241587859E+02 -0.43702057964E+03  0.43807848436E+03  0.00000000000E+00 0. -1.
<mgrwt>
<rscale>  1 0.30000000E+03</rscale>
<asrwt>0</asrwt>
<pdfrwt beam="1">  1       21 0.36209217E-02 0.30000000E+03</pdfrwt>
<pdfrwt beam="2">0</pdfrwt>
<totfact> 0.49704903E+04</totfact>
</mgrwt>
</event>
<event>
 6    1  0.1284012E-001  0.3000000E+03  0.7818608E-02  0.1093470E+00
         21   -1    0    0  501  502  0.00000000000E+00  0.00000000000E+00  0.10687815253E+01  0.10687815253E+01  0.00000000000E+00 0. -1.
         13   -1    0    0    0    0 -0.00000000000E+00 -0.00000000000E+00 -0.10000000000E+04  0.10000000000E+04  0.00000000000E+00 0.  1.
    9000005    2    1    2  501    0  0.12064218761E+02  0.30227801470E+02 -0.53087794617E+03  0.53188530880E+03  0.33649130692E+01 0.  0.
         13    1    3    3    0    0  0.88585150692E+01  0.21380057250E+02 -0.35194036547E+03  0.35270044087E+03  0.00000000000E+00 0.  1.
          1    1    3    3  501    0  0.32057036921E+01  0.88477442201E+01 -0.17893758069E+03  0.17918486794E+03  0.00000000000E+00 0.  1.
         -3    1    1    2    0  502 -0.12064218761E+02 -0.30227801470E+02 -0.46805327231E+03  0.46918347272E+03  0.00000000000E+00 0. -1.
<mgrwt>
<rscale>  1 0.30000000E+03</rscale>
<asrwt>0</asrwt>
<pdfrwt beam="1">  1       21 0.38864865E-02 0.30000000E+03</pdfrwt>
<pdfrwt beam="2">0</pdfrwt>
<totfact> 0.44134566E+04</totfact>
</mgrwt>
</event>
<event>
 6    1  0.1284012E-001  0.3000000E+03  0.7818608E-02  0.1093470E+00
         21   -1    0    0  501  502  0.00000000000E+00  0.00000000000E+00  0.33172208657E+01  0.33172208657E+01  0.00000000000E+00 0. -1.
         13   -1    0    0    0    0 -0.00000000000E+00 -0.00000000000E+00 -0.10000000000E+04  0.10000000000E+04  0.00000000000E+00 0.  1.
    9000005    2    1    2  501    0 -0.26958528002E+02 -0.15660708147E+02 -0.92005538552E+03  0.92059009433E+03  0.34913256227E+01 0.  0.
         13    1    3    3    0    0 -0.15255009277E+02 -0.10542265849E+02 -0.57125032198E+03  0.57155120946E+03  0.00000000000E+00 0.  1.
          1    1    3    3  501    0 -0.11703518725E+02 -0.51184422975E+01 -0.34880506354E+03  0.34903888487E+03  0.00000000000E+00 0.  1.
         -1    1    1    2    0  502  0.26958528002E+02  0.15660708147E+02 -0.76627393617E+02  0.82727126532E+02  0.00000000000E+00 0. -1.
<mgrwt>
<rscale>  1 0.30000000E+03</rscale>
<asrwt>0</asrwt>
<pdfrwt beam="1">  1       21 0.12062647E-01 0.30000000E+03</pdfrwt>
<pdfrwt beam="2">0</pdfrwt>
<totfact> 0.61388136E+03</totfact>
</mgrwt>
</event>
<event>
 6    1  0.1284012E-001  0.3000000E+03  0.7818608E-02  0.1093470E+00
         21   -1    0    0  501  502  0.00000000000E+00  0.00000000000E+00  0.27129158564E+01  0.27129158564E+01  0.00000000000E+00 0. -1.
         13   -1    0    0    0    0 -0.00000000000E+00 -0.00000000000E+00 -0.10000000000E+04  0.10000000000E+04  0.00000000000E+00 0.  1.
    9000005    2    1    2  501    0 -0.34491880942E+02 -0.19453653743E+02 -0.82415812237E+03  0.82511288235E+03  0.25541074327E+01 0.  0.
         13    1    3    3    0    0 -0.98693563177E+01 -0.49755627111E+01 -0.20924731245E+03  0.20953901351E+03  0.00000000000E+00 0.  1.
          3    1    3    3  501    0 -0.24622524624E+02 -0.14478091032E+02 -0.61491080992E+03  0.61557386884E+03  0.00000000000E+00 0.  1.
         -3    1    1    2    0  502  0.34491880942E+02  0.19453653743E+02 -0.17312896177E+03  0.17760003350E+03  0.00000000000E+00 0. -1.
<mgrwt>
<rscale>  1 0.30000000E+03</rscale>
<asrwt>0</asrwt>
<pdfrwt beam="1">  1       21 0.98651694E-02 0.30000000E+03</pdfrwt>
<pdfrwt beam="2">0</pdfrwt>
<totfact> 0.88143427E+03</totfact>
</mgrwt>
</event>
<event>
 6    1  0.1284012E-001  0.3000000E+03  0.7818608E-02  0.1093470E+00
         21   -1    0    0  501  502  0.00000000000E+00  0.00000000000E+00  0.23450440476E+01  0.23450440476E+01  0.00000000000E+00 0. -1.
         13   -1    0    0    0    0 -0.00000000000E+00 -0.00000000000E+00 -0.10000000000E+04  0.10000000000E+04  0.00000000000E+00 0.  1.
    9000005    2    1    2  501    0 -0.78835652973E+01 -0.31421656085E+02 -0.87122591134E+03  0.87183154132E+03  0.24853119054E+01 0.  0.
         13    1    3    3    0    0  0.13018681303E+00 -0.16130194780E+01 -0.46996702746E+02  0.47024555814E+02  0.00000000000E+00 0.  1.
          1    1    3    3  501    0 -0.80137521103E+01 -0.29808636607E+02 -0.82422920859E+03  0.82480698550E+03  0.00000000000E+00 0.  1.
         -1    1    1    2    0  502  0.78835652973E+01  0.31421656085E+02 -0.12642904461E+03  0.13051350273E+03  0.00000000000E+00 0. -1.
<mgrwt>
<rscale>  1 0.30000000E+03</rscale>
<asrwt>0</asrwt>
<pdfrwt beam="1">  1       21 0.85274509E-02 0.30000000E+03</pdfrwt>
<pdfrwt beam="2">0</pdfrwt>
<totfact> 0.11416161E+04</totfact>
</mgrwt>
</event>
<event>
 6    1  0.1284012E-001  0.3000000E+03  0.7818608E-02  0.1093470E+00
         21   -1    0    0  501  502  0.00000000000E+00  0.00000000000E+00  0.14218266923E+01  0.14218266923E+01  0.00000000000E+00 0. -1.
         13   -1    0    0    0    0 -0.00000000000E+00 -0.00000000000E+00 -0.10000000000E+04  0.10000000000E+04  0.00000000000E+00 0.  1.
    9000005    2    1    2  501    0 -0.31272717122E+02  0.18504276623E+02 -0.63033989343E+03  0.63139504137E+03  0.33054389056E+01 0.  0.
         13    1    3    3    0    0 -0.25732960423E+02  0.16586372329E+02 -0.52359979083E+03  0.52449407428E+03  0.00000000000E+00 0.  1.
          1    1    3    3  501    0 -0.55397566982E+01  0.19179042932E+01 -0.10674010261E+03  0.10690096709E+03  0.00000000000E+00 0.  1.
         -3    1    1    2    0  502  0.31272717122E+02 -0.18504276623E+02 -0.36823827988E+03  0.37002678532E+03  0.00000000000E+00 0. -1.
<mgrwt>
<rscale>  1 0.30000000E+03</rscale>
<asrwt>0</asrwt>
<pdfrwt beam="1">  1       21 0.51702898E-02 0.30000000E+03</pdfrwt>
<pdfrwt beam="2">0</pdfrwt>
<totfact> 0.27204836E+04</totfact>
</mgrwt>
</event>
<event>
 6    1  0.1284012E-001  0.3000000E+03  0.7818608E-02  0.1093470E+00
         21   -1    0    0  501  502  0.00000000000E+00  0.00000000000E+00  0.10102940452E+01  0.10102940452E+01  0.00000000000E+00 0. -1.
         13   -1    0    0    0    0 -0.00000000000E+00 -0.00000000000E+00 -0.10000000000E+04  0.10000000000E+04  0.00000000000E+00 0.  1.
    9000005    2    1    2  501    0 -0.50093201897E+01 -0.30944602197E+02 -0.57648491208E+03  0.57734419611E+03  0.29673607805E+01 0.  0.
         13    1    3    3    0    0 -0.38562248734E+01 -0.20457467409E+02 -0.40562661059E+03  0.40616046787E+03  0.00000000000E+00 0.  1.
          3    1    3    3  501    0 -0.11530953163E+01 -0.10487134789E+02 -0.17085830149E+03  0.17118372824E+03  0.00000000000E+00 0.  1.
         -3    1    1    2    0  502  0.50093201897E+01  0.30944602197E+02 -0.42250479387E+03  0.42366609794E+03  0.00000000000E+00 0. -1.
<mgrwt>
<rscale>  1 0.30000000E+03</rscale>
<asrwt>0</asrwt>
<pdfrwt beam="1">  1       21 0.36738043E-02 0.30000000E+03</pdfrwt>
<pdfrwt beam="2">0</pdfrwt>
<totfact> 0.48510450E+04</totfact>
</mgrwt>
</event>
<event>
 6    1  0.1284012E-001  0.3000000E+03  0.7818608E-02  0.1093470E+00
         21   -1    0    0  501  502  0.00000000000E+00  0.00000000000E+00  0.15381455860E+01  0.15381455860E+01  0.00000000000E+00 0. -1.
         13   -1    0    0    0    0 -0.00000000000E+00 -0.00000000000E+00 -0.10000000000E+04  0.10000000000E+04  0.00000000000E+00 0.  1.
    9000005    2    1    2  501    0 -0.33915328601E+02  0.14266453834E+02 -0.67113020497E+03  0.67214508260E+03  0.30787682456E+01 0.  0.
         13    1    3    3    0    0 -0.21083801169E+02  0.73242703464E+01 -0.39691706324E+03  0.39754411919E+03  0.00000000000E+00 0.  1.
          1    1    3    3  501    0 -0.12831527432E+02  0.69421834877E+01 -0.27421314173E+03  0.27460096341E+03  0.00000000000E+00 0.  1.
         -1    1    1    2    0  502  0.33915328601E+02 -0.14266453834E+02 -0.32733164944E+03  0.32939306299E+03  0.00000000000E+00 0. -1.
<mgrwt>
<rscale>  1 0.30000000E+03</rscale>
<asrwt>0</asrwt>
<pdfrwt beam="1">  1       21 0.55932685E-02 0.30000000E+03</pdfrwt>
<pdfrwt beam="2">0</pdfrwt>
<totfact> 0.23778115E+04</totfact>
</mgrwt>
</event>
<event>
 6    1  0.1284012E-001  0.3000000E+03  0.7818608E-02  0.1093470E+00
         21   -1    0    0  501  502  0.00000000000E+00  0.00000000000E+00  0.35129060323E+01  0.35129060323E+01  0.00000000000E+00 0. -1.
         13   -1    0    0    0    0 -0.00000000000E+00 -0.00000000000E+00 -0.10000000000E+04  0.10000000000E+04  0.00000000000E+00 0.  1.
    9000005    2    1    2  501    0  0.49185057973E+02  0.32298412636E+02 -0.55457973874E+03  0.55770524797E+03  0.37549435182E+01 0.  0.
         13    1    3    3    0    0  0.32735208665E+01  0.17625841118E+01 -0.44016031840E+02  0.44172771031E+02  0.00000000000E+00 0.  1.
          3    1    3    3  501    0  0.45911537107E+02  0.30535828524E+02 -0.51056370690E+03  0.51353247694E+03  0.00000000000E+00 0.  1.
         -1    1    1    2    0  502 -0.49185057973E+02 -0.32298412636E+02 -0.44190735522E+03  0.44580765806E+03  0.00000000000E+00 0. -1.
<mgrwt>
<rscale>  1 0.30000000E+03</rscale>
<asrwt>0</asrwt>
<pdfrwt beam="1">  1       21 0.12774231E-01 0.30000000E+03</pdfrwt>
<pdfrwt beam="2">0</pdfrwt>
<totfact> 0.55305578E+03</totfact>
</mgrwt>
</event>
<event>
 6    1  0.1284012E-001  0.3000000E+03  0.7818608E-02  0.1093470E+00
         21   -1    0    0  501  502  0.00000000000E+00  0.00000000000E+00  0.61427838241E+02  0.61427838241E+02  0.00000000000E+00 0. -1.
         13   -1    0    0    0    0 -0.00000000000E+00 -0.00000000000E+00 -0.10000000000E+04  0.10000000000E+04  0.00000000000E+00 0.  1.
    9000005    2    1    2  501    0 -0.71847090303E+02  0.90598945806E+02 -0.93869747973E+03  0.94579830451E+03  0.33616943097E+01 0.  0.
         13    1    3    3    0    0 -0.29264010919E+02  0.38065734945E+02 -0.40199607644E+03  0.40485334133E+03  0.00000000000E+00 0.  1.
          3    1    3    3  501    0 -0.42583079384E+02  0.52533210861E+02 -0.53670140329E+03  0.54094496318E+03  0.00000000000E+00 0.  1.
         -1    1    1    2    0  502  0.71847090303E+02 -0.90598945806E+02  0.12531797510E+00  0.11562953373E+03  0.00000000000E+00 0. -1.
<mgrwt>
<rscale>  1 0.30000000E+03</rscale>
<asrwt>0</asrwt>
<pdfrwt beam="1">  1       21 0.22337443E+00 0.30000000E+03</pdfrwt>
<pdfrwt beam="2">0</pdfrwt>
<totfact> 0.63596903E+00</totfact>
</mgrwt>
</event>
<event>
 6    1  0.1284012E-001  0.3000000E+03  0.7818608E-02  0.1093470E+00
         21   -1    0    0  501  502  0.00000000000E+00  0.00000000000E+00  0.30737834521E+01  0.30737834521E+01  0.00000000000E+00 0. -1.
         13   -1    0    0    0    0 -0.00000000000E+00 -0.00000000000E+00 -0.10000000000E+04  0.10000000000E+04  0.00000000000E+00 0.  1.
    9000005    2    1    2  501    0 -0.29470201045E+02  0.11593931951E+02 -0.90987900783E+03  0.91044480011E+03  0.51974192873E+01 0.  0.
         13    1    3    3    0    0 -0.28974332736E+02  0.10395766493E+02 -0.86767467906E+03  0.86822055528E+03  0.00000000000E+00 0.  1.
          3    1    3    3  501    0 -0.49586830896E+00  0.11981654587E+01 -0.42204328761E+02  0.42224244836E+02  0.00000000000E+00 0.  1.
         -1    1    1    2    0  502  0.29470201045E+02 -0.11593931951E+02 -0.87047208723E+02  0.92628983338E+02  0.00000000000E+00 0. -1.
<mgrwt>
<rscale>  1 0.30000000E+03</rscale>
<asrwt>0</asrwt>
<pdfrwt beam="1">  1       21 0.11177418E-01 0.30000000E+03</pdfrwt>
<pdfrwt beam="2">0</pdfrwt>
<totfact> 0.70460968E+03</totfact>
</mgrwt>
</event>
<event>
 6    1  0.1284012E-001  0.3000000E+03  0.7818608E-02  0.1093470E+00
         21   -1    0    0  501  502  0.00000000000E+00  0.00000000000E+00  0.17197583360E+01  0.17197583360E+01  0.00000000000E+00 0. -1.
         13   -1    0    0    0    0 -0.00000000000E+00 -0.00000000000E+00 -0.10000000000E+04  0.10000000000E+04  0.00000000000E+00 0.  1.
    9000005    2    1    2  501    0  0.16762546210E+02  0.37061296773E+02 -0.40776994713E+03  0.40981019546E+03  0.36801964849E+01 0.  0.
         13    1    3    3    0    0  0.92893036439E+01  0.22333652241E+02 -0.25860568237E+03  0.25973444542E+03  0.00000000000E+00 0.  1.
          1    1    3    3  501    0  0.74732425665E+01  0.14727644533E+02 -0.14916426476E+03  0.15007575004E+03  0.00000000000E+00 0.  1.
         -3    1    1    2    0  502 -0.16762546210E+02 -0.37061296773E+02 -0.59051029453E+03  0.59190956288E+03  0.00000000000E+00 0. -1.
<mgrwt>
<rscale>  1 0.30000000E+03</rscale>
<asrwt>0</asrwt>
<pdfrwt beam="1">  1       21 0.62536799E-02 0.30000000E+03</pdfrwt>
<pdfrwt beam="2">0</pdfrwt>
<totfact> 0.19618006E+04</totfact>
</mgrwt>
</event>
<event>
 6    1  0.1284012E-001  0.3000000E+03  0.7818608E-02  0.1093470E+00
         21   -1    0    0  501  502  0.00000000000E+00  0.00000000000E+00  0.85926681012E+01  0.85926681012E+01  0.00000000000E+00 0. -1.
         13   -1    0    0    0    0 -0.00000000000E+00 -0.00000000000E+00 -0.10000000000E+04  0.10000000000E+04  0.00000000000E+00 0.  1.
    9000005    2    1    2  501    0  0.29627597676E+02  0.30171997229E+02 -0.94445219883E+03  0.94540304488E+03  0.29694176714E+01 0.  0.
         13    1    3    3    0    0  0.19114463146E+02  0.19537850615E+02 -0.64144075321E+03  0.64202284242E+03  0.00000000000E+00 0.  1.
          3    1    3    3  501    0  0.10513134530E+02  0.10634146614E+02 -0.30301144562E+03  0.30338020247E+03  0.00000000000E+00 0.  1.
         -1    1    1    2    0  502 -0.29627597676E+02 -0.30171997229E+02 -0.46955133072E+02  0.63189623220E+02  0.00000000000E+00 0. -1.
<mgrwt>
<rscale>  1 0.30000000E+03</rscale>
<asrwt>0</asrwt>
<pdfrwt beam="1">  1       21 0.31246132E-01 0.30000000E+03</pdfrwt>
<pdfrwt beam="2">0</pdfrwt>
<totfact> 0.10020146E+03</totfact>
</mgrwt>
</event>
<event>
 6    1  0.1284012E-001  0.3000000E+03  0.7818608E-02  0.1093470E+00
         21   -1    0    0  501  502  0.00000000000E+00  0.00000000000E+00  0.23091776525E+01  0.23091776525E+01  0.00000000000E+00 0. -1.
         13   -1    0    0    0    0 -0.00000000000E+00 -0.00000000000E+00 -0.10000000000E+04  0.10000000000E+04  0.00000000000E+00 0.  1.
    9000005    2    1    2  501    0  0.18157271829E+02  0.32528871722E+02 -0.81281805614E+03  0.81372032936E+03  0.89312937316E+01 0.  0.
         13    1    3    3    0    0  0.54295878401E+01  0.55550755410E+01 -0.24075737910E+03  0.24088265791E+03  0.00000000000E+00 0.  1.
          1    1    3    3  501    0  0.12727683989E+02  0.26973796181E+02 -0.57206067704E+03  0.57283767145E+03  0.00000000000E+00 0.  1.
         -1    1    1    2    0  502 -0.18157271829E+02 -0.32528871722E+02 -0.18487276621E+03  0.18858884829E+03  0.00000000000E+00 0. -1.
<mgrwt>
<rscale>  1 0.30000000E+03</rscale>
<asrwt>0</asrwt>
<pdfrwt beam="1">  1       21 0.83970274E-02 0.30000000E+03</pdfrwt>
<pdfrwt beam="2">0</pdfrwt>
<totfact> 0.11730585E+04</totfact>
</mgrwt>
</event>
<event>
 6    1  0.1284012E-001  0.3000000E+03  0.7818608E-02  0.1093470E+00
         21   -1    0    0  501  502  0.00000000000E+00  0.00000000000E+00  0.19427655012E+01  0.19427655012E+01  0.00000000000E+00 0. -1.
         13   -1    0    0    0    0 -0.00000000000E+00 -0.00000000000E+00 -0.10000000000E+04  0.10000000000E+04  0.00000000000E+00 0.  1.
    9000005    2    1    2  501    0  0.34427780983E+02  0.26053903212E+02 -0.59684648587E+03  0.59841563780E+03  0.33867228189E+01 0.  0.
         13    1    3    3    0    0  0.11212956255E+02  0.65418709012E+01 -0.17823507180E+03  0.17870721106E+03  0.00000000000E+00 0.  1.
          1    1    3    3  501    0  0.23214824729E+02  0.19512032310E+02 -0.41861141407E+03  0.41970842674E+03  0.00000000000E+00 0.  1.
         -3    1    1    2    0  502 -0.34427780983E+02 -0.26053903212E+02 -0.40121074863E+03  0.40352712770E+03  0.00000000000E+00 0. -1.
<mgrwt>
<rscale>  1 0.30000000E+03</rscale>
<asrwt>0</asrwt>
<pdfrwt beam="1">  1       21 0.70646167E-02 0.30000000E+03</pdfrwt>
<pdfrwt beam="2">0</pdfrwt>
<totfact> 0.15879220E+04</totfact>
</mgrwt>
</event>
<event>
 6    1  0.1284012E-001  0.3000000E+03  0.7818608E-02  0.1093470E+00
         21   -1    0    0  501  502  0.00000000000E+00  0.00000000000E+00  0.36418623183E+01  0.36418623183E+01  0.00000000000E+00 0. -1.
         13   -1    0    0    0    0 -0.00000000000E+00 -0.00000000000E+00 -0.10000000000E+04  0.10000000000E+04  0.00000000000E+00 0.  1.
    9000005    2    1    2  501    0 -0.58848557096E+02  0.65534720029E+01 -0.59337350467E+03  0.59633029225E+03  0.34059864350E+01 0.  0.
         13    1    3    3    0    0 -0.18611617676E+02  0.12665441888E+01 -0.20084888346E+03  0.20171333727E+03  0.00000000000E+00 0.  1.
          1    1    3    3  501    0 -0.40236939420E+02  0.52869278141E+01 -0.39252462121E+03  0.39461695498E+03  0.00000000000E+00 0.  1.
         -1    1    1    2    0  502  0.58848557096E+02 -0.65534720029E+01 -0.40298463301E+03  0.40731157007E+03  0.00000000000E+00 0. -1.
<mgrwt>
<rscale>  1 0.30000000E+03</rscale>
<asrwt>0</asrwt>
<pdfrwt beam="1">  1       21 0.13243164E-01 0.30000000E+03</pdfrwt>
<pdfrwt beam="2">0</pdfrwt>
<totfact> 0.51781611E+03</totfact>
</mgrwt>
</event>
<event>
 6    1  0.1284012E-001  0.3000000E+03  0.7818608E-02  0.1093470E+00
         21   -1    0    0  501  502  0.00000000000E+00  0.00000000000E+00  0.96770628967E+00  0.96770628967E+00  0.00000000000E+00 0. -1.
         13   -1    0    0    0    0 -0.00000000000E+00 -0.00000000000E+00 -0.10000000000E+04  0.10000000000E+04  0.00000000000E+00 0.  1.
    9000005    2    1    2  501    0 -0.24359001685E+02  0.19114915618E+02 -0.53202836595E+03  0.53293842354E+03  0.32311227102E+01 0.  0.
         13    1    3    3    0    0 -0.22011181932E+02  0.17656612725E+02 -0.46742636493E+03  0.46827732674E+03  0.00000000000E+00 0.  1.
          3    1    3    3  501    0 -0.23478197528E+01  0.14583028926E+01 -0.64602001016E+02  0.64661096807E+02  0.00000000000E+00 0.  1.
         -3    1    1    2    0  502  0.24359001685E+02 -0.19114915618E+02 -0.46700392776E+03  0.46802928275E+03  0.00000000000E+00 0. -1.
<mgrwt>
<rscale>  1 0.30000000E+03</rscale>
<asrwt>0</asrwt>
<pdfrwt beam="1">  1       21 0.35189394E-02 0.30000000E+03</pdfrwt>
<pdfrwt beam="2">0</pdfrwt>
<totfact> 0.52143382E+04</totfact>
</mgrwt>
</event>
<event>
 6    1  0.1284012E-001  0.3000000E+03  0.7818608E-02  0.1093470E+00
         21   -1    0    0  501  502  0.00000000000E+00  0.00000000000E+00  0.10058121101E+01  0.10058121101E+01  0.00000000000E+00 0. -1.
         13   -1    0    0    0    0 -0.00000000000E+00 -0.00000000000E+00 -0.10000000000E+04  0.10000000000E+04  0.00000000000E+00 0.  1.
    9000005    2    1    2  501    0 -0.54082647314E+01 -0.30594436502E+02 -0.59347941946E+03  0.59430260793E+03  0.35354776843E+01 0.  0.
         13    1    3    3    0    0 -0.58993824463E+01 -0.27180795957E+02 -0.53180935750E+03  0.53253618761E+03  0.00000000000E+00 0.  1.
          3    1    3    3  501    0  0.49111771488E+00 -0.34136405451E+01 -0.61670061954E+02  0.61766420325E+02  0.00000000000E+00 0.  1.
         -3    1    1    2    0  502  0.54082647314E+01  0.30594436502E+02 -0.40551476843E+03  0.40670320418E+03  0.00000000000E+00 0. -1.
<mgrwt>
<rscale>  1 0.30000000E+03</rscale>
<asrwt>0</asrwt>
<pdfrwt beam="1">  1       21 0.36575063E-02 0.30000000E+03</pdfrwt>
<pdfrwt beam="2">0</pdfrwt>
<totfact> 0.48873704E+04</totfact>
</mgrwt>
</event>
<event>
 6    1  0.1284012E-001  0.3000000E+03  0.7818608E-02  0.1093470E+00
         21   -1    0    0  501  502  0.00000000000E+00  0.00000000000E+00  0.32582638541E+01  0.32582638541E+01  0.00000000000E+00 0. -1.
         13   -1    0    0    0    0 -0.00000000000E+00 -0.00000000000E+00 -0.10000000000E+04  0.10000000000E+04  0.00000000000E+00 0.  1.
    9000005    2    1    2  501    0  0.19520099545E+01 -0.30639067497E+02 -0.92118145806E+03  0.92169896993E+03  0.33391179230E+01 0.  0.
         13    1    3    3    0    0  0.25359196872E-01 -0.23060259660E+02 -0.69254707897E+03  0.69293090046E+03  0.00000000000E+00 0.  1.
          1    1    3    3  501    0  0.19266507576E+01 -0.75788078375E+01 -0.22863437909E+03  0.22876806948E+03  0.00000000000E+00 0.  1.
         -1    1    1    2    0  502 -0.19520099545E+01  0.30639067497E+02 -0.75560278088E+02  0.81559293920E+02  0.00000000000E+00 0. -1.
<mgrwt>
<rscale>  1 0.30000000E+03</rscale>
<asrwt>0</asrwt>
<pdfrwt beam="1">  1       21 0.11848257E-01 0.30000000E+03</pdfrwt>
<pdfrwt beam="2">0</pdfrwt>
<totfact> 0.63418102E+03</totfact>
</mgrwt>
</event>
<event>
 6    1  0.1284012E-001  0.3000000E+03  0.7818608E-02  0.1093470E+00
         21   -1    0    0  501  502  0.00000000000E+00  0.00000000000E+00  0.24745288170E+01  0.24745288170E+01  0.00000000000E+00 0. -1.
         13   -1    0    0    0    0 -0.00000000000E+00 -0.00000000000E+00 -0.10000000000E+04  0.10000000000E+04  0.00000000000E+00 0.  1.
    9000005    2    1    2  501    0 -0.28611716415E+02  0.99183585235E+01 -0.89628965469E+03  0.89680667802E+03  0.31730863466E+01 0.  0.
         13    1    3    3    0    0 -0.45237300805E+01  0.14665833385E+01 -0.17811215555E+03  0.17817562952E+03  0.00000000000E+00 0.  1.
          3    1    3    3  501    0 -0.24087986334E+02  0.84517751849E+01 -0.71817749914E+03  0.71863104849E+03  0.00000000000E+00 0.  1.
         -3    1    1    2    0  502  0.28611716415E+02 -0.99183585235E+01 -0.10123581649E+03  0.10566785080E+03  0.00000000000E+00 0. -1.
<mgrwt>
<rscale>  1 0.30000000E+03</rscale>
<asrwt>0</asrwt>
<pdfrwt beam="1">  1       21 0.89983056E-02 0.30000000E+03</pdfrwt>
<pdfrwt beam="2">0</pdfrwt>
<totfact> 0.10381552E+04</totfact>
</mgrwt>
</event>
<event>
 6    1  0.1284012E-001  0.3000000E+03  0.7818608E-02  0.1093470E+00
         21   -1    0    0  501  502  0.00000000000E+00  0.00000000000E+00  0.36351102256E+01  0.36351102256E+01  0.00000000000E+00 0. -1.
         13   -1    0    0    0    0 -0.00000000000E+00 -0.00000000000E+00 -0.10000000000E+04  0.10000000000E+04  0.00000000000E+00 0.  1.
    9000005    2    1    2  501    0  0.17568126058E+01 -0.48340598511E+02 -0.79748810964E+03  0.79896006648E+03  0.31627457176E+01 0.  0.
         13    1    3    3    0    0  0.17925697650E+01 -0.16922690586E+02 -0.29597872502E+03  0.29646753014E+03  0.00000000000E+00 0.  1.
          3    1    3    3  501    0 -0.35757159189E-01 -0.31417907926E+02 -0.50150938461E+03  0.50249253634E+03  0.00000000000E+00 0.  1.
         -1    1    1    2    0  502 -0.17568126058E+01  0.48340598511E+02 -0.19887678014E+03  0.20467504375E+03  0.00000000000E+00 0. -1.
<mgrwt>
<rscale>  1 0.30000000E+03</rscale>
<asrwt>0</asrwt>
<pdfrwt beam="1">  1       21 0.13218611E-01 0.30000000E+03</pdfrwt>
<pdfrwt beam="2">0</pdfrwt>
<totfact> 0.51957619E+03</totfact>
</mgrwt>
</event>
<event>
 6    1  0.1284012E-001  0.3000000E+03  0.7818608E-02  0.1093470E+00
         21   -1    0    0  501  502  0.00000000000E+00  0.00000000000E+00  0.20860718422E+01  0.20860718422E+01  0.00000000000E+00 0. -1.
         13   -1    0    0    0    0 -0.00000000000E+00 -0.00000000000E+00 -0.10000000000E+04  0.10000000000E+04  0.00000000000E+00 0.  1.
    9000005    2    1    2  501    0  0.36041003616E+02  0.10954624187E+02 -0.21739970819E+03  0.22066339154E+03  0.32774240167E+01 0.  0.
         13    1    3    3    0    0  0.17614916891E+02  0.41474242183E+01 -0.97485925237E+02  0.99151359264E+02  0.00000000000E+00 0.  1.
          3    1    3    3  501    0  0.18426086725E+02  0.68071999691E+01 -0.11991378296E+03  0.12151203227E+03  0.00000000000E+00 0.  1.
         -1    1    1    2    0  502 -0.36041003616E+02 -0.10954624187E+02 -0.78051421996E+03  0.78142268031E+03  0.00000000000E+00 0. -1.
<mgrwt>
<rscale>  1 0.30000000E+03</rscale>
<asrwt>0</asrwt>
<pdfrwt beam="1">  1       21 0.75857318E-02 0.30000000E+03</pdfrwt>
<pdfrwt beam="2">0</pdfrwt>
<totfact> 0.14022542E+04</totfact>
</mgrwt>
</event>
<event>
 6    1  0.1284012E-001  0.3000000E+03  0.7818608E-02  0.1093470E+00
         21   -1    0    0  501  502  0.00000000000E+00  0.00000000000E+00  0.10764104007E+01  0.10764104007E+01  0.00000000000E+00 0. -1.
         13   -1    0    0    0    0 -0.00000000000E+00 -0.00000000000E+00 -0.10000000000E+04  0.10000000000E+04  0.00000000000E+00 0.  1.
    9000005    2    1    2  501    0  0.28789579865E+02  0.11285174809E+02 -0.66229482006E+03  0.66303037277E+03  0.43187326820E+01 0.  0.
         13    1    3    3    0    0 -0.12443016508E+00  0.12841255739E+00 -0.79708608478E+01  0.79728661914E+01  0.00000000000E+00 0.  1.
          3    1    3    3  501    0  0.28914010030E+02  0.11156762251E+02 -0.65432395921E+03  0.65505750658E+03  0.00000000000E+00 0.  1.
         -3    1    1    2    0  502 -0.28789579865E+02 -0.11285174809E+02 -0.33662876954E+03  0.33804603763E+03  0.00000000000E+00 0. -1.
<mgrwt>
<rscale>  1 0.30000000E+03</rscale>
<asrwt>0</asrwt>
<pdfrwt beam="1">  1       21 0.39142279E-02 0.30000000E+03</pdfrwt>
<pdfrwt beam="2">0</pdfrwt>
<totfact> 0.43609714E+04</totfact>
</mgrwt>
</event>
<event>
 6    1  0.1284012E-001  0.3000000E+03  0.7818608E-02  0.1093470E+00
         21   -1    0    0  501  502  0.00000000000E+00  0.00000000000E+00  0.22337076683E+01  0.22337076683E+01  0.00000000000E+00 0. -1.
         13   -1    0    0    0    0 -0.00000000000E+00 -0.00000000000E+00 -0.10000000000E+04  0.10000000000E+04  0.00000000000E+00 0.  1.
    9000005    2    1    2  501    0  0.27834074956E+02 -0.35368273741E+02 -0.65041318240E+03  0.65197689689E+03  0.33038954191E+01 0.  0.
         13    1    3    3    0    0  0.44772807258E+01 -0.40220234628E+01 -0.80618037187E+02  0.80842381430E+02  0.00000000000E+00 0.  1.
          1    1    3    3  501    0  0.23356794230E+02 -0.31346250278E+02 -0.56979514521E+03  0.57113451546E+03  0.00000000000E+00 0.  1.
         -3    1    1    2    0  502 -0.27834074956E+02  0.35368273741E+02 -0.34735310993E+03  0.35025681078E+03  0.00000000000E+00 0. -1.
<mgrwt>
<rscale>  1 0.30000000E+03</rscale>
<asrwt>0</asrwt>
<pdfrwt beam="1">  1       21 0.81225905E-02 0.30000000E+03</pdfrwt>
<pdfrwt beam="2">0</pdfrwt>
<totfact> 0.12437029E+04</totfact>
</mgrwt>
</event>
<event>
 6    1  0.1284012E-001  0.3000000E+03  0.7818608E-02  0.1093470E+00
         21   -1    0    0  501  502  0.00000000000E+00  0.00000000000E+00  0.15634300791E+01  0.15634300791E+01  0.00000000000E+00 0. -1.
         13   -1    0    0    0    0 -0.00000000000E+00 -0.00000000000E+00 -0.10000000000E+04  0.10000000000E+04  0.00000000000E+00 0.  1.
    9000005    2    1    2  501    0  0.46422617181E+01 -0.33500654190E+02 -0.75700237592E+03  0.75777189114E+03  0.46687717400E+01 0.  0.
         13    1    3    3    0    0  0.11253125031E+01 -0.39932056610E+01 -0.65458654301E+02  0.65589994988E+02  0.00000000000E+00 0.  1.
          3    1    3    3  501    0  0.35169492150E+01 -0.29507448529E+02 -0.69154372162E+03  0.69218189615E+03  0.00000000000E+00 0.  1.
         -1    1    1    2    0  502 -0.46422617181E+01  0.33500654190E+02 -0.24143419400E+03  0.24379153894E+03  0.00000000000E+00 0. -1.
<mgrwt>
<rscale>  1 0.30000000E+03</rscale>
<asrwt>0</asrwt>
<pdfrwt beam="1">  1       21 0.56852123E-02 0.30000000E+03</pdfrwt>
<pdfrwt beam="2">0</pdfrwt>
<totfact> 0.23121298E+04</totfact>
</mgrwt>
</event>
<event>
 6    1  0.1284012E-001  0.3000000E+03  0.7818608E-02  0.1093470E+00
         21   -1    0    0  501  502  0.00000000000E+00  0.00000000000E+00  0.20154011889E+01  0.20154011889E+01  0.00000000000E+00 0. -1.
         13   -1    0    0    0    0 -0.00000000000E+00 -0.00000000000E+00 -0.10000000000E+04  0.10000000000E+04  0.00000000000E+00 0.  1.
    9000005    2    1    2  501    0  0.14313890545E+02 -0.27361124448E+02 -0.86248664891E+03  0.86304341473E+03  0.26828274122E+01 0.  0.
         13    1    3    3    0    0  0.59192624562E+01 -0.14021740480E+02 -0.43690466445E+03  0.43716968409E+03  0.00000000000E+00 0.  1.
          3    1    3    3  501    0  0.83946280888E+01 -0.13339383968E+02 -0.42558198447E+03  0.42587373064E+03  0.00000000000E+00 0.  1.
         -1    1    1    2    0  502 -0.14313890545E+02  0.27361124448E+02 -0.13549794990E+03  0.13897198646E+03  0.00000000000E+00 0. -1.
<mgrwt>
<rscale>  1 0.30000000E+03</rscale>
<asrwt>0</asrwt>
<pdfrwt beam="1">  1       21 0.73287471E-02 0.30000000E+03</pdfrwt>
<pdfrwt beam="2">0</pdfrwt>
<totfact> 0.14894309E+04</totfact>
</mgrwt>
</event>
<event>
 6    1  0.1284012E-001  0.3000000E+03  0.7818608E-02  0.1093470E+00
         21   -1    0    0  501  502  0.00000000000E+00  0.00000000000E+00  0.60740720916E+01  0.60740720916E+01  0.00000000000E+00 0. -1.
         13   -1    0    0    0    0 -0.00000000000E+00 -0.00000000000E+00 -0.10000000000E+04  0.10000000000E+04  0.00000000000E+00 0.  1.
    9000005    2    1    2  501    0 -0.50100907080E+01  0.32705016955E+02 -0.95213458986E+03  0.95277083505E+03  0.10829024840E+02 0.  0.
         13    1    3    3    0    0 -0.30197364704E+00  0.97003379919E+01 -0.42866716190E+03  0.42877700899E+03  0.00000000000E+00 0.  1.
          1    1    3    3  501    0 -0.47081170609E+01  0.23004678963E+02 -0.52346742795E+03  0.52399382606E+03  0.00000000000E+00 0.  1.
         -1    1    1    2    0  502  0.50100907080E+01 -0.32705016955E+02 -0.41791338053E+02  0.53303237042E+02  0.00000000000E+00 0. -1.
<mgrwt>
<rscale>  1 0.30000000E+03</rscale>
<asrwt>0</asrwt>
<pdfrwt beam="1">  1       21 0.22087581E-01 0.30000000E+03</pdfrwt>
<pdfrwt beam="2">0</pdfrwt>
<totfact> 0.19833598E+03</totfact>
</mgrwt>
</event>
<event>
 6    1  0.1284012E-001  0.3000000E+03  0.7818608E-02  0.1093470E+00
         21   -1    0    0  501  502  0.00000000000E+00  0.00000000000E+00  0.13337987834E+01  0.13337987834E+01  0.00000000000E+00 0. -1.
         13   -1    0    0    0    0 -0.00000000000E+00 -0.00000000000E+00 -0.10000000000E+04  0.10000000000E+04  0.00000000000E+00 0.  1.
    9000005    2    1    2  501    0 -0.32845158841E+02 -0.14510690487E+02 -0.41816099201E+03  0.41971909598E+03  0.40174240783E+01 0.  0.
         13    1    3    3    0    0 -0.19819322644E+02 -0.69787516321E+01 -0.23038166860E+03  0.23133789519E+03  0.00000000000E+00 0.  1.
          3    1    3    3  501    0 -0.13025836197E+02 -0.75319388552E+01 -0.18777932341E+03  0.18838120079E+03  0.00000000000E+00 0.  1.
         -3    1    1    2    0  502  0.32845158841E+02  0.14510690487E+02 -0.58050520921E+03  0.58161470280E+03  0.00000000000E+00 0. -1.
<mgrwt>
<rscale>  1 0.30000000E+03</rscale>
<asrwt>0</asrwt>
<pdfrwt beam="1">  1       21 0.48501876E-02 0.30000000E+03</pdfrwt>
<pdfrwt beam="2">0</pdfrwt>
<totfact> 0.30336709E+04</totfact>
</mgrwt>
</event>
<event>
 6    1  0.1284012E-001  0.3000000E+03  0.7818608E-02  0.1093470E+00
         21   -1    0    0  501  502  0.00000000000E+00  0.00000000000E+00  0.18167852935E+01  0.18167852935E+01  0.00000000000E+00 0. -1.
         13   -1    0    0    0    0 -0.00000000000E+00 -0.00000000000E+00 -0.10000000000E+04  0.10000000000E+04  0.00000000000E+00 0.  1.
    9000005    2    1    2  501    0  0.33666626110E+02 -0.10983539075E+02 -0.77732598667E+03  0.77813845594E+03  0.31124304912E+01 0.  0.
         13    1    3    3    0    0  0.13935737700E+02 -0.30032221963E+01 -0.30271718724E+03  0.30305266800E+03  0.00000000000E+00 0.  1.
          1    1    3    3  501    0  0.19730888410E+02 -0.79803168792E+01 -0.47460879942E+03  0.47508578794E+03  0.00000000000E+00 0.  1.
         -1    1    1    2    0  502 -0.33666626110E+02  0.10983539075E+02 -0.22085722804E+03  0.22367832935E+03  0.00000000000E+00 0. -1.
<mgrwt>
<rscale>  1 0.30000000E+03</rscale>
<asrwt>0</asrwt>
<pdfrwt beam="1">  1       21 0.66065059E-02 0.30000000E+03</pdfrwt>
<pdfrwt beam="2">0</pdfrwt>
<totfact> 0.17840629E+04</totfact>
</mgrwt>
</event>
<event>
 6    1  0.1284012E-001  0.3000000E+03  0.7818608E-02  0.1093470E+00
         21   -1    0    0  501  502  0.00000000000E+00  0.00000000000E+00  0.64866126693E+01  0.64866126693E+01  0.00000000000E+00 0. -1.
         13   -1    0    0    0    0 -0.00000000000E+00 -0.00000000000E+00 -0.10000000000E+04  0.10000000000E+04  0.00000000000E+00 0.  1.
    9000005    2    1    2  501    0 -0.13486563168E+02  0.72920088223E+02 -0.69269477641E+03  0.69666236680E+03  0.36295174269E+01 0.  0.
         13    1    3    3    0    0 -0.39681870174E+01  0.30144070582E+02 -0.27598279295E+03  0.27765250495E+03  0.00000000000E+00 0.  1.
          1    1    3    3  501    0 -0.95183761502E+01  0.42776017640E+02 -0.41671198345E+03  0.41900986184E+03  0.00000000000E+00 0.  1.
         -3    1    1    2    0  502  0.13486563168E+02 -0.72920088223E+02 -0.30081861093E+03  0.30982424587E+03  0.00000000000E+00 0. -1.
<mgrwt>
<rscale>  1 0.30000000E+03</rscale>
<asrwt>0</asrwt>
<pdfrwt beam="1">  1       21 0.23587732E-01 0.30000000E+03</pdfrwt>
<pdfrwt beam="2">0</pdfrwt>
<totfact> 0.17467422E+03</totfact>
</mgrwt>
</event>
<event>
 6    1  0.1284012E-001  0.3000000E+03  0.7818608E-02  0.1093470E+00
         21   -1    0    0  501  502  0.00000000000E+00  0.00000000000E+00  0.30854640918E+01  0.30854640918E+01  0.00000000000E+00 0. -1.
         13   -1    0    0    0    0 -0.00000000000E+00 -0.00000000000E+00 -0.10000000000E+04  0.10000000000E+04  0.00000000000E+00 0.  1.
    9000005    2    1    2  501    0  0.44290153769E+02  0.16487601614E+02 -0.76158889989E+03  0.76306127012E+03  0.33750233283E+01 0.  0.
         13    1    3    3    0    0  0.20012197611E+02  0.73281170452E+01 -0.37060885735E+03  0.37122111268E+03  0.00000000000E+00 0.  1.
          3    1    3    3  501    0  0.24277956158E+02  0.91594845688E+01 -0.39098004255E+03  0.39184015744E+03  0.00000000000E+00 0.  1.
         -3    1    1    2    0  502 -0.44290153769E+02 -0.16487601614E+02 -0.23532563601E+03  0.24002419397E+03  0.00000000000E+00 0. -1.
<mgrwt>
<rscale>  1 0.30000000E+03</rscale>
<asrwt>0</asrwt>
<pdfrwt beam="1">  1       21 0.11219893E-01 0.30000000E+03</pdfrwt>
<pdfrwt beam="2">0</pdfrwt>
<totfact> 0.69981029E+03</totfact>
</mgrwt>
</event>
<event>
 6    1  0.1284012E-001  0.3000000E+03  0.7818608E-02  0.1093470E+00
         21   -1    0    0  501  502  0.00000000000E+00  0.00000000000E+00  0.21714824992E+02  0.21714824992E+02  0.00000000000E+00 0. -1.
         13   -1    0    0    0    0 -0.00000000000E+00 -0.00000000000E+00 -0.10000000000E+04  0.10000000000E+04  0.00000000000E+00 0.  1.
    9000005    2    1    2  501    0 -0.19436220257E+02  0.34368575280E+02 -0.98131695325E+03  0.98211485903E+03  0.27691099457E+01 0.  0.
         13    1    3    3    0    0 -0.13139271388E+02  0.22463603586E+02 -0.61477098555E+03  0.61532155709E+03  0.00000000000E+00 0.  1.
          1    1    3    3  501    0 -0.62969488692E+01  0.11904971694E+02 -0.36654596770E+03  0.36679330194E+03  0.00000000000E+00 0.  1.
         -1    1    1    2    0  502  0.19436220257E+02 -0.34368575280E+02  0.30317782421E+01  0.39599965959E+02  0.00000000000E+00 0. -1.
<mgrwt>
<rscale>  1 0.30000000E+03</rscale>
<asrwt>0</asrwt>
<pdfrwt beam="1">  1       21 0.78963166E-01 0.30000000E+03</pdfrwt>
<pdfrwt beam="2">0</pdfrwt>
<totfact> 0.13278886E+02</totfact>
</mgrwt>
</event>
<event>
 6    1  0.1284012E-001  0.3000000E+03  0.7818608E-02  0.1093470E+00
         21   -1    0    0  501  502  0.00000000000E+00  0.00000000000E+00  0.10703274231E+01  0.10703274231E+01  0.00000000000E+00 0. -1.
         13   -1    0    0    0    0 -0.00000000000E+00 -0.00000000000E+00 -0.10000000000E+04  0.10000000000E+04  0.00000000000E+00 0.  1.
    9000005    2    1    2  501    0  0.13532097107E+02 -0.28131264653E+02 -0.35460142780E+03  0.35598632303E+03  0.30990136288E+01 0.  0.
         13    1    3    3    0    0  0.92252267003E+01 -0.19820690985E+02 -0.23181566214E+03  0.23284429521E+03  0.00000000000E+00 0.  1.
          1    1    3    3  501    0  0.43068704070E+01 -0.83105736683E+01 -0.12278576566E+03  0.12314202782E+03  0.00000000000E+00 0.  1.
         -1    1    1    2    0  502 -0.13532097107E+02  0.28131264653E+02 -0.64432824478E+03  0.64508400439E+03  0.00000000000E+00 0. -1.
<mgrwt>
<rscale>  1 0.30000000E+03</rscale>
<asrwt>0</asrwt>
<pdfrwt beam="1">  1       21 0.38921079E-02 0.30000000E+03</pdfrwt>
<pdfrwt beam="2">0</pdfrwt>
<totfact> 0.44027414E+04</totfact>
</mgrwt>
</event>
<event>
 6    1  0.1284012E-001  0.3000000E+03  0.7818608E-02  0.1093470E+00
         21   -1    0    0  501  502  0.00000000000E+00  0.00000000000E+00  0.13685228830E+01  0.13685228830E+01  0.00000000000E+00 0. -1.
         13   -1    0    0    0    0 -0.00000000000E+00 -0.00000000000E+00 -0.10000000000E+04  0.10000000000E+04  0.00000000000E+00 0.  1.
    9000005    2    1    2  501    0 -0.19443542138E+01 -0.31715324916E+02 -0.75488594758E+03  0.75556061919E+03  0.30680729855E+01 0.  0.
         13    1    3    3    0    0  0.50943800058E+00 -0.15471140196E+02 -0.35478855027E+03  0.35512607777E+03  0.00000000000E+00 0.  1.
          3    1    3    3  501    0 -0.24537922144E+01 -0.16244184719E+02 -0.40009739731E+03  0.40043454142E+03  0.00000000000E+00 0.  1.
         -1    1    1    2    0  502  0.19443542138E+01  0.31715324916E+02 -0.24374552954E+03  0.24580790369E+03  0.00000000000E+00 0. -1.
<mgrwt>
<rscale>  1 0.30000000E+03</rscale>
<asrwt>0</asrwt>
<pdfrwt beam="1">  1       21 0.49764573E-02 0.30000000E+03</pdfrwt>
<pdfrwt beam="2">0</pdfrwt>
<totfact> 0.29037317E+04</totfact>
</mgrwt>
</event>
<event>
 6    1  0.1284012E-001  0.3000000E+03  0.7818608E-02  0.1093470E+00
         21   -1    0    0  501  502  0.00000000000E+00  0.00000000000E+00  0.17369896667E+01  0.17369896667E+01  0.00000000000E+00 0. -1.
         13   -1    0    0    0    0 -0.00000000000E+00 -0.00000000000E+00 -0.10000000000E+04  0.10000000000E+04  0.00000000000E+00 0.  1.
    9000005    2    1    2  501    0  0.26753922006E+02  0.25936378825E+02 -0.71532588393E+03  0.71635674230E+03  0.93484720882E+01 0.  0.
         13    1    3    3    0    0  0.12816069088E+02  0.16409554839E+02 -0.46197703124E+03  0.46244599956E+03  0.00000000000E+00 0.  1.
          3    1    3    3  501    0  0.13937852918E+02  0.95268239867E+01 -0.25334885269E+03  0.25391074274E+03  0.00000000000E+00 0.  1.
         -1    1    1    2    0  502 -0.26753922006E+02 -0.25936378825E+02 -0.28293712641E+03  0.28538024737E+03  0.00000000000E+00 0. -1.
<mgrwt>
<rscale>  1 0.30000000E+03</rscale>
<asrwt>0</asrwt>
<pdfrwt beam="1">  1       21 0.63163394E-02 0.30000000E+03</pdfrwt>
<pdfrwt beam="2">0</pdfrwt>
<totfact> 0.19282883E+04</totfact>
</mgrwt>
</event>
<event>
 6    1  0.1284012E-001  0.3000000E+03  0.7818608E-02  0.1093470E+00
         21   -1    0    0  501  502  0.00000000000E+00  0.00000000000E+00  0.21283091438E+01  0.21283091438E+01  0.00000000000E+00 0. -1.
         13   -1    0    0    0    0 -0.00000000000E+00 -0.00000000000E+00 -0.10000000000E+04  0.10000000000E+04  0.00000000000E+00 0.  1.
    9000005    2    1    2  501    0  0.31547308092E+02 -0.56010202398E+01 -0.85921259667E+03  0.85981545492E+03  0.31186815504E+01 0.  0.
         13    1    3    3    0    0  0.30676547315E+02 -0.57655158587E+01 -0.82225992181E+03  0.82285215607E+03  0.00000000000E+00 0.  1.
          1    1    3    3  501    0  0.87076077716E+00  0.16449561884E+00 -0.36952674857E+02  0.36963298855E+02  0.00000000000E+00 0.  1.
         -3    1    1    2    0  502 -0.31547308092E+02  0.56010202398E+01 -0.13865909419E+03  0.14231285422E+03  0.00000000000E+00 0. -1.
<mgrwt>
<rscale>  1 0.30000000E+03</rscale>
<asrwt>0</asrwt>
<pdfrwt beam="1">  1       21 0.77393223E-02 0.30000000E+03</pdfrwt>
<pdfrwt beam="2">0</pdfrwt>
<totfact> 0.13538484E+04</totfact>
</mgrwt>
</event>
<event>
 6    1  0.1284012E-001  0.3000000E+03  0.7818608E-02  0.1093470E+00
         21   -1    0    0  501  502  0.00000000000E+00  0.00000000000E+00  0.27338734153E+01  0.27338734153E+01  0.00000000000E+00 0. -1.
         13   -1    0    0    0    0 -0.00000000000E+00 -0.00000000000E+00 -0.10000000000E+04  0.10000000000E+04  0.00000000000E+00 0.  1.
    9000005    2    1    2  501    0 -0.31781392314E+02  0.41233517770E+02 -0.54032118392E+03  0.54283286177E+03  0.32053299491E+01 0.  0.
         13    1    3    3    0    0 -0.14132474455E+02  0.16774380544E+02 -0.21444766620E+03  0.21556648212E+03  0.00000000000E+00 0.  1.
          3    1    3    3  501    0 -0.17648917859E+02  0.24459137226E+02 -0.32587351773E+03  0.32726637965E+03  0.00000000000E+00 0.  1.
         -1    1    1    2    0  502  0.31781392314E+02 -0.41233517770E+02 -0.45694494266E+03  0.45990101164E+03  0.00000000000E+00 0. -1.
<mgrwt>
<rscale>  1 0.30000000E+03</rscale>
<asrwt>0</asrwt>
<pdfrwt beam="1">  1       21 0.99413788E-02 0.30000000E+03</pdfrwt>
<pdfrwt beam="2">0</pdfrwt>
<totfact> 0.86940388E+03</totfact>
</mgrwt>
</event>
<event>
 6    1  0.1284012E-001  0.3000000E+03  0.7818608E-02  0.1093470E+00
         21   -1    0    0  501  502  0.00000000000E+00  0.00000000000E+00  0.11669152223E+01  0.11669152223E+01  0.00000000000E+00 0. -1.
         13   -1    0    0    0    0 -0.00000000000E+00 -0.00000000000E+00 -0.10000000000E+04  0.10000000000E+04  0.00000000000E+00 0.  1.
    9000005    2    1    2  501    0 -0.21823626458E+02 -0.23131221616E+02 -0.67986260357E+03  0.68061505988E+03  0.35179410836E+01 0.  0.
         13    1    3    3    0    0 -0.20660165385E+02 -0.22650192357E+02 -0.66093098153E+03  0.66164162202E+03  0.00000000000E+00 0.  1.
          3    1    3    3  501    0 -0.11634610727E+01 -0.48102925883E+00 -0.18931622043E+02  0.18973437854E+02  0.00000000000E+00 0.  1.
         -1    1    1    2    0  502  0.21823626458E+02  0.23131221616E+02 -0.31897048120E+03  0.32055185534E+03  0.00000000000E+00 0. -1.
<mgrwt>
<rscale>  1 0.30000000E+03</rscale>
<asrwt>0</asrwt>
<pdfrwt beam="1">  1       21 0.42433370E-02 0.30000000E+03</pdfrwt>
<pdfrwt beam="2">0</pdfrwt>
<totfact> 0.38060721E+04</totfact>
</mgrwt>
</event>
<event>
 6    1  0.1284012E-001  0.3000000E+03  0.7818608E-02  0.1093470E+00
         21   -1    0    0  501  502  0.00000000000E+00  0.00000000000E+00  0.21043937095E+01  0.21043937095E+01  0.00000000000E+00 0. -1.
         13   -1    0    0    0    0 -0.00000000000E+00 -0.00000000000E+00 -0.10000000000E+04  0.10000000000E+04  0.00000000000E+00 0.  1.
    9000005    2    1    2  501    0  0.32613486491E+02  0.32162566162E+02 -0.49061782153E+03  0.49276283731E+03  0.33610814345E+01 0.  0.
         13    1    3    3    0    0  0.17938930736E+02  0.16549470540E+02 -0.27693087007E+03  0.27800431114E+03  0.00000000000E+00 0.  1.
          3    1    3    3  501    0  0.14674555755E+02  0.15613095622E+02 -0.21368695145E+03  0.21475852617E+03  0.00000000000E+00 0.  1.
         -1    1    1    2    0  502 -0.32613486491E+02 -0.32162566162E+02 -0.50727778476E+03  0.50934155640E+03  0.00000000000E+00 0. -1.
<mgrwt>
<rscale>  1 0.30000000E+03</rscale>
<asrwt>0</asrwt>
<pdfrwt beam="1">  1       21 0.76523569E-02 0.30000000E+03</pdfrwt>
<pdfrwt beam="2">0</pdfrwt>
<totfact> 0.13809337E+04</totfact>
</mgrwt>
</event>
<event>
 6    1  0.1284012E-001  0.3000000E+03  0.7818608E-02  0.1093470E+00
         21   -1    0    0  501  502  0.00000000000E+00  0.00000000000E+00  0.99424076785E+01  0.99424076785E+01  0.00000000000E+00 0. -1.
         13   -1    0    0    0    0 -0.00000000000E+00 -0.00000000000E+00 -0.10000000000E+04  0.10000000000E+04  0.00000000000E+00 0.  1.
    9000005    2    1    2  501    0  0.60089888427E+02  0.41810602057E+02 -0.83781187032E+03  0.84101141288E+03  0.35419502964E+01 0.  0.
         13    1    3    3    0    0  0.36326168930E+02  0.26991471526E+02 -0.50611320975E+03  0.50813257244E+03  0.00000000000E+00 0.  1.
          1    1    3    3  501    0  0.23763719497E+02  0.14819130531E+02 -0.33169866056E+03  0.33287884044E+03  0.00000000000E+00 0.  1.
         -3    1    1    2    0  502 -0.60089888427E+02 -0.41810602057E+02 -0.15224572200E+03  0.16893099480E+03  0.00000000000E+00 0. -1.
<mgrwt>
<rscale>  1 0.30000000E+03</rscale>
<asrwt>0</asrwt>
<pdfrwt beam="1">  1       21 0.36154286E-01 0.30000000E+03</pdfrwt>
<pdfrwt beam="2">0</pdfrwt>
<totfact> 0.74459129E+02</totfact>
</mgrwt>
</event>
<event>
 6    1  0.1284012E-001  0.3000000E+03  0.7818608E-02  0.1093470E+00
         21   -1    0    0  501  502  0.00000000000E+00  0.00000000000E+00  0.13191594653E+01  0.13191594653E+01  0.00000000000E+00 0. -1.
         13   -1    0    0    0    0 -0.00000000000E+00 -0.00000000000E+00 -0.10000000000E+04  0.10000000000E+04  0.00000000000E+00 0.  1.
    9000005    2    1    2  501    0  0.35907894246E+02  0.62027139942E+00 -0.56741847486E+03  0.56856404436E+03  0.34037209747E+01 0.  0.
         13    1    3    3    0    0  0.30484492477E+02  0.16245892675E+01 -0.47178476280E+03  0.47277140986E+03  0.00000000000E+00 0.  1.
          1    1    3    3  501    0  0.54234017687E+01 -0.10043178681E+01 -0.95633712062E+02  0.95792634497E+02  0.00000000000E+00 0.  1.
         -1    1    1    2    0  502 -0.35907894246E+02 -0.62027139942E+00 -0.43126236567E+03  0.43275511510E+03  0.00000000000E+00 0. -1.
<mgrwt>
<rscale>  1 0.30000000E+03</rscale>
<asrwt>0</asrwt>
<pdfrwt beam="1">  1       21 0.47969536E-02 0.30000000E+03</pdfrwt>
<pdfrwt beam="2">0</pdfrwt>
<totfact> 0.30911917E+04</totfact>
</mgrwt>
</event>
<event>
 6    1  0.1284012E-001  0.3000000E+03  0.7818608E-02  0.1093470E+00
         21   -1    0    0  501  502  0.00000000000E+00  0.00000000000E+00  0.11881453328E+01  0.11881453328E+01  0.00000000000E+00 0. -1.
         13   -1    0    0    0    0 -0.00000000000E+00 -0.00000000000E+00 -0.10000000000E+04  0.10000000000E+04  0.00000000000E+00 0.  1.
    9000005    2    1    2  501    0 -0.27071551433E+02  0.20923164473E+02 -0.45072364323E+03  0.45203303498E+03  0.33785262356E+01 0.  0.
         13    1    3    3    0    0 -0.63428603486E+01  0.39001031973E+01 -0.11384550022E+03  0.11408874004E+03  0.00000000000E+00 0.  1.
          1    1    3    3  501    0 -0.20728691084E+02  0.17023061276E+02 -0.33687814301E+03  0.33794429495E+03  0.00000000000E+00 0.  1.
         -1    1    1    2    0  502  0.27071551433E+02 -0.20923164473E+02 -0.54808821143E+03  0.54915511035E+03  0.00000000000E+00 0. -1.
<mgrwt>
<rscale>  1 0.30000000E+03</rscale>
<asrwt>0</asrwt>
<pdfrwt beam="1">  1       21 0.43205376E-02 0.30000000E+03</pdfrwt>
<pdfrwt beam="2">0</pdfrwt>
<totfact> 0.36917997E+04</totfact>
</mgrwt>
</event>
<event>
 6    1  0.1284012E-001  0.3000000E+03  0.7818608E-02  0.1093470E+00
         21   -1    0    0  501  502  0.00000000000E+00  0.00000000000E+00  0.98697387399E+00  0.98697387399E+00  0.00000000000E+00 0. -1.
         13   -1    0    0    0    0 -0.00000000000E+00 -0.00000000000E+00 -0.10000000000E+04  0.10000000000E+04  0.00000000000E+00 0.  1.
    9000005    2    1    2  501    0  0.15106837953E+02 -0.27361732381E+02 -0.53444898156E+03  0.53537272102E+03  0.33698035850E+01 0.  0.
         13    1    3    3    0    0  0.39588923893E+01 -0.63106524018E+01 -0.10534921221E+03  0.10561227995E+03  0.00000000000E+00 0.  1.
          3    1    3    3  501    0  0.11147945564E+02 -0.21051079979E+02 -0.42909976935E+03  0.42976044107E+03  0.00000000000E+00 0.  1.
         -3    1    1    2    0  502 -0.15106837953E+02  0.27361732381E+02 -0.46456404457E+03  0.46561425285E+03  0.00000000000E+00 0. -1.
<mgrwt>
<rscale>  1 0.30000000E+03</rscale>
<asrwt>0</asrwt>
<pdfrwt beam="1">  1       21 0.35890035E-02 0.30000000E+03</pdfrwt>
<pdfrwt beam="2">0</pdfrwt>
<totfact> 0.50448450E+04</totfact>
</mgrwt>
</event>
<event>
 6    1  0.1284012E-001  0.3000000E+03  0.7818608E-02  0.1093470E+00
         21   -1    0    0  501  502  0.00000000000E+00  0.00000000000E+00  0.13698918714E+01  0.13698918714E+01  0.00000000000E+00 0. -1.
         13   -1    0    0    0    0 -0.00000000000E+00 -0.00000000000E+00 -0.10000000000E+04  0.10000000000E+04  0.00000000000E+00 0.  1.
    9000005    2    1    2  501    0 -0.35750966683E+02  0.92977088598E+00 -0.39405642265E+03  0.39573936319E+03  0.70840141810E+01 0.  0.
         13    1    3    3    0    0 -0.35776773223E+02  0.11349653222E+01 -0.38017073243E+03  0.38185213296E+03  0.00000000000E+00 0.  1.
          3    1    3    3  501    0  0.25806539930E-01 -0.20519443625E+00 -0.13885690220E+02  0.13887230236E+02  0.00000000000E+00 0.  1.
         -1    1    1    2    0  502  0.35750966683E+02 -0.92977088598E+00 -0.60457368548E+03  0.60563052868E+03  0.00000000000E+00 0. -1.
<mgrwt>
<rscale>  1 0.30000000E+03</rscale>
<asrwt>0</asrwt>
<pdfrwt beam="1">  1       21 0.49814355E-02 0.30000000E+03</pdfrwt>
<pdfrwt beam="2">0</pdfrwt>
<totfact> 0.28987877E+04</totfact>
</mgrwt>
</event>
<event>
 6    1  0.1284012E-001  0.3000000E+03  0.7818608E-02  0.1093470E+00
         21   -1    0    0  501  502  0.00000000000E+00  0.00000000000E+00  0.12593905409E+01  0.12593905409E+01  0.00000000000E+00 0. -1.
         13   -1    0    0    0    0 -0.00000000000E+00 -0.00000000000E+00 -0.10000000000E+04  0.10000000000E+04  0.00000000000E+00 0.  1.
    9000005    2    1    2  501    0 -0.31367456465E+02  0.82757974375E+01 -0.70008049817E+03  0.70084256641E+03  0.38977967766E+01 0.  0.
         13    1    3    3    0    0 -0.21565201989E+02  0.65503963605E+01 -0.44992364077E+03  0.45048778912E+03  0.00000000000E+00 0.  1.
          3    1    3    3  501    0 -0.98022544764E+01  0.17254010770E+01 -0.25015685741E+03  0.25035477729E+03  0.00000000000E+00 0.  1.
         -3    1    1    2    0  502  0.31367456465E+02 -0.82757974375E+01 -0.29866011129E+03  0.30041682413E+03  0.00000000000E+00 0. -1.
<mgrwt>
<rscale>  1 0.30000000E+03</rscale>
<asrwt>0</asrwt>
<pdfrwt beam="1">  1       21 0.45796116E-02 0.30000000E+03</pdfrwt>
<pdfrwt beam="2">0</pdfrwt>
<totfact> 0.33447242E+04</totfact>
</mgrwt>
</event>
<event>
 6    1  0.1284012E-001  0.3000000E+03  0.7818608E-02  0.1093470E+00
         21   -1    0    0  501  502  0.00000000000E+00  0.00000000000E+00  0.25356095395E+01  0.25356095395E+01  0.00000000000E+00 0. -1.
         13   -1    0    0    0    0 -0.00000000000E+00 -0.00000000000E+00 -0.10000000000E+04  0.10000000000E+04  0.00000000000E+00 0.  1.
    9000005    2    1    2  501    0 -0.30352326508E+02 -0.76855908613E+01 -0.89117310439E+03  0.89172870756E+03  0.32021666119E+01 0.  0.
         13    1    3    3    0    0 -0.24540502100E+02 -0.56080389255E+01 -0.68141655146E+03  0.68188137014E+03  0.00000000000E+00 0.  1.
          1    1    3    3  501    0 -0.58118244075E+01 -0.20775519358E+01 -0.20975655293E+03  0.20984733742E+03  0.00000000000E+00 0.  1.
         -3    1    1    2    0  502  0.30352326508E+02  0.76855908613E+01 -0.10629128607E+03  0.11080690198E+03  0.00000000000E+00 0. -1.
<mgrwt>
<rscale>  1 0.30000000E+03</rscale>
<asrwt>0</asrwt>
<pdfrwt beam="1">  1       21 0.92204178E-02 0.30000000E+03</pdfrwt>
<pdfrwt beam="2">0</pdfrwt>
<totfact> 0.99421304E+03</totfact>
</mgrwt>
</event>
<event>
 6    1  0.1284012E-001  0.3000000E+03  0.7818608E-02  0.1093470E+00
         21   -1    0    0  501  502  0.00000000000E+00  0.00000000000E+00  0.48751644677E+01  0.48751644677E+01  0.00000000000E+00 0. -1.
         13   -1    0    0    0    0 -0.00000000000E+00 -0.00000000000E+00 -0.10000000000E+04  0.10000000000E+04  0.00000000000E+00 0.  1.
    9000005    2    1    2  501    0 -0.14944873431E+02  0.39752901771E+02 -0.89628166019E+03  0.89729442385E+03  0.35813726595E+01 0.  0.
         13    1    3    3    0    0 -0.13676288622E+02  0.38274991562E+02 -0.86150852891E+03  0.86246678848E+03  0.00000000000E+00 0.  1.
          1    1    3    3  501    0 -0.12685848091E+01  0.14779102088E+01 -0.34773131286E+02  0.34827635369E+02  0.00000000000E+00 0.  1.
         -3    1    1    2    0  502  0.14944873431E+02 -0.39752901771E+02 -0.98843175341E+02  0.10758074062E+03  0.00000000000E+00 0. -1.
<mgrwt>
<rscale>  1 0.30000000E+03</rscale>
<asrwt>0</asrwt>
<pdfrwt beam="1">  1       21 0.17727908E-01 0.30000000E+03</pdfrwt>
<pdfrwt beam="2">0</pdfrwt>
<totfact> 0.30147413E+03</totfact>
</mgrwt>
</event>
<event>
 6    1  0.1284012E-001  0.3000000E+03  0.7818608E-02  0.1093470E+00
         21   -1    0    0  501  502  0.00000000000E+00  0.00000000000E+00  0.13847769249E+01  0.13847769249E+01  0.00000000000E+00 0. -1.
         13   -1    0    0    0    0 -0.00000000000E+00 -0.00000000000E+00 -0.10000000000E+04  0.10000000000E+04  0.00000000000E+00 0.  1.
    9000005    2    1    2  501    0  0.33808632077E+02  0.10303172645E+02 -0.65363927622E+03  0.65460302585E+03  0.34116075385E+01 0.  0.
         13    1    3    3    0    0  0.10957530856E+02  0.47522292389E+01 -0.20425793742E+03  0.20460683314E+03  0.00000000000E+00 0.  1.
          1    1    3    3  501    0  0.22851101221E+02  0.55509434066E+01 -0.44938133880E+03  0.44999619272E+03  0.00000000000E+00 0.  1.
         -3    1    1    2    0  502 -0.33808632077E+02 -0.10303172645E+02 -0.34497594685E+03  0.34678175107E+03  0.00000000000E+00 0. -1.
<mgrwt>
<rscale>  1 0.30000000E+03</rscale>
<asrwt>0</asrwt>
<pdfrwt beam="1">  1       21 0.50355631E-02 0.30000000E+03</pdfrwt>
<pdfrwt beam="2">0</pdfrwt>
<totfact> 0.28458667E+04</totfact>
</mgrwt>
</event>
<event>
 6    1  0.1284012E-001  0.3000000E+03  0.7818608E-02  0.1093470E+00
         21   -1    0    0  501  502  0.00000000000E+00  0.00000000000E+00  0.36275698747E+01  0.36275698747E+01  0.00000000000E+00 0. -1.
         13   -1    0    0    0    0 -0.00000000000E+00 -0.00000000000E+00 -0.10000000000E+04  0.10000000000E+04  0.00000000000E+00 0.  1.
    9000005    2    1    2  501    0 -0.44104475274E+02  0.42297886159E+01 -0.83799284891E+03  0.83916727802E+03  0.25709579197E+01 0.  0.
         13    1    3    3    0    0 -0.18300522727E+02  0.27902159838E+01 -0.36378071200E+03  0.36425142534E+03  0.00000000000E+00 0.  1.
          3    1    3    3  501    0 -0.25803952547E+02  0.14395726321E+01 -0.47421213691E+03  0.47491585268E+03  0.00000000000E+00 0.  1.
         -3    1    1    2    0  502  0.44104475274E+02 -0.42297886159E+01 -0.15837958121E+03  0.16446029185E+03  0.00000000000E+00 0. -1.
<mgrwt>
<rscale>  1 0.30000000E+03</rscale>
<asrwt>0</asrwt>
<pdfrwt beam="1">  1       21 0.13191191E-01 0.30000000E+03</pdfrwt>
<pdfrwt beam="2">0</pdfrwt>
<totfact> 0.52155241E+03</totfact>
</mgrwt>
</event>
<event>
 6    1  0.1284012E-001  0.3000000E+03  0.7818608E-02  0.1093470E+00
         21   -1    0    0  501  502  0.00000000000E+00  0.00000000000E+00  0.46310561421E+01  0.46310561421E+01  0.00000000000E+00 0. -1.
         13   -1    0    0    0    0 -0.00000000000E+00 -0.00000000000E+00 -0.10000000000E+04  0.10000000000E+04  0.00000000000E+00 0.  1.
    9000005    2    1    2  501    0  0.24259416948E+02 -0.39933364578E+02 -0.86276849287E+03  0.86403919109E+03  0.33254367684E+01 0.  0.
         13    1    3    3    0    0  0.13483732293E+02 -0.21877057664E+02 -0.50465975294E+03  0.50531364807E+03  0.00000000000E+00 0.  1.
          3    1    3    3  501    0  0.10775684655E+02 -0.18056306915E+02 -0.35810873993E+03  0.35872554302E+03  0.00000000000E+00 0.  1.
         -3    1    1    2    0  502 -0.24259416948E+02  0.39933364578E+02 -0.13260045099E+03  0.14059186506E+03  0.00000000000E+00 0. -1.
<mgrwt>
<rscale>  1 0.30000000E+03</rscale>
<asrwt>0</asrwt>
<pdfrwt beam="1">  1       21 0.16840240E-01 0.30000000E+03</pdfrwt>
<pdfrwt beam="2">0</pdfrwt>
<totfact> 0.33196884E+03</totfact>
</mgrwt>
</event>
<event>
 6    1  0.1284012E-001  0.3000000E+03  0.7818608E-02  0.1093470E+00
         21   -1    0    0  501  502  0.00000000000E+00  0.00000000000E+00  0.33945992353E+01  0.33945992353E+01  0.00000000000E+00 0. -1.
         13   -1    0    0    0    0 -0.00000000000E+00 -0.00000000000E+00 -0.10000000000E+04  0.10000000000E+04  0.00000000000E+00 0.  1.
    9000005    2    1    2  501    0 -0.37191869698E+02 -0.23909976386E+02 -0.82476607403E+03  0.82595819836E+03  0.35981143910E+01 0.  0.
         13    1    3    3    0    0 -0.20601538259E+02 -0.14019726370E+02 -0.43340700733E+03  0.43412280533E+03  0.00000000000E+00 0.  1.
          3    1    3    3  501    0 -0.16590331439E+02 -0.98902500166E+01 -0.39135906671E+03  0.39183539304E+03  0.00000000000E+00 0.  1.
         -3    1    1    2    0  502  0.37191869698E+02  0.23909976386E+02 -0.17183932673E+03  0.17743640087E+03  0.00000000000E+00 0. -1.
<mgrwt>
<rscale>  1 0.30000000E+03</rscale>
<asrwt>0</asrwt>
<pdfrwt beam="1">  1       21 0.12344023E-01 0.30000000E+03</pdfrwt>
<pdfrwt beam="2">0</pdfrwt>
<totfact> 0.58867482E+03</totfact>
</mgrwt>
</event>
<event>
 6    1  0.1284012E-001  0.3000000E+03  0.7818608E-02  0.1093470E+00
         21   -1    0    0  501  502  0.00000000000E+00  0.00000000000E+00  0.30363715030E+01  0.30363715030E+01  0.00000000000E+00 0. -1.
         13   -1    0    0    0    0 -0.00000000000E+00 -0.00000000000E+00 -0.10000000000E+04  0.10000000000E+04  0.00000000000E+00 0.  1.
    9000005    2    1    2  501    0 -0.46684465454E+02  0.71690904473E+01 -0.75658428615E+03  0.75806073313E+03  0.23362108162E+01 0.  0.
         13    1    3    3    0    0 -0.27027955629E+02  0.30306834533E+01 -0.42988529084E+03  0.43074477212E+03  0.00000000000E+00 0.  1.
          3    1    3    3  501    0 -0.19656509826E+02  0.41384069940E+01 -0.32669899531E+03  0.32731596101E+03  0.00000000000E+00 0.  1.
         -1    1    1    2    0  502  0.46684465454E+02 -0.71690904473E+01 -0.24037934234E+03  0.24497563838E+03  0.00000000000E+00 0. -1.
<mgrwt>
<rscale>  1 0.30000000E+03</rscale>
<asrwt>0</asrwt>
<pdfrwt beam="1">  1       21 0.11041374E-01 0.30000000E+03</pdfrwt>
<pdfrwt beam="2">0</pdfrwt>
<totfact> 0.72031971E+03</totfact>
</mgrwt>
</event>
<event>
 6    1  0.1284012E-001  0.3000000E+03  0.7818608E-02  0.1093470E+00
         21   -1    0    0  501  502  0.00000000000E+00  0.00000000000E+00  0.21041660430E+01  0.21041660430E+01  0.00000000000E+00 0. -1.
         13   -1    0    0    0    0 -0.00000000000E+00 -0.00000000000E+00 -0.10000000000E+04  0.10000000000E+04  0.00000000000E+00 0.  1.
    9000005    2    1    2  501    0 -0.33135315486E+02 -0.30943596041E+02 -0.57110122815E+03  0.57290830071E+03  0.34428136559E+01 0.  0.
         13    1    3    3    0    0 -0.14817328318E+02 -0.12234324712E+02 -0.22631386359E+03  0.22712815055E+03  0.00000000000E+00 0.  1.
          1    1    3    3  501    0 -0.18317987168E+02 -0.18709271329E+02 -0.34478736456E+03  0.34578015016E+03  0.00000000000E+00 0.  1.
         -1    1    1    2    0  502  0.33135315486E+02  0.30943596041E+02 -0.42679460581E+03  0.42919586533E+03  0.00000000000E+00 0. -1.
<mgrwt>
<rscale>  1 0.30000000E+03</rscale>
<asrwt>0</asrwt>
<pdfrwt beam="1">  1       21 0.76515290E-02 0.30000000E+03</pdfrwt>
<pdfrwt beam="2">0</pdfrwt>
<totfact> 0.13811955E+04</totfact>
</mgrwt>
</event>
<event>
 6    1  0.1284012E-001  0.3000000E+03  0.7818608E-02  0.1093470E+00
         21   -1    0    0  501  502  0.00000000000E+00  0.00000000000E+00  0.65237233597E+01  0.65237233597E+01  0.00000000000E+00 0. -1.
         13   -1    0    0    0    0 -0.00000000000E+00 -0.00000000000E+00 -0.10000000000E+04  0.10000000000E+04  0.00000000000E+00 0.  1.
    9000005    2    1    2  501    0  0.55238440796E+02  0.23946726282E+02 -0.83211070609E+03  0.83429254615E+03  0.33308174317E+01 0.  0.
         13    1    3    3    0    0  0.29932918501E+01  0.54521980421E+00 -0.45176695131E+02  0.45279033158E+02  0.00000000000E+00 0.  1.
          1    1    3    3  501    0  0.52245148946E+02  0.23401506478E+02 -0.78693401095E+03  0.78901351300E+03  0.00000000000E+00 0.  1.
         -1    1    1    2    0  502 -0.55238440796E+02 -0.23946726282E+02 -0.16136557056E+03  0.17223117721E+03  0.00000000000E+00 0. -1.
<mgrwt>
<rscale>  1 0.30000000E+03</rscale>
<asrwt>0</asrwt>
<pdfrwt beam="1">  1       21 0.23722680E-01 0.30000000E+03</pdfrwt>
<pdfrwt beam="2">0</pdfrwt>
<totfact> 0.17275000E+03</totfact>
</mgrwt>
</event>
<event>
 6    1  0.1284012E-001  0.3000000E+03  0.7818608E-02  0.1093470E+00
         21   -1    0    0  501  502  0.00000000000E+00  0.00000000000E+00  0.44171553433E+01  0.44171553433E+01  0.00000000000E+00 0. -1.
         13   -1    0    0    0    0 -0.00000000000E+00 -0.00000000000E+00 -0.10000000000E+04  0.10000000000E+04  0.00000000000E+00 0.  1.
    9000005    2    1    2  501    0  0.52990527932E+02 -0.20046087005E+01 -0.80029917631E+03  0.80206171156E+03  0.34932847418E+01 0.  0.
         13    1    3    3    0    0  0.19582530775E+02  0.93792176036E+00 -0.29768462507E+03  0.29832950107E+03  0.00000000000E+00 0.  1.
          3    1    3    3  501    0  0.33407997157E+02 -0.29425304608E+01 -0.50261455125E+03  0.50373221049E+03  0.00000000000E+00 0.  1.
         -1    1    1    2    0  502 -0.52990527932E+02  0.20046087005E+01 -0.19528366834E+03  0.20235544378E+03  0.00000000000E+00 0. -1.
<mgrwt>
<rscale>  1 0.30000000E+03</rscale>
<asrwt>0</asrwt>
<pdfrwt beam="1">  1       21 0.16062417E-01 0.30000000E+03</pdfrwt>
<pdfrwt beam="2">0</pdfrwt>
<totfact> 0.36262490E+03</totfact>
</mgrwt>
</event>
<event>
 6    1  0.1284012E-001  0.3000000E+03  0.7818608E-02  0.1093470E+00
         21   -1    0    0  501  502  0.00000000000E+00  0.00000000000E+00  0.13613086331E+01  0.13613086331E+01  0.00000000000E+00 0. -1.
         13   -1    0    0    0    0 -0.00000000000E+00 -0.00000000000E+00 -0.10000000000E+04  0.10000000000E+04  0.00000000000E+00 0.  1.
    9000005    2    1    2  501    0 -0.11387561293E+02 -0.29778708342E+02 -0.74968278664E+03  0.75037228393E+03  0.42232551557E+01 0.  0.
         13    1    3    3    0    0 -0.51505895794E+00 -0.25866411238E+01 -0.41055071426E+02  0.41139699657E+02  0.00000000000E+00 0.  1.
          3    1    3    3  501    0 -0.10872502335E+02 -0.27192067218E+02 -0.70862771522E+03  0.70923258428E+03  0.00000000000E+00 0.  1.
         -3    1    1    2    0  502  0.11387561293E+02  0.29778708342E+02 -0.24895590472E+03  0.25098902470E+03  0.00000000000E+00 0. -1.
<mgrwt>
<rscale>  1 0.30000000E+03</rscale>
<asrwt>0</asrwt>
<pdfrwt beam="1">  1       21 0.49502236E-02 0.30000000E+03</pdfrwt>
<pdfrwt beam="2">0</pdfrwt>
<totfact> 0.29300041E+04</totfact>
</mgrwt>
</event>
<event>
 6    1  0.1284012E-001  0.3000000E+03  0.7818608E-02  0.1093470E+00
         21   -1    0    0  501  502  0.00000000000E+00  0.00000000000E+00  0.12399270010E+01  0.12399270010E+01  0.00000000000E+00 0. -1.
         13   -1    0    0    0    0 -0.00000000000E+00 -0.00000000000E+00 -0.10000000000E+04  0.10000000000E+04  0.00000000000E+00 0.  1.
    9000005    2    1    2  501    0 -0.35872378652E+01 -0.34090888079E+02 -0.60931844247E+03  0.61029256416E+03  0.36045257540E+01 0.  0.
         13    1    3    3    0    0 -0.39138108761E+01 -0.30730755539E+02 -0.53304235847E+03  0.53394180691E+03  0.00000000000E+00 0.  1.
          3    1    3    3  501    0  0.32657301092E+00 -0.33601325398E+01 -0.76276084004E+02  0.76350757243E+02  0.00000000000E+00 0.  1.
         -1    1    1    2    0  502  0.35872378652E+01  0.34090888079E+02 -0.38944163053E+03  0.39094736284E+03  0.00000000000E+00 0. -1.
<mgrwt>
<rscale>  1 0.30000000E+03</rscale>
<asrwt>0</asrwt>
<pdfrwt beam="1">  1       21 0.45088350E-02 0.30000000E+03</pdfrwt>
<pdfrwt beam="2">0</pdfrwt>
<totfact> 0.34343683E+04</totfact>
</mgrwt>
</event>
<event>
 6    1  0.1284012E-001  0.3000000E+03  0.7818608E-02  0.1093470E+00
         21   -1    0    0  501  502  0.00000000000E+00  0.00000000000E+00  0.34883262415E+01  0.34883262415E+01  0.00000000000E+00 0. -1.
         13   -1    0    0    0    0 -0.00000000000E+00 -0.00000000000E+00 -0.10000000000E+04  0.10000000000E+04  0.00000000000E+00 0.  1.
    9000005    2    1    2  501    0 -0.17826481385E+02 -0.36844007201E+02 -0.85968963271E+03  0.86067538837E+03  0.45382002054E+01 0.  0.
         13    1    3    3    0    0 -0.12726767222E+02 -0.27766477525E+02 -0.67799938010E+03  0.67868704666E+03  0.00000000000E+00 0.  1.
          1    1    3    3  501    0 -0.50997141637E+01 -0.90775296761E+01 -0.18169025260E+03  0.18198834171E+03  0.00000000000E+00 0.  1.
         -1    1    1    2    0  502  0.17826481385E+02  0.36844007201E+02 -0.13682204105E+03  0.14281293787E+03  0.00000000000E+00 0. -1.
<mgrwt>
<rscale>  1 0.30000000E+03</rscale>
<asrwt>0</asrwt>
<pdfrwt beam="1">  1       21 0.12684849E-01 0.30000000E+03</pdfrwt>
<pdfrwt beam="2">0</pdfrwt>
<totfact> 0.56018255E+03</totfact>
</mgrwt>
</event>
<event>
 6    1  0.1284012E-001  0.3000000E+03  0.7818608E-02  0.1093470E+00
         21   -1    0    0  501  502  0.00000000000E+00  0.00000000000E+00  0.22748114820E+01  0.22748114820E+01  0.00000000000E+00 0. -1.
         13   -1    0    0    0    0 -0.00000000000E+00 -0.00000000000E+00 -0.10000000000E+04  0.10000000000E+04  0.00000000000E+00 0.  1.
    9000005    2    1    2  501    0  0.25507553151E+02 -0.17494591959E+02 -0.88004655281E+03  0.88059918813E+03  0.40372032628E+01 0.  0.
         13    1    3    3    0    0  0.22478920690E+02 -0.13822601924E+02 -0.72780195625E+03  0.72828020276E+03  0.00000000000E+00 0.  1.
          3    1    3    3  501    0  0.30286324605E+01 -0.36719900341E+01 -0.15224459656E+03  0.15231898538E+03  0.00000000000E+00 0.  1.
         -1    1    1    2    0  502 -0.25507553151E+02  0.17494591959E+02 -0.11767863571E+03  0.12167562335E+03  0.00000000000E+00 0. -1.
<mgrwt>
<rscale>  1 0.30000000E+03</rscale>
<asrwt>0</asrwt>
<pdfrwt beam="1">  1       21 0.82720592E-02 0.30000000E+03</pdfrwt>
<pdfrwt beam="2">0</pdfrwt>
<totfact> 0.12044445E+04</totfact>
</mgrwt>
</event>
<event>
 6    1  0.1284012E-001  0.3000000E+03  0.7818608E-02  0.1093470E+00
         21   -1    0    0  501  502  0.00000000000E+00  0.00000000000E+00  0.27857395152E+01  0.27857395152E+01  0.00000000000E+00 0. -1.
         13   -1    0    0    0    0 -0.00000000000E+00 -0.00000000000E+00 -0.10000000000E+04  0.10000000000E+04  0.00000000000E+00 0.  1.
    9000005    2    1    2  501    0 -0.51233607339E+02 -0.11634509025E+02 -0.53353599891E+03  0.53614050534E+03  0.50729688053E+01 0.  0.
         13    1    3    3    0    0 -0.26399836076E+02 -0.76787074116E+01 -0.25899299472E+03  0.26044823902E+03  0.00000000000E+00 0.  1.
          3    1    3    3  501    0 -0.24833771262E+02 -0.39558016138E+01 -0.27454300418E+03  0.27569226632E+03  0.00000000000E+00 0.  1.
         -1    1    1    2    0  502  0.51233607339E+02  0.11634509025E+02 -0.46367826158E+03  0.46664523418E+03  0.00000000000E+00 0. -1.
<mgrwt>
<rscale>  1 0.30000000E+03</rscale>
<asrwt>0</asrwt>
<pdfrwt beam="1">  1       21 0.10129983E-01 0.30000000E+03</pdfrwt>
<pdfrwt beam="2">0</pdfrwt>
<totfact> 0.84068657E+03</totfact>
</mgrwt>
</event>
<event>
 6    1  0.1284012E-001  0.3000000E+03  0.7818608E-02  0.1093470E+00
         21   -1    0    0  501  502  0.00000000000E+00  0.00000000000E+00  0.23434123814E+01  0.23434123814E+01  0.00000000000E+00 0. -1.
         13   -1    0    0    0    0 -0.00000000000E+00 -0.00000000000E+00 -0.10000000000E+04  0.10000000000E+04  0.00000000000E+00 0.  1.
    9000005    2    1    2  501    0  0.37041943316E+02 -0.25359652337E+02 -0.68243760935E+03  0.68394394348E+03  0.65581740269E+01 0.  0.
         13    1    3    3    0    0  0.21379079448E+01 -0.16426646895E+00 -0.47780559010E+02  0.47828646784E+02  0.00000000000E+00 0.  1.
          3    1    3    3  501    0  0.34904035371E+02 -0.25195385868E+02 -0.63465705034E+03  0.63611529670E+03  0.00000000000E+00 0.  1.
         -3    1    1    2    0  502 -0.37041943316E+02  0.25359652337E+02 -0.31521897827E+03  0.31839946890E+03  0.00000000000E+00 0. -1.
<mgrwt>
<rscale>  1 0.30000000E+03</rscale>
<asrwt>0</asrwt>
<pdfrwt beam="1">  1       21 0.85215175E-02 0.30000000E+03</pdfrwt>
<pdfrwt beam="2">0</pdfrwt>
<totfact> 0.11430184E+04</totfact>
</mgrwt>
</event>
<event>
 6    1  0.1284012E-001  0.3000000E+03  0.7818608E-02  0.1093470E+00
         21   -1    0    0  501  502  0.00000000000E+00  0.00000000000E+00  0.10493814742E+01  0.10493814742E+01  0.00000000000E+00 0. -1.
         13   -1    0    0    0    0 -0.00000000000E+00 -0.00000000000E+00 -0.10000000000E+04  0.10000000000E+04  0.00000000000E+00 0.  1.
    9000005    2    1    2  501    0 -0.20516778589E+02  0.21978322674E+02 -0.68344140402E+03  0.68411082385E+03  0.33884668760E+01 0.  0.
         13    1    3    3    0    0 -0.46475621589E+01  0.30738571477E+01 -0.12922590818E+03  0.12934598477E+03  0.00000000000E+00 0.  1.
          3    1    3    3  501    0 -0.15869216430E+02  0.18904465526E+02 -0.55421549584E+03  0.55476483908E+03  0.00000000000E+00 0.  1.
         -1    1    1    2    0  502  0.20516778589E+02 -0.21978322674E+02 -0.31550921451E+03  0.31693855763E+03  0.00000000000E+00 0. -1.
<mgrwt>
<rscale>  1 0.30000000E+03</rscale>
<asrwt>0</asrwt>
<pdfrwt beam="1">  1       21 0.38159407E-02 0.30000000E+03</pdfrwt>
<pdfrwt beam="2">0</pdfrwt>
<totfact> 0.45514806E+04</totfact>
</mgrwt>
</event>
<event>
 6    1  0.1284012E-001  0.3000000E+03  0.7818608E-02  0.1093470E+00
         21   -1    0    0  501  502  0.00000000000E+00  0.00000000000E+00  0.11620353101E+01  0.11620353101E+01  0.00000000000E+00 0. -1.
         13   -1    0    0    0    0 -0.00000000000E+00 -0.00000000000E+00 -0.10000000000E+04  0.10000000000E+04  0.00000000000E+00 0.  1.
    9000005    2    1    2  501    0 -0.29094092617E+02  0.12222611040E+02 -0.68739538682E+03  0.68812475677E+03  0.27211416590E+01 0.  0.
         13    1    3    3    0    0 -0.17433333787E+02  0.80640575652E+01 -0.39282325711E+03  0.39329259017E+03  0.00000000000E+00 0.  1.
          1    1    3    3  501    0 -0.11660758830E+02  0.41585534749E+01 -0.29457212971E+03  0.29483216660E+03  0.00000000000E+00 0.  1.
         -1    1    1    2    0  502  0.29094092617E+02 -0.12222611040E+02 -0.31144257787E+03  0.31303727854E+03  0.00000000000E+00 0. -1.
<mgrwt>
<rscale>  1 0.30000000E+03</rscale>
<asrwt>0</asrwt>
<pdfrwt beam="1">  1       21 0.42255919E-02 0.30000000E+03</pdfrwt>
<pdfrwt beam="2">0</pdfrwt>
<totfact> 0.38331153E+04</totfact>
</mgrwt>
</event>
<event>
 6    1  0.1284012E-001  0.3000000E+03  0.7818608E-02  0.1093470E+00
         21   -1    0    0  501  502  0.00000000000E+00  0.00000000000E+00  0.62055882938E+01  0.62055882938E+01  0.00000000000E+00 0. -1.
         13   -1    0    0    0    0 -0.00000000000E+00 -0.00000000000E+00 -0.10000000000E+04  0.10000000000E+04  0.00000000000E+00 0.  1.
    9000005    2    1    2  501    0 -0.13220204405E+02  0.45166772659E+02 -0.90029318836E+03  0.90152851381E+03  0.33203965226E+01 0.  0.
         13    1    3    3    0    0 -0.26752451797E+01  0.13483192139E+02 -0.27982126214E+03  0.28015869102E+03  0.00000000000E+00 0.  1.
          3    1    3    3  501    0 -0.10544959225E+02  0.31683580519E+02 -0.62047192622E+03  0.62136982279E+03  0.00000000000E+00 0.  1.
         -3    1    1    2    0  502  0.13220204405E+02 -0.45166772659E+02 -0.93501223342E+02  0.10467707449E+03  0.00000000000E+00 0. -1.
<mgrwt>
<rscale>  1 0.30000000E+03</rscale>
<asrwt>0</asrwt>
<pdfrwt beam="1">  1       21 0.22565823E-01 0.30000000E+03</pdfrwt>
<pdfrwt beam="2">0</pdfrwt>
<totfact> 0.19031007E+03</totfact>
</mgrwt>
</event>
<event>
 6    1  0.1284012E-001  0.3000000E+03  0.7818608E-02  0.1093470E+00
         21   -1    0    0  501  502  0.00000000000E+00  0.00000000000E+00  0.20358206690E+01  0.20358206690E+01  0.00000000000E+00 0. -1.
         13   -1    0    0    0    0 -0.00000000000E+00 -0.00000000000E+00 -0.10000000000E+04  0.10000000000E+04  0.00000000000E+00 0.  1.
    9000005    2    1    2  501    0 -0.24181922460E+02 -0.26092513467E+02 -0.80668622156E+03  0.80747775283E+03  0.34751438828E+01 0.  0.
         13    1    3    3    0    0 -0.15043548349E+02 -0.14164260838E+02 -0.48906548182E+03  0.48950176724E+03  0.00000000000E+00 0.  1.
          3    1    3    3  501    0 -0.91383741105E+01 -0.11928252629E+02 -0.31762073975E+03  0.31797598559E+03  0.00000000000E+00 0.  1.
         -3    1    1    2    0  502  0.24181922460E+02  0.26092513467E+02 -0.19127795777E+03  0.19455806784E+03  0.00000000000E+00 0. -1.
<mgrwt>
<rscale>  1 0.30000000E+03</rscale>
<asrwt>0</asrwt>
<pdfrwt beam="1">  1       21 0.74029999E-02 0.30000000E+03</pdfrwt>
<pdfrwt beam="2">0</pdfrwt>
<totfact> 0.14634109E+04</totfact>
</mgrwt>
</event>
<event>
 6    1  0.1284012E-001  0.3000000E+03  0.7818608E-02  0.1093470E+00
         21   -1    0    0  501  502  0.00000000000E+00  0.00000000000E+00  0.10494501149E+01  0.10494501149E+01  0.00000000000E+00 0. -1.
         13   -1    0    0    0    0 -0.00000000000E+00 -0.00000000000E+00 -0.10000000000E+04  0.10000000000E+04  0.00000000000E+00 0.  1.
    9000005    2    1    2  501    0 -0.21490713974E+02  0.23080385390E+02 -0.39024535704E+03  0.39152786167E+03  0.28412673580E+01 0.  0.
         13    1    3    3    0    0 -0.52295514695E+01  0.70525431036E+01 -0.98617550990E+02  0.99007615546E+02  0.00000000000E+00 0.  1.
          3    1    3    3  501    0 -0.16261162504E+02  0.16027842287E+02 -0.29162780605E+03  0.29252024613E+03  0.00000000000E+00 0.  1.
         -1    1    1    2    0  502  0.21490713974E+02 -0.23080385390E+02 -0.60870519285E+03  0.60952158844E+03  0.00000000000E+00 0. -1.
<mgrwt>
<rscale>  1 0.30000000E+03</rscale>
<asrwt>0</asrwt>
<pdfrwt beam="1">  1       21 0.38161903E-02 0.30000000E+03</pdfrwt>
<pdfrwt beam="2">0</pdfrwt>
<totfact> 0.45509803E+04</totfact>
</mgrwt>
</event>
<event>
 6    1  0.1284012E-001  0.3000000E+03  0.7818608E-02  0.1093470E+00
         21   -1    0    0  501  502  0.00000000000E+00  0.00000000000E+00  0.16807736166E+01  0.16807736166E+01  0.00000000000E+00 0. -1.
         13   -1    0    0    0    0 -0.00000000000E+00 -0.00000000000E+00 -0.10000000000E+04  0.10000000000E+04  0.00000000000E+00 0.  1.
    9000005    2    1    2  501    0  0.22404934997E+01 -0.32183104152E+02 -0.80750712024E+03  0.80816066651E+03  0.38912273598E+01 0.  0.
         13    1    3    3    0    0  0.27089580402E+00 -0.18223729838E+02 -0.41365771272E+03  0.41405903082E+03  0.00000000000E+00 0.  1.
          3    1    3    3  501    0  0.19695976956E+01 -0.13959374314E+02 -0.39384940752E+03  0.39410163569E+03  0.00000000000E+00 0.  1.
         -3    1    1    2    0  502 -0.22404934997E+01  0.32183104152E+02 -0.19081210614E+03  0.19352010711E+03  0.00000000000E+00 0. -1.
<mgrwt>
<rscale>  1 0.30000000E+03</rscale>
<asrwt>0</asrwt>
<pdfrwt beam="1">  1       21 0.61119169E-02 0.30000000E+03</pdfrwt>
<pdfrwt beam="2">0</pdfrwt>
<totfact> 0.20410391E+04</totfact>
</mgrwt>
</event>
<event>
 6    1  0.1284012E-001  0.3000000E+03  0.7818608E-02  0.1093470E+00
         21   -1    0    0  501  502  0.00000000000E+00  0.00000000000E+00  0.12895885043E+02  0.12895885043E+02  0.00000000000E+00 0. -1.
         13   -1    0    0    0    0 -0.00000000000E+00 -0.00000000000E+00 -0.10000000000E+04  0.10000000000E+04  0.00000000000E+00 0.  1.
    9000005    2    1    2  501    0  0.71135785376E+02  0.32945243953E+02 -0.85983694100E+03  0.86342139683E+03  0.55905576103E+01 0.  0.
         13    1    3    3    0    0  0.46331825818E+02  0.19720972009E+02 -0.52757764838E+03  0.52997521630E+03  0.00000000000E+00 0.  1.
          3    1    3    3  501    0  0.24803959557E+02  0.13224271944E+02 -0.33225929262E+03  0.33344618053E+03  0.00000000000E+00 0.  1.
         -3    1    1    2    0  502 -0.71135785376E+02 -0.32945243953E+02 -0.12726717396E+03  0.14947448822E+03  0.00000000000E+00 0. -1.
<mgrwt>
<rscale>  1 0.30000000E+03</rscale>
<asrwt>0</asrwt>
<pdfrwt beam="1">  1       21 0.46894226E-01 0.30000000E+03</pdfrwt>
<pdfrwt beam="2">0</pdfrwt>
<totfact> 0.43139380E+02</totfact>
</mgrwt>
</event>
<event>
 6    1  0.1284012E-001  0.3000000E+03  0.7818608E-02  0.1093470E+00
         21   -1    0    0  501  502  0.00000000000E+00  0.00000000000E+00  0.44190388729E+01  0.44190388729E+01  0.00000000000E+00 0. -1.
         13   -1    0    0    0    0 -0.00000000000E+00 -0.00000000000E+00 -0.10000000000E+04  0.10000000000E+04  0.00000000000E+00 0.  1.
    9000005    2    1    2  501    0  0.92693158093E+01  0.28929464902E+02 -0.94445099841E+03  0.94494545446E+03  0.33748123295E+01 0.  0.
         13    1    3    3    0    0  0.23130585772E+01  0.12679336954E+02 -0.39907638569E+03  0.39928445680E+03  0.00000000000E+00 0.  1.
          3    1    3    3  501    0  0.69562572322E+01  0.16250127948E+02 -0.54537461271E+03  0.54566099766E+03  0.00000000000E+00 0.  1.
         -1    1    1    2    0  502 -0.92693158093E+01 -0.28929464902E+02 -0.51129962719E+02  0.59473584411E+02  0.00000000000E+00 0. -1.
<mgrwt>
<rscale>  1 0.30000000E+03</rscale>
<asrwt>0</asrwt>
<pdfrwt beam="1">  1       21 0.16069266E-01 0.30000000E+03</pdfrwt>
<pdfrwt beam="2">0</pdfrwt>
<totfact> 0.36233678E+03</totfact>
</mgrwt>
</event>
<event>
 6    1  0.1284012E-001  0.3000000E+03  0.7818608E-02  0.1093470E+00
         21   -1    0    0  501  502  0.00000000000E+00  0.00000000000E+00  0.28967330851E+02  0.28967330851E+02  0.00000000000E+00 0. -1.
         13   -1    0    0    0    0 -0.00000000000E+00 -0.00000000000E+00 -0.10000000000E+04  0.10000000000E+04  0.00000000000E+00 0.  1.
    9000005    2    1    2  501    0  0.72128160196E+01  0.49664817593E+02 -0.97712165184E+03  0.97841345334E+03  0.27467003772E+01 0.  0.
         13    1    3    3    0    0  0.45989034607E+01  0.35731887137E+02 -0.72193046308E+03  0.72282882566E+03  0.00000000000E+00 0.  1.
          3    1    3    3  501    0  0.26139125589E+01  0.13932930456E+02 -0.25519118875E+03  0.25558462768E+03  0.00000000000E+00 0.  1.
         -1    1    1    2    0  502 -0.72128160196E+01 -0.49664817593E+02  0.60889826880E+01  0.50553877513E+02  0.00000000000E+00 0. -1.
<mgrwt>
<rscale>  1 0.30000000E+03</rscale>
<asrwt>0</asrwt>
<pdfrwt beam="1">  1       21 0.10533597E+00 0.30000000E+03</pdfrwt>
<pdfrwt beam="2">0</pdfrwt>
<totfact> 0.64385115E+01</totfact>
</mgrwt>
</event>
<event>
 6    1  0.1284012E-001  0.3000000E+03  0.7818608E-02  0.1093470E+00
         21   -1    0    0  501  502  0.00000000000E+00  0.00000000000E+00  0.39485968882E+01  0.39485968882E+01  0.00000000000E+00 0. -1.
         13   -1    0    0    0    0 -0.00000000000E+00 -0.00000000000E+00 -0.10000000000E+04  0.10000000000E+04  0.00000000000E+00 0.  1.
    9000005    2    1    2  501    0  0.59414931813E+02  0.24963034607E+01 -0.65942208490E+03  0.66210702023E+03  0.34430406213E+01 0.  0.
         13    1    3    3    0    0  0.58138782172E+02  0.29423017641E+01 -0.64522636334E+03  0.64784707692E+03  0.00000000000E+00 0.  1.
          1    1    3    3  501    0  0.12761496416E+01 -0.44599830346E+00 -0.14195721566E+02  0.14259943309E+02  0.00000000000E+00 0.  1.
         -1    1    1    2    0  502 -0.59414931813E+02 -0.24963034607E+01 -0.33662931821E+03  0.34184157666E+03  0.00000000000E+00 0. -1.
<mgrwt>
<rscale>  1 0.30000000E+03</rscale>
<asrwt>0</asrwt>
<pdfrwt beam="1">  1       21 0.14358564E-01 0.30000000E+03</pdfrwt>
<pdfrwt beam="2">0</pdfrwt>
<totfact> 0.44640919E+03</totfact>
</mgrwt>
</event>
<event>
 6    1  0.1284012E-001  0.3000000E+03  0.7818608E-02  0.1093470E+00
         21   -1    0    0  501  502  0.00000000000E+00  0.00000000000E+00  0.16512033362E+01  0.16512033362E+01  0.00000000000E+00 0. -1.
         13   -1    0    0    0    0 -0.00000000000E+00 -0.00000000000E+00 -0.10000000000E+04  0.10000000000E+04  0.00000000000E+00 0.  1.
    9000005    2    1    2  501    0  0.34362873729E+02 -0.20616186014E+02 -0.57654965604E+03  0.57795278554E+03  0.37526271348E+01 0.  0.
         13    1    3    3    0    0  0.62294180330E+01 -0.30838875970E+01 -0.12011478800E+03  0.12031574422E+03  0.00000000000E+00 0.  1.
          1    1    3    3  501    0  0.28133455696E+02 -0.17532298417E+02 -0.45643486804E+03  0.45763704132E+03  0.00000000000E+00 0.  1.
         -1    1    1    2    0  502 -0.34362873729E+02  0.20616186014E+02 -0.42179914062E+03  0.42369841780E+03  0.00000000000E+00 0. -1.
<mgrwt>
<rscale>  1 0.30000000E+03</rscale>
<asrwt>0</asrwt>
<pdfrwt beam="1">  1       21 0.60043884E-02 0.30000000E+03</pdfrwt>
<pdfrwt beam="2">0</pdfrwt>
<totfact> 0.21045111E+04</totfact>
</mgrwt>
</event>
<event>
 6    1  0.1284012E-001  0.3000000E+03  0.7818608E-02  0.1093470E+00
         21   -1    0    0  501  502  0.00000000000E+00  0.00000000000E+00  0.11545759916E+01  0.11545759916E+01  0.00000000000E+00 0. -1.
         13   -1    0    0    0    0 -0.00000000000E+00 -0.00000000000E+00 -0.10000000000E+04  0.10000000000E+04  0.00000000000E+00 0.  1.
    9000005    2    1    2  501    0  0.30217012010E+02 -0.49120010856E+01 -0.71494075017E+03  0.71560412616E+03  0.34341752671E+01 0.  0.
         13    1    3    3    0    0  0.24460063961E+02 -0.28496187923E+01 -0.55324840433E+03  0.55379618268E+03  0.00000000000E+00 0.  1.
          1    1    3    3  501    0  0.57569480493E+01 -0.20623822932E+01 -0.16169234584E+03  0.16180794348E+03  0.00000000000E+00 0.  1.
         -1    1    1    2    0  502 -0.30217012010E+02  0.49120010856E+01 -0.28390467384E+03  0.28555044983E+03  0.00000000000E+00 0. -1.
<mgrwt>
<rscale>  1 0.30000000E+03</rscale>
<asrwt>0</asrwt>
<pdfrwt beam="1">  1       21 0.41984670E-02 0.30000000E+03</pdfrwt>
<pdfrwt beam="2">0</pdfrwt>
<totfact> 0.38750339E+04</totfact>
</mgrwt>
</event>
<event>
 6    1  0.1284012E-001  0.3000000E+03  0.7818608E-02  0.1093470E+00
         21   -1    0    0  501  502  0.00000000000E+00  0.00000000000E+00  0.56666805702E+01  0.56666805702E+01  0.00000000000E+00 0. -1.
         13   -1    0    0    0    0 -0.00000000000E+00 -0.00000000000E+00 -0.10000000000E+04  0.10000000000E+04  0.00000000000E+00 0.  1.
    9000005    2    1    2  501    0  0.66995391260E+02 -0.18276209067E+02 -0.69075315810E+03  0.69424523523E+03  0.37575177179E+01 0.  0.
         13    1    3    3    0    0  0.26634193418E+02 -0.55442589187E+01 -0.26256374641E+03  0.26396939216E+03  0.00000000000E+00 0.  1.
          1    1    3    3  501    0  0.40361197842E+02 -0.12731950148E+02 -0.42818941169E+03  0.43027584307E+03  0.00000000000E+00 0.  1.
         -1    1    1    2    0  502 -0.66995391260E+02  0.18276209067E+02 -0.30358016133E+03  0.31142144534E+03  0.00000000000E+00 0. -1.
<mgrwt>
<rscale>  1 0.30000000E+03</rscale>
<asrwt>0</asrwt>
<pdfrwt beam="1">  1       21 0.20606155E-01 0.30000000E+03</pdfrwt>
<pdfrwt beam="2">0</pdfrwt>
<totfact> 0.22661253E+03</totfact>
</mgrwt>
</event>
<event>
 6    1  0.1284012E-001  0.3000000E+03  0.7818608E-02  0.1093470E+00
         21   -1    0    0  501  502  0.00000000000E+00  0.00000000000E+00  0.14057402789E+01  0.14057402789E+01  0.00000000000E+00 0. -1.
         13   -1    0    0    0    0 -0.00000000000E+00 -0.00000000000E+00 -0.10000000000E+04  0.10000000000E+04  0.00000000000E+00 0.  1.
    9000005    2    1    2  501    0  0.11401968590E+02  0.34179182895E+02 -0.63534742839E+03  0.63637631420E+03  0.31995440934E+01 0.  0.
         13    1    3    3    0    0  0.78276893133E+01  0.26783137107E+02 -0.50498816637E+03  0.50575849704E+03  0.00000000000E+00 0.  1.
          3    1    3    3  501    0  0.35742792765E+01  0.73960457883E+01 -0.13035926202E+03  0.13061781716E+03  0.00000000000E+00 0.  1.
         -3    1    1    2    0  502 -0.11401968590E+02 -0.34179182895E+02 -0.36324683133E+03  0.36502942608E+03  0.00000000000E+00 0. -1.
<mgrwt>
<rscale>  1 0.30000000E+03</rscale>
<asrwt>0</asrwt>
<pdfrwt beam="1">  1       21 0.51117936E-02 0.30000000E+03</pdfrwt>
<pdfrwt beam="2">0</pdfrwt>
<totfact> 0.27738467E+04</totfact>
</mgrwt>
</event>
<event>
 6    1  0.1284012E-001  0.3000000E+03  0.7818608E-02  0.1093470E+00
         21   -1    0    0  501  502  0.00000000000E+00  0.00000000000E+00  0.17172419876E+01  0.17172419876E+01  0.00000000000E+00 0. -1.
         13   -1    0    0    0    0 -0.00000000000E+00 -0.00000000000E+00 -0.10000000000E+04  0.10000000000E+04  0.00000000000E+00 0.  1.
    9000005    2    1    2  501    0 -0.30276382330E+02  0.15601427786E+02 -0.78393553613E+03  0.78468085010E+03  0.30079604829E+01 0.  0.
         13    1    3    3    0    0 -0.26360085280E+02  0.12633981885E+02 -0.65583949100E+03  0.65649060127E+03  0.00000000000E+00 0.  1.
          3    1    3    3  501    0 -0.39162970502E+01  0.29674459010E+01 -0.12809604513E+03  0.12819024883E+03  0.00000000000E+00 0.  1.
         -3    1    1    2    0  502  0.30276382330E+02 -0.15601427786E+02 -0.21434722188E+03  0.21703639189E+03  0.00000000000E+00 0. -1.
<mgrwt>
<rscale>  1 0.30000000E+03</rscale>
<asrwt>0</asrwt>
<pdfrwt beam="1">  1       21 0.62445295E-02 0.30000000E+03</pdfrwt>
<pdfrwt beam="2">0</pdfrwt>
<totfact> 0.19667700E+04</totfact>
</mgrwt>
</event>
<event>
 6    1  0.1284012E-001  0.3000000E+03  0.7818608E-02  0.1093470E+00
         21   -1    0    0  501  502  0.00000000000E+00  0.00000000000E+00  0.33248488294E+01  0.33248488294E+01  0.00000000000E+00 0. -1.
         13   -1    0    0    0    0 -0.00000000000E+00 -0.00000000000E+00 -0.10000000000E+04  0.10000000000E+04  0.00000000000E+00 0.  1.
    9000005    2    1    2  501    0 -0.10611711231E+02  0.36593359207E+02 -0.87474541200E+03  0.87558079359E+03  0.32415962361E+01 0.  0.
         13    1    3    3    0    0  0.16280240308E+00  0.17650582504E+01 -0.44795723359E+02  0.44830779231E+02  0.00000000000E+00 0.  1.
          3    1    3    3  501    0 -0.10774513634E+02  0.34828300956E+02 -0.82994968864E+03  0.83075001436E+03  0.00000000000E+00 0.  1.
         -1    1    1    2    0  502  0.10611711231E+02 -0.36593359207E+02 -0.12192973917E+03  0.12774405524E+03  0.00000000000E+00 0. -1.
<mgrwt>
<rscale>  1 0.30000000E+03</rscale>
<asrwt>0</asrwt>
<pdfrwt beam="1">  1       21 0.12090385E-01 0.30000000E+03</pdfrwt>
<pdfrwt beam="2">0</pdfrwt>
<totfact> 0.61132573E+03</totfact>
</mgrwt>
</event>
<event>
 6    1  0.1284012E-001  0.3000000E+03  0.7818608E-02  0.1093470E+00
         21   -1    0    0  501  502  0.00000000000E+00  0.00000000000E+00  0.12975289198E+01  0.12975289198E+01  0.00000000000E+00 0. -1.
         13   -1    0    0    0    0 -0.00000000000E+00 -0.00000000000E+00 -0.10000000000E+04  0.10000000000E+04  0.00000000000E+00 0.  1.
    9000005    2    1    2  501    0  0.30096562751E+02 -0.18066602074E+02 -0.39705330242E+03  0.39862520721E+03  0.43041450233E+01 0.  0.
         13    1    3    3    0    0  0.13575642916E+02 -0.64484845625E+01 -0.18711285911E+03  0.18771548439E+03  0.00000000000E+00 0.  1.
          3    1    3    3  501    0  0.16520919835E+02 -0.11618117512E+02 -0.20994044331E+03  0.21090972283E+03  0.00000000000E+00 0.  1.
         -1    1    1    2    0  502 -0.30096562751E+02  0.18066602074E+02 -0.60164916866E+03  0.60267232171E+03  0.00000000000E+00 0. -1.
<mgrwt>
<rscale>  1 0.30000000E+03</rscale>
<asrwt>0</asrwt>
<pdfrwt beam="1">  1       21 0.47182969E-02 0.30000000E+03</pdfrwt>
<pdfrwt beam="2">0</pdfrwt>
<totfact> 0.31793592E+04</totfact>
</mgrwt>
</event>
<event>
 6    1  0.1284012E-001  0.3000000E+03  0.7818608E-02  0.1093470E+00
         21   -1    0    0  501  502  0.00000000000E+00  0.00000000000E+00  0.17849257979E+01  0.17849257979E+01  0.00000000000E+00 0. -1.
         13   -1    0    0    0    0 -0.00000000000E+00 -0.00000000000E+00 -0.10000000000E+04  0.10000000000E+04  0.00000000000E+00 0.  1.
    9000005    2    1    2  501    0 -0.29686371349E+02 -0.23676812252E+02 -0.71760580552E+03  0.71861813087E+03  0.34718596421E+01 0.  0.
         13    1    3    3    0    0 -0.11287057615E+02 -0.10003957058E+02 -0.25685077768E+03  0.25729321565E+03  0.00000000000E+00 0.  1.
          3    1    3    3  501    0 -0.18399313733E+02 -0.13672855194E+02 -0.46075502784E+03  0.46132491522E+03  0.00000000000E+00 0.  1.
         -3    1    1    2    0  502  0.29686371349E+02  0.23676812252E+02 -0.28060926868E+03  0.28316679493E+03  0.00000000000E+00 0. -1.
<mgrwt>
<rscale>  1 0.30000000E+03</rscale>
<asrwt>0</asrwt>
<pdfrwt beam="1">  1       21 0.64906530E-02 0.30000000E+03</pdfrwt>
<pdfrwt beam="2">0</pdfrwt>
<totfact> 0.18395820E+04</totfact>
</mgrwt>
</event>
<event>
 6    1  0.1284012E-001  0.3000000E+03  0.7818608E-02  0.1093470E+00
         21   -1    0    0  501  502  0.00000000000E+00  0.00000000000E+00  0.13038075541E+01  0.13038075541E+01  0.00000000000E+00 0. -1.
         13   -1    0    0    0    0 -0.00000000000E+00 -0.00000000000E+00 -0.10000000000E+04  0.10000000000E+04  0.00000000000E+00 0.  1.
    9000005    2    1    2  501    0  0.12835957380E+01  0.31417076404E+02 -0.74418053918E+03  0.74485323129E+03  0.36029105363E+01 0.  0.
         13    1    3    3    0    0  0.13796552134E+01  0.40103504973E+01 -0.10186518691E+03  0.10195343380E+03  0.00000000000E+00 0.  1.
          1    1    3    3  501    0 -0.96059475421E-01  0.27406725906E+02 -0.64231535227E+03  0.64289979749E+03  0.00000000000E+00 0.  1.
         -1    1    1    2    0  502 -0.12835957380E+01 -0.31417076404E+02 -0.25451565327E+03  0.25645057627E+03  0.00000000000E+00 0. -1.
<mgrwt>
<rscale>  1 0.30000000E+03</rscale>
<asrwt>0</asrwt>
<pdfrwt beam="1">  1       21 0.47411284E-02 0.30000000E+03</pdfrwt>
<pdfrwt beam="2">0</pdfrwt>
<totfact> 0.31533657E+04</totfact>
</mgrwt>
</event>
<event>
 6    1  0.1284012E-001  0.3000000E+03  0.7818608E-02  0.1093470E+00
         21   -1    0    0  501  502  0.00000000000E+00  0.00000000000E+00  0.51856820225E+01  0.51856820225E+01  0.00000000000E+00 0. -1.
         13   -1    0    0    0    0 -0.00000000000E+00 -0.00000000000E+00 -0.10000000000E+04  0.10000000000E+04  0.00000000000E+00 0.  1.
    9000005    2    1    2  501    0 -0.29975179441E+02 -0.12559664724E+02 -0.94585545669E+03  0.94642152067E+03  0.38591815953E+01 0.  0.
         13    1    3    3    0    0 -0.19407157989E+02 -0.86538986699E+01 -0.56495947570E+03  0.56535894521E+03  0.00000000000E+00 0.  1.
          3    1    3    3  501    0 -0.10568021452E+02 -0.39057660545E+01 -0.38089598099E+03  0.38106257546E+03  0.00000000000E+00 0.  1.
         -1    1    1    2    0  502  0.29975179441E+02  0.12559664724E+02 -0.48958861288E+02  0.58764161350E+02  0.00000000000E+00 0. -1.
<mgrwt>
<rscale>  1 0.30000000E+03</rscale>
<asrwt>0</asrwt>
<pdfrwt beam="1">  1       21 0.18857065E-01 0.30000000E+03</pdfrwt>
<pdfrwt beam="2">0</pdfrwt>
<totfact> 0.26832011E+03</totfact>
</mgrwt>
</event>
<event>
 6    1  0.1284012E-001  0.3000000E+03  0.7818608E-02  0.1093470E+00
         21   -1    0    0  501  502  0.00000000000E+00  0.00000000000E+00  0.11103556966E+01  0.11103556966E+01  0.00000000000E+00 0. -1.
         13   -1    0    0    0    0 -0.00000000000E+00 -0.00000000000E+00 -0.10000000000E+04  0.10000000000E+04  0.00000000000E+00 0.  1.
    9000005    2    1    2  501    0 -0.21372650695E+02  0.25205680923E+02 -0.55560679069E+03  0.55659735829E+03  0.30978791278E+01 0.  0.
         13    1    3    3    0    0 -0.12551851409E+02  0.17091191380E+02 -0.35747596642E+03  0.35810434843E+03  0.00000000000E+00 0.  1.
          1    1    3    3  501    0 -0.88207992857E+01  0.81144895425E+01 -0.19813082427E+03  0.19849300987E+03  0.00000000000E+00 0.  1.
         -1    1    1    2    0  502  0.21372650695E+02 -0.25205680923E+02 -0.44328285362E+03  0.44451299740E+03  0.00000000000E+00 0. -1.
<mgrwt>
<rscale>  1 0.30000000E+03</rscale>
<asrwt>0</asrwt>
<pdfrwt beam="1">  1       21 0.40376656E-02 0.30000000E+03</pdfrwt>
<pdfrwt beam="2">0</pdfrwt>
<totfact> 0.41388731E+04</totfact>
</mgrwt>
</event>
<event>
 6    1  0.1284012E-001  0.3000000E+03  0.7818608E-02  0.1093470E+00
         21   -1    0    0  501  502  0.00000000000E+00  0.00000000000E+00  0.51418742731E+01  0.51418742731E+01  0.00000000000E+00 0. -1.
         13   -1    0    0    0    0 -0.00000000000E+00 -0.00000000000E+00 -0.10000000000E+04  0.10000000000E+04  0.00000000000E+00 0.  1.
    9000005    2    1    2  501    0 -0.29751813871E+02  0.10089039461E+02 -0.94916099074E+03  0.94968750301E+03  0.35788113106E+01 0.  0.
         13    1    3    3    0    0 -0.29104559724E+02  0.10302945496E+02 -0.93574849259E+03  0.93625769287E+03  0.00000000000E+00 0.  1.
          1    1    3    3  501    0 -0.64725414707E+00 -0.21390603533E+00 -0.13412498151E+02  0.13429810139E+02  0.00000000000E+00 0.  1.
         -1    1    1    2    0  502  0.29751813871E+02 -0.10089039461E+02 -0.45697134987E+02  0.55454371260E+02  0.00000000000E+00 0. -1.
<mgrwt>
<rscale>  1 0.30000000E+03</rscale>
<asrwt>0</asrwt>
<pdfrwt beam="1">  1       21 0.18697764E-01 0.30000000E+03</pdfrwt>
<pdfrwt beam="2">0</pdfrwt>
<totfact> 0.27266310E+03</totfact>
</mgrwt>
</event>
<event>
 6    1  0.1284012E-001  0.3000000E+03  0.7818608E-02  0.1093470E+00
         21   -1    0    0  501  502  0.00000000000E+00  0.00000000000E+00  0.10084781068E+01  0.10084781068E+01  0.00000000000E+00 0. -1.
         13   -1    0    0    0    0 -0.00000000000E+00 -0.00000000000E+00 -0.10000000000E+04  0.10000000000E+04  0.00000000000E+00 0.  1.
    9000005    2    1    2  501    0 -0.12830453954E+02 -0.27485378550E+02 -0.64471413819E+03  0.64543495381E+03  0.31453179776E+01 0.  0.
         13    1    3    3    0    0 -0.37722842713E+01 -0.77603715992E+01 -0.15492393025E+03  0.15516403468E+03  0.00000000000E+00 0.  1.
          1    1    3    3  501    0 -0.90581696829E+01 -0.19725006951E+02 -0.48979020795E+03  0.49027091912E+03  0.00000000000E+00 0.  1.
         -1    1    1    2    0  502  0.12830453954E+02  0.27485378550E+02 -0.35427738370E+03  0.35557352430E+03  0.00000000000E+00 0. -1.
<mgrwt>
<rscale>  1 0.30000000E+03</rscale>
<asrwt>0</asrwt>
<pdfrwt beam="1">  1       21 0.36672008E-02 0.30000000E+03</pdfrwt>
<pdfrwt beam="2">0</pdfrwt>
<totfact> 0.48657115E+04</totfact>
</mgrwt>
</event>
<event>
 6    1  0.1284012E-001  0.3000000E+03  0.7818608E-02  0.1093470E+00
         21   -1    0    0  501  502  0.00000000000E+00  0.00000000000E+00  0.10423533722E+01  0.10423533722E+01  0.00000000000E+00 0. -1.
         13   -1    0    0    0    0 -0.00000000000E+00 -0.00000000000E+00 -0.10000000000E+04  0.10000000000E+04  0.00000000000E+00 0.  1.
    9000005    2    1    2  501    0 -0.22237731345E+02  0.22429708962E+02 -0.59434983516E+03  0.59520360505E+03  0.42422128236E+01 0.  0.
         13    1    3    3    0    0 -0.74701943662E+01  0.48867641486E+01 -0.17360516036E+03  0.17383450743E+03  0.00000000000E+00 0.  1.
          3    1    3    3  501    0 -0.14767536978E+02  0.17542944813E+02 -0.42074467479E+03  0.42136909762E+03  0.00000000000E+00 0.  1.
         -1    1    1    2    0  502  0.22237731345E+02 -0.22429708962E+02 -0.40460781147E+03  0.40583874833E+03  0.00000000000E+00 0. -1.
<mgrwt>
<rscale>  1 0.30000000E+03</rscale>
<asrwt>0</asrwt>
<pdfrwt beam="1">  1       21 0.37903839E-02 0.30000000E+03</pdfrwt>
<pdfrwt beam="2">0</pdfrwt>
<totfact> 0.46031615E+04</totfact>
</mgrwt>
</event>
<event>
 6    1  0.1284012E-001  0.3000000E+03  0.7818608E-02  0.1093470E+00
         21   -1    0    0  501  502  0.00000000000E+00  0.00000000000E+00  0.27643248257E+01  0.27643248257E+01  0.00000000000E+00 0. -1.
         13   -1    0    0    0    0 -0.00000000000E+00 -0.00000000000E+00 -0.10000000000E+04  0.10000000000E+04  0.00000000000E+00 0.  1.
    9000005    2    1    2  501    0 -0.21203165803E+02  0.46337530996E+02 -0.61700099161E+03  0.61913018192E+03  0.59344330679E+01 0.  0.
         13    1    3    3    0    0 -0.20812726933E+02  0.44938891941E+02 -0.58357035598E+03  0.58566802370E+03  0.00000000000E+00 0.  1.
          1    1    3    3  501    0 -0.39043887079E+00  0.13986390553E+01 -0.33430635628E+02  0.33462158212E+02  0.00000000000E+00 0.  1.
         -1    1    1    2    0  502  0.21203165803E+02 -0.46337530996E+02 -0.38023468357E+03  0.38363414291E+03  0.00000000000E+00 0. -1.
<mgrwt>
<rscale>  1 0.30000000E+03</rscale>
<asrwt>0</asrwt>
<pdfrwt beam="1">  1       21 0.10052111E-01 0.30000000E+03</pdfrwt>
<pdfrwt beam="2">0</pdfrwt>
<totfact> 0.85236548E+03</totfact>
</mgrwt>
</event>
<event>
 6    1  0.1284012E-001  0.3000000E+03  0.7818608E-02  0.1093470E+00
         21   -1    0    0  501  502  0.00000000000E+00  0.00000000000E+00  0.18642350904E+01  0.18642350904E+01  0.00000000000E+00 0. -1.
         13   -1    0    0    0    0 -0.00000000000E+00 -0.00000000000E+00 -0.10000000000E+04  0.10000000000E+04  0.00000000000E+00 0.  1.
    9000005    2    1    2  501    0 -0.23934842310E+02  0.26482566571E+02 -0.21961378248E+03  0.22252433483E+03  0.35585289986E+01 0.  0.
         13    1    3    3    0    0 -0.20946038571E+02  0.23012927157E+02 -0.19803888505E+03  0.20046877896E+03  0.00000000000E+00 0.  1.
          1    1    3    3  501    0 -0.29888037390E+01  0.34696394143E+01 -0.21574897430E+02  0.22055555866E+02  0.00000000000E+00 0.  1.
         -1    1    1    2    0  502  0.23934842310E+02 -0.26482566571E+02 -0.77852198243E+03  0.77933990026E+03  0.00000000000E+00 0. -1.
<mgrwt>
<rscale>  1 0.30000000E+03</rscale>
<asrwt>0</asrwt>
<pdfrwt beam="1">  1       21 0.67790510E-02 0.30000000E+03</pdfrwt>
<pdfrwt beam="2">0</pdfrwt>
<totfact> 0.17060350E+04</totfact>
</mgrwt>
</event>
<event>
 6    1  0.1284012E-001  0.3000000E+03  0.7818608E-02  0.1093470E+00
         21   -1    0    0  501  502  0.00000000000E+00  0.00000000000E+00  0.28694498680E+01  0.28694498680E+01  0.00000000000E+00 0. -1.
         13   -1    0    0    0    0 -0.00000000000E+00 -0.00000000000E+00 -0.10000000000E+04  0.10000000000E+04  0.00000000000E+00 0.  1.
    9000005    2    1    2  501    0  0.27039025027E+02  0.24163141506E+02 -0.86743065772E+03  0.86819566484E+03  0.35777386629E+01 0.  0.
         13    1    3    3    0    0  0.16326849644E+02  0.13791090706E+02 -0.54976160333E+03  0.55017686311E+03  0.00000000000E+00 0.  1.
          1    1    3    3  501    0  0.10712175383E+02  0.10372050800E+02 -0.31766905439E+03  0.31801880173E+03  0.00000000000E+00 0.  1.
         -3    1    1    2    0  502 -0.27039025027E+02 -0.24163141506E+02 -0.12969989241E+03  0.13467378503E+03  0.00000000000E+00 0. -1.
<mgrwt>
<rscale>  1 0.30000000E+03</rscale>
<asrwt>0</asrwt>
<pdfrwt beam="1">  1       21 0.10434385E-01 0.30000000E+03</pdfrwt>
<pdfrwt beam="2">0</pdfrwt>
<totfact> 0.79729388E+03</totfact>
</mgrwt>
</event>
<event>
 6    1  0.1284012E-001  0.3000000E+03  0.7818608E-02  0.1093470E+00
         21   -1    0    0  501  502  0.00000000000E+00  0.00000000000E+00  0.32988277917E+01  0.32988277917E+01  0.00000000000E+00 0. -1.
         13   -1    0    0    0    0 -0.00000000000E+00 -0.00000000000E+00 -0.10000000000E+04  0.10000000000E+04  0.00000000000E+00 0.  1.
    9000005    2    1    2  501    0 -0.27651746188E+02 -0.14418198682E+02 -0.91951813045E+03  0.92005385523E+03  0.36056609705E+01 0.  0.
         13    1    3    3    0    0 -0.11627843833E+02 -0.41789063890E+01 -0.34593642946E+03  0.34615702107E+03  0.00000000000E+00 0.  1.
          3    1    3    3  501    0 -0.16023902355E+02 -0.10239292293E+02 -0.57358170099E+03  0.57389683416E+03  0.00000000000E+00 0.  1.
         -1    1    1    2    0  502  0.27651746188E+02  0.14418198682E+02 -0.77183041763E+02  0.83244972558E+02  0.00000000000E+00 0. -1.
<mgrwt>
<rscale>  1 0.30000000E+03</rscale>
<asrwt>0</asrwt>
<pdfrwt beam="1">  1       21 0.11995763E-01 0.30000000E+03</pdfrwt>
<pdfrwt beam="2">0</pdfrwt>
<totfact> 0.62010933E+03</totfact>
</mgrwt>
</event>
<event>
 6    1  0.1284012E-001  0.3000000E+03  0.7818608E-02  0.1093470E+00
         21   -1    0    0  501  502  0.00000000000E+00  0.00000000000E+00  0.14130821957E+01  0.14130821957E+01  0.00000000000E+00 0. -1.
         13   -1    0    0    0    0 -0.00000000000E+00 -0.00000000000E+00 -0.10000000000E+04  0.10000000000E+04  0.00000000000E+00 0.  1.
    9000005    2    1    2  501    0 -0.35104803591E+02 -0.97361980991E+01 -0.38413446928E+03  0.38588164328E+03  0.42674755476E+01 0.  0.
         13    1    3    3    0    0 -0.17848110546E+02 -0.32589615027E+01 -0.17606848075E+03  0.17700080732E+03  0.00000000000E+00 0.  1.
          1    1    3    3  501    0 -0.17256693045E+02 -0.64772365964E+01 -0.20806598853E+03  0.20888083596E+03  0.00000000000E+00 0.  1.
         -1    1    1    2    0  502  0.35104803591E+02  0.97361980991E+01 -0.61445244853E+03  0.61553143891E+03  0.00000000000E+00 0. -1.
<mgrwt>
<rscale>  1 0.30000000E+03</rscale>
<asrwt>0</asrwt>
<pdfrwt beam="1">  1       21 0.51384915E-02 0.30000000E+03</pdfrwt>
<pdfrwt beam="2">0</pdfrwt>
<totfact> 0.27492917E+04</totfact>
</mgrwt>
</event>
<event>
 6    1  0.1284012E-001  0.3000000E+03  0.7818608E-02  0.1093470E+00
         21   -1    0    0  501  502  0.00000000000E+00  0.00000000000E+00  0.10971316984E+01  0.10971316984E+01  0.00000000000E+00 0. -1.
         13   -1    0    0    0    0 -0.00000000000E+00 -0.00000000000E+00 -0.10000000000E+04  0.10000000000E+04  0.00000000000E+00 0.  1.
    9000005    2    1    2  501    0 -0.23189775578E+02 -0.20654652536E+02 -0.67144876406E+03  0.67217378083E+03  0.31254620567E+01 0.  0.
         13    1    3    3    0    0 -0.14035425549E+02 -0.13076009765E+02 -0.38247776271E+03  0.38295850189E+03  0.00000000000E+00 0.  1.
          3    1    3    3  501    0 -0.91543500286E+01 -0.75786427703E+01 -0.28897100134E+03  0.28921527893E+03  0.00000000000E+00 0.  1.
         -3    1    1    2    0  502  0.23189775578E+02  0.20654652536E+02 -0.32745410425E+03  0.32892335087E+03  0.00000000000E+00 0. -1.
<mgrwt>
<rscale>  1 0.30000000E+03</rscale>
<asrwt>0</asrwt>
<pdfrwt beam="1">  1       21 0.39895782E-02 0.30000000E+03</pdfrwt>
<pdfrwt beam="2">0</pdfrwt>
<totfact> 0.42232447E+04</totfact>
</mgrwt>
</event>
<event>
 6    1  0.1284012E-001  0.3000000E+03  0.7818608E-02  0.1093470E+00
         21   -1    0    0  501  502  0.00000000000E+00  0.00000000000E+00  0.23130237639E+01  0.23130237639E+01  0.00000000000E+00 0. -1.
         13   -1    0    0    0    0 -0.00000000000E+00 -0.00000000000E+00 -0.10000000000E+04  0.10000000000E+04  0.00000000000E+00 0.  1.
    9000005    2    1    2  501    0  0.13021983329E+01  0.36315415440E+02 -0.82686504904E+03  0.82766871114E+03  0.30300108814E+01 0.  0.
         13    1    3    3    0    0  0.22837364451E+01  0.24240782808E+02 -0.55648522185E+03  0.55701762372E+03  0.00000000000E+00 0.  1.
          3    1    3    3  501    0 -0.98153811219E+00  0.12074632632E+02 -0.27037982719E+03  0.27065108742E+03  0.00000000000E+00 0.  1.
         -1    1    1    2    0  502 -0.13021983329E+01 -0.36315415440E+02 -0.17082192720E+03  0.17464431262E+03  0.00000000000E+00 0. -1.
<mgrwt>
<rscale>  1 0.30000000E+03</rscale>
<asrwt>0</asrwt>
<pdfrwt beam="1">  1       21 0.84110132E-02 0.30000000E+03</pdfrwt>
<pdfrwt beam="2">0</pdfrwt>
<totfact> 0.11696239E+04</totfact>
</mgrwt>
</event>
<event>
 6    1  0.1284012E-001  0.3000000E+03  0.7818608E-02  0.1093470E+00
         21   -1    0    0  501  502  0.00000000000E+00  0.00000000000E+00  0.11706663885E+01  0.11706663885E+01  0.00000000000E+00 0. -1.
         13   -1    0    0    0    0 -0.00000000000E+00 -0.00000000000E+00 -0.10000000000E+04  0.10000000000E+04  0.00000000000E+00 0.  1.
    9000005    2    1    2  501    0 -0.20766338086E+02 -0.27135264368E+02 -0.48418825534E+03  0.48539648827E+03  0.19801124888E+01 0.  0.
         13    1    3    3    0    0 -0.49055340395E+01 -0.57404616926E+01 -0.11742031618E+03  0.11766285658E+03  0.00000000000E+00 0.  1.
          1    1    3    3  501    0 -0.15860804047E+02 -0.21394802675E+02 -0.36676793915E+03  0.36773363169E+03  0.00000000000E+00 0.  1.
         -1    1    1    2    0  502  0.20766338086E+02  0.27135264368E+02 -0.51464107828E+03  0.51577417812E+03  0.00000000000E+00 0. -1.
<mgrwt>
<rscale>  1 0.30000000E+03</rscale>
<asrwt>0</asrwt>
<pdfrwt beam="1">  1       21 0.42569777E-02 0.30000000E+03</pdfrwt>
<pdfrwt beam="2">0</pdfrwt>
<totfact> 0.37854852E+04</totfact>
</mgrwt>
</event>
<event>
 6    1  0.1284012E-001  0.3000000E+03  0.7818608E-02  0.1093470E+00
         21   -1    0    0  501  502  0.00000000000E+00  0.00000000000E+00  0.18196848197E+01  0.18196848197E+01  0.00000000000E+00 0. -1.
         13   -1    0    0    0    0 -0.00000000000E+00 -0.00000000000E+00 -0.10000000000E+04  0.10000000000E+04  0.00000000000E+00 0.  1.
    9000005    2    1    2  501    0  0.41379320353E+02  0.10008538535E+02 -0.50031835036E+03  0.50214083294E+03  0.38138441096E+01 0.  0.
         13    1    3    3    0    0  0.42021594194E+01  0.97603210218E+00 -0.38678664505E+02  0.38918502931E+02  0.00000000000E+00 0.  1.
          3    1    3    3  501    0  0.37177160933E+02  0.90325064325E+01 -0.46163968585E+03  0.46322233001E+03  0.00000000000E+00 0.  1.
         -1    1    1    2    0  502 -0.41379320353E+02 -0.10008538535E+02 -0.49786196482E+03  0.49967885188E+03  0.00000000000E+00 0. -1.
<mgrwt>
<rscale>  1 0.30000000E+03</rscale>
<asrwt>0</asrwt>
<pdfrwt beam="1">  1       21 0.66170497E-02 0.30000000E+03</pdfrwt>
<pdfrwt beam="2">0</pdfrwt>
<totfact> 0.17791387E+04</totfact>
</mgrwt>
</event>
<event>
 6    1  0.1284012E-001  0.3000000E+03  0.7818608E-02  0.1093470E+00
         21   -1    0    0  501  502  0.00000000000E+00  0.00000000000E+00  0.25751258364E+01  0.25751258364E+01  0.00000000000E+00 0. -1.
         13   -1    0    0    0    0 -0.00000000000E+00 -0.00000000000E+00 -0.10000000000E+04  0.10000000000E+04  0.00000000000E+00 0.  1.
    9000005    2    1    2  501    0 -0.28882737262E+02  0.24154111797E+02 -0.83435660587E+03  0.83521654747E+03  0.42546187670E+01 0.  0.
         13    1    3    3    0    0 -0.23162553728E+02  0.17920922070E+02 -0.67609498164E+03  0.67672896165E+03  0.00000000000E+00 0.  1.
          1    1    3    3  501    0 -0.57201835336E+01  0.62331897276E+01 -0.15826162424E+03  0.15848758582E+03  0.00000000000E+00 0.  1.
         -3    1    1    2    0  502  0.28882737262E+02 -0.24154111797E+02 -0.16306826829E+03  0.16735857836E+03  0.00000000000E+00 0. -1.
<mgrwt>
<rscale>  1 0.30000000E+03</rscale>
<asrwt>0</asrwt>
<pdfrwt beam="1">  1       21 0.93641137E-02 0.30000000E+03</pdfrwt>
<pdfrwt beam="2">0</pdfrwt>
<totfact> 0.96726156E+03</totfact>
</mgrwt>
</event>
<event>
 6    1  0.1284012E-001  0.3000000E+03  0.7818608E-02  0.1093470E+00
         21   -1    0    0  501  502  0.00000000000E+00  0.00000000000E+00  0.41796746007E+01  0.41796746007E+01  0.00000000000E+00 0. -1.
         13   -1    0    0    0    0 -0.00000000000E+00 -0.00000000000E+00 -0.10000000000E+04  0.10000000000E+04  0.00000000000E+00 0.  1.
    9000005    2    1    2  501    0  0.52087066509E+02 -0.32053239533E+02 -0.65976957792E+03  0.66260892418E+03  0.37706486366E+01 0.  0.
         13    1    3    3    0    0  0.42312669763E+02 -0.27526871420E+02 -0.53630868692E+03  0.53867903090E+03  0.00000000000E+00 0.  1.
          3    1    3    3  501    0  0.97743967468E+01 -0.45263681127E+01 -0.12346089100E+03  0.12392989327E+03  0.00000000000E+00 0.  1.
         -3    1    1    2    0  502 -0.52087066509E+02  0.32053239533E+02 -0.33605074748E+03  0.34157075042E+03  0.00000000000E+00 0. -1.
<mgrwt>
<rscale>  1 0.30000000E+03</rscale>
<asrwt>0</asrwt>
<pdfrwt beam="1">  1       21 0.15198849E-01 0.30000000E+03</pdfrwt>
<pdfrwt beam="2">0</pdfrwt>
<totfact> 0.40187929E+03</totfact>
</mgrwt>
</event>
<event>
 6    1  0.1284012E-001  0.3000000E+03  0.7818608E-02  0.1093470E+00
         21   -1    0    0  501  502  0.00000000000E+00  0.00000000000E+00  0.33774309386E+01  0.33774309386E+01  0.00000000000E+00 0. -1.
         13   -1    0    0    0    0 -0.00000000000E+00 -0.00000000000E+00 -0.10000000000E+04  0.10000000000E+04  0.00000000000E+00 0.  1.
    9000005    2    1    2  501    0  0.23847902081E+02  0.24406457832E+02 -0.90435246012E+03  0.90499973722E+03  0.25989657496E+01 0.  0.
         13    1    3    3    0    0  0.13808734136E+02  0.15444174867E+02 -0.57119534463E+03  0.57157092770E+03  0.00000000000E+00 0.  1.
          1    1    3    3  501    0  0.10039167946E+02  0.89622829658E+01 -0.33315711550E+03  0.33342880952E+03  0.00000000000E+00 0.  1.
         -3    1    1    2    0  502 -0.23847902081E+02 -0.24406457832E+02 -0.92270108939E+02  0.98377693718E+02  0.00000000000E+00 0. -1.
<mgrwt>
<rscale>  1 0.30000000E+03</rscale>
<asrwt>0</asrwt>
<pdfrwt beam="1">  1       21 0.12281593E-01 0.30000000E+03</pdfrwt>
<pdfrwt beam="2">0</pdfrwt>
<totfact> 0.59413147E+03</totfact>
</mgrwt>
</event>
<event>
 6    1  0.1284012E-001  0.3000000E+03  0.7818608E-02  0.1093470E+00
         21   -1    0    0  501  502  0.00000000000E+00  0.00000000000E+00  0.11883035422E+01  0.11883035422E+01  0.00000000000E+00 0. -1.
         13   -1    0    0    0    0 -0.00000000000E+00 -0.00000000000E+00 -0.10000000000E+04  0.10000000000E+04  0.00000000000E+00 0.  1.
    9000005    2    1    2  501    0 -0.14797849465E+02  0.30183759464E+02 -0.39373841827E+03  0.39518194412E+03  0.29650045411E+01 0.  0.
         13    1    3    3    0    0 -0.27450605693E+01  0.67991703342E+01 -0.73568729477E+02  0.73933226844E+02  0.00000000000E+00 0.  1.
          3    1    3    3  501    0 -0.12052788896E+02  0.23384589130E+02 -0.32016968880E+03  0.32124871728E+03  0.00000000000E+00 0.  1.
         -3    1    1    2    0  502  0.14797849465E+02 -0.30183759464E+02 -0.60507327818E+03  0.60600635942E+03  0.00000000000E+00 0. -1.
<mgrwt>
<rscale>  1 0.30000000E+03</rscale>
<asrwt>0</asrwt>
<pdfrwt beam="1">  1       21 0.43211129E-02 0.30000000E+03</pdfrwt>
<pdfrwt beam="2">0</pdfrwt>
<totfact> 0.36909682E+04</totfact>
</mgrwt>
</event>
<event>
 6    1  0.1284012E-001  0.3000000E+03  0.7818608E-02  0.1093470E+00
         21   -1    0    0  501  502  0.00000000000E+00  0.00000000000E+00  0.20531378691E+01  0.20531378691E+01  0.00000000000E+00 0. -1.
         13   -1    0    0    0    0 -0.00000000000E+00 -0.00000000000E+00 -0.10000000000E+04  0.10000000000E+04  0.00000000000E+00 0.  1.
    9000005    2    1    2  501    0 -0.17406356437E+02 -0.37836895070E+02 -0.69480544733E+03  0.69606403800E+03  0.39904235966E+01 0.  0.
         13    1    3    3    0    0 -0.18134110207E+01 -0.31538011669E+01 -0.81130819828E+02  0.81212344181E+02  0.00000000000E+00 0.  1.
          1    1    3    3  501    0 -0.15592945416E+02 -0.34683093903E+02 -0.61367462750E+03  0.61485169382E+03  0.00000000000E+00 0.  1.
         -3    1    1    2    0  502  0.17406356437E+02  0.37836895070E+02 -0.30314141480E+03  0.30598909987E+03  0.00000000000E+00 0. -1.
<mgrwt>
<rscale>  1 0.30000000E+03</rscale>
<asrwt>0</asrwt>
<pdfrwt beam="1">  1       21 0.74659716E-02 0.30000000E+03</pdfrwt>
<pdfrwt beam="2">0</pdfrwt>
<totfact> 0.14418798E+04</totfact>
</mgrwt>
</event>
<event>
 6    1  0.1284012E-001  0.3000000E+03  0.7818608E-02  0.1093470E+00
         21   -1    0    0  501  502  0.00000000000E+00  0.00000000000E+00  0.38062356119E+01  0.38062356119E+01  0.00000000000E+00 0. -1.
         13   -1    0    0    0    0 -0.00000000000E+00 -0.00000000000E+00 -0.10000000000E+04  0.10000000000E+04  0.00000000000E+00 0.  1.
    9000005    2    1    2  501    0 -0.38577120833E+02 -0.24702913786E+02 -0.83331653129E+03  0.83460983712E+03  0.76622903530E+01 0.  0.
         13    1    3    3    0    0 -0.19897432471E+01 -0.74940245616E+00 -0.18728958764E+02  0.18849259365E+02  0.00000000000E+00 0.  1.
          3    1    3    3  501    0 -0.36587377585E+02 -0.23953511330E+02 -0.81458757253E+03  0.81576057776E+03  0.00000000000E+00 0.  1.
         -1    1    1    2    0  502  0.38577120833E+02  0.24702913786E+02 -0.16287723310E+03  0.16919639849E+03  0.00000000000E+00 0. -1.
<mgrwt>
<rscale>  1 0.30000000E+03</rscale>
<asrwt>0</asrwt>
<pdfrwt beam="1">  1       21 0.13840886E-01 0.30000000E+03</pdfrwt>
<pdfrwt beam="2">0</pdfrwt>
<totfact> 0.47758794E+03</totfact>
</mgrwt>
</event>
<event>
 6    1  0.1284012E-001  0.3000000E+03  0.7818608E-02  0.1093470E+00
         21   -1    0    0  501  502  0.00000000000E+00  0.00000000000E+00  0.12195002588E+01  0.12195002588E+01  0.00000000000E+00 0. -1.
         13   -1    0    0    0    0 -0.00000000000E+00 -0.00000000000E+00 -0.10000000000E+04  0.10000000000E+04  0.00000000000E+00 0.  1.
    9000005    2    1    2  501    0  0.23844514292E+02 -0.24836754713E+02 -0.57750418362E+03  0.57853858068E+03  0.32221106000E+01 0.  0.
         13    1    3    3    0    0  0.63046431862E+01 -0.62529636787E+01 -0.12678018365E+03  0.12709076696E+03  0.00000000000E+00 0.  1.
          1    1    3    3  501    0  0.17539871105E+02 -0.18583791034E+02 -0.45072399997E+03  0.45144781373E+03  0.00000000000E+00 0.  1.
         -1    1    1    2    0  502 -0.23844514292E+02  0.24836754713E+02 -0.42127631612E+03  0.42268091957E+03  0.00000000000E+00 0. -1.
<mgrwt>
<rscale>  1 0.30000000E+03</rscale>
<asrwt>0</asrwt>
<pdfrwt beam="1">  1       21 0.44345557E-02 0.30000000E+03</pdfrwt>
<pdfrwt beam="2">0</pdfrwt>
<totfact> 0.35325033E+04</totfact>
</mgrwt>
</event>
<event>
 6    1  0.1284012E-001  0.3000000E+03  0.7818608E-02  0.1093470E+00
         21   -1    0    0  501  502  0.00000000000E+00  0.00000000000E+00  0.29614063706E+01  0.29614063706E+01  0.00000000000E+00 0. -1.
         13   -1    0    0    0    0 -0.00000000000E+00 -0.00000000000E+00 -0.10000000000E+04  0.10000000000E+04  0.00000000000E+00 0.  1.
    9000005    2    1    2  501    0  0.47383976347E+02 -0.16265571436E+02 -0.30431326748E+03  0.30842689497E+03  0.32824917203E+01 0.  0.
         13    1    3    3    0    0  0.19839399796E+01 -0.57308442820E+00 -0.17128479104E+02  0.17252514021E+02  0.00000000000E+00 0.  1.
          3    1    3    3  501    0  0.45400036368E+02 -0.15692487007E+02 -0.28718478837E+03  0.29117438095E+03  0.00000000000E+00 0.  1.
         -3    1    1    2    0  502 -0.47383976347E+02  0.16265571436E+02 -0.69272532615E+03  0.69453451140E+03  0.00000000000E+00 0. -1.
<mgrwt>
<rscale>  1 0.30000000E+03</rscale>
<asrwt>0</asrwt>
<pdfrwt beam="1">  1       21 0.10768773E-01 0.30000000E+03</pdfrwt>
<pdfrwt beam="2">0</pdfrwt>
<totfact> 0.75343201E+03</totfact>
</mgrwt>
</event>
<event>
 6    1  0.1284012E-001  0.3000000E+03  0.7818608E-02  0.1093470E+00
         21   -1    0    0  501  502  0.00000000000E+00  0.00000000000E+00  0.51497725815E+01  0.51497725815E+01  0.00000000000E+00 0. -1.
         13   -1    0    0    0    0 -0.00000000000E+00 -0.00000000000E+00 -0.10000000000E+04  0.10000000000E+04  0.00000000000E+00 0.  1.
    9000005    2    1    2  501    0  0.29980182109E+02 -0.35159109174E+02 -0.88167537285E+03  0.88290607342E+03  0.60578148760E+01 0.  0.
         13    1    3    3    0    0  0.20354400635E+02 -0.23647666339E+02 -0.53900897586E+03  0.53991127957E+03  0.00000000000E+00 0.  1.
          3    1    3    3  501    0  0.96257814743E+01 -0.11511442835E+02 -0.34266639699E+03  0.34299479385E+03  0.00000000000E+00 0.  1.
         -3    1    1    2    0  502 -0.29980182109E+02  0.35159109174E+02 -0.11317485457E+03  0.12224369916E+03  0.00000000000E+00 0. -1.
<mgrwt>
<rscale>  1 0.30000000E+03</rscale>
<asrwt>0</asrwt>
<pdfrwt beam="1">  1       21 0.18726485E-01 0.30000000E+03</pdfrwt>
<pdfrwt beam="2">0</pdfrwt>
<totfact> 0.27187251E+03</totfact>
</mgrwt>
</event>
<event>
 6    1  0.1284012E-001  0.3000000E+03  0.7818608E-02  0.1093470E+00
         21   -1    0    0  501  502  0.00000000000E+00  0.00000000000E+00  0.49371424041E+01  0.49371424041E+01  0.00000000000E+00 0. -1.
         13   -1    0    0    0    0 -0.00000000000E+00 -0.00000000000E+00 -0.10000000000E+04  0.10000000000E+04  0.00000000000E+00 0.  1.
    9000005    2    1    2  501    0  0.40800177126E+02  0.16498060875E+02 -0.10997053636E+03  0.11875135061E+03  0.84571826522E+01 0.  0.
         13    1    3    3    0    0  0.22281553247E+02  0.11457040233E+02 -0.71426813723E+02  0.75693600156E+02  0.00000000000E+00 0.  1.
          1    1    3    3  501    0  0.18518623879E+02  0.50410206423E+01 -0.38543722639E+02  0.43057750457E+02  0.00000000000E+00 0.  1.
         -3    1    1    2    0  502 -0.40800177126E+02 -0.16498060875E+02 -0.88509232123E+03  0.88618579179E+03  0.00000000000E+00 0. -1.
<mgrwt>
<rscale>  1 0.30000000E+03</rscale>
<asrwt>0</asrwt>
<pdfrwt beam="1">  1       21 0.17953283E-01 0.30000000E+03</pdfrwt>
<pdfrwt beam="2">0</pdfrwt>
<totfact> 0.29439242E+03</totfact>
</mgrwt>
</event>
<event>
 6    1  0.1284012E-001  0.3000000E+03  0.7818608E-02  0.1093470E+00
         21   -1    0    0  501  502  0.00000000000E+00  0.00000000000E+00  0.19846438654E+01  0.19846438654E+01  0.00000000000E+00 0. -1.
         13   -1    0    0    0    0 -0.00000000000E+00 -0.00000000000E+00 -0.10000000000E+04  0.10000000000E+04  0.00000000000E+00 0.  1.
    9000005    2    1    2  501    0 -0.30616347405E+02 -0.91549845892E+01 -0.84779184810E+03  0.84839988929E+03  0.31906071747E+01 0.  0.
         13    1    3    3    0    0 -0.12265319878E+02 -0.53064074830E+01 -0.35051940305E+03  0.35077406966E+03  0.00000000000E+00 0.  1.
          1    1    3    3  501    0 -0.18351027527E+02 -0.38485771062E+01 -0.49727244505E+03  0.49762581963E+03  0.00000000000E+00 0.  1.
         -3    1    1    2    0  502  0.30616347405E+02  0.91549845892E+01 -0.15022350804E+03  0.15358475458E+03  0.00000000000E+00 0. -1.
<mgrwt>
<rscale>  1 0.30000000E+03</rscale>
<asrwt>0</asrwt>
<pdfrwt beam="1">  1       21 0.72169020E-02 0.30000000E+03</pdfrwt>
<pdfrwt beam="2">0</pdfrwt>
<totfact> 0.15299696E+04</totfact>
</mgrwt>
</event>
<event>
 6    1  0.1284012E-001  0.3000000E+03  0.7818608E-02  0.1093470E+00
         21   -1    0    0  501  502  0.00000000000E+00  0.00000000000E+00  0.51519278936E+01  0.51519278936E+01  0.00000000000E+00 0. -1.
         13   -1    0    0    0    0 -0.00000000000E+00 -0.00000000000E+00 -0.10000000000E+04  0.10000000000E+04  0.00000000000E+00 0.  1.
    9000005    2    1    2  501    0  0.55860258654E+02  0.42442613275E+02 -0.60258741343E+03  0.60666708720E+03  0.34088043976E+01 0.  0.
         13    1    3    3    0    0  0.24316956020E+02  0.17374079401E+02 -0.24426512671E+03  0.24608662116E+03  0.00000000000E+00 0.  1.
          1    1    3    3  501    0  0.31543302634E+02  0.25068533873E+02 -0.35832228672E+03  0.36058046604E+03  0.00000000000E+00 0.  1.
         -1    1    1    2    0  502 -0.55860258654E+02 -0.42442613275E+02 -0.39226065868E+03  0.39848484070E+03  0.00000000000E+00 0. -1.
<mgrwt>
<rscale>  1 0.30000000E+03</rscale>
<asrwt>0</asrwt>
<pdfrwt beam="1">  1       21 0.18734323E-01 0.30000000E+03</pdfrwt>
<pdfrwt beam="2">0</pdfrwt>
<totfact> 0.27165736E+03</totfact>
</mgrwt>
</event>
<event>
 6    1  0.1284012E-001  0.3000000E+03  0.7818608E-02  0.1093470E+00
         21   -1    0    0  501  502  0.00000000000E+00  0.00000000000E+00  0.17166993412E+01  0.17166993412E+01  0.00000000000E+00 0. -1.
         13   -1    0    0    0    0 -0.00000000000E+00 -0.00000000000E+00 -0.10000000000E+04  0.10000000000E+04  0.00000000000E+00 0.  1.
    9000005    2    1    2  501    0  0.59142250762E+01  0.32315340310E+02 -0.80380519596E+03  0.80448335407E+03  0.33785579956E+01 0.  0.
         13    1    3    3    0    0  0.29599684645E+01  0.15588244861E+02 -0.34730737500E+03  0.34766962410E+03  0.00000000000E+00 0.  1.
          1    1    3    3  501    0  0.29542566117E+01  0.16727095449E+02 -0.45649782096E+03  0.45681372998E+03  0.00000000000E+00 0.  1.
         -3    1    1    2    0  502 -0.59142250762E+01 -0.32315340310E+02 -0.19447810470E+03  0.19723334527E+03  0.00000000000E+00 0. -1.
<mgrwt>
<rscale>  1 0.30000000E+03</rscale>
<asrwt>0</asrwt>
<pdfrwt beam="1">  1       21 0.62425562E-02 0.30000000E+03</pdfrwt>
<pdfrwt beam="2">0</pdfrwt>
<totfact> 0.19678442E+04</totfact>
</mgrwt>
</event>
<event>
 6    1  0.1284012E-001  0.3000000E+03  0.7818608E-02  0.1093470E+00
         21   -1    0    0  501  502  0.00000000000E+00  0.00000000000E+00  0.15562194473E+01  0.15562194473E+01  0.00000000000E+00 0. -1.
         13   -1    0    0    0    0 -0.00000000000E+00 -0.00000000000E+00 -0.10000000000E+04  0.10000000000E+04  0.00000000000E+00 0.  1.
    9000005    2    1    2  501    0 -0.90239100927E+01  0.34415832093E+02 -0.71438948061E+03  0.71528235447E+03  0.32613127190E+01 0.  0.
         13    1    3    3    0    0 -0.47854823676E+00  0.25624360068E+01 -0.71516214739E+02  0.71563706285E+02  0.00000000000E+00 0.  1.
          3    1    3    3  501    0 -0.85453618559E+01  0.31853396086E+02 -0.64287326587E+03  0.64371864818E+03  0.00000000000E+00 0.  1.
         -1    1    1    2    0  502  0.90239100927E+01 -0.34415832093E+02 -0.28405429995E+03  0.28627386498E+03  0.00000000000E+00 0. -1.
<mgrwt>
<rscale>  1 0.30000000E+03</rscale>
<asrwt>0</asrwt>
<pdfrwt beam="1">  1       21 0.56589917E-02 0.30000000E+03</pdfrwt>
<pdfrwt beam="2">0</pdfrwt>
<totfact> 0.23305743E+04</totfact>
</mgrwt>
</event>
<event>
 6    1  0.1284012E-001  0.3000000E+03  0.7818608E-02  0.1093470E+00
         21   -1    0    0  501  502  0.00000000000E+00  0.00000000000E+00  0.34139227336E+01  0.34139227336E+01  0.00000000000E+00 0. -1.
         13   -1    0    0    0    0 -0.00000000000E+00 -0.00000000000E+00 -0.10000000000E+04  0.10000000000E+04  0.00000000000E+00 0.  1.
    9000005    2    1    2  501    0  0.57997622298E+02 -0.65813478213E+01 -0.48846828697E+03  0.49195451364E+03  0.33072325538E+01 0.  0.
         13    1    3    3    0    0  0.70100983236E+01 -0.18855033333E+01 -0.59752649860E+02  0.60191990885E+02  0.00000000000E+00 0.  1.
          1    1    3    3  501    0  0.50987523974E+02 -0.46958444880E+01 -0.42871563711E+03  0.43176252276E+03  0.00000000000E+00 0.  1.
         -1    1    1    2    0  502 -0.57997622298E+02  0.65813478213E+01 -0.50811779030E+03  0.51145940909E+03  0.00000000000E+00 0. -1.
<mgrwt>
<rscale>  1 0.30000000E+03</rscale>
<asrwt>0</asrwt>
<pdfrwt beam="1">  1       21 0.12414291E-01 0.30000000E+03</pdfrwt>
<pdfrwt beam="2">0</pdfrwt>
<totfact> 0.58262362E+03</totfact>
</mgrwt>
</event>
<event>
 6    1  0.1284012E-001  0.3000000E+03  0.7818608E-02  0.1093470E+00
         21   -1    0    0  501  502  0.00000000000E+00  0.00000000000E+00  0.16562734030E+01  0.16562734030E+01  0.00000000000E+00 0. -1.
         13   -1    0    0    0    0 -0.00000000000E+00 -0.00000000000E+00 -0.10000000000E+04  0.10000000000E+04  0.00000000000E+00 0.  1.
    9000005    2    1    2  501    0 -0.30832333104E+02 -0.25774132587E+02 -0.57407337498E+03  0.57548697613E+03  0.31750844676E+01 0.  0.
         13    1    3    3    0    0 -0.22612426152E+02 -0.19958979912E+02 -0.44568354888E+03  0.44670293086E+03  0.00000000000E+00 0.  1.
          1    1    3    3  501    0 -0.82199069514E+01 -0.58151526746E+01 -0.12838982610E+03  0.12878404528E+03  0.00000000000E+00 0.  1.
         -3    1    1    2    0  502  0.30832333104E+02  0.25774132587E+02 -0.42427035162E+03  0.42616929727E+03  0.00000000000E+00 0. -1.
<mgrwt>
<rscale>  1 0.30000000E+03</rscale>
<asrwt>0</asrwt>
<pdfrwt beam="1">  1       21 0.60228251E-02 0.30000000E+03</pdfrwt>
<pdfrwt beam="2">0</pdfrwt>
<totfact> 0.20934120E+04</totfact>
</mgrwt>
</event>
<event>
 6    1  0.1284012E-001  0.3000000E+03  0.7818608E-02  0.1093470E+00
         21   -1    0    0  501  502  0.00000000000E+00  0.00000000000E+00  0.94130726368E+00  0.94130726368E+00  0.00000000000E+00 0. -1.
         13   -1    0    0    0    0 -0.00000000000E+00 -0.00000000000E+00 -0.10000000000E+04  0.10000000000E+04  0.00000000000E+00 0.  1.
    9000005    2    1    2  501    0  0.28805553163E+02 -0.10459661403E+02 -0.49774378146E+03  0.49869056841E+03  0.20607354530E+01 0.  0.
         13    1    3    3    0    0  0.33494157076E+01 -0.13040264513E+01 -0.48505292272E+02  0.48638281723E+02  0.00000000000E+00 0.  1.
          3    1    3    3  501    0  0.25456137456E+02 -0.91556349521E+01 -0.44923848919E+03  0.45005228669E+03  0.00000000000E+00 0.  1.
         -3    1    1    2    0  502 -0.28805553163E+02  0.10459661403E+02 -0.50131491127E+03  0.50225073885E+03  0.00000000000E+00 0. -1.
<mgrwt>
<rscale>  1 0.30000000E+03</rscale>
<asrwt>0</asrwt>
<pdfrwt beam="1">  1       21 0.34229427E-02 0.30000000E+03</pdfrwt>
<pdfrwt beam="2">0</pdfrwt>
<totfact> 0.54613643E+04</totfact>
</mgrwt>
</event>
<event>
 6    1  0.1284012E-001  0.3000000E+03  0.7818608E-02  0.1093470E+00
         21   -1    0    0  501  502  0.00000000000E+00  0.00000000000E+00  0.15915207938E+01  0.15915207938E+01  0.00000000000E+00 0. -1.
         13   -1    0    0    0    0 -0.00000000000E+00 -0.00000000000E+00 -0.10000000000E+04  0.10000000000E+04  0.00000000000E+00 0.  1.
    9000005    2    1    2  501    0 -0.29143304530E+02 -0.12741301463E+02 -0.80097608842E+03  0.80161346727E+03  0.31278934067E+01 0.  0.
         13    1    3    3    0    0 -0.25394679060E+02 -0.12115622334E+02 -0.69537196986E+03  0.69594098492E+03  0.00000000000E+00 0.  1.
          1    1    3    3  501    0 -0.37486254698E+01 -0.62567912874E+00 -0.10560411856E+03  0.10567248234E+03  0.00000000000E+00 0.  1.
         -1    1    1    2    0  502  0.29143304530E+02  0.12741301463E+02 -0.19743239079E+03  0.19997805353E+03  0.00000000000E+00 0. -1.
<mgrwt>
<rscale>  1 0.30000000E+03</rscale>
<asrwt>0</asrwt>
<pdfrwt beam="1">  1       21 0.57873605E-02 0.30000000E+03</pdfrwt>
<pdfrwt beam="2">0</pdfrwt>
<totfact> 0.22423653E+04</totfact>
</mgrwt>
</event>
<event>
 6    1  0.1284012E-001  0.3000000E+03  0.7818608E-02  0.1093470E+00
         21   -1    0    0  501  502  0.00000000000E+00  0.00000000000E+00  0.12295108749E+01  0.12295108749E+01  0.00000000000E+00 0. -1.
         13   -1    0    0    0    0 -0.00000000000E+00 -0.00000000000E+00 -0.10000000000E+04  0.10000000000E+04  0.00000000000E+00 0.  1.
    9000005    2    1    2  501    0  0.28644297159E+02  0.19115428367E+02 -0.41216682874E+03  0.41361590506E+03  0.32751860675E+01 0.  0.
         13    1    3    3    0    0  0.18874506915E+02  0.11038407379E+02 -0.27153160059E+03  0.27241054232E+03  0.00000000000E+00 0.  1.
          1    1    3    3  501    0  0.97697902438E+01  0.80770209878E+01 -0.14063522815E+03  0.14120536274E+03  0.00000000000E+00 0.  1.
         -3    1    1    2    0  502 -0.28644297159E+02 -0.19115428367E+02 -0.58660366038E+03  0.58761360581E+03  0.00000000000E+00 0. -1.
<mgrwt>
<rscale>  1 0.30000000E+03</rscale>
<asrwt>0</asrwt>
<pdfrwt beam="1">  1       21 0.44709581E-02 0.30000000E+03</pdfrwt>
<pdfrwt beam="2">0</pdfrwt>
<totfact> 0.34838766E+04</totfact>
</mgrwt>
</event>
<event>
 6    1  0.1284012E-001  0.3000000E+03  0.7818608E-02  0.1093470E+00
         21   -1    0    0  501  502  0.00000000000E+00  0.00000000000E+00  0.29507707613E+01  0.29507707613E+01  0.00000000000E+00 0. -1.
         13   -1    0    0    0    0 -0.00000000000E+00 -0.00000000000E+00 -0.10000000000E+04  0.10000000000E+04  0.00000000000E+00 0.  1.
    9000005    2    1    2  501    0 -0.11044651643E+02 -0.53144060514E+02 -0.48639984444E+03  0.48942465683E+03  0.23260568796E+01 0.  0.
         13    1    3    3    0    0 -0.25068236409E+01 -0.15177166158E+02 -0.13040097145E+03  0.13130515562E+03  0.00000000000E+00 0.  1.
          3    1    3    3  501    0 -0.85378280023E+01 -0.37966894356E+02 -0.35599887299E+03  0.35811950121E+03  0.00000000000E+00 0.  1.
         -3    1    1    2    0  502  0.11044651643E+02  0.53144060514E+02 -0.51064938479E+03  0.51352611393E+03  0.00000000000E+00 0. -1.
<mgrwt>
<rscale>  1 0.30000000E+03</rscale>
<asrwt>0</asrwt>
<pdfrwt beam="1">  1       21 0.10730098E-01 0.30000000E+03</pdfrwt>
<pdfrwt beam="2">0</pdfrwt>
<totfact> 0.75831555E+03</totfact>
</mgrwt>
</event>
<event>
 6    1  0.1284012E-001  0.3000000E+03  0.7818608E-02  0.1093470E+00
         21   -1    0    0  501  502  0.00000000000E+00  0.00000000000E+00  0.25041859923E+01  0.25041859923E+01  0.00000000000E+00 0. -1.
         13   -1    0    0    0    0 -0.00000000000E+00 -0.00000000000E+00 -0.10000000000E+04  0.10000000000E+04  0.00000000000E+00 0.  1.
    9000005    2    1    2  501    0 -0.39409913552E+02  0.30686377174E+02 -0.52062070147E+03  0.52302043445E+03  0.31088628834E+01 0.  0.
         13    1    3    3    0    0 -0.17032236093E+02  0.11593498345E+02 -0.20634701850E+03  0.20737308966E+03  0.00000000000E+00 0.  1.
          1    1    3    3  501    0 -0.22377677458E+02  0.19092878829E+02 -0.31427368296E+03  0.31564734479E+03  0.00000000000E+00 0.  1.
         -3    1    1    2    0  502  0.39409913552E+02 -0.30686377174E+02 -0.47687511254E+03  0.47948375154E+03  0.00000000000E+00 0. -1.
<mgrwt>
<rscale>  1 0.30000000E+03</rscale>
<asrwt>0</asrwt>
<pdfrwt beam="1">  1       21 0.91061501E-02 0.30000000E+03</pdfrwt>
<pdfrwt beam="2">0</pdfrwt>
<totfact> 0.10164610E+04</totfact>
</mgrwt>
</event>
<event>
 6    1  0.1284012E-001  0.3000000E+03  0.7818608E-02  0.1093470E+00
         21   -1    0    0  501  502  0.00000000000E+00  0.00000000000E+00  0.18627407602E+01  0.18627407602E+01  0.00000000000E+00 0. -1.
         13   -1    0    0    0    0 -0.00000000000E+00 -0.00000000000E+00 -0.10000000000E+04  0.10000000000E+04  0.00000000000E+00 0.  1.
    9000005    2    1    2  501    0 -0.31979350652E+02  0.42996886280E+01 -0.83144012943E+03  0.83207140035E+03  0.29933707447E+01 0.  0.
         13    1    3    3    0    0 -0.46378133597E+01  0.58598599579E+00 -0.15012299197E+03  0.15019575696E+03  0.00000000000E+00 0.  1.
          3    1    3    3  501    0 -0.27341537292E+02  0.37137026323E+01 -0.68131713746E+03  0.68187564339E+03  0.00000000000E+00 0.  1.
         -3    1    1    2    0  502  0.31979350652E+02 -0.42996886280E+01 -0.16669712981E+03  0.16979134041E+03  0.00000000000E+00 0. -1.
<mgrwt>
<rscale>  1 0.30000000E+03</rscale>
<asrwt>0</asrwt>
<pdfrwt beam="1">  1       21 0.67736170E-02 0.30000000E+03</pdfrwt>
<pdfrwt beam="2">0</pdfrwt>
<totfact> 0.17084117E+04</totfact>
</mgrwt>
</event>
<event>
 6    1  0.1284012E-001  0.3000000E+03  0.7818608E-02  0.1093470E+00
         21   -1    0    0  501  502  0.00000000000E+00  0.00000000000E+00  0.18919165316E+01  0.18919165316E+01  0.00000000000E+00 0. -1.
         13   -1    0    0    0    0 -0.00000000000E+00 -0.00000000000E+00 -0.10000000000E+04  0.10000000000E+04  0.00000000000E+00 0.  1.
    9000005    2    1    2  501    0 -0.38174223198E+02  0.19637327190E+02 -0.57542815231E+03  0.57703756486E+03  0.34491803119E+01 0.  0.
         13    1    3    3    0    0 -0.16180657638E+02  0.10174787018E+02 -0.26184047937E+03  0.26253719090E+03  0.00000000000E+00 0.  1.
          1    1    3    3  501    0 -0.21993565560E+02  0.94625401717E+01 -0.31358767295E+03  0.31450037395E+03  0.00000000000E+00 0.  1.
         -1    1    1    2    0  502  0.38174223198E+02 -0.19637327190E+02 -0.42267993115E+03  0.42485435167E+03  0.00000000000E+00 0. -1.
<mgrwt>
<rscale>  1 0.30000000E+03</rscale>
<asrwt>0</asrwt>
<pdfrwt beam="1">  1       21 0.68797110E-02 0.30000000E+03</pdfrwt>
<pdfrwt beam="2">0</pdfrwt>
<totfact> 0.16629097E+04</totfact>
</mgrwt>
</event>
<event>
 6    1  0.1284012E-001  0.3000000E+03  0.7818608E-02  0.1093470E+00
         21   -1    0    0  501  502  0.00000000000E+00  0.00000000000E+00  0.18637779526E+01  0.18637779526E+01  0.00000000000E+00 0. -1.
         13   -1    0    0    0    0 -0.00000000000E+00 -0.00000000000E+00 -0.10000000000E+04  0.10000000000E+04  0.00000000000E+00 0.  1.
    9000005    2    1    2  501    0  0.11005447783E+02  0.40457046269E+02 -0.38427656303E+03  0.38657394914E+03  0.36123101041E+01 0.  0.
         13    1    3    3    0    0  0.10940311468E+02  0.36201409607E+02 -0.34762003274E+03  0.34967115928E+03  0.00000000000E+00 0.  1.
          3    1    3    3  501    0  0.65136314371E-01  0.42556366619E+01 -0.36656530290E+02  0.36902789855E+02  0.00000000000E+00 0.  1.
         -1    1    1    2    0  502 -0.11005447783E+02 -0.40457046269E+02 -0.61385965902E+03  0.61528982881E+03  0.00000000000E+00 0. -1.
<mgrwt>
<rscale>  1 0.30000000E+03</rscale>
<asrwt>0</asrwt>
<pdfrwt beam="1">  1       21 0.67773887E-02 0.30000000E+03</pdfrwt>
<pdfrwt beam="2">0</pdfrwt>
<totfact> 0.17067615E+04</totfact>
</mgrwt>
</event>
<event>
 6    1  0.1284012E-001  0.3000000E+03  0.7818608E-02  0.1093470E+00
         21   -1    0    0  501  502  0.00000000000E+00  0.00000000000E+00  0.70735341266E+01  0.70735341266E+01  0.00000000000E+00 0. -1.
         13   -1    0    0    0    0 -0.00000000000E+00 -0.00000000000E+00 -0.10000000000E+04  0.10000000000E+04  0.00000000000E+00 0.  1.
    9000005    2    1    2  501    0 -0.24641417256E+02  0.47740465358E+02 -0.88380990697E+03  0.88544798211E+03  0.34388782018E+01 0.  0.
         13    1    3    3    0    0 -0.80643741036E+01  0.19235640859E+02 -0.34654354299E+03  0.34717066581E+03  0.00000000000E+00 0.  1.
          1    1    3    3  501    0 -0.16577043153E+02  0.28504824500E+02 -0.53726636398E+03  0.53827731630E+03  0.00000000000E+00 0.  1.
         -1    1    1    2    0  502  0.24641417256E+02 -0.47740465358E+02 -0.10911655890E+03  0.12162555202E+03  0.00000000000E+00 0. -1.
<mgrwt>
<rscale>  1 0.30000000E+03</rscale>
<asrwt>0</asrwt>
<pdfrwt beam="1">  1       21 0.25721997E-01 0.30000000E+03</pdfrwt>
<pdfrwt beam="2">0</pdfrwt>
<totfact> 0.14748767E+03</totfact>
</mgrwt>
</event>
<event>
 6    1  0.1284012E-001  0.3000000E+03  0.7818608E-02  0.1093470E+00
         21   -1    0    0  501  502  0.00000000000E+00  0.00000000000E+00  0.32716285027E+01  0.32716285027E+01  0.00000000000E+00 0. -1.
         13   -1    0    0    0    0 -0.00000000000E+00 -0.00000000000E+00 -0.10000000000E+04  0.10000000000E+04  0.00000000000E+00 0.  1.
    9000005    2    1    2  501    0  0.17079464453E+02 -0.35086718382E+02 -0.86500656858E+03  0.86589106483E+03  0.28612135285E+01 0.  0.
         13    1    3    3    0    0  0.11364224832E+02 -0.25860869524E+02 -0.63913787415E+03  0.63976179344E+03  0.00000000000E+00 0.  1.
          1    1    3    3  501    0  0.57152396217E+01 -0.92258488575E+01 -0.22586869444E+03  0.22612927139E+03  0.00000000000E+00 0.  1.
         -3    1    1    2    0  502 -0.17079464453E+02  0.35086718382E+02 -0.13172180291E+03  0.13738056368E+03  0.00000000000E+00 0. -1.
<mgrwt>
<rscale>  1 0.30000000E+03</rscale>
<asrwt>0</asrwt>
<pdfrwt beam="1">  1       21 0.11896856E-01 0.30000000E+03</pdfrwt>
<pdfrwt beam="2">0</pdfrwt>
<totfact> 0.62949274E+03</totfact>
</mgrwt>
</event>
<event>
 6    1  0.1284012E-001  0.3000000E+03  0.7818608E-02  0.1093470E+00
         21   -1    0    0  501  502  0.00000000000E+00  0.00000000000E+00  0.18407409228E+01  0.18407409228E+01  0.00000000000E+00 0. -1.
         13   -1    0    0    0    0 -0.00000000000E+00 -0.00000000000E+00 -0.10000000000E+04  0.10000000000E+04  0.00000000000E+00 0.  1.
    9000005    2    1    2  501    0  0.24154949605E+02  0.34052531001E+02 -0.61205357084E+03  0.61348441106E+03  0.32423099265E+01 0.  0.
         13    1    3    3    0    0  0.22518306673E+02  0.30904916031E+02 -0.54780481074E+03  0.54913777746E+03  0.00000000000E+00 0.  1.
          3    1    3    3  501    0  0.16366429316E+01  0.31476149695E+01 -0.64248760101E+02  0.64346633592E+02  0.00000000000E+00 0.  1.
         -1    1    1    2    0  502 -0.24154949605E+02 -0.34052531001E+02 -0.38610568824E+03  0.38835632987E+03  0.00000000000E+00 0. -1.
<mgrwt>
<rscale>  1 0.30000000E+03</rscale>
<asrwt>0</asrwt>
<pdfrwt beam="1">  1       21 0.66936175E-02 0.30000000E+03</pdfrwt>
<pdfrwt beam="2">0</pdfrwt>
<totfact> 0.17439989E+04</totfact>
</mgrwt>
</event>
<event>
 6    1  0.1284012E-001  0.3000000E+03  0.7818608E-02  0.1093470E+00
         21   -1    0    0  501  502  0.00000000000E+00  0.00000000000E+00  0.23669457516E+01  0.23669457516E+01  0.00000000000E+00 0. -1.
         13   -1    0    0    0    0 -0.00000000000E+00 -0.00000000000E+00 -0.10000000000E+04  0.10000000000E+04  0.00000000000E+00 0.  1.
    9000005    2    1    2  501    0  0.23910390296E+02  0.34554061235E+02 -0.75072028003E+03  0.75190415813E+03  0.36378908460E+01 0.  0.
         13    1    3    3    0    0  0.12467588793E+02  0.20955390729E+02 -0.42244992124E+03  0.42315305165E+03  0.00000000000E+00 0.  1.
          1    1    3    3  501    0  0.11442801503E+02  0.13598670506E+02 -0.32827035880E+03  0.32875110648E+03  0.00000000000E+00 0.  1.
         -1    1    1    2    0  502 -0.23910390296E+02 -0.34554061235E+02 -0.24691277422E+03  0.25046278762E+03  0.00000000000E+00 0. -1.
<mgrwt>
<rscale>  1 0.30000000E+03</rscale>
<asrwt>0</asrwt>
<pdfrwt beam="1">  1       21 0.86070936E-02 0.30000000E+03</pdfrwt>
<pdfrwt beam="2">0</pdfrwt>
<totfact> 0.11230436E+04</totfact>
</mgrwt>
</event>
<event>
 6    1  0.1284012E-001  0.3000000E+03  0.7818608E-02  0.1093470E+00
         21   -1    0    0  501  502  0.00000000000E+00  0.00000000000E+00  0.11208546017E+01  0.11208546017E+01  0.00000000000E+00 0. -1.
         13   -1    0    0    0    0 -0.00000000000E+00 -0.00000000000E+00 -0.10000000000E+04  0.10000000000E+04  0.00000000000E+00 0.  1.
    9000005    2    1    2  501    0 -0.29671418287E+02  0.13786070700E+02 -0.60187671618E+03  0.60277254268E+03  0.29509179172E+01 0.  0.
         13    1    3    3    0    0 -0.14078246569E+02  0.49250641005E+01 -0.27138832746E+03  0.27179786159E+03  0.00000000000E+00 0.  1.
          3    1    3    3  501    0 -0.15593171718E+02  0.88610065994E+01 -0.33048838872E+03  0.33097468109E+03  0.00000000000E+00 0.  1.
         -1    1    1    2    0  502  0.29671418287E+02 -0.13786070700E+02 -0.39700242922E+03  0.39834831192E+03  0.00000000000E+00 0. -1.
<mgrwt>
<rscale>  1 0.30000000E+03</rscale>
<asrwt>0</asrwt>
<pdfrwt beam="1">  1       21 0.40758435E-02 0.30000000E+03</pdfrwt>
<pdfrwt beam="2">0</pdfrwt>
<totfact> 0.40737480E+04</totfact>
</mgrwt>
</event>
<event>
 6    1  0.1284012E-001  0.3000000E+03  0.7818608E-02  0.1093470E+00
         21   -1    0    0  501  502  0.00000000000E+00  0.00000000000E+00  0.13059863624E+01  0.13059863624E+01  0.00000000000E+00 0. -1.
         13   -1    0    0    0    0 -0.00000000000E+00 -0.00000000000E+00 -0.10000000000E+04  0.10000000000E+04  0.00000000000E+00 0.  1.
    9000005    2    1    2  501    0 -0.28121332726E+02  0.22545475549E+02 -0.48211321467E+03  0.48346930392E+03  0.32106464191E+01 0.  0.
         13    1    3    3    0    0 -0.10301606339E+01  0.28360129307E+00 -0.19391129079E+02  0.19420544472E+02  0.00000000000E+00 0.  1.
          3    1    3    3  501    0 -0.27091172092E+02  0.22261874256E+02 -0.46272208559E+03  0.46404875945E+03  0.00000000000E+00 0.  1.
         -3    1    1    2    0  502  0.28121332726E+02 -0.22545475549E+02 -0.51658079897E+03  0.51783668244E+03  0.00000000000E+00 0. -1.
<mgrwt>
<rscale>  1 0.30000000E+03</rscale>
<asrwt>0</asrwt>
<pdfrwt beam="1">  1       21 0.47490513E-02 0.30000000E+03</pdfrwt>
<pdfrwt beam="2">0</pdfrwt>
<totfact> 0.31444231E+04</totfact>
</mgrwt>
</event>
<event>
 6    1  0.1284012E-001  0.3000000E+03  0.7818608E-02  0.1093470E+00
         21   -1    0    0  501  502  0.00000000000E+00  0.00000000000E+00  0.21898607050E+01  0.21898607050E+01  0.00000000000E+00 0. -1.
         13   -1    0    0    0    0 -0.00000000000E+00 -0.00000000000E+00 -0.10000000000E+04  0.10000000000E+04  0.00000000000E+00 0.  1.
    9000005    2    1    2  501    0 -0.39633700467E+02  0.53030208103E+01 -0.75733021259E+03  0.75840809889E+03  0.59026543154E+01 0.  0.
         13    1    3    3    0    0 -0.11507092944E+02  0.42134094482E+01 -0.24032458102E+03  0.24063680152E+03  0.00000000000E+00 0.  1.
          3    1    3    3  501    0 -0.28126607523E+02  0.10896113621E+01 -0.51700563157E+03  0.51777129737E+03  0.00000000000E+00 0.  1.
         -1    1    1    2    0  502  0.39633700467E+02 -0.53030208103E+01 -0.24047992671E+03  0.24378176181E+03  0.00000000000E+00 0. -1.
<mgrwt>
<rscale>  1 0.30000000E+03</rscale>
<asrwt>0</asrwt>
<pdfrwt beam="1">  1       21 0.79631466E-02 0.30000000E+03</pdfrwt>
<pdfrwt beam="2">0</pdfrwt>
<totfact> 0.12877874E+04</totfact>
</mgrwt>
</event>
<event>
 6    1  0.1284012E-001  0.3000000E+03  0.7818608E-02  0.1093470E+00
         21   -1    0    0  501  502  0.00000000000E+00  0.00000000000E+00  0.12734230812E+01  0.12734230812E+01  0.00000000000E+00 0. -1.
         13   -1    0    0    0    0 -0.00000000000E+00 -0.00000000000E+00 -0.10000000000E+04  0.10000000000E+04  0.00000000000E+00 0.  1.
    9000005    2    1    2  501    0 -0.28864497842E+02 -0.19097260623E+02 -0.61258077870E+03  0.61357967529E+03  0.51906541006E+01 0.  0.
         13    1    3    3    0    0 -0.19002800672E+02 -0.15213371978E+02 -0.41043997676E+03  0.41116119423E+03  0.00000000000E+00 0.  1.
          3    1    3    3  501    0 -0.98616971709E+01 -0.38838886450E+01 -0.20214080194E+03  0.20241848105E+03  0.00000000000E+00 0.  1.
         -1    1    1    2    0  502  0.28864497842E+02  0.19097260623E+02 -0.38614579822E+03  0.38769374780E+03  0.00000000000E+00 0. -1.
<mgrwt>
<rscale>  1 0.30000000E+03</rscale>
<asrwt>0</asrwt>
<pdfrwt beam="1">  1       21 0.46306392E-02 0.30000000E+03</pdfrwt>
<pdfrwt beam="2">0</pdfrwt>
<totfact> 0.32823440E+04</totfact>
</mgrwt>
</event>
<event>
 6    1  0.1284012E-001  0.3000000E+03  0.7818608E-02  0.1093470E+00
         21   -1    0    0  501  502  0.00000000000E+00  0.00000000000E+00  0.19410223387E+01  0.19410223387E+01  0.00000000000E+00 0. -1.
         13   -1    0    0    0    0 -0.00000000000E+00 -0.00000000000E+00 -0.10000000000E+04  0.10000000000E+04  0.00000000000E+00 0.  1.
    9000005    2    1    2  501    0  0.34711823936E+02 -0.63468334941E+01 -0.79857470040E+03  0.79935975496E+03  0.30451144677E+01 0.  0.
         13    1    3    3    0    0  0.18556326653E+02 -0.29029357631E+01 -0.45724149341E+03  0.45762708355E+03  0.00000000000E+00 0.  1.
          3    1    3    3  501    0  0.16155497283E+02 -0.34438977310E+01 -0.34133320698E+03  0.34173267142E+03  0.00000000000E+00 0.  1.
         -3    1    1    2    0  502 -0.34711823936E+02  0.63468334941E+01 -0.19948427726E+03  0.20258126738E+03  0.00000000000E+00 0. -1.
<mgrwt>
<rscale>  1 0.30000000E+03</rscale>
<asrwt>0</asrwt>
<pdfrwt beam="1">  1       21 0.70582779E-02 0.30000000E+03</pdfrwt>
<pdfrwt beam="2">0</pdfrwt>
<totfact> 0.15904064E+04</totfact>
</mgrwt>
</event>
<event>
 6    1  0.1284012E-001  0.3000000E+03  0.7818608E-02  0.1093470E+00
         21   -1    0    0  501  502  0.00000000000E+00  0.00000000000E+00  0.15085822900E+01  0.15085822900E+01  0.00000000000E+00 0. -1.
         13   -1    0    0    0    0 -0.00000000000E+00 -0.00000000000E+00 -0.10000000000E+04  0.10000000000E+04  0.00000000000E+00 0.  1.
    9000005    2    1    2  501    0 -0.37304629878E+02 -0.12490301240E+01 -0.63549278107E+03  0.63659598222E+03  0.31897180785E+01 0.  0.
         13    1    3    3    0    0 -0.65878026893E+01  0.90035998037E+00 -0.10501125783E+03  0.10522154753E+03  0.00000000000E+00 0.  1.
          1    1    3    3  501    0 -0.30716827188E+02 -0.21493901044E+01 -0.53048152323E+03  0.53137443469E+03  0.00000000000E+00 0.  1.
         -3    1    1    2    0  502  0.37304629878E+02  0.12490301240E+01 -0.36299863664E+03  0.36491260007E+03  0.00000000000E+00 0. -1.
<mgrwt>
<rscale>  1 0.30000000E+03</rscale>
<asrwt>0</asrwt>
<pdfrwt beam="1">  1       21 0.54857653E-02 0.30000000E+03</pdfrwt>
<pdfrwt beam="2">0</pdfrwt>
<totfact> 0.24583132E+04</totfact>
</mgrwt>
</event>
<event>
 6    1  0.1284012E-001  0.3000000E+03  0.7818608E-02  0.1093470E+00
         21   -1    0    0  501  502  0.00000000000E+00  0.00000000000E+00  0.22784576090E+01  0.22784576090E+01  0.00000000000E+00 0. -1.
         13   -1    0    0    0    0 -0.00000000000E+00 -0.00000000000E+00 -0.10000000000E+04  0.10000000000E+04  0.00000000000E+00 0.  1.
    9000005    2    1    2  501    0 -0.75530380607E+00  0.44483006698E+02 -0.67930152010E+03  0.68076544238E+03  0.34240259622E+01 0.  0.
         13    1    3    3    0    0 -0.14903455764E+01  0.17060112208E+02 -0.27891487162E+03  0.27944010838E+03  0.00000000000E+00 0.  1.
          1    1    3    3  501    0  0.73504177032E+00  0.27422894490E+02 -0.40038664848E+03  0.40132533400E+03  0.00000000000E+00 0.  1.
         -3    1    1    2    0  502  0.75530380607E+00 -0.44483006698E+02 -0.31842002229E+03  0.32151301523E+03  0.00000000000E+00 0. -1.
<mgrwt>
<rscale>  1 0.30000000E+03</rscale>
<asrwt>0</asrwt>
<pdfrwt beam="1">  1       21 0.82853179E-02 0.30000000E+03</pdfrwt>
<pdfrwt beam="2">0</pdfrwt>
<totfact> 0.12010540E+04</totfact>
</mgrwt>
</event>
<event>
 6    1  0.1284012E-001  0.3000000E+03  0.7818608E-02  0.1093470E+00
         21   -1    0    0  501  502  0.00000000000E+00  0.00000000000E+00  0.22674960004E+01  0.22674960004E+01  0.00000000000E+00 0. -1.
         13   -1    0    0    0    0 -0.00000000000E+00 -0.00000000000E+00 -0.10000000000E+04  0.10000000000E+04  0.00000000000E+00 0.  1.
    9000005    2    1    2  501    0  0.36833203740E+02 -0.16664283785E+02 -0.76313395545E+03  0.76421106943E+03  0.32774106554E+01 0.  0.
         13    1    3    3    0    0  0.16428637219E+02 -0.82950016539E+01 -0.32036031270E+03  0.32088851199E+03  0.00000000000E+00 0.  1.
          1    1    3    3  501    0  0.20404566521E+02 -0.83692821310E+01 -0.44277364275E+03  0.44332255744E+03  0.00000000000E+00 0.  1.
         -1    1    1    2    0  502 -0.36833203740E+02  0.16664283785E+02 -0.23459854855E+03  0.23805642657E+03  0.00000000000E+00 0. -1.
<mgrwt>
<rscale>  1 0.30000000E+03</rscale>
<asrwt>0</asrwt>
<pdfrwt beam="1">  1       21 0.82454574E-02 0.30000000E+03</pdfrwt>
<pdfrwt beam="2">0</pdfrwt>
<totfact> 0.12112914E+04</totfact>
</mgrwt>
</event>
<event>
 6    1  0.1284012E-001  0.3000000E+03  0.7818608E-02  0.1093470E+00
         21   -1    0    0  501  502  0.00000000000E+00  0.00000000000E+00  0.40775927421E+01  0.40775927421E+01  0.00000000000E+00 0. -1.
         13   -1    0    0    0    0 -0.00000000000E+00 -0.00000000000E+00 -0.10000000000E+04  0.10000000000E+04  0.00000000000E+00 0.  1.
    9000005    2    1    2  501    0 -0.60610102537E+02  0.10472033065E+02 -0.36474103374E+03  0.36990634277E+03  0.33812315696E+01 0.  0.
         13    1    3    3    0    0 -0.45117729405E+02  0.63064530228E+01 -0.26843166809E+03  0.27226997868E+03  0.00000000000E+00 0.  1.
          1    1    3    3  501    0 -0.15492373132E+02  0.41655800420E+01 -0.96309365647E+02  0.97636364095E+02  0.00000000000E+00 0.  1.
         -1    1    1    2    0  502  0.60610102537E+02 -0.10472033065E+02 -0.63118137352E+03  0.63417124997E+03  0.00000000000E+00 0. -1.
<mgrwt>
<rscale>  1 0.30000000E+03</rscale>
<asrwt>0</asrwt>
<pdfrwt beam="1">  1       21 0.14827641E-01 0.30000000E+03</pdfrwt>
<pdfrwt beam="2">0</pdfrwt>
<totfact> 0.42070121E+03</totfact>
</mgrwt>
</event>
<event>
 6    1  0.1284012E-001  0.3000000E+03  0.7818608E-02  0.1093470E+00
         21   -1    0    0  501  502  0.00000000000E+00  0.00000000000E+00  0.26765468334E+01  0.26765468334E+01  0.00000000000E+00 0. -1.
         13   -1    0    0    0    0 -0.00000000000E+00 -0.00000000000E+00 -0.10000000000E+04  0.10000000000E+04  0.00000000000E+00 0.  1.
    9000005    2    1    2  501    0  0.45704554108E+02 -0.23404181327E+02 -0.55447792649E+03  0.55686400499E+03  0.38842136923E+01 0.  0.
         13    1    3    3    0    0  0.45034321007E+02 -0.23315015792E+02 -0.55030506684E+03  0.55263672210E+03  0.00000000000E+00 0.  1.
          3    1    3    3  501    0  0.67023310158E+00 -0.89165534842E-01 -0.41728596561E+01  0.42272828877E+01  0.00000000000E+00 0.  1.
         -3    1    1    2    0  502 -0.45704554108E+02  0.23404181327E+02 -0.44284552667E+03  0.44581254184E+03  0.00000000000E+00 0. -1.
<mgrwt>
<rscale>  1 0.30000000E+03</rscale>
<asrwt>0</asrwt>
<pdfrwt beam="1">  1       21 0.97329181E-02 0.30000000E+03</pdfrwt>
<pdfrwt beam="2">0</pdfrwt>
<totfact> 0.90292420E+03</totfact>
</mgrwt>
</event>
<event>
 6    1  0.1284012E-001  0.3000000E+03  0.7818608E-02  0.1093470E+00
         21   -1    0    0  501  502  0.00000000000E+00  0.00000000000E+00  0.18938802878E+01  0.18938802878E+01  0.00000000000E+00 0. -1.
         13   -1    0    0    0    0 -0.00000000000E+00 -0.00000000000E+00 -0.10000000000E+04  0.10000000000E+04  0.00000000000E+00 0.  1.
    9000005    2    1    2  501    0  0.19585310925E+02 -0.25443458696E+02 -0.83680360512E+03  0.83742669447E+03  0.34987266636E+01 0.  0.
         13    1    3    3    0    0  0.13697246924E+02 -0.18815917276E+02 -0.56689550725E+03  0.56737304259E+03  0.00000000000E+00 0.  1.
          3    1    3    3  501    0  0.58880640008E+01 -0.66275414197E+01 -0.26990809787E+03  0.27005365189E+03  0.00000000000E+00 0.  1.
         -3    1    1    2    0  502 -0.19585310925E+02  0.25443458696E+02 -0.16130251460E+03  0.16446718581E+03  0.00000000000E+00 0. -1.
<mgrwt>
<rscale>  1 0.30000000E+03</rscale>
<asrwt>0</asrwt>
<pdfrwt beam="1">  1       21 0.68868519E-02 0.30000000E+03</pdfrwt>
<pdfrwt beam="2">0</pdfrwt>
<totfact> 0.16599140E+04</totfact>
</mgrwt>
</event>
<event>
 6    1  0.1284012E-001  0.3000000E+03  0.7818608E-02  0.1093470E+00
         21   -1    0    0  501  502  0.00000000000E+00  0.00000000000E+00  0.12131956576E+01  0.12131956576E+01  0.00000000000E+00 0. -1.
         13   -1    0    0    0    0 -0.00000000000E+00 -0.00000000000E+00 -0.10000000000E+04  0.10000000000E+04  0.00000000000E+00 0.  1.
    9000005    2    1    2  501    0  0.16037322057E+02  0.26020540840E+02 -0.73842570632E+03  0.73906406709E+03  0.29845045914E+01 0.  0.
         13    1    3    3    0    0  0.40348313239E+01  0.83636559090E+01 -0.20079872248E+03  0.20101332681E+03  0.00000000000E+00 0.  1.
          1    1    3    3  501    0  0.12002490733E+02  0.17656884931E+02 -0.53762698383E+03  0.53805074028E+03  0.00000000000E+00 0.  1.
         -3    1    1    2    0  502 -0.16037322057E+02 -0.26020540840E+02 -0.26036109803E+03  0.26214912857E+03  0.00000000000E+00 0. -1.
<mgrwt>
<rscale>  1 0.30000000E+03</rscale>
<asrwt>0</asrwt>
<pdfrwt beam="1">  1       21 0.44116299E-02 0.30000000E+03</pdfrwt>
<pdfrwt beam="2">0</pdfrwt>
<totfact> 0.35636682E+04</totfact>
</mgrwt>
</event>
<event>
 6    1  0.1284012E-001  0.3000000E+03  0.7818608E-02  0.1093470E+00
         21   -1    0    0  501  502  0.00000000000E+00  0.00000000000E+00  0.13544911867E+01  0.13544911867E+01  0.00000000000E+00 0. -1.
         13   -1    0    0    0    0 -0.00000000000E+00 -0.00000000000E+00 -0.10000000000E+04  0.10000000000E+04  0.00000000000E+00 0.  1.
    9000005    2    1    2  501    0 -0.35203822966E+02 -0.41187538043E+01 -0.38344606088E+03  0.38513485987E+03  0.64579716082E+01 0.  0.
         13    1    3    3    0    0 -0.12453914464E+02 -0.41348608985E+01 -0.12350612528E+03  0.12420128840E+03  0.00000000000E+00 0.  1.
          3    1    3    3  501    0 -0.22749908502E+02  0.16107094294E-01 -0.25993993560E+03  0.26093357146E+03  0.00000000000E+00 0.  1.
         -3    1    1    2    0  502  0.35203822966E+02  0.41187538043E+01 -0.61519944793E+03  0.61621963132E+03  0.00000000000E+00 0. -1.
<mgrwt>
<rscale>  1 0.30000000E+03</rscale>
<asrwt>0</asrwt>
<pdfrwt beam="1">  1       21 0.49254329E-02 0.30000000E+03</pdfrwt>
<pdfrwt beam="2">0</pdfrwt>
<totfact> 0.29551736E+04</totfact>
</mgrwt>
</event>
<event>
 6    1  0.1284012E-001  0.3000000E+03  0.7818608E-02  0.1093470E+00
         21   -1    0    0  501  502  0.00000000000E+00  0.00000000000E+00  0.18592511260E+01  0.18592511260E+01  0.00000000000E+00 0. -1.
         13   -1    0    0    0    0 -0.00000000000E+00 -0.00000000000E+00 -0.10000000000E+04  0.10000000000E+04  0.00000000000E+00 0.  1.
    9000005    2    1    2  501    0  0.24564218464E+01 -0.38463218884E+02 -0.71879608998E+03  0.71986830860E+03  0.75570852849E+01 0.  0.
         13    1    3    3    0    0 -0.16012481202E+01 -0.86104291902E+01 -0.12333722635E+03  0.12364778563E+03  0.00000000000E+00 0.  1.
          3    1    3    3  501    0  0.40576699665E+01 -0.29852789694E+02 -0.59545886363E+03  0.59622052297E+03  0.00000000000E+00 0.  1.
         -3    1    1    2    0  502 -0.24564218464E+01  0.38463218884E+02 -0.27934465889E+03  0.28199094253E+03  0.00000000000E+00 0. -1.
<mgrwt>
<rscale>  1 0.30000000E+03</rscale>
<asrwt>0</asrwt>
<pdfrwt beam="1">  1       21 0.67609274E-02 0.30000000E+03</pdfrwt>
<pdfrwt beam="2">0</pdfrwt>
<totfact> 0.17139817E+04</totfact>
</mgrwt>
</event>
<event>
 6    1  0.1284012E-001  0.3000000E+03  0.7818608E-02  0.1093470E+00
         21   -1    0    0  501  502  0.00000000000E+00  0.00000000000E+00  0.18761135932E+01  0.18761135932E+01  0.00000000000E+00 0. -1.
         13   -1    0    0    0    0 -0.00000000000E+00 -0.00000000000E+00 -0.10000000000E+04  0.10000000000E+04  0.00000000000E+00 0.  1.
    9000005    2    1    2  501    0 -0.17812639272E+02  0.35396227781E+02 -0.70031200191E+03  0.70143959517E+03  0.32284027462E+01 0.  0.
         13    1    3    3    0    0 -0.88566925003E+01  0.18482869682E+02 -0.33448412445E+03  0.33511145457E+03  0.00000000000E+00 0.  1.
          1    1    3    3  501    0 -0.89559467718E+01  0.16913358099E+02 -0.36582787747E+03  0.36632814060E+03  0.00000000000E+00 0.  1.
         -3    1    1    2    0  502  0.17812639272E+02 -0.35396227781E+02 -0.29781188449E+03  0.30043651843E+03  0.00000000000E+00 0. -1.
<mgrwt>
<rscale>  1 0.30000000E+03</rscale>
<asrwt>0</asrwt>
<pdfrwt beam="1">  1       21 0.68222456E-02 0.30000000E+03</pdfrwt>
<pdfrwt beam="2">0</pdfrwt>
<totfact> 0.16873216E+04</totfact>
</mgrwt>
</event>
<event>
 6    1  0.1284012E-001  0.3000000E+03  0.7818608E-02  0.1093470E+00
         21   -1    0    0  501  502  0.00000000000E+00  0.00000000000E+00  0.19662249914E+01  0.19662249914E+01  0.00000000000E+00 0. -1.
         13   -1    0    0    0    0 -0.00000000000E+00 -0.00000000000E+00 -0.10000000000E+04  0.10000000000E+04  0.00000000000E+00 0.  1.
    9000005    2    1    2  501    0 -0.32981815895E+02 -0.21748524577E+02 -0.72475316267E+03  0.72584470902E+03  0.47535580617E+01 0.  0.
         13    1    3    3    0    0 -0.94122565740E+01 -0.85093029851E+01 -0.25204615139E+03  0.25236533288E+03  0.00000000000E+00 0.  1.
          3    1    3    3  501    0 -0.23569559321E+02 -0.13239221592E+02 -0.47270701128E+03  0.47347937613E+03  0.00000000000E+00 0.  1.
         -1    1    1    2    0  502  0.32981815895E+02  0.21748524577E+02 -0.27328061234E+03  0.27612151597E+03  0.00000000000E+00 0. -1.
<mgrwt>
<rscale>  1 0.30000000E+03</rscale>
<asrwt>0</asrwt>
<pdfrwt beam="1">  1       21 0.71499241E-02 0.30000000E+03</pdfrwt>
<pdfrwt beam="2">0</pdfrwt>
<totfact> 0.15550544E+04</totfact>
</mgrwt>
</event>
<event>
 6    1  0.1284012E-001  0.3000000E+03  0.7818608E-02  0.1093470E+00
         21   -1    0    0  501  502  0.00000000000E+00  0.00000000000E+00  0.15411758618E+01  0.15411758618E+01  0.00000000000E+00 0. -1.
         13   -1    0    0    0    0 -0.00000000000E+00 -0.00000000000E+00 -0.10000000000E+04  0.10000000000E+04  0.00000000000E+00 0.  1.
    9000005    2    1    2  501    0  0.15779604115E+02 -0.35886596187E+02 -0.50269680468E+03  0.50423159056E+03  0.29284458669E+01 0.  0.
         13    1    3    3    0    0  0.11474504049E+02 -0.22615616104E+02 -0.32442850584E+03  0.32541817057E+03  0.00000000000E+00 0.  1.
          1    1    3    3  501    0  0.43051000656E+01 -0.13270980083E+02 -0.17826829884E+03  0.17881341999E+03  0.00000000000E+00 0.  1.
         -3    1    1    2    0  502 -0.15779604115E+02  0.35886596187E+02 -0.49576201946E+03  0.49730958530E+03  0.00000000000E+00 0. -1.
<mgrwt>
<rscale>  1 0.30000000E+03</rscale>
<asrwt>0</asrwt>
<pdfrwt beam="1">  1       21 0.56042877E-02 0.30000000E+03</pdfrwt>
<pdfrwt beam="2">0</pdfrwt>
<totfact> 0.23697897E+04</totfact>
</mgrwt>
</event>
<event>
 6    1  0.1284012E-001  0.3000000E+03  0.7818608E-02  0.1093470E+00
         21   -1    0    0  501  502  0.00000000000E+00  0.00000000000E+00  0.18237353680E+01  0.18237353680E+01  0.00000000000E+00 0. -1.
         13   -1    0    0    0    0 -0.00000000000E+00 -0.00000000000E+00 -0.10000000000E+04  0.10000000000E+04  0.00000000000E+00 0.  1.
    9000005    2    1    2  501    0 -0.25047868472E+02  0.30225605624E+02 -0.69467027663E+03  0.69578963972E+03  0.39302096805E+01 0.  0.
         13    1    3    3    0    0 -0.16156366572E+02  0.20507950603E+02 -0.43003107262E+03  0.43082284949E+03  0.00000000000E+00 0.  1.
          1    1    3    3  501    0 -0.88915019007E+01  0.97176550213E+01 -0.26463920401E+03  0.26496679023E+03  0.00000000000E+00 0.  1.
         -1    1    1    2    0  502  0.25047868472E+02 -0.30225605624E+02 -0.30350598800E+03  0.30603409565E+03  0.00000000000E+00 0. -1.
<mgrwt>
<rscale>  1 0.30000000E+03</rscale>
<asrwt>0</asrwt>
<pdfrwt beam="1">  1       21 0.66317790E-02 0.30000000E+03</pdfrwt>
<pdfrwt beam="2">0</pdfrwt>
<totfact> 0.17722947E+04</totfact>
</mgrwt>
</event>
<event>
 6    1  0.1284012E-001  0.3000000E+03  0.7818608E-02  0.1093470E+00
         21   -1    0    0  501  502  0.00000000000E+00  0.00000000000E+00  0.15352657139E+01  0.15352657139E+01  0.00000000000E+00 0. -1.
         13   -1    0    0    0    0 -0.00000000000E+00 -0.00000000000E+00 -0.10000000000E+04  0.10000000000E+04  0.00000000000E+00 0.  1.
    9000005    2    1    2  501    0  0.11946434546E+02 -0.30863726091E+02 -0.76642374210E+03  0.76714604040E+03  0.35224943898E+01 0.  0.
         13    1    3    3    0    0  0.11946006830E+02 -0.30957795838E+02 -0.76487125172E+03  0.76559070260E+03  0.00000000000E+00 0.  1.
          3    1    3    3  501    0  0.42771642158E-03  0.94069746944E-01 -0.15524903831E+01  0.15553378057E+01  0.00000000000E+00 0.  1.
         -3    1    1    2    0  502 -0.11946434546E+02  0.30863726091E+02 -0.23204099219E+03  0.23438922531E+03  0.00000000000E+00 0. -1.
<mgrwt>
<rscale>  1 0.30000000E+03</rscale>
<asrwt>0</asrwt>
<pdfrwt beam="1">  1       21 0.55827962E-02 0.30000000E+03</pdfrwt>
<pdfrwt beam="2">0</pdfrwt>
<totfact> 0.23854739E+04</totfact>
</mgrwt>
</event>
<event>
 6    1  0.1284012E-001  0.3000000E+03  0.7818608E-02  0.1093470E+00
         21   -1    0    0  501  502  0.00000000000E+00  0.00000000000E+00  0.28668400948E+01  0.28668400948E+01  0.00000000000E+00 0. -1.
         13   -1    0    0    0    0 -0.00000000000E+00 -0.00000000000E+00 -0.10000000000E+04  0.10000000000E+04  0.00000000000E+00 0.  1.
    9000005    2    1    2  501    0  0.46190901549E+02  0.16574848522E+02 -0.69814045869E+03  0.69987350622E+03  0.38078427924E+01 0.  0.
         13    1    3    3    0    0  0.64935883050E+01  0.37139509941E+01 -0.11201224200E+03  0.11226175875E+03  0.00000000000E+00 0.  1.
          3    1    3    3  501    0  0.39697313244E+02  0.12860897527E+02 -0.58612821669E+03  0.58761174747E+03  0.00000000000E+00 0.  1.
         -3    1    1    2    0  502 -0.46190901549E+02 -0.16574848522E+02 -0.29899270122E+03  0.30299333387E+03  0.00000000000E+00 0. -1.
<mgrwt>
<rscale>  1 0.30000000E+03</rscale>
<asrwt>0</asrwt>
<pdfrwt beam="1">  1       21 0.10424895E-01 0.30000000E+03</pdfrwt>
<pdfrwt beam="2">0</pdfrwt>
<totfact> 0.79859477E+03</totfact>
</mgrwt>
</event>
<event>
 6    1  0.1284012E-001  0.3000000E+03  0.7818608E-02  0.1093470E+00
         21   -1    0    0  501  502  0.00000000000E+00  0.00000000000E+00  0.34585464647E+01  0.34585464647E+01  0.00000000000E+00 0. -1.
         13   -1    0    0    0    0 -0.00000000000E+00 -0.00000000000E+00 -0.10000000000E+04  0.10000000000E+04  0.00000000000E+00 0.  1.
    9000005    2    1    2  501    0 -0.22847487439E+02 -0.21748072220E+02 -0.92166272917E+03  0.92220702531E+03  0.29368111681E+01 0.  0.
         13    1    3    3    0    0 -0.19557517169E+02 -0.19916192625E+02 -0.80977389909E+03  0.81025484809E+03  0.00000000000E+00 0.  1.
          3    1    3    3  501    0 -0.32899702707E+01 -0.18318795942E+01 -0.11188883009E+03  0.11195217722E+03  0.00000000000E+00 0.  1.
         -3    1    1    2    0  502  0.22847487439E+02  0.21748072220E+02 -0.74878724363E+02  0.81251521153E+02  0.00000000000E+00 0. -1.
<mgrwt>
<rscale>  1 0.30000000E+03</rscale>
<asrwt>0</asrwt>
<pdfrwt beam="1">  1       21 0.12576559E-01 0.30000000E+03</pdfrwt>
<pdfrwt beam="2">0</pdfrwt>
<totfact> 0.56900474E+03</totfact>
</mgrwt>
</event>
<event>
 6    1  0.1284012E-001  0.3000000E+03  0.7818608E-02  0.1093470E+00
         21   -1    0    0  501  502  0.00000000000E+00  0.00000000000E+00  0.18270982919E+01  0.18270982919E+01  0.00000000000E+00 0. -1.
         13   -1    0    0    0    0 -0.00000000000E+00 -0.00000000000E+00 -0.10000000000E+04  0.10000000000E+04  0.00000000000E+00 0.  1.
    9000005    2    1    2  501    0 -0.38364054273E+02  0.16645316324E+02 -0.60010390544E+03  0.60156744131E+03  0.31339921246E+01 0.  0.
         13    1    3    3    0    0 -0.37219384998E+02  0.15541274981E+02 -0.57999586859E+03  0.58139661285E+03  0.00000000000E+00 0.  1.
          3    1    3    3  501    0 -0.11446692747E+01  0.11040413423E+01 -0.20108036846E+02  0.20170828462E+02  0.00000000000E+00 0.  1.
         -3    1    1    2    0  502  0.38364054273E+02 -0.16645316324E+02 -0.39806899627E+03  0.40025965698E+03  0.00000000000E+00 0. -1.
<mgrwt>
<rscale>  1 0.30000000E+03</rscale>
<asrwt>0</asrwt>
<pdfrwt beam="1">  1       21 0.66440078E-02 0.30000000E+03</pdfrwt>
<pdfrwt beam="2">0</pdfrwt>
<totfact> 0.17666433E+04</totfact>
</mgrwt>
</event>
<event>
 6    1  0.1284012E-001  0.3000000E+03  0.7818608E-02  0.1093470E+00
         21   -1    0    0  501  502  0.00000000000E+00  0.00000000000E+00  0.26593567380E+01  0.26593567380E+01  0.00000000000E+00 0. -1.
         13   -1    0    0    0    0 -0.00000000000E+00 -0.00000000000E+00 -0.10000000000E+04  0.10000000000E+04  0.00000000000E+00 0.  1.
    9000005    2    1    2  501    0 -0.41105512632E+02 -0.11423990474E+02 -0.77977766731E+03  0.78095275054E+03  0.37171779920E+01 0.  0.
         13    1    3    3    0    0 -0.13357815455E+02 -0.36713296676E+01 -0.22247827237E+03  0.22290915542E+03  0.00000000000E+00 0.  1.
          3    1    3    3  501    0 -0.27747697177E+02 -0.77526608062E+01 -0.55729939495E+03  0.55804359512E+03  0.00000000000E+00 0.  1.
         -3    1    1    2    0  502  0.41105512632E+02  0.11423990474E+02 -0.21756297595E+03  0.22170660620E+03  0.00000000000E+00 0. -1.
<mgrwt>
<rscale>  1 0.30000000E+03</rscale>
<asrwt>0</asrwt>
<pdfrwt beam="1">  1       21 0.96704085E-02 0.30000000E+03</pdfrwt>
<pdfrwt beam="2">0</pdfrwt>
<totfact> 0.91336176E+03</totfact>
</mgrwt>
</event>
<event>
 6    1  0.1284012E-001  0.3000000E+03  0.7818608E-02  0.1093470E+00
         21   -1    0    0  501  502  0.00000000000E+00  0.00000000000E+00  0.18351405506E+01  0.18351405506E+01  0.00000000000E+00 0. -1.
         13   -1    0    0    0    0 -0.00000000000E+00 -0.00000000000E+00 -0.10000000000E+04  0.10000000000E+04  0.00000000000E+00 0.  1.
    9000005    2    1    2  501    0 -0.38819334855E+02  0.15579590344E+02 -0.56555594232E+03  0.56720870374E+03  0.11069115250E+02 0.  0.
         13    1    3    3    0    0 -0.13875146149E+02  0.18212460621E+01 -0.13902897105E+03  0.13973149755E+03  0.00000000000E+00 0.  1.
          1    1    3    3  501    0 -0.24944188706E+02  0.13758344282E+02 -0.42652697127E+03  0.42747720619E+03  0.00000000000E+00 0.  1.
         -3    1    1    2    0  502  0.38819334855E+02 -0.15579590344E+02 -0.43260891713E+03  0.43462643681E+03  0.00000000000E+00 0. -1.
<mgrwt>
<rscale>  1 0.30000000E+03</rscale>
<asrwt>0</asrwt>
<pdfrwt beam="1">  1       21 0.66732524E-02 0.30000000E+03</pdfrwt>
<pdfrwt beam="2">0</pdfrwt>
<totfact> 0.17532402E+04</totfact>
</mgrwt>
</event>
<event>
 6    1  0.1284012E-001  0.3000000E+03  0.7818608E-02  0.1093470E+00
         21   -1    0    0  501  502  0.00000000000E+00  0.00000000000E+00  0.13255422029E+02  0.13255422029E+02  0.00000000000E+00 0. -1.
         13   -1    0    0    0    0 -0.00000000000E+00 -0.00000000000E+00 -0.10000000000E+04  0.10000000000E+04  0.00000000000E+00 0.  1.
    9000005    2    1    2  501    0  0.60172813706E+02  0.40308021253E+02 -0.88710487633E+03  0.89007435924E+03  0.56390849858E+01 0.  0.
         13    1    3    3    0    0  0.55752075195E+02  0.38026895584E+02 -0.80810647667E+03  0.81091948818E+03  0.00000000000E+00 0.  1.
          1    1    3    3  501    0  0.44207385117E+01  0.22811256693E+01 -0.78998399663E+02  0.79154871060E+02  0.00000000000E+00 0.  1.
         -3    1    1    2    0  502 -0.60172813706E+02 -0.40308021253E+02 -0.99639701637E+02  0.12318106279E+03  0.00000000000E+00 0. -1.
<mgrwt>
<rscale>  1 0.30000000E+03</rscale>
<asrwt>0</asrwt>
<pdfrwt beam="1">  1       21 0.48201636E-01 0.30000000E+03</pdfrwt>
<pdfrwt beam="2">0</pdfrwt>
<totfact> 0.40666033E+02</totfact>
</mgrwt>
</event>
<event>
 6    1  0.1284012E-001  0.3000000E+03  0.7818608E-02  0.1093470E+00
         21   -1    0    0  501  502  0.00000000000E+00  0.00000000000E+00  0.27153004918E+01  0.27153004918E+01  0.00000000000E+00 0. -1.
         13   -1    0    0    0    0 -0.00000000000E+00 -0.00000000000E+00 -0.10000000000E+04  0.10000000000E+04  0.00000000000E+00 0.  1.
    9000005    2    1    2  501    0  0.57255243987E+00 -0.34984344940E+02 -0.86997110570E+03  0.87068127694E+03  0.34538459402E+01 0.  0.
         13    1    3    3    0    0 -0.14202676958E+00 -0.99514155506E+00 -0.14428960709E+02  0.14463933955E+02  0.00000000000E+00 0.  1.
          3    1    3    3  501    0  0.71457920944E+00 -0.33989203385E+02 -0.85554214499E+03  0.85621734298E+03  0.00000000000E+00 0.  1.
         -1    1    1    2    0  502 -0.57255243987E+00  0.34984344940E+02 -0.12731359381E+03  0.13203402355E+03  0.00000000000E+00 0. -1.
<mgrwt>
<rscale>  1 0.30000000E+03</rscale>
<asrwt>0</asrwt>
<pdfrwt beam="1">  1       21 0.98738408E-02 0.30000000E+03</pdfrwt>
<pdfrwt beam="2">0</pdfrwt>
<totfact> 0.88005262E+03</totfact>
</mgrwt>
</event>
<event>
 6    1  0.1284012E-001  0.3000000E+03  0.7818608E-02  0.1093470E+00
         21   -1    0    0  501  502  0.00000000000E+00  0.00000000000E+00  0.40742518619E+01  0.40742518619E+01  0.00000000000E+00 0. -1.
         13   -1    0    0    0    0 -0.00000000000E+00 -0.00000000000E+00 -0.10000000000E+04  0.10000000000E+04  0.00000000000E+00 0.  1.
    9000005    2    1    2  501    0 -0.37190656764E+01  0.39441367342E+02 -0.89111812926E+03  0.89202921680E+03  0.74263329192E+01 0.  0.
         13    1    3    3    0    0 -0.33510043040E+01  0.38126631654E+02 -0.87928346713E+03  0.88011606328E+03  0.00000000000E+00 0.  1.
          1    1    3    3  501    0 -0.36806137232E+00  0.13147356878E+01 -0.11834662129E+02  0.11913153521E+02  0.00000000000E+00 0.  1.
         -1    1    1    2    0  502  0.37190656764E+01 -0.39441367342E+02 -0.10480761888E+03  0.11204503506E+03  0.00000000000E+00 0. -1.
<mgrwt>
<rscale>  1 0.30000000E+03</rscale>
<asrwt>0</asrwt>
<pdfrwt beam="1">  1       21 0.14815493E-01 0.30000000E+03</pdfrwt>
<pdfrwt beam="2">0</pdfrwt>
<totfact> 0.42133905E+03</totfact>
</mgrwt>
</event>
<event>
 6    1  0.1284012E-001  0.3000000E+03  0.7818608E-02  0.1093470E+00
         21   -1    0    0  501  502  0.00000000000E+00  0.00000000000E+00  0.73151432307E+01  0.73151432307E+01  0.00000000000E+00 0. -1.
         13   -1    0    0    0    0 -0.00000000000E+00 -0.00000000000E+00 -0.10000000000E+04  0.10000000000E+04  0.00000000000E+00 0.  1.
    9000005    2    1    2  501    0 -0.23147073158E+02 -0.22394138151E+02 -0.96290487644E+03  0.96345021820E+03  0.36383327520E+01 0.  0.
         13    1    3    3    0    0 -0.25094311651E+01 -0.12074853528E+01 -0.99166721800E+02  0.99205816252E+02  0.00000000000E+00 0.  1.
          1    1    3    3  501    0 -0.20637641993E+02 -0.21186652798E+02 -0.86373815464E+03  0.86424440195E+03  0.00000000000E+00 0.  1.
         -3    1    1    2    0  502  0.23147073158E+02  0.22394138151E+02 -0.29779980332E+02  0.43864925030E+02  0.00000000000E+00 0. -1.
<mgrwt>
<rscale>  1 0.30000000E+03</rscale>
<asrwt>0</asrwt>
<pdfrwt beam="1">  1       21 0.26600577E-01 0.30000000E+03</pdfrwt>
<pdfrwt beam="2">0</pdfrwt>
<totfact> 0.13804920E+03</totfact>
</mgrwt>
</event>
<event>
 6    1  0.1284012E-001  0.3000000E+03  0.7818608E-02  0.1093470E+00
         21   -1    0    0  501  502  0.00000000000E+00  0.00000000000E+00  0.12211551745E+01  0.12211551745E+01  0.00000000000E+00 0. -1.
         13   -1    0    0    0    0 -0.00000000000E+00 -0.00000000000E+00 -0.10000000000E+04  0.10000000000E+04  0.00000000000E+00 0.  1.
    9000005    2    1    2  501    0  0.33335742341E+02  0.57974263964E+01 -0.61943969577E+03  0.62037594793E+03  0.39872561836E+01 0.  0.
         13    1    3    3    0    0  0.84950541510E+00 -0.46260756141E+00 -0.14462487179E+02  0.14494799089E+02  0.00000000000E+00 0.  1.
          3    1    3    3  501    0  0.32486236926E+02  0.62600339578E+01 -0.60497720859E+03  0.60588114885E+03  0.00000000000E+00 0.  1.
         -3    1    1    2    0  502 -0.33335742341E+02 -0.57974263964E+01 -0.37933914906E+03  0.38084520724E+03  0.00000000000E+00 0. -1.
<mgrwt>
<rscale>  1 0.30000000E+03</rscale>
<asrwt>0</asrwt>
<pdfrwt beam="1">  1       21 0.44405736E-02 0.30000000E+03</pdfrwt>
<pdfrwt beam="2">0</pdfrwt>
<totfact> 0.35243925E+04</totfact>
</mgrwt>
</event>
<event>
 6    1  0.1284012E-001  0.3000000E+03  0.7818608E-02  0.1093470E+00
         21   -1    0    0  501  502  0.00000000000E+00  0.00000000000E+00  0.10041719357E+01  0.10041719357E+01  0.00000000000E+00 0. -1.
         13   -1    0    0    0    0 -0.00000000000E+00 -0.00000000000E+00 -0.10000000000E+04  0.10000000000E+04  0.00000000000E+00 0.  1.
    9000005    2    1    2  501    0 -0.25261499239E+02  0.17936477339E+02 -0.59966842652E+03  0.60047672695E+03  0.31964479813E+01 0.  0.
         13    1    3    3    0    0 -0.77169469391E+01  0.43942459491E+01 -0.19441200786E+03  0.19461472059E+03  0.00000000000E+00 0.  1.
          3    1    3    3  501    0 -0.17544552299E+02  0.13542231390E+02 -0.40525641865E+03  0.40586200636E+03  0.00000000000E+00 0.  1.
         -3    1    1    2    0  502  0.25261499239E+02 -0.17936477339E+02 -0.39932740155E+03  0.40052744499E+03  0.00000000000E+00 0. -1.
<mgrwt>
<rscale>  1 0.30000000E+03</rscale>
<asrwt>0</asrwt>
<pdfrwt beam="1">  1       21 0.36515420E-02 0.30000000E+03</pdfrwt>
<pdfrwt beam="2">0</pdfrwt>
<totfact> 0.49007711E+04</totfact>
</mgrwt>
</event>
<event>
 6    1  0.1284012E-001  0.3000000E+03  0.7818608E-02  0.1093470E+00
         21   -1    0    0  501  502  0.00000000000E+00  0.00000000000E+00  0.37983075120E+01  0.37983075120E+01  0.00000000000E+00 0. -1.
         13   -1    0    0    0    0 -0.00000000000E+00 -0.00000000000E+00 -0.10000000000E+04  0.10000000000E+04  0.00000000000E+00 0.  1.
    9000005    2    1    2  501    0  0.41401044086E+02  0.45570759753E+02 -0.51037854665E+03  0.51408934330E+03  0.32941493687E+01 0.  0.
         13    1    3    3    0    0  0.18211116834E+02  0.18545150177E+02 -0.22605318015E+03  0.22754254026E+03  0.00000000000E+00 0.  1.
          1    1    3    3  501    0  0.23189927251E+02  0.27025609576E+02 -0.28432536650E+03  0.28654680304E+03  0.00000000000E+00 0.  1.
         -3    1    1    2    0  502 -0.41401044086E+02 -0.45570759753E+02 -0.48582314584E+03  0.48970896421E+03  0.00000000000E+00 0. -1.
<mgrwt>
<rscale>  1 0.30000000E+03</rscale>
<asrwt>0</asrwt>
<pdfrwt beam="1">  1       21 0.13812056E-01 0.30000000E+03</pdfrwt>
<pdfrwt beam="2">0</pdfrwt>
<totfact> 0.47941900E+03</totfact>
</mgrwt>
</event>
<event>
 6    1  0.1284012E-001  0.3000000E+03  0.7818608E-02  0.1093470E+00
         21   -1    0    0  501  502  0.00000000000E+00  0.00000000000E+00  0.16024625205E+01  0.16024625205E+01  0.00000000000E+00 0. -1.
         13   -1    0    0    0    0 -0.00000000000E+00 -0.00000000000E+00 -0.10000000000E+04  0.10000000000E+04  0.00000000000E+00 0.  1.
    9000005    2    1    2  501    0  0.34366587406E+02 -0.11616949974E+02 -0.70966262809E+03  0.71059754202E+03  0.34358634273E+01 0.  0.
         13    1    3    3    0    0  0.35675349046E+01 -0.19986328985E+01 -0.96384421688E+02  0.96471128235E+02  0.00000000000E+00 0.  1.
          3    1    3    3  501    0  0.30799052501E+02 -0.96183170755E+01 -0.61327820640E+03  0.61412641378E+03  0.00000000000E+00 0.  1.
         -3    1    1    2    0  502 -0.34366587406E+02  0.11616949974E+02 -0.28873490939E+03  0.29100492050E+03  0.00000000000E+00 0. -1.
<mgrwt>
<rscale>  1 0.30000000E+03</rscale>
<asrwt>0</asrwt>
<pdfrwt beam="1">  1       21 0.58271487E-02 0.30000000E+03</pdfrwt>
<pdfrwt beam="2">0</pdfrwt>
<totfact> 0.22160595E+04</totfact>
</mgrwt>
</event>
<event>
 6    1  0.1284012E-001  0.3000000E+03  0.7818608E-02  0.1093470E+00
         21   -1    0    0  501  502  0.00000000000E+00  0.00000000000E+00  0.22730846241E+01  0.22730846241E+01  0.00000000000E+00 0. -1.
         13   -1    0    0    0    0 -0.00000000000E+00 -0.00000000000E+00 -0.10000000000E+04  0.10000000000E+04  0.00000000000E+00 0.  1.
    9000005    2    1    2  501    0  0.37064032538E+02 -0.19851633672E+02 -0.73384744067E+03  0.73506491289E+03  0.45310181071E+01 0.  0.
         13    1    3    3    0    0  0.20174869627E+02 -0.13293769802E+02 -0.42742752418E+03  0.42810984350E+03  0.00000000000E+00 0.  1.
          1    1    3    3  501    0  0.16889162911E+02 -0.65578638694E+01 -0.30641991649E+03  0.30695506939E+03  0.00000000000E+00 0.  1.
         -3    1    1    2    0  502 -0.37064032538E+02  0.19851633672E+02 -0.26387947471E+03  0.26720817173E+03  0.00000000000E+00 0. -1.
<mgrwt>
<rscale>  1 0.30000000E+03</rscale>
<asrwt>0</asrwt>
<pdfrwt beam="1">  1       21 0.82657797E-02 0.30000000E+03</pdfrwt>
<pdfrwt beam="2">0</pdfrwt>
<totfact> 0.12060554E+04</totfact>
</mgrwt>
</event>
<event>
 6    1  0.1284012E-001  0.3000000E+03  0.7818608E-02  0.1093470E+00
         21   -1    0    0  501  502  0.00000000000E+00  0.00000000000E+00  0.38659877623E+01  0.38659877623E+01  0.00000000000E+00 0. -1.
         13   -1    0    0    0    0 -0.00000000000E+00 -0.00000000000E+00 -0.10000000000E+04  0.10000000000E+04  0.00000000000E+00 0.  1.
    9000005    2    1    2  501    0 -0.27400886986E+00 -0.42539708076E+02 -0.86397752331E+03  0.86503141206E+03  0.35328778758E+01 0.  0.
         13    1    3    3    0    0 -0.24150602495E+00 -0.25202647339E+02 -0.54647289589E+03  0.54705379782E+03  0.00000000000E+00 0.  1.
          1    1    3    3  501    0 -0.32502844904E-01 -0.17337060737E+02 -0.31750462741E+03  0.31797761424E+03  0.00000000000E+00 0.  1.
         -3    1    1    2    0  502  0.27400886986E+00  0.42539708076E+02 -0.13215648893E+03  0.13883457570E+03  0.00000000000E+00 0. -1.
<mgrwt>
<rscale>  1 0.30000000E+03</rscale>
<asrwt>0</asrwt>
<pdfrwt beam="1">  1       21 0.14058167E-01 0.30000000E+03</pdfrwt>
<pdfrwt beam="2">0</pdfrwt>
<totfact> 0.46411787E+03</totfact>
</mgrwt>
</event>
<event>
 6    1  0.1284012E-001  0.3000000E+03  0.7818608E-02  0.1093470E+00
         21   -1    0    0  501  502  0.00000000000E+00  0.00000000000E+00  0.11656800257E+01  0.11656800257E+01  0.00000000000E+00 0. -1.
         13   -1    0    0    0    0 -0.00000000000E+00 -0.00000000000E+00 -0.10000000000E+04  0.10000000000E+04  0.00000000000E+00 0.  1.
    9000005    2    1    2  501    0 -0.13228558403E+02  0.29930515838E+02 -0.63374530627E+03  0.63461306653E+03  0.54589789191E+01 0.  0.
         13    1    3    3    0    0 -0.29696958615E+01  0.25136146403E+01 -0.79946514164E+02  0.80041129921E+02  0.00000000000E+00 0.  1.
          1    1    3    3  501    0 -0.10258862541E+02  0.27416901198E+02 -0.55379879211E+03  0.55457193661E+03  0.00000000000E+00 0.  1.
         -1    1    1    2    0  502  0.13228558403E+02 -0.29930515838E+02 -0.36508901370E+03  0.36655261350E+03  0.00000000000E+00 0. -1.
<mgrwt>
<rscale>  1 0.30000000E+03</rscale>
<asrwt>0</asrwt>
<pdfrwt beam="1">  1       21 0.42388454E-02 0.30000000E+03</pdfrwt>
<pdfrwt beam="2">0</pdfrwt>
<totfact> 0.38128892E+04</totfact>
</mgrwt>
</event>
<event>
 6    1  0.1284012E-001  0.3000000E+03  0.7818608E-02  0.1093470E+00
         21   -1    0    0  501  502  0.00000000000E+00  0.00000000000E+00  0.11124326239E+01  0.11124326239E+01  0.00000000000E+00 0. -1.
         13   -1    0    0    0    0 -0.00000000000E+00 -0.00000000000E+00 -0.10000000000E+04  0.10000000000E+04  0.00000000000E+00 0.  1.
    9000005    2    1    2  501    0 -0.26109482130E+02 -0.18849147931E+02 -0.62266742593E+03  0.62351662986E+03  0.46118286352E+01 0.  0.
         13    1    3    3    0    0 -0.12721486772E+02 -0.11684096410E+02 -0.35214666207E+03  0.35257002984E+03  0.00000000000E+00 0.  1.
          3    1    3    3  501    0 -0.13387995359E+02 -0.71650515208E+01 -0.27052076386E+03  0.27094660002E+03  0.00000000000E+00 0.  1.
         -1    1    1    2    0  502  0.26109482130E+02  0.18849147931E+02 -0.37622014144E+03  0.37759580276E+03  0.00000000000E+00 0. -1.
<mgrwt>
<rscale>  1 0.30000000E+03</rscale>
<asrwt>0</asrwt>
<pdfrwt beam="1">  1       21 0.40452181E-02 0.30000000E+03</pdfrwt>
<pdfrwt beam="2">0</pdfrwt>
<totfact> 0.41258614E+04</totfact>
</mgrwt>
</event>
<event>
 6    1  0.1284012E-001  0.3000000E+03  0.7818608E-02  0.1093470E+00
         21   -1    0    0  501  502  0.00000000000E+00  0.00000000000E+00  0.14713463595E+01  0.14713463595E+01  0.00000000000E+00 0. -1.
         13   -1    0    0    0    0 -0.00000000000E+00 -0.00000000000E+00 -0.10000000000E+04  0.10000000000E+04  0.00000000000E+00 0.  1.
    9000005    2    1    2  501    0 -0.77501419876E+00 -0.38117284769E+02 -0.47143200421E+03  0.47299768961E+03  0.50151501129E+01 0.  0.
         13    1    3    3    0    0  0.29661464306E+00 -0.26570959432E+02 -0.35331353708E+03  0.35431138755E+03  0.00000000000E+00 0.  1.
          3    1    3    3  501    0 -0.10716288418E+01 -0.11546325338E+02 -0.11811846714E+03  0.11868630206E+03  0.00000000000E+00 0.  1.
         -3    1    1    2    0  502  0.77501419876E+00  0.38117284769E+02 -0.52709664943E+03  0.52847365675E+03  0.00000000000E+00 0. -1.
<mgrwt>
<rscale>  1 0.30000000E+03</rscale>
<asrwt>0</asrwt>
<pdfrwt beam="1">  1       21 0.53503617E-02 0.30000000E+03</pdfrwt>
<pdfrwt beam="2">0</pdfrwt>
<totfact> 0.25658335E+04</totfact>
</mgrwt>
</event>
<event>
 6    1  0.1284012E-001  0.3000000E+03  0.7818608E-02  0.1093470E+00
         21   -1    0    0  501  502  0.00000000000E+00  0.00000000000E+00  0.12326339615E+01  0.12326339615E+01  0.00000000000E+00 0. -1.
         13   -1    0    0    0    0 -0.00000000000E+00 -0.00000000000E+00 -0.10000000000E+04  0.10000000000E+04  0.00000000000E+00 0.  1.
    9000005    2    1    2  501    0 -0.22504710021E+02  0.25998677837E+02 -0.59551994938E+03  0.59652178377E+03  0.34402293606E+01 0.  0.
         13    1    3    3    0    0 -0.85473708830E+00  0.21985074165E+01 -0.35340102625E+02  0.35418736057E+02  0.00000000000E+00 0.  1.
          3    1    3    3  501    0 -0.21649972933E+02  0.23800170420E+02 -0.56017984676E+03  0.56110304771E+03  0.00000000000E+00 0.  1.
         -1    1    1    2    0  502  0.22504710021E+02 -0.25998677837E+02 -0.40324741666E+03  0.40471085019E+03  0.00000000000E+00 0. -1.
<mgrwt>
<rscale>  1 0.30000000E+03</rscale>
<asrwt>0</asrwt>
<pdfrwt beam="1">  1       21 0.44823148E-02 0.30000000E+03</pdfrwt>
<pdfrwt beam="2">0</pdfrwt>
<totfact> 0.34689175E+04</totfact>
</mgrwt>
</event>
<event>
 6    1  0.1284012E-001  0.3000000E+03  0.7818608E-02  0.1093470E+00
         21   -1    0    0  501  502  0.00000000000E+00  0.00000000000E+00  0.92804181333E+00  0.92804181333E+00  0.00000000000E+00 0. -1.
         13   -1    0    0    0    0 -0.00000000000E+00 -0.00000000000E+00 -0.10000000000E+04  0.10000000000E+04  0.00000000000E+00 0.  1.
    9000005    2    1    2  501    0 -0.29276643427E+02  0.68210958084E+01 -0.44398985679E+03  0.44503255839E+03  0.48307243046E+01 0.  0.
         13    1    3    3    0    0 -0.28174817631E+02  0.63808496856E+01 -0.40713223560E+03  0.40815584384E+03  0.00000000000E+00 0.  1.
          1    1    3    3  501    0 -0.11018257962E+01  0.44024612280E+00 -0.36857621183E+02  0.36876714550E+02  0.00000000000E+00 0.  1.
         -3    1    1    2    0  502  0.29276643427E+02 -0.68210958084E+01 -0.55508210140E+03  0.55589548342E+03  0.00000000000E+00 0. -1.
<mgrwt>
<rscale>  1 0.30000000E+03</rscale>
<asrwt>0</asrwt>
<pdfrwt beam="1">  1       21 0.33747046E-02 0.30000000E+03</pdfrwt>
<pdfrwt beam="2">0</pdfrwt>
<totfact> 0.55924411E+04</totfact>
</mgrwt>
</event>
<event>
 6    1  0.1284012E-001  0.3000000E+03  0.7818608E-02  0.1093470E+00
         21   -1    0    0  501  502  0.00000000000E+00  0.00000000000E+00  0.17633930756E+01  0.17633930756E+01  0.00000000000E+00 0. -1.
         13   -1    0    0    0    0 -0.00000000000E+00 -0.00000000000E+00 -0.10000000000E+04  0.10000000000E+04  0.00000000000E+00 0.  1.
    9000005    2    1    2  501    0  0.11525415352E+02  0.39251292906E+02 -0.60994455396E+03  0.61132233787E+03  0.30236866500E+01 0.  0.
         13    1    3    3    0    0  0.68316192057E+01  0.28020951480E+02 -0.43386687741E+03  0.43482446120E+03  0.00000000000E+00 0.  1.
          1    1    3    3  501    0  0.46937961464E+01  0.11230341427E+02 -0.17607767655E+03  0.17649787667E+03  0.00000000000E+00 0.  1.
         -3    1    1    2    0  502 -0.11525415352E+02 -0.39251292906E+02 -0.38829205297E+03  0.39044105521E+03  0.00000000000E+00 0. -1.
<mgrwt>
<rscale>  1 0.30000000E+03</rscale>
<asrwt>0</asrwt>
<pdfrwt beam="1">  1       21 0.64123520E-02 0.30000000E+03</pdfrwt>
<pdfrwt beam="2">0</pdfrwt>
<totfact> 0.18786308E+04</totfact>
</mgrwt>
</event>
<event>
 6    1  0.1284012E-001  0.3000000E+03  0.7818608E-02  0.1093470E+00
         21   -1    0    0  501  502  0.00000000000E+00  0.00000000000E+00  0.54647860856E+01  0.54647860856E+01  0.00000000000E+00 0. -1.
         13   -1    0    0    0    0 -0.00000000000E+00 -0.00000000000E+00 -0.10000000000E+04  0.10000000000E+04  0.00000000000E+00 0.  1.
    9000005    2    1    2  501    0  0.54400449555E+02 -0.14443643753E+02 -0.82291776785E+03  0.82485311550E+03  0.45805847404E+01 0.  0.
         13    1    3    3    0    0  0.14236920030E+02 -0.42054042113E+01 -0.24712819683E+03  0.24757366780E+03  0.00000000000E+00 0.  1.
          1    1    3    3  501    0  0.40163529526E+02 -0.10238239542E+02 -0.57578957102E+03  0.57727944771E+03  0.00000000000E+00 0.  1.
         -3    1    1    2    0  502 -0.54400449555E+02  0.14443643753E+02 -0.17161744607E+03  0.18061167058E+03  0.00000000000E+00 0. -1.
<mgrwt>
<rscale>  1 0.30000000E+03</rscale>
<asrwt>0</asrwt>
<pdfrwt beam="1">  1       21 0.19871991E-01 0.30000000E+03</pdfrwt>
<pdfrwt beam="2">0</pdfrwt>
<totfact> 0.24287978E+03</totfact>
</mgrwt>
</event>
<event>
 6    1  0.1284012E-001  0.3000000E+03  0.7818608E-02  0.1093470E+00
         21   -1    0    0  501  502  0.00000000000E+00  0.00000000000E+00  0.43921676580E+01  0.43921676580E+01  0.00000000000E+00 0. -1.
         13   -1    0    0    0    0 -0.00000000000E+00 -0.00000000000E+00 -0.10000000000E+04  0.10000000000E+04  0.00000000000E+00 0.  1.
    9000005    2    1    2  501    0  0.11811098776E+02  0.57947185998E+02 -0.72362397531E+03  0.72605317127E+03  0.49164480349E+01 0.  0.
         13    1    3    3    0    0  0.48912811948E+01  0.30398263784E+02 -0.35065337165E+03  0.35200250868E+03  0.00000000000E+00 0.  1.
          1    1    3    3  501    0  0.69198175811E+01  0.27548922214E+02 -0.37297060366E+03  0.37405066259E+03  0.00000000000E+00 0.  1.
         -1    1    1    2    0  502 -0.11811098776E+02 -0.57947185998E+02 -0.27198385704E+03  0.27833899638E+03  0.00000000000E+00 0. -1.
<mgrwt>
<rscale>  1 0.30000000E+03</rscale>
<asrwt>0</asrwt>
<pdfrwt beam="1">  1       21 0.15971552E-01 0.30000000E+03</pdfrwt>
<pdfrwt beam="2">0</pdfrwt>
<totfact> 0.36647994E+03</totfact>
</mgrwt>
</event>
<event>
 6    1  0.1284012E-001  0.3000000E+03  0.7818608E-02  0.1093470E+00
         21   -1    0    0  501  502  0.00000000000E+00  0.00000000000E+00  0.15412725956E+01  0.15412725956E+01  0.00000000000E+00 0. -1.
         13   -1    0    0    0    0 -0.00000000000E+00 -0.00000000000E+00 -0.10000000000E+04  0.10000000000E+04  0.00000000000E+00 0.  1.
    9000005    2    1    2  501    0 -0.31809963390E+02  0.12087655403E+02 -0.25217946532E+03  0.25448657433E+03  0.33088670044E+01 0.  0.
         13    1    3    3    0    0 -0.20372351986E+02  0.73675100895E+01 -0.14863698166E+03  0.15020740743E+03  0.00000000000E+00 0.  1.
          3    1    3    3  501    0 -0.11437611404E+02  0.47201453137E+01 -0.10354248366E+03  0.10427916690E+03  0.00000000000E+00 0.  1.
         -1    1    1    2    0  502  0.31809963390E+02 -0.12087655403E+02 -0.74627926209E+03  0.74705469827E+03  0.00000000000E+00 0. -1.
<mgrwt>
<rscale>  1 0.30000000E+03</rscale>
<asrwt>0</asrwt>
<pdfrwt beam="1">  1       21 0.56046394E-02 0.30000000E+03</pdfrwt>
<pdfrwt beam="2">0</pdfrwt>
<totfact> 0.23695343E+04</totfact>
</mgrwt>
</event>
<event>
 6    1  0.1284012E-001  0.3000000E+03  0.7818608E-02  0.1093470E+00
         21   -1    0    0  501  502  0.00000000000E+00  0.00000000000E+00  0.90009698844E+01  0.90009698844E+01  0.00000000000E+00 0. -1.
         13   -1    0    0    0    0 -0.00000000000E+00 -0.00000000000E+00 -0.10000000000E+04  0.10000000000E+04  0.00000000000E+00 0.  1.
    9000005    2    1    2  501    0 -0.46486440422E+02 -0.34408314287E+02 -0.89537658769E+03  0.89724868700E+03  0.33243493260E+01 0.  0.
         13    1    3    3    0    0 -0.54990764908E+01 -0.48962074451E+01 -0.10087705081E+03  0.10114540064E+03  0.00000000000E+00 0.  1.
          3    1    3    3  501    0 -0.40987363932E+02 -0.29512106842E+02 -0.79449953688E+03  0.79610328636E+03  0.00000000000E+00 0.  1.
         -1    1    1    2    0  502  0.46486440422E+02  0.34408314287E+02 -0.95622442426E+02  0.11175228289E+03  0.00000000000E+00 0. -1.
<mgrwt>
<rscale>  1 0.30000000E+03</rscale>
<asrwt>0</asrwt>
<pdfrwt beam="1">  1       21 0.32730869E-01 0.30000000E+03</pdfrwt>
<pdfrwt beam="2">0</pdfrwt>
<totfact> 0.91226778E+02</totfact>
</mgrwt>
</event>
<event>
 6    1  0.1284012E-001  0.3000000E+03  0.7818608E-02  0.1093470E+00
         21   -1    0    0  501  502  0.00000000000E+00  0.00000000000E+00  0.29039274977E+01  0.29039274977E+01  0.00000000000E+00 0. -1.
         13   -1    0    0    0    0 -0.00000000000E+00 -0.00000000000E+00 -0.10000000000E+04  0.10000000000E+04  0.00000000000E+00 0.  1.
    9000005    2    1    2  501    0 -0.40142102162E+02 -0.10833196509E+02 -0.81596461183E+03  0.81706164878E+03  0.79210883636E+01 0.  0.
         13    1    3    3    0    0 -0.40008273755E+00 -0.11394099192E+01 -0.13090701462E+02  0.13146284111E+02  0.00000000000E+00 0.  1.
          1    1    3    3  501    0 -0.39742019424E+02 -0.96937865898E+01 -0.80287391036E+03  0.80391536467E+03  0.00000000000E+00 0.  1.
         -1    1    1    2    0  502  0.40142102162E+02  0.10833196509E+02 -0.18113146068E+03  0.18584227872E+03  0.00000000000E+00 0. -1.
<mgrwt>
<rscale>  1 0.30000000E+03</rscale>
<asrwt>0</asrwt>
<pdfrwt beam="1">  1       21 0.10559759E-01 0.30000000E+03</pdfrwt>
<pdfrwt beam="2">0</pdfrwt>
<totfact> 0.78040558E+03</totfact>
</mgrwt>
</event>
<event>
 6    1  0.1284012E-001  0.3000000E+03  0.7818608E-02  0.1093470E+00
         21   -1    0    0  501  502  0.00000000000E+00  0.00000000000E+00  0.21625610634E+01  0.21625610634E+01  0.00000000000E+00 0. -1.
         13   -1    0    0    0    0 -0.00000000000E+00 -0.00000000000E+00 -0.10000000000E+04  0.10000000000E+04  0.00000000000E+00 0.  1.
    9000005    2    1    2  501    0  0.23947099443E+02  0.35881093850E+02 -0.68509789742E+03  0.68646185264E+03  0.31352225550E+01 0.  0.
         13    1    3    3    0    0  0.15382768116E+02  0.20731969573E+02 -0.42250084740E+03  0.42328880233E+03  0.00000000000E+00 0.  1.
          1    1    3    3  501    0  0.85643313261E+01  0.15149124278E+02 -0.26259705001E+03  0.26317305032E+03  0.00000000000E+00 0.  1.
         -3    1    1    2    0  502 -0.23947099443E+02 -0.35881093850E+02 -0.31273954152E+03  0.31570070842E+03  0.00000000000E+00 0. -1.
<mgrwt>
<rscale>  1 0.30000000E+03</rscale>
<asrwt>0</asrwt>
<pdfrwt beam="1">  1       21 0.78638750E-02 0.30000000E+03</pdfrwt>
<pdfrwt beam="2">0</pdfrwt>
<totfact> 0.13164604E+04</totfact>
</mgrwt>
</event>
<event>
 6    1  0.1284012E-001  0.3000000E+03  0.7818608E-02  0.1093470E+00
         21   -1    0    0  501  502  0.00000000000E+00  0.00000000000E+00  0.14934809730E+01  0.14934809730E+01  0.00000000000E+00 0. -1.
         13   -1    0    0    0    0 -0.00000000000E+00 -0.00000000000E+00 -0.10000000000E+04  0.10000000000E+04  0.00000000000E+00 0.  1.
    9000005    2    1    2  501    0 -0.56778918932E+01 -0.34287902095E+02 -0.71671554739E+03  0.71756734554E+03  0.37176372815E+01 0.  0.
         13    1    3    3    0    0 -0.61132794610E+01 -0.33322928030E+02 -0.69836567996E+03  0.69918696545E+03  0.00000000000E+00 0.  1.
          1    1    3    3  501    0  0.43538756780E+00 -0.96497406424E+00 -0.18349867433E+02  0.18380380086E+02  0.00000000000E+00 0.  1.
         -3    1    1    2    0  502  0.56778918932E+01  0.34287902095E+02 -0.28179097164E+03  0.28392613543E+03  0.00000000000E+00 0. -1.
<mgrwt>
<rscale>  1 0.30000000E+03</rscale>
<asrwt>0</asrwt>
<pdfrwt beam="1">  1       21 0.54308514E-02 0.30000000E+03</pdfrwt>
<pdfrwt beam="2">0</pdfrwt>
<totfact> 0.25010653E+04</totfact>
</mgrwt>
</event>
<event>
 6    1  0.1284012E-001  0.3000000E+03  0.7818608E-02  0.1093470E+00
         21   -1    0    0  501  502  0.00000000000E+00  0.00000000000E+00  0.31490326100E+01  0.31490326100E+01  0.00000000000E+00 0. -1.
         13   -1    0    0    0    0 -0.00000000000E+00 -0.00000000000E+00 -0.10000000000E+04  0.10000000000E+04  0.00000000000E+00 0.  1.
    9000005    2    1    2  501    0  0.29663953691E+02  0.10451980853E+02 -0.91370798858E+03  0.91425612525E+03  0.35749296764E+01 0.  0.
         13    1    3    3    0    0  0.27558663691E+01  0.19848012942E+01 -0.11506961850E+03  0.11511972610E+03  0.00000000000E+00 0.  1.
          3    1    3    3  501    0  0.26908087322E+02  0.84671795587E+01 -0.79863837008E+03  0.79913639916E+03  0.00000000000E+00 0.  1.
         -1    1    1    2    0  502 -0.29663953691E+02 -0.10451980853E+02 -0.83142978814E+02  0.88892907357E+02  0.00000000000E+00 0. -1.
<mgrwt>
<rscale>  1 0.30000000E+03</rscale>
<asrwt>0</asrwt>
<pdfrwt beam="1">  1       21 0.11451052E-01 0.30000000E+03</pdfrwt>
<pdfrwt beam="2">0</pdfrwt>
<totfact> 0.67453213E+03</totfact>
</mgrwt>
</event>
<event>
 6    1  0.1284012E-001  0.3000000E+03  0.7818608E-02  0.1093470E+00
         21   -1    0    0  501  502  0.00000000000E+00  0.00000000000E+00  0.11893800273E+02  0.11893800273E+02  0.00000000000E+00 0. -1.
         13   -1    0    0    0    0 -0.00000000000E+00 -0.00000000000E+00 -0.10000000000E+04  0.10000000000E+04  0.00000000000E+00 0.  1.
    9000005    2    1    2  501    0  0.26731711301E+02 -0.10558799462E+03 -0.51736211983E+03  0.52871329802E+03  0.32832105040E+01 0.  0.
         13    1    3    3    0    0  0.16770807217E+02 -0.61872456896E+02 -0.31027467262E+03  0.31682776609E+03  0.00000000000E+00 0.  1.
          3    1    3    3  501    0  0.99609040839E+01 -0.43715537728E+02 -0.20708744722E+03  0.21188553193E+03  0.00000000000E+00 0.  1.
         -1    1    1    2    0  502 -0.26731711301E+02  0.10558799462E+03 -0.47074407990E+03  0.48318050225E+03  0.00000000000E+00 0. -1.
<mgrwt>
<rscale>  1 0.30000000E+03</rscale>
<asrwt>0</asrwt>
<pdfrwt beam="1">  1       21 0.43250274E-01 0.30000000E+03</pdfrwt>
<pdfrwt beam="2">0</pdfrwt>
<totfact> 0.51246757E+02</totfact>
</mgrwt>
</event>
<event>
 6    1  0.1284012E-001  0.3000000E+03  0.7818608E-02  0.1093470E+00
         21   -1    0    0  501  502  0.00000000000E+00  0.00000000000E+00  0.40601394762E+01  0.40601394762E+01  0.00000000000E+00 0. -1.
         13   -1    0    0    0    0 -0.00000000000E+00 -0.00000000000E+00 -0.10000000000E+04  0.10000000000E+04  0.00000000000E+00 0.  1.
    9000005    2    1    2  501    0 -0.55988077551E+02 -0.30185865548E+02 -0.52191856969E+03  0.52579030406E+03  0.32556332487E+01 0.  0.
         13    1    3    3    0    0 -0.99480150078E+01 -0.49642889505E+01 -0.10141898548E+03  0.10202655430E+03  0.00000000000E+00 0.  1.
          1    1    3    3  501    0 -0.46040062543E+02 -0.25221576597E+02 -0.42049958421E+03  0.42376374976E+03  0.00000000000E+00 0.  1.
         -1    1    1    2    0  502  0.55988077551E+02  0.30185865548E+02 -0.47402129083E+03  0.47826983542E+03  0.00000000000E+00 0. -1.
<mgrwt>
<rscale>  1 0.30000000E+03</rscale>
<asrwt>0</asrwt>
<pdfrwt beam="1">  1       21 0.14764175E-01 0.30000000E+03</pdfrwt>
<pdfrwt beam="2">0</pdfrwt>
<totfact> 0.42404921E+03</totfact>
</mgrwt>
</event>
<event>
 6    1  0.1284012E-001  0.3000000E+03  0.7818608E-02  0.1093470E+00
         21   -1    0    0  501  502  0.00000000000E+00  0.00000000000E+00  0.17827639975E+01  0.17827639975E+01  0.00000000000E+00 0. -1.
         13   -1    0    0    0    0 -0.00000000000E+00 -0.00000000000E+00 -0.10000000000E+04  0.10000000000E+04  0.00000000000E+00 0.  1.
    9000005    2    1    2  501    0  0.10496047641E+02  0.40688526823E+02 -0.53816723678E+03  0.53981769495E+03  0.36668531229E+01 0.  0.
         13    1    3    3    0    0  0.66377010530E+01  0.18812730372E+02 -0.26237915897E+03  0.26313646832E+03  0.00000000000E+00 0.  1.
          3    1    3    3  501    0  0.38583465879E+01  0.21875796451E+02 -0.27578807781E+03  0.27668122663E+03  0.00000000000E+00 0.  1.
         -1    1    1    2    0  502 -0.10496047641E+02 -0.40688526823E+02 -0.46004999922E+03  0.46196506904E+03  0.00000000000E+00 0. -1.
<mgrwt>
<rscale>  1 0.30000000E+03</rscale>
<asrwt>0</asrwt>
<pdfrwt beam="1">  1       21 0.64827918E-02 0.30000000E+03</pdfrwt>
<pdfrwt beam="2">0</pdfrwt>
<totfact> 0.18434455E+04</totfact>
</mgrwt>
</event>
<event>
 6    1  0.1284012E-001  0.3000000E+03  0.7818608E-02  0.1093470E+00
         21   -1    0    0  501  502  0.00000000000E+00  0.00000000000E+00  0.52117816426E+01  0.52117816426E+01  0.00000000000E+00 0. -1.
         13   -1    0    0    0    0 -0.00000000000E+00 -0.00000000000E+00 -0.10000000000E+04  0.10000000000E+04  0.00000000000E+00 0.  1.
    9000005    2    1    2  501    0  0.54578989329E+02 -0.21613262740E+02 -0.78973536416E+03  0.79192166885E+03  0.34619329423E+01 0.  0.
         13    1    3    3    0    0  0.44396654519E+02 -0.18270288981E+02 -0.62912721022E+03  0.63095634796E+03  0.00000000000E+00 0.  1.
          1    1    3    3  501    0  0.10182334810E+02 -0.33429737597E+01 -0.16060815394E+03  0.16096532089E+03  0.00000000000E+00 0.  1.
         -3    1    1    2    0  502 -0.54578989329E+02  0.21613262740E+02 -0.20505285419E+03  0.21329011279E+03  0.00000000000E+00 0. -1.
<mgrwt>
<rscale>  1 0.30000000E+03</rscale>
<asrwt>0</asrwt>
<pdfrwt beam="1">  1       21 0.18951973E-01 0.30000000E+03</pdfrwt>
<pdfrwt beam="2">0</pdfrwt>
<totfact> 0.26578060E+03</totfact>
</mgrwt>
</event>
<event>
 6    1  0.1284012E-001  0.3000000E+03  0.7818608E-02  0.1093470E+00
         21   -1    0    0  501  502  0.00000000000E+00  0.00000000000E+00  0.80251576598E+01  0.80251576598E+01  0.00000000000E+00 0. -1.
         13   -1    0    0    0    0 -0.00000000000E+00 -0.00000000000E+00 -0.10000000000E+04  0.10000000000E+04  0.00000000000E+00 0.  1.
    9000005    2    1    2  501    0 -0.21983556629E+02  0.70133180866E+02 -0.78394817819E+03  0.78739643601E+03  0.40572810163E+01 0.  0.
         13    1    3    3    0    0 -0.20408290414E+02  0.62414356341E+02 -0.68912564044E+03  0.69224720910E+03  0.00000000000E+00 0.  1.
          1    1    3    3  501    0 -0.15752662155E+01  0.77188245255E+01 -0.94822537755E+02  0.95149226912E+02  0.00000000000E+00 0.  1.
         -1    1    1    2    0  502  0.21983556629E+02 -0.70133180866E+02 -0.20802666415E+03  0.22062872165E+03  0.00000000000E+00 0. -1.
<mgrwt>
<rscale>  1 0.30000000E+03</rscale>
<asrwt>0</asrwt>
<pdfrwt beam="1">  1       21 0.29182453E-01 0.30000000E+03</pdfrwt>
<pdfrwt beam="2">0</pdfrwt>
<totfact> 0.11489449E+03</totfact>
</mgrwt>
</event>
<event>
 6    1  0.1284012E-001  0.3000000E+03  0.7818608E-02  0.1093470E+00
         21   -1    0    0  501  502  0.00000000000E+00  0.00000000000E+00  0.47307592493E+01  0.47307592493E+01  0.00000000000E+00 0. -1.
         13   -1    0    0    0    0 -0.00000000000E+00 -0.00000000000E+00 -0.10000000000E+04  0.10000000000E+04  0.00000000000E+00 0.  1.
    9000005    2    1    2  501    0 -0.55995794310E+02  0.94004721928E+01 -0.78090464671E+03  0.78297396220E+03  0.35014821625E+01 0.  0.
         13    1    3    3    0    0 -0.32672131756E+02  0.71776478660E+01 -0.46511712421E+03  0.46631848136E+03  0.00000000000E+00 0.  1.
          3    1    3    3  501    0 -0.23323662554E+02  0.22228243268E+01 -0.31578752250E+03  0.31665548084E+03  0.00000000000E+00 0.  1.
         -3    1    1    2    0  502  0.55995794310E+02 -0.94004721928E+01 -0.21436459404E+03  0.22175679705E+03  0.00000000000E+00 0. -1.
<mgrwt>
<rscale>  1 0.30000000E+03</rscale>
<asrwt>0</asrwt>
<pdfrwt beam="1">  1       21 0.17202797E-01 0.30000000E+03</pdfrwt>
<pdfrwt beam="2">0</pdfrwt>
<totfact> 0.31898413E+03</totfact>
</mgrwt>
</event>
<event>
 6    1  0.1284012E-001  0.3000000E+03  0.7818608E-02  0.1093470E+00
         21   -1    0    0  501  502  0.00000000000E+00  0.00000000000E+00  0.11590506986E+01  0.11590506986E+01  0.00000000000E+00 0. -1.
         13   -1    0    0    0    0 -0.00000000000E+00 -0.00000000000E+00 -0.10000000000E+04  0.10000000000E+04  0.00000000000E+00 0.  1.
    9000005    2    1    2  501    0 -0.10471879626E+02 -0.30102596248E+02 -0.67333861915E+03  0.67410004456E+03  0.31855094377E+01 0.  0.
         13    1    3    3    0    0 -0.29211481981E+01 -0.88722329050E+01 -0.22905393723E+03  0.22924431462E+03  0.00000000000E+00 0.  1.
          3    1    3    3  501    0 -0.75507314283E+01 -0.21230363343E+02 -0.44428468192E+03  0.44485572994E+03  0.00000000000E+00 0.  1.
         -3    1    1    2    0  502  0.10471879626E+02  0.30102596248E+02 -0.32550233015E+03  0.32705900614E+03  0.00000000000E+00 0. -1.
<mgrwt>
<rscale>  1 0.30000000E+03</rscale>
<asrwt>0</asrwt>
<pdfrwt beam="1">  1       21 0.42147387E-02 0.30000000E+03</pdfrwt>
<pdfrwt beam="2">0</pdfrwt>
<totfact> 0.38498026E+04</totfact>
</mgrwt>
</event>
<event>
 6    1  0.1284012E-001  0.3000000E+03  0.7818608E-02  0.1093470E+00
         21   -1    0    0  501  502  0.00000000000E+00  0.00000000000E+00  0.25614726056E+01  0.25614726056E+01  0.00000000000E+00 0. -1.
         13   -1    0    0    0    0 -0.00000000000E+00 -0.00000000000E+00 -0.10000000000E+04  0.10000000000E+04  0.00000000000E+00 0.  1.
    9000005    2    1    2  501    0 -0.15777930793E+02 -0.46713228532E+02 -0.38930473470E+03  0.39243215956E+03  0.37087164272E+01 0.  0.
         13    1    3    3    0    0 -0.12694974351E+02 -0.41323754072E+02 -0.34246935325E+03  0.34518701155E+03  0.00000000000E+00 0.  1.
          3    1    3    3  501    0 -0.30829564423E+01 -0.53894744599E+01 -0.46835381445E+02  0.47245148010E+02  0.00000000000E+00 0.  1.
         -3    1    1    2    0  502  0.15777930793E+02  0.46713228532E+02 -0.60813379270E+03  0.61012931305E+03  0.00000000000E+00 0. -1.
<mgrwt>
<rscale>  1 0.30000000E+03</rscale>
<asrwt>0</asrwt>
<pdfrwt beam="1">  1       21 0.93144655E-02 0.30000000E+03</pdfrwt>
<pdfrwt beam="2">0</pdfrwt>
<totfact> 0.97644788E+03</totfact>
</mgrwt>
</event>
<event>
 6    1  0.1284012E-001  0.3000000E+03  0.7818608E-02  0.1093470E+00
         21   -1    0    0  501  502  0.00000000000E+00  0.00000000000E+00  0.12095166178E+01  0.12095166178E+01  0.00000000000E+00 0. -1.
         13   -1    0    0    0    0 -0.00000000000E+00 -0.00000000000E+00 -0.10000000000E+04  0.10000000000E+04  0.00000000000E+00 0.  1.
    9000005    2    1    2  501    0 -0.34014961910E+02  0.61275307115E+01 -0.45372287150E+03  0.45504720943E+03  0.29923944130E+01 0.  0.
         13    1    3    3    0    0 -0.45589586104E+00  0.47761708093E+00 -0.88202500073E+01  0.88449290163E+01  0.00000000000E+00 0.  1.
          3    1    3    3  501    0 -0.33559066049E+02  0.56499136305E+01 -0.44490262149E+03  0.44620228042E+03  0.00000000000E+00 0.  1.
         -3    1    1    2    0  502  0.34014961910E+02 -0.61275307115E+01 -0.54506761188E+03  0.54616230718E+03  0.00000000000E+00 0. -1.
<mgrwt>
<rscale>  1 0.30000000E+03</rscale>
<asrwt>0</asrwt>
<pdfrwt beam="1">  1       21 0.43982515E-02 0.30000000E+03</pdfrwt>
<pdfrwt beam="2">0</pdfrwt>
<totfact> 0.35820513E+04</totfact>
</mgrwt>
</event>
<event>
 6    1  0.1284012E-001  0.3000000E+03  0.7818608E-02  0.1093470E+00
         21   -1    0    0  501  502  0.00000000000E+00  0.00000000000E+00  0.98735729557E+00  0.98735729557E+00  0.00000000000E+00 0. -1.
         13   -1    0    0    0    0 -0.00000000000E+00 -0.00000000000E+00 -0.10000000000E+04  0.10000000000E+04  0.00000000000E+00 0.  1.
    9000005    2    1    2  501    0 -0.30210975798E+02  0.80378145321E+01 -0.54113805032E+03  0.54204678176E+03  0.26485074733E+01 0.  0.
         13    1    3    3    0    0 -0.24354384198E+01  0.13867221099E+01 -0.44481749956E+02  0.44569949940E+02  0.00000000000E+00 0.  1.
          1    1    3    3  501    0 -0.27775537378E+02  0.66510924222E+01 -0.49665630037E+03  0.49747683182E+03  0.00000000000E+00 0.  1.
         -1    1    1    2    0  502  0.30210975798E+02 -0.80378145321E+01 -0.45787459238E+03  0.45894057553E+03  0.00000000000E+00 0. -1.
<mgrwt>
<rscale>  1 0.30000000E+03</rscale>
<asrwt>0</asrwt>
<pdfrwt beam="1">  1       21 0.35903977E-02 0.30000000E+03</pdfrwt>
<pdfrwt beam="2">0</pdfrwt>
<totfact> 0.50415604E+04</totfact>
</mgrwt>
</event>
<event>
 6    1  0.1284012E-001  0.3000000E+03  0.7818608E-02  0.1093470E+00
         21   -1    0    0  501  502  0.00000000000E+00  0.00000000000E+00  0.30991080487E+01  0.30991080487E+01  0.00000000000E+00 0. -1.
         13   -1    0    0    0    0 -0.00000000000E+00 -0.00000000000E+00 -0.10000000000E+04  0.10000000000E+04  0.00000000000E+00 0.  1.
    9000005    2    1    2  501    0  0.13098751424E+02 -0.39578595649E+02 -0.83058693213E+03  0.83163956252E+03  0.34157863237E+01 0.  0.
         13    1    3    3    0    0  0.35963883133E+01 -0.12049044953E+02 -0.28180526578E+03  0.28208566308E+03  0.00000000000E+00 0.  1.
          3    1    3    3  501    0  0.95023631111E+01 -0.27529550696E+02 -0.54878166635E+03  0.54955389944E+03  0.00000000000E+00 0.  1.
         -3    1    1    2    0  502 -0.13098751424E+02  0.39578595649E+02 -0.16631395982E+03  0.17145954553E+03  0.00000000000E+00 0. -1.
<mgrwt>
<rscale>  1 0.30000000E+03</rscale>
<asrwt>0</asrwt>
<pdfrwt beam="1">  1       21 0.11269508E-01 0.30000000E+03</pdfrwt>
<pdfrwt beam="2">0</pdfrwt>
<totfact> 0.69426620E+03</totfact>
</mgrwt>
</event>
<event>
 6    1  0.1284012E-001  0.3000000E+03  0.7818608E-02  0.1093470E+00
         21   -1    0    0  501  502  0.00000000000E+00  0.00000000000E+00  0.44554583170E+01  0.44554583170E+01  0.00000000000E+00 0. -1.
         13   -1    0    0    0    0 -0.00000000000E+00 -0.00000000000E+00 -0.10000000000E+04  0.10000000000E+04  0.00000000000E+00 0.  1.
    9000005    2    1    2  501    0 -0.19584792165E+02  0.28757079064E+02 -0.92631818172E+03  0.92697757377E+03  0.33933469523E+01 0.  0.
         13    1    3    3    0    0 -0.36261225485E+01  0.44012049242E+01 -0.12372524624E+03  0.12385659420E+03  0.00000000000E+00 0.  1.
          1    1    3    3  501    0 -0.15958669617E+02  0.24355874140E+02 -0.80259293548E+03  0.80312097957E+03  0.00000000000E+00 0.  1.
         -1    1    1    2    0  502  0.19584792165E+02 -0.28757079064E+02 -0.69226359964E+02  0.77477884550E+02  0.00000000000E+00 0. -1.
<mgrwt>
<rscale>  1 0.30000000E+03</rscale>
<asrwt>0</asrwt>
<pdfrwt beam="1">  1       21 0.16201701E-01 0.30000000E+03</pdfrwt>
<pdfrwt beam="2">0</pdfrwt>
<totfact> 0.35683242E+03</totfact>
</mgrwt>
</event>
<event>
 6    1  0.1284012E-001  0.3000000E+03  0.7818608E-02  0.1093470E+00
         21   -1    0    0  501  502  0.00000000000E+00  0.00000000000E+00  0.10966607328E+02  0.10966607328E+02  0.00000000000E+00 0. -1.
         13   -1    0    0    0    0 -0.00000000000E+00 -0.00000000000E+00 -0.10000000000E+04  0.10000000000E+04  0.00000000000E+00 0.  1.
    9000005    2    1    2  501    0  0.16549359559E+02 -0.69611073968E+02 -0.86353340375E+03  0.86650266671E+03  0.41652245671E+01 0.  0.
         13    1    3    3    0    0  0.76810469156E+01 -0.27301983375E+02 -0.32204552386E+03  0.32329199838E+03  0.00000000000E+00 0.  1.
          3    1    3    3  501    0  0.88683126430E+01 -0.42309090593E+02 -0.54148787989E+03  0.54321066833E+03  0.00000000000E+00 0.  1.
         -1    1    1    2    0  502 -0.16549359559E+02  0.69611073968E+02 -0.12549998892E+03  0.14446394062E+03  0.00000000000E+00 0. -1.
<mgrwt>
<rscale>  1 0.30000000E+03</rscale>
<asrwt>0</asrwt>
<pdfrwt beam="1">  1       21 0.39878656E-01 0.30000000E+03</pdfrwt>
<pdfrwt beam="2">0</pdfrwt>
<totfact> 0.60786123E+02</totfact>
</mgrwt>
</event>
<event>
 6    1  0.1284012E-001  0.3000000E+03  0.7818608E-02  0.1093470E+00
         21   -1    0    0  501  502  0.00000000000E+00  0.00000000000E+00  0.17086646232E+01  0.17086646232E+01  0.00000000000E+00 0. -1.
         13   -1    0    0    0    0 -0.00000000000E+00 -0.00000000000E+00 -0.10000000000E+04  0.10000000000E+04  0.00000000000E+00 0.  1.
    9000005    2    1    2  501    0  0.30893804101E+02 -0.11896554714E+01 -0.83116866543E+03  0.83175034849E+03  0.33836980142E+01 0.  0.
         13    1    3    3    0    0  0.19214948486E+02 -0.13567655341E+01 -0.55705445603E+03  0.55738740750E+03  0.00000000000E+00 0.  1.
          3    1    3    3  501    0  0.11678855614E+02  0.16711006277E+00 -0.27411420940E+03  0.27436294099E+03  0.00000000000E+00 0.  1.
         -1    1    1    2    0  502 -0.30893804101E+02  0.11896554714E+01 -0.16712266995E+03  0.16995831613E+03  0.00000000000E+00 0. -1.
<mgrwt>
<rscale>  1 0.30000000E+03</rscale>
<asrwt>0</asrwt>
<pdfrwt beam="1">  1       21 0.62133390E-02 0.30000000E+03</pdfrwt>
<pdfrwt beam="2">0</pdfrwt>
<totfact> 0.19838564E+04</totfact>
</mgrwt>
</event>
<event>
 6    1  0.1284012E-001  0.3000000E+03  0.7818608E-02  0.1093470E+00
         21   -1    0    0  501  502  0.00000000000E+00  0.00000000000E+00  0.15604568299E+01  0.15604568299E+01  0.00000000000E+00 0. -1.
         13   -1    0    0    0    0 -0.00000000000E+00 -0.00000000000E+00 -0.10000000000E+04  0.10000000000E+04  0.00000000000E+00 0.  1.
    9000005    2    1    2  501    0  0.72921535263E+01 -0.30886749609E+02 -0.79597987960E+03  0.79662856039E+03  0.50919250714E+01 0.  0.
         13    1    3    3    0    0  0.71375352555E+01 -0.22997302969E+02 -0.63285816951E+03  0.63331610043E+03  0.00000000000E+00 0.  1.
          3    1    3    3  501    0  0.15461827077E+00 -0.78894466398E+01 -0.16312171009E+03  0.16331245996E+03  0.00000000000E+00 0.  1.
         -1    1    1    2    0  502 -0.72921535263E+01  0.30886749609E+02 -0.20245966357E+03  0.20493189644E+03  0.00000000000E+00 0. -1.
<mgrwt>
<rscale>  1 0.30000000E+03</rscale>
<asrwt>0</asrwt>
<pdfrwt beam="1">  1       21 0.56744004E-02 0.30000000E+03</pdfrwt>
<pdfrwt beam="2">0</pdfrwt>
<totfact> 0.23197080E+04</totfact>
</mgrwt>
</event>
<event>
 6    1  0.1284012E-001  0.3000000E+03  0.7818608E-02  0.1093470E+00
         21   -1    0    0  501  502  0.00000000000E+00  0.00000000000E+00  0.34181172045E+01  0.34181172045E+01  0.00000000000E+00 0. -1.
         13   -1    0    0    0    0 -0.00000000000E+00 -0.00000000000E+00 -0.10000000000E+04  0.10000000000E+04  0.00000000000E+00 0.  1.
    9000005    2    1    2  501    0  0.29124757760E+02  0.19289264821E+02 -0.90043672895E+03  0.90112335751E+03  0.40835481439E+01 0.  0.
         13    1    3    3    0    0  0.11565853694E+02  0.56382666521E+01 -0.35642036993E+03  0.35665254677E+03  0.00000000000E+00 0.  1.
          1    1    3    3  501    0  0.17558904066E+02  0.13650998169E+02 -0.54401635902E+03  0.54447081074E+03  0.00000000000E+00 0.  1.
         -1    1    1    2    0  502 -0.29124757760E+02 -0.19289264821E+02 -0.96145153847E+02  0.10229475969E+03  0.00000000000E+00 0. -1.
<mgrwt>
<rscale>  1 0.30000000E+03</rscale>
<asrwt>0</asrwt>
<pdfrwt beam="1">  1       21 0.12429543E-01 0.30000000E+03</pdfrwt>
<pdfrwt beam="2">0</pdfrwt>
<totfact> 0.58132257E+03</totfact>
</mgrwt>
</event>
<event>
 6    1  0.1284012E-001  0.3000000E+03  0.7818608E-02  0.1093470E+00
         21   -1    0    0  501  502  0.00000000000E+00  0.00000000000E+00  0.12587631992E+01  0.12587631992E+01  0.00000000000E+00 0. -1.
         13   -1    0    0    0    0 -0.00000000000E+00 -0.00000000000E+00 -0.10000000000E+04  0.10000000000E+04  0.00000000000E+00 0.  1.
    9000005    2    1    2  501    0 -0.27460157066E+02  0.19261633333E+02 -0.34100060754E+03  0.34266343515E+03  0.34270545716E+01 0.  0.
         13    1    3    3    0    0 -0.78241378520E+01  0.37081162161E+01 -0.91029820892E+02  0.91440666832E+02  0.00000000000E+00 0.  1.
          1    1    3    3  501    0 -0.19636019213E+02  0.15553517117E+02 -0.24997078665E+03  0.25122276832E+03  0.00000000000E+00 0.  1.
         -1    1    1    2    0  502  0.27460157066E+02 -0.19261633333E+02 -0.65774062926E+03  0.65859532805E+03  0.00000000000E+00 0. -1.
<mgrwt>
<rscale>  1 0.30000000E+03</rscale>
<asrwt>0</asrwt>
<pdfrwt beam="1">  1       21 0.45773304E-02 0.30000000E+03</pdfrwt>
<pdfrwt beam="2">0</pdfrwt>
<totfact> 0.33475563E+04</totfact>
</mgrwt>
</event>
<event>
 6    1  0.1284012E-001  0.3000000E+03  0.7818608E-02  0.1093470E+00
         21   -1    0    0  501  502  0.00000000000E+00  0.00000000000E+00  0.21295940845E+01  0.21295940845E+01  0.00000000000E+00 0. -1.
         13   -1    0    0    0    0 -0.00000000000E+00 -0.00000000000E+00 -0.10000000000E+04  0.10000000000E+04  0.00000000000E+00 0.  1.
    9000005    2    1    2  501    0 -0.76308006199E+01  0.40548005480E+02 -0.27710145642E+03  0.28018067039E+03  0.36906698137E+01 0.  0.
         13    1    3    3    0    0 -0.47125907794E+01  0.16487297995E+02 -0.10880448221E+03  0.11014742329E+03  0.00000000000E+00 0.  1.
          1    1    3    3  501    0 -0.29182098405E+01  0.24060707485E+02 -0.16829697421E+03  0.17003324711E+03  0.00000000000E+00 0.  1.
         -3    1    1    2    0  502  0.76308006199E+01 -0.40548005480E+02 -0.72076894949E+03  0.72194892369E+03  0.00000000000E+00 0. -1.
<mgrwt>
<rscale>  1 0.30000000E+03</rscale>
<asrwt>0</asrwt>
<pdfrwt beam="1">  1       21 0.77439948E-02 0.30000000E+03</pdfrwt>
<pdfrwt beam="2">0</pdfrwt>
<totfact> 0.13524165E+04</totfact>
</mgrwt>
</event>
<event>
 6    1  0.1284012E-001  0.3000000E+03  0.7818608E-02  0.1093470E+00
         21   -1    0    0  501  502  0.00000000000E+00  0.00000000000E+00  0.10602199008E+01  0.10602199008E+01  0.00000000000E+00 0. -1.
         13   -1    0    0    0    0 -0.00000000000E+00 -0.00000000000E+00 -0.10000000000E+04  0.10000000000E+04  0.00000000000E+00 0.  1.
    9000005    2    1    2  501    0 -0.31496884101E+02 -0.80850331380E+01 -0.49345383272E+03  0.49452940695E+03  0.22864481600E+01 0.  0.
         13    1    3    3    0    0 -0.18631318400E+01 -0.84682986232E+00 -0.38104117718E+02  0.38159037830E+02  0.00000000000E+00 0.  1.
          1    1    3    3  501    0 -0.29633752261E+02 -0.72382032756E+01 -0.45534971500E+03  0.45637036912E+03  0.00000000000E+00 0.  1.
         -1    1    1    2    0  502  0.31496884101E+02  0.80850331380E+01 -0.50548594738E+03  0.50653081295E+03  0.00000000000E+00 0. -1.
<mgrwt>
<rscale>  1 0.30000000E+03</rscale>
<asrwt>0</asrwt>
<pdfrwt beam="1">  1       21 0.38553532E-02 0.30000000E+03</pdfrwt>
<pdfrwt beam="2">0</pdfrwt>
<totfact> 0.44735480E+04</totfact>
</mgrwt>
</event>
<event>
 6    1  0.1284012E-001  0.3000000E+03  0.7818608E-02  0.1093470E+00
         21   -1    0    0  501  502  0.00000000000E+00  0.00000000000E+00  0.42580145457E+01  0.42580145457E+01  0.00000000000E+00 0. -1.
         13   -1    0    0    0    0 -0.00000000000E+00 -0.00000000000E+00 -0.10000000000E+04  0.10000000000E+04  0.00000000000E+00 0.  1.
    9000005    2    1    2  501    0  0.23597255327E+02  0.34087211494E+02 -0.88537470030E+03  0.88636099983E+03  0.53566447840E+01 0.  0.
         13    1    3    3    0    0  0.13867876141E+02  0.16835810362E+02 -0.42225722935E+03  0.42282021030E+03  0.00000000000E+00 0.  1.
          1    1    3    3  501    0  0.97293791857E+01  0.17251401132E+02 -0.46311747095E+03  0.46354078953E+03  0.00000000000E+00 0.  1.
         -1    1    1    2    0  502 -0.23597255327E+02 -0.34087211494E+02 -0.11036728516E+03  0.11789701472E+03  0.00000000000E+00 0. -1.
<mgrwt>
<rscale>  1 0.30000000E+03</rscale>
<asrwt>0</asrwt>
<pdfrwt beam="1">  1       21 0.15483722E-01 0.30000000E+03</pdfrwt>
<pdfrwt beam="2">0</pdfrwt>
<totfact> 0.38826385E+03</totfact>
</mgrwt>
</event>
<event>
 6    1  0.1284012E-001  0.3000000E+03  0.7818608E-02  0.1093470E+00
         21   -1    0    0  501  502  0.00000000000E+00  0.00000000000E+00  0.24389170760E+01  0.24389170760E+01  0.00000000000E+00 0. -1.
         13   -1    0    0    0    0 -0.00000000000E+00 -0.00000000000E+00 -0.10000000000E+04  0.10000000000E+04  0.00000000000E+00 0.  1.
    9000005    2    1    2  501    0 -0.42875067119E+02  0.24014304863E+02 -0.45359042219E+03  0.45625301653E+03  0.27542275721E+01 0.  0.
         13    1    3    3    0    0 -0.15400376500E+02  0.78211569292E+01 -0.16981491942E+03  0.17069109218E+03  0.00000000000E+00 0.  1.
          1    1    3    3  501    0 -0.27474690619E+02  0.16193147933E+02 -0.28377550277E+03  0.28556192434E+03  0.00000000000E+00 0.  1.
         -1    1    1    2    0  502  0.42875067119E+02 -0.24014304863E+02 -0.54397066074E+03  0.54618590055E+03  0.00000000000E+00 0. -1.
<mgrwt>
<rscale>  1 0.30000000E+03</rscale>
<asrwt>0</asrwt>
<pdfrwt beam="1">  1       21 0.88688081E-02 0.30000000E+03</pdfrwt>
<pdfrwt beam="2">0</pdfrwt>
<totfact> 0.10651439E+04</totfact>
</mgrwt>
</event>
<event>
 6    1  0.1284012E-001  0.3000000E+03  0.7818608E-02  0.1093470E+00
         21   -1    0    0  501  502  0.00000000000E+00  0.00000000000E+00  0.12017920358E+01  0.12017920358E+01  0.00000000000E+00 0. -1.
         13   -1    0    0    0    0 -0.00000000000E+00 -0.00000000000E+00 -0.10000000000E+04  0.10000000000E+04  0.00000000000E+00 0.  1.
    9000005    2    1    2  501    0  0.22941740113E+02 -0.24557623949E+02 -0.38794275904E+03  0.38942259999E+03  0.45800395343E+01 0.  0.
         13    1    3    3    0    0  0.20707518012E+02 -0.22632242879E+02 -0.33649663666E+03  0.33789200376E+03  0.00000000000E+00 0.  1.
          3    1    3    3  501    0  0.22342221002E+01 -0.19253810701E+01 -0.51446122378E+02  0.51530596236E+02  0.00000000000E+00 0.  1.
         -1    1    1    2    0  502 -0.22941740113E+02  0.24557623949E+02 -0.61085544893E+03  0.61177919204E+03  0.00000000000E+00 0. -1.
<mgrwt>
<rscale>  1 0.30000000E+03</rscale>
<asrwt>0</asrwt>
<pdfrwt beam="1">  1       21 0.43701621E-02 0.30000000E+03</pdfrwt>
<pdfrwt beam="2">0</pdfrwt>
<totfact> 0.36211294E+04</totfact>
</mgrwt>
</event>
<event>
 6    1  0.1284012E-001  0.3000000E+03  0.7818608E-02  0.1093470E+00
         21   -1    0    0  501  502  0.00000000000E+00  0.00000000000E+00  0.18763518827E+01  0.18763518827E+01  0.00000000000E+00 0. -1.
         13   -1    0    0    0    0 -0.00000000000E+00 -0.00000000000E+00 -0.10000000000E+04  0.10000000000E+04  0.00000000000E+00 0.  1.
    9000005    2    1    2  501    0  0.29525169111E+01  0.43071154895E+02 -0.46725123890E+03  0.46925138382E+03  0.30494621437E+01 0.  0.
         13    1    3    3    0    0  0.83475917114E+00  0.29190616724E+02 -0.32437117267E+03  0.32568304621E+03  0.00000000000E+00 0.  1.
          1    1    3    3  501    0  0.21177577399E+01  0.13880538171E+02 -0.14288006623E+03  0.14356833761E+03  0.00000000000E+00 0.  1.
         -1    1    1    2    0  502 -0.29525169111E+01 -0.43071154895E+02 -0.53087240921E+03  0.53262496806E+03  0.00000000000E+00 0. -1.
<mgrwt>
<rscale>  1 0.30000000E+03</rscale>
<asrwt>0</asrwt>
<pdfrwt beam="1">  1       21 0.68231121E-02 0.30000000E+03</pdfrwt>
<pdfrwt beam="2">0</pdfrwt>
<totfact> 0.16869494E+04</totfact>
</mgrwt>
</event>
<event>
 6    1  0.1284012E-001  0.3000000E+03  0.7818608E-02  0.1093470E+00
         21   -1    0    0  501  502  0.00000000000E+00  0.00000000000E+00  0.15471973825E+01  0.15471973825E+01  0.00000000000E+00 0. -1.
         13   -1    0    0    0    0 -0.00000000000E+00 -0.00000000000E+00 -0.10000000000E+04  0.10000000000E+04  0.00000000000E+00 0.  1.
    9000005    2    1    2  501    0  0.28496364837E+02  0.24807653838E+02 -0.36884129672E+03  0.37080310438E+03  0.48556724155E+01 0.  0.
         13    1    3    3    0    0  0.25499291731E+02  0.22196493930E+02 -0.34236587728E+03  0.34403094650E+03  0.00000000000E+00 0.  1.
          1    1    3    3  501    0  0.29970731066E+01  0.26111599074E+01 -0.26475419440E+02  0.26772157885E+02  0.00000000000E+00 0.  1.
         -1    1    1    2    0  502 -0.28496364837E+02 -0.24807653838E+02 -0.62961150590E+03  0.63074409300E+03  0.00000000000E+00 0. -1.
<mgrwt>
<rscale>  1 0.30000000E+03</rscale>
<asrwt>0</asrwt>
<pdfrwt beam="1">  1       21 0.56261842E-02 0.30000000E+03</pdfrwt>
<pdfrwt beam="2">0</pdfrwt>
<totfact> 0.23539722E+04</totfact>
</mgrwt>
</event>
<event>
 6    1  0.1284012E-001  0.3000000E+03  0.7818608E-02  0.1093470E+00
         21   -1    0    0  501  502  0.00000000000E+00  0.00000000000E+00  0.94482308257E+01  0.94482308257E+01  0.00000000000E+00 0. -1.
         13   -1    0    0    0    0 -0.00000000000E+00 -0.00000000000E+00 -0.10000000000E+04  0.10000000000E+04  0.00000000000E+00 0.  1.
    9000005    2    1    2  501    0  0.97044317646E+02 -0.46675254955E+01 -0.50374689385E+03  0.51304277958E+03  0.35461584123E+01 0.  0.
         13    1    3    3    0    0  0.95707430325E+02 -0.49388114534E+01 -0.49526772314E+03  0.50445457839E+03  0.00000000000E+00 0.  1.
          1    1    3    3  501    0  0.13368873209E+01  0.27128595792E+00 -0.84791707116E+01  0.85882011933E+01  0.00000000000E+00 0.  1.
         -1    1    1    2    0  502 -0.97044317646E+02  0.46675254955E+01 -0.48680487533E+03  0.49640545124E+03  0.00000000000E+00 0. -1.
<mgrwt>
<rscale>  1 0.30000000E+03</rscale>
<asrwt>0</asrwt>
<pdfrwt beam="1">  1       21 0.34357275E-01 0.30000000E+03</pdfrwt>
<pdfrwt beam="2">0</pdfrwt>
<totfact> 0.82650893E+02</totfact>
</mgrwt>
</event>
<event>
 6    1  0.1284012E-001  0.3000000E+03  0.7818608E-02  0.1093470E+00
         21   -1    0    0  501  502  0.00000000000E+00  0.00000000000E+00  0.12490160982E+01  0.12490160982E+01  0.00000000000E+00 0. -1.
         13   -1    0    0    0    0 -0.00000000000E+00 -0.00000000000E+00 -0.10000000000E+04  0.10000000000E+04  0.00000000000E+00 0.  1.
    9000005    2    1    2  501    0 -0.64554127381E+01  0.34450134727E+02 -0.55638110137E+03  0.55749277996E+03  0.31281966944E+01 0.  0.
         13    1    3    3    0    0 -0.15268100042E+01  0.16546168814E+02 -0.26615858553E+03  0.26667676971E+03  0.00000000000E+00 0.  1.
          3    1    3    3  501    0 -0.49286027338E+01  0.17903965913E+02 -0.29022251584E+03  0.29081601025E+03  0.00000000000E+00 0.  1.
         -1    1    1    2    0  502  0.64554127381E+01 -0.34450134727E+02 -0.44236988254E+03  0.44375623614E+03  0.00000000000E+00 0. -1.
<mgrwt>
<rscale>  1 0.30000000E+03</rscale>
<asrwt>0</asrwt>
<pdfrwt beam="1">  1       21 0.45418863E-02 0.30000000E+03</pdfrwt>
<pdfrwt beam="2">0</pdfrwt>
<totfact> 0.33920479E+04</totfact>
</mgrwt>
</event>
<event>
 6    1  0.1284012E-001  0.3000000E+03  0.7818608E-02  0.1093470E+00
         21   -1    0    0  501  502  0.00000000000E+00  0.00000000000E+00  0.50167637264E+01  0.50167637264E+01  0.00000000000E+00 0. -1.
         13   -1    0    0    0    0 -0.00000000000E+00 -0.00000000000E+00 -0.10000000000E+04  0.10000000000E+04  0.00000000000E+00 0.  1.
    9000005    2    1    2  501    0  0.34333065525E+01  0.70693560460E+02 -0.49901280484E+03  0.50402171790E+03  0.38400049319E+01 0.  0.
         13    1    3    3    0    0  0.20932745361E+01  0.61710097887E+02 -0.44123844733E+03  0.44553774855E+03  0.00000000000E+00 0.  1.
          3    1    3    3  501    0  0.13400320164E+01  0.89834625734E+01 -0.57774357510E+02  0.58483969353E+02  0.00000000000E+00 0.  1.
         -1    1    1    2    0  502 -0.34333065525E+01 -0.70693560460E+02 -0.49597043144E+03  0.50099504583E+03  0.00000000000E+00 0. -1.
<mgrwt>
<rscale>  1 0.30000000E+03</rscale>
<asrwt>0</asrwt>
<pdfrwt beam="1">  1       21 0.18242816E-01 0.30000000E+03</pdfrwt>
<pdfrwt beam="2">0</pdfrwt>
<totfact> 0.28564918E+03</totfact>
</mgrwt>
</event>
<event>
 6    1  0.1284012E-001  0.3000000E+03  0.7818608E-02  0.1093470E+00
         21   -1    0    0  501  502  0.00000000000E+00  0.00000000000E+00  0.29199436888E+01  0.29199436888E+01  0.00000000000E+00 0. -1.
         13   -1    0    0    0    0 -0.00000000000E+00 -0.00000000000E+00 -0.10000000000E+04  0.10000000000E+04  0.00000000000E+00 0.  1.
    9000005    2    1    2  501    0 -0.14435275595E+02 -0.39025648587E+02 -0.81818445830E+03  0.81924900582E+03  0.34274344823E+01 0.  0.
         13    1    3    3    0    0 -0.12746601581E+02 -0.34430743415E+02 -0.74158781538E+03  0.74249608744E+03  0.00000000000E+00 0.  1.
          1    1    3    3  501    0 -0.16886740139E+01 -0.45949051729E+01 -0.76596642923E+02  0.76752918385E+02  0.00000000000E+00 0.  1.
         -1    1    1    2    0  502  0.14435275595E+02  0.39025648587E+02 -0.17889559801E+03  0.18367093787E+03  0.00000000000E+00 0. -1.
<mgrwt>
<rscale>  1 0.30000000E+03</rscale>
<asrwt>0</asrwt>
<pdfrwt beam="1">  1       21 0.10617999E-01 0.30000000E+03</pdfrwt>
<pdfrwt beam="2">0</pdfrwt>
<totfact> 0.77274431E+03</totfact>
</mgrwt>
</event>
<event>
 6    1  0.1284012E-001  0.3000000E+03  0.7818608E-02  0.1093470E+00
         21   -1    0    0  501  502  0.00000000000E+00  0.00000000000E+00  0.67658343517E+01  0.67658343517E+01  0.00000000000E+00 0. -1.
         13   -1    0    0    0    0 -0.00000000000E+00 -0.00000000000E+00 -0.10000000000E+04  0.10000000000E+04  0.00000000000E+00 0.  1.
    9000005    2    1    2  501    0 -0.46746942369E+02  0.16705897786E+02 -0.89793387922E+03  0.89931115444E+03  0.33071749850E+01 0.  0.
         13    1    3    3    0    0 -0.16038542010E+02  0.52671034994E+01 -0.27868397387E+03  0.27919479670E+03  0.00000000000E+00 0.  1.
          3    1    3    3  501    0 -0.30708400359E+02  0.11438794286E+02 -0.61924990535E+03  0.62011635774E+03  0.00000000000E+00 0.  1.
         -3    1    1    2    0  502  0.46746942369E+02 -0.16705897786E+02 -0.95300286426E+02  0.10745467991E+03  0.00000000000E+00 0. -1.
<mgrwt>
<rscale>  1 0.30000000E+03</rscale>
<asrwt>0</asrwt>
<pdfrwt beam="1">  1       21 0.24603086E-01 0.30000000E+03</pdfrwt>
<pdfrwt beam="2">0</pdfrwt>
<totfact> 0.16091614E+03</totfact>
</mgrwt>
</event>
<event>
 6    1  0.1284012E-001  0.3000000E+03  0.7818608E-02  0.1093470E+00
         21   -1    0    0  501  502  0.00000000000E+00  0.00000000000E+00  0.20655490937E+01  0.20655490937E+01  0.00000000000E+00 0. -1.
         13   -1    0    0    0    0 -0.00000000000E+00 -0.00000000000E+00 -0.10000000000E+04  0.10000000000E+04  0.00000000000E+00 0.  1.
    9000005    2    1    2  501    0  0.19030342316E+02 -0.26183441067E+02 -0.85049151991E+03  0.85111143549E+03  0.26690183100E+01 0.  0.
         13    1    3    3    0    0  0.16025059542E+02 -0.23425716681E+02 -0.75245744549E+03  0.75299254578E+03  0.00000000000E+00 0.  1.
          1    1    3    3  501    0  0.30052827743E+01 -0.27577243860E+01 -0.98034074424E+02  0.98118889703E+02  0.00000000000E+00 0.  1.
         -3    1    1    2    0  502 -0.19030342316E+02  0.26183441067E+02 -0.14744293100E+03  0.15095411361E+03  0.00000000000E+00 0. -1.
<mgrwt>
<rscale>  1 0.30000000E+03</rscale>
<asrwt>0</asrwt>
<pdfrwt beam="1">  1       21 0.75111035E-02 0.30000000E+03</pdfrwt>
<pdfrwt beam="2">0</pdfrwt>
<totfact> 0.14267459E+04</totfact>
</mgrwt>
</event>
<event>
 6    1  0.1284012E-001  0.3000000E+03  0.7818608E-02  0.1093470E+00
         21   -1    0    0  501  502  0.00000000000E+00  0.00000000000E+00  0.10260433544E+01  0.10260433544E+01  0.00000000000E+00 0. -1.
         13   -1    0    0    0    0 -0.00000000000E+00 -0.00000000000E+00 -0.10000000000E+04  0.10000000000E+04  0.00000000000E+00 0.  1.
    9000005    2    1    2  501    0  0.27995858333E+02 -0.15331058301E+02 -0.52554535693E+03  0.52652267302E+03  0.30648945118E+01 0.  0.
         13    1    3    3    0    0  0.97593164404E+00 -0.12545173352E+01 -0.28966079574E+02  0.29009653949E+02  0.00000000000E+00 0.  1.
          3    1    3    3  501    0  0.27019926689E+02 -0.14076540966E+02 -0.49657927736E+03  0.49751301907E+03  0.00000000000E+00 0.  1.
         -3    1    1    2    0  502 -0.27995858333E+02  0.15331058301E+02 -0.47342859971E+03  0.47450337033E+03  0.00000000000E+00 0. -1.
<mgrwt>
<rscale>  1 0.30000000E+03</rscale>
<asrwt>0</asrwt>
<pdfrwt beam="1">  1       21 0.37310746E-02 0.30000000E+03</pdfrwt>
<pdfrwt beam="2">0</pdfrwt>
<totfact> 0.47267135E+04</totfact>
</mgrwt>
</event>
<event>
 6    1  0.1284012E-001  0.3000000E+03  0.7818608E-02  0.1093470E+00
         21   -1    0    0  501  502  0.00000000000E+00  0.00000000000E+00  0.46039862608E+01  0.46039862608E+01  0.00000000000E+00 0. -1.
         13   -1    0    0    0    0 -0.00000000000E+00 -0.00000000000E+00 -0.10000000000E+04  0.10000000000E+04  0.00000000000E+00 0.  1.
    9000005    2    1    2  501    0 -0.35288168933E+01 -0.39298850196E+02 -0.90626542914E+03  0.90713033195E+03  0.33998379184E+01 0.  0.
         13    1    3    3    0    0 -0.28557529214E+01 -0.29409859964E+02 -0.64354022350E+03  0.64421821958E+03  0.00000000000E+00 0.  1.
          3    1    3    3  501    0 -0.67306397191E+00 -0.98889902316E+01 -0.26272520565E+03  0.26291211236E+03  0.00000000000E+00 0.  1.
         -3    1    1    2    0  502  0.35288168933E+01  0.39298850196E+02 -0.89130584595E+02  0.97473654315E+02  0.00000000000E+00 0. -1.
<mgrwt>
<rscale>  1 0.30000000E+03</rscale>
<asrwt>0</asrwt>
<pdfrwt beam="1">  1       21 0.16741804E-01 0.30000000E+03</pdfrwt>
<pdfrwt beam="2">0</pdfrwt>
<totfact> 0.33563003E+03</totfact>
</mgrwt>
</event>
<event>
 6    1  0.1284012E-001  0.3000000E+03  0.7818608E-02  0.1093470E+00
         21   -1    0    0  501  502  0.00000000000E+00  0.00000000000E+00  0.14004735114E+02  0.14004735114E+02  0.00000000000E+00 0. -1.
         13   -1    0    0    0    0 -0.00000000000E+00 -0.00000000000E+00 -0.10000000000E+04  0.10000000000E+04  0.00000000000E+00 0.  1.
    9000005    2    1    2  501    0 -0.51107821833E+02 -0.27761882569E+02 -0.93452663100E+03  0.93634038132E+03  0.32487024711E+01 0.  0.
         13    1    3    3    0    0 -0.24854514801E+02 -0.12792684613E+02 -0.47319390076E+03  0.47401884710E+03  0.00000000000E+00 0.  1.
          3    1    3    3  501    0 -0.26253307032E+02 -0.14969197956E+02 -0.46133273023E+03  0.46232153422E+03  0.00000000000E+00 0.  1.
         -1    1    1    2    0  502  0.51107821833E+02  0.27761882569E+02 -0.51468633889E+02  0.77664353796E+02  0.00000000000E+00 0. -1.
<mgrwt>
<rscale>  1 0.30000000E+03</rscale>
<asrwt>0</asrwt>
<pdfrwt beam="1">  1       21 0.50926417E-01 0.30000000E+03</pdfrwt>
<pdfrwt beam="2">0</pdfrwt>
<totfact> 0.36103626E+02</totfact>
</mgrwt>
</event>
<event>
 6    1  0.1284012E-001  0.3000000E+03  0.7818608E-02  0.1093470E+00
         21   -1    0    0  501  502  0.00000000000E+00  0.00000000000E+00  0.18882221346E+01  0.18882221346E+01  0.00000000000E+00 0. -1.
         13   -1    0    0    0    0 -0.00000000000E+00 -0.00000000000E+00 -0.10000000000E+04  0.10000000000E+04  0.00000000000E+00 0.  1.
    9000005    2    1    2  501    0  0.25950353550E+02 -0.22980840851E+02 -0.80055637162E+03  0.80131484795E+03  0.36662659092E+01 0.  0.
         13    1    3    3    0    0  0.19780346388E+02 -0.18298459866E+02 -0.65221114072E+03  0.65276754501E+03  0.00000000000E+00 0.  1.
          3    1    3    3  501    0  0.61700071618E+01 -0.46823809850E+01 -0.14834523090E+03  0.14854730294E+03  0.00000000000E+00 0.  1.
         -1    1    1    2    0  502 -0.25950353550E+02  0.22980840851E+02 -0.19755540624E+03  0.20057337418E+03  0.00000000000E+00 0. -1.
<mgrwt>
<rscale>  1 0.30000000E+03</rscale>
<asrwt>0</asrwt>
<pdfrwt beam="1">  1       21 0.68662768E-02 0.30000000E+03</pdfrwt>
<pdfrwt beam="2">0</pdfrwt>
<totfact> 0.16685680E+04</totfact>
</mgrwt>
</event>
<event>
 6    1  0.1284012E-001  0.3000000E+03  0.7818608E-02  0.1093470E+00
         21   -1    0    0  501  502  0.00000000000E+00  0.00000000000E+00  0.15443623179E+01  0.15443623179E+01  0.00000000000E+00 0. -1.
         13   -1    0    0    0    0 -0.00000000000E+00 -0.00000000000E+00 -0.10000000000E+04  0.10000000000E+04  0.00000000000E+00 0.  1.
    9000005    2    1    2  501    0  0.51172096838E+01  0.32614486089E+02 -0.77016270715E+03  0.77087673852E+03  0.32341873802E+01 0.  0.
         13    1    3    3    0    0  0.13921755071E+01  0.17091745983E+02 -0.42191978598E+03  0.42226812778E+03  0.00000000000E+00 0.  1.
          1    1    3    3  501    0  0.37250341768E+01  0.15522740107E+02 -0.34824292117E+03  0.34860861074E+03  0.00000000000E+00 0.  1.
         -3    1    1    2    0  502 -0.51172096838E+01 -0.32614486089E+02 -0.22829293053E+03  0.23066762380E+03  0.00000000000E+00 0. -1.
<mgrwt>
<rscale>  1 0.30000000E+03</rscale>
<asrwt>0</asrwt>
<pdfrwt beam="1">  1       21 0.56158748E-02 0.30000000E+03</pdfrwt>
<pdfrwt beam="2">0</pdfrwt>
<totfact> 0.23613991E+04</totfact>
</mgrwt>
</event>
<event>
 6    1  0.1284012E-001  0.3000000E+03  0.7818608E-02  0.1093470E+00
         21   -1    0    0  501  502  0.00000000000E+00  0.00000000000E+00  0.16406109992E+01  0.16406109992E+01  0.00000000000E+00 0. -1.
         13   -1    0    0    0    0 -0.00000000000E+00 -0.00000000000E+00 -0.10000000000E+04  0.10000000000E+04  0.00000000000E+00 0.  1.
    9000005    2    1    2  501    0  0.15508702806E+02 -0.26850395955E+02 -0.82095224073E+03  0.82154408165E+03  0.32608144288E+01 0.  0.
         13    1    3    3    0    0  0.12222479362E+02 -0.18648768839E+02 -0.60751078571E+03  0.60791983052E+03  0.00000000000E+00 0.  1.
          3    1    3    3  501    0  0.32862234438E+01 -0.82016271156E+01 -0.21344145502E+03  0.21362425113E+03  0.00000000000E+00 0.  1.
         -3    1    1    2    0  502 -0.15508702806E+02  0.26850395955E+02 -0.17740714827E+03  0.18009652935E+03  0.00000000000E+00 0. -1.
<mgrwt>
<rscale>  1 0.30000000E+03</rscale>
<asrwt>0</asrwt>
<pdfrwt beam="1">  1       21 0.59658708E-02 0.30000000E+03</pdfrwt>
<pdfrwt beam="2">0</pdfrwt>
<totfact> 0.21279971E+04</totfact>
</mgrwt>
</event>
<event>
 6    1  0.1284012E-001  0.3000000E+03  0.7818608E-02  0.1093470E+00
         21   -1    0    0  501  502  0.00000000000E+00  0.00000000000E+00  0.15052513344E+01  0.15052513344E+01  0.00000000000E+00 0. -1.
         13   -1    0    0    0    0 -0.00000000000E+00 -0.00000000000E+00 -0.10000000000E+04  0.10000000000E+04  0.00000000000E+00 0.  1.
    9000005    2    1    2  501    0  0.29466993702E+02 -0.14120356294E+02 -0.76759994479E+03  0.76830984264E+03  0.47592935621E+01 0.  0.
         13    1    3    3    0    0  0.16833058466E+02 -0.57276862977E+01 -0.43937329604E+03  0.43973293204E+03  0.00000000000E+00 0.  1.
          1    1    3    3  501    0  0.12633935236E+02 -0.83926699966E+01 -0.32822664876E+03  0.32857691061E+03  0.00000000000E+00 0.  1.
         -3    1    1    2    0  502 -0.29466993702E+02  0.14120356294E+02 -0.23089480387E+03  0.23319540869E+03  0.00000000000E+00 0. -1.
<mgrwt>
<rscale>  1 0.30000000E+03</rscale>
<asrwt>0</asrwt>
<pdfrwt beam="1">  1       21 0.54736528E-02 0.30000000E+03</pdfrwt>
<pdfrwt beam="2">0</pdfrwt>
<totfact> 0.24676459E+04</totfact>
</mgrwt>
</event>
<event>
 6    1  0.1284012E-001  0.3000000E+03  0.7818608E-02  0.1093470E+00
         21   -1    0    0  501  502  0.00000000000E+00  0.00000000000E+00  0.22380547624E+01  0.22380547624E+01  0.00000000000E+00 0. -1.
         13   -1    0    0    0    0 -0.00000000000E+00 -0.00000000000E+00 -0.10000000000E+04  0.10000000000E+04  0.00000000000E+00 0.  1.
    9000005    2    1    2  501    0  0.51019874630E+01 -0.42055883423E+02 -0.71250297906E+03  0.71385045899E+03  0.11280737321E+02 0.  0.
         13    1    3    3    0    0  0.54819504883E+01 -0.96286127310E+01 -0.22231479399E+03  0.22259072216E+03  0.00000000000E+00 0.  1.
          3    1    3    3  501    0 -0.37996302532E+00 -0.32427270692E+02 -0.49018818507E+03  0.49125973684E+03  0.00000000000E+00 0.  1.
         -1    1    1    2    0  502 -0.51019874630E+01  0.42055883423E+02 -0.28525896618E+03  0.28838759577E+03  0.00000000000E+00 0. -1.
<mgrwt>
<rscale>  1 0.30000000E+03</rscale>
<asrwt>0</asrwt>
<pdfrwt beam="1">  1       21 0.81383981E-02 0.30000000E+03</pdfrwt>
<pdfrwt beam="2">0</pdfrwt>
<totfact> 0.12394589E+04</totfact>
</mgrwt>
</event>
<event>
 6    1  0.1284012E-001  0.3000000E+03  0.7818608E-02  0.1093470E+00
         21   -1    0    0  501  502  0.00000000000E+00  0.00000000000E+00  0.45682892784E+01  0.45682892784E+01  0.00000000000E+00 0. -1.
         13   -1    0    0    0    0 -0.00000000000E+00 -0.00000000000E+00 -0.10000000000E+04  0.10000000000E+04  0.00000000000E+00 0.  1.
    9000005    2    1    2  501    0 -0.36620136082E+02 -0.22077639728E+02 -0.88651350024E+03  0.88755703718E+03  0.47803348732E+01 0.  0.
         13    1    3    3    0    0 -0.42444913404E+01 -0.11918286427E+01 -0.11000762817E+03  0.11009593279E+03  0.00000000000E+00 0.  1.
          1    1    3    3  501    0 -0.32375644741E+02 -0.20885811085E+02 -0.77650587207E+03  0.77746110439E+03  0.00000000000E+00 0.  1.
         -1    1    1    2    0  502  0.36620136082E+02  0.22077639728E+02 -0.10891821048E+03  0.11701125210E+03  0.00000000000E+00 0. -1.
<mgrwt>
<rscale>  1 0.30000000E+03</rscale>
<asrwt>0</asrwt>
<pdfrwt beam="1">  1       21 0.16611996E-01 0.30000000E+03</pdfrwt>
<pdfrwt beam="2">0</pdfrwt>
<totfact> 0.34055071E+03</totfact>
</mgrwt>
</event>
<event>
 6    1  0.1284012E-001  0.3000000E+03  0.7818608E-02  0.1093470E+00
         21   -1    0    0  501  502  0.00000000000E+00  0.00000000000E+00  0.70804218791E+01  0.70804218791E+01  0.00000000000E+00 0. -1.
         13   -1    0    0    0    0 -0.00000000000E+00 -0.00000000000E+00 -0.10000000000E+04  0.10000000000E+04  0.00000000000E+00 0.  1.
    9000005    2    1    2  501    0  0.41785246099E+02 -0.53570107826E+02 -0.79348734205E+03  0.79639349768E+03  0.21628476998E+01 0.  0.
         13    1    3    3    0    0  0.96021262537E+01 -0.13827958846E+02 -0.19654461336E+03  0.19726428545E+03  0.00000000000E+00 0.  1.
          1    1    3    3  501    0  0.32183119845E+02 -0.39742148980E+02 -0.59694272870E+03  0.59912921223E+03  0.00000000000E+00 0.  1.
         -3    1    1    2    0  502 -0.41785246099E+02  0.53570107826E+02 -0.19943223607E+03  0.21068692420E+03  0.00000000000E+00 0. -1.
<mgrwt>
<rscale>  1 0.30000000E+03</rscale>
<asrwt>0</asrwt>
<pdfrwt beam="1">  1       21 0.25747043E-01 0.30000000E+03</pdfrwt>
<pdfrwt beam="2">0</pdfrwt>
<totfact> 0.14720570E+03</totfact>
</mgrwt>
</event>
<event>
 6    1  0.1284012E-001  0.3000000E+03  0.7818608E-02  0.1093470E+00
         21   -1    0    0  501  502  0.00000000000E+00  0.00000000000E+00  0.13132091850E+01  0.13132091850E+01  0.00000000000E+00 0. -1.
         13   -1    0    0    0    0 -0.00000000000E+00 -0.00000000000E+00 -0.10000000000E+04  0.10000000000E+04  0.00000000000E+00 0.  1.
    9000005    2    1    2  501    0 -0.30596820722E+02 -0.95817314571E+01 -0.73066645629E+03  0.73138196843E+03  0.42589180265E+01 0.  0.
         13    1    3    3    0    0 -0.37743068381E+01  0.22417373534E+00 -0.81818413990E+02  0.81905729432E+02  0.00000000000E+00 0.  1.
          1    1    3    3  501    0 -0.26822513884E+02 -0.98059051924E+01 -0.64884804230E+03  0.64947623900E+03  0.00000000000E+00 0.  1.
         -3    1    1    2    0  502  0.30596820722E+02  0.95817314571E+01 -0.26802033452E+03  0.26993124075E+03  0.00000000000E+00 0. -1.
<mgrwt>
<rscale>  1 0.30000000E+03</rscale>
<asrwt>0</asrwt>
<pdfrwt beam="1">  1       21 0.47753162E-02 0.30000000E+03</pdfrwt>
<pdfrwt beam="2">0</pdfrwt>
<totfact> 0.31150603E+04</totfact>
</mgrwt>
</event>
<event>
 6    1  0.1284012E-001  0.3000000E+03  0.7818608E-02  0.1093470E+00
         21   -1    0    0  501  502  0.00000000000E+00  0.00000000000E+00  0.12273587902E+01  0.12273587902E+01  0.00000000000E+00 0. -1.
         13   -1    0    0    0    0 -0.00000000000E+00 -0.00000000000E+00 -0.10000000000E+04  0.10000000000E+04  0.00000000000E+00 0.  1.
    9000005    2    1    2  501    0  0.29602168127E+02 -0.10788385829E+02 -0.71677489691E+03  0.71747499243E+03  0.33814628630E+01 0.  0.
         13    1    3    3    0    0  0.20471332723E+02 -0.82111965473E+01 -0.46860462277E+03  0.46912342906E+03  0.00000000000E+00 0.  1.
          1    1    3    3  501    0  0.91308354038E+01 -0.25771892821E+01 -0.24817027415E+03  0.24835156337E+03  0.00000000000E+00 0.  1.
         -1    1    1    2    0  502 -0.29602168127E+02  0.10788385829E+02 -0.28199774430E+03  0.28375236636E+03  0.00000000000E+00 0. -1.
<mgrwt>
<rscale>  1 0.30000000E+03</rscale>
<asrwt>0</asrwt>
<pdfrwt beam="1">  1       21 0.44631323E-02 0.30000000E+03</pdfrwt>
<pdfrwt beam="2">0</pdfrwt>
<totfact> 0.34942428E+04</totfact>
</mgrwt>
</event>
<event>
 6    1  0.1284012E-001  0.3000000E+03  0.7818608E-02  0.1093470E+00
         21   -1    0    0  501  502  0.00000000000E+00  0.00000000000E+00  0.19756021129E+01  0.19756021129E+01  0.00000000000E+00 0. -1.
         13   -1    0    0    0    0 -0.00000000000E+00 -0.00000000000E+00 -0.10000000000E+04  0.10000000000E+04  0.00000000000E+00 0.  1.
    9000005    2    1    2  501    0 -0.32711972722E+02  0.27778475946E+02 -0.37134862384E+03  0.37383211320E+03  0.29885694089E+01 0.  0.
         13    1    3    3    0    0 -0.43142973123E+01  0.32439880971E+01 -0.55468812598E+02  0.55730833397E+02  0.00000000000E+00 0.  1.
          1    1    3    3  501    0 -0.28397675409E+02  0.24534487849E+02 -0.31587981125E+03  0.31810127981E+03  0.00000000000E+00 0.  1.
         -1    1    1    2    0  502  0.32711972722E+02 -0.27778475946E+02 -0.62667577404E+03  0.62814348891E+03  0.00000000000E+00 0. -1.
<mgrwt>
<rscale>  1 0.30000000E+03</rscale>
<asrwt>0</asrwt>
<pdfrwt beam="1">  1       21 0.71840228E-02 0.30000000E+03</pdfrwt>
<pdfrwt beam="2">0</pdfrwt>
<totfact> 0.15422061E+04</totfact>
</mgrwt>
</event>
<event>
 6    1  0.1284012E-001  0.3000000E+03  0.7818608E-02  0.1093470E+00
         21   -1    0    0  501  502  0.00000000000E+00  0.00000000000E+00  0.90672140958E+01  0.90672140958E+01  0.00000000000E+00 0. -1.
         13   -1    0    0    0    0 -0.00000000000E+00 -0.00000000000E+00 -0.10000000000E+04  0.10000000000E+04  0.00000000000E+00 0.  1.
    9000005    2    1    2  501    0 -0.16690080280E+02 -0.62346726854E+02 -0.86635693407E+03  0.86876462684E+03  0.34592653121E+01 0.  0.
         13    1    3    3    0    0 -0.11261138736E+02 -0.47339149480E+02 -0.64416485113E+03  0.64600012675E+03  0.00000000000E+00 0.  1.
          1    1    3    3  501    0 -0.54289415444E+01 -0.15007577375E+02 -0.22219208293E+03  0.22276450010E+03  0.00000000000E+00 0.  1.
         -3    1    1    2    0  502  0.16690080280E+02  0.62346726854E+02 -0.12457585184E+03  0.14030258725E+03  0.00000000000E+00 0. -1.
<mgrwt>
<rscale>  1 0.30000000E+03</rscale>
<asrwt>0</asrwt>
<pdfrwt beam="1">  1       21 0.32971757E-01 0.30000000E+03</pdfrwt>
<pdfrwt beam="2">0</pdfrwt>
<totfact> 0.89878064E+02</totfact>
</mgrwt>
</event>
<event>
 6    1  0.1284012E-001  0.3000000E+03  0.7818608E-02  0.1093470E+00
         21   -1    0    0  501  502  0.00000000000E+00  0.00000000000E+00  0.45213259192E+01  0.45213259192E+01  0.00000000000E+00 0. -1.
         13   -1    0    0    0    0 -0.00000000000E+00 -0.00000000000E+00 -0.10000000000E+04  0.10000000000E+04  0.00000000000E+00 0.  1.
    9000005    2    1    2  501    0  0.56618403537E+02 -0.18739809052E+02 -0.26659041277E+03  0.27319723802E+03  0.30754868671E+01 0.  0.
         13    1    3    3    0    0  0.16234352828E+02 -0.53430957803E+01 -0.82910920599E+02  0.84654141297E+02  0.00000000000E+00 0.  1.
          1    1    3    3  501    0  0.40384050709E+02 -0.13396713271E+02 -0.18367949217E+03  0.18854309672E+03  0.00000000000E+00 0.  1.
         -1    1    1    2    0  502 -0.56618403537E+02  0.18739809052E+02 -0.72888826131E+03  0.73132408790E+03  0.00000000000E+00 0. -1.
<mgrwt>
<rscale>  1 0.30000000E+03</rscale>
<asrwt>0</asrwt>
<pdfrwt beam="1">  1       21 0.16441220E-01 0.30000000E+03</pdfrwt>
<pdfrwt beam="2">0</pdfrwt>
<totfact> 0.34719001E+03</totfact>
</mgrwt>
</event>
<event>
 6    1  0.1284012E-001  0.3000000E+03  0.7818608E-02  0.1093470E+00
         21   -1    0    0  501  502  0.00000000000E+00  0.00000000000E+00  0.42012677796E+01  0.42012677796E+01  0.00000000000E+00 0. -1.
         13   -1    0    0    0    0 -0.00000000000E+00 -0.00000000000E+00 -0.10000000000E+04  0.10000000000E+04  0.00000000000E+00 0.  1.
    9000005    2    1    2  501    0  0.59332388017E+02  0.21677560191E+02 -0.60855539242E+03  0.61183963216E+03  0.42214877626E+01 0.  0.
         13    1    3    3    0    0  0.46146494260E+02  0.14961208044E+02 -0.46559787356E+03  0.46811827196E+03  0.00000000000E+00 0.  1.
          3    1    3    3  501    0  0.13185893757E+02  0.67163521472E+01 -0.14295751886E+03  0.14372136020E+03  0.00000000000E+00 0.  1.
         -3    1    1    2    0  502 -0.59332388017E+02 -0.21677560191E+02 -0.38724333980E+03  0.39236163562E+03  0.00000000000E+00 0. -1.
<mgrwt>
<rscale>  1 0.30000000E+03</rscale>
<asrwt>0</asrwt>
<pdfrwt beam="1">  1       21 0.15277370E-01 0.30000000E+03</pdfrwt>
<pdfrwt beam="2">0</pdfrwt>
<totfact> 0.39805722E+03</totfact>
</mgrwt>
</event>
<event>
 6    1  0.1284012E-001  0.3000000E+03  0.7818608E-02  0.1093470E+00
         21   -1    0    0  501  502  0.00000000000E+00  0.00000000000E+00  0.19999831318E+01  0.19999831318E+01  0.00000000000E+00 0. -1.
         13   -1    0    0    0    0 -0.00000000000E+00 -0.00000000000E+00 -0.10000000000E+04  0.10000000000E+04  0.00000000000E+00 0.  1.
    9000005    2    1    2  501    0 -0.20920417978E+02  0.39062015987E+02 -0.55948752925E+03  0.56125435720E+03  0.40808219657E+01 0.  0.
         13    1    3    3    0    0 -0.13564279526E+02  0.21197735194E+02 -0.30968911547E+03  0.31070996427E+03  0.00000000000E+00 0.  1.
          3    1    3    3  501    0 -0.73561384516E+01  0.17864280793E+02 -0.24979841378E+03  0.25054439293E+03  0.00000000000E+00 0.  1.
         -1    1    1    2    0  502  0.20920417978E+02 -0.39062015987E+02 -0.43851248762E+03  0.44074562594E+03  0.00000000000E+00 0. -1.
<mgrwt>
<rscale>  1 0.30000000E+03</rscale>
<asrwt>0</asrwt>
<pdfrwt beam="1">  1       21 0.72726813E-02 0.30000000E+03</pdfrwt>
<pdfrwt beam="2">0</pdfrwt>
<totfact> 0.15095455E+04</totfact>
</mgrwt>
</event>
<event>
 6    1  0.1284012E-001  0.3000000E+03  0.7818608E-02  0.1093470E+00
         21   -1    0    0  501  502  0.00000000000E+00  0.00000000000E+00  0.15446150871E+01  0.15446150871E+01  0.00000000000E+00 0. -1.
         13   -1    0    0    0    0 -0.00000000000E+00 -0.00000000000E+00 -0.10000000000E+04  0.10000000000E+04  0.00000000000E+00 0.  1.
    9000005    2    1    2  501    0 -0.25600817771E+02  0.21501946948E+02 -0.76124968152E+03  0.76199445058E+03  0.40901721019E+01 0.  0.
         13    1    3    3    0    0 -0.25606119659E+01  0.39669399263E+01 -0.11197576630E+03  0.11207526749E+03  0.00000000000E+00 0.  1.
          3    1    3    3  501    0 -0.23040205805E+02  0.17535007022E+02 -0.64927391522E+03  0.64991918308E+03  0.00000000000E+00 0.  1.
         -3    1    1    2    0  502  0.25600817771E+02 -0.21501946948E+02 -0.23720570340E+03  0.23955016451E+03  0.00000000000E+00 0. -1.
<mgrwt>
<rscale>  1 0.30000000E+03</rscale>
<asrwt>0</asrwt>
<pdfrwt beam="1">  1       21 0.56167940E-02 0.30000000E+03</pdfrwt>
<pdfrwt beam="2">0</pdfrwt>
<totfact> 0.23607355E+04</totfact>
</mgrwt>
</event>
<event>
 6    1  0.1284012E-001  0.3000000E+03  0.7818608E-02  0.1093470E+00
         21   -1    0    0  501  502  0.00000000000E+00  0.00000000000E+00  0.27058568715E+01  0.27058568715E+01  0.00000000000E+00 0. -1.
         13   -1    0    0    0    0 -0.00000000000E+00 -0.00000000000E+00 -0.10000000000E+04  0.10000000000E+04  0.00000000000E+00 0.  1.
    9000005    2    1    2  501    0  0.43010967620E+02  0.99478235200E+01 -0.76335386711E+03  0.76463663317E+03  0.33394357330E+01 0.  0.
         13    1    3    3    0    0  0.38251719276E+02  0.87315318200E+01 -0.65863889518E+03  0.65980650794E+03  0.00000000000E+00 0.  1.
          1    1    3    3  501    0  0.47592483441E+01  0.12162917000E+01 -0.10471497193E+03  0.10483012523E+03  0.00000000000E+00 0.  1.
         -1    1    1    2    0  502 -0.43010967620E+02 -0.99478235200E+01 -0.23394027602E+03  0.23806922370E+03  0.00000000000E+00 0. -1.
<mgrwt>
<rscale>  1 0.30000000E+03</rscale>
<asrwt>0</asrwt>
<pdfrwt beam="1">  1       21 0.98395003E-02 0.30000000E+03</pdfrwt>
<pdfrwt beam="2">0</pdfrwt>
<totfact> 0.88554372E+03</totfact>
</mgrwt>
</event>
<event>
 6    1  0.1284012E-001  0.3000000E+03  0.7818608E-02  0.1093470E+00
         21   -1    0    0  501  502  0.00000000000E+00  0.00000000000E+00  0.13267907907E+01  0.13267907907E+01  0.00000000000E+00 0. -1.
         13   -1    0    0    0    0 -0.00000000000E+00 -0.00000000000E+00 -0.10000000000E+04  0.10000000000E+04  0.00000000000E+00 0.  1.
    9000005    2    1    2  501    0  0.33817637096E+02  0.10553853458E+02 -0.38971358052E+03  0.39133757304E+03  0.36612604029E+01 0.  0.
         13    1    3    3    0    0  0.22988240643E+02  0.85616512761E+01 -0.25709283862E+03  0.25826050559E+03  0.00000000000E+00 0.  1.
          3    1    3    3  501    0  0.10829396454E+02  0.19922021815E+01 -0.13262074190E+03  0.13307706745E+03  0.00000000000E+00 0.  1.
         -3    1    1    2    0  502 -0.33817637096E+02 -0.10553853458E+02 -0.60895962869E+03  0.60998921775E+03  0.00000000000E+00 0. -1.
<mgrwt>
<rscale>  1 0.30000000E+03</rscale>
<asrwt>0</asrwt>
<pdfrwt beam="1">  1       21 0.48247040E-02 0.30000000E+03</pdfrwt>
<pdfrwt beam="2">0</pdfrwt>
<totfact> 0.30609961E+04</totfact>
</mgrwt>
</event>
<event>
 6    1  0.1284012E-001  0.3000000E+03  0.7818608E-02  0.1093470E+00
         21   -1    0    0  501  502  0.00000000000E+00  0.00000000000E+00  0.21006361391E+01  0.21006361391E+01  0.00000000000E+00 0. -1.
         13   -1    0    0    0    0 -0.00000000000E+00 -0.00000000000E+00 -0.10000000000E+04  0.10000000000E+04  0.00000000000E+00 0.  1.
    9000005    2    1    2  501    0  0.18488320042E+02 -0.35044086380E+02 -0.75010110233E+03  0.75115465712E+03  0.34277147021E+01 0.  0.
         13    1    3    3    0    0  0.12812583059E+02 -0.24004138316E+02 -0.48412537502E+03  0.48488940974E+03  0.00000000000E+00 0.  1.
          1    1    3    3  501    0  0.56757369829E+01 -0.11039948064E+02 -0.26597572731E+03  0.26626524738E+03  0.00000000000E+00 0.  1.
         -3    1    1    2    0  502 -0.18488320042E+02  0.35044086380E+02 -0.24779826153E+03  0.25094597902E+03  0.00000000000E+00 0. -1.
<mgrwt>
<rscale>  1 0.30000000E+03</rscale>
<asrwt>0</asrwt>
<pdfrwt beam="1">  1       21 0.76386930E-02 0.30000000E+03</pdfrwt>
<pdfrwt beam="2">0</pdfrwt>
<totfact> 0.13852652E+04</totfact>
</mgrwt>
</event>
<event>
 6    1  0.1284012E-001  0.3000000E+03  0.7818608E-02  0.1093470E+00
         21   -1    0    0  501  502  0.00000000000E+00  0.00000000000E+00  0.18010041759E+01  0.18010041759E+01  0.00000000000E+00 0. -1.
         13   -1    0    0    0    0 -0.00000000000E+00 -0.00000000000E+00 -0.10000000000E+04  0.10000000000E+04  0.00000000000E+00 0.  1.
    9000005    2    1    2  501    0  0.26416501062E+01 -0.40569632282E+02 -0.64115980825E+03  0.64245457684E+03  0.30183112417E+01 0.  0.
         13    1    3    3    0    0  0.24446938179E+01 -0.36648835882E+02 -0.59192771664E+03  0.59306621504E+03  0.00000000000E+00 0.  1.
          1    1    3    3  501    0  0.19695628826E+00 -0.39207964001E+01 -0.49232091614E+02  0.49388361796E+02  0.00000000000E+00 0.  1.
         -3    1    1    2    0  502 -0.26416501062E+01  0.40569632282E+02 -0.35703918757E+03  0.35934642734E+03  0.00000000000E+00 0. -1.
<mgrwt>
<rscale>  1 0.30000000E+03</rscale>
<asrwt>0</asrwt>
<pdfrwt beam="1">  1       21 0.65491199E-02 0.30000000E+03</pdfrwt>
<pdfrwt beam="2">0</pdfrwt>
<totfact> 0.18112355E+04</totfact>
</mgrwt>
</event>
<event>
 6    1  0.1284012E-001  0.3000000E+03  0.7818608E-02  0.1093470E+00
         21   -1    0    0  501  502  0.00000000000E+00  0.00000000000E+00  0.46510096759E+01  0.46510096759E+01  0.00000000000E+00 0. -1.
         13   -1    0    0    0    0 -0.00000000000E+00 -0.00000000000E+00 -0.10000000000E+04  0.10000000000E+04  0.00000000000E+00 0.  1.
    9000005    2    1    2  501    0  0.31288476017E+02  0.29052744204E+02 -0.88929027709E+03  0.89032043052E+03  0.32002182212E+01 0.  0.
         13    1    3    3    0    0  0.15092414782E+02  0.11888875803E+02 -0.40593953460E+03  0.40639393709E+03  0.00000000000E+00 0.  1.
          3    1    3    3  501    0  0.16196061235E+02  0.17163868401E+02 -0.48335074249E+03  0.48392649343E+03  0.00000000000E+00 0.  1.
         -3    1    1    2    0  502 -0.31288476017E+02 -0.29052744204E+02 -0.10605871323E+03  0.11433057915E+03  0.00000000000E+00 0. -1.
<mgrwt>
<rscale>  1 0.30000000E+03</rscale>
<asrwt>0</asrwt>
<pdfrwt beam="1">  1       21 0.16912798E-01 0.30000000E+03</pdfrwt>
<pdfrwt beam="2">0</pdfrwt>
<totfact> 0.32930807E+03</totfact>
</mgrwt>
</event>
<event>
 6    1  0.1284012E-001  0.3000000E+03  0.7818608E-02  0.1093470E+00
         21   -1    0    0  501  502  0.00000000000E+00  0.00000000000E+00  0.13262714367E+01  0.13262714367E+01  0.00000000000E+00 0. -1.
         13   -1    0    0    0    0 -0.00000000000E+00 -0.00000000000E+00 -0.10000000000E+04  0.10000000000E+04  0.00000000000E+00 0.  1.
    9000005    2    1    2  501    0  0.33985754074E+02 -0.12790116996E+02 -0.51977843576E+03  0.52105622236E+03  0.33683830342E+01 0.  0.
         13    1    3    3    0    0  0.32777153260E+02 -0.12468950294E+02 -0.50871964413E+03  0.50992694851E+03  0.00000000000E+00 0.  1.
          1    1    3    3  501    0  0.12086008135E+01 -0.32116670138E+00 -0.11058791634E+02  0.11129273848E+02  0.00000000000E+00 0.  1.
         -1    1    1    2    0  502 -0.33985754074E+02  0.12790116996E+02 -0.47889529280E+03  0.48027004908E+03  0.00000000000E+00 0. -1.
<mgrwt>
<rscale>  1 0.30000000E+03</rscale>
<asrwt>0</asrwt>
<pdfrwt beam="1">  1       21 0.48228154E-02 0.30000000E+03</pdfrwt>
<pdfrwt beam="2">0</pdfrwt>
<totfact> 0.30630364E+04</totfact>
</mgrwt>
</event>
<event>
 6    1  0.1284012E-001  0.3000000E+03  0.7818608E-02  0.1093470E+00
         21   -1    0    0  501  502  0.00000000000E+00  0.00000000000E+00  0.20781718673E+01  0.20781718673E+01  0.00000000000E+00 0. -1.
         13   -1    0    0    0    0 -0.00000000000E+00 -0.00000000000E+00 -0.10000000000E+04  0.10000000000E+04  0.00000000000E+00 0.  1.
    9000005    2    1    2  501    0  0.11205160706E+02  0.30369344906E+02 -0.85162283861E+03  0.85224076975E+03  0.22400119270E+01 0.  0.
         13    1    3    3    0    0  0.10131167556E+02  0.27093737176E+02 -0.74148732208E+03  0.74205131895E+03  0.00000000000E+00 0.  1.
          1    1    3    3  501    0  0.10739931497E+01  0.32756077309E+01 -0.11013551653E+03  0.11018945080E+03  0.00000000000E+00 0.  1.
         -1    1    1    2    0  502 -0.11205160706E+02 -0.30369344906E+02 -0.14629898953E+03  0.14983740212E+03  0.00000000000E+00 0. -1.
<mgrwt>
<rscale>  1 0.30000000E+03</rscale>
<asrwt>0</asrwt>
<pdfrwt beam="1">  1       21 0.75570045E-02 0.30000000E+03</pdfrwt>
<pdfrwt beam="2">0</pdfrwt>
<totfact> 0.14116045E+04</totfact>
</mgrwt>
</event>
<event>
 6    1  0.1284012E-001  0.3000000E+03  0.7818608E-02  0.1093470E+00
         21   -1    0    0  501  502  0.00000000000E+00  0.00000000000E+00  0.17360622785E+01  0.17360622785E+01  0.00000000000E+00 0. -1.
         13   -1    0    0    0    0 -0.00000000000E+00 -0.00000000000E+00 -0.10000000000E+04  0.10000000000E+04  0.00000000000E+00 0.  1.
    9000005    2    1    2  501    0 -0.39073731572E+01  0.34592124814E+02 -0.77221898443E+03  0.77302619460E+03  0.59544069648E+01 0.  0.
         13    1    3    3    0    0 -0.14436117418E+01  0.22471710336E+02 -0.55339909726E+03  0.55385704169E+03  0.00000000000E+00 0.  1.
          1    1    3    3  501    0 -0.24637614155E+01  0.12120414478E+02 -0.21881988717E+03  0.21916915291E+03  0.00000000000E+00 0.  1.
         -1    1    1    2    0  502  0.39073731572E+01 -0.34592124814E+02 -0.22604495329E+03  0.22870986768E+03  0.00000000000E+00 0. -1.
<mgrwt>
<rscale>  1 0.30000000E+03</rscale>
<asrwt>0</asrwt>
<pdfrwt beam="1">  1       21 0.63129671E-02 0.30000000E+03</pdfrwt>
<pdfrwt beam="2">0</pdfrwt>
<totfact> 0.19300693E+04</totfact>
</mgrwt>
</event>
<event>
 6    1  0.1284012E-001  0.3000000E+03  0.7818608E-02  0.1093470E+00
         21   -1    0    0  501  502  0.00000000000E+00  0.00000000000E+00  0.34298100212E+01  0.34298100212E+01  0.00000000000E+00 0. -1.
         13   -1    0    0    0    0 -0.00000000000E+00 -0.00000000000E+00 -0.10000000000E+04  0.10000000000E+04  0.00000000000E+00 0.  1.
    9000005    2    1    2  501    0 -0.19449101990E+02 -0.55021306468E+02 -0.53565996918E+03  0.53883983664E+03  0.33399445853E+01 0.  0.
         13    1    3    3    0    0 -0.16371270599E+02 -0.48622132113E+02 -0.47734104677E+03  0.48009020524E+03  0.00000000000E+00 0.  1.
          3    1    3    3  501    0 -0.30778313906E+01 -0.63991743552E+01 -0.58318922409E+02  0.58749631398E+02  0.00000000000E+00 0.  1.
         -1    1    1    2    0  502  0.19449101990E+02  0.55021306468E+02 -0.46091022080E+03  0.46458997338E+03  0.00000000000E+00 0. -1.
<mgrwt>
<rscale>  1 0.30000000E+03</rscale>
<asrwt>0</asrwt>
<pdfrwt beam="1">  1       21 0.12472063E-01 0.30000000E+03</pdfrwt>
<pdfrwt beam="2">0</pdfrwt>
<totfact> 0.57771884E+03</totfact>
</mgrwt>
</event>
<event>
 6    1  0.1284012E-001  0.3000000E+03  0.7818608E-02  0.1093470E+00
         21   -1    0    0  501  502  0.00000000000E+00  0.00000000000E+00  0.21008053352E+01  0.21008053352E+01  0.00000000000E+00 0. -1.
         13   -1    0    0    0    0 -0.00000000000E+00 -0.00000000000E+00 -0.10000000000E+04  0.10000000000E+04  0.00000000000E+00 0.  1.
    9000005    2    1    2  501    0  0.29931843348E+02 -0.66313297002E+01 -0.87116888453E+03  0.87171498829E+03  0.34504573027E+01 0.  0.
         13    1    3    3    0    0  0.15584558542E+01 -0.11065626672E+01 -0.45020827363E+02  0.45061382159E+02  0.00000000000E+00 0.  1.
          3    1    3    3  501    0  0.28373387494E+02 -0.55247670330E+01 -0.82614805716E+03  0.82665360613E+03  0.00000000000E+00 0.  1.
         -3    1    1    2    0  502 -0.29931843348E+02  0.66313297002E+01 -0.12673031014E+03  0.13038581705E+03  0.00000000000E+00 0. -1.
<mgrwt>
<rscale>  1 0.30000000E+03</rscale>
<asrwt>0</asrwt>
<pdfrwt beam="1">  1       21 0.76393082E-02 0.30000000E+03</pdfrwt>
<pdfrwt beam="2">0</pdfrwt>
<totfact> 0.13850697E+04</totfact>
</mgrwt>
</event>
<event>
 6    1  0.1284012E-001  0.3000000E+03  0.7818608E-02  0.1093470E+00
         21   -1    0    0  501  502  0.00000000000E+00  0.00000000000E+00  0.10343652701E+01  0.10343652701E+01  0.00000000000E+00 0. -1.
         13   -1    0    0    0    0 -0.00000000000E+00 -0.00000000000E+00 -0.10000000000E+04  0.10000000000E+04  0.00000000000E+00 0.  1.
    9000005    2    1    2  501    0  0.25796824047E+02 -0.17115613845E+02 -0.39923031062E+03  0.40050053662E+03  0.75775026776E+01 0.  0.
         13    1    3    3    0    0  0.20702869739E+01 -0.46013064154E+01 -0.64891467669E+02  0.65087331218E+02  0.00000000000E+00 0.  1.
          1    1    3    3  501    0  0.23726537073E+02 -0.12514307430E+02 -0.33433884295E+03  0.33541320540E+03  0.00000000000E+00 0.  1.
         -1    1    1    2    0  502 -0.25796824047E+02  0.17115613845E+02 -0.59973532411E+03  0.60053382865E+03  0.00000000000E+00 0. -1.
<mgrwt>
<rscale>  1 0.30000000E+03</rscale>
<asrwt>0</asrwt>
<pdfrwt beam="1">  1       21 0.37613362E-02 0.30000000E+03</pdfrwt>
<pdfrwt beam="2">0</pdfrwt>
<totfact> 0.46630302E+04</totfact>
</mgrwt>
</event>
<event>
 6    1  0.1284012E-001  0.3000000E+03  0.7818608E-02  0.1093470E+00
         21   -1    0    0  501  502  0.00000000000E+00  0.00000000000E+00  0.14942476785E+01  0.14942476785E+01  0.00000000000E+00 0. -1.
         13   -1    0    0    0    0 -0.00000000000E+00 -0.00000000000E+00 -0.10000000000E+04  0.10000000000E+04  0.00000000000E+00 0.  1.
    9000005    2    1    2  501    0  0.24944678614E+01  0.38274214872E+02 -0.44628647891E+03  0.44794455359E+03  0.34005797462E+01 0.  0.
         13    1    3    3    0    0  0.87951116722E+00  0.25237657848E+02 -0.30968554595E+03  0.31071345366E+03  0.00000000000E+00 0.  1.
          1    1    3    3  501    0  0.16149566942E+01  0.13036557025E+02 -0.13660093295E+03  0.13723109993E+03  0.00000000000E+00 0.  1.
         -3    1    1    2    0  502 -0.24944678614E+01 -0.38274214872E+02 -0.55221927342E+03  0.55354969409E+03  0.00000000000E+00 0. -1.
<mgrwt>
<rscale>  1 0.30000000E+03</rscale>
<asrwt>0</asrwt>
<pdfrwt beam="1">  1       21 0.54336394E-02 0.30000000E+03</pdfrwt>
<pdfrwt beam="2">0</pdfrwt>
<totfact> 0.24988672E+04</totfact>
</mgrwt>
</event>
<event>
 6    1  0.1284012E-001  0.3000000E+03  0.7818608E-02  0.1093470E+00
         21   -1    0    0  501  502  0.00000000000E+00  0.00000000000E+00  0.23212424687E+01  0.23212424687E+01  0.00000000000E+00 0. -1.
         13   -1    0    0    0    0 -0.00000000000E+00 -0.00000000000E+00 -0.10000000000E+04  0.10000000000E+04  0.00000000000E+00 0.  1.
    9000005    2    1    2  501    0 -0.47216562286E+02  0.55807949084E+01 -0.57583222533E+03  0.57780381556E+03  0.37347706602E+01 0.  0.
         13    1    3    3    0    0 -0.91327970470E+01 -0.36344819734E+00 -0.10658437169E+03  0.10697555031E+03  0.00000000000E+00 0.  1.
          1    1    3    3  501    0 -0.38083765239E+02  0.59442431058E+01 -0.46924785365E+03  0.47082826524E+03  0.00000000000E+00 0.  1.
         -1    1    1    2    0  502  0.47216562286E+02 -0.55807949084E+01 -0.42184653220E+03  0.42451742691E+03  0.00000000000E+00 0. -1.
<mgrwt>
<rscale>  1 0.30000000E+03</rscale>
<asrwt>0</asrwt>
<pdfrwt beam="1">  1       21 0.84408995E-02 0.30000000E+03</pdfrwt>
<pdfrwt beam="2">0</pdfrwt>
<totfact> 0.11623358E+04</totfact>
</mgrwt>
</event>
<event>
 6    1  0.1284012E-001  0.3000000E+03  0.7818608E-02  0.1093470E+00
         21   -1    0    0  501  502  0.00000000000E+00  0.00000000000E+00  0.17717192093E+01  0.17717192093E+01  0.00000000000E+00 0. -1.
         13   -1    0    0    0    0 -0.00000000000E+00 -0.00000000000E+00 -0.10000000000E+04  0.10000000000E+04  0.00000000000E+00 0.  1.
    9000005    2    1    2  501    0  0.31836923073E+02  0.26684748051E+02 -0.50199523684E+03  0.50380294573E+03  0.96189848463E+01 0.  0.
         13    1    3    3    0    0  0.16948480479E+02  0.13066913380E+02 -0.31387986089E+03  0.31460858585E+03  0.00000000000E+00 0.  1.
          1    1    3    3  501    0  0.14888442594E+02  0.13617834671E+02 -0.18811537595E+03  0.18919435989E+03  0.00000000000E+00 0.  1.
         -3    1    1    2    0  502 -0.31836923073E+02 -0.26684748051E+02 -0.49623304395E+03  0.49796877347E+03  0.00000000000E+00 0. -1.
<mgrwt>
<rscale>  1 0.30000000E+03</rscale>
<asrwt>0</asrwt>
<pdfrwt beam="1">  1       21 0.64426289E-02 0.30000000E+03</pdfrwt>
<pdfrwt beam="2">0</pdfrwt>
<totfact> 0.18633812E+04</totfact>
</mgrwt>
</event>
<event>
 6    1  0.1284012E-001  0.3000000E+03  0.7818608E-02  0.1093470E+00
         21   -1    0    0  501  502  0.00000000000E+00  0.00000000000E+00  0.15935531028E+01  0.15935531028E+01  0.00000000000E+00 0. -1.
         13   -1    0    0    0    0 -0.00000000000E+00 -0.00000000000E+00 -0.10000000000E+04  0.10000000000E+04  0.00000000000E+00 0.  1.
    9000005    2    1    2  501    0 -0.14598992333E+02 -0.30630204273E+02 -0.75983077131E+03  0.76061701281E+03  0.66407191613E+01 0.  0.
         13    1    3    3    0    0 -0.56964339508E+01 -0.80006786765E+01 -0.27729559089E+03  0.27746946669E+03  0.00000000000E+00 0.  1.
          3    1    3    3  501    0 -0.89025583824E+01 -0.22629525597E+02 -0.48253518043E+03  0.48314754612E+03  0.00000000000E+00 0.  1.
         -3    1    1    2    0  502  0.14598992333E+02  0.30630204273E+02 -0.23857567558E+03  0.24097654029E+03  0.00000000000E+00 0. -1.
<mgrwt>
<rscale>  1 0.30000000E+03</rscale>
<asrwt>0</asrwt>
<pdfrwt beam="1">  1       21 0.57947508E-02 0.30000000E+03</pdfrwt>
<pdfrwt beam="2">0</pdfrwt>
<totfact> 0.22374433E+04</totfact>
</mgrwt>
</event>
<event>
 6    1  0.1284012E-001  0.3000000E+03  0.7818608E-02  0.1093470E+00
         21   -1    0    0  501  502  0.00000000000E+00  0.00000000000E+00  0.19853093033E+01  0.19853093033E+01  0.00000000000E+00 0. -1.
         13   -1    0    0    0    0 -0.00000000000E+00 -0.00000000000E+00 -0.10000000000E+04  0.10000000000E+04  0.00000000000E+00 0.  1.
    9000005    2    1    2  501    0 -0.22602703832E+02  0.29923618846E+02 -0.76888072419E+03  0.76980288148E+03  0.35500859275E+01 0.  0.
         13    1    3    3    0    0 -0.19714360632E+02  0.27148991343E+02 -0.66674637539E+03  0.66759003351E+03  0.00000000000E+00 0.  1.
          1    1    3    3  501    0 -0.28883432001E+01  0.27746275025E+01 -0.10213434881E+03  0.10221284797E+03  0.00000000000E+00 0.  1.
         -1    1    1    2    0  502  0.22602703832E+02 -0.29923618846E+02 -0.22913396650E+03  0.23218242782E+03  0.00000000000E+00 0. -1.
<mgrwt>
<rscale>  1 0.30000000E+03</rscale>
<asrwt>0</asrwt>
<pdfrwt beam="1">  1       21 0.72193218E-02 0.30000000E+03</pdfrwt>
<pdfrwt beam="2">0</pdfrwt>
<totfact> 0.15290748E+04</totfact>
</mgrwt>
</event>
<event>
 6    1  0.1284012E-001  0.3000000E+03  0.7818608E-02  0.1093470E+00
         21   -1    0    0  501  502  0.00000000000E+00  0.00000000000E+00  0.49103584502E+01  0.49103584502E+01  0.00000000000E+00 0. -1.
         13   -1    0    0    0    0 -0.00000000000E+00 -0.00000000000E+00 -0.10000000000E+04  0.10000000000E+04  0.00000000000E+00 0.  1.
    9000005    2    1    2  501    0 -0.72525199101E+01  0.40311488911E+02 -0.90516013757E+03  0.90609269369E+03  0.33881739197E+01 0.  0.
         13    1    3    3    0    0 -0.41146177663E+01  0.22565373964E+02 -0.46946969814E+03  0.47002970507E+03  0.00000000000E+00 0.  1.
          3    1    3    3  501    0 -0.31379021439E+01  0.17746114947E+02 -0.43569043944E+03  0.43606298862E+03  0.00000000000E+00 0.  1.
         -1    1    1    2    0  502  0.72525199101E+01 -0.40311488911E+02 -0.89929503978E+02  0.98817664762E+02  0.00000000000E+00 0. -1.
<mgrwt>
<rscale>  1 0.30000000E+03</rscale>
<asrwt>0</asrwt>
<pdfrwt beam="1">  1       21 0.17855887E-01 0.30000000E+03</pdfrwt>
<pdfrwt beam="2">0</pdfrwt>
<totfact> 0.29742235E+03</totfact>
</mgrwt>
</event>
<event>
 6    1  0.1284012E-001  0.3000000E+03  0.7818608E-02  0.1093470E+00
         21   -1    0    0  501  502  0.00000000000E+00  0.00000000000E+00  0.14523529637E+01  0.14523529637E+01  0.00000000000E+00 0. -1.
         13   -1    0    0    0    0 -0.00000000000E+00 -0.00000000000E+00 -0.10000000000E+04  0.10000000000E+04  0.00000000000E+00 0.  1.
    9000005    2    1    2  501    0  0.31923345903E+02  0.51547414677E+01 -0.76361864207E+03  0.76430828547E+03  0.28378420131E+01 0.  0.
         13    1    3    3    0    0  0.23601567607E+02  0.45029352130E+01 -0.59016877827E+03  0.59065768196E+03  0.00000000000E+00 0.  1.
          3    1    3    3  501    0  0.83217782959E+01  0.65180625476E+00 -0.17344986381E+03  0.17365060351E+03  0.00000000000E+00 0.  1.
         -3    1    1    2    0  502 -0.31923345903E+02 -0.51547414677E+01 -0.23492900496E+03  0.23714406749E+03  0.00000000000E+00 0. -1.
<mgrwt>
<rscale>  1 0.30000000E+03</rscale>
<asrwt>0</asrwt>
<pdfrwt beam="1">  1       21 0.52812946E-02 0.30000000E+03</pdfrwt>
<pdfrwt beam="2">0</pdfrwt>
<totfact> 0.26235009E+04</totfact>
</mgrwt>
</event>
<event>
 6    1  0.1284012E-001  0.3000000E+03  0.7818608E-02  0.1093470E+00
         21   -1    0    0  501  502  0.00000000000E+00  0.00000000000E+00  0.51716663691E+01  0.51716663691E+01  0.00000000000E+00 0. -1.
         13   -1    0    0    0    0 -0.00000000000E+00 -0.00000000000E+00 -0.10000000000E+04  0.10000000000E+04  0.00000000000E+00 0.  1.
    9000005    2    1    2  501    0  0.31458723945E+02 -0.26913920793E+02 -0.90830311643E+03  0.90925178493E+03  0.32010352583E+01 0.  0.
         13    1    3    3    0    0  0.53248298466E+01 -0.46618239568E+01 -0.18342197269E+03  0.18355845521E+03  0.00000000000E+00 0.  1.
          3    1    3    3  501    0  0.26133894098E+02 -0.22252096836E+02 -0.72488114375E+03  0.72569332972E+03  0.00000000000E+00 0.  1.
         -3    1    1    2    0  502 -0.31458723945E+02  0.26913920793E+02 -0.86525217198E+02  0.95919881442E+02  0.00000000000E+00 0. -1.
<mgrwt>
<rscale>  1 0.30000000E+03</rscale>
<asrwt>0</asrwt>
<pdfrwt beam="1">  1       21 0.18806099E-01 0.30000000E+03</pdfrwt>
<pdfrwt beam="2">0</pdfrwt>
<totfact> 0.26969851E+03</totfact>
</mgrwt>
</event>
<event>
 6    1  0.1284012E-001  0.3000000E+03  0.7818608E-02  0.1093470E+00
         21   -1    0    0  501  502  0.00000000000E+00  0.00000000000E+00  0.21321293087E+01  0.21321293087E+01  0.00000000000E+00 0. -1.
         13   -1    0    0    0    0 -0.00000000000E+00 -0.00000000000E+00 -0.10000000000E+04  0.10000000000E+04  0.00000000000E+00 0.  1.
    9000005    2    1    2  501    0 -0.42874872856E+02  0.17001098562E+02 -0.49563064694E+03  0.49778153597E+03  0.30703903000E+01 0.  0.
         13    1    3    3    0    0 -0.39341881479E+02  0.14866312787E+02 -0.45688408430E+03  0.45881571178E+03  0.00000000000E+00 0.  1.
          1    1    3    3  501    0 -0.35329913769E+01  0.21347857744E+01 -0.38746562637E+02  0.38965824187E+02  0.00000000000E+00 0.  1.
         -3    1    1    2    0  502  0.42874872856E+02 -0.17001098562E+02 -0.50223722376E+03  0.50435059334E+03  0.00000000000E+00 0. -1.
<mgrwt>
<rscale>  1 0.30000000E+03</rscale>
<asrwt>0</asrwt>
<pdfrwt beam="1">  1       21 0.77532138E-02 0.30000000E+03</pdfrwt>
<pdfrwt beam="2">0</pdfrwt>
<totfact> 0.13495979E+04</totfact>
</mgrwt>
</event>
<event>
 6    1  0.1284012E-001  0.3000000E+03  0.7818608E-02  0.1093470E+00
         21   -1    0    0  501  502  0.00000000000E+00  0.00000000000E+00  0.26563445199E+01  0.26563445199E+01  0.00000000000E+00 0. -1.
         13   -1    0    0    0    0 -0.00000000000E+00 -0.00000000000E+00 -0.10000000000E+04  0.10000000000E+04  0.00000000000E+00 0.  1.
    9000005    2    1    2  501    0  0.37279768328E+02  0.25321485391E+01 -0.16021897316E+03  0.16469815544E+03  0.76922130018E+01 0.  0.
         13    1    3    3    0    0  0.32935308838E+02  0.12018342663E+01 -0.12867289327E+03  0.13282655020E+03  0.00000000000E+00 0.  1.
          3    1    3    3  501    0  0.43444594902E+01  0.13303142729E+01 -0.31546079889E+02  0.31871605242E+02  0.00000000000E+00 0.  1.
         -1    1    1    2    0  502 -0.37279768328E+02 -0.25321485391E+01 -0.83712468232E+03  0.83795818908E+03  0.00000000000E+00 0. -1.
<mgrwt>
<rscale>  1 0.30000000E+03</rscale>
<asrwt>0</asrwt>
<pdfrwt beam="1">  1       21 0.96594550E-02 0.30000000E+03</pdfrwt>
<pdfrwt beam="2">0</pdfrwt>
<totfact> 0.91520975E+03</totfact>
</mgrwt>
</event>
<event>
 6    1  0.1284012E-001  0.3000000E+03  0.7818608E-02  0.1093470E+00
         21   -1    0    0  501  502  0.00000000000E+00  0.00000000000E+00  0.34332681849E+01  0.34332681849E+01  0.00000000000E+00 0. -1.
         13   -1    0    0    0    0 -0.00000000000E+00 -0.00000000000E+00 -0.10000000000E+04  0.10000000000E+04  0.00000000000E+00 0.  1.
    9000005    2    1    2  501    0 -0.42746756037E+02 -0.15350596065E+02 -0.18353508394E+03  0.18913394582E+03  0.48576202761E+01 0.  0.
         13    1    3    3    0    0 -0.35879763981E+02 -0.12664742193E+02 -0.16045164097E+03  0.16490143191E+03  0.00000000000E+00 0.  1.
          1    1    3    3  501    0 -0.68669920562E+01 -0.26858538716E+01 -0.23083442975E+02  0.24232513912E+02  0.00000000000E+00 0.  1.
         -3    1    1    2    0  502  0.42746756037E+02  0.15350596065E+02 -0.81303164787E+03  0.81429932236E+03  0.00000000000E+00 0. -1.
<mgrwt>
<rscale>  1 0.30000000E+03</rscale>
<asrwt>0</asrwt>
<pdfrwt beam="1">  1       21 0.12484638E-01 0.30000000E+03</pdfrwt>
<pdfrwt beam="2">0</pdfrwt>
<totfact> 0.57665952E+03</totfact>
</mgrwt>
</event>
<event>
 6    1  0.1284012E-001  0.3000000E+03  0.7818608E-02  0.1093470E+00
         21   -1    0    0  501  502  0.00000000000E+00  0.00000000000E+00  0.17393520338E+01  0.17393520338E+01  0.00000000000E+00 0. -1.
         13   -1    0    0    0    0 -0.00000000000E+00 -0.00000000000E+00 -0.10000000000E+04  0.10000000000E+04  0.00000000000E+00 0.  1.
    9000005    2    1    2  501    0  0.29695335762E+02  0.29146434257E+02 -0.51879660948E+03  0.52047321797E+03  0.33348192570E+01 0.  0.
         13    1    3    3    0    0  0.27728083346E+02  0.25895628292E+02 -0.46970874944E+03  0.47123851654E+03  0.00000000000E+00 0.  1.
          1    1    3    3  501    0  0.19672524155E+01  0.32508059647E+01 -0.49087860046E+02  0.49234701435E+02  0.00000000000E+00 0.  1.
         -3    1    1    2    0  502 -0.29695335762E+02 -0.29146434257E+02 -0.47946403848E+03  0.48126613406E+03  0.00000000000E+00 0. -1.
<mgrwt>
<rscale>  1 0.30000000E+03</rscale>
<asrwt>0</asrwt>
<pdfrwt beam="1">  1       21 0.63249298E-02 0.30000000E+03</pdfrwt>
<pdfrwt beam="2">0</pdfrwt>
<totfact> 0.19237630E+04</totfact>
</mgrwt>
</event>
<event>
 6    1  0.1284012E-001  0.3000000E+03  0.7818608E-02  0.1093470E+00
         21   -1    0    0  501  502  0.00000000000E+00  0.00000000000E+00  0.11791901831E+01  0.11791901831E+01  0.00000000000E+00 0. -1.
         13   -1    0    0    0    0 -0.00000000000E+00 -0.00000000000E+00 -0.10000000000E+04  0.10000000000E+04  0.00000000000E+00 0.  1.
    9000005    2    1    2  501    0 -0.24684609779E+02 -0.17140910642E+02 -0.73562919610E+03  0.73627738516E+03  0.71367327662E+01 0.  0.
         13    1    3    3    0    0 -0.10557322147E+01  0.10820240903E+00 -0.67099629673E+02  0.67108021730E+02  0.00000000000E+00 0.  1.
          3    1    3    3  501    0 -0.23628877565E+02 -0.17249113051E+02 -0.66852956643E+03  0.66916936343E+03  0.00000000000E+00 0.  1.
         -1    1    1    2    0  502  0.24684609779E+02  0.17140910642E+02 -0.26319161371E+03  0.26490180503E+03  0.00000000000E+00 0. -1.
<mgrwt>
<rscale>  1 0.30000000E+03</rscale>
<asrwt>0</asrwt>
<pdfrwt beam="1">  1       21 0.42879733E-02 0.30000000E+03</pdfrwt>
<pdfrwt beam="2">0</pdfrwt>
<totfact> 0.37393432E+04</totfact>
</mgrwt>
</event>
<event>
 6    1  0.1284012E-001  0.3000000E+03  0.7818608E-02  0.1093470E+00
         21   -1    0    0  501  502  0.00000000000E+00  0.00000000000E+00  0.41545561894E+01  0.41545561894E+01  0.00000000000E+00 0. -1.
         13   -1    0    0    0    0 -0.00000000000E+00 -0.00000000000E+00 -0.10000000000E+04  0.10000000000E+04  0.00000000000E+00 0.  1.
    9000005    2    1    2  501    0 -0.14487358961E+02  0.31222221901E+02 -0.92235737287E+03  0.92300526610E+03  0.32995858183E+01 0.  0.
         13    1    3    3    0    0 -0.12082769020E+02  0.27816526039E+02 -0.82989332268E+03  0.83044727675E+03  0.00000000000E+00 0.  1.
          3    1    3    3  501    0 -0.24045899409E+01  0.34056958617E+01 -0.92464050186E+02  0.92557989357E+02  0.00000000000E+00 0.  1.
         -3    1    1    2    0  502  0.14487358961E+02 -0.31222221901E+02 -0.73488070944E+02  0.81149290084E+02  0.00000000000E+00 0. -1.
<mgrwt>
<rscale>  1 0.30000000E+03</rscale>
<asrwt>0</asrwt>
<pdfrwt beam="1">  1       21 0.15107509E-01 0.30000000E+03</pdfrwt>
<pdfrwt beam="2">0</pdfrwt>
<totfact> 0.40639368E+03</totfact>
</mgrwt>
</event>
<event>
 6    1  0.1284012E-001  0.3000000E+03  0.7818608E-02  0.1093470E+00
         21   -1    0    0  501  502  0.00000000000E+00  0.00000000000E+00  0.19483679272E+01  0.19483679272E+01  0.00000000000E+00 0. -1.
         13   -1    0    0    0    0 -0.00000000000E+00 -0.00000000000E+00 -0.10000000000E+04  0.10000000000E+04  0.00000000000E+00 0.  1.
    9000005    2    1    2  501    0  0.40066915749E+02  0.18200485105E+02 -0.53102668159E+03  0.53285464619E+03  0.28499148833E+01 0.  0.
         13    1    3    3    0    0  0.27049221001E+01  0.20451668983E+01 -0.42500122949E+02  0.42635193935E+02  0.00000000000E+00 0.  1.
          3    1    3    3  501    0  0.37361993648E+02  0.16155318207E+02 -0.48852655864E+03  0.49021945226E+03  0.00000000000E+00 0.  1.
         -1    1    1    2    0  502 -0.40066915749E+02 -0.18200485105E+02 -0.46702495048E+03  0.46909372173E+03  0.00000000000E+00 0. -1.
<mgrwt>
<rscale>  1 0.30000000E+03</rscale>
<asrwt>0</asrwt>
<pdfrwt beam="1">  1       21 0.70849892E-02 0.30000000E+03</pdfrwt>
<pdfrwt beam="2">0</pdfrwt>
<totfact> 0.15799772E+04</totfact>
</mgrwt>
</event>
<event>
 6    1  0.1284012E-001  0.3000000E+03  0.7818608E-02  0.1093470E+00
         21   -1    0    0  501  502  0.00000000000E+00  0.00000000000E+00  0.35716913138E+01  0.35716913138E+01  0.00000000000E+00 0. -1.
         13   -1    0    0    0    0 -0.00000000000E+00 -0.00000000000E+00 -0.10000000000E+04  0.10000000000E+04  0.00000000000E+00 0.  1.
    9000005    2    1    2  501    0 -0.24265977600E+02  0.29620633281E+02 -0.88332945200E+03  0.88416662036E+03  0.36704509813E+01 0.  0.
         13    1    3    3    0    0 -0.21916075592E+02  0.25105474623E+02 -0.74996545503E+03  0.75070552347E+03  0.00000000000E+00 0.  1.
          3    1    3    3  501    0 -0.23499020085E+01  0.45151586574E+01 -0.13336399697E+03  0.13346109690E+03  0.00000000000E+00 0.  1.
         -1    1    1    2    0  502  0.24265977600E+02 -0.29620633281E+02 -0.11309885669E+03  0.11940507095E+03  0.00000000000E+00 0. -1.
<mgrwt>
<rscale>  1 0.30000000E+03</rscale>
<asrwt>0</asrwt>
<pdfrwt beam="1">  1       21 0.12987996E-01 0.30000000E+03</pdfrwt>
<pdfrwt beam="2">0</pdfrwt>
<totfact> 0.53655683E+03</totfact>
</mgrwt>
</event>
<event>
 6    1  0.1284012E-001  0.3000000E+03  0.7818608E-02  0.1093470E+00
         21   -1    0    0  501  502  0.00000000000E+00  0.00000000000E+00  0.29732339978E+01  0.29732339978E+01  0.00000000000E+00 0. -1.
         13   -1    0    0    0    0 -0.00000000000E+00 -0.00000000000E+00 -0.10000000000E+04  0.10000000000E+04  0.00000000000E+00 0.  1.
    9000005    2    1    2  501    0  0.15086338183E+01  0.50381632433E+02 -0.68903989729E+03  0.69088911687E+03  0.33476698275E+01 0.  0.
         13    1    3    3    0    0  0.19046112011E+01  0.42019561869E+02 -0.55934858903E+03  0.56092790550E+03  0.00000000000E+00 0.  1.
          3    1    3    3  501    0 -0.39597738284E+00  0.83620705641E+01 -0.12969130826E+03  0.12996121137E+03  0.00000000000E+00 0.  1.
         -1    1    1    2    0  502 -0.15086338183E+01 -0.50381632433E+02 -0.30798686872E+03  0.31208411713E+03  0.00000000000E+00 0. -1.
<mgrwt>
<rscale>  1 0.30000000E+03</rscale>
<asrwt>0</asrwt>
<pdfrwt beam="1">  1       21 0.10811783E-01 0.30000000E+03</pdfrwt>
<pdfrwt beam="2">0</pdfrwt>
<totfact> 0.74805679E+03</totfact>
</mgrwt>
</event>
<event>
 6    1  0.1284012E-001  0.3000000E+03  0.7818608E-02  0.1093470E+00
         21   -1    0    0  501  502  0.00000000000E+00  0.00000000000E+00  0.23821503811E+01  0.23821503811E+01  0.00000000000E+00 0. -1.
         13   -1    0    0    0    0 -0.00000000000E+00 -0.00000000000E+00 -0.10000000000E+04  0.10000000000E+04  0.00000000000E+00 0.  1.
    9000005    2    1    2  501    0  0.40651568436E+02 -0.72492968647E+01 -0.76191046243E+03  0.76308510758E+03  0.92858127200E+01 0.  0.
         13    1    3    3    0    0  0.26292720333E+02 -0.33756410682E+00 -0.49855920267E+03  0.49925214036E+03  0.00000000000E+00 0.  1.
          3    1    3    3  501    0  0.14358848103E+02 -0.69117327579E+01 -0.26335125977E+03  0.26383296721E+03  0.00000000000E+00 0.  1.
         -1    1    1    2    0  502 -0.40651568436E+02  0.72492968647E+01 -0.23570738719E+03  0.23929704280E+03  0.00000000000E+00 0. -1.
<mgrwt>
<rscale>  1 0.30000000E+03</rscale>
<asrwt>0</asrwt>
<pdfrwt beam="1">  1       21 0.86623833E-02 0.30000000E+03</pdfrwt>
<pdfrwt beam="2">0</pdfrwt>
<totfact> 0.11104195E+04</totfact>
</mgrwt>
</event>
<event>
 6    1  0.1284012E-001  0.3000000E+03  0.7818608E-02  0.1093470E+00
         21   -1    0    0  501  502  0.00000000000E+00  0.00000000000E+00  0.76635291671E+01  0.76635291671E+01  0.00000000000E+00 0. -1.
         13   -1    0    0    0    0 -0.00000000000E+00 -0.00000000000E+00 -0.10000000000E+04  0.10000000000E+04  0.00000000000E+00 0.  1.
    9000005    2    1    2  501    0 -0.36229454702E+02  0.33937768742E+02 -0.91112313635E+03  0.91247975307E+03  0.30959046808E+01 0.  0.
         13    1    3    3    0    0 -0.81965481732E+00  0.14805315944E+01 -0.27612147279E+02  0.27663956427E+02  0.00000000000E+00 0.  1.
          1    1    3    3  501    0 -0.35409799884E+02  0.32457237147E+02 -0.88351098907E+03  0.88481579664E+03  0.00000000000E+00 0.  1.
         -1    1    1    2    0  502  0.36229454702E+02 -0.33937768742E+02 -0.81213334479E+02  0.95183776098E+02  0.00000000000E+00 0. -1.
<mgrwt>
<rscale>  1 0.30000000E+03</rscale>
<asrwt>0</asrwt>
<pdfrwt beam="1">  1       21 0.27867438E-01 0.30000000E+03</pdfrwt>
<pdfrwt beam="2">0</pdfrwt>
<totfact> 0.12591889E+03</totfact>
</mgrwt>
</event>
<event>
 6    1  0.1284012E-001  0.3000000E+03  0.7818608E-02  0.1093470E+00
         21   -1    0    0  501  502  0.00000000000E+00  0.00000000000E+00  0.37265323125E+01  0.37265323125E+01  0.00000000000E+00 0. -1.
         13   -1    0    0    0    0 -0.00000000000E+00 -0.00000000000E+00 -0.10000000000E+04  0.10000000000E+04  0.00000000000E+00 0.  1.
    9000005    2    1    2  501    0  0.19978675334E+02  0.48545440463E+02 -0.75384987861E+03  0.75568418956E+03  0.36259632862E+01 0.  0.
         13    1    3    3    0    0  0.76961775775E+01  0.19644189148E+02 -0.27827318152E+03  0.27907183460E+03  0.00000000000E+00 0.  1.
          3    1    3    3  501    0  0.12282497757E+02  0.28901251315E+02 -0.47557669710E+03  0.47661235496E+03  0.00000000000E+00 0.  1.
         -1    1    1    2    0  502 -0.19978675334E+02 -0.48545440463E+02 -0.24242358907E+03  0.24804234275E+03  0.00000000000E+00 0. -1.
<mgrwt>
<rscale>  1 0.30000000E+03</rscale>
<asrwt>0</asrwt>
<pdfrwt beam="1">  1       21 0.13551055E-01 0.30000000E+03</pdfrwt>
<pdfrwt beam="2">0</pdfrwt>
<totfact> 0.49648537E+03</totfact>
</mgrwt>
</event>
<event>
 6    1  0.1284012E-001  0.3000000E+03  0.7818608E-02  0.1093470E+00
         21   -1    0    0  501  502  0.00000000000E+00  0.00000000000E+00  0.34084182169E+01  0.34084182169E+01  0.00000000000E+00 0. -1.
         13   -1    0    0    0    0 -0.00000000000E+00 -0.00000000000E+00 -0.10000000000E+04  0.10000000000E+04  0.00000000000E+00 0.  1.
    9000005    2    1    2  501    0  0.48873140477E+02 -0.31722970358E+02 -0.47424498076E+03  0.47782217191E+03  0.32856479728E+01 0.  0.
         13    1    3    3    0    0  0.22908065636E+02 -0.15432315090E+02 -0.21196002556E+03  0.21375216550E+03  0.00000000000E+00 0.  1.
          1    1    3    3  501    0  0.25965074841E+02 -0.16290655268E+02 -0.26228495520E+03  0.26407000641E+03  0.00000000000E+00 0.  1.
         -1    1    1    2    0  502 -0.48873140477E+02  0.31722970358E+02 -0.52234660102E+03  0.52558624631E+03  0.00000000000E+00 0. -1.
<mgrwt>
<rscale>  1 0.30000000E+03</rscale>
<asrwt>0</asrwt>
<pdfrwt beam="1">  1       21 0.12394274E-01 0.30000000E+03</pdfrwt>
<pdfrwt beam="2">0</pdfrwt>
<totfact> 0.58433773E+03</totfact>
</mgrwt>
</event>
<event>
 6    1  0.1284012E-001  0.3000000E+03  0.7818608E-02  0.1093470E+00
         21   -1    0    0  501  502  0.00000000000E+00  0.00000000000E+00  0.96606080460E+00  0.96606080460E+00  0.00000000000E+00 0. -1.
         13   -1    0    0    0    0 -0.00000000000E+00 -0.00000000000E+00 -0.10000000000E+04  0.10000000000E+04  0.00000000000E+00 0.  1.
    9000005    2    1    2  501    0  0.27152952763E+02 -0.14740697582E+02 -0.46498144641E+03  0.46602060932E+03  0.35905153740E+01 0.  0.
         13    1    3    3    0    0  0.11840264257E+02 -0.57640679520E+01 -0.17332537262E+03  0.17382491517E+03  0.00000000000E+00 0.  1.
          3    1    3    3  501    0  0.15312688506E+02 -0.89766296304E+01 -0.29165607378E+03  0.29219569415E+03  0.00000000000E+00 0.  1.
         -1    1    1    2    0  502 -0.27152952763E+02  0.14740697582E+02 -0.53405249279E+03  0.53494545148E+03  0.00000000000E+00 0. -1.
<mgrwt>
<rscale>  1 0.30000000E+03</rscale>
<asrwt>0</asrwt>
<pdfrwt beam="1">  1       21 0.35129558E-02 0.30000000E+03</pdfrwt>
<pdfrwt beam="2">0</pdfrwt>
<totfact> 0.52292236E+04</totfact>
</mgrwt>
</event>
<event>
 6    1  0.1284012E-001  0.3000000E+03  0.7818608E-02  0.1093470E+00
         21   -1    0    0  501  502  0.00000000000E+00  0.00000000000E+00  0.12420432935E+01  0.12420432935E+01  0.00000000000E+00 0. -1.
         13   -1    0    0    0    0 -0.00000000000E+00 -0.00000000000E+00 -0.10000000000E+04  0.10000000000E+04  0.00000000000E+00 0.  1.
    9000005    2    1    2  501    0 -0.34134671100E+02  0.62532206942E+01 -0.41835813463E+03  0.41980569079E+03  0.30017782526E+01 0.  0.
         13    1    3    3    0    0 -0.20233192116E+02  0.46212596355E+01 -0.26370989922E+03  0.26452532781E+03  0.00000000000E+00 0.  1.
          3    1    3    3  501    0 -0.13901478984E+02  0.16319610587E+01 -0.15464823541E+03  0.15528036299E+03  0.00000000000E+00 0.  1.
         -1    1    1    2    0  502  0.34134671100E+02 -0.62532206942E+01 -0.58039982208E+03  0.58143635250E+03  0.00000000000E+00 0. -1.
<mgrwt>
<rscale>  1 0.30000000E+03</rscale>
<asrwt>0</asrwt>
<pdfrwt beam="1">  1       21 0.45165306E-02 0.30000000E+03</pdfrwt>
<pdfrwt beam="2">0</pdfrwt>
<totfact> 0.34244421E+04</totfact>
</mgrwt>
</event>
<event>
 6    1  0.1284012E-001  0.3000000E+03  0.7818608E-02  0.1093470E+00
         21   -1    0    0  501  502  0.00000000000E+00  0.00000000000E+00  0.17658915638E+01  0.17658915638E+01  0.00000000000E+00 0. -1.
         13   -1    0    0    0    0 -0.00000000000E+00 -0.00000000000E+00 -0.10000000000E+04  0.10000000000E+04  0.00000000000E+00 0.  1.
    9000005    2    1    2  501    0 -0.34944298579E+02  0.76195217328E+01 -0.76132796750E+03  0.76217523914E+03  0.34146667288E+01 0.  0.
         13    1    3    3    0    0 -0.33449025323E+02  0.68923844378E+01 -0.73672867366E+03  0.73751981726E+03  0.00000000000E+00 0.  1.
          3    1    3    3  501    0 -0.14952732562E+01  0.72713729496E+00 -0.24599293836E+02  0.24655421878E+02  0.00000000000E+00 0.  1.
         -1    1    1    2    0  502  0.34944298579E+02 -0.76195217328E+01 -0.23690614094E+03  0.23959065243E+03  0.00000000000E+00 0. -1.
<mgrwt>
<rscale>  1 0.30000000E+03</rscale>
<asrwt>0</asrwt>
<pdfrwt beam="1">  1       21 0.64214374E-02 0.30000000E+03</pdfrwt>
<pdfrwt beam="2">0</pdfrwt>
<totfact> 0.18740345E+04</totfact>
</mgrwt>
</event>
<event>
 6    1  0.1284012E-001  0.3000000E+03  0.7818608E-02  0.1093470E+00
         21   -1    0    0  501  502  0.00000000000E+00  0.00000000000E+00  0.13450323676E+01  0.13450323676E+01  0.00000000000E+00 0. -1.
         13   -1    0    0    0    0 -0.00000000000E+00 -0.00000000000E+00 -0.10000000000E+04  0.10000000000E+04  0.00000000000E+00 0.  1.
    9000005    2    1    2  501    0 -0.30843361240E+02  0.44797278347E+01 -0.76204231082E+03  0.76268852133E+03  0.37304427686E+01 0.  0.
         13    1    3    3    0    0 -0.63383320175E+01  0.24361846852E+01 -0.15751708662E+03  0.15766338200E+03  0.00000000000E+00 0.  1.
          1    1    3    3  501    0 -0.24505029223E+02  0.20435431495E+01 -0.60452522420E+03  0.60502513933E+03  0.00000000000E+00 0.  1.
         -3    1    1    2    0  502  0.30843361240E+02 -0.44797278347E+01 -0.23661265681E+03  0.23865651103E+03  0.00000000000E+00 0. -1.
<mgrwt>
<rscale>  1 0.30000000E+03</rscale>
<asrwt>0</asrwt>
<pdfrwt beam="1">  1       21 0.48910371E-02 0.30000000E+03</pdfrwt>
<pdfrwt beam="2">0</pdfrwt>
<totfact> 0.29906577E+04</totfact>
</mgrwt>
</event>
<event>
 6    1  0.1284012E-001  0.3000000E+03  0.7818608E-02  0.1093470E+00
         21   -1    0    0  501  502  0.00000000000E+00  0.00000000000E+00  0.30809201482E+01  0.30809201482E+01  0.00000000000E+00 0. -1.
         13   -1    0    0    0    0 -0.00000000000E+00 -0.00000000000E+00 -0.10000000000E+04  0.10000000000E+04  0.00000000000E+00 0.  1.
    9000005    2    1    2  501    0  0.20903401700E+02  0.27605599985E+02 -0.89030563609E+03  0.89098521218E+03  0.33913603154E+01 0.  0.
         13    1    3    3    0    0  0.54385193506E+01  0.57438957182E+01 -0.17556969625E+03  0.17574779677E+03  0.00000000000E+00 0.  1.
          1    1    3    3  501    0  0.15464882349E+02  0.21861704266E+02 -0.71473593984E+03  0.71523741541E+03  0.00000000000E+00 0.  1.
         -3    1    1    2    0  502 -0.20903401700E+02 -0.27605599985E+02 -0.10661344376E+03  0.11209570796E+03  0.00000000000E+00 0. -1.
<mgrwt>
<rscale>  1 0.30000000E+03</rscale>
<asrwt>0</asrwt>
<pdfrwt beam="1">  1       21 0.11203370E-01 0.30000000E+03</pdfrwt>
<pdfrwt beam="2">0</pdfrwt>
<totfact> 0.70167147E+03</totfact>
</mgrwt>
</event>
<event>
 6    1  0.1284012E-001  0.3000000E+03  0.7818608E-02  0.1093470E+00
         21   -1    0    0  501  502  0.00000000000E+00  0.00000000000E+00  0.10954244031E+01  0.10954244031E+01  0.00000000000E+00 0. -1.
         13   -1    0    0    0    0 -0.00000000000E+00 -0.00000000000E+00 -0.10000000000E+04  0.10000000000E+04  0.00000000000E+00 0.  1.
    9000005    2    1    2  501    0 -0.21111113686E+02 -0.22959104843E+02 -0.66082568826E+03  0.66158086848E+03  0.50848467977E+01 0.  0.
         13    1    3    3    0    0 -0.14728284880E+02 -0.18816078789E+02 -0.47796416660E+03  0.47856108466E+03  0.00000000000E+00 0.  1.
          3    1    3    3  501    0 -0.63828288059E+01 -0.41430260544E+01 -0.18286152165E+03  0.18301978382E+03  0.00000000000E+00 0.  1.
         -3    1    1    2    0  502  0.21111113686E+02  0.22959104843E+02 -0.33807888734E+03  0.33951455592E+03  0.00000000000E+00 0. -1.
<mgrwt>
<rscale>  1 0.30000000E+03</rscale>
<asrwt>0</asrwt>
<pdfrwt beam="1">  1       21 0.39833699E-02 0.30000000E+03</pdfrwt>
<pdfrwt beam="2">0</pdfrwt>
<totfact> 0.42343334E+04</totfact>
</mgrwt>
</event>
<event>
 6    1  0.1284012E-001  0.3000000E+03  0.7818608E-02  0.1093470E+00
         21   -1    0    0  501  502  0.00000000000E+00  0.00000000000E+00  0.15272441172E+01  0.15272441172E+01  0.00000000000E+00 0. -1.
         13   -1    0    0    0    0 -0.00000000000E+00 -0.00000000000E+00 -0.10000000000E+04  0.10000000000E+04  0.00000000000E+00 0.  1.
    9000005    2    1    2  501    0  0.31123301639E+02  0.20680769414E+02 -0.64335910542E+03  0.64445293970E+03  0.35069695834E+01 0.  0.
         13    1    3    3    0    0  0.36107987301E+01  0.15369716912E+01 -0.54917979243E+02  0.55058011166E+02  0.00000000000E+00 0.  1.
          1    1    3    3  501    0  0.27512502908E+02  0.19143797723E+02 -0.58844112618E+03  0.58939492854E+03  0.00000000000E+00 0.  1.
         -3    1    1    2    0  502 -0.31123301639E+02 -0.20680769414E+02 -0.35511365046E+03  0.35707430441E+03  0.00000000000E+00 0. -1.
<mgrwt>
<rscale>  1 0.30000000E+03</rscale>
<asrwt>0</asrwt>
<pdfrwt beam="1">  1       21 0.55536267E-02 0.30000000E+03</pdfrwt>
<pdfrwt beam="2">0</pdfrwt>
<totfact> 0.24070181E+04</totfact>
</mgrwt>
</event>
<event>
 6    1  0.1284012E-001  0.3000000E+03  0.7818608E-02  0.1093470E+00
         21   -1    0    0  501  502  0.00000000000E+00  0.00000000000E+00  0.18052588107E+01  0.18052588107E+01  0.00000000000E+00 0. -1.
         13   -1    0    0    0    0 -0.00000000000E+00 -0.00000000000E+00 -0.10000000000E+04  0.10000000000E+04  0.00000000000E+00 0.  1.
    9000005    2    1    2  501    0  0.26323373771E+02  0.32545248518E+02 -0.58133919707E+03  0.58285340255E+03  0.32731632086E+01 0.  0.
         13    1    3    3    0    0  0.12069825427E+02  0.12630090133E+02 -0.25215119551E+03  0.25275566317E+03  0.00000000000E+00 0.  1.
          3    1    3    3  501    0  0.14253548344E+02  0.19915158385E+02 -0.32918800156E+03  0.33009773938E+03  0.00000000000E+00 0.  1.
         -3    1    1    2    0  502 -0.26323373771E+02 -0.32545248518E+02 -0.41685554412E+03  0.41895185626E+03  0.00000000000E+00 0. -1.
<mgrwt>
<rscale>  1 0.30000000E+03</rscale>
<asrwt>0</asrwt>
<pdfrwt beam="1">  1       21 0.65645913E-02 0.30000000E+03</pdfrwt>
<pdfrwt beam="2">0</pdfrwt>
<totfact> 0.18038472E+04</totfact>
</mgrwt>
</event>
<event>
 6    1  0.1284012E-001  0.3000000E+03  0.7818608E-02  0.1093470E+00
         21   -1    0    0  501  502  0.00000000000E+00  0.00000000000E+00  0.14716884680E+01  0.14716884680E+01  0.00000000000E+00 0. -1.
         13   -1    0    0    0    0 -0.00000000000E+00 -0.00000000000E+00 -0.10000000000E+04  0.10000000000E+04  0.00000000000E+00 0.  1.
    9000005    2    1    2  501    0  0.30222903577E+02 -0.22743754933E+02 -0.57623220804E+03  0.57748501260E+03  0.38314365363E+01 0.  0.
         13    1    3    3    0    0  0.74056048466E+01 -0.60002929035E+01 -0.17132906537E+03  0.17159398340E+03  0.00000000000E+00 0.  1.
          3    1    3    3  501    0  0.22817298730E+02 -0.16743462029E+02 -0.40490314267E+03  0.40589102920E+03  0.00000000000E+00 0.  1.
         -1    1    1    2    0  502 -0.30222903577E+02  0.22743754933E+02 -0.42229610349E+03  0.42398667586E+03  0.00000000000E+00 0. -1.
<mgrwt>
<rscale>  1 0.30000000E+03</rscale>
<asrwt>0</asrwt>
<pdfrwt beam="1">  1       21 0.53516057E-02 0.30000000E+03</pdfrwt>
<pdfrwt beam="2">0</pdfrwt>
<totfact> 0.25648128E+04</totfact>
</mgrwt>
</event>
<event>
 6    1  0.1284012E-001  0.3000000E+03  0.7818608E-02  0.1093470E+00
         21   -1    0    0  501  502  0.00000000000E+00  0.00000000000E+00  0.26042899117E+01  0.26042899117E+01  0.00000000000E+00 0. -1.
         13   -1    0    0    0    0 -0.00000000000E+00 -0.00000000000E+00 -0.10000000000E+04  0.10000000000E+04  0.00000000000E+00 0.  1.
    9000005    2    1    2  501    0 -0.38145086311E+02  0.86068950154E+00 -0.83115930879E+03  0.83204541587E+03  0.42413552240E+01 0.  0.
         13    1    3    3    0    0 -0.99661191693E-01 -0.22359896532E+00 -0.23666543171E+01  0.23792817208E+01  0.00000000000E+00 0.  1.
          1    1    3    3  501    0 -0.38045425119E+02  0.10842884669E+01 -0.82879265447E+03  0.82966613415E+03  0.00000000000E+00 0.  1.
         -3    1    1    2    0  502  0.38145086311E+02 -0.86068950154E+00 -0.16623640130E+03  0.17055887404E+03  0.00000000000E+00 0. -1.
<mgrwt>
<rscale>  1 0.30000000E+03</rscale>
<asrwt>0</asrwt>
<pdfrwt beam="1">  1       21 0.94701651E-02 0.30000000E+03</pdfrwt>
<pdfrwt beam="2">0</pdfrwt>
<totfact> 0.94806883E+03</totfact>
</mgrwt>
</event>
<event>
 6    1  0.1284012E-001  0.3000000E+03  0.7818608E-02  0.1093470E+00
         21   -1    0    0  501  502  0.00000000000E+00  0.00000000000E+00  0.11295477908E+01  0.11295477908E+01  0.00000000000E+00 0. -1.
         13   -1    0    0    0    0 -0.00000000000E+00 -0.00000000000E+00 -0.10000000000E+04  0.10000000000E+04  0.00000000000E+00 0.  1.
    9000005    2    1    2  501    0  0.24520234341E+02  0.21424464699E+02 -0.62090081843E+03  0.62175994748E+03  0.27122656622E+01 0.  0.
         13    1    3    3    0    0  0.10826803879E+02  0.77285277742E+01 -0.25806045593E+03  0.25840307416E+03  0.00000000000E+00 0.  1.
          1    1    3    3  501    0  0.13693430463E+02  0.13695936925E+02 -0.36284036250E+03  0.36335687332E+03  0.00000000000E+00 0.  1.
         -3    1    1    2    0  502 -0.24520234341E+02 -0.21424464699E+02 -0.37796963378E+03  0.37936960031E+03  0.00000000000E+00 0. -1.
<mgrwt>
<rscale>  1 0.30000000E+03</rscale>
<asrwt>0</asrwt>
<pdfrwt beam="1">  1       21 0.41074552E-02 0.30000000E+03</pdfrwt>
<pdfrwt beam="2">0</pdfrwt>
<totfact> 0.40210262E+04</totfact>
</mgrwt>
</event>
<event>
 6    1  0.1284012E-001  0.3000000E+03  0.7818608E-02  0.1093470E+00
         21   -1    0    0  501  502  0.00000000000E+00  0.00000000000E+00  0.15680092005E+01  0.15680092005E+01  0.00000000000E+00 0. -1.
         13   -1    0    0    0    0 -0.00000000000E+00 -0.00000000000E+00 -0.10000000000E+04  0.10000000000E+04  0.00000000000E+00 0.  1.
    9000005    2    1    2  501    0 -0.30692144638E+02 -0.63197982061E+01 -0.80473342459E+03  0.80535108296E+03  0.35404208672E+01 0.  0.
         13    1    3    3    0    0 -0.75546173727E+01 -0.93301261401E+00 -0.23302950599E+03  0.23315379777E+03  0.00000000000E+00 0.  1.
          3    1    3    3  501    0 -0.23137527265E+02 -0.53867855921E+01 -0.57170391861E+03  0.57219728519E+03  0.00000000000E+00 0.  1.
         -3    1    1    2    0  502  0.30692144638E+02  0.63197982061E+01 -0.19369856621E+03  0.19621692624E+03  0.00000000000E+00 0. -1.
<mgrwt>
<rscale>  1 0.30000000E+03</rscale>
<asrwt>0</asrwt>
<pdfrwt beam="1">  1       21 0.57018637E-02 0.30000000E+03</pdfrwt>
<pdfrwt beam="2">0</pdfrwt>
<totfact> 0.23005325E+04</totfact>
</mgrwt>
</event>
<event>
 6    1  0.1284012E-001  0.3000000E+03  0.7818608E-02  0.1093470E+00
         21   -1    0    0  501  502  0.00000000000E+00  0.00000000000E+00  0.85982333255E+01  0.85982333255E+01  0.00000000000E+00 0. -1.
         13   -1    0    0    0    0 -0.00000000000E+00 -0.00000000000E+00 -0.10000000000E+04  0.10000000000E+04  0.00000000000E+00 0.  1.
    9000005    2    1    2  501    0 -0.32161403680E+02 -0.51624656526E+02 -0.87622006542E+03  0.87834353916E+03  0.51291999615E+01 0.  0.
         13    1    3    3    0    0 -0.89971156336E+01 -0.18423728924E+02 -0.27758476265E+03  0.27834094620E+03  0.00000000000E+00 0.  1.
          1    1    3    3  501    0 -0.23164288047E+02 -0.33200927602E+02 -0.59863530277E+03  0.60000259296E+03  0.00000000000E+00 0.  1.
         -3    1    1    2    0  502  0.32161403680E+02  0.51624656526E+02 -0.11518170125E+03  0.13025469416E+03  0.00000000000E+00 0. -1.
<mgrwt>
<rscale>  1 0.30000000E+03</rscale>
<asrwt>0</asrwt>
<pdfrwt beam="1">  1       21 0.31266369E-01 0.30000000E+03</pdfrwt>
<pdfrwt beam="2">0</pdfrwt>
<totfact> 0.10007093E+03</totfact>
</mgrwt>
</event>
<event>
 6    1  0.1284012E-001  0.3000000E+03  0.7818608E-02  0.1093470E+00
         21   -1    0    0  501  502  0.00000000000E+00  0.00000000000E+00  0.13195806628E+02  0.13195806628E+02  0.00000000000E+00 0. -1.
         13   -1    0    0    0    0 -0.00000000000E+00 -0.00000000000E+00 -0.10000000000E+04  0.10000000000E+04  0.00000000000E+00 0.  1.
    9000005    2    1    2  501    0  0.24326689224E+02 -0.52339750536E+02 -0.93136269712E+03  0.93316458271E+03  0.53317488473E+01 0.  0.
         13    1    3    3    0    0  0.23710021488E+02 -0.49415801321E+02 -0.86508812183E+03  0.86682267221E+03  0.00000000000E+00 0.  1.
          3    1    3    3  501    0  0.61666773543E+00 -0.29239492151E+01 -0.66274575298E+02  0.66341910501E+02  0.00000000000E+00 0.  1.
         -1    1    1    2    0  502 -0.24326689224E+02  0.52339750536E+02 -0.55441496249E+02  0.80031223914E+02  0.00000000000E+00 0. -1.
<mgrwt>
<rscale>  1 0.30000000E+03</rscale>
<asrwt>0</asrwt>
<pdfrwt beam="1">  1       21 0.47984853E-01 0.30000000E+03</pdfrwt>
<pdfrwt beam="2">0</pdfrwt>
<totfact> 0.41062336E+02</totfact>
</mgrwt>
</event>
<event>
 6    1  0.1284012E-001  0.3000000E+03  0.7818608E-02  0.1093470E+00
         21   -1    0    0  501  502  0.00000000000E+00  0.00000000000E+00  0.59508439051E+01  0.59508439051E+01  0.00000000000E+00 0. -1.
         13   -1    0    0    0    0 -0.00000000000E+00 -0.00000000000E+00 -0.10000000000E+04  0.10000000000E+04  0.00000000000E+00 0.  1.
    9000005    2    1    2  501    0 -0.43162914587E+02  0.62253566517E+01 -0.91154059404E+03  0.91262638262E+03  0.88807329043E+01 0.  0.
         13    1    3    3    0    0 -0.85844689896E+01  0.40717645098E+01 -0.15268156174E+03  0.15297689914E+03  0.00000000000E+00 0.  1.
          1    1    3    3  501    0 -0.34578445598E+02  0.21535921419E+01 -0.75885903230E+03  0.75964948349E+03  0.00000000000E+00 0.  1.
         -3    1    1    2    0  502  0.43162914587E+02 -0.62253566517E+01 -0.82508562056E+02  0.93324461283E+02  0.00000000000E+00 0. -1.
<mgrwt>
<rscale>  1 0.30000000E+03</rscale>
<asrwt>0</asrwt>
<pdfrwt beam="1">  1       21 0.21639478E-01 0.30000000E+03</pdfrwt>
<pdfrwt beam="2">0</pdfrwt>
<totfact> 0.20631426E+03</totfact>
</mgrwt>
</event>
<event>
 6    1  0.1284012E-001  0.3000000E+03  0.7818608E-02  0.1093470E+00
         21   -1    0    0  501  502  0.00000000000E+00  0.00000000000E+00  0.64492213778E+01  0.64492213778E+01  0.00000000000E+00 0. -1.
         13   -1    0    0    0    0 -0.00000000000E+00 -0.00000000000E+00 -0.10000000000E+04  0.10000000000E+04  0.00000000000E+00 0.  1.
    9000005    2    1    2  501    0 -0.72245933442E+02  0.28000003691E+02 -0.36546212471E+03  0.37359945068E+03  0.32418885721E+01 0.  0.
         13    1    3    3    0    0 -0.33526982836E+02  0.11574358634E+02 -0.17166526227E+03  0.17529114817E+03  0.00000000000E+00 0.  1.
          3    1    3    3  501    0 -0.38718950605E+02  0.16425645057E+02 -0.19379686244E+03  0.19830830251E+03  0.00000000000E+00 0.  1.
         -3    1    1    2    0  502  0.72245933442E+02 -0.28000003691E+02 -0.62808865391E+03  0.63284977070E+03  0.00000000000E+00 0. -1.
<mgrwt>
<rscale>  1 0.30000000E+03</rscale>
<asrwt>0</asrwt>
<pdfrwt beam="1">  1       21 0.23451764E-01 0.30000000E+03</pdfrwt>
<pdfrwt beam="2">0</pdfrwt>
<totfact> 0.17664455E+03</totfact>
</mgrwt>
</event>
<event>
 6    1  0.1284012E-001  0.3000000E+03  0.7818608E-02  0.1093470E+00
         21   -1    0    0  501  502  0.00000000000E+00  0.00000000000E+00  0.11059184327E+01  0.11059184327E+01  0.00000000000E+00 0. -1.
         13   -1    0    0    0    0 -0.00000000000E+00 -0.00000000000E+00 -0.10000000000E+04  0.10000000000E+04  0.00000000000E+00 0.  1.
    9000005    2    1    2  501    0  0.28018097624E+02  0.12891909994E+02 -0.68448996979E+03  0.68519270149E+03  0.33621855790E+01 0.  0.
         13    1    3    3    0    0  0.24353501582E+02  0.12395005150E+02 -0.60265005307E+03  0.60326927292E+03  0.00000000000E+00 0.  1.
          1    1    3    3  501    0  0.36645960419E+01  0.49690484358E+00 -0.81839916720E+02  0.81923428561E+02  0.00000000000E+00 0.  1.
         -1    1    1    2    0  502 -0.28018097624E+02 -0.12891909994E+02 -0.31440411178E+03  0.31591321695E+03  0.00000000000E+00 0. -1.
<mgrwt>
<rscale>  1 0.30000000E+03</rscale>
<asrwt>0</asrwt>
<pdfrwt beam="1">  1       21 0.40215301E-02 0.30000000E+03</pdfrwt>
<pdfrwt beam="2">0</pdfrwt>
<totfact> 0.41668877E+04</totfact>
</mgrwt>
</event>
<event>
 6    1  0.1284012E-001  0.3000000E+03  0.7818608E-02  0.1093470E+00
         21   -1    0    0  501  502  0.00000000000E+00  0.00000000000E+00  0.15742890638E+01  0.15742890638E+01  0.00000000000E+00 0. -1.
         13   -1    0    0    0    0 -0.00000000000E+00 -0.00000000000E+00 -0.10000000000E+04  0.10000000000E+04  0.00000000000E+00 0.  1.
    9000005    2    1    2  501    0 -0.92826610522E+01 -0.32478931305E+02 -0.76105053770E+03  0.76180769080E+03  0.34623764839E+01 0.  0.
         13    1    3    3    0    0 -0.71680680502E+01 -0.19124945411E+02 -0.46773762544E+03  0.46818333053E+03  0.00000000000E+00 0.  1.
          3    1    3    3  501    0 -0.21145930020E+01 -0.13353985894E+02 -0.29331291226E+03  0.29362436027E+03  0.00000000000E+00 0.  1.
         -1    1    1    2    0  502  0.92826610522E+01  0.32478931305E+02 -0.23737517324E+03  0.23976659826E+03  0.00000000000E+00 0. -1.
<mgrwt>
<rscale>  1 0.30000000E+03</rscale>
<asrwt>0</asrwt>
<pdfrwt beam="1">  1       21 0.57246996E-02 0.30000000E+03</pdfrwt>
<pdfrwt beam="2">0</pdfrwt>
<totfact> 0.22847721E+04</totfact>
</mgrwt>
</event>
<event>
 6    1  0.1284012E-001  0.3000000E+03  0.7818608E-02  0.1093470E+00
         21   -1    0    0  501  502  0.00000000000E+00  0.00000000000E+00  0.31435483116E+01  0.31435483116E+01  0.00000000000E+00 0. -1.
         13   -1    0    0    0    0 -0.00000000000E+00 -0.00000000000E+00 -0.10000000000E+04  0.10000000000E+04  0.00000000000E+00 0.  1.
    9000005    2    1    2  501    0 -0.21767240096E+02  0.33121926567E+02 -0.85297278396E+03  0.85390084464E+03  0.36342172973E+01 0.  0.
         13    1    3    3    0    0 -0.70279964508E+00  0.22499702776E+01 -0.39914155971E+02  0.39983698434E+02  0.00000000000E+00 0.  1.
          1    1    3    3  501    0 -0.21064440451E+02  0.30871956290E+02 -0.81305862799E+03  0.81391714621E+03  0.00000000000E+00 0.  1.
         -3    1    1    2    0  502  0.21767240096E+02 -0.33121926567E+02 -0.14388366772E+03  0.14924270367E+03  0.00000000000E+00 0. -1.
<mgrwt>
<rscale>  1 0.30000000E+03</rscale>
<asrwt>0</asrwt>
<pdfrwt beam="1">  1       21 0.11431109E-01 0.30000000E+03</pdfrwt>
<pdfrwt beam="2">0</pdfrwt>
<totfact> 0.67665852E+03</totfact>
</mgrwt>
</event>
<event>
 6    1  0.1284012E-001  0.3000000E+03  0.7818608E-02  0.1093470E+00
         21   -1    0    0  501  502  0.00000000000E+00  0.00000000000E+00  0.27796326904E+01  0.27796326904E+01  0.00000000000E+00 0. -1.
         13   -1    0    0    0    0 -0.00000000000E+00 -0.00000000000E+00 -0.10000000000E+04  0.10000000000E+04  0.00000000000E+00 0.  1.
    9000005    2    1    2  501    0  0.46589800824E+02  0.98450907449E+01 -0.71289878147E+03  0.71449800038E+03  0.38967389425E+01 0.  0.
         13    1    3    3    0    0  0.28811916807E+02  0.52808705043E+01 -0.46360866088E+03  0.46453310387E+03  0.00000000000E+00 0.  1.
          3    1    3    3  501    0  0.17777884017E+02  0.45642202407E+01 -0.24929012059E+03  0.24996489651E+03  0.00000000000E+00 0.  1.
         -3    1    1    2    0  502 -0.46589800824E+02 -0.98450907449E+01 -0.28432158584E+03  0.28828163231E+03  0.00000000000E+00 0. -1.
<mgrwt>
<rscale>  1 0.30000000E+03</rscale>
<asrwt>0</asrwt>
<pdfrwt beam="1">  1       21 0.10107777E-01 0.30000000E+03</pdfrwt>
<pdfrwt beam="2">0</pdfrwt>
<totfact> 0.84399205E+03</totfact>
</mgrwt>
</event>
<event>
 6    1  0.1284012E-001  0.3000000E+03  0.7818608E-02  0.1093470E+00
         21   -1    0    0  501  502  0.00000000000E+00  0.00000000000E+00  0.16371837301E+01  0.16371837301E+01  0.00000000000E+00 0. -1.
         13   -1    0    0    0    0 -0.00000000000E+00 -0.00000000000E+00 -0.10000000000E+04  0.10000000000E+04  0.00000000000E+00 0.  1.
    9000005    2    1    2  501    0  0.39551243293E+02 -0.56182399399E+01 -0.42568725784E+03  0.42756997452E+03  0.32521006545E+01 0.  0.
         13    1    3    3    0    0  0.82558372950E+01 -0.19948667437E+01 -0.10212546971E+03  0.10247804597E+03  0.00000000000E+00 0.  1.
          1    1    3    3  501    0  0.31295405997E+02 -0.36233731962E+01 -0.32356178813E+03  0.32509192855E+03  0.00000000000E+00 0.  1.
         -1    1    1    2    0  502 -0.39551243293E+02  0.56182399399E+01 -0.57267555843E+03  0.57406720921E+03  0.00000000000E+00 0. -1.
<mgrwt>
<rscale>  1 0.30000000E+03</rscale>
<asrwt>0</asrwt>
<pdfrwt beam="1">  1       21 0.59534079E-02 0.30000000E+03</pdfrwt>
<pdfrwt beam="2">0</pdfrwt>
<totfact> 0.21356837E+04</totfact>
</mgrwt>
</event>
<event>
 6    1  0.1284012E-001  0.3000000E+03  0.7818608E-02  0.1093470E+00
         21   -1    0    0  501  502  0.00000000000E+00  0.00000000000E+00  0.10050204405E+01  0.10050204405E+01  0.00000000000E+00 0. -1.
         13   -1    0    0    0    0 -0.00000000000E+00 -0.00000000000E+00 -0.10000000000E+04  0.10000000000E+04  0.00000000000E+00 0.  1.
    9000005    2    1    2  501    0 -0.77447527582E+01 -0.29789824879E+02 -0.38914451334E+03  0.39037828830E+03  0.37869312694E+01 0.  0.
         13    1    3    3    0    0 -0.20405934870E+01 -0.92979402288E+01 -0.14294207617E+03  0.14325869207E+03  0.00000000000E+00 0.  1.
          1    1    3    3  501    0 -0.57041592712E+01 -0.20491884650E+02 -0.24620243718E+03  0.24711959623E+03  0.00000000000E+00 0.  1.
         -3    1    1    2    0  502  0.77447527582E+01  0.29789824879E+02 -0.60985046622E+03  0.61062673214E+03  0.00000000000E+00 0. -1.
<mgrwt>
<rscale>  1 0.30000000E+03</rscale>
<asrwt>0</asrwt>
<pdfrwt beam="1">  1       21 0.36546275E-02 0.30000000E+03</pdfrwt>
<pdfrwt beam="2">0</pdfrwt>
<totfact> 0.48938314E+04</totfact>
</mgrwt>
</event>
<event>
 6    1  0.1284012E-001  0.3000000E+03  0.7818608E-02  0.1093470E+00
         21   -1    0    0  501  502  0.00000000000E+00  0.00000000000E+00  0.23502690216E+01  0.23502690216E+01  0.00000000000E+00 0. -1.
         13   -1    0    0    0    0 -0.00000000000E+00 -0.00000000000E+00 -0.10000000000E+04  0.10000000000E+04  0.00000000000E+00 0.  1.
    9000005    2    1    2  501    0  0.27933197848E+02 -0.13717223415E+02 -0.88295268727E+03  0.88350651615E+03  0.31448956687E+01 0.  0.
         13    1    3    3    0    0  0.11771856370E+02 -0.73530039051E+01 -0.37331634653E+03  0.37357427355E+03  0.00000000000E+00 0.  1.
          1    1    3    3  501    0  0.16161341478E+02 -0.63642195103E+01 -0.50963634074E+03  0.50993224261E+03  0.00000000000E+00 0.  1.
         -1    1    1    2    0  502 -0.27933197848E+02  0.13717223415E+02 -0.11469704371E+03  0.11884375287E+03  0.00000000000E+00 0. -1.
<mgrwt>
<rscale>  1 0.30000000E+03</rscale>
<asrwt>0</asrwt>
<pdfrwt beam="1">  1       21 0.85464508E-02 0.30000000E+03</pdfrwt>
<pdfrwt beam="2">0</pdfrwt>
<totfact> 0.11371430E+04</totfact>
</mgrwt>
</event>
<event>
 6    1  0.1284012E-001  0.3000000E+03  0.7818608E-02  0.1093470E+00
         21   -1    0    0  501  502  0.00000000000E+00  0.00000000000E+00  0.21171040084E+01  0.21171040084E+01  0.00000000000E+00 0. -1.
         13   -1    0    0    0    0 -0.00000000000E+00 -0.00000000000E+00 -0.10000000000E+04  0.10000000000E+04  0.00000000000E+00 0.  1.
    9000005    2    1    2  501    0  0.47771527900E+01  0.45070436764E+02 -0.58239585979E+03  0.58416538107E+03  0.31763936625E+01 0.  0.
         13    1    3    3    0    0  0.24551385930E+01  0.17777275838E+02 -0.21219395158E+03  0.21295147881E+03  0.00000000000E+00 0.  1.
          1    1    3    3  501    0  0.23220141970E+01  0.27293160926E+02 -0.37020190822E+03  0.37121390226E+03  0.00000000000E+00 0.  1.
         -3    1    1    2    0  502 -0.47771527900E+01 -0.45070436764E+02 -0.41548703620E+03  0.41795172294E+03  0.00000000000E+00 0. -1.
<mgrwt>
<rscale>  1 0.30000000E+03</rscale>
<asrwt>0</asrwt>
<pdfrwt beam="1">  1       21 0.76985763E-02 0.30000000E+03</pdfrwt>
<pdfrwt beam="2">0</pdfrwt>
<totfact> 0.13664357E+04</totfact>
</mgrwt>
</event>
<event>
 6    1  0.1284012E-001  0.3000000E+03  0.7818608E-02  0.1093470E+00
         21   -1    0    0  501  502  0.00000000000E+00  0.00000000000E+00  0.17055328050E+01  0.17055328050E+01  0.00000000000E+00 0. -1.
         13   -1    0    0    0    0 -0.00000000000E+00 -0.00000000000E+00 -0.10000000000E+04  0.10000000000E+04  0.00000000000E+00 0.  1.
    9000005    2    1    2  501    0  0.24867404731E+02 -0.31944257630E+02 -0.59484179591E+03  0.59622694967E+03  0.33151076493E+01 0.  0.
         13    1    3    3    0    0  0.15667371455E+02 -0.18112861825E+02 -0.33547850663E+03  0.33633223262E+03  0.00000000000E+00 0.  1.
          3    1    3    3  501    0  0.92000332762E+01 -0.13831395805E+02 -0.25936328928E+03  0.25989471705E+03  0.00000000000E+00 0.  1.
         -3    1    1    2    0  502 -0.24867404731E+02  0.31944257630E+02 -0.40345267129E+03  0.40547858314E+03  0.00000000000E+00 0. -1.
<mgrwt>
<rscale>  1 0.30000000E+03</rscale>
<asrwt>0</asrwt>
<pdfrwt beam="1">  1       21 0.62019506E-02 0.30000000E+03</pdfrwt>
<pdfrwt beam="2">0</pdfrwt>
<totfact> 0.19901526E+04</totfact>
</mgrwt>
</event>
<event>
 6    1  0.1284012E-001  0.3000000E+03  0.7818608E-02  0.1093470E+00
         21   -1    0    0  501  502  0.00000000000E+00  0.00000000000E+00  0.25164842549E+02  0.25164842549E+02  0.00000000000E+00 0. -1.
         13   -1    0    0    0    0 -0.00000000000E+00 -0.00000000000E+00 -0.10000000000E+04  0.10000000000E+04  0.00000000000E+00 0.  1.
    9000005    2    1    2  501    0 -0.12180461230E+03  0.87638893933E+02 -0.65355637998E+03  0.67057071942E+03  0.34940838015E+01 0.  0.
         13    1    3    3    0    0 -0.18248141506E+02  0.11833990361E+02 -0.91894583832E+02  0.94433323218E+02  0.00000000000E+00 0.  1.
          3    1    3    3  501    0 -0.10355647079E+03  0.75804903572E+02 -0.56166179615E+03  0.57613739620E+03  0.00000000000E+00 0.  1.
         -1    1    1    2    0  502  0.12180461230E+03 -0.87638893933E+02 -0.32127877747E+03  0.35459412313E+03  0.00000000000E+00 0. -1.
<mgrwt>
<rscale>  1 0.30000000E+03</rscale>
<asrwt>0</asrwt>
<pdfrwt beam="1">  1       21 0.91508711E-01 0.30000000E+03</pdfrwt>
<pdfrwt beam="2">0</pdfrwt>
<totfact> 0.92257397E+01</totfact>
</mgrwt>
</event>
<event>
 6    1  0.1284012E-001  0.3000000E+03  0.7818608E-02  0.1093470E+00
         21   -1    0    0  501  502  0.00000000000E+00  0.00000000000E+00  0.27919112681E+01  0.27919112681E+01  0.00000000000E+00 0. -1.
         13   -1    0    0    0    0 -0.00000000000E+00 -0.00000000000E+00 -0.10000000000E+04  0.10000000000E+04  0.00000000000E+00 0.  1.
    9000005    2    1    2  501    0  0.39261221347E+02  0.10082410548E+02 -0.81996255248E+03  0.82097035417E+03  0.32613576046E+01 0.  0.
         13    1    3    3    0    0  0.18144154164E+02  0.40988539889E+01 -0.34541109970E+03  0.34591160537E+03  0.00000000000E+00 0.  1.
          3    1    3    3  501    0  0.21117067183E+02  0.59835565592E+01 -0.47455145279E+03  0.47505874881E+03  0.00000000000E+00 0.  1.
         -1    1    1    2    0  502 -0.39261221347E+02 -0.10082410548E+02 -0.17724553625E+03  0.18182155709E+03  0.00000000000E+00 0. -1.
<mgrwt>
<rscale>  1 0.30000000E+03</rscale>
<asrwt>0</asrwt>
<pdfrwt beam="1">  1       21 0.10152426E-01 0.30000000E+03</pdfrwt>
<pdfrwt beam="2">0</pdfrwt>
<totfact> 0.83736594E+03</totfact>
</mgrwt>
</event>
<event>
 6    1  0.1284012E-001  0.3000000E+03  0.7818608E-02  0.1093470E+00
         21   -1    0    0  501  502  0.00000000000E+00  0.00000000000E+00  0.14208543082E+01  0.14208543082E+01  0.00000000000E+00 0. -1.
         13   -1    0    0    0    0 -0.00000000000E+00 -0.00000000000E+00 -0.10000000000E+04  0.10000000000E+04  0.00000000000E+00 0.  1.
    9000005    2    1    2  501    0 -0.19347993512E+02 -0.29859222853E+02 -0.33735041089E+03  0.33923556470E+03  0.30904027522E+01 0.  0.
         13    1    3    3    0    0 -0.12932802714E+01 -0.16372697388E+01 -0.27534704747E+02  0.27613641404E+02  0.00000000000E+00 0.  1.
          3    1    3    3  501    0 -0.18054713241E+02 -0.28221953114E+02 -0.30981570614E+03  0.31162192330E+03  0.00000000000E+00 0.  1.
         -3    1    1    2    0  502  0.19347993512E+02  0.29859222853E+02 -0.66122873480E+03  0.66218528961E+03  0.00000000000E+00 0. -1.
<mgrwt>
<rscale>  1 0.30000000E+03</rscale>
<asrwt>0</asrwt>
<pdfrwt beam="1">  1       21 0.51667538E-02 0.30000000E+03</pdfrwt>
<pdfrwt beam="2">0</pdfrwt>
<totfact> 0.27236638E+04</totfact>
</mgrwt>
</event>
<event>
 6    1  0.1284012E-001  0.3000000E+03  0.7818608E-02  0.1093470E+00
         21   -1    0    0  501  502  0.00000000000E+00  0.00000000000E+00  0.72100537157E+01  0.72100537157E+01  0.00000000000E+00 0. -1.
         13   -1    0    0    0    0 -0.00000000000E+00 -0.00000000000E+00 -0.10000000000E+04  0.10000000000E+04  0.00000000000E+00 0.  1.
    9000005    2    1    2  501    0 -0.74485348910E+02 -0.39352014680E+02 -0.43511848037E+03  0.44321172734E+03  0.34489171016E+01 0.  0.
         13    1    3    3    0    0 -0.27716079328E+02 -0.14717744512E+02 -0.17094052506E+03  0.17379716961E+03  0.00000000000E+00 0.  1.
          1    1    3    3  501    0 -0.46769269581E+02 -0.24634270168E+02 -0.26417795531E+03  0.26941455773E+03  0.00000000000E+00 0.  1.
         -1    1    1    2    0  502  0.74485348910E+02  0.39352014680E+02 -0.55767146591E+03  0.56399832638E+03  0.00000000000E+00 0. -1.
<mgrwt>
<rscale>  1 0.30000000E+03</rscale>
<asrwt>0</asrwt>
<pdfrwt beam="1">  1       21 0.26218432E-01 0.30000000E+03</pdfrwt>
<pdfrwt beam="2">0</pdfrwt>
<totfact> 0.14204274E+03</totfact>
</mgrwt>
</event>
<event>
 6    1  0.1284012E-001  0.3000000E+03  0.7818608E-02  0.1093470E+00
         21   -1    0    0  501  502  0.00000000000E+00  0.00000000000E+00  0.19150567119E+01  0.19150567119E+01  0.00000000000E+00 0. -1.
         13   -1    0    0    0    0 -0.00000000000E+00 -0.00000000000E+00 -0.10000000000E+04  0.10000000000E+04  0.00000000000E+00 0.  1.
    9000005    2    1    2  501    0  0.32405947586E+02  0.17064429266E+02 -0.77244074431E+03  0.77331793355E+03  0.38187296171E+01 0.  0.
         13    1    3    3    0    0  0.21638050218E+02  0.13044554492E+02 -0.50942560900E+03  0.51005177847E+03  0.00000000000E+00 0.  1.
          3    1    3    3  501    0  0.10767897368E+02  0.40198747732E+01 -0.26301513531E+03  0.26326615508E+03  0.00000000000E+00 0.  1.
         -1    1    1    2    0  502 -0.32405947586E+02 -0.17064429266E+02 -0.22564419898E+03  0.22859712316E+03  0.00000000000E+00 0. -1.
<mgrwt>
<rscale>  1 0.30000000E+03</rscale>
<asrwt>0</asrwt>
<pdfrwt beam="1">  1       21 0.69638573E-02 0.30000000E+03</pdfrwt>
<pdfrwt beam="2">0</pdfrwt>
<totfact> 0.16281276E+04</totfact>
</mgrwt>
</event>
<event>
 6    1  0.1284012E-001  0.3000000E+03  0.7818608E-02  0.1093470E+00
         21   -1    0    0  501  502  0.00000000000E+00  0.00000000000E+00  0.14566920346E+01  0.14566920346E+01  0.00000000000E+00 0. -1.
         13   -1    0    0    0    0 -0.00000000000E+00 -0.00000000000E+00 -0.10000000000E+04  0.10000000000E+04  0.00000000000E+00 0.  1.
    9000005    2    1    2  501    0  0.30881545668E+02  0.10024830468E+02 -0.23828284438E+03  0.24050325090E+03  0.29887584752E+01 0.  0.
         13    1    3    3    0    0  0.15141535394E+02  0.50716794429E+01 -0.10623668960E+03  0.10743008072E+03  0.00000000000E+00 0.  1.
          3    1    3    3  501    0  0.15740010274E+02  0.49531510252E+01 -0.13204615478E+03  0.13307317017E+03  0.00000000000E+00 0.  1.
         -3    1    1    2    0  502 -0.30881545668E+02 -0.10024830468E+02 -0.76026046358E+03  0.76095344114E+03  0.00000000000E+00 0. -1.
<mgrwt>
<rscale>  1 0.30000000E+03</rscale>
<asrwt>0</asrwt>
<pdfrwt beam="1">  1       21 0.52970731E-02 0.30000000E+03</pdfrwt>
<pdfrwt beam="2">0</pdfrwt>
<totfact> 0.26101512E+04</totfact>
</mgrwt>
</event>
<event>
 6    1  0.1284012E-001  0.3000000E+03  0.7818608E-02  0.1093470E+00
         21   -1    0    0  501  502  0.00000000000E+00  0.00000000000E+00  0.36166396231E+01  0.36166396231E+01  0.00000000000E+00 0. -1.
         13   -1    0    0    0    0 -0.00000000000E+00 -0.00000000000E+00 -0.10000000000E+04  0.10000000000E+04  0.00000000000E+00 0.  1.
    9000005    2    1    2  501    0 -0.13469963973E+02  0.41124368469E+02 -0.84648698765E+03  0.84759876832E+03  0.32860574725E+01 0.  0.
         13    1    3    3    0    0 -0.16360543626E+01  0.28407495017E+01 -0.54086019608E+02  0.54185275201E+02  0.00000000000E+00 0.  1.
          3    1    3    3  501    0 -0.11833909610E+02  0.38283618967E+02 -0.79240096805E+03  0.79341349312E+03  0.00000000000E+00 0.  1.
         -1    1    1    2    0  502  0.13469963973E+02 -0.41124368469E+02 -0.14989637272E+03  0.15601787131E+03  0.00000000000E+00 0. -1.
<mgrwt>
<rscale>  1 0.30000000E+03</rscale>
<asrwt>0</asrwt>
<pdfrwt beam="1">  1       21 0.13151445E-01 0.30000000E+03</pdfrwt>
<pdfrwt beam="2">0</pdfrwt>
<totfact> 0.52443723E+03</totfact>
</mgrwt>
</event>
<event>
 6    1  0.1284012E-001  0.3000000E+03  0.7818608E-02  0.1093470E+00
         21   -1    0    0  501  502  0.00000000000E+00  0.00000000000E+00  0.13663075197E+01  0.13663075197E+01  0.00000000000E+00 0. -1.
         13   -1    0    0    0    0 -0.00000000000E+00 -0.00000000000E+00 -0.10000000000E+04  0.10000000000E+04  0.00000000000E+00 0.  1.
    9000005    2    1    2  501    0 -0.12824898546E+01  0.33200147615E+02 -0.71744855566E+03  0.71822504287E+03  0.32996358927E+01 0.  0.
         13    1    3    3    0    0 -0.18156933333E+01  0.26621116808E+02 -0.55110033135E+03  0.55174591600E+03  0.00000000000E+00 0.  1.
          3    1    3    3  501    0  0.53320347878E+00  0.65790308072E+01 -0.16634822431E+03  0.16647912687E+03  0.00000000000E+00 0.  1.
         -3    1    1    2    0  502  0.12824898546E+01 -0.33200147615E+02 -0.28118513682E+03  0.28314126465E+03  0.00000000000E+00 0. -1.
<mgrwt>
<rscale>  1 0.30000000E+03</rscale>
<asrwt>0</asrwt>
<pdfrwt beam="1">  1       21 0.49684015E-02 0.30000000E+03</pdfrwt>
<pdfrwt beam="2">0</pdfrwt>
<totfact> 0.29117603E+04</totfact>
</mgrwt>
</event>
<event>
 6    1  0.1284012E-001  0.3000000E+03  0.7818608E-02  0.1093470E+00
         21   -1    0    0  501  502  0.00000000000E+00  0.00000000000E+00  0.14349470855E+01  0.14349470855E+01  0.00000000000E+00 0. -1.
         13   -1    0    0    0    0 -0.00000000000E+00 -0.00000000000E+00 -0.10000000000E+04  0.10000000000E+04  0.00000000000E+00 0.  1.
    9000005    2    1    2  501    0  0.15002279923E+02 -0.31149690558E+02 -0.70298005839E+03  0.70383477804E+03  0.26571916107E+01 0.  0.
         13    1    3    3    0    0  0.10555667458E+02 -0.23238178402E+02 -0.49715055124E+03  0.49780528890E+03  0.00000000000E+00 0.  1.
          1    1    3    3  501    0  0.44466124642E+01 -0.79115121558E+01 -0.20582950714E+03  0.20602948915E+03  0.00000000000E+00 0.  1.
         -3    1    1    2    0  502 -0.15002279923E+02  0.31149690558E+02 -0.29558499453E+03  0.29760016904E+03  0.00000000000E+00 0. -1.
<mgrwt>
<rscale>  1 0.30000000E+03</rscale>
<asrwt>0</asrwt>
<pdfrwt beam="1">  1       21 0.52180004E-02 0.30000000E+03</pdfrwt>
<pdfrwt beam="2">0</pdfrwt>
<totfact> 0.26781299E+04</totfact>
</mgrwt>
</event>
<event>
 6    1  0.1284012E-001  0.3000000E+03  0.7818608E-02  0.1093470E+00
         21   -1    0    0  501  502  0.00000000000E+00  0.00000000000E+00  0.95049997946E+00  0.95049997946E+00  0.00000000000E+00 0. -1.
         13   -1    0    0    0    0 -0.00000000000E+00 -0.00000000000E+00 -0.10000000000E+04  0.10000000000E+04  0.00000000000E+00 0.  1.
    9000005    2    1    2  501    0  0.18858022570E+02  0.24273740414E+02 -0.51794699527E+03  0.51886704293E+03  0.30131105105E+01 0.  0.
         13    1    3    3    0    0  0.60048128559E+00  0.41449649332E+00 -0.71054973169E+01  0.71428619780E+01  0.00000000000E+00 0.  1.
          1    1    3    3  501    0  0.18257541284E+02  0.23859243921E+02 -0.51084149795E+03  0.51172418095E+03  0.00000000000E+00 0.  1.
         -1    1    1    2    0  502 -0.18858022570E+02 -0.24273740414E+02 -0.48110250475E+03  0.48208345705E+03  0.00000000000E+00 0. -1.
<mgrwt>
<rscale>  1 0.30000000E+03</rscale>
<asrwt>0</asrwt>
<pdfrwt beam="1">  1       21 0.34563709E-02 0.30000000E+03</pdfrwt>
<pdfrwt beam="2">0</pdfrwt>
<totfact> 0.53733162E+04</totfact>
</mgrwt>
</event>
<event>
 6    1  0.1284012E-001  0.3000000E+03  0.7818608E-02  0.1093470E+00
         21   -1    0    0  501  502  0.00000000000E+00  0.00000000000E+00  0.11157696215E+01  0.11157696215E+01  0.00000000000E+00 0. -1.
         13   -1    0    0    0    0 -0.00000000000E+00 -0.00000000000E+00 -0.10000000000E+04  0.10000000000E+04  0.00000000000E+00 0.  1.
    9000005    2    1    2  501    0 -0.10764050336E+02  0.30935928321E+02 -0.59208967845E+03  0.59300462800E+03  0.33771372914E+01 0.  0.
         13    1    3    3    0    0 -0.21215290948E+01  0.57175066374E+01 -0.13581418248E+03  0.13595103137E+03  0.00000000000E+00 0.  1.
          1    1    3    3  501    0 -0.86425212415E+01  0.25218421683E+02 -0.45627549597E+03  0.45705359662E+03  0.00000000000E+00 0.  1.
         -1    1    1    2    0  502  0.10764050336E+02 -0.30935928321E+02 -0.40679455193E+03  0.40811114163E+03  0.00000000000E+00 0. -1.
<mgrwt>
<rscale>  1 0.30000000E+03</rscale>
<asrwt>0</asrwt>
<pdfrwt beam="1">  1       21 0.40573526E-02 0.30000000E+03</pdfrwt>
<pdfrwt beam="2">0</pdfrwt>
<totfact> 0.41050889E+04</totfact>
</mgrwt>
</event>
<event>
 6    1  0.1284012E-001  0.3000000E+03  0.7818608E-02  0.1093470E+00
         21   -1    0    0  501  502  0.00000000000E+00  0.00000000000E+00  0.32879939923E+01  0.32879939923E+01  0.00000000000E+00 0. -1.
         13   -1    0    0    0    0 -0.00000000000E+00 -0.00000000000E+00 -0.10000000000E+04  0.10000000000E+04  0.00000000000E+00 0.  1.
    9000005    2    1    2  501    0 -0.26365017635E+02  0.35608507599E+02 -0.81672361311E+03  0.81792645120E+03  0.17718333322E+01 0.  0.
         13    1    3    3    0    0 -0.16679404931E+02  0.23674842608E+02 -0.54261293546E+03  0.54338522105E+03  0.00000000000E+00 0.  1.
          3    1    3    3  501    0 -0.96856127039E+01  0.11933664991E+02 -0.27411067765E+03  0.27454123015E+03  0.00000000000E+00 0.  1.
         -1    1    1    2    0  502  0.26365017635E+02 -0.35608507599E+02 -0.17998839290E+03  0.18536154279E+03  0.00000000000E+00 0. -1.
<mgrwt>
<rscale>  1 0.30000000E+03</rscale>
<asrwt>0</asrwt>
<pdfrwt beam="1">  1       21 0.11956367E-01 0.30000000E+03</pdfrwt>
<pdfrwt beam="2">0</pdfrwt>
<totfact> 0.62382175E+03</totfact>
</mgrwt>
</event>
<event>
 6    1  0.1284012E-001  0.3000000E+03  0.7818608E-02  0.1093470E+00
         21   -1    0    0  501  502  0.00000000000E+00  0.00000000000E+00  0.10885100706E+01  0.10885100706E+01  0.00000000000E+00 0. -1.
         13   -1    0    0    0    0 -0.00000000000E+00 -0.00000000000E+00 -0.10000000000E+04  0.10000000000E+04  0.00000000000E+00 0.  1.
    9000005    2    1    2  501    0 -0.15547772895E+02 -0.27120421751E+02 -0.65601378427E+03  0.65676876468E+03  0.37248613095E+01 0.  0.
         13    1    3    3    0    0 -0.71260703127E+01 -0.10489327043E+02 -0.29861518449E+03  0.29888431753E+03  0.00000000000E+00 0.  1.
          1    1    3    3  501    0 -0.84217025822E+01 -0.16631094708E+02 -0.35739859979E+03  0.35788444715E+03  0.00000000000E+00 0.  1.
         -1    1    1    2    0  502  0.15547772895E+02  0.27120421751E+02 -0.34289770566E+03  0.34431974539E+03  0.00000000000E+00 0. -1.
<mgrwt>
<rscale>  1 0.30000000E+03</rscale>
<asrwt>0</asrwt>
<pdfrwt beam="1">  1       21 0.39582268E-02 0.30000000E+03</pdfrwt>
<pdfrwt beam="2">0</pdfrwt>
<totfact> 0.42797105E+04</totfact>
</mgrwt>
</event>
<event>
 6    1  0.1284012E-001  0.3000000E+03  0.7818608E-02  0.1093470E+00
         21   -1    0    0  501  502  0.00000000000E+00  0.00000000000E+00  0.34846737078E+01  0.34846737078E+01  0.00000000000E+00 0. -1.
         13   -1    0    0    0    0 -0.00000000000E+00 -0.00000000000E+00 -0.10000000000E+04  0.10000000000E+04  0.00000000000E+00 0.  1.
    9000005    2    1    2  501    0 -0.43534879372E+02  0.51295174044E+01 -0.83412357114E+03  0.83528039370E+03  0.30994357029E+01 0.  0.
         13    1    3    3    0    0 -0.24357841101E+02  0.34316195320E+01 -0.44044418085E+03  0.44113054403E+03  0.00000000000E+00 0.  1.
          1    1    3    3  501    0 -0.19177038271E+02  0.16978978724E+01 -0.39367939029E+03  0.39414984966E+03  0.00000000000E+00 0.  1.
         -1    1    1    2    0  502  0.43534879372E+02 -0.51295174044E+01 -0.16239175516E+03  0.16820428001E+03  0.00000000000E+00 0. -1.
<mgrwt>
<rscale>  1 0.30000000E+03</rscale>
<asrwt>0</asrwt>
<pdfrwt beam="1">  1       21 0.12671567E-01 0.30000000E+03</pdfrwt>
<pdfrwt beam="2">0</pdfrwt>
<totfact> 0.56125343E+03</totfact>
</mgrwt>
</event>
<event>
 6    1  0.1284012E-001  0.3000000E+03  0.7818608E-02  0.1093470E+00
         21   -1    0    0  501  502  0.00000000000E+00  0.00000000000E+00  0.12925607013E+01  0.12925607013E+01  0.00000000000E+00 0. -1.
         13   -1    0    0    0    0 -0.00000000000E+00 -0.00000000000E+00 -0.10000000000E+04  0.10000000000E+04  0.00000000000E+00 0.  1.
    9000005    2    1    2  501    0 -0.22289649700E+02  0.26575477009E+02 -0.62817381656E+03  0.62913903050E+03  0.32390467616E+01 0.  0.
         13    1    3    3    0    0 -0.17327592601E+02  0.19529926498E+02 -0.49291079297E+03  0.49360177605E+03  0.00000000000E+00 0.  1.
          1    1    3    3  501    0 -0.49620570991E+01  0.70455505109E+01 -0.13526302359E+03  0.13553725445E+03  0.00000000000E+00 0.  1.
         -1    1    1    2    0  502  0.22289649700E+02 -0.26575477009E+02 -0.37053362274E+03  0.37215353020E+03  0.00000000000E+00 0. -1.
<mgrwt>
<rscale>  1 0.30000000E+03</rscale>
<asrwt>0</asrwt>
<pdfrwt beam="1">  1       21 0.47002306E-02 0.30000000E+03</pdfrwt>
<pdfrwt beam="2">0</pdfrwt>
<totfact> 0.32001663E+04</totfact>
</mgrwt>
</event>
<event>
 6    1  0.1284012E-001  0.3000000E+03  0.7818608E-02  0.1093470E+00
         21   -1    0    0  501  502  0.00000000000E+00  0.00000000000E+00  0.16035003595E+01  0.16035003595E+01  0.00000000000E+00 0. -1.
         13   -1    0    0    0    0 -0.00000000000E+00 -0.00000000000E+00 -0.10000000000E+04  0.10000000000E+04  0.00000000000E+00 0.  1.
    9000005    2    1    2  501    0  0.34392668155E+02 -0.42665783631E+01 -0.74852731016E+03  0.74934238333E+03  0.44513014188E+01 0.  0.
         13    1    3    3    0    0  0.12180762158E+01  0.62570671009E+00 -0.36967438341E+02  0.36992792758E+02  0.00000000000E+00 0.  1.
          1    1    3    3  501    0  0.33174591939E+02 -0.48922850732E+01 -0.71155987182E+03  0.71234959057E+03  0.00000000000E+00 0.  1.
         -3    1    1    2    0  502 -0.34392668155E+02  0.42665783631E+01 -0.24986918948E+03  0.25226111703E+03  0.00000000000E+00 0. -1.
<mgrwt>
<rscale>  1 0.30000000E+03</rscale>
<asrwt>0</asrwt>
<pdfrwt beam="1">  1       21 0.58309227E-02 0.30000000E+03</pdfrwt>
<pdfrwt beam="2">0</pdfrwt>
<totfact> 0.22135891E+04</totfact>
</mgrwt>
</event>
<event>
 6    1  0.1284012E-001  0.3000000E+03  0.7818608E-02  0.1093470E+00
         21   -1    0    0  501  502  0.00000000000E+00  0.00000000000E+00  0.10733151140E+01  0.10733151140E+01  0.00000000000E+00 0. -1.
         13   -1    0    0    0    0 -0.00000000000E+00 -0.00000000000E+00 -0.10000000000E+04  0.10000000000E+04  0.00000000000E+00 0.  1.
    9000005    2    1    2  501    0 -0.17503677603E+02 -0.25166121081E+02 -0.67364033689E+03  0.67434572128E+03  0.33370561322E+01 0.  0.
         13    1    3    3    0    0 -0.30280478273E+01 -0.39000680785E+01 -0.84686949207E+02  0.84830766651E+02  0.00000000000E+00 0.  1.
          3    1    3    3  501    0 -0.14475629776E+02 -0.21266053002E+02 -0.58895338768E+03  0.58951495463E+03  0.00000000000E+00 0.  1.
         -1    1    1    2    0  502  0.17503677603E+02  0.25166121081E+02 -0.32528634800E+03  0.32672759384E+03  0.00000000000E+00 0. -1.
<mgrwt>
<rscale>  1 0.30000000E+03</rscale>
<asrwt>0</asrwt>
<pdfrwt beam="1">  1       21 0.39029723E-02 0.30000000E+03</pdfrwt>
<pdfrwt beam="2">0</pdfrwt>
<totfact> 0.43821478E+04</totfact>
</mgrwt>
</event>
<event>
 6    1  0.1284012E-001  0.3000000E+03  0.7818608E-02  0.1093470E+00
         21   -1    0    0  501  502  0.00000000000E+00  0.00000000000E+00  0.41899160442E+01  0.41899160442E+01  0.00000000000E+00 0. -1.
         13   -1    0    0    0    0 -0.00000000000E+00 -0.00000000000E+00 -0.10000000000E+04  0.10000000000E+04  0.00000000000E+00 0.  1.
    9000005    2    1    2  501    0  0.11813111969E+02  0.61537853303E+02 -0.62267730772E+03  0.62583224702E+03  0.35376354511E+01 0.  0.
         13    1    3    3    0    0  0.61147783495E+01  0.36738486872E+02 -0.38448829750E+03  0.38628792092E+03  0.00000000000E+00 0.  1.
          3    1    3    3  501    0  0.56983336200E+01  0.24799366431E+02 -0.23818901022E+03  0.23954432611E+03  0.00000000000E+00 0.  1.
         -1    1    1    2    0  502 -0.11813111969E+02 -0.61537853303E+02 -0.37313277624E+03  0.37835766902E+03  0.00000000000E+00 0. -1.
<mgrwt>
<rscale>  1 0.30000000E+03</rscale>
<asrwt>0</asrwt>
<pdfrwt beam="1">  1       21 0.15236090E-01 0.30000000E+03</pdfrwt>
<pdfrwt beam="2">0</pdfrwt>
<totfact> 0.40005982E+03</totfact>
</mgrwt>
</event>
<event>
 6    1  0.1284012E-001  0.3000000E+03  0.7818608E-02  0.1093470E+00
         21   -1    0    0  501  502  0.00000000000E+00  0.00000000000E+00  0.13320364956E+01  0.13320364956E+01  0.00000000000E+00 0. -1.
         13   -1    0    0    0    0 -0.00000000000E+00 -0.00000000000E+00 -0.10000000000E+04  0.10000000000E+04  0.00000000000E+00 0.  1.
    9000005    2    1    2  501    0 -0.21025153271E+02  0.27735480154E+02 -0.64009748709E+03  0.64107643212E+03  0.65486570330E+01 0.  0.
         13    1    3    3    0    0 -0.15349715447E+02  0.15093067102E+02 -0.40211451200E+03  0.40269032172E+03  0.00000000000E+00 0.  1.
          1    1    3    3  501    0 -0.56754378240E+01  0.12642413052E+02 -0.23798297509E+03  0.23838611040E+03  0.00000000000E+00 0.  1.
         -1    1    1    2    0  502  0.21025153271E+02 -0.27735480154E+02 -0.35857047641E+03  0.36025560438E+03  0.00000000000E+00 0. -1.
<mgrwt>
<rscale>  1 0.30000000E+03</rscale>
<asrwt>0</asrwt>
<pdfrwt beam="1">  1       21 0.48437793E-02 0.30000000E+03</pdfrwt>
<pdfrwt beam="2">0</pdfrwt>
<totfact> 0.30405064E+04</totfact>
</mgrwt>
</event>
<event>
 6    1  0.1284012E-001  0.3000000E+03  0.7818608E-02  0.1093470E+00
         21   -1    0    0  501  502  0.00000000000E+00  0.00000000000E+00  0.13225178948E+01  0.13225178948E+01  0.00000000000E+00 0. -1.
         13   -1    0    0    0    0 -0.00000000000E+00 -0.00000000000E+00 -0.10000000000E+04  0.10000000000E+04  0.00000000000E+00 0.  1.
    9000005    2    1    2  501    0 -0.28380554938E+02 -0.18862244701E+02 -0.32836130567E+03  0.33014071200E+03  0.32407537347E+01 0.  0.
         13    1    3    3    0    0 -0.64515812227E+01 -0.27267608438E+01 -0.66193522051E+02  0.66563056469E+02  0.00000000000E+00 0.  1.
          3    1    3    3  501    0 -0.21928973715E+02 -0.16135483857E+02 -0.26216778362E+03  0.26357765553E+03  0.00000000000E+00 0.  1.
         -3    1    1    2    0  502  0.28380554938E+02  0.18862244701E+02 -0.67031617644E+03  0.67118180590E+03  0.00000000000E+00 0. -1.
<mgrwt>
<rscale>  1 0.30000000E+03</rscale>
<asrwt>0</asrwt>
<pdfrwt beam="1">  1       21 0.48091661E-02 0.30000000E+03</pdfrwt>
<pdfrwt beam="2">0</pdfrwt>
<totfact> 0.30778459E+04</totfact>
</mgrwt>
</event>
<event>
 6    1  0.1284012E-001  0.3000000E+03  0.7818608E-02  0.1093470E+00
         21   -1    0    0  501  502  0.00000000000E+00  0.00000000000E+00  0.18754184886E+01  0.18754184886E+01  0.00000000000E+00 0. -1.
         13   -1    0    0    0    0 -0.00000000000E+00 -0.00000000000E+00 -0.10000000000E+04  0.10000000000E+04  0.00000000000E+00 0.  1.
    9000005    2    1    2  501    0 -0.60964843932E+01 -0.34189172624E+02 -0.79528424250E+03  0.79608360675E+03  0.81250186105E+01 0.  0.
         13    1    3    3    0    0  0.20254064652E+01 -0.61953700975E+01 -0.14561904425E+03  0.14576484806E+03  0.00000000000E+00 0.  1.
          3    1    3    3  501    0 -0.81218908583E+01 -0.27993802526E+02 -0.64966519825E+03  0.65031875870E+03  0.00000000000E+00 0.  1.
         -3    1    1    2    0  502  0.60964843932E+01  0.34189172624E+02 -0.20284033901E+03  0.20579181173E+03  0.00000000000E+00 0. -1.
<mgrwt>
<rscale>  1 0.30000000E+03</rscale>
<asrwt>0</asrwt>
<pdfrwt beam="1">  1       21 0.68197180E-02 0.30000000E+03</pdfrwt>
<pdfrwt beam="2">0</pdfrwt>
<totfact> 0.16884080E+04</totfact>
</mgrwt>
</event>
<event>
 6    1  0.1284012E-001  0.3000000E+03  0.7818608E-02  0.1093470E+00
         21   -1    0    0  501  502  0.00000000000E+00  0.00000000000E+00  0.13745290067E+01  0.13745290067E+01  0.00000000000E+00 0. -1.
         13   -1    0    0    0    0 -0.00000000000E+00 -0.00000000000E+00 -0.10000000000E+04  0.10000000000E+04  0.00000000000E+00 0.  1.
    9000005    2    1    2  501    0 -0.16357314347E+02 -0.32067499544E+02 -0.41870875173E+03  0.42034158025E+03  0.86104037157E+01 0.  0.
         13    1    3    3    0    0 -0.76550427142E+01 -0.96361158187E+01 -0.10693970999E+03  0.10764551073E+03  0.00000000000E+00 0.  1.
          3    1    3    3  501    0 -0.87022716325E+01 -0.22431383725E+02 -0.31176904173E+03  0.31269606952E+03  0.00000000000E+00 0.  1.
         -1    1    1    2    0  502  0.16357314347E+02  0.32067499544E+02 -0.57991671926E+03  0.58103294876E+03  0.00000000000E+00 0. -1.
<mgrwt>
<rscale>  1 0.30000000E+03</rscale>
<asrwt>0</asrwt>
<pdfrwt beam="1">  1       21 0.49982978E-02 0.30000000E+03</pdfrwt>
<pdfrwt beam="2">0</pdfrwt>
<totfact> 0.28821379E+04</totfact>
</mgrwt>
</event>
<event>
 6    1  0.1284012E-001  0.3000000E+03  0.7818608E-02  0.1093470E+00
         21   -1    0    0  501  502  0.00000000000E+00  0.00000000000E+00  0.77631375909E+01  0.77631375909E+01  0.00000000000E+00 0. -1.
         13   -1    0    0    0    0 -0.00000000000E+00 -0.00000000000E+00 -0.10000000000E+04  0.10000000000E+04  0.00000000000E+00 0.  1.
    9000005    2    1    2  501    0 -0.33616206066E+02  0.71291636008E+02 -0.27145228129E+03  0.28268179108E+03  0.31792007305E+01 0.  0.
         13    1    3    3    0    0 -0.24434147225E+02  0.49076024098E+02 -0.18552570485E+03  0.19345612126E+03  0.00000000000E+00 0.  1.
          1    1    3    3  501    0 -0.91820588413E+01  0.22215611910E+02 -0.85926576438E+02  0.89225669824E+02  0.00000000000E+00 0.  1.
         -3    1    1    2    0  502  0.33616206066E+02 -0.71291636008E+02 -0.72078458112E+03  0.72508134651E+03  0.00000000000E+00 0. -1.
<mgrwt>
<rscale>  1 0.30000000E+03</rscale>
<asrwt>0</asrwt>
<pdfrwt beam="1">  1       21 0.28229651E-01 0.30000000E+03</pdfrwt>
<pdfrwt beam="2">0</pdfrwt>
<totfact> 0.12273499E+03</totfact>
</mgrwt>
</event>
<event>
 6    1  0.1284012E-001  0.3000000E+03  0.7818608E-02  0.1093470E+00
         21   -1    0    0  501  502  0.00000000000E+00  0.00000000000E+00  0.24768561642E+01  0.24768561642E+01  0.00000000000E+00 0. -1.
         13   -1    0    0    0    0 -0.00000000000E+00 -0.00000000000E+00 -0.10000000000E+04  0.10000000000E+04  0.00000000000E+00 0.  1.
    9000005    2    1    2  501    0  0.19327941160E+02 -0.38857673154E+02 -0.73838553386E+03  0.73973023111E+03  0.10204417411E+02 0.  0.
         13    1    3    3    0    0  0.48614622513E+00 -0.42550918278E+01 -0.12981147224E+03  0.12988210219E+03  0.00000000000E+00 0.  1.
          1    1    3    3  501    0  0.18841794935E+02 -0.34602581327E+02 -0.60857406162E+03  0.60984812892E+03  0.00000000000E+00 0.  1.
         -1    1    1    2    0  502 -0.19327941160E+02  0.38857673154E+02 -0.25913760998E+03  0.26274662505E+03  0.00000000000E+00 0. -1.
<mgrwt>
<rscale>  1 0.30000000E+03</rscale>
<asrwt>0</asrwt>
<pdfrwt beam="1">  1       21 0.90067687E-02 0.30000000E+03</pdfrwt>
<pdfrwt beam="2">0</pdfrwt>
<totfact> 0.10364276E+04</totfact>
</mgrwt>
</event>
<event>
 6    1  0.1284012E-001  0.3000000E+03  0.7818608E-02  0.1093470E+00
         21   -1    0    0  501  502  0.00000000000E+00  0.00000000000E+00  0.92531444320E+00  0.92531444320E+00  0.00000000000E+00 0. -1.
         13   -1    0    0    0    0 -0.00000000000E+00 -0.00000000000E+00 -0.10000000000E+04  0.10000000000E+04  0.00000000000E+00 0.  1.
    9000005    2    1    2  501    0 -0.15461431293E+02 -0.25738372908E+02 -0.42868217967E+03  0.42974309267E+03  0.30322984026E+01 0.  0.
         13    1    3    3    0    0  0.13174912918E+00 -0.26166872254E+00 -0.30210460255E+01  0.30352178573E+01  0.00000000000E+00 0.  1.
          3    1    3    3  501    0 -0.15593180423E+02 -0.25476704186E+02 -0.42566113365E+03  0.42670787481E+03  0.00000000000E+00 0.  1.
         -1    1    1    2    0  502  0.15461431293E+02  0.25738372908E+02 -0.57039250589E+03  0.57118222177E+03  0.00000000000E+00 0. -1.
<mgrwt>
<rscale>  1 0.30000000E+03</rscale>
<asrwt>0</asrwt>
<pdfrwt beam="1">  1       21 0.33647869E-02 0.30000000E+03</pdfrwt>
<pdfrwt beam="2">0</pdfrwt>
<totfact> 0.56199985E+04</totfact>
</mgrwt>
</event>
<event>
 6    1  0.1284012E-001  0.3000000E+03  0.7818608E-02  0.1093470E+00
         21   -1    0    0  501  502  0.00000000000E+00  0.00000000000E+00  0.11572046853E+01  0.11572046853E+01  0.00000000000E+00 0. -1.
         13   -1    0    0    0    0 -0.00000000000E+00 -0.00000000000E+00 -0.10000000000E+04  0.10000000000E+04  0.00000000000E+00 0.  1.
    9000005    2    1    2  501    0  0.34844335910E+01 -0.33666686238E+02 -0.52014111555E+03  0.52126046032E+03  0.44833437448E+01 0.  0.
         13    1    3    3    0    0  0.19118736996E+01 -0.17640446506E+02 -0.30661880468E+03  0.30713178278E+03  0.00000000000E+00 0.  1.
          1    1    3    3  501    0  0.15725598914E+01 -0.16026239731E+02 -0.21352231087E+03  0.21412867753E+03  0.00000000000E+00 0.  1.
         -1    1    1    2    0  502 -0.34844335910E+01  0.33666686238E+02 -0.47870167977E+03  0.47989674437E+03  0.00000000000E+00 0. -1.
<mgrwt>
<rscale>  1 0.30000000E+03</rscale>
<asrwt>0</asrwt>
<pdfrwt beam="1">  1       21 0.42080259E-02 0.30000000E+03</pdfrwt>
<pdfrwt beam="2">0</pdfrwt>
<totfact> 0.38601806E+04</totfact>
</mgrwt>
</event>
<event>
 6    1  0.1284012E-001  0.3000000E+03  0.7818608E-02  0.1093470E+00
         21   -1    0    0  501  502  0.00000000000E+00  0.00000000000E+00  0.26232787627E+01  0.26232787627E+01  0.00000000000E+00 0. -1.
         13   -1    0    0    0    0 -0.00000000000E+00 -0.00000000000E+00 -0.10000000000E+04  0.10000000000E+04  0.00000000000E+00 0.  1.
    9000005    2    1    2  501    0  0.40479526248E+02  0.96942731638E+01 -0.79044815819E+03  0.79154982903E+03  0.32046955306E+01 0.  0.
         13    1    3    3    0    0  0.17341647083E+02  0.26068159487E+01 -0.32286816293E+03  0.32334405646E+03  0.00000000000E+00 0.  1.
          3    1    3    3  501    0  0.23137879165E+02  0.70874572152E+01 -0.46757999525E+03  0.46820577257E+03  0.00000000000E+00 0.  1.
         -3    1    1    2    0  502 -0.40479526248E+02 -0.96942731638E+01 -0.20692856305E+03  0.21107344974E+03  0.00000000000E+00 0. -1.
<mgrwt>
<rscale>  1 0.30000000E+03</rscale>
<asrwt>0</asrwt>
<pdfrwt beam="1">  1       21 0.95392156E-02 0.30000000E+03</pdfrwt>
<pdfrwt beam="2">0</pdfrwt>
<totfact> 0.93587783E+03</totfact>
</mgrwt>
</event>
<event>
 6    1  0.1284012E-001  0.3000000E+03  0.7818608E-02  0.1093470E+00
         21   -1    0    0  501  502  0.00000000000E+00  0.00000000000E+00  0.11407790395E+01  0.11407790395E+01  0.00000000000E+00 0. -1.
         13   -1    0    0    0    0 -0.00000000000E+00 -0.00000000000E+00 -0.10000000000E+04  0.10000000000E+04  0.00000000000E+00 0.  1.
    9000005    2    1    2  501    0 -0.29350946709E+02  0.15938090699E+02 -0.56782886718E+03  0.56881836847E+03  0.30353069792E+01 0.  0.
         13    1    3    3    0    0 -0.82773594456E+01  0.29778262340E+01 -0.14831668781E+03  0.14857732670E+03  0.00000000000E+00 0.  1.
          3    1    3    3  501    0 -0.21073587263E+02  0.12960264465E+02 -0.41951217938E+03  0.42024104176E+03  0.00000000000E+00 0.  1.
         -3    1    1    2    0  502  0.29350946709E+02 -0.15938090699E+02 -0.43103035378E+03  0.43232241057E+03  0.00000000000E+00 0. -1.
<mgrwt>
<rscale>  1 0.30000000E+03</rscale>
<asrwt>0</asrwt>
<pdfrwt beam="1">  1       21 0.41482962E-02 0.30000000E+03</pdfrwt>
<pdfrwt beam="2">0</pdfrwt>
<totfact> 0.39544715E+04</totfact>
</mgrwt>
</event>
<event>
 6    1  0.1284012E-001  0.3000000E+03  0.7818608E-02  0.1093470E+00
         21   -1    0    0  501  502  0.00000000000E+00  0.00000000000E+00  0.87666062709E+01  0.87666062709E+01  0.00000000000E+00 0. -1.
         13   -1    0    0    0    0 -0.00000000000E+00 -0.00000000000E+00 -0.10000000000E+04  0.10000000000E+04  0.00000000000E+00 0.  1.
    9000005    2    1    2  501    0  0.49245131296E+02  0.60724006619E+02 -0.77161792721E+03  0.77564980921E+03  0.11221096384E+02 0.  0.
         13    1    3    3    0    0  0.30927795920E+02  0.29520220388E+02 -0.43106251611E+03  0.43317763650E+03  0.00000000000E+00 0.  1.
          1    1    3    3  501    0  0.18317335376E+02  0.31203786231E+02 -0.34055541110E+03  0.34247217271E+03  0.00000000000E+00 0.  1.
         -3    1    1    2    0  502 -0.49245131296E+02 -0.60724006619E+02 -0.21961546652E+03  0.23311679706E+03  0.00000000000E+00 0. -1.
<mgrwt>
<rscale>  1 0.30000000E+03</rscale>
<asrwt>0</asrwt>
<pdfrwt beam="1">  1       21 0.31878635E-01 0.30000000E+03</pdfrwt>
<pdfrwt beam="2">0</pdfrwt>
<totfact> 0.96232835E+02</totfact>
</mgrwt>
</event>
<event>
 6    1  0.1284012E-001  0.3000000E+03  0.7818608E-02  0.1093470E+00
         21   -1    0    0  501  502  0.00000000000E+00  0.00000000000E+00  0.12843926053E+01  0.12843926053E+01  0.00000000000E+00 0. -1.
         13   -1    0    0    0    0 -0.00000000000E+00 -0.00000000000E+00 -0.10000000000E+04  0.10000000000E+04  0.00000000000E+00 0.  1.
    9000005    2    1    2  501    0 -0.33101484711E+01 -0.31106747792E+02 -0.74321931870E+03  0.74388015725E+03  0.20361294161E+01 0.  0.
         13    1    3    3    0    0 -0.24663692250E+01 -0.14684137143E+02 -0.36447741843E+03  0.36478143512E+03  0.00000000000E+00 0.  1.
          1    1    3    3  501    0 -0.84377924608E+00 -0.16422610649E+02 -0.37874190027E+03  0.37909872213E+03  0.00000000000E+00 0.  1.
         -3    1    1    2    0  502  0.33101484711E+01  0.31106747792E+02 -0.25549628870E+03  0.25740423536E+03  0.00000000000E+00 0. -1.
<mgrwt>
<rscale>  1 0.30000000E+03</rscale>
<asrwt>0</asrwt>
<pdfrwt beam="1">  1       21 0.46705284E-02 0.30000000E+03</pdfrwt>
<pdfrwt beam="2">0</pdfrwt>
<totfact> 0.32348414E+04</totfact>
</mgrwt>
</event>
<event>
 6    1  0.1284012E-001  0.3000000E+03  0.7818608E-02  0.1093470E+00
         21   -1    0    0  501  502  0.00000000000E+00  0.00000000000E+00  0.54463310502E+01  0.54463310502E+01  0.00000000000E+00 0. -1.
         13   -1    0    0    0    0 -0.00000000000E+00 -0.00000000000E+00 -0.10000000000E+04  0.10000000000E+04  0.00000000000E+00 0.  1.
    9000005    2    1    2  501    0 -0.33432757098E+02  0.65585847353E+02 -0.52955138784E+03  0.53465298566E+03  0.31448527567E+01 0.  0.
         13    1    3    3    0    0 -0.12011363225E+02  0.23177853777E+02 -0.19876722855E+03  0.20047418013E+03  0.00000000000E+00 0.  1.
          1    1    3    3  501    0 -0.21421393873E+02  0.42407993576E+02 -0.33078415929E+03  0.33417880554E+03  0.00000000000E+00 0.  1.
         -1    1    1    2    0  502  0.33432757098E+02 -0.65585847353E+02 -0.46500228111E+03  0.47079334539E+03  0.00000000000E+00 0. -1.
<mgrwt>
<rscale>  1 0.30000000E+03</rscale>
<asrwt>0</asrwt>
<pdfrwt beam="1">  1       21 0.19804882E-01 0.30000000E+03</pdfrwt>
<pdfrwt beam="2">0</pdfrwt>
<totfact> 0.24445140E+03</totfact>
</mgrwt>
</event>
<event>
 6    1  0.1284012E-001  0.3000000E+03  0.7818608E-02  0.1093470E+00
         21   -1    0    0  501  502  0.00000000000E+00  0.00000000000E+00  0.32927516970E+01  0.32927516970E+01  0.00000000000E+00 0. -1.
         13   -1    0    0    0    0 -0.00000000000E+00 -0.00000000000E+00 -0.10000000000E+04  0.10000000000E+04  0.00000000000E+00 0.  1.
    9000005    2    1    2  501    0  0.56319039396E+02 -0.25191166198E+01 -0.58954705279E+03  0.59224822253E+03  0.37482650400E+01 0.  0.
         13    1    3    3    0    0  0.56174596609E+02 -0.27320453960E+01 -0.58655272615E+03  0.58924286158E+03  0.00000000000E+00 0.  1.
          1    1    3    3  501    0  0.14444278752E+00  0.21292877620E+00 -0.29943266409E+01  0.30053609459E+01  0.00000000000E+00 0.  1.
         -3    1    1    2    0  502 -0.56319039396E+02  0.25191166198E+01 -0.40716019552E+03  0.41104452917E+03  0.00000000000E+00 0. -1.
<mgrwt>
<rscale>  1 0.30000000E+03</rscale>
<asrwt>0</asrwt>
<pdfrwt beam="1">  1       21 0.11973668E-01 0.30000000E+03</pdfrwt>
<pdfrwt beam="2">0</pdfrwt>
<totfact> 0.62218737E+03</totfact>
</mgrwt>
</event>
<event>
 6    1  0.1284012E-001  0.3000000E+03  0.7818608E-02  0.1093470E+00
         21   -1    0    0  501  502  0.00000000000E+00  0.00000000000E+00  0.12077368700E+01  0.12077368700E+01  0.00000000000E+00 0. -1.
         13   -1    0    0    0    0 -0.00000000000E+00 -0.00000000000E+00 -0.10000000000E+04  0.10000000000E+04  0.00000000000E+00 0.  1.
    9000005    2    1    2  501    0 -0.27102952666E+02  0.18875836551E+02 -0.65341520471E+03  0.65425503154E+03  0.27109608196E+01 0.  0.
         13    1    3    3    0    0 -0.58536686651E+01  0.34615532708E+01 -0.11622807372E+03  0.11642685647E+03  0.00000000000E+00 0.  1.
          1    1    3    3  501    0 -0.21249284001E+02  0.15414283281E+02 -0.53718713099E+03  0.53782817507E+03  0.00000000000E+00 0.  1.
         -1    1    1    2    0  502  0.27102952666E+02 -0.18875836551E+02 -0.34537705842E+03  0.34695270533E+03  0.00000000000E+00 0. -1.
<mgrwt>
<rscale>  1 0.30000000E+03</rscale>
<asrwt>0</asrwt>
<pdfrwt beam="1">  1       21 0.43917797E-02 0.30000000E+03</pdfrwt>
<pdfrwt beam="2">0</pdfrwt>
<totfact> 0.35909969E+04</totfact>
</mgrwt>
</event>
<event>
 6    1  0.1284012E-001  0.3000000E+03  0.7818608E-02  0.1093470E+00
         21   -1    0    0  501  502  0.00000000000E+00  0.00000000000E+00  0.88601556600E+01  0.88601556600E+01  0.00000000000E+00 0. -1.
         13   -1    0    0    0    0 -0.00000000000E+00 -0.00000000000E+00 -0.10000000000E+04  0.10000000000E+04  0.00000000000E+00 0.  1.
    9000005    2    1    2  501    0 -0.41921511383E+02  0.19401919684E+02 -0.93505774735E+03  0.93620308988E+03  0.30638261820E+01 0.  0.
         13    1    3    3    0    0 -0.18252652262E+02  0.99763256922E+01 -0.40757124253E+03  0.40810170807E+03  0.00000000000E+00 0.  1.
          1    1    3    3  501    0 -0.23668859121E+02  0.94255939918E+01 -0.52748650481E+03  0.52810138181E+03  0.00000000000E+00 0.  1.
         -1    1    1    2    0  502  0.41921511383E+02 -0.19401919684E+02 -0.56082096993E+02  0.72657065776E+02  0.00000000000E+00 0. -1.
<mgrwt>
<rscale>  1 0.30000000E+03</rscale>
<asrwt>0</asrwt>
<pdfrwt beam="1">  1       21 0.32218816E-01 0.30000000E+03</pdfrwt>
<pdfrwt beam="2">0</pdfrwt>
<totfact> 0.94189475E+02</totfact>
</mgrwt>
</event>
<event>
 6    1  0.1284012E-001  0.3000000E+03  0.7818608E-02  0.1093470E+00
         21   -1    0    0  501  502  0.00000000000E+00  0.00000000000E+00  0.14268528215E+01  0.14268528215E+01  0.00000000000E+00 0. -1.
         13   -1    0    0    0    0 -0.00000000000E+00 -0.00000000000E+00 -0.10000000000E+04  0.10000000000E+04  0.00000000000E+00 0.  1.
    9000005    2    1    2  501    0  0.34101753116E+02 -0.15878804455E+02 -0.52428461938E+03  0.52564888612E+03  0.41621346955E+01 0.  0.
         13    1    3    3    0    0  0.25177770295E+02 -0.12938666288E+02 -0.37284396667E+03  0.37391703984E+03  0.00000000000E+00 0.  1.
          1    1    3    3  501    0  0.89239828207E+01 -0.29401381668E+01 -0.15144065271E+03  0.15173184628E+03  0.00000000000E+00 0.  1.
         -3    1    1    2    0  502 -0.34101753116E+02  0.15878804455E+02 -0.47428852780E+03  0.47577796670E+03  0.00000000000E+00 0. -1.
<mgrwt>
<rscale>  1 0.30000000E+03</rscale>
<asrwt>0</asrwt>
<pdfrwt beam="1">  1       21 0.51885667E-02 0.30000000E+03</pdfrwt>
<pdfrwt beam="2">0</pdfrwt>
<totfact> 0.27041369E+04</totfact>
</mgrwt>
</event>
<event>
 6    1  0.1284012E-001  0.3000000E+03  0.7818608E-02  0.1093470E+00
         21   -1    0    0  501  502  0.00000000000E+00  0.00000000000E+00  0.13111488697E+01  0.13111488697E+01  0.00000000000E+00 0. -1.
         13   -1    0    0    0    0 -0.00000000000E+00 -0.00000000000E+00 -0.10000000000E+04  0.10000000000E+04  0.00000000000E+00 0.  1.
    9000005    2    1    2  501    0  0.11059075207E+02  0.32349752038E+02 -0.66235090830E+03  0.66324011878E+03  0.31495756442E+01 0.  0.
         13    1    3    3    0    0  0.29676293086E+01  0.12013441057E+02 -0.26011323009E+03  0.26040741552E+03  0.00000000000E+00 0.  1.
          1    1    3    3  501    0  0.80914458987E+01  0.20336310981E+02 -0.40223767821E+03  0.40283270326E+03  0.00000000000E+00 0.  1.
         -1    1    1    2    0  502 -0.11059075207E+02 -0.32349752038E+02 -0.33633794283E+03  0.33807103009E+03  0.00000000000E+00 0. -1.
<mgrwt>
<rscale>  1 0.30000000E+03</rscale>
<asrwt>0</asrwt>
<pdfrwt beam="1">  1       21 0.47678241E-02 0.30000000E+03</pdfrwt>
<pdfrwt beam="2">0</pdfrwt>
<totfact> 0.31233922E+04</totfact>
</mgrwt>
</event>
<event>
 6    1  0.1284012E-001  0.3000000E+03  0.7818608E-02  0.1093470E+00
         21   -1    0    0  501  502  0.00000000000E+00  0.00000000000E+00  0.12637904708E+01  0.12637904708E+01  0.00000000000E+00 0. -1.
         13   -1    0    0    0    0 -0.00000000000E+00 -0.00000000000E+00 -0.10000000000E+04  0.10000000000E+04  0.00000000000E+00 0.  1.
    9000005    2    1    2  501    0  0.21456880428E+01 -0.31822284954E+02 -0.70982077777E+03  0.71059320630E+03  0.89390424912E+01 0.  0.
         13    1    3    3    0    0  0.15232372302E+00 -0.25393744006E+02 -0.47731841208E+03  0.47799344341E+03  0.00000000000E+00 0.  1.
          1    1    3    3  501    0  0.19933643198E+01 -0.64285409481E+01 -0.23250236570E+03  0.23259976289E+03  0.00000000000E+00 0.  1.
         -1    1    1    2    0  502 -0.21456880428E+01  0.31822284954E+02 -0.28891543175E+03  0.29067058417E+03  0.00000000000E+00 0. -1.
<mgrwt>
<rscale>  1 0.30000000E+03</rscale>
<asrwt>0</asrwt>
<pdfrwt beam="1">  1       21 0.45956114E-02 0.30000000E+03</pdfrwt>
<pdfrwt beam="2">0</pdfrwt>
<totfact> 0.33249659E+04</totfact>
</mgrwt>
</event>
<event>
 6    1  0.1284012E-001  0.3000000E+03  0.7818608E-02  0.1093470E+00
         21   -1    0    0  501  502  0.00000000000E+00  0.00000000000E+00  0.63337560416E+01  0.63337560416E+01  0.00000000000E+00 0. -1.
         13   -1    0    0    0    0 -0.00000000000E+00 -0.00000000000E+00 -0.10000000000E+04  0.10000000000E+04  0.00000000000E+00 0.  1.
    9000005    2    1    2  501    0 -0.34308848976E+02 -0.96869192832E+01 -0.94666127281E+03  0.94733883392E+03  0.35167165020E+01 0.  0.
         13    1    3    3    0    0 -0.14315677987E+02 -0.58507229853E+01 -0.40711874260E+03  0.40741237116E+03  0.00000000000E+00 0.  1.
          1    1    3    3  501    0 -0.19993170990E+02 -0.38361962979E+01 -0.53954253021E+03  0.53992646276E+03  0.00000000000E+00 0.  1.
         -3    1    1    2    0  502  0.34308848976E+02  0.96869192832E+01 -0.47004971149E+02  0.58994922121E+02  0.00000000000E+00 0. -1.
<mgrwt>
<rscale>  1 0.30000000E+03</rscale>
<asrwt>0</asrwt>
<pdfrwt beam="1">  1       21 0.23031889E-01 0.30000000E+03</pdfrwt>
<pdfrwt beam="2">0</pdfrwt>
<totfact> 0.18293665E+03</totfact>
</mgrwt>
</event>
<event>
 6    1  0.1284012E-001  0.3000000E+03  0.7818608E-02  0.1093470E+00
         21   -1    0    0  501  502  0.00000000000E+00  0.00000000000E+00  0.19049924425E+01  0.19049924425E+01  0.00000000000E+00 0. -1.
         13   -1    0    0    0    0 -0.00000000000E+00 -0.00000000000E+00 -0.10000000000E+04  0.10000000000E+04  0.00000000000E+00 0.  1.
    9000005    2    1    2  501    0 -0.36311129479E+02  0.20374029111E+02 -0.64648635539E+03  0.64783968284E+03  0.42482664467E+01 0.  0.
         13    1    3    3    0    0 -0.19594468651E+02  0.12764254581E+02 -0.33966636866E+03  0.34047042661E+03  0.00000000000E+00 0.  1.
          3    1    3    3  501    0 -0.16716660829E+02  0.76097745303E+01 -0.30681998673E+03  0.30736925623E+03  0.00000000000E+00 0.  1.
         -1    1    1    2    0  502  0.36311129479E+02 -0.20374029111E+02 -0.35160865217E+03  0.35406530960E+03  0.00000000000E+00 0. -1.
<mgrwt>
<rscale>  1 0.30000000E+03</rscale>
<asrwt>0</asrwt>
<pdfrwt beam="1">  1       21 0.69272599E-02 0.30000000E+03</pdfrwt>
<pdfrwt beam="2">0</pdfrwt>
<totfact> 0.16431171E+04</totfact>
</mgrwt>
</event>
<event>
 6    1  0.1284012E-001  0.3000000E+03  0.7818608E-02  0.1093470E+00
         21   -1    0    0  501  502  0.00000000000E+00  0.00000000000E+00  0.16722524008E+01  0.16722524008E+01  0.00000000000E+00 0. -1.
         13   -1    0    0    0    0 -0.00000000000E+00 -0.00000000000E+00 -0.10000000000E+04  0.10000000000E+04  0.00000000000E+00 0.  1.
    9000005    2    1    2  501    0 -0.50302377501E+01  0.30981278296E+02 -0.81966155548E+03  0.82027007187E+03  0.35752439411E+01 0.  0.
         13    1    3    3    0    0 -0.20460556871E+01  0.16200028753E+02 -0.46984211545E+03  0.47012577118E+03  0.00000000000E+00 0.  1.
          3    1    3    3  501    0 -0.29841820630E+01  0.14781249543E+02 -0.34981944003E+03  0.35014430069E+03  0.00000000000E+00 0.  1.
         -1    1    1    2    0  502  0.50302377501E+01 -0.30981278296E+02 -0.17866619212E+03  0.18140218054E+03  0.00000000000E+00 0. -1.
<mgrwt>
<rscale>  1 0.30000000E+03</rscale>
<asrwt>0</asrwt>
<pdfrwt beam="1">  1       21 0.60809306E-02 0.30000000E+03</pdfrwt>
<pdfrwt beam="2">0</pdfrwt>
<totfact> 0.20590211E+04</totfact>
</mgrwt>
</event>
<event>
 6    1  0.1284012E-001  0.3000000E+03  0.7818608E-02  0.1093470E+00
         21   -1    0    0  501  502  0.00000000000E+00  0.00000000000E+00  0.27565535021E+01  0.27565535021E+01  0.00000000000E+00 0. -1.
         13   -1    0    0    0    0 -0.00000000000E+00 -0.00000000000E+00 -0.10000000000E+04  0.10000000000E+04  0.00000000000E+00 0.  1.
    9000005    2    1    2  501    0  0.37012240323E+02  0.42584113878E+01 -0.85169680856E+03  0.85251719841E+03  0.31748834591E+01 0.  0.
         13    1    3    3    0    0  0.13001794299E+02  0.30211573534E+01 -0.30113992861E+03  0.30143561609E+03  0.00000000000E+00 0.  1.
          1    1    3    3  501    0  0.24010446024E+02  0.12372540345E+01 -0.55055687994E+03  0.55108158232E+03  0.00000000000E+00 0.  1.
         -1    1    1    2    0  502 -0.37012240323E+02 -0.42584113878E+01 -0.14554663794E+03  0.15023935509E+03  0.00000000000E+00 0. -1.
<mgrwt>
<rscale>  1 0.30000000E+03</rscale>
<asrwt>0</asrwt>
<pdfrwt beam="1">  1       21 0.10023852E-01 0.30000000E+03</pdfrwt>
<pdfrwt beam="2">0</pdfrwt>
<totfact> 0.85666500E+03</totfact>
</mgrwt>
</event>
<event>
 6    1  0.1284012E-001  0.3000000E+03  0.7818608E-02  0.1093470E+00
         21   -1    0    0  501  502  0.00000000000E+00  0.00000000000E+00  0.14741483622E+01  0.14741483622E+01  0.00000000000E+00 0. -1.
         13   -1    0    0    0    0 -0.00000000000E+00 -0.00000000000E+00 -0.10000000000E+04  0.10000000000E+04  0.00000000000E+00 0.  1.
    9000005    2    1    2  501    0  0.21659884327E+02  0.31487241546E+02 -0.53729649596E+03  0.53866412739E+03  0.33046333390E+01 0.  0.
         13    1    3    3    0    0  0.15628451621E+02  0.22374065332E+02 -0.36202382450E+03  0.36305109393E+03  0.00000000000E+00 0.  1.
          3    1    3    3  501    0  0.60314327061E+01  0.91131762143E+01 -0.17527267146E+03  0.17561303346E+03  0.00000000000E+00 0.  1.
         -3    1    1    2    0  502 -0.21659884327E+02 -0.31487241546E+02 -0.46122935568E+03  0.46281002097E+03  0.00000000000E+00 0. -1.
<mgrwt>
<rscale>  1 0.30000000E+03</rscale>
<asrwt>0</asrwt>
<pdfrwt beam="1">  1       21 0.53605508E-02 0.30000000E+03</pdfrwt>
<pdfrwt beam="2">0</pdfrwt>
<totfact> 0.25574922E+04</totfact>
</mgrwt>
</event>
<event>
 6    1  0.1284012E-001  0.3000000E+03  0.7818608E-02  0.1093470E+00
         21   -1    0    0  501  502  0.00000000000E+00  0.00000000000E+00  0.27915063223E+01  0.27915063223E+01  0.00000000000E+00 0. -1.
         13   -1    0    0    0    0 -0.00000000000E+00 -0.00000000000E+00 -0.10000000000E+04  0.10000000000E+04  0.00000000000E+00 0.  1.
    9000005    2    1    2  501    0 -0.39552077631E+02 -0.19990763697E+01 -0.82974725298E+03  0.83071120447E+03  0.56778732370E+01 0.  0.
         13    1    3    3    0    0 -0.29547848487E+02 -0.21943216632E+01 -0.56721343600E+03  0.56798677130E+03  0.00000000000E+00 0.  1.
          3    1    3    3  501    0 -0.10004229144E+02  0.19524529349E+00 -0.26253381698E+03  0.26272443317E+03  0.00000000000E+00 0.  1.
         -1    1    1    2    0  502  0.39552077631E+02  0.19990763697E+01 -0.16746124069E+03  0.17208030185E+03  0.00000000000E+00 0. -1.
<mgrwt>
<rscale>  1 0.30000000E+03</rscale>
<asrwt>0</asrwt>
<pdfrwt beam="1">  1       21 0.10150953E-01 0.30000000E+03</pdfrwt>
<pdfrwt beam="2">0</pdfrwt>
<totfact> 0.83758321E+03</totfact>
</mgrwt>
</event>
<event>
 6    1  0.1284012E-001  0.3000000E+03  0.7818608E-02  0.1093470E+00
         21   -1    0    0  501  502  0.00000000000E+00  0.00000000000E+00  0.19163337939E+01  0.19163337939E+01  0.00000000000E+00 0. -1.
         13   -1    0    0    0    0 -0.00000000000E+00 -0.00000000000E+00 -0.10000000000E+04  0.10000000000E+04  0.00000000000E+00 0.  1.
    9000005    2    1    2  501    0 -0.52095462805E+01  0.32545176093E+02 -0.82828405332E+03  0.82894744527E+03  0.36147176618E+01 0.  0.
         13    1    3    3    0    0 -0.34794307067E+01  0.24934467443E+02 -0.66630448494E+03  0.66677994927E+03  0.00000000000E+00 0.  1.
          3    1    3    3  501    0 -0.17301155738E+01  0.76107086500E+01 -0.16197956838E+03  0.16216749600E+03  0.00000000000E+00 0.  1.
         -3    1    1    2    0  502  0.52095462805E+01 -0.32545176093E+02 -0.16979961289E+03  0.17296888852E+03  0.00000000000E+00 0. -1.
<mgrwt>
<rscale>  1 0.30000000E+03</rscale>
<asrwt>0</asrwt>
<pdfrwt beam="1">  1       21 0.69685012E-02 0.30000000E+03</pdfrwt>
<pdfrwt beam="2">0</pdfrwt>
<totfact> 0.16262406E+04</totfact>
</mgrwt>
</event>
<event>
 6    1  0.1284012E-001  0.3000000E+03  0.7818608E-02  0.1093470E+00
         21   -1    0    0  501  502  0.00000000000E+00  0.00000000000E+00  0.34987585774E+01  0.34987585774E+01  0.00000000000E+00 0. -1.
         13   -1    0    0    0    0 -0.00000000000E+00 -0.00000000000E+00 -0.10000000000E+04  0.10000000000E+04  0.00000000000E+00 0.  1.
    9000005    2    1    2  501    0  0.49678247445E+02 -0.15070741360E+02 -0.73846244861E+03  0.74028957540E+03  0.26099655088E+01 0.  0.
         13    1    3    3    0    0  0.19491218676E+02 -0.53881189145E+01 -0.30442879054E+03  0.30509970164E+03  0.00000000000E+00 0.  1.
          1    1    3    3  501    0  0.30187028769E+02 -0.96826224453E+01 -0.43403365807E+03  0.43518987376E+03  0.00000000000E+00 0.  1.
         -3    1    1    2    0  502 -0.49678247445E+02  0.15070741360E+02 -0.25803879281E+03  0.26320918318E+03  0.00000000000E+00 0. -1.
<mgrwt>
<rscale>  1 0.30000000E+03</rscale>
<asrwt>0</asrwt>
<pdfrwt beam="1">  1       21 0.12722785E-01 0.30000000E+03</pdfrwt>
<pdfrwt beam="2">0</pdfrwt>
<totfact> 0.55714089E+03</totfact>
</mgrwt>
</event>
<event>
 6    1  0.1284012E-001  0.3000000E+03  0.7818608E-02  0.1093470E+00
         21   -1    0    0  501  502  0.00000000000E+00  0.00000000000E+00  0.20251619524E+01  0.20251619524E+01  0.00000000000E+00 0. -1.
         13   -1    0    0    0    0 -0.00000000000E+00 -0.00000000000E+00 -0.10000000000E+04  0.10000000000E+04  0.00000000000E+00 0.  1.
    9000005    2    1    2  501    0 -0.25943782128E+02  0.30849852731E+02 -0.72097611376E+03  0.72210894860E+03  0.31597121112E+01 0.  0.
         13    1    3    3    0    0 -0.25250061487E+02  0.30323138436E+02 -0.69602769551E+03  0.69714533008E+03  0.00000000000E+00 0.  1.
          3    1    3    3  501    0 -0.69372064086E+00  0.52671429480E+00 -0.24948418254E+02  0.24963618521E+02  0.00000000000E+00 0.  1.
         -3    1    1    2    0  502  0.25943782128E+02 -0.30849852731E+02 -0.27699872428E+03  0.27991621336E+03  0.00000000000E+00 0. -1.
<mgrwt>
<rscale>  1 0.30000000E+03</rscale>
<asrwt>0</asrwt>
<pdfrwt beam="1">  1       21 0.73642408E-02 0.30000000E+03</pdfrwt>
<pdfrwt beam="2">0</pdfrwt>
<totfact> 0.14769063E+04</totfact>
</mgrwt>
</event>
<event>
 6    1  0.1284012E-001  0.3000000E+03  0.7818608E-02  0.1093470E+00
         21   -1    0    0  501  502  0.00000000000E+00  0.00000000000E+00  0.19457926407E+01  0.19457926407E+01  0.00000000000E+00 0. -1.
         13   -1    0    0    0    0 -0.00000000000E+00 -0.00000000000E+00 -0.10000000000E+04  0.10000000000E+04  0.00000000000E+00 0.  1.
    9000005    2    1    2  501    0  0.89392062152E+01 -0.30997526580E+02 -0.84026086965E+03  0.84088836969E+03  0.37636624098E+01 0.  0.
         13    1    3    3    0    0  0.12191539976E+01 -0.69379808279E+01 -0.22091882061E+03  0.22103110011E+03  0.00000000000E+00 0.  1.
          3    1    3    3  501    0  0.77200522177E+01 -0.24059545752E+02 -0.61934204903E+03  0.61985726958E+03  0.00000000000E+00 0.  1.
         -3    1    1    2    0  502 -0.89392062152E+01  0.30997526580E+02 -0.15779333771E+03  0.16105742295E+03  0.00000000000E+00 0. -1.
<mgrwt>
<rscale>  1 0.30000000E+03</rscale>
<asrwt>0</asrwt>
<pdfrwt beam="1">  1       21 0.70756245E-02 0.30000000E+03</pdfrwt>
<pdfrwt beam="2">0</pdfrwt>
<totfact> 0.15836217E+04</totfact>
</mgrwt>
</event>
<event>
 6    1  0.1284012E-001  0.3000000E+03  0.7818608E-02  0.1093470E+00
         21   -1    0    0  501  502  0.00000000000E+00  0.00000000000E+00  0.34827227580E+01  0.34827227580E+01  0.00000000000E+00 0. -1.
         13   -1    0    0    0    0 -0.00000000000E+00 -0.00000000000E+00 -0.10000000000E+04  0.10000000000E+04  0.00000000000E+00 0.  1.
    9000005    2    1    2  501    0  0.36545803336E+02  0.94940158061E+01 -0.88380144949E+03  0.88461056495E+03  0.22621696205E+01 0.  0.
         13    1    3    3    0    0  0.66135139759E+01  0.24886989662E+01 -0.17644883160E+03  0.17659026690E+03  0.00000000000E+00 0.  1.
          1    1    3    3  501    0  0.29932289360E+02  0.70053168400E+01 -0.70735261789E+03  0.70802029804E+03  0.00000000000E+00 0.  1.
         -1    1    1    2    0  502 -0.36545803336E+02 -0.94940158061E+01 -0.11271582775E+03  0.11887215781E+03  0.00000000000E+00 0. -1.
<mgrwt>
<rscale>  1 0.30000000E+03</rscale>
<asrwt>0</asrwt>
<pdfrwt beam="1">  1       21 0.12664473E-01 0.30000000E+03</pdfrwt>
<pdfrwt beam="2">0</pdfrwt>
<totfact> 0.56182669E+03</totfact>
</mgrwt>
</event>
<event>
 6    1  0.1284012E-001  0.3000000E+03  0.7818608E-02  0.1093470E+00
         21   -1    0    0  501  502  0.00000000000E+00  0.00000000000E+00  0.26373448579E+01  0.26373448579E+01  0.00000000000E+00 0. -1.
         13   -1    0    0    0    0 -0.00000000000E+00 -0.00000000000E+00 -0.10000000000E+04  0.10000000000E+04  0.00000000000E+00 0.  1.
    9000005    2    1    2  501    0  0.41887914409E+02 -0.28144752511E+02 -0.40916434428E+03  0.41227815134E+03  0.33300115045E+01 0.  0.
         13    1    3    3    0    0  0.16643681866E+02 -0.13077267654E+02 -0.16740925587E+03  0.16874206952E+03  0.00000000000E+00 0.  1.
          1    1    3    3  501    0  0.25244232543E+02 -0.15067484858E+02 -0.24175508842E+03  0.24353608183E+03  0.00000000000E+00 0.  1.
         -1    1    1    2    0  502 -0.41887914409E+02  0.28144752511E+02 -0.58819831086E+03  0.59035919351E+03  0.00000000000E+00 0. -1.
<mgrwt>
<rscale>  1 0.30000000E+03</rscale>
<asrwt>0</asrwt>
<pdfrwt beam="1">  1       21 0.95903652E-02 0.30000000E+03</pdfrwt>
<pdfrwt beam="2">0</pdfrwt>
<totfact> 0.92699914E+03</totfact>
</mgrwt>
</event>
<event>
 6    1  0.1284012E-001  0.3000000E+03  0.7818608E-02  0.1093470E+00
         21   -1    0    0  501  502  0.00000000000E+00  0.00000000000E+00  0.22989211056E+01  0.22989211056E+01  0.00000000000E+00 0. -1.
         13   -1    0    0    0    0 -0.00000000000E+00 -0.00000000000E+00 -0.10000000000E+04  0.10000000000E+04  0.00000000000E+00 0.  1.
    9000005    2    1    2  501    0  0.25640973700E+02  0.25238767189E+02 -0.82980906391E+03  0.83059515412E+03  0.32821637752E+01 0.  0.
         13    1    3    3    0    0  0.42646835949E+01  0.60372771764E+01 -0.17359448328E+03  0.17375177946E+03  0.00000000000E+00 0.  1.
          1    1    3    3  501    0  0.21376290105E+02  0.19201490012E+02 -0.65621458063E+03  0.65684337466E+03  0.00000000000E+00 0.  1.
         -3    1    1    2    0  502 -0.25640973700E+02 -0.25238767189E+02 -0.16789201499E+03  0.17170376699E+03  0.00000000000E+00 0. -1.
<mgrwt>
<rscale>  1 0.30000000E+03</rscale>
<asrwt>0</asrwt>
<pdfrwt beam="1">  1       21 0.83597307E-02 0.30000000E+03</pdfrwt>
<pdfrwt beam="2">0</pdfrwt>
<totfact> 0.11822934E+04</totfact>
</mgrwt>
</event>
<event>
 6    1  0.1284012E-001  0.3000000E+03  0.7818608E-02  0.1093470E+00
         21   -1    0    0  501  502  0.00000000000E+00  0.00000000000E+00  0.42035047081E+01  0.42035047081E+01  0.00000000000E+00 0. -1.
         13   -1    0    0    0    0 -0.00000000000E+00 -0.00000000000E+00 -0.10000000000E+04  0.10000000000E+04  0.00000000000E+00 0.  1.
    9000005    2    1    2  501    0 -0.47066302732E+02  0.13009075218E+02 -0.82806379666E+03  0.82950739405E+03  0.28969885963E+01 0.  0.
         13    1    3    3    0    0 -0.97958606952E+01  0.15008596324E+01 -0.16809878742E+03  0.16839065829E+03  0.00000000000E+00 0.  1.
          1    1    3    3  501    0 -0.37270442037E+02  0.11508215586E+02 -0.65996500924E+03  0.66111673576E+03  0.00000000000E+00 0.  1.
         -3    1    1    2    0  502  0.47066302732E+02 -0.13009075218E+02 -0.16773269863E+03  0.17469611066E+03  0.00000000000E+00 0. -1.
<mgrwt>
<rscale>  1 0.30000000E+03</rscale>
<asrwt>0</asrwt>
<pdfrwt beam="1">  1       21 0.15285504E-01 0.30000000E+03</pdfrwt>
<pdfrwt beam="2">0</pdfrwt>
<totfact> 0.39766433E+03</totfact>
</mgrwt>
</event>
<event>
 6    1  0.1284012E-001  0.3000000E+03  0.7818608E-02  0.1093470E+00
         21   -1    0    0  501  502  0.00000000000E+00  0.00000000000E+00  0.19304784475E+01  0.19304784475E+01  0.00000000000E+00 0. -1.
         13   -1    0    0    0    0 -0.00000000000E+00 -0.00000000000E+00 -0.10000000000E+04  0.10000000000E+04  0.00000000000E+00 0.  1.
    9000005    2    1    2  501    0  0.39871026687E+02  0.16636514641E+02 -0.58601883601E+03  0.58762112562E+03  0.37468282584E+01 0.  0.
         13    1    3    3    0    0  0.34098067737E+02  0.12819325351E+02 -0.49812993518E+03  0.49946015421E+03  0.00000000000E+00 0.  1.
          1    1    3    3  501    0  0.57729589505E+01  0.38171892894E+01 -0.87888900835E+02  0.88160971405E+02  0.00000000000E+00 0.  1.
         -1    1    1    2    0  502 -0.39871026687E+02 -0.16636514641E+02 -0.41205068554E+03  0.41430935283E+03  0.00000000000E+00 0. -1.
<mgrwt>
<rscale>  1 0.30000000E+03</rscale>
<asrwt>0</asrwt>
<pdfrwt beam="1">  1       21 0.70199364E-02 0.30000000E+03</pdfrwt>
<pdfrwt beam="2">0</pdfrwt>
<totfact> 0.16055613E+04</totfact>
</mgrwt>
</event>
<event>
 6    1  0.1284012E-001  0.3000000E+03  0.7818608E-02  0.1093470E+00
         21   -1    0    0  501  502  0.00000000000E+00  0.00000000000E+00  0.22944887451E+01  0.22944887451E+01  0.00000000000E+00 0. -1.
         13   -1    0    0    0    0 -0.00000000000E+00 -0.00000000000E+00 -0.10000000000E+04  0.10000000000E+04  0.00000000000E+00 0.  1.
    9000005    2    1    2  501    0  0.31903788668E+02  0.18332317189E+02 -0.81939774801E+03  0.82022970901E+03  0.31906929503E+01 0.  0.
         13    1    3    3    0    0  0.29044441720E+01  0.95166653156E+00 -0.55380108197E+02  0.55464383608E+02  0.00000000000E+00 0.  1.
          3    1    3    3  501    0  0.28999344496E+02  0.17380650657E+02 -0.76401763981E+03  0.76476532541E+03  0.00000000000E+00 0.  1.
         -3    1    1    2    0  502 -0.31903788668E+02 -0.18332317189E+02 -0.17830776324E+03  0.18206477973E+03  0.00000000000E+00 0. -1.
<mgrwt>
<rscale>  1 0.30000000E+03</rscale>
<asrwt>0</asrwt>
<pdfrwt beam="1">  1       21 0.83436130E-02 0.30000000E+03</pdfrwt>
<pdfrwt beam="2">0</pdfrwt>
<totfact> 0.11863187E+04</totfact>
</mgrwt>
</event>
<event>
 6    1  0.1284012E-001  0.3000000E+03  0.7818608E-02  0.1093470E+00
         21   -1    0    0  501  502  0.00000000000E+00  0.00000000000E+00  0.41551256778E+01  0.41551256778E+01  0.00000000000E+00 0. -1.
         13   -1    0    0    0    0 -0.00000000000E+00 -0.00000000000E+00 -0.10000000000E+04  0.10000000000E+04  0.00000000000E+00 0.  1.
    9000005    2    1    2  501    0  0.32738992479E+02 -0.46936795502E+02 -0.72732267434E+03  0.72960262381E+03  0.68419043901E+01 0.  0.
         13    1    3    3    0    0  0.38396467491E+01 -0.24746072600E+01 -0.65203132838E+02  0.65362948986E+02  0.00000000000E+00 0.  1.
          1    1    3    3  501    0  0.28899345729E+02 -0.44462188242E+02 -0.66211954150E+03  0.66423967482E+03  0.00000000000E+00 0.  1.
         -3    1    1    2    0  502 -0.32738992479E+02  0.46936795502E+02 -0.26852219998E+03  0.27455250187E+03  0.00000000000E+00 0. -1.
<mgrwt>
<rscale>  1 0.30000000E+03</rscale>
<asrwt>0</asrwt>
<pdfrwt beam="1">  1       21 0.15109580E-01 0.30000000E+03</pdfrwt>
<pdfrwt beam="2">0</pdfrwt>
<totfact> 0.40629051E+03</totfact>
</mgrwt>
</event>
<event>
 6    1  0.1284012E-001  0.3000000E+03  0.7818608E-02  0.1093470E+00
         21   -1    0    0  501  502  0.00000000000E+00  0.00000000000E+00  0.72406268589E+01  0.72406268589E+01  0.00000000000E+00 0. -1.
         13   -1    0    0    0    0 -0.00000000000E+00 -0.00000000000E+00 -0.10000000000E+04  0.10000000000E+04  0.00000000000E+00 0.  1.
    9000005    2    1    2  501    0 -0.38510751894E+02  0.41897495747E+02 -0.87073382462E+03  0.87259771894E+03  0.33026653747E+01 0.  0.
         13    1    3    3    0    0 -0.17776607578E+02  0.17046849759E+02 -0.36836694534E+03  0.36918939486E+03  0.00000000000E+00 0.  1.
          1    1    3    3  501    0 -0.20734144316E+02  0.24850645988E+02 -0.50236687928E+03  0.50340832407E+03  0.00000000000E+00 0.  1.
         -1    1    1    2    0  502  0.38510751894E+02 -0.41897495747E+02 -0.12202554852E+03  0.13464290792E+03  0.00000000000E+00 0. -1.
<mgrwt>
<rscale>  1 0.30000000E+03</rscale>
<asrwt>0</asrwt>
<pdfrwt beam="1">  1       21 0.26329608E-01 0.30000000E+03</pdfrwt>
<pdfrwt beam="2">0</pdfrwt>
<totfact> 0.14086370E+03</totfact>
</mgrwt>
</event>
<event>
 6    1  0.1284012E-001  0.3000000E+03  0.7818608E-02  0.1093470E+00
         21   -1    0    0  501  502  0.00000000000E+00  0.00000000000E+00  0.35719359477E+01  0.35719359477E+01  0.00000000000E+00 0. -1.
         13   -1    0    0    0    0 -0.00000000000E+00 -0.00000000000E+00 -0.10000000000E+04  0.10000000000E+04  0.00000000000E+00 0.  1.
    9000005    2    1    2  501    0  0.20124379468E+02  0.26140115795E+02 -0.91655561423E+03  0.91715489744E+03  0.32581636673E+01 0.  0.
         13    1    3    3    0    0  0.15444396830E+01  0.84270353056E+00 -0.45963315843E+02  0.45996976492E+02  0.00000000000E+00 0.  1.
          3    1    3    3  501    0  0.18579939785E+02  0.25297412265E+02 -0.87059229838E+03  0.87115792095E+03  0.00000000000E+00 0.  1.
         -1    1    1    2    0  502 -0.20124379468E+02 -0.26140115795E+02 -0.79872449826E+02  0.86417038505E+02  0.00000000000E+00 0. -1.
<mgrwt>
<rscale>  1 0.30000000E+03</rscale>
<asrwt>0</asrwt>
<pdfrwt beam="1">  1       21 0.12988885E-01 0.30000000E+03</pdfrwt>
<pdfrwt beam="2">0</pdfrwt>
<totfact> 0.53648973E+03</totfact>
</mgrwt>
</event>
<event>
 6    1  0.1284012E-001  0.3000000E+03  0.7818608E-02  0.1093470E+00
         21   -1    0    0  501  502  0.00000000000E+00  0.00000000000E+00  0.10526894546E+01  0.10526894546E+01  0.00000000000E+00 0. -1.
         13   -1    0    0    0    0 -0.00000000000E+00 -0.00000000000E+00 -0.10000000000E+04  0.10000000000E+04  0.00000000000E+00 0.  1.
    9000005    2    1    2  501    0 -0.27579665331E+02  0.16648010409E+02 -0.46519052570E+03  0.46632462814E+03  0.43173391301E+01 0.  0.
         13    1    3    3    0    0 -0.15630326039E+02  0.10505085835E+02 -0.24336976845E+03  0.24409733329E+03  0.00000000000E+00 0.  1.
          3    1    3    3  501    0 -0.11949339293E+02  0.61429245740E+01 -0.22182075725E+03  0.22222729485E+03  0.00000000000E+00 0.  1.
         -1    1    1    2    0  502  0.27579665331E+02 -0.16648010409E+02 -0.53375678485E+03  0.53472806132E+03  0.00000000000E+00 0. -1.
<mgrwt>
<rscale>  1 0.30000000E+03</rscale>
<asrwt>0</asrwt>
<pdfrwt beam="1">  1       21 0.38279697E-02 0.30000000E+03</pdfrwt>
<pdfrwt beam="2">0</pdfrwt>
<totfact> 0.45274703E+04</totfact>
</mgrwt>
</event>
<event>
 6    1  0.1284012E-001  0.3000000E+03  0.7818608E-02  0.1093470E+00
         21   -1    0    0  501  502  0.00000000000E+00  0.00000000000E+00  0.49367319958E+01  0.49367319958E+01  0.00000000000E+00 0. -1.
         13   -1    0    0    0    0 -0.00000000000E+00 -0.00000000000E+00 -0.10000000000E+04  0.10000000000E+04  0.00000000000E+00 0.  1.
    9000005    2    1    2  501    0  0.63473922856E+02  0.26029669787E+02 -0.60493973313E+03  0.60882708171E+03  0.34426885063E+01 0.  0.
         13    1    3    3    0    0  0.60354117735E+01  0.17366730075E+01 -0.62055322325E+02  0.62372311623E+02  0.00000000000E+00 0.  1.
          3    1    3    3  501    0  0.57438511083E+02  0.24292996779E+02 -0.54288441081E+03  0.54645477008E+03  0.00000000000E+00 0.  1.
         -3    1    1    2    0  502 -0.63473922856E+02 -0.26029669787E+02 -0.39012353487E+03  0.39610965029E+03  0.00000000000E+00 0. -1.
<mgrwt>
<rscale>  1 0.30000000E+03</rscale>
<asrwt>0</asrwt>
<pdfrwt beam="1">  1       21 0.17951791E-01 0.30000000E+03</pdfrwt>
<pdfrwt beam="2">0</pdfrwt>
<totfact> 0.29443850E+03</totfact>
</mgrwt>
</event>
<event>
 6    1  0.1284012E-001  0.3000000E+03  0.7818608E-02  0.1093470E+00
         21   -1    0    0  501  502  0.00000000000E+00  0.00000000000E+00  0.31742992792E+01  0.31742992792E+01  0.00000000000E+00 0. -1.
         13   -1    0    0    0    0 -0.00000000000E+00 -0.00000000000E+00 -0.10000000000E+04  0.10000000000E+04  0.00000000000E+00 0.  1.
    9000005    2    1    2  501    0  0.28226915194E+02 -0.41588332756E+02 -0.72443145857E+03  0.72618157136E+03  0.35196953741E+01 0.  0.
         13    1    3    3    0    0  0.86946026723E+01 -0.10072891877E+02 -0.18841075726E+03  0.18888004849E+03  0.00000000000E+00 0.  1.
          3    1    3    3  501    0  0.19532312522E+02 -0.31515440879E+02 -0.53602070131E+03  0.53730152287E+03  0.00000000000E+00 0.  1.
         -3    1    1    2    0  502 -0.28226915194E+02  0.41588332756E+02 -0.27239424216E+03  0.27699272792E+03  0.00000000000E+00 0. -1.
<mgrwt>
<rscale>  1 0.30000000E+03</rscale>
<asrwt>0</asrwt>
<pdfrwt beam="1">  1       21 0.11542931E-01 0.30000000E+03</pdfrwt>
<pdfrwt beam="2">0</pdfrwt>
<totfact> 0.66486382E+03</totfact>
</mgrwt>
</event>
<event>
 6    1  0.1284012E-001  0.3000000E+03  0.7818608E-02  0.1093470E+00
         21   -1    0    0  501  502  0.00000000000E+00  0.00000000000E+00  0.60476591470E+01  0.60476591470E+01  0.00000000000E+00 0. -1.
         13   -1    0    0    0    0 -0.00000000000E+00 -0.00000000000E+00 -0.10000000000E+04  0.10000000000E+04  0.00000000000E+00 0.  1.
    9000005    2    1    2  501    0 -0.41709985465E+02  0.28233164098E+02 -0.88016537045E+03  0.88161169539E+03  0.33567345623E+01 0.  0.
         13    1    3    3    0    0 -0.17150520159E+02  0.13603909545E+02 -0.37830225392E+03  0.37893508946E+03  0.00000000000E+00 0.  1.
          3    1    3    3  501    0 -0.24559465306E+02  0.14629254554E+02 -0.50186311653E+03  0.50267660594E+03  0.00000000000E+00 0.  1.
         -3    1    1    2    0  502  0.41709985465E+02 -0.28233164098E+02 -0.11378697040E+03  0.12443596375E+03  0.00000000000E+00 0. -1.
<mgrwt>
<rscale>  1 0.30000000E+03</rscale>
<asrwt>0</asrwt>
<pdfrwt beam="1">  1       21 0.21991534E-01 0.30000000E+03</pdfrwt>
<pdfrwt beam="2">0</pdfrwt>
<totfact> 0.20000748E+03</totfact>
</mgrwt>
</event>
<event>
 6    1  0.1284012E-001  0.3000000E+03  0.7818608E-02  0.1093470E+00
         21   -1    0    0  501  502  0.00000000000E+00  0.00000000000E+00  0.38570798961E+01  0.38570798961E+01  0.00000000000E+00 0. -1.
         13   -1    0    0    0    0 -0.00000000000E+00 -0.00000000000E+00 -0.10000000000E+04  0.10000000000E+04  0.00000000000E+00 0.  1.
    9000005    2    1    2  501    0 -0.42061249237E+02 -0.27628411750E+02 -0.79184134778E+03  0.79344888073E+03  0.39910463660E+01 0.  0.
         13    1    3    3    0    0 -0.19993957862E+02 -0.15312225584E+02 -0.40805238309E+03  0.40882877828E+03  0.00000000000E+00 0.  1.
          3    1    3    3  501    0 -0.22067291375E+02 -0.12316186166E+02 -0.38378896469E+03  0.38462010245E+03  0.00000000000E+00 0.  1.
         -1    1    1    2    0  502  0.42061249237E+02  0.27628411750E+02 -0.20430157232E+03  0.21040819917E+03  0.00000000000E+00 0. -1.
<mgrwt>
<rscale>  1 0.30000000E+03</rscale>
<asrwt>0</asrwt>
<pdfrwt beam="1">  1       21 0.14025775E-01 0.30000000E+03</pdfrwt>
<pdfrwt beam="2">0</pdfrwt>
<totfact> 0.46608973E+03</totfact>
</mgrwt>
</event>
<event>
 6    1  0.1284012E-001  0.3000000E+03  0.7818608E-02  0.1093470E+00
         21   -1    0    0  501  502  0.00000000000E+00  0.00000000000E+00  0.39821943806E+01  0.39821943806E+01  0.00000000000E+00 0. -1.
         13   -1    0    0    0    0 -0.00000000000E+00 -0.00000000000E+00 -0.10000000000E+04  0.10000000000E+04  0.00000000000E+00 0.  1.
    9000005    2    1    2  501    0 -0.42213002533E+02 -0.28722938403E+02 -0.79273069684E+03  0.79438116058E+03  0.35391810609E+01 0.  0.
         13    1    3    3    0    0 -0.36297916924E+02 -0.23185298470E+02 -0.66225957628E+03  0.66365867975E+03  0.00000000000E+00 0.  1.
          3    1    3    3  501    0 -0.59150856092E+01 -0.55376399327E+01 -0.13047112056E+03  0.13072248083E+03  0.00000000000E+00 0.  1.
         -3    1    1    2    0  502  0.42213002533E+02  0.28722938403E+02 -0.20328710878E+03  0.20960103380E+03  0.00000000000E+00 0. -1.
<mgrwt>
<rscale>  1 0.30000000E+03</rscale>
<asrwt>0</asrwt>
<pdfrwt beam="1">  1       21 0.14480737E-01 0.30000000E+03</pdfrwt>
<pdfrwt beam="2">0</pdfrwt>
<totfact> 0.43949355E+03</totfact>
</mgrwt>
</event>
<event>
 6    1  0.1284012E-001  0.3000000E+03  0.7818608E-02  0.1093470E+00
         21   -1    0    0  501  502  0.00000000000E+00  0.00000000000E+00  0.97508119200E+00  0.97508119200E+00  0.00000000000E+00 0. -1.
         13   -1    0    0    0    0 -0.00000000000E+00 -0.00000000000E+00 -0.10000000000E+04  0.10000000000E+04  0.00000000000E+00 0.  1.
    9000005    2    1    2  501    0  0.60733467958E+01 -0.29617488575E+02 -0.60669364703E+03  0.60748059841E+03  0.64354423464E+01 0.  0.
         13    1    3    3    0    0  0.20871567406E+01 -0.23597314521E+02 -0.46740481314E+03  0.46800475299E+03  0.00000000000E+00 0.  1.
          1    1    3    3  501    0  0.39861900551E+01 -0.60201740535E+01 -0.13928883389E+03  0.13947584541E+03  0.00000000000E+00 0.  1.
         -3    1    1    2    0  502 -0.60733467958E+01  0.29617488575E+02 -0.39233127177E+03  0.39349448279E+03  0.00000000000E+00 0. -1.
<mgrwt>
<rscale>  1 0.30000000E+03</rscale>
<asrwt>0</asrwt>
<pdfrwt beam="1">  1       21 0.35457573E-02 0.30000000E+03</pdfrwt>
<pdfrwt beam="2">0</pdfrwt>
<totfact> 0.51484245E+04</totfact>
</mgrwt>
</event>
<event>
 6    1  0.1284012E-001  0.3000000E+03  0.7818608E-02  0.1093470E+00
         21   -1    0    0  501  502  0.00000000000E+00  0.00000000000E+00  0.10155608370E+01  0.10155608370E+01  0.00000000000E+00 0. -1.
         13   -1    0    0    0    0 -0.00000000000E+00 -0.00000000000E+00 -0.10000000000E+04  0.10000000000E+04  0.00000000000E+00 0.  1.
    9000005    2    1    2  501    0  0.15612482194E+02  0.26186170542E+02 -0.35908443009E+03  0.36038970533E+03  0.31059055697E+01 0.  0.
         13    1    3    3    0    0  0.12949080156E+02  0.22196146978E+02 -0.28834866226E+03  0.28949144831E+03  0.00000000000E+00 0.  1.
          1    1    3    3  501    0  0.26634020380E+01  0.39900235640E+01 -0.70735767828E+02  0.70898257021E+02  0.00000000000E+00 0.  1.
         -3    1    1    2    0  502 -0.15612482194E+02 -0.26186170542E+02 -0.63990000907E+03  0.64062585550E+03  0.00000000000E+00 0. -1.
<mgrwt>
<rscale>  1 0.30000000E+03</rscale>
<asrwt>0</asrwt>
<pdfrwt beam="1">  1       21 0.36929563E-02 0.30000000E+03</pdfrwt>
<pdfrwt beam="2">0</pdfrwt>
<totfact> 0.48088992E+04</totfact>
</mgrwt>
</event>
<event>
 6    1  0.1284012E-001  0.3000000E+03  0.7818608E-02  0.1093470E+00
         21   -1    0    0  501  502  0.00000000000E+00  0.00000000000E+00  0.53667816267E+01  0.53667816267E+01  0.00000000000E+00 0. -1.
         13   -1    0    0    0    0 -0.00000000000E+00 -0.00000000000E+00 -0.10000000000E+04  0.10000000000E+04  0.00000000000E+00 0.  1.
    9000005    2    1    2  501    0  0.30761108474E+02 -0.43147072634E+01 -0.95234559341E+03  0.95289673571E+03  0.92302301455E+01 0.  0.
         13    1    3    3    0    0  0.16242894057E+02 -0.44052298367E+01 -0.38866848192E+03  0.38903268050E+03  0.00000000000E+00 0.  1.
          1    1    3    3  501    0  0.14518214417E+02  0.90522573313E-01 -0.56367711149E+03  0.56386405521E+03  0.00000000000E+00 0.  1.
         -3    1    1    2    0  502 -0.30761108474E+02  0.43147072634E+01 -0.42287624962E+02  0.52470045914E+02  0.00000000000E+00 0. -1.
<mgrwt>
<rscale>  1 0.30000000E+03</rscale>
<asrwt>0</asrwt>
<pdfrwt beam="1">  1       21 0.19515611E-01 0.30000000E+03</pdfrwt>
<pdfrwt beam="2">0</pdfrwt>
<totfact> 0.25139727E+03</totfact>
</mgrwt>
</event>
<event>
 6    1  0.1284012E-001  0.3000000E+03  0.7818608E-02  0.1093470E+00
         21   -1    0    0  501  502  0.00000000000E+00  0.00000000000E+00  0.29412674459E+01  0.29412674459E+01  0.00000000000E+00 0. -1.
         13   -1    0    0    0    0 -0.00000000000E+00 -0.00000000000E+00 -0.10000000000E+04  0.10000000000E+04  0.00000000000E+00 0.  1.
    9000005    2    1    2  501    0  0.21549275933E+02 -0.40661423499E+02 -0.23464378445E+03  0.23913875649E+03  0.34520456386E+01 0.  0.
         13    1    3    3    0    0 -0.10037704571E+00 -0.58040775637E+00 -0.26353962993E+01  0.27004189248E+01  0.00000000000E+00 0.  1.
          1    1    3    3  501    0  0.21649652978E+02 -0.40081015743E+02 -0.23200838815E+03  0.23643833757E+03  0.00000000000E+00 0.  1.
         -3    1    1    2    0  502 -0.21549275933E+02  0.40661423499E+02 -0.76241494810E+03  0.76380251095E+03  0.00000000000E+00 0. -1.
<mgrwt>
<rscale>  1 0.30000000E+03</rscale>
<asrwt>0</asrwt>
<pdfrwt beam="1">  1       21 0.10695541E-01 0.30000000E+03</pdfrwt>
<pdfrwt beam="2">0</pdfrwt>
<totfact> 0.76271982E+03</totfact>
</mgrwt>
</event>
<event>
 6    1  0.1284012E-001  0.3000000E+03  0.7818608E-02  0.1093470E+00
         21   -1    0    0  501  502  0.00000000000E+00  0.00000000000E+00  0.15956745269E+01  0.15956745269E+01  0.00000000000E+00 0. -1.
         13   -1    0    0    0    0 -0.00000000000E+00 -0.00000000000E+00 -0.10000000000E+04  0.10000000000E+04  0.00000000000E+00 0.  1.
    9000005    2    1    2  501    0 -0.22603691266E+02  0.21290739940E+02 -0.81320934641E+03  0.81381547660E+03  0.46868312295E+01 0.  0.
         13    1    3    3    0    0 -0.43873445940E+01  0.64178281061E+01 -0.23331073848E+03  0.23344022361E+03  0.00000000000E+00 0.  1.
          1    1    3    3  501    0 -0.18216346672E+02  0.14872911834E+02 -0.57989860793E+03  0.58037525298E+03  0.00000000000E+00 0.  1.
         -3    1    1    2    0  502  0.22603691266E+02 -0.21290739940E+02 -0.18519497906E+03  0.18778019793E+03  0.00000000000E+00 0. -1.
<mgrwt>
<rscale>  1 0.30000000E+03</rscale>
<asrwt>0</asrwt>
<pdfrwt beam="1">  1       21 0.58024651E-02 0.30000000E+03</pdfrwt>
<pdfrwt beam="2">0</pdfrwt>
<totfact> 0.22323231E+04</totfact>
</mgrwt>
</event>
<event>
 6    1  0.1284012E-001  0.3000000E+03  0.7818608E-02  0.1093470E+00
         21   -1    0    0  501  502  0.00000000000E+00  0.00000000000E+00  0.10801470869E+01  0.10801470869E+01  0.00000000000E+00 0. -1.
         13   -1    0    0    0    0 -0.00000000000E+00 -0.00000000000E+00 -0.10000000000E+04  0.10000000000E+04  0.00000000000E+00 0.  1.
    9000005    2    1    2  501    0  0.28678829124E+02  0.12806561298E+02 -0.64411109484E+03  0.64488393984E+03  0.31161056651E+01 0.  0.
         13    1    3    3    0    0  0.92294874573E+01  0.30407878180E+01 -0.17804374843E+03  0.17830873839E+03  0.00000000000E+00 0.  1.
          1    1    3    3  501    0  0.19449341666E+02  0.97657734798E+01 -0.46606734641E+03  0.46657520145E+03  0.00000000000E+00 0.  1.
         -1    1    1    2    0  502 -0.28678829124E+02 -0.12806561298E+02 -0.35480875807E+03  0.35619620725E+03  0.00000000000E+00 0. -1.
<mgrwt>
<rscale>  1 0.30000000E+03</rscale>
<asrwt>0</asrwt>
<pdfrwt beam="1">  1       21 0.39278159E-02 0.30000000E+03</pdfrwt>
<pdfrwt beam="2">0</pdfrwt>
<totfact> 0.43356198E+04</totfact>
</mgrwt>
</event>
<event>
 6    1  0.1284012E-001  0.3000000E+03  0.7818608E-02  0.1093470E+00
         21   -1    0    0  501  502  0.00000000000E+00  0.00000000000E+00  0.60480890163E+01  0.60480890163E+01  0.00000000000E+00 0. -1.
         13   -1    0    0    0    0 -0.00000000000E+00 -0.00000000000E+00 -0.10000000000E+04  0.10000000000E+04  0.00000000000E+00 0.  1.
    9000005    2    1    2  501    0  0.29444789363E+02  0.12374524675E+02 -0.95558231640E+03  0.95612464493E+03  0.40802855765E+01 0.  0.
         13    1    3    3    0    0  0.17866824431E+01 -0.47713172457E-01 -0.38883807456E+02  0.38924863429E+02  0.00000000000E+00 0.  1.
          3    1    3    3  501    0  0.27658106920E+02  0.12422237847E+02 -0.91669850895E+03  0.91719978150E+03  0.00000000000E+00 0.  1.
         -1    1    1    2    0  502 -0.29444789363E+02 -0.12374524675E+02 -0.38369594580E+02  0.49923444090E+02  0.00000000000E+00 0. -1.
<mgrwt>
<rscale>  1 0.30000000E+03</rscale>
<asrwt>0</asrwt>
<pdfrwt beam="1">  1       21 0.21993097E-01 0.30000000E+03</pdfrwt>
<pdfrwt beam="2">0</pdfrwt>
<totfact> 0.19998011E+03</totfact>
</mgrwt>
</event>
<event>
 6    1  0.1284012E-001  0.3000000E+03  0.7818608E-02  0.1093470E+00
         21   -1    0    0  501  502  0.00000000000E+00  0.00000000000E+00  0.16907370985E+01  0.16907370985E+01  0.00000000000E+00 0. -1.
         13   -1    0    0    0    0 -0.00000000000E+00 -0.00000000000E+00 -0.10000000000E+04  0.10000000000E+04  0.00000000000E+00 0.  1.
    9000005    2    1    2  501    0  0.22173258714E+02  0.25882376839E+02 -0.77280588746E+03  0.77362644097E+03  0.10362414919E+02 0.  0.
         13    1    3    3    0    0  0.49959111553E+01  0.93894286004E+01 -0.33962402064E+03  0.33979051766E+03  0.00000000000E+00 0.  1.
          1    1    3    3  501    0  0.17177347558E+02  0.16492948239E+02 -0.43318186682E+03  0.43383592330E+03  0.00000000000E+00 0.  1.
         -3    1    1    2    0  502 -0.22173258714E+02 -0.25882376839E+02 -0.22550337545E+03  0.22806429613E+03  0.00000000000E+00 0. -1.
<mgrwt>
<rscale>  1 0.30000000E+03</rscale>
<asrwt>0</asrwt>
<pdfrwt beam="1">  1       21 0.61481479E-02 0.30000000E+03</pdfrwt>
<pdfrwt beam="2">0</pdfrwt>
<totfact> 0.20203213E+04</totfact>
</mgrwt>
</event>
<event>
 6    1  0.1284012E-001  0.3000000E+03  0.7818608E-02  0.1093470E+00
         21   -1    0    0  501  502  0.00000000000E+00  0.00000000000E+00  0.10797357386E+01  0.10797357386E+01  0.00000000000E+00 0. -1.
         13   -1    0    0    0    0 -0.00000000000E+00 -0.00000000000E+00 -0.10000000000E+04  0.10000000000E+04  0.00000000000E+00 0.  1.
    9000005    2    1    2  501    0 -0.17889306492E+02 -0.26307089643E+02 -0.37959679351E+03  0.38093970987E+03  0.30408330685E+01 0.  0.
         13    1    3    3    0    0 -0.78074163210E+01 -0.89265172166E+01 -0.13726797344E+03  0.13777929813E+03  0.00000000000E+00 0.  1.
          3    1    3    3  501    0 -0.10081890171E+02 -0.17380572427E+02 -0.24232882006E+03  0.24316041175E+03  0.00000000000E+00 0.  1.
         -1    1    1    2    0  502  0.17889306492E+02  0.26307089643E+02 -0.61932347075E+03  0.62014002586E+03  0.00000000000E+00 0. -1.
<mgrwt>
<rscale>  1 0.30000000E+03</rscale>
<asrwt>0</asrwt>
<pdfrwt beam="1">  1       21 0.39263201E-02 0.30000000E+03</pdfrwt>
<pdfrwt beam="2">0</pdfrwt>
<totfact> 0.43383992E+04</totfact>
</mgrwt>
</event>
<event>
 6    1  0.1284012E-001  0.3000000E+03  0.7818608E-02  0.1093470E+00
         21   -1    0    0  501  502  0.00000000000E+00  0.00000000000E+00  0.24562778963E+01  0.24562778963E+01  0.00000000000E+00 0. -1.
         13   -1    0    0    0    0 -0.00000000000E+00 -0.00000000000E+00 -0.10000000000E+04  0.10000000000E+04  0.00000000000E+00 0.  1.
    9000005    2    1    2  501    0  0.30331324312E+02 -0.84175844248E+01 -0.88567607268E+03  0.88624433380E+03  0.40085559306E+01 0.  0.
         13    1    3    3    0    0  0.18368374853E+02 -0.53222403941E+01 -0.48217348261E+03  0.48255257824E+03  0.00000000000E+00 0.  1.
          1    1    3    3  501    0  0.11962949459E+02 -0.30953440307E+01 -0.40350259007E+03  0.40369175556E+03  0.00000000000E+00 0.  1.
         -3    1    1    2    0  502 -0.30331324312E+02  0.84175844248E+01 -0.11186764943E+03  0.11621194409E+03  0.00000000000E+00 0. -1.
<mgrwt>
<rscale>  1 0.30000000E+03</rscale>
<asrwt>0</asrwt>
<pdfrwt beam="1">  1       21 0.89319385E-02 0.30000000E+03</pdfrwt>
<pdfrwt beam="2">0</pdfrwt>
<totfact> 0.10518558E+04</totfact>
</mgrwt>
</event>
<event>
 6    1  0.1284012E-001  0.3000000E+03  0.7818608E-02  0.1093470E+00
         21   -1    0    0  501  502  0.00000000000E+00  0.00000000000E+00  0.42074965498E+01  0.42074965498E+01  0.00000000000E+00 0. -1.
         13   -1    0    0    0    0 -0.00000000000E+00 -0.00000000000E+00 -0.10000000000E+04  0.10000000000E+04  0.00000000000E+00 0.  1.
    9000005    2    1    2  501    0  0.36260091918E+02  0.41811222293E+02 -0.75940159051E+03  0.76142439109E+03  0.36544635199E+01 0.  0.
         13    1    3    3    0    0  0.19500716308E+02  0.23473829072E+02 -0.44179447177E+03  0.44284721279E+03  0.00000000000E+00 0.  1.
          1    1    3    3  501    0  0.16759375610E+02  0.18337393221E+02 -0.31760711874E+03  0.31857717830E+03  0.00000000000E+00 0.  1.
         -1    1    1    2    0  502 -0.36260091918E+02 -0.41811222293E+02 -0.23639091294E+03  0.24278310546E+03  0.00000000000E+00 0. -1.
<mgrwt>
<rscale>  1 0.30000000E+03</rscale>
<asrwt>0</asrwt>
<pdfrwt beam="1">  1       21 0.15300020E-01 0.30000000E+03</pdfrwt>
<pdfrwt beam="2">0</pdfrwt>
<totfact> 0.39696464E+03</totfact>
</mgrwt>
</event>
<event>
 6    1  0.1284012E-001  0.3000000E+03  0.7818608E-02  0.1093470E+00
         21   -1    0    0  501  502  0.00000000000E+00  0.00000000000E+00  0.93085284119E+01  0.93085284119E+01  0.00000000000E+00 0. -1.
         13   -1    0    0    0    0 -0.00000000000E+00 -0.00000000000E+00 -0.10000000000E+04  0.10000000000E+04  0.00000000000E+00 0.  1.
    9000005    2    1    2  501    0  0.20125186120E+02 -0.78146056237E+02 -0.77142261254E+03  0.77566208232E+03  0.68548956146E+01 0.  0.
         13    1    3    3    0    0  0.11604982517E+00 -0.36572349858E+01 -0.48055891928E+02  0.48194995428E+02  0.00000000000E+00 0.  1.
          1    1    3    3  501    0  0.20009136295E+02 -0.74488821251E+02 -0.72336672061E+03  0.72746708689E+03  0.00000000000E+00 0.  1.
         -3    1    1    2    0  502 -0.20125186120E+02  0.78146056237E+02 -0.21926885905E+03  0.23364644609E+03  0.00000000000E+00 0. -1.
<mgrwt>
<rscale>  1 0.30000000E+03</rscale>
<asrwt>0</asrwt>
<pdfrwt beam="1">  1       21 0.33849266E-01 0.30000000E+03</pdfrwt>
<pdfrwt beam="2">0</pdfrwt>
<totfact> 0.85200300E+02</totfact>
</mgrwt>
</event>
<event>
 6    1  0.1284012E-001  0.3000000E+03  0.7818608E-02  0.1093470E+00
         21   -1    0    0  501  502  0.00000000000E+00  0.00000000000E+00  0.20624507081E+01  0.20624507081E+01  0.00000000000E+00 0. -1.
         13   -1    0    0    0    0 -0.00000000000E+00 -0.00000000000E+00 -0.10000000000E+04  0.10000000000E+04  0.00000000000E+00 0.  1.
    9000005    2    1    2  501    0 -0.29602212687E+02 -0.11788939686E+02 -0.85572498148E+03  0.85632403937E+03  0.32165795101E+01 0.  0.
         13    1    3    3    0    0 -0.26437444196E+02 -0.11071797906E+02 -0.74384788070E+03  0.74439988768E+03  0.00000000000E+00 0.  1.
          1    1    3    3  501    0 -0.31647684915E+01 -0.71714178019E+00 -0.11187710078E+03  0.11192415169E+03  0.00000000000E+00 0.  1.
         -3    1    1    2    0  502  0.29602212687E+02  0.11788939686E+02 -0.14221256781E+03  0.14573841134E+03  0.00000000000E+00 0. -1.
<mgrwt>
<rscale>  1 0.30000000E+03</rscale>
<asrwt>0</asrwt>
<pdfrwt beam="1">  1       21 0.74998366E-02 0.30000000E+03</pdfrwt>
<pdfrwt beam="2">0</pdfrwt>
<totfact> 0.14305009E+04</totfact>
</mgrwt>
</event>
<event>
 6    1  0.1284012E-001  0.3000000E+03  0.7818608E-02  0.1093470E+00
         21   -1    0    0  501  502  0.00000000000E+00  0.00000000000E+00  0.28086347810E+01  0.28086347810E+01  0.00000000000E+00 0. -1.
         13   -1    0    0    0    0 -0.00000000000E+00 -0.00000000000E+00 -0.10000000000E+04  0.10000000000E+04  0.00000000000E+00 0.  1.
    9000005    2    1    2  501    0  0.47295369261E+02 -0.22856607469E+02 -0.56191027614E+03  0.56436946800E+03  0.32344272326E+01 0.  0.
         13    1    3    3    0    0  0.11504214826E+02 -0.66867370972E+01 -0.15289029922E+03  0.15346824756E+03  0.00000000000E+00 0.  1.
          3    1    3    3  501    0  0.35791154434E+02 -0.16169870372E+02 -0.40901997692E+03  0.41090122044E+03  0.00000000000E+00 0.  1.
         -1    1    1    2    0  502 -0.47295369261E+02  0.22856607469E+02 -0.43528108908E+03  0.43843916678E+03  0.00000000000E+00 0. -1.
<mgrwt>
<rscale>  1 0.30000000E+03</rscale>
<asrwt>0</asrwt>
<pdfrwt beam="1">  1       21 0.10213239E-01 0.30000000E+03</pdfrwt>
<pdfrwt beam="2">0</pdfrwt>
<totfact> 0.82846787E+03</totfact>
</mgrwt>
</event>
<event>
 6    1  0.1284012E-001  0.3000000E+03  0.7818608E-02  0.1093470E+00
         21   -1    0    0  501  502  0.00000000000E+00  0.00000000000E+00  0.14491964962E+01  0.14491964962E+01  0.00000000000E+00 0. -1.
         13   -1    0    0    0    0 -0.00000000000E+00 -0.00000000000E+00 -0.10000000000E+04  0.10000000000E+04  0.00000000000E+00 0.  1.
    9000005    2    1    2  501    0  0.20506888495E+02 -0.28518091073E+02 -0.69048733886E+03  0.69138966634E+03  0.36182312620E+01 0.  0.
         13    1    3    3    0    0 -0.38830763596E-01  0.67516050910E-01 -0.35908690075E+01  0.35917135847E+01  0.00000000000E+00 0.  1.
          1    1    3    3  501    0  0.20545719258E+02 -0.28585607124E+02 -0.68689646986E+03  0.68779795276E+03  0.00000000000E+00 0.  1.
         -1    1    1    2    0  502 -0.20506888495E+02  0.28518091073E+02 -0.30806346464E+03  0.31005953016E+03  0.00000000000E+00 0. -1.
<mgrwt>
<rscale>  1 0.30000000E+03</rscale>
<asrwt>0</asrwt>
<pdfrwt beam="1">  1       21 0.52698166E-02 0.30000000E+03</pdfrwt>
<pdfrwt beam="2">0</pdfrwt>
<totfact> 0.26332788E+04</totfact>
</mgrwt>
</event>
<event>
 6    1  0.1284012E-001  0.3000000E+03  0.7818608E-02  0.1093470E+00
         21   -1    0    0  501  502  0.00000000000E+00  0.00000000000E+00  0.20622036442E+01  0.20622036442E+01  0.00000000000E+00 0. -1.
         13   -1    0    0    0    0 -0.00000000000E+00 -0.00000000000E+00 -0.10000000000E+04  0.10000000000E+04  0.00000000000E+00 0.  1.
    9000005    2    1    2  501    0  0.19460411007E+02  0.41002684107E+02 -0.50434606182E+03  0.50638818970E+03  0.20299976997E+01 0.  0.
         13    1    3    3    0    0  0.14974629485E+02  0.30376768924E+02 -0.36795650627E+03  0.36951181053E+03  0.00000000000E+00 0.  1.
          3    1    3    3  501    0  0.44857815223E+01  0.10625915183E+02 -0.13638955555E+03  0.13687637916E+03  0.00000000000E+00 0.  1.
         -1    1    1    2    0  502 -0.19460411007E+02 -0.41002684107E+02 -0.49359173454E+03  0.49567401395E+03  0.00000000000E+00 0. -1.
<mgrwt>
<rscale>  1 0.30000000E+03</rscale>
<asrwt>0</asrwt>
<pdfrwt beam="1">  1       21 0.74989382E-02 0.30000000E+03</pdfrwt>
<pdfrwt beam="2">0</pdfrwt>
<totfact> 0.14308010E+04</totfact>
</mgrwt>
</event>
<event>
 6    1  0.1284012E-001  0.3000000E+03  0.7818608E-02  0.1093470E+00
         21   -1    0    0  501  502  0.00000000000E+00  0.00000000000E+00  0.10620792293E+01  0.10620792293E+01  0.00000000000E+00 0. -1.
         13   -1    0    0    0    0 -0.00000000000E+00 -0.00000000000E+00 -0.10000000000E+04  0.10000000000E+04  0.00000000000E+00 0.  1.
    9000005    2    1    2  501    0  0.27203566116E+02 -0.16181531274E+02 -0.54750558598E+03  0.54852144143E+03  0.10560732313E+02 0.  0.
         13    1    3    3    0    0  0.21427039194E+02 -0.12725109187E+02 -0.48807901530E+03  0.48871481622E+03  0.00000000000E+00 0.  1.
          1    1    3    3  501    0  0.57765269219E+01 -0.34564220872E+01 -0.59426570674E+02  0.59806625210E+02  0.00000000000E+00 0.  1.
         -1    1    1    2    0  502 -0.27203566116E+02  0.16181531274E+02 -0.45143233479E+03  0.45254063780E+03  0.00000000000E+00 0. -1.
<mgrwt>
<rscale>  1 0.30000000E+03</rscale>
<asrwt>0</asrwt>
<pdfrwt beam="1">  1       21 0.38621144E-02 0.30000000E+03</pdfrwt>
<pdfrwt beam="2">0</pdfrwt>
<totfact> 0.44603893E+04</totfact>
</mgrwt>
</event>
<event>
 6    1  0.1284012E-001  0.3000000E+03  0.7818608E-02  0.1093470E+00
         21   -1    0    0  501  502  0.00000000000E+00  0.00000000000E+00  0.19777459336E+01  0.19777459336E+01  0.00000000000E+00 0. -1.
         13   -1    0    0    0    0 -0.00000000000E+00 -0.00000000000E+00 -0.10000000000E+04  0.10000000000E+04  0.00000000000E+00 0.  1.
    9000005    2    1    2  501    0  0.37245867622E+02 -0.67035864587E+01 -0.76006748923E+03  0.76103239355E+03  0.59601278137E+01 0.  0.
         13    1    3    3    0    0  0.19060028226E+02 -0.57533018763E+01 -0.35891861438E+03  0.35947038391E+03  0.00000000000E+00 0.  1.
          1    1    3    3  501    0  0.18185839396E+02 -0.95028458244E+00 -0.40114887485E+03  0.40156200964E+03  0.00000000000E+00 0.  1.
         -1    1    1    2    0  502 -0.37245867622E+02  0.67035864587E+01 -0.23795476484E+03  0.24094535239E+03  0.00000000000E+00 0. -1.
<mgrwt>
<rscale>  1 0.30000000E+03</rscale>
<asrwt>0</asrwt>
<pdfrwt beam="1">  1       21 0.71918186E-02 0.30000000E+03</pdfrwt>
<pdfrwt beam="2">0</pdfrwt>
<totfact> 0.15392913E+04</totfact>
</mgrwt>
</event>
<event>
 6    1  0.1284012E-001  0.3000000E+03  0.7818608E-02  0.1093470E+00
         21   -1    0    0  501  502  0.00000000000E+00  0.00000000000E+00  0.24078940251E+01  0.24078940251E+01  0.00000000000E+00 0. -1.
         13   -1    0    0    0    0 -0.00000000000E+00 -0.00000000000E+00 -0.10000000000E+04  0.10000000000E+04  0.00000000000E+00 0.  1.
    9000005    2    1    2  501    0 -0.16951633608E+02 -0.37600858361E+02 -0.76967205664E+03  0.77078593625E+03  0.38343614552E+01 0.  0.
         13    1    3    3    0    0 -0.57974583604E+01 -0.13543301103E+02 -0.30960022656E+03  0.30995053123E+03  0.00000000000E+00 0.  1.
          3    1    3    3  501    0 -0.11154175248E+02 -0.24057557259E+02 -0.46007183008E+03  0.46083540502E+03  0.00000000000E+00 0.  1.
         -3    1    1    2    0  502  0.16951633608E+02  0.37600858361E+02 -0.22792004934E+03  0.23162195777E+03  0.00000000000E+00 0. -1.
<mgrwt>
<rscale>  1 0.30000000E+03</rscale>
<asrwt>0</asrwt>
<pdfrwt beam="1">  1       21 0.87559967E-02 0.30000000E+03</pdfrwt>
<pdfrwt beam="2">0</pdfrwt>
<totfact> 0.10895319E+04</totfact>
</mgrwt>
</event>
<event>
 6    1  0.1284012E-001  0.3000000E+03  0.7818608E-02  0.1093470E+00
         21   -1    0    0  501  502  0.00000000000E+00  0.00000000000E+00  0.43568692899E+01  0.43568692899E+01  0.00000000000E+00 0. -1.
         13   -1    0    0    0    0 -0.00000000000E+00 -0.00000000000E+00 -0.10000000000E+04  0.10000000000E+04  0.00000000000E+00 0.  1.
    9000005    2    1    2  501    0  0.14626494600E+02 -0.46250268317E+02 -0.83823774798E+03  0.83964658978E+03  0.32942263386E+01 0.  0.
         13    1    3    3    0    0  0.36195233313E+01 -0.10229283874E+02 -0.21132826928E+03  0.21160665536E+03  0.00000000000E+00 0.  1.
          3    1    3    3  501    0  0.11006971269E+02 -0.36020984444E+02 -0.62690947870E+03  0.62803993442E+03  0.00000000000E+00 0.  1.
         -1    1    1    2    0  502 -0.14626494600E+02  0.46250268317E+02 -0.15740538273E+03  0.16471027951E+03  0.00000000000E+00 0. -1.
<mgrwt>
<rscale>  1 0.30000000E+03</rscale>
<asrwt>0</asrwt>
<pdfrwt beam="1">  1       21 0.15843194E-01 0.30000000E+03</pdfrwt>
<pdfrwt beam="2">0</pdfrwt>
<totfact> 0.37203120E+03</totfact>
</mgrwt>
</event>
<event>
 6    1  0.1284012E-001  0.3000000E+03  0.7818608E-02  0.1093470E+00
         21   -1    0    0  501  502  0.00000000000E+00  0.00000000000E+00  0.11727507209E+01  0.11727507209E+01  0.00000000000E+00 0. -1.
         13   -1    0    0    0    0 -0.00000000000E+00 -0.00000000000E+00 -0.10000000000E+04  0.10000000000E+04  0.00000000000E+00 0.  1.
    9000005    2    1    2  501    0 -0.24841901047E+02  0.23450255256E+02 -0.48827072739E+03  0.48947460087E+03  0.31697239367E+01 0.  0.
         13    1    3    3    0    0 -0.90619597451E+01  0.68854889230E+01 -0.17484438618E+03  0.17521440708E+03  0.00000000000E+00 0.  1.
          1    1    3    3  501    0 -0.15779941302E+02  0.16564766333E+02 -0.31342634122E+03  0.31426019379E+03  0.00000000000E+00 0.  1.
         -1    1    1    2    0  502  0.24841901047E+02 -0.23450255256E+02 -0.51055652189E+03  0.51169814985E+03  0.00000000000E+00 0. -1.
<mgrwt>
<rscale>  1 0.30000000E+03</rscale>
<asrwt>0</asrwt>
<pdfrwt beam="1">  1       21 0.42645571E-02 0.30000000E+03</pdfrwt>
<pdfrwt beam="2">0</pdfrwt>
<totfact> 0.37741207E+04</totfact>
</mgrwt>
</event>
<event>
 6    1  0.1284012E-001  0.3000000E+03  0.7818608E-02  0.1093470E+00
         21   -1    0    0  501  502  0.00000000000E+00  0.00000000000E+00  0.11568189300E+01  0.11568189300E+01  0.00000000000E+00 0. -1.
         13   -1    0    0    0    0 -0.00000000000E+00 -0.00000000000E+00 -0.10000000000E+04  0.10000000000E+04  0.00000000000E+00 0.  1.
    9000005    2    1    2  501    0  0.76314894615E+01 -0.31258172506E+02 -0.65886488504E+03  0.65965930100E+03  0.34847782197E+01 0.  0.
         13    1    3    3    0    0  0.54811929295E+01 -0.26573270014E+02 -0.53592412091E+03  0.53661051567E+03  0.00000000000E+00 0.  1.
          1    1    3    3  501    0  0.21502965320E+01 -0.46849024916E+01 -0.12294076413E+03  0.12304878533E+03  0.00000000000E+00 0.  1.
         -1    1    1    2    0  502 -0.76314894615E+01  0.31258172506E+02 -0.33997829603E+03  0.34149751793E+03  0.00000000000E+00 0. -1.
<mgrwt>
<rscale>  1 0.30000000E+03</rscale>
<asrwt>0</asrwt>
<pdfrwt beam="1">  1       21 0.42066232E-02 0.30000000E+03</pdfrwt>
<pdfrwt beam="2">0</pdfrwt>
<totfact> 0.38623547E+04</totfact>
</mgrwt>
</event>
<event>
 6    1  0.1284012E-001  0.3000000E+03  0.7818608E-02  0.1093470E+00
         21   -1    0    0  501  502  0.00000000000E+00  0.00000000000E+00  0.16246292433E+01  0.16246292433E+01  0.00000000000E+00 0. -1.
         13   -1    0    0    0    0 -0.00000000000E+00 -0.00000000000E+00 -0.10000000000E+04  0.10000000000E+04  0.00000000000E+00 0.  1.
    9000005    2    1    2  501    0 -0.22098193286E+02  0.22439735177E+02 -0.81045847229E+03  0.81108688340E+03  0.52081913660E+01 0.  0.
         13    1    3    3    0    0 -0.19943019811E+02  0.20874136998E+02 -0.69783987707E+03  0.69843678859E+03  0.00000000000E+00 0.  1.
          1    1    3    3  501    0 -0.21551734749E+01  0.15655981786E+01 -0.11261859522E+03  0.11265009480E+03  0.00000000000E+00 0.  1.
         -1    1    1    2    0  502  0.22098193286E+02 -0.22439735177E+02 -0.18791689847E+03  0.19053774585E+03  0.00000000000E+00 0. -1.
<mgrwt>
<rscale>  1 0.30000000E+03</rscale>
<asrwt>0</asrwt>
<pdfrwt beam="1">  1       21 0.59077552E-02 0.30000000E+03</pdfrwt>
<pdfrwt beam="2">0</pdfrwt>
<totfact> 0.21642135E+04</totfact>
</mgrwt>
</event>
<event>
 6    1  0.1284012E-001  0.3000000E+03  0.7818608E-02  0.1093470E+00
         21   -1    0    0  501  502  0.00000000000E+00  0.00000000000E+00  0.12375211214E+01  0.12375211214E+01  0.00000000000E+00 0. -1.
         13   -1    0    0    0    0 -0.00000000000E+00 -0.00000000000E+00 -0.10000000000E+04  0.10000000000E+04  0.00000000000E+00 0.  1.
    9000005    2    1    2  501    0 -0.19047994327E+01  0.32420358045E+02 -0.30968462831E+03  0.31139479121E+03  0.27274714436E+01 0.  0.
         13    1    3    3    0    0 -0.93317208257E+00  0.52089886494E+01 -0.43300214585E+02  0.43622390535E+02  0.00000000000E+00 0.  1.
          1    1    3    3  501    0 -0.97162735016E+00  0.27211369395E+02 -0.26638441373E+03  0.26777240067E+03  0.00000000000E+00 0.  1.
         -3    1    1    2    0  502  0.19047994327E+01 -0.32420358045E+02 -0.68907785057E+03  0.68984272992E+03  0.00000000000E+00 0. -1.
<mgrwt>
<rscale>  1 0.30000000E+03</rscale>
<asrwt>0</asrwt>
<pdfrwt beam="1">  1       21 0.45000863E-02 0.30000000E+03</pdfrwt>
<pdfrwt beam="2">0</pdfrwt>
<totfact> 0.34457068E+04</totfact>
</mgrwt>
</event>
<event>
 6    1  0.1284012E-001  0.3000000E+03  0.7818608E-02  0.1093470E+00
         21   -1    0    0  501  502  0.00000000000E+00  0.00000000000E+00  0.16612273486E+01  0.16612273486E+01  0.00000000000E+00 0. -1.
         13   -1    0    0    0    0 -0.00000000000E+00 -0.00000000000E+00 -0.10000000000E+04  0.10000000000E+04  0.00000000000E+00 0.  1.
    9000005    2    1    2  501    0  0.40612908553E+02  0.17891055493E+01 -0.48121554535E+03  0.48294257389E+03  0.35382681279E+01 0.  0.
         13    1    3    3    0    0  0.19746171382E+02  0.18722109887E+01 -0.21728442289E+03  0.21818784771E+03  0.00000000000E+00 0.  1.
          1    1    3    3  501    0  0.20866737171E+02 -0.83105439411E-01 -0.26393112246E+03  0.26475472617E+03  0.00000000000E+00 0.  1.
         -1    1    1    2    0  502 -0.40612908553E+02 -0.17891055493E+01 -0.51712322730E+03  0.51871865346E+03  0.00000000000E+00 0. -1.
<mgrwt>
<rscale>  1 0.30000000E+03</rscale>
<asrwt>0</asrwt>
<pdfrwt beam="1">  1       21 0.60408395E-02 0.30000000E+03</pdfrwt>
<pdfrwt beam="2">0</pdfrwt>
<totfact> 0.20826548E+04</totfact>
</mgrwt>
</event>
<event>
 6    1  0.1284012E-001  0.3000000E+03  0.7818608E-02  0.1093470E+00
         21   -1    0    0  501  502  0.00000000000E+00  0.00000000000E+00  0.29564877471E+01  0.29564877471E+01  0.00000000000E+00 0. -1.
         13   -1    0    0    0    0 -0.00000000000E+00 -0.00000000000E+00 -0.10000000000E+04  0.10000000000E+04  0.00000000000E+00 0.  1.
    9000005    2    1    2  501    0 -0.36775537950E+02  0.35658789737E+02 -0.66539741680E+03  0.66737770102E+03  0.39094817965E+01 0.  0.
         13    1    3    3    0    0 -0.91871641099E+01  0.69777572534E+01 -0.13866767604E+03  0.13914674793E+03  0.00000000000E+00 0.  1.
          3    1    3    3  501    0 -0.27588373840E+02  0.28681032483E+02 -0.52672974076E+03  0.52823095308E+03  0.00000000000E+00 0.  1.
         -3    1    1    2    0  502  0.36775537950E+02 -0.35658789737E+02 -0.33164609545E+03  0.33557878673E+03  0.00000000000E+00 0. -1.
<mgrwt>
<rscale>  1 0.30000000E+03</rscale>
<asrwt>0</asrwt>
<pdfrwt beam="1">  1       21 0.10750887E-01 0.30000000E+03</pdfrwt>
<pdfrwt beam="2">0</pdfrwt>
<totfact> 0.75568455E+03</totfact>
</mgrwt>
</event>
<event>
 6    1  0.1284012E-001  0.3000000E+03  0.7818608E-02  0.1093470E+00
         21   -1    0    0  501  502  0.00000000000E+00  0.00000000000E+00  0.13816116608E+01  0.13816116608E+01  0.00000000000E+00 0. -1.
         13   -1    0    0    0    0 -0.00000000000E+00 -0.00000000000E+00 -0.10000000000E+04  0.10000000000E+04  0.00000000000E+00 0.  1.
    9000005    2    1    2  501    0 -0.32686355227E+02  0.27558346824E+01 -0.73317699944E+03  0.73392110358E+03  0.39599655722E+01 0.  0.
         13    1    3    3    0    0 -0.16099231094E+02 -0.61282569727E+00 -0.36315581325E+03  0.36351300594E+03  0.00000000000E+00 0.  1.
          1    1    3    3  501    0 -0.16587124133E+02  0.33686603797E+01 -0.37002118620E+03  0.37040809764E+03  0.00000000000E+00 0.  1.
         -3    1    1    2    0  502  0.32686355227E+02 -0.27558346824E+01 -0.26544138889E+03  0.26746050808E+03  0.00000000000E+00 0. -1.
<mgrwt>
<rscale>  1 0.30000000E+03</rscale>
<asrwt>0</asrwt>
<pdfrwt beam="1">  1       21 0.50240530E-02 0.30000000E+03</pdfrwt>
<pdfrwt beam="2">0</pdfrwt>
<totfact> 0.28569935E+04</totfact>
</mgrwt>
</event>
<event>
 6    1  0.1284012E-001  0.3000000E+03  0.7818608E-02  0.1093470E+00
         21   -1    0    0  501  502  0.00000000000E+00  0.00000000000E+00  0.44676573630E+01  0.44676573630E+01  0.00000000000E+00 0. -1.
         13   -1    0    0    0    0 -0.00000000000E+00 -0.00000000000E+00 -0.10000000000E+04  0.10000000000E+04  0.00000000000E+00 0.  1.
    9000005    2    1    2  501    0 -0.42090642131E+02  0.11215459489E+02 -0.87857023834E+03  0.87965763162E+03  0.38047953918E+01 0.  0.
         13    1    3    3    0    0 -0.19923112293E+02  0.68981279026E+01 -0.40168307867E+03  0.40223601313E+03  0.00000000000E+00 0.  1.
          3    1    3    3  501    0 -0.22167529838E+02  0.43173315861E+01 -0.47688715968E+03  0.47742161849E+03  0.00000000000E+00 0.  1.
         -1    1    1    2    0  502  0.42090642131E+02 -0.11215459489E+02 -0.11696210429E+03  0.12481002575E+03  0.00000000000E+00 0. -1.
<mgrwt>
<rscale>  1 0.30000000E+03</rscale>
<asrwt>0</asrwt>
<pdfrwt beam="1">  1       21 0.16246061E-01 0.30000000E+03</pdfrwt>
<pdfrwt beam="2">0</pdfrwt>
<totfact> 0.35501663E+03</totfact>
</mgrwt>
</event>
<event>
 6    1  0.1284012E-001  0.3000000E+03  0.7818608E-02  0.1093470E+00
         21   -1    0    0  501  502  0.00000000000E+00  0.00000000000E+00  0.59723733788E+01  0.59723733788E+01  0.00000000000E+00 0. -1.
         13   -1    0    0    0    0 -0.00000000000E+00 -0.00000000000E+00 -0.10000000000E+04  0.10000000000E+04  0.00000000000E+00 0.  1.
    9000005    2    1    2  501    0  0.31534370785E+02  0.15084466190E+02 -0.94556060024E+03  0.94621444246E+03  0.38684285886E+01 0.  0.
         13    1    3    3    0    0  0.17776711463E+00  0.55559650023E+00 -0.11573287633E+02  0.11587979775E+02  0.00000000000E+00 0.  1.
          1    1    3    3  501    0  0.31356603670E+02  0.14528869690E+02 -0.93398731261E+03  0.93462646269E+03  0.00000000000E+00 0.  1.
         -3    1    1    2    0  502 -0.31534370785E+02 -0.15084466190E+02 -0.48467026382E+02  0.59757930916E+02  0.00000000000E+00 0. -1.
<mgrwt>
<rscale>  1 0.30000000E+03</rscale>
<asrwt>0</asrwt>
<pdfrwt beam="1">  1       21 0.21717767E-01 0.30000000E+03</pdfrwt>
<pdfrwt beam="2">0</pdfrwt>
<totfact> 0.20488678E+03</totfact>
</mgrwt>
</event>
<event>
 6    1  0.1284012E-001  0.3000000E+03  0.7818608E-02  0.1093470E+00
         21   -1    0    0  501  502  0.00000000000E+00  0.00000000000E+00  0.17947241806E+01  0.17947241806E+01  0.00000000000E+00 0. -1.
         13   -1    0    0    0    0 -0.00000000000E+00 -0.00000000000E+00 -0.10000000000E+04  0.10000000000E+04  0.00000000000E+00 0.  1.
    9000005    2    1    2  501    0  0.21529046609E+02 -0.22029283418E+02 -0.84261007036E+03  0.84317991675E+03  0.34426958201E+01 0.  0.
         13    1    3    3    0    0  0.13765658743E+02 -0.14739760042E+02 -0.50716567380E+03  0.50756652231E+03  0.00000000000E+00 0.  1.
          1    1    3    3  501    0  0.77633878658E+01 -0.72895233758E+01 -0.33544439656E+03  0.33561339444E+03  0.00000000000E+00 0.  1.
         -3    1    1    2    0  502 -0.21529046609E+02  0.22029283418E+02 -0.15559520546E+03  0.15861480744E+03  0.00000000000E+00 0. -1.
<mgrwt>
<rscale>  1 0.30000000E+03</rscale>
<asrwt>0</asrwt>
<pdfrwt beam="1">  1       21 0.65262835E-02 0.30000000E+03</pdfrwt>
<pdfrwt beam="2">0</pdfrwt>
<totfact> 0.18222265E+04</totfact>
</mgrwt>
</event>
<event>
 6    1  0.1284012E-001  0.3000000E+03  0.7818608E-02  0.1093470E+00
         21   -1    0    0  501  502  0.00000000000E+00  0.00000000000E+00  0.34743341988E+01  0.34743341988E+01  0.00000000000E+00 0. -1.
         13   -1    0    0    0    0 -0.00000000000E+00 -0.00000000000E+00 -0.10000000000E+04  0.10000000000E+04  0.00000000000E+00 0.  1.
    9000005    2    1    2  501    0 -0.34933543067E+02  0.47375081279E+02 -0.51703197075E+03  0.52038122273E+03  0.31316819632E+01 0.  0.
         13    1    3    3    0    0 -0.16198104786E+02  0.19497030994E+02 -0.21792192560E+03  0.21939115404E+03  0.00000000000E+00 0.  1.
          1    1    3    3  501    0 -0.18735438282E+02  0.27878050285E+02 -0.29911004515E+03  0.30099006869E+03  0.00000000000E+00 0.  1.
         -3    1    1    2    0  502  0.34933543067E+02 -0.47375081279E+02 -0.47949369505E+03  0.48309311147E+03  0.00000000000E+00 0. -1.
<mgrwt>
<rscale>  1 0.30000000E+03</rscale>
<asrwt>0</asrwt>
<pdfrwt beam="1">  1       21 0.12633969E-01 0.30000000E+03</pdfrwt>
<pdfrwt beam="2">0</pdfrwt>
<totfact> 0.56430169E+03</totfact>
</mgrwt>
</event>
<event>
 6    1  0.1284012E-001  0.3000000E+03  0.7818608E-02  0.1093470E+00
         21   -1    0    0  501  502  0.00000000000E+00  0.00000000000E+00  0.40439181625E+01  0.40439181625E+01  0.00000000000E+00 0. -1.
         13   -1    0    0    0    0 -0.00000000000E+00 -0.00000000000E+00 -0.10000000000E+04  0.10000000000E+04  0.00000000000E+00 0.  1.
    9000005    2    1    2  501    0 -0.49263629339E+02  0.38442139295E+02 -0.58986387394E+03  0.59317218080E+03  0.30237468450E+01 0.  0.
         13    1    3    3    0    0 -0.35135512110E+02  0.28950086628E+02 -0.43489741945E+03  0.43727380115E+03  0.00000000000E+00 0.  1.
          3    1    3    3  501    0 -0.14128117229E+02  0.94920526666E+01 -0.15496645449E+03  0.15589837965E+03  0.00000000000E+00 0.  1.
         -1    1    1    2    0  502  0.49263629339E+02 -0.38442139295E+02 -0.40609220790E+03  0.41087173737E+03  0.00000000000E+00 0. -1.
<mgrwt>
<rscale>  1 0.30000000E+03</rscale>
<asrwt>0</asrwt>
<pdfrwt beam="1">  1       21 0.14705188E-01 0.30000000E+03</pdfrwt>
<pdfrwt beam="2">0</pdfrwt>
<totfact> 0.42719635E+03</totfact>
</mgrwt>
</event>
<event>
 6    1  0.1284012E-001  0.3000000E+03  0.7818608E-02  0.1093470E+00
         21   -1    0    0  501  502  0.00000000000E+00  0.00000000000E+00  0.22501301707E+01  0.22501301707E+01  0.00000000000E+00 0. -1.
         13   -1    0    0    0    0 -0.00000000000E+00 -0.00000000000E+00 -0.10000000000E+04  0.10000000000E+04  0.00000000000E+00 0.  1.
    9000005    2    1    2  501    0  0.85344028238E+01 -0.29781918086E+02 -0.87660797758E+03  0.87720950983E+03  0.97559781751E+01 0.  0.
         13    1    3    3    0    0  0.10280251590E+01 -0.74332206242E+01 -0.34150783123E+03  0.34159026391E+03  0.00000000000E+00 0.  1.
          3    1    3    3  501    0  0.75063776648E+01 -0.22348697462E+02 -0.53510014635E+03  0.53561924592E+03  0.00000000000E+00 0.  1.
         -3    1    1    2    0  502 -0.85344028238E+01  0.29781918086E+02 -0.12114189225E+03  0.12504062034E+03  0.00000000000E+00 0. -1.
<mgrwt>
<rscale>  1 0.30000000E+03</rscale>
<asrwt>0</asrwt>
<pdfrwt beam="1">  1       21 0.81823088E-02 0.30000000E+03</pdfrwt>
<pdfrwt beam="2">0</pdfrwt>
<totfact> 0.12277857E+04</totfact>
</mgrwt>
</event>
<event>
 6    1  0.1284012E-001  0.3000000E+03  0.7818608E-02  0.1093470E+00
         21   -1    0    0  501  502  0.00000000000E+00  0.00000000000E+00  0.14054136136E+01  0.14054136136E+01  0.00000000000E+00 0. -1.
         13   -1    0    0    0    0 -0.00000000000E+00 -0.00000000000E+00 -0.10000000000E+04  0.10000000000E+04  0.00000000000E+00 0.  1.
    9000005    2    1    2  501    0 -0.34505062467E+02 -0.14306890558E+02 -0.49546320330E+03  0.49688933349E+03  0.44651385191E+01 0.  0.
         13    1    3    3    0    0 -0.18013980003E+02 -0.98299161861E+01 -0.26462852107E+03  0.26542303007E+03  0.00000000000E+00 0.  1.
          1    1    3    3  501    0 -0.16491082464E+02 -0.44769743720E+01 -0.23083468223E+03  0.23146630342E+03  0.00000000000E+00 0.  1.
         -1    1    1    2    0  502  0.34505062467E+02  0.14306890558E+02 -0.50313138309E+03  0.50451608012E+03  0.00000000000E+00 0. -1.
<mgrwt>
<rscale>  1 0.30000000E+03</rscale>
<asrwt>0</asrwt>
<pdfrwt beam="1">  1       21 0.51106057E-02 0.30000000E+03</pdfrwt>
<pdfrwt beam="2">0</pdfrwt>
<totfact> 0.27749472E+04</totfact>
</mgrwt>
</event>
<event>
 6    1  0.1284012E-001  0.3000000E+03  0.7818608E-02  0.1093470E+00
         21   -1    0    0  501  502  0.00000000000E+00  0.00000000000E+00  0.24381148795E+01  0.24381148795E+01  0.00000000000E+00 0. -1.
         13   -1    0    0    0    0 -0.00000000000E+00 -0.00000000000E+00 -0.10000000000E+04  0.10000000000E+04  0.00000000000E+00 0.  1.
    9000005    2    1    2  501    0  0.48307130027E+02  0.95366755094E+00 -0.59957725287E+03  0.60153132297E+03  0.35442995124E+01 0.  0.
         13    1    3    3    0    0  0.41907402579E+02  0.20308574242E+01 -0.51950240068E+03  0.52119391697E+03  0.00000000000E+00 0.  1.
          3    1    3    3  501    0  0.63997274483E+01 -0.10771898732E+01 -0.80074852188E+02  0.80337405997E+02  0.00000000000E+00 0.  1.
         -3    1    1    2    0  502 -0.48307130027E+02 -0.95366755094E+00 -0.39798463225E+03  0.40090679191E+03  0.00000000000E+00 0. -1.
<mgrwt>
<rscale>  1 0.30000000E+03</rscale>
<asrwt>0</asrwt>
<pdfrwt beam="1">  1       21 0.88658910E-02 0.30000000E+03</pdfrwt>
<pdfrwt beam="2">0</pdfrwt>
<totfact> 0.10657641E+04</totfact>
</mgrwt>
</event>
<event>
 6    1  0.1284012E-001  0.3000000E+03  0.7818608E-02  0.1093470E+00
         21   -1    0    0  501  502  0.00000000000E+00  0.00000000000E+00  0.16704898720E+01  0.16704898720E+01  0.00000000000E+00 0. -1.
         13   -1    0    0    0    0 -0.00000000000E+00 -0.00000000000E+00 -0.10000000000E+04  0.10000000000E+04  0.00000000000E+00 0.  1.
    9000005    2    1    2  501    0  0.16959450203E+02 -0.28569896217E+02 -0.79005324673E+03  0.79076087934E+03  0.38436571185E+01 0.  0.
         13    1    3    3    0    0  0.11254964134E+01 -0.42350793000E+01 -0.11569905334E+03  0.11578200889E+03  0.00000000000E+00 0.  1.
          3    1    3    3  501    0  0.15833953789E+02 -0.24334816917E+02 -0.67435419339E+03  0.67497887045E+03  0.00000000000E+00 0.  1.
         -3    1    1    2    0  502 -0.16959450203E+02  0.28569896217E+02 -0.20827626340E+03  0.21090961054E+03  0.00000000000E+00 0. -1.
<mgrwt>
<rscale>  1 0.30000000E+03</rscale>
<asrwt>0</asrwt>
<pdfrwt beam="1">  1       21 0.60745214E-02 0.30000000E+03</pdfrwt>
<pdfrwt beam="2">0</pdfrwt>
<totfact> 0.20627712E+04</totfact>
</mgrwt>
</event>
<event>
 6    1  0.1284012E-001  0.3000000E+03  0.7818608E-02  0.1093470E+00
         21   -1    0    0  501  502  0.00000000000E+00  0.00000000000E+00  0.18923807502E+01  0.18923807502E+01  0.00000000000E+00 0. -1.
         13   -1    0    0    0    0 -0.00000000000E+00 -0.00000000000E+00 -0.10000000000E+04  0.10000000000E+04  0.00000000000E+00 0.  1.
    9000005    2    1    2  501    0  0.34468951893E+02  0.15848296405E+02 -0.74342321128E+03  0.74439786662E+03  0.32917498111E+01 0.  0.
         13    1    3    3    0    0  0.12656114656E+02  0.44117780875E+01 -0.28015801968E+03  0.28047844305E+03  0.00000000000E+00 0.  1.
          3    1    3    3  501    0  0.21812837237E+02  0.11436518317E+02 -0.46326519160E+03  0.46391942358E+03  0.00000000000E+00 0.  1.
         -1    1    1    2    0  502 -0.34468951893E+02 -0.15848296405E+02 -0.25468440797E+03  0.25749451413E+03  0.00000000000E+00 0. -1.
<mgrwt>
<rscale>  1 0.30000000E+03</rscale>
<asrwt>0</asrwt>
<pdfrwt beam="1">  1       21 0.68813991E-02 0.30000000E+03</pdfrwt>
<pdfrwt beam="2">0</pdfrwt>
<totfact> 0.16622008E+04</totfact>
</mgrwt>
</event>
<event>
 6    1  0.1284012E-001  0.3000000E+03  0.7818608E-02  0.1093470E+00
         21   -1    0    0  501  502  0.00000000000E+00  0.00000000000E+00  0.31766375536E+01  0.31766375536E+01  0.00000000000E+00 0. -1.
         13   -1    0    0    0    0 -0.00000000000E+00 -0.00000000000E+00 -0.10000000000E+04  0.10000000000E+04  0.00000000000E+00 0.  1.
    9000005    2    1    2  501    0  0.25921098164E+02 -0.29045353517E+02 -0.86096818703E+03  0.86185372866E+03  0.31772056154E+01 0.  0.
         13    1    3    3    0    0  0.14744625483E+02 -0.18458253952E+02 -0.50199986284E+03  0.50255544312E+03  0.00000000000E+00 0.  1.
          3    1    3    3  501    0  0.11176472680E+02 -0.10587099564E+02 -0.35896832419E+03  0.35929828554E+03  0.00000000000E+00 0.  1.
         -3    1    1    2    0  502 -0.25921098164E+02  0.29045353517E+02 -0.13585517542E+03  0.14132290890E+03  0.00000000000E+00 0. -1.
<mgrwt>
<rscale>  1 0.30000000E+03</rscale>
<asrwt>0</asrwt>
<pdfrwt beam="1">  1       21 0.11551434E-01 0.30000000E+03</pdfrwt>
<pdfrwt beam="2">0</pdfrwt>
<totfact> 0.66397959E+03</totfact>
</mgrwt>
</event>
<event>
 6    1  0.1284012E-001  0.3000000E+03  0.7818608E-02  0.1093470E+00
         21   -1    0    0  501  502  0.00000000000E+00  0.00000000000E+00  0.17202517294E+01  0.17202517294E+01  0.00000000000E+00 0. -1.
         13   -1    0    0    0    0 -0.00000000000E+00 -0.00000000000E+00 -0.10000000000E+04  0.10000000000E+04  0.00000000000E+00 0.  1.
    9000005    2    1    2  501    0 -0.38424831450E+02 -0.10711240504E+02 -0.63319126497E+03  0.63445903818E+03  0.39868205773E+01 0.  0.
         13    1    3    3    0    0 -0.32763293393E+02 -0.79090543556E+01 -0.54592081968E+03  0.54696026172E+03  0.00000000000E+00 0.  1.
          3    1    3    3  501    0 -0.56615380568E+01 -0.28021861480E+01 -0.87270445292E+02  0.87498776459E+02  0.00000000000E+00 0.  1.
         -1    1    1    2    0  502  0.38424831450E+02  0.10711240504E+02 -0.36508848330E+03  0.36726121355E+03  0.00000000000E+00 0. -1.
<mgrwt>
<rscale>  1 0.30000000E+03</rscale>
<asrwt>0</asrwt>
<pdfrwt beam="1">  1       21 0.62554740E-02 0.30000000E+03</pdfrwt>
<pdfrwt beam="2">0</pdfrwt>
<totfact> 0.19608285E+04</totfact>
</mgrwt>
</event>
<event>
 6    1  0.1284012E-001  0.3000000E+03  0.7818608E-02  0.1093470E+00
         21   -1    0    0  501  502  0.00000000000E+00  0.00000000000E+00  0.11136581955E+02  0.11136581955E+02  0.00000000000E+00 0. -1.
         13   -1    0    0    0    0 -0.00000000000E+00 -0.00000000000E+00 -0.10000000000E+04  0.10000000000E+04  0.00000000000E+00 0.  1.
    9000005    2    1    2  501    0 -0.49814583052E+02  0.71633915473E+02 -0.77871108269E+03  0.78359116981E+03  0.33556784850E+01 0.  0.
         13    1    3    3    0    0 -0.22723001155E+02  0.32241048672E+02 -0.33725760201E+03  0.33955634306E+03  0.00000000000E+00 0.  1.
          3    1    3    3  501    0 -0.27091581897E+02  0.39392866801E+02 -0.44145348068E+03  0.44403482675E+03  0.00000000000E+00 0.  1.
         -1    1    1    2    0  502  0.49814583052E+02 -0.71633915473E+02 -0.21015233536E+03  0.22754541214E+03  0.00000000000E+00 0. -1.
<mgrwt>
<rscale>  1 0.30000000E+03</rscale>
<asrwt>0</asrwt>
<pdfrwt beam="1">  1       21 0.40496747E-01 0.30000000E+03</pdfrwt>
<pdfrwt beam="2">0</pdfrwt>
<totfact> 0.58863450E+02</totfact>
</mgrwt>
</event>
<event>
 6    1  0.1284012E-001  0.3000000E+03  0.7818608E-02  0.1093470E+00
         21   -1    0    0  501  502  0.00000000000E+00  0.00000000000E+00  0.10959699731E+01  0.10959699731E+01  0.00000000000E+00 0. -1.
         13   -1    0    0    0    0 -0.00000000000E+00 -0.00000000000E+00 -0.10000000000E+04  0.10000000000E+04  0.00000000000E+00 0.  1.
    9000005    2    1    2  501    0  0.34558753307E+01 -0.32807386717E+02 -0.49208556659E+03  0.49320501458E+03  0.38358643837E+01 0.  0.
         13    1    3    3    0    0  0.38180713643E+01 -0.19520538652E+02 -0.30497578701E+03  0.30562372251E+03  0.00000000000E+00 0.  1.
          3    1    3    3  501    0 -0.36219603363E+00 -0.13286848065E+02 -0.18710977958E+03  0.18758129206E+03  0.00000000000E+00 0.  1.
         -1    1    1    2    0  502 -0.34558753307E+01  0.32807386717E+02 -0.50681846343E+03  0.50789095540E+03  0.00000000000E+00 0. -1.
<mgrwt>
<rscale>  1 0.30000000E+03</rscale>
<asrwt>0</asrwt>
<pdfrwt beam="1">  1       21 0.39853538E-02 0.30000000E+03</pdfrwt>
<pdfrwt beam="2">0</pdfrwt>
<totfact> 0.42307851E+04</totfact>
</mgrwt>
</event>
<event>
 6    1  0.1284012E-001  0.3000000E+03  0.7818608E-02  0.1093470E+00
         21   -1    0    0  501  502  0.00000000000E+00  0.00000000000E+00  0.46105059639E+01  0.46105059639E+01  0.00000000000E+00 0. -1.
         13   -1    0    0    0    0 -0.00000000000E+00 -0.00000000000E+00 -0.10000000000E+04  0.10000000000E+04  0.00000000000E+00 0.  1.
    9000005    2    1    2  501    0 -0.42873026625E+02  0.31464274681E+02 -0.80978176592E+03  0.81153454751E+03  0.37035667206E+01 0.  0.
         13    1    3    3    0    0 -0.11570101049E+02  0.10534511908E+02 -0.24321024531E+03  0.24371308255E+03  0.00000000000E+00 0.  1.
          1    1    3    3  501    0 -0.31302925576E+02  0.20929762773E+02 -0.56657152060E+03  0.56782146497E+03  0.00000000000E+00 0.  1.
         -3    1    1    2    0  502  0.42873026625E+02 -0.31464274681E+02 -0.18560772812E+03  0.19307595845E+03  0.00000000000E+00 0. -1.
<mgrwt>
<rscale>  1 0.30000000E+03</rscale>
<asrwt>0</asrwt>
<pdfrwt beam="1">  1       21 0.16765512E-01 0.30000000E+03</pdfrwt>
<pdfrwt beam="2">0</pdfrwt>
<totfact> 0.33474276E+03</totfact>
</mgrwt>
</event>
<event>
 6    1  0.1284012E-001  0.3000000E+03  0.7818608E-02  0.1093470E+00
         21   -1    0    0  501  502  0.00000000000E+00  0.00000000000E+00  0.13570937813E+01  0.13570937813E+01  0.00000000000E+00 0. -1.
         13   -1    0    0    0    0 -0.00000000000E+00 -0.00000000000E+00 -0.10000000000E+04  0.10000000000E+04  0.00000000000E+00 0.  1.
    9000005    2    1    2  501    0 -0.29062952995E+02  0.75357773890E+01 -0.78851629953E+03  0.78909632488E+03  0.36894621817E+01 0.  0.
         13    1    3    3    0    0 -0.13432737084E+02  0.15954555614E+01 -0.34841432749E+03  0.34867682387E+03  0.00000000000E+00 0.  1.
          3    1    3    3  501    0 -0.15630215910E+02  0.59403218276E+01 -0.44010197205E+03  0.44041950101E+03  0.00000000000E+00 0.  1.
         -1    1    1    2    0  502  0.29062952995E+02 -0.75357773890E+01 -0.21012660669E+03  0.21226076890E+03  0.00000000000E+00 0. -1.
<mgrwt>
<rscale>  1 0.30000000E+03</rscale>
<asrwt>0</asrwt>
<pdfrwt beam="1">  1       21 0.49348969E-02 0.30000000E+03</pdfrwt>
<pdfrwt beam="2">0</pdfrwt>
<totfact> 0.29455254E+04</totfact>
</mgrwt>
</event>
<event>
 6    1  0.1284012E-001  0.3000000E+03  0.7818608E-02  0.1093470E+00
         21   -1    0    0  501  502  0.00000000000E+00  0.00000000000E+00  0.22300105358E+01  0.22300105358E+01  0.00000000000E+00 0. -1.
         13   -1    0    0    0    0 -0.00000000000E+00 -0.00000000000E+00 -0.10000000000E+04  0.10000000000E+04  0.00000000000E+00 0.  1.
    9000005    2    1    2  501    0  0.26025302051E+01 -0.39774872315E+02 -0.76645594317E+03  0.76750676575E+03  0.48071837705E+01 0.  0.
         13    1    3    3    0    0  0.22822202326E+01 -0.71728701470E+01 -0.13500530652E+03  0.13521498210E+03  0.00000000000E+00 0.  1.
          3    1    3    3  501    0  0.32030997250E+00 -0.32602002168E+02 -0.63145063665E+03  0.63229178365E+03  0.00000000000E+00 0.  1.
         -1    1    1    2    0  502 -0.26025302051E+01  0.39774872315E+02 -0.23131404629E+03  0.23472324479E+03  0.00000000000E+00 0. -1.
<mgrwt>
<rscale>  1 0.30000000E+03</rscale>
<asrwt>0</asrwt>
<pdfrwt beam="1">  1       21 0.81091463E-02 0.30000000E+03</pdfrwt>
<pdfrwt beam="2">0</pdfrwt>
<totfact> 0.12473300E+04</totfact>
</mgrwt>
</event>
<event>
 6    1  0.1284012E-001  0.3000000E+03  0.7818608E-02  0.1093470E+00
         21   -1    0    0  501  502  0.00000000000E+00  0.00000000000E+00  0.11771323167E+01  0.11771323167E+01  0.00000000000E+00 0. -1.
         13   -1    0    0    0    0 -0.00000000000E+00 -0.00000000000E+00 -0.10000000000E+04  0.10000000000E+04  0.00000000000E+00 0.  1.
    9000005    2    1    2  501    0 -0.26697632219E+02  0.16497499353E+02 -0.29982890504E+03  0.30147898964E+03  0.26977484965E+01 0.  0.
         13    1    3    3    0    0 -0.17336621662E+02  0.10028209768E+02 -0.17986689836E+03  0.18097851963E+03  0.00000000000E+00 0.  1.
          1    1    3    3  501    0 -0.93610105565E+01  0.64692895859E+01 -0.11996200668E+03  0.12050047001E+03  0.00000000000E+00 0.  1.
         -3    1    1    2    0  502  0.26697632219E+02 -0.16497499353E+02 -0.69899396264E+03  0.69969814268E+03  0.00000000000E+00 0. -1.
<mgrwt>
<rscale>  1 0.30000000E+03</rscale>
<asrwt>0</asrwt>
<pdfrwt beam="1">  1       21 0.42804902E-02 0.30000000E+03</pdfrwt>
<pdfrwt beam="2">0</pdfrwt>
<totfact> 0.37504028E+04</totfact>
</mgrwt>
</event>
<event>
 6    1  0.1284012E-001  0.3000000E+03  0.7818608E-02  0.1093470E+00
         21   -1    0    0  501  502  0.00000000000E+00  0.00000000000E+00  0.39327553890E+01  0.39327553890E+01  0.00000000000E+00 0. -1.
         13   -1    0    0    0    0 -0.00000000000E+00 -0.00000000000E+00 -0.10000000000E+04  0.10000000000E+04  0.00000000000E+00 0.  1.
    9000005    2    1    2  501    0 -0.21912731635E+02  0.43318511634E+02 -0.81508869285E+03  0.81655640294E+03  0.61741979166E+01 0.  0.
         13    1    3    3    0    0 -0.17528865948E+02  0.33274575174E+02 -0.66974809212E+03  0.67080322405E+03  0.00000000000E+00 0.  1.
          1    1    3    3  501    0 -0.43838656871E+01  0.10043936460E+02 -0.14534060073E+03  0.14575317890E+03  0.00000000000E+00 0.  1.
         -3    1    1    2    0  502  0.21912731635E+02 -0.43318511634E+02 -0.18097855176E+03  0.18737635244E+03  0.00000000000E+00 0. -1.
<mgrwt>
<rscale>  1 0.30000000E+03</rscale>
<asrwt>0</asrwt>
<pdfrwt beam="1">  1       21 0.14300959E-01 0.30000000E+03</pdfrwt>
<pdfrwt beam="2">0</pdfrwt>
<totfact> 0.44972621E+03</totfact>
</mgrwt>
</event>
<event>
 6    1  0.1284012E-001  0.3000000E+03  0.7818608E-02  0.1093470E+00
         21   -1    0    0  501  502  0.00000000000E+00  0.00000000000E+00  0.41853325523E+01  0.41853325523E+01  0.00000000000E+00 0. -1.
         13   -1    0    0    0    0 -0.00000000000E+00 -0.00000000000E+00 -0.10000000000E+04  0.10000000000E+04  0.00000000000E+00 0.  1.
    9000005    2    1    2  501    0 -0.59426637025E+02 -0.24755875981E+02 -0.45144648681E+03  0.45602377364E+03  0.30615492139E+01 0.  0.
         13    1    3    3    0    0 -0.41694021173E+02 -0.16798953550E+02 -0.30577515544E+03  0.30906155038E+03  0.00000000000E+00 0.  1.
          1    1    3    3  501    0 -0.17732615852E+02 -0.79569224313E+01 -0.14567133138E+03  0.14696222326E+03  0.00000000000E+00 0.  1.
         -3    1    1    2    0  502  0.59426637025E+02  0.24755875981E+02 -0.54436818064E+03  0.54816155892E+03  0.00000000000E+00 0. -1.
<mgrwt>
<rscale>  1 0.30000000E+03</rscale>
<asrwt>0</asrwt>
<pdfrwt beam="1">  1       21 0.15219423E-01 0.30000000E+03</pdfrwt>
<pdfrwt beam="2">0</pdfrwt>
<totfact> 0.40087261E+03</totfact>
</mgrwt>
</event>
<event>
 6    1  0.1284012E-001  0.3000000E+03  0.7818608E-02  0.1093470E+00
         21   -1    0    0  501  502  0.00000000000E+00  0.00000000000E+00  0.19999232069E+01  0.19999232069E+01  0.00000000000E+00 0. -1.
         13   -1    0    0    0    0 -0.00000000000E+00 -0.00000000000E+00 -0.10000000000E+04  0.10000000000E+04  0.00000000000E+00 0.  1.
    9000005    2    1    2  501    0  0.28945478046E+02 -0.27298366915E+02 -0.72692427061E+03  0.72801975197E+03  0.32897590782E+01 0.  0.
         13    1    3    3    0    0  0.11618495847E+02 -0.12245668219E+02 -0.33253105641E+03  0.33295923071E+03  0.00000000000E+00 0.  1.
          3    1    3    3  501    0  0.17326982200E+02 -0.15052698696E+02 -0.39439321420E+03  0.39506052126E+03  0.00000000000E+00 0.  1.
         -1    1    1    2    0  502 -0.28945478046E+02  0.27298366915E+02 -0.27107580618E+03  0.27398017124E+03  0.00000000000E+00 0. -1.
<mgrwt>
<rscale>  1 0.30000000E+03</rscale>
<asrwt>0</asrwt>
<pdfrwt beam="1">  1       21 0.72724634E-02 0.30000000E+03</pdfrwt>
<pdfrwt beam="2">0</pdfrwt>
<totfact> 0.15096244E+04</totfact>
</mgrwt>
</event>
<event>
 6    1  0.1284012E-001  0.3000000E+03  0.7818608E-02  0.1093470E+00
         21   -1    0    0  501  502  0.00000000000E+00  0.00000000000E+00  0.18318153926E+01  0.18318153926E+01  0.00000000000E+00 0. -1.
         13   -1    0    0    0    0 -0.00000000000E+00 -0.00000000000E+00 -0.10000000000E+04  0.10000000000E+04  0.00000000000E+00 0.  1.
    9000005    2    1    2  501    0  0.24537535021E+02  0.26913241060E+02 -0.76156394156E+03  0.76244096135E+03  0.31889334948E+01 0.  0.
         13    1    3    3    0    0  0.58252077069E+01  0.80467804877E+01 -0.18948217381E+03  0.18974239883E+03  0.00000000000E+00 0.  1.
          3    1    3    3  501    0  0.18712327314E+02  0.18866460572E+02 -0.57208176775E+03  0.57269856252E+03  0.00000000000E+00 0.  1.
         -1    1    1    2    0  502 -0.24537535021E+02 -0.26913241060E+02 -0.23660424305E+03  0.23939085404E+03  0.00000000000E+00 0. -1.
<mgrwt>
<rscale>  1 0.30000000E+03</rscale>
<asrwt>0</asrwt>
<pdfrwt beam="1">  1       21 0.66611609E-02 0.30000000E+03</pdfrwt>
<pdfrwt beam="2">0</pdfrwt>
<totfact> 0.17587628E+04</totfact>
</mgrwt>
</event>
<event>
 6    1  0.1284012E-001  0.3000000E+03  0.7818608E-02  0.1093470E+00
         21   -1    0    0  501  502  0.00000000000E+00  0.00000000000E+00  0.35798031032E+01  0.35798031032E+01  0.00000000000E+00 0. -1.
         13   -1    0    0    0    0 -0.00000000000E+00 -0.00000000000E+00 -0.10000000000E+04  0.10000000000E+04  0.00000000000E+00 0.  1.
    9000005    2    1    2  501    0 -0.26703398184E+02 -0.44872120714E+02 -0.74281936494E+03  0.74465904175E+03  0.31465590895E+01 0.  0.
         13    1    3    3    0    0 -0.15949118812E+02 -0.24058441338E+02 -0.40011953809E+03  0.40115935456E+03  0.00000000000E+00 0.  1.
          3    1    3    3  501    0 -0.10754279372E+02 -0.20813679376E+02 -0.34269982685E+03  0.34349968719E+03  0.00000000000E+00 0.  1.
         -1    1    1    2    0  502  0.26703398184E+02  0.44872120714E+02 -0.25360083196E+03  0.25892076136E+03  0.00000000000E+00 0. -1.
<mgrwt>
<rscale>  1 0.30000000E+03</rscale>
<asrwt>0</asrwt>
<pdfrwt beam="1">  1       21 0.13017493E-01 0.30000000E+03</pdfrwt>
<pdfrwt beam="2">0</pdfrwt>
<totfact> 0.53433859E+03</totfact>
</mgrwt>
</event>
<event>
 6    1  0.1284012E-001  0.3000000E+03  0.7818608E-02  0.1093470E+00
         21   -1    0    0  501  502  0.00000000000E+00  0.00000000000E+00  0.25113509734E+01  0.25113509734E+01  0.00000000000E+00 0. -1.
         13   -1    0    0    0    0 -0.00000000000E+00 -0.00000000000E+00 -0.10000000000E+04  0.10000000000E+04  0.00000000000E+00 0.  1.
    9000005    2    1    2  501    0  0.26691315899E+02  0.19597263498E+02 -0.87333046289E+03  0.87401335774E+03  0.98373273877E+01 0.  0.
         13    1    3    3    0    0  0.88001282238E+01  0.10369998527E+02 -0.26354980522E+03  0.26390050958E+03  0.00000000000E+00 0.  1.
          3    1    3    3  501    0  0.17891187675E+02  0.92272649710E+01 -0.60978065767E+03  0.61011284816E+03  0.00000000000E+00 0.  1.
         -3    1    1    2    0  502 -0.26691315899E+02 -0.19597263498E+02 -0.12415818613E+03  0.12849799323E+03  0.00000000000E+00 0. -1.
<mgrwt>
<rscale>  1 0.30000000E+03</rscale>
<asrwt>0</asrwt>
<pdfrwt beam="1">  1       21 0.91322046E-02 0.30000000E+03</pdfrwt>
<pdfrwt beam="2">0</pdfrwt>
<totfact> 0.10113225E+04</totfact>
</mgrwt>
</event>
<event>
 6    1  0.1284012E-001  0.3000000E+03  0.7818608E-02  0.1093470E+00
         21   -1    0    0  501  502  0.00000000000E+00  0.00000000000E+00  0.12532426235E+01  0.12532426235E+01  0.00000000000E+00 0. -1.
         13   -1    0    0    0    0 -0.00000000000E+00 -0.00000000000E+00 -0.10000000000E+04  0.10000000000E+04  0.00000000000E+00 0.  1.
    9000005    2    1    2  501    0  0.26747889161E+02 -0.19395985748E+02 -0.67325196556E+03  0.67408583389E+03  0.56434460288E+01 0.  0.
         13    1    3    3    0    0  0.13515735597E+02 -0.11826870411E+02 -0.31769896479E+03  0.31820619448E+03  0.00000000000E+00 0.  1.
          1    1    3    3  501    0  0.13232153564E+02 -0.75691153372E+01 -0.35555300077E+03  0.35587963942E+03  0.00000000000E+00 0.  1.
         -1    1    1    2    0  502 -0.26747889161E+02  0.19395985748E+02 -0.32549479181E+03  0.32716740873E+03  0.00000000000E+00 0. -1.
<mgrwt>
<rscale>  1 0.30000000E+03</rscale>
<asrwt>0</asrwt>
<pdfrwt beam="1">  1       21 0.45572555E-02 0.30000000E+03</pdfrwt>
<pdfrwt beam="2">0</pdfrwt>
<totfact> 0.33726423E+04</totfact>
</mgrwt>
</event>
<event>
 6    1  0.1284012E-001  0.3000000E+03  0.7818608E-02  0.1093470E+00
         21   -1    0    0  501  502  0.00000000000E+00  0.00000000000E+00  0.12968523689E+01  0.12968523689E+01  0.00000000000E+00 0. -1.
         13   -1    0    0    0    0 -0.00000000000E+00 -0.00000000000E+00 -0.10000000000E+04  0.10000000000E+04  0.00000000000E+00 0.  1.
    9000005    2    1    2  501    0 -0.34294935165E+02 -0.10433091368E+02 -0.53594607979E+03  0.53715345231E+03  0.32617360399E+01 0.  0.
         13    1    3    3    0    0 -0.82034280049E+01 -0.39244249186E+01 -0.13001158346E+03  0.13032923377E+03  0.00000000000E+00 0.  1.
          1    1    3    3  501    0 -0.26091507160E+02 -0.65086664494E+01 -0.40593449633E+03  0.40682421854E+03  0.00000000000E+00 0.  1.
         -1    1    1    2    0  502  0.34294935165E+02  0.10433091368E+02 -0.46275706784E+03  0.46414340005E+03  0.00000000000E+00 0. -1.
<mgrwt>
<rscale>  1 0.30000000E+03</rscale>
<asrwt>0</asrwt>
<pdfrwt beam="1">  1       21 0.47158367E-02 0.30000000E+03</pdfrwt>
<pdfrwt beam="2">0</pdfrwt>
<totfact> 0.31821801E+04</totfact>
</mgrwt>
</event>
<event>
 6    1  0.1284012E-001  0.3000000E+03  0.7818608E-02  0.1093470E+00
         21   -1    0    0  501  502  0.00000000000E+00  0.00000000000E+00  0.26317027153E+01  0.26317027153E+01  0.00000000000E+00 0. -1.
         13   -1    0    0    0    0 -0.00000000000E+00 -0.00000000000E+00 -0.10000000000E+04  0.10000000000E+04  0.00000000000E+00 0.  1.
    9000005    2    1    2  501    0  0.31776338767E+02 -0.39346060169E+02 -0.57994340375E+03  0.58215412912E+03  0.33511698234E+01 0.  0.
         13    1    3    3    0    0  0.31718711658E+02 -0.39086059334E+02 -0.57853928179E+03  0.58072497559E+03  0.00000000000E+00 0.  1.
          1    1    3    3  501    0  0.57627108580E-01 -0.26000083475E+00 -0.14041219597E+01  0.14291535241E+01  0.00000000000E+00 0.  1.
         -1    1    1    2    0  502 -0.31776338767E+02  0.39346060169E+02 -0.41742489353E+03  0.42047757360E+03  0.00000000000E+00 0. -1.
<mgrwt>
<rscale>  1 0.30000000E+03</rscale>
<asrwt>0</asrwt>
<pdfrwt beam="1">  1       21 0.95698482E-02 0.30000000E+03</pdfrwt>
<pdfrwt beam="2">0</pdfrwt>
<totfact> 0.93054497E+03</totfact>
</mgrwt>
</event>
<event>
 6    1  0.1284012E-001  0.3000000E+03  0.7818608E-02  0.1093470E+00
         21   -1    0    0  501  502  0.00000000000E+00  0.00000000000E+00  0.12002366119E+01  0.12002366119E+01  0.00000000000E+00 0. -1.
         13   -1    0    0    0    0 -0.00000000000E+00 -0.00000000000E+00 -0.10000000000E+04  0.10000000000E+04  0.00000000000E+00 0.  1.
    9000005    2    1    2  501    0  0.24465521207E+02 -0.20603063955E+02 -0.32083401403E+03  0.32248040835E+03  0.60084306726E+01 0.  0.
         13    1    3    3    0    0  0.15689821997E+02 -0.94154019627E+01 -0.17392112622E+03  0.17488104086E+03  0.00000000000E+00 0.  1.
          1    1    3    3  501    0  0.87756992101E+01 -0.11187661992E+02 -0.14691288781E+03  0.14759936749E+03  0.00000000000E+00 0.  1.
         -3    1    1    2    0  502 -0.24465521207E+02  0.20603063955E+02 -0.67796574936E+03  0.67871982826E+03  0.00000000000E+00 0. -1.
<mgrwt>
<rscale>  1 0.30000000E+03</rscale>
<asrwt>0</asrwt>
<pdfrwt beam="1">  1       21 0.43645060E-02 0.30000000E+03</pdfrwt>
<pdfrwt beam="2">0</pdfrwt>
<totfact> 0.36290780E+04</totfact>
</mgrwt>
</event>
<event>
 6    1  0.1284012E-001  0.3000000E+03  0.7818608E-02  0.1093470E+00
         21   -1    0    0  501  502  0.00000000000E+00  0.00000000000E+00  0.52275479935E+01  0.52275479935E+01  0.00000000000E+00 0. -1.
         13   -1    0    0    0    0 -0.00000000000E+00 -0.00000000000E+00 -0.10000000000E+04  0.10000000000E+04  0.00000000000E+00 0.  1.
    9000005    2    1    2  501    0  0.29121546174E+02 -0.13889963192E+02 -0.94715081995E+03  0.94770524477E+03  0.30918751350E+01 0.  0.
         13    1    3    3    0    0  0.13381295116E+02 -0.46844956555E+01 -0.41256570452E+03  0.41280923452E+03  0.00000000000E+00 0.  1.
          1    1    3    3  501    0  0.15740251058E+02 -0.92054675369E+01 -0.53458511544E+03  0.53489601025E+03  0.00000000000E+00 0.  1.
         -1    1    1    2    0  502 -0.29121546174E+02  0.13889963192E+02 -0.47621632053E+02  0.57522303226E+02  0.00000000000E+00 0. -1.
<mgrwt>
<rscale>  1 0.30000000E+03</rscale>
<asrwt>0</asrwt>
<pdfrwt beam="1">  1       21 0.19009306E-01 0.30000000E+03</pdfrwt>
<pdfrwt beam="2">0</pdfrwt>
<totfact> 0.26426350E+03</totfact>
</mgrwt>
</event>
<event>
 6    1  0.1284012E-001  0.3000000E+03  0.7818608E-02  0.1093470E+00
         21   -1    0    0  501  502  0.00000000000E+00  0.00000000000E+00  0.13928975066E+01  0.13928975066E+01  0.00000000000E+00 0. -1.
         13   -1    0    0    0    0 -0.00000000000E+00 -0.00000000000E+00 -0.10000000000E+04  0.10000000000E+04  0.00000000000E+00 0.  1.
    9000005    2    1    2  501    0  0.23489480946E+02 -0.20383479297E+02 -0.77524874910E+03  0.77587971392E+03  0.33860802143E+01 0.  0.
         13    1    3    3    0    0  0.48828330243E+01 -0.49692864002E+01 -0.14335644787E+03  0.14352563190E+03  0.00000000000E+00 0.  1.
          1    1    3    3  501    0  0.18606647921E+02 -0.15414192897E+02 -0.63189230123E+03  0.63235408202E+03  0.00000000000E+00 0.  1.
         -3    1    1    2    0  502 -0.23489480946E+02  0.20383479297E+02 -0.22335835339E+03  0.22551318359E+03  0.00000000000E+00 0. -1.
<mgrwt>
<rscale>  1 0.30000000E+03</rscale>
<asrwt>0</asrwt>
<pdfrwt beam="1">  1       21 0.50650925E-02 0.30000000E+03</pdfrwt>
<pdfrwt beam="2">0</pdfrwt>
<totfact> 0.28176269E+04</totfact>
</mgrwt>
</event>
<event>
 6    1  0.1284012E-001  0.3000000E+03  0.7818608E-02  0.1093470E+00
         21   -1    0    0  501  502  0.00000000000E+00  0.00000000000E+00  0.38816893978E+01  0.38816893978E+01  0.00000000000E+00 0. -1.
         13   -1    0    0    0    0 -0.00000000000E+00 -0.00000000000E+00 -0.10000000000E+04  0.10000000000E+04  0.00000000000E+00 0.  1.
    9000005    2    1    2  501    0  0.24634012011E+01  0.36750895976E+02 -0.90280393006E+03  0.90356085250E+03  0.32528960334E+01 0.  0.
         13    1    3    3    0    0  0.17472701720E+01  0.69242340517E+01 -0.17325217770E+03  0.17339929368E+03  0.00000000000E+00 0.  1.
          3    1    3    3  501    0  0.71613102905E+00  0.29826661925E+02 -0.72955175236E+03  0.73016155881E+03  0.00000000000E+00 0.  1.
         -3    1    1    2    0  502 -0.24634012011E+01 -0.36750895976E+02 -0.93314380543E+02  0.10032083690E+03  0.00000000000E+00 0. -1.
<mgrwt>
<rscale>  1 0.30000000E+03</rscale>
<asrwt>0</asrwt>
<pdfrwt beam="1">  1       21 0.14115264E-01 0.30000000E+03</pdfrwt>
<pdfrwt beam="2">0</pdfrwt>
<totfact> 0.46067231E+03</totfact>
</mgrwt>
</event>
<event>
 6    1  0.1284012E-001  0.3000000E+03  0.7818608E-02  0.1093470E+00
         21   -1    0    0  501  502  0.00000000000E+00  0.00000000000E+00  0.25934254929E+01  0.25934254929E+01  0.00000000000E+00 0. -1.
         13   -1    0    0    0    0 -0.00000000000E+00 -0.00000000000E+00 -0.10000000000E+04  0.10000000000E+04  0.00000000000E+00 0.  1.
    9000005    2    1    2  501    0 -0.39003846302E+02  0.28847744409E+02 -0.64967697852E+03  0.65149605395E+03  0.36659924868E+01 0.  0.
         13    1    3    3    0    0 -0.35682637076E+02  0.26796320800E+02 -0.60872757043E+03  0.61036099842E+03  0.00000000000E+00 0.  1.
          3    1    3    3  501    0 -0.33212092253E+01  0.20514236088E+01 -0.40949408099E+02  0.41135055527E+02  0.00000000000E+00 0.  1.
         -1    1    1    2    0  502  0.39003846302E+02 -0.28847744409E+02 -0.34772959598E+03  0.35109737155E+03  0.00000000000E+00 0. -1.
<mgrwt>
<rscale>  1 0.30000000E+03</rscale>
<asrwt>0</asrwt>
<pdfrwt beam="1">  1       21 0.94306580E-02 0.30000000E+03</pdfrwt>
<pdfrwt beam="2">0</pdfrwt>
<totfact> 0.95515127E+03</totfact>
</mgrwt>
</event>
<event>
 6    1  0.1284012E-001  0.3000000E+03  0.7818608E-02  0.1093470E+00
         21   -1    0    0  501  502  0.00000000000E+00  0.00000000000E+00  0.10919784262E+01  0.10919784262E+01  0.00000000000E+00 0. -1.
         13   -1    0    0    0    0 -0.00000000000E+00 -0.00000000000E+00 -0.10000000000E+04  0.10000000000E+04  0.00000000000E+00 0.  1.
    9000005    2    1    2  501    0  0.29071473200E+02  0.14994432663E+02 -0.43851400833E+03  0.43974410621E+03  0.32186763982E+01 0.  0.
         13    1    3    3    0    0  0.16239795829E+02  0.94377069029E+01 -0.23401924162E+03  0.23477181843E+03  0.00000000000E+00 0.  1.
          1    1    3    3  501    0  0.12831677372E+02  0.55567257600E+01 -0.20449476671E+03  0.20497228778E+03  0.00000000000E+00 0.  1.
         -3    1    1    2    0  502 -0.29071473200E+02 -0.14994432663E+02 -0.56039401324E+03  0.56134787222E+03  0.00000000000E+00 0. -1.
<mgrwt>
<rscale>  1 0.30000000E+03</rscale>
<asrwt>0</asrwt>
<pdfrwt beam="1">  1       21 0.39708390E-02 0.30000000E+03</pdfrwt>
<pdfrwt beam="2">0</pdfrwt>
<totfact> 0.42568539E+04</totfact>
</mgrwt>
</event>
<event>
 6    1  0.1284012E-001  0.3000000E+03  0.7818608E-02  0.1093470E+00
         21   -1    0    0  501  502  0.00000000000E+00  0.00000000000E+00  0.91655620408E+00  0.91655620408E+00  0.00000000000E+00 0. -1.
         13   -1    0    0    0    0 -0.00000000000E+00 -0.00000000000E+00 -0.10000000000E+04  0.10000000000E+04  0.00000000000E+00 0.  1.
    9000005    2    1    2  501    0  0.91524402063E+01  0.28629711337E+02 -0.54852979909E+03  0.54936144961E+03  0.31039161461E+01 0.  0.
         13    1    3    3    0    0  0.66801598964E+01  0.22259651402E+02 -0.44493365054E+03  0.44554020021E+03  0.00000000000E+00 0.  1.
          1    1    3    3  501    0  0.24722803099E+01  0.63700599351E+01 -0.10359614855E+03  0.10382124940E+03  0.00000000000E+00 0.  1.
         -3    1    1    2    0  502 -0.91524402063E+01 -0.28629711337E+02 -0.45055364470E+03  0.45155510659E+03  0.00000000000E+00 0. -1.
<mgrwt>
<rscale>  1 0.30000000E+03</rscale>
<asrwt>0</asrwt>
<pdfrwt beam="1">  1       21 0.33329387E-02 0.30000000E+03</pdfrwt>
<pdfrwt beam="2">0</pdfrwt>
<totfact> 0.57099410E+04</totfact>
</mgrwt>
</event>
<event>
 6    1  0.1284012E-001  0.3000000E+03  0.7818608E-02  0.1093470E+00
         21   -1    0    0  501  502  0.00000000000E+00  0.00000000000E+00  0.20446190906E+01  0.20446190906E+01  0.00000000000E+00 0. -1.
         13   -1    0    0    0    0 -0.00000000000E+00 -0.00000000000E+00 -0.10000000000E+04  0.10000000000E+04  0.00000000000E+00 0.  1.
    9000005    2    1    2  501    0  0.30615658223E+02 -0.32479047784E+02 -0.57548858877E+03  0.57722654328E+03  0.33405674635E+01 0.  0.
         13    1    3    3    0    0  0.28169780071E+02 -0.30127555304E+02 -0.51914663353E+03  0.52078252007E+03  0.00000000000E+00 0.  1.
          1    1    3    3  501    0  0.24458781526E+01 -0.23514924803E+01 -0.56341955231E+02  0.56444023209E+02  0.00000000000E+00 0.  1.
         -1    1    1    2    0  502 -0.30615658223E+02  0.32479047784E+02 -0.42246679214E+03  0.42481807581E+03  0.00000000000E+00 0. -1.
<mgrwt>
<rscale>  1 0.30000000E+03</rscale>
<asrwt>0</asrwt>
<pdfrwt beam="1">  1       21 0.74349942E-02 0.30000000E+03</pdfrwt>
<pdfrwt beam="2">0</pdfrwt>
<totfact> 0.14524111E+04</totfact>
</mgrwt>
</event>
<event>
 6    1  0.1284012E-001  0.3000000E+03  0.7818608E-02  0.1093470E+00
         21   -1    0    0  501  502  0.00000000000E+00  0.00000000000E+00  0.63876494753E+01  0.63876494753E+01  0.00000000000E+00 0. -1.
         13   -1    0    0    0    0 -0.00000000000E+00 -0.00000000000E+00 -0.10000000000E+04  0.10000000000E+04  0.00000000000E+00 0.  1.
    9000005    2    1    2  501    0 -0.22620286165E+02  0.46813785579E+02 -0.87889156717E+03  0.88043501553E+03  0.34959757047E+01 0.  0.
         13    1    3    3    0    0 -0.50487208778E+01  0.88485952591E+01 -0.15272188935E+03  0.15306130376E+03  0.00000000000E+00 0.  1.
          3    1    3    3  501    0 -0.17571565287E+02  0.37965190320E+02 -0.72616967782E+03  0.72737371177E+03  0.00000000000E+00 0.  1.
         -3    1    1    2    0  502  0.22620286165E+02 -0.46813785579E+02 -0.11472078335E+03  0.12595263395E+03  0.00000000000E+00 0. -1.
<mgrwt>
<rscale>  1 0.30000000E+03</rscale>
<asrwt>0</asrwt>
<pdfrwt beam="1">  1       21 0.23227865E-01 0.30000000E+03</pdfrwt>
<pdfrwt beam="2">0</pdfrwt>
<totfact> 0.17995998E+03</totfact>
</mgrwt>
</event>
<event>
 6    1  0.1284012E-001  0.3000000E+03  0.7818608E-02  0.1093470E+00
         21   -1    0    0  501  502  0.00000000000E+00  0.00000000000E+00  0.23757949663E+01  0.23757949663E+01  0.00000000000E+00 0. -1.
         13   -1    0    0    0    0 -0.00000000000E+00 -0.00000000000E+00 -0.10000000000E+04  0.10000000000E+04  0.00000000000E+00 0.  1.
    9000005    2    1    2  501    0  0.40565661253E+02  0.16999454449E+02 -0.71350995807E+03  0.71487716949E+03  0.42840243974E+01 0.  0.
         13    1    3    3    0    0  0.15607198014E+01  0.16526582291E+01 -0.34885863827E+02  0.34959842969E+02  0.00000000000E+00 0.  1.
          1    1    3    3  501    0  0.39004941451E+02  0.15346796220E+02 -0.67862409425E+03  0.67991732652E+03  0.00000000000E+00 0.  1.
         -1    1    1    2    0  502 -0.40565661253E+02 -0.16999454449E+02 -0.28411424696E+03  0.28749862548E+03  0.00000000000E+00 0. -1.
<mgrwt>
<rscale>  1 0.30000000E+03</rscale>
<asrwt>0</asrwt>
<pdfrwt beam="1">  1       21 0.86392726E-02 0.30000000E+03</pdfrwt>
<pdfrwt beam="2">0</pdfrwt>
<totfact> 0.11156699E+04</totfact>
</mgrwt>
</event>
<event>
 6    1  0.1284012E-001  0.3000000E+03  0.7818608E-02  0.1093470E+00
         21   -1    0    0  501  502  0.00000000000E+00  0.00000000000E+00  0.16500509327E+01  0.16500509327E+01  0.00000000000E+00 0. -1.
         13   -1    0    0    0    0 -0.00000000000E+00 -0.00000000000E+00 -0.10000000000E+04  0.10000000000E+04  0.00000000000E+00 0.  1.
    9000005    2    1    2  501    0 -0.39189007612E+02 -0.99345742920E+01 -0.52825945832E+03  0.52982429541E+03  0.46102730682E+01 0.  0.
         13    1    3    3    0    0 -0.25891335211E+02 -0.81477446160E+01 -0.37288902043E+03  0.37387560571E+03  0.00000000000E+00 0.  1.
          3    1    3    3  501    0 -0.13297672401E+02 -0.17868296760E+01 -0.15537043789E+03  0.15594868971E+03  0.00000000000E+00 0.  1.
         -1    1    1    2    0  502  0.39189007612E+02  0.99345742920E+01 -0.47009049074E+03  0.47182575552E+03  0.00000000000E+00 0. -1.
<mgrwt>
<rscale>  1 0.30000000E+03</rscale>
<asrwt>0</asrwt>
<pdfrwt beam="1">  1       21 0.60001979E-02 0.30000000E+03</pdfrwt>
<pdfrwt beam="2">0</pdfrwt>
<totfact> 0.21070467E+04</totfact>
</mgrwt>
</event>
<event>
 6    1  0.1284012E-001  0.3000000E+03  0.7818608E-02  0.1093470E+00
         21   -1    0    0  501  502  0.00000000000E+00  0.00000000000E+00  0.20462122028E+02  0.20462122028E+02  0.00000000000E+00 0. -1.
         13   -1    0    0    0    0 -0.00000000000E+00 -0.00000000000E+00 -0.10000000000E+04  0.10000000000E+04  0.00000000000E+00 0.  1.
    9000005    2    1    2  501    0 -0.10312293650E+03  0.14196961010E+02 -0.83964121332E+03  0.84608617611E+03  0.53438341099E+01 0.  0.
         13    1    3    3    0    0 -0.12018651921E+02  0.28475085366E-01 -0.10143567568E+03  0.10214521577E+03  0.00000000000E+00 0.  1.
          1    1    3    3  501    0 -0.91104284580E+02  0.14168485925E+02 -0.73820553764E+03  0.74394096034E+03  0.00000000000E+00 0.  1.
         -1    1    1    2    0  502  0.10312293650E+03 -0.14196961010E+02 -0.13989666465E+03  0.17437594592E+03  0.00000000000E+00 0. -1.
<mgrwt>
<rscale>  1 0.30000000E+03</rscale>
<asrwt>0</asrwt>
<pdfrwt beam="1">  1       21 0.74407873E-01 0.30000000E+03</pdfrwt>
<pdfrwt beam="2">0</pdfrwt>
<totfact> 0.15289312E+02</totfact>
</mgrwt>
</event>
<event>
 6    1  0.1284012E-001  0.3000000E+03  0.7818608E-02  0.1093470E+00
         21   -1    0    0  501  502  0.00000000000E+00  0.00000000000E+00  0.33224641226E+01  0.33224641226E+01  0.00000000000E+00 0. -1.
         13   -1    0    0    0    0 -0.00000000000E+00 -0.00000000000E+00 -0.10000000000E+04  0.10000000000E+04  0.00000000000E+00 0.  1.
    9000005    2    1    2  501    0 -0.27675109621E+02 -0.30559118547E+02 -0.84872935556E+03  0.84973719309E+03  0.34650992067E+01 0.  0.
         13    1    3    3    0    0 -0.24421560325E+02 -0.27896987835E+02 -0.77810150209E+03  0.77898434009E+03  0.00000000000E+00 0.  1.
          1    1    3    3  501    0 -0.32535492953E+01 -0.26621307122E+01 -0.70627853468E+02  0.70752853005E+02  0.00000000000E+00 0.  1.
         -3    1    1    2    0  502  0.27675109621E+02  0.30559118547E+02 -0.14794818032E+03  0.15358527103E+03  0.00000000000E+00 0. -1.
<mgrwt>
<rscale>  1 0.30000000E+03</rscale>
<asrwt>0</asrwt>
<pdfrwt beam="1">  1       21 0.12081713E-01 0.30000000E+03</pdfrwt>
<pdfrwt beam="2">0</pdfrwt>
<totfact> 0.61212299E+03</totfact>
</mgrwt>
</event>
<event>
 6    1  0.1284012E-001  0.3000000E+03  0.7818608E-02  0.1093470E+00
         21   -1    0    0  501  502  0.00000000000E+00  0.00000000000E+00  0.25496635561E+01  0.25496635561E+01  0.00000000000E+00 0. -1.
         13   -1    0    0    0    0 -0.00000000000E+00 -0.00000000000E+00 -0.10000000000E+04  0.10000000000E+04  0.00000000000E+00 0.  1.
    9000005    2    1    2  501    0 -0.49450742695E+02 -0.58276966688E+01 -0.42156593463E+03  0.42451663487E+03  0.41470516931E+01 0.  0.
         13    1    3    3    0    0 -0.47163649174E+02 -0.59762354433E+01 -0.40771796992E+03  0.41048028965E+03  0.00000000000E+00 0.  1.
          3    1    3    3  501    0 -0.22870935209E+01  0.14853877450E+00 -0.13847964712E+02  0.14036345222E+02  0.00000000000E+00 0.  1.
         -3    1    1    2    0  502  0.49450742695E+02  0.58276966688E+01 -0.57588440181E+03  0.57803302869E+03  0.00000000000E+00 0. -1.
<mgrwt>
<rscale>  1 0.30000000E+03</rscale>
<asrwt>0</asrwt>
<pdfrwt beam="1">  1       21 0.92715234E-02 0.30000000E+03</pdfrwt>
<pdfrwt beam="2">0</pdfrwt>
<totfact> 0.98449964E+03</totfact>
</mgrwt>
</event>
<event>
 6    1  0.1284012E-001  0.3000000E+03  0.7818608E-02  0.1093470E+00
         21   -1    0    0  501  502  0.00000000000E+00  0.00000000000E+00  0.15815073661E+01  0.15815073661E+01  0.00000000000E+00 0. -1.
         13   -1    0    0    0    0 -0.00000000000E+00 -0.00000000000E+00 -0.10000000000E+04  0.10000000000E+04  0.00000000000E+00 0.  1.
    9000005    2    1    2  501    0  0.25463506666E+00 -0.31476259223E+02 -0.80462870745E+03  0.80525193604E+03  0.35360878431E+01 0.  0.
         13    1    3    3    0    0  0.42015842931E+00 -0.31447810269E+02 -0.79515038174E+03  0.79577212246E+03  0.00000000000E+00 0.  1.
          1    1    3    3  501    0 -0.16552336265E+00 -0.28448953543E-01 -0.94783257117E+01  0.94798135859E+01  0.00000000000E+00 0.  1.
         -1    1    1    2    0  502 -0.25463506666E+00  0.31476259223E+02 -0.19378978519E+03  0.19632957132E+03  0.00000000000E+00 0. -1.
<mgrwt>
<rscale>  1 0.30000000E+03</rscale>
<asrwt>0</asrwt>
<pdfrwt beam="1">  1       21 0.57509480E-02 0.30000000E+03</pdfrwt>
<pdfrwt beam="2">0</pdfrwt>
<totfact> 0.22668599E+04</totfact>
</mgrwt>
</event>
<event>
 6    1  0.1284012E-001  0.3000000E+03  0.7818608E-02  0.1093470E+00
         21   -1    0    0  501  502  0.00000000000E+00  0.00000000000E+00  0.29667587247E+01  0.29667587247E+01  0.00000000000E+00 0. -1.
         13   -1    0    0    0    0 -0.00000000000E+00 -0.00000000000E+00 -0.10000000000E+04  0.10000000000E+04  0.00000000000E+00 0.  1.
    9000005    2    1    2  501    0 -0.16189916087E+02  0.29376025897E+02 -0.89315106125E+03  0.89380370817E+03  0.64176506365E+01 0.  0.
         13    1    3    3    0    0 -0.15282628449E+02  0.23041714025E+02 -0.69657815267E+03  0.69712667579E+03  0.00000000000E+00 0.  1.
          1    1    3    3  501    0 -0.90728763784E+00  0.63343118717E+01 -0.19657290858E+03  0.19667703238E+03  0.00000000000E+00 0.  1.
         -3    1    1    2    0  502  0.16189916087E+02 -0.29376025897E+02 -0.10388218002E+03  0.10916305056E+03  0.00000000000E+00 0. -1.
<mgrwt>
<rscale>  1 0.30000000E+03</rscale>
<asrwt>0</asrwt>
<pdfrwt beam="1">  1       21 0.10788236E-01 0.30000000E+03</pdfrwt>
<pdfrwt beam="2">0</pdfrwt>
<totfact> 0.75099235E+03</totfact>
</mgrwt>
</event>
<event>
 6    1  0.1284012E-001  0.3000000E+03  0.7818608E-02  0.1093470E+00
         21   -1    0    0  501  502  0.00000000000E+00  0.00000000000E+00  0.23174991991E+01  0.23174991991E+01  0.00000000000E+00 0. -1.
         13   -1    0    0    0    0 -0.00000000000E+00 -0.00000000000E+00 -0.10000000000E+04  0.10000000000E+04  0.00000000000E+00 0.  1.
    9000005    2    1    2  501    0 -0.26070485575E+02 -0.16914424265E+02 -0.88133401024E+03  0.88189017995E+03  0.38579678497E+01 0.  0.
         13    1    3    3    0    0 -0.11526989381E+01 -0.18925372474E+01 -0.66003377618E+02  0.66040565329E+02  0.00000000000E+00 0.  1.
          1    1    3    3  501    0 -0.24917786637E+02 -0.15021887017E+02 -0.81533063262E+03  0.81584961462E+03  0.00000000000E+00 0.  1.
         -1    1    1    2    0  502  0.26070485575E+02  0.16914424265E+02 -0.11634849056E+03  0.12042731925E+03  0.00000000000E+00 0. -1.
<mgrwt>
<rscale>  1 0.30000000E+03</rscale>
<asrwt>0</asrwt>
<pdfrwt beam="1">  1       21 0.84272876E-02 0.30000000E+03</pdfrwt>
<pdfrwt beam="2">0</pdfrwt>
<totfact> 0.11656466E+04</totfact>
</mgrwt>
</event>
<event>
 6    1  0.1284012E-001  0.3000000E+03  0.7818608E-02  0.1093470E+00
         21   -1    0    0  501  502  0.00000000000E+00  0.00000000000E+00  0.12094563722E+01  0.12094563722E+01  0.00000000000E+00 0. -1.
         13   -1    0    0    0    0 -0.00000000000E+00 -0.00000000000E+00 -0.10000000000E+04  0.10000000000E+04  0.00000000000E+00 0.  1.
    9000005    2    1    2  501    0  0.28727078185E+02 -0.14376814540E+02 -0.31354726177E+03  0.31521361590E+03  0.39749800391E+01 0.  0.
         13    1    3    3    0    0  0.27985111012E+02 -0.13324930503E+02 -0.29571871313E+03  0.29733865794E+03  0.00000000000E+00 0.  1.
          1    1    3    3  501    0  0.74196717288E+00 -0.10518840369E+01 -0.17828548641E+02  0.17874957957E+02  0.00000000000E+00 0.  1.
         -1    1    1    2    0  502 -0.28727078185E+02  0.14376814540E+02 -0.68524328186E+03  0.68599584048E+03  0.00000000000E+00 0. -1.
<mgrwt>
<rscale>  1 0.30000000E+03</rscale>
<asrwt>0</asrwt>
<pdfrwt beam="1">  1       21 0.43980324E-02 0.30000000E+03</pdfrwt>
<pdfrwt beam="2">0</pdfrwt>
<totfact> 0.35823536E+04</totfact>
</mgrwt>
</event>
<event>
 6    1  0.1284012E-001  0.3000000E+03  0.7818608E-02  0.1093470E+00
         21   -1    0    0  501  502  0.00000000000E+00  0.00000000000E+00  0.16963463516E+01  0.16963463516E+01  0.00000000000E+00 0. -1.
         13   -1    0    0    0    0 -0.00000000000E+00 -0.00000000000E+00 -0.10000000000E+04  0.10000000000E+04  0.00000000000E+00 0.  1.
    9000005    2    1    2  501    0 -0.28100082713E+02 -0.20712426925E+02 -0.76426163172E+03  0.76506522561E+03  0.32153433246E+01 0.  0.
         13    1    3    3    0    0 -0.39268526472E+01 -0.31899004787E+01 -0.13717062205E+03  0.13726388888E+03  0.00000000000E+00 0.  1.
          1    1    3    3  501    0 -0.24173230065E+02 -0.17522526446E+02 -0.62709100967E+03  0.62780133673E+03  0.00000000000E+00 0.  1.
         -1    1    1    2    0  502  0.28100082713E+02  0.20712426925E+02 -0.23404202193E+03  0.23663112074E+03  0.00000000000E+00 0. -1.
<mgrwt>
<rscale>  1 0.30000000E+03</rscale>
<asrwt>0</asrwt>
<pdfrwt beam="1">  1       21 0.61685452E-02 0.30000000E+03</pdfrwt>
<pdfrwt beam="2">0</pdfrwt>
<totfact> 0.20088009E+04</totfact>
</mgrwt>
</event>
<event>
 6    1  0.1284012E-001  0.3000000E+03  0.7818608E-02  0.1093470E+00
         21   -1    0    0  501  502  0.00000000000E+00  0.00000000000E+00  0.11139742770E+01  0.11139742770E+01  0.00000000000E+00 0. -1.
         13   -1    0    0    0    0 -0.00000000000E+00 -0.00000000000E+00 -0.10000000000E+04  0.10000000000E+04  0.00000000000E+00 0.  1.
    9000005    2    1    2  501    0  0.15518329122E+02 -0.27713310148E+02 -0.35351052814E+03  0.35495735319E+03  0.40228071613E+01 0.  0.
         13    1    3    3    0    0  0.47220464453E+01 -0.12410150052E+02 -0.14237315486E+03  0.14299099542E+03  0.00000000000E+00 0.  1.
          3    1    3    3  501    0  0.10796282676E+02 -0.15303160097E+02 -0.21113737328E+03  0.21196635776E+03  0.00000000000E+00 0.  1.
         -1    1    1    2    0  502 -0.15518329122E+02  0.27713310148E+02 -0.64537549758E+03  0.64615662109E+03  0.00000000000E+00 0. -1.
<mgrwt>
<rscale>  1 0.30000000E+03</rscale>
<asrwt>0</asrwt>
<pdfrwt beam="1">  1       21 0.40508241E-02 0.30000000E+03</pdfrwt>
<pdfrwt beam="2">0</pdfrwt>
<totfact> 0.41162444E+04</totfact>
</mgrwt>
</event>
<event>
 6    1  0.1284012E-001  0.3000000E+03  0.7818608E-02  0.1093470E+00
         21   -1    0    0  501  502  0.00000000000E+00  0.00000000000E+00  0.15188105953E+01  0.15188105953E+01  0.00000000000E+00 0. -1.
         13   -1    0    0    0    0 -0.00000000000E+00 -0.00000000000E+00 -0.10000000000E+04  0.10000000000E+04  0.00000000000E+00 0.  1.
    9000005    2    1    2  501    0  0.26295851334E+02  0.28663933827E+02 -0.50411700242E+03  0.50562664260E+03  0.33550982908E+01 0.  0.
         13    1    3    3    0    0  0.65917771423E+01  0.80537674665E+01 -0.11785110880E+03  0.11830975674E+03  0.00000000000E+00 0.  1.
          1    1    3    3  501    0  0.19704074192E+02  0.20610166361E+02 -0.38626589362E+03  0.38731688586E+03  0.00000000000E+00 0.  1.
         -1    1    1    2    0  502 -0.26295851334E+02 -0.28663933827E+02 -0.49436418699E+03  0.49589216799E+03  0.00000000000E+00 0. -1.
<mgrwt>
<rscale>  1 0.30000000E+03</rscale>
<asrwt>0</asrwt>
<pdfrwt beam="1">  1       21 0.55229593E-02 0.30000000E+03</pdfrwt>
<pdfrwt beam="2">0</pdfrwt>
<totfact> 0.24299930E+04</totfact>
</mgrwt>
</event>
<event>
 6    1  0.1284012E-001  0.3000000E+03  0.7818608E-02  0.1093470E+00
         21   -1    0    0  501  502  0.00000000000E+00  0.00000000000E+00  0.29377968717E+01  0.29377968717E+01  0.00000000000E+00 0. -1.
         13   -1    0    0    0    0 -0.00000000000E+00 -0.00000000000E+00 -0.10000000000E+04  0.10000000000E+04  0.00000000000E+00 0.  1.
    9000005    2    1    2  501    0  0.24804171332E+02 -0.42536642283E+02 -0.70725148075E+03  0.70897373842E+03  0.38068232027E+01 0.  0.
         13    1    3    3    0    0  0.19293054299E+02 -0.30860929839E+02 -0.53935109653E+03  0.54057767644E+03  0.00000000000E+00 0.  1.
          3    1    3    3  501    0  0.55111170334E+01 -0.11675712444E+02 -0.16790038422E+03  0.16839606199E+03  0.00000000000E+00 0.  1.
         -3    1    1    2    0  502 -0.24804171332E+02  0.42536642283E+02 -0.28981072238E+03  0.29396405845E+03  0.00000000000E+00 0. -1.
<mgrwt>
<rscale>  1 0.30000000E+03</rscale>
<asrwt>0</asrwt>
<pdfrwt beam="1">  1       21 0.10682920E-01 0.30000000E+03</pdfrwt>
<pdfrwt beam="2">0</pdfrwt>
<totfact> 0.76433790E+03</totfact>
</mgrwt>
</event>
<event>
 6    1  0.1284012E-001  0.3000000E+03  0.7818608E-02  0.1093470E+00
         21   -1    0    0  501  502  0.00000000000E+00  0.00000000000E+00  0.22520429916E+01  0.22520429916E+01  0.00000000000E+00 0. -1.
         13   -1    0    0    0    0 -0.00000000000E+00 -0.00000000000E+00 -0.10000000000E+04  0.10000000000E+04  0.00000000000E+00 0.  1.
    9000005    2    1    2  501    0  0.14785462213E+02  0.35515827887E+02 -0.79189478970E+03  0.79283497011E+03  0.31540374624E+01 0.  0.
         13    1    3    3    0    0  0.11121698793E+02  0.29576275075E+02 -0.65882494717E+03  0.65958226117E+03  0.00000000000E+00 0.  1.
          3    1    3    3  501    0  0.36637634193E+01  0.59395528121E+01 -0.13306984252E+03  0.13325270894E+03  0.00000000000E+00 0.  1.
         -3    1    1    2    0  502 -0.14785462213E+02 -0.35515827887E+02 -0.20585316731E+03  0.20941707288E+03  0.00000000000E+00 0. -1.
<mgrwt>
<rscale>  1 0.30000000E+03</rscale>
<asrwt>0</asrwt>
<pdfrwt beam="1">  1       21 0.81892645E-02 0.30000000E+03</pdfrwt>
<pdfrwt beam="2">0</pdfrwt>
<totfact> 0.12259521E+04</totfact>
</mgrwt>
</event>
<event>
 6    1  0.1284012E-001  0.3000000E+03  0.7818608E-02  0.1093470E+00
         21   -1    0    0  501  502  0.00000000000E+00  0.00000000000E+00  0.43194443801E+01  0.43194443801E+01  0.00000000000E+00 0. -1.
         13   -1    0    0    0    0 -0.00000000000E+00 -0.00000000000E+00 -0.10000000000E+04  0.10000000000E+04  0.00000000000E+00 0.  1.
    9000005    2    1    2  501    0  0.16740002691E+02  0.54530233439E+02 -0.74694132228E+03  0.74912347997E+03  0.32977663701E+01 0.  0.
         13    1    3    3    0    0  0.13081759894E+02  0.38712890930E+02 -0.52188957297E+03  0.52348691171E+03  0.00000000000E+00 0.  1.
          3    1    3    3  501    0  0.36582427978E+01  0.15817342510E+02 -0.22505174931E+03  0.22563656825E+03  0.00000000000E+00 0.  1.
         -3    1    1    2    0  502 -0.16740002691E+02 -0.54530233439E+02 -0.24873923334E+03  0.25519596441E+03  0.00000000000E+00 0. -1.
<mgrwt>
<rscale>  1 0.30000000E+03</rscale>
<asrwt>0</asrwt>
<pdfrwt beam="1">  1       21 0.15707104E-01 0.30000000E+03</pdfrwt>
<pdfrwt beam="2">0</pdfrwt>
<totfact> 0.37805576E+03</totfact>
</mgrwt>
</event>
<event>
 6    1  0.1284012E-001  0.3000000E+03  0.7818608E-02  0.1093470E+00
         21   -1    0    0  501  502  0.00000000000E+00  0.00000000000E+00  0.11428426646E+01  0.11428426646E+01  0.00000000000E+00 0. -1.
         13   -1    0    0    0    0 -0.00000000000E+00 -0.00000000000E+00 -0.10000000000E+04  0.10000000000E+04  0.00000000000E+00 0.  1.
    9000005    2    1    2  501    0  0.13694838119E+02 -0.29429911548E+02 -0.63638517695E+03  0.63722031677E+03  0.31575916901E+01 0.  0.
         13    1    3    3    0    0  0.28499255643E+01 -0.55926943561E+01 -0.10077913357E+03  0.10097442285E+03  0.00000000000E+00 0.  1.
          3    1    3    3  501    0  0.10844912555E+02 -0.23837217192E+02 -0.53560604337E+03  0.53624589392E+03  0.00000000000E+00 0.  1.
         -1    1    1    2    0  502 -0.13694838119E+02  0.29429911548E+02 -0.36247198039E+03  0.36392252589E+03  0.00000000000E+00 0. -1.
<mgrwt>
<rscale>  1 0.30000000E+03</rscale>
<asrwt>0</asrwt>
<pdfrwt beam="1">  1       21 0.41558003E-02 0.30000000E+03</pdfrwt>
<pdfrwt beam="2">0</pdfrwt>
<totfact> 0.39424295E+04</totfact>
</mgrwt>
</event>
<event>
 6    1  0.1284012E-001  0.3000000E+03  0.7818608E-02  0.1093470E+00
         21   -1    0    0  501  502  0.00000000000E+00  0.00000000000E+00  0.28073504555E+01  0.28073504555E+01  0.00000000000E+00 0. -1.
         13   -1    0    0    0    0 -0.00000000000E+00 -0.00000000000E+00 -0.10000000000E+04  0.10000000000E+04  0.00000000000E+00 0.  1.
    9000005    2    1    2  501    0  0.35824413545E+01  0.40411753794E+02 -0.82057180525E+03  0.82158685942E+03  0.45756173917E+01 0.  0.
         13    1    3    3    0    0  0.16129972651E+01  0.27863208388E+02 -0.60141762599E+03  0.60206488105E+03  0.00000000000E+00 0.  1.
          3    1    3    3  501    0  0.19694440894E+01  0.12548545407E+02 -0.21915417926E+03  0.21952197837E+03  0.00000000000E+00 0.  1.
         -3    1    1    2    0  502 -0.35824413545E+01 -0.40411753794E+02 -0.17662084430E+03  0.18122049103E+03  0.00000000000E+00 0. -1.
<mgrwt>
<rscale>  1 0.30000000E+03</rscale>
<asrwt>0</asrwt>
<pdfrwt beam="1">  1       21 0.10208569E-01 0.30000000E+03</pdfrwt>
<pdfrwt beam="2">0</pdfrwt>
<totfact> 0.82914610E+03</totfact>
</mgrwt>
</event>
<event>
 6    1  0.1284012E-001  0.3000000E+03  0.7818608E-02  0.1093470E+00
         21   -1    0    0  501  502  0.00000000000E+00  0.00000000000E+00  0.15118114318E+01  0.15118114318E+01  0.00000000000E+00 0. -1.
         13   -1    0    0    0    0 -0.00000000000E+00 -0.00000000000E+00 -0.10000000000E+04  0.10000000000E+04  0.00000000000E+00 0.  1.
    9000005    2    1    2  501    0 -0.29779723500E+02  0.10338990226E+02 -0.79173614909E+03  0.79237039402E+03  0.33143453788E+01 0.  0.
         13    1    3    3    0    0 -0.25594965537E+02  0.83304742066E+01 -0.69919467953E+03  0.69971258310E+03  0.00000000000E+00 0.  1.
          3    1    3    3  501    0 -0.41847579636E+01  0.20085160190E+01 -0.92541469565E+02  0.92657810923E+02  0.00000000000E+00 0.  1.
         -3    1    1    2    0  502  0.29779723500E+02 -0.10338990226E+02 -0.20675203948E+03  0.20914141741E+03  0.00000000000E+00 0. -1.
<mgrwt>
<rscale>  1 0.30000000E+03</rscale>
<asrwt>0</asrwt>
<pdfrwt beam="1">  1       21 0.54975077E-02 0.30000000E+03</pdfrwt>
<pdfrwt beam="2">0</pdfrwt>
<totfact> 0.24493177E+04</totfact>
</mgrwt>
</event>
<event>
 6    1  0.1284012E-001  0.3000000E+03  0.7818608E-02  0.1093470E+00
         21   -1    0    0  501  502  0.00000000000E+00  0.00000000000E+00  0.16843396492E+01  0.16843396492E+01  0.00000000000E+00 0. -1.
         13   -1    0    0    0    0 -0.00000000000E+00 -0.00000000000E+00 -0.10000000000E+04  0.10000000000E+04  0.00000000000E+00 0.  1.
    9000005    2    1    2  501    0 -0.28108159033E+02 -0.13716665332E+02 -0.82299181369E+03  0.82359260284E+03  0.33218276243E+01 0.  0.
         13    1    3    3    0    0 -0.15040392220E+02 -0.55525404460E+01 -0.40860972918E+03  0.40892414319E+03  0.00000000000E+00 0.  1.
          3    1    3    3  501    0 -0.13067766813E+02 -0.81641248861E+01 -0.41438208450E+03  0.41466845964E+03  0.00000000000E+00 0.  1.
         -1    1    1    2    0  502  0.28108159033E+02  0.13716665332E+02 -0.17532384666E+03  0.17809173681E+03  0.00000000000E+00 0. -1.
<mgrwt>
<rscale>  1 0.30000000E+03</rscale>
<asrwt>0</asrwt>
<pdfrwt beam="1">  1       21 0.61248844E-02 0.30000000E+03</pdfrwt>
<pdfrwt beam="2">0</pdfrwt>
<totfact> 0.20335862E+04</totfact>
</mgrwt>
</event>
<event>
 6    1  0.1284012E-001  0.3000000E+03  0.7818608E-02  0.1093470E+00
         21   -1    0    0  501  502  0.00000000000E+00  0.00000000000E+00  0.95894549492E+00  0.95894549492E+00  0.00000000000E+00 0. -1.
         13   -1    0    0    0    0 -0.00000000000E+00 -0.00000000000E+00 -0.10000000000E+04  0.10000000000E+04  0.00000000000E+00 0.  1.
    9000005    2    1    2  501    0 -0.27942254526E+02 -0.13059602906E+02 -0.47908233203E+03  0.48008622026E+03  0.34022351307E+01 0.  0.
         13    1    3    3    0    0 -0.15617358817E+02 -0.55348319190E+01 -0.26478416228E+03  0.26530207096E+03  0.00000000000E+00 0.  1.
          3    1    3    3  501    0 -0.12324895709E+02 -0.75247709866E+01 -0.21429816974E+03  0.21478414929E+03  0.00000000000E+00 0.  1.
         -1    1    1    2    0  502  0.27942254526E+02  0.13059602906E+02 -0.51995872248E+03  0.52087272524E+03  0.00000000000E+00 0. -1.
<mgrwt>
<rscale>  1 0.30000000E+03</rscale>
<asrwt>0</asrwt>
<pdfrwt beam="1">  1       21 0.34870819E-02 0.30000000E+03</pdfrwt>
<pdfrwt beam="2">0</pdfrwt>
<totfact> 0.52943562E+04</totfact>
</mgrwt>
</event>
<event>
 6    1  0.1284012E-001  0.3000000E+03  0.7818608E-02  0.1093470E+00
         21   -1    0    0  501  502  0.00000000000E+00  0.00000000000E+00  0.15257301196E+01  0.15257301196E+01  0.00000000000E+00 0. -1.
         13   -1    0    0    0    0 -0.00000000000E+00 -0.00000000000E+00 -0.10000000000E+04  0.10000000000E+04  0.00000000000E+00 0.  1.
    9000005    2    1    2  501    0 -0.48899918988E+01 -0.36855371086E+02 -0.65093721588E+03  0.65200572454E+03  0.31583878520E+01 0.  0.
         13    1    3    3    0    0 -0.45675444173E+01 -0.22996104869E+02 -0.41361846148E+03  0.41428240969E+03  0.00000000000E+00 0.  1.
          1    1    3    3  501    0 -0.32244748145E+00 -0.13859266217E+02 -0.23731875440E+03  0.23772331485E+03  0.00000000000E+00 0.  1.
         -1    1    1    2    0  502  0.48899918988E+01  0.36855371086E+02 -0.34753705400E+03  0.34952000558E+03  0.00000000000E+00 0. -1.
<mgrwt>
<rscale>  1 0.30000000E+03</rscale>
<asrwt>0</asrwt>
<pdfrwt beam="1">  1       21 0.55481212E-02 0.30000000E+03</pdfrwt>
<pdfrwt beam="2">0</pdfrwt>
<totfact> 0.24111179E+04</totfact>
</mgrwt>
</event>
<event>
 6    1  0.1284012E-001  0.3000000E+03  0.7818608E-02  0.1093470E+00
         21   -1    0    0  501  502  0.00000000000E+00  0.00000000000E+00  0.11970041025E+01  0.11970041025E+01  0.00000000000E+00 0. -1.
         13   -1    0    0    0    0 -0.00000000000E+00 -0.00000000000E+00 -0.10000000000E+04  0.10000000000E+04  0.00000000000E+00 0.  1.
    9000005    2    1    2  501    0  0.15350466972E+02 -0.30581436968E+02 -0.43580160489E+03  0.43715673302E+03  0.34798389579E+01 0.  0.
         13    1    3    3    0    0  0.97249749058E+01 -0.21914264075E+02 -0.31832459102E+03  0.31922618212E+03  0.00000000000E+00 0.  1.
          1    1    3    3  501    0  0.56254920661E+01 -0.86671728936E+01 -0.11747701387E+03  0.11793055090E+03  0.00000000000E+00 0.  1.
         -1    1    1    2    0  502 -0.15350466972E+02  0.30581436968E+02 -0.56300139101E+03  0.56404027108E+03  0.00000000000E+00 0. -1.
<mgrwt>
<rscale>  1 0.30000000E+03</rscale>
<asrwt>0</asrwt>
<pdfrwt beam="1">  1       21 0.43527514E-02 0.30000000E+03</pdfrwt>
<pdfrwt beam="2">0</pdfrwt>
<totfact> 0.36456836E+04</totfact>
</mgrwt>
</event>
<event>
 6    1  0.1284012E-001  0.3000000E+03  0.7818608E-02  0.1093470E+00
         21   -1    0    0  501  502  0.00000000000E+00  0.00000000000E+00  0.18790578558E+01  0.18790578558E+01  0.00000000000E+00 0. -1.
         13   -1    0    0    0    0 -0.00000000000E+00 -0.00000000000E+00 -0.10000000000E+04  0.10000000000E+04  0.00000000000E+00 0.  1.
    9000005    2    1    2  501    0  0.37043861950E+01 -0.42321065124E+02 -0.59584508522E+03  0.59736619020E+03  0.31944623613E+01 0.  0.
         13    1    3    3    0    0  0.12074438445E+01 -0.10309416143E+02 -0.12759204312E+03  0.12801355963E+03  0.00000000000E+00 0.  1.
          3    1    3    3  501    0  0.24969423506E+01 -0.32011648981E+02 -0.46825304210E+03  0.46935263057E+03  0.00000000000E+00 0.  1.
         -3    1    1    2    0  502 -0.37043861950E+01  0.42321065124E+02 -0.40227585693E+03  0.40451286765E+03  0.00000000000E+00 0. -1.
<mgrwt>
<rscale>  1 0.30000000E+03</rscale>
<asrwt>0</asrwt>
<pdfrwt beam="1">  1       21 0.68329521E-02 0.30000000E+03</pdfrwt>
<pdfrwt beam="2">0</pdfrwt>
<totfact> 0.16827319E+04</totfact>
</mgrwt>
</event>
<event>
 6    1  0.1284012E-001  0.3000000E+03  0.7818608E-02  0.1093470E+00
         21   -1    0    0  501  502  0.00000000000E+00  0.00000000000E+00  0.11568942012E+01  0.11568942012E+01  0.00000000000E+00 0. -1.
         13   -1    0    0    0    0 -0.00000000000E+00 -0.00000000000E+00 -0.10000000000E+04  0.10000000000E+04  0.00000000000E+00 0.  1.
    9000005    2    1    2  501    0 -0.91664499263E+01 -0.31474164198E+02 -0.62979123786E+03  0.63065193061E+03  0.31949149117E+01 0.  0.
         13    1    3    3    0    0 -0.35114242494E+01 -0.79063186438E+01 -0.18130567732E+03  0.18151195168E+03  0.00000000000E+00 0.  1.
          3    1    3    3  501    0 -0.56550256769E+01 -0.23567845554E+02 -0.44848556054E+03  0.44913997893E+03  0.00000000000E+00 0.  1.
         -1    1    1    2    0  502  0.91664499263E+01  0.31474164198E+02 -0.36905186794E+03  0.37050496359E+03  0.00000000000E+00 0. -1.
<mgrwt>
<rscale>  1 0.30000000E+03</rscale>
<asrwt>0</asrwt>
<pdfrwt beam="1">  1       21 0.42068969E-02 0.30000000E+03</pdfrwt>
<pdfrwt beam="2">0</pdfrwt>
<totfact> 0.38619303E+04</totfact>
</mgrwt>
</event>
<event>
 6    1  0.1284012E-001  0.3000000E+03  0.7818608E-02  0.1093470E+00
         21   -1    0    0  501  502  0.00000000000E+00  0.00000000000E+00  0.60228258637E+01  0.60228258637E+01  0.00000000000E+00 0. -1.
         13   -1    0    0    0    0 -0.00000000000E+00 -0.00000000000E+00 -0.10000000000E+04  0.10000000000E+04  0.00000000000E+00 0.  1.
    9000005    2    1    2  501    0  0.77473172822E+02 -0.98499736182E+00 -0.47473235346E+03  0.48102925778E+03  0.39085412448E+01 0.  0.
         13    1    3    3    0    0  0.16522826208E+02  0.75101501852E+00 -0.93573506100E+02  0.95024043554E+02  0.00000000000E+00 0.  1.
          3    1    3    3  501    0  0.60950346614E+02 -0.17360123803E+01 -0.38115884736E+03  0.38600521423E+03  0.00000000000E+00 0.  1.
         -3    1    1    2    0  502 -0.77473172822E+02  0.98499736182E+00 -0.51924482068E+03  0.52499356808E+03  0.00000000000E+00 0. -1.
<mgrwt>
<rscale>  1 0.30000000E+03</rscale>
<asrwt>0</asrwt>
<pdfrwt beam="1">  1       21 0.21901231E-01 0.30000000E+03</pdfrwt>
<pdfrwt beam="2">0</pdfrwt>
<totfact> 0.20159791E+03</totfact>
</mgrwt>
</event>
<event>
 6    1  0.1284012E-001  0.3000000E+03  0.7818608E-02  0.1093470E+00
         21   -1    0    0  501  502  0.00000000000E+00  0.00000000000E+00  0.50898092132E+01  0.50898092132E+01  0.00000000000E+00 0. -1.
         13   -1    0    0    0    0 -0.00000000000E+00 -0.00000000000E+00 -0.10000000000E+04  0.10000000000E+04  0.00000000000E+00 0.  1.
    9000005    2    1    2  501    0 -0.13844373402E+02 -0.34798924775E+02 -0.92513859576E+03  0.92590201146E+03  0.32375330044E+01 0.  0.
         13    1    3    3    0    0 -0.11019310191E+02 -0.24819273874E+02 -0.64456550248E+03  0.64513727884E+03  0.00000000000E+00 0.  1.
          1    1    3    3  501    0 -0.28250632106E+01 -0.99796509011E+01 -0.28057309328E+03  0.28076473263E+03  0.00000000000E+00 0.  1.
         -1    1    1    2    0  502  0.13844373402E+02  0.34798924775E+02 -0.69771595022E+02  0.79187797749E+02  0.00000000000E+00 0. -1.
<mgrwt>
<rscale>  1 0.30000000E+03</rscale>
<asrwt>0</asrwt>
<pdfrwt beam="1">  1       21 0.18508436E-01 0.30000000E+03</pdfrwt>
<pdfrwt beam="2">0</pdfrwt>
<totfact> 0.27795985E+03</totfact>
</mgrwt>
</event>
<event>
 6    1  0.1284012E-001  0.3000000E+03  0.7818608E-02  0.1093470E+00
         21   -1    0    0  501  502  0.00000000000E+00  0.00000000000E+00  0.18901025602E+01  0.18901025602E+01  0.00000000000E+00 0. -1.
         13   -1    0    0    0    0 -0.00000000000E+00 -0.00000000000E+00 -0.10000000000E+04  0.10000000000E+04  0.00000000000E+00 0.  1.
    9000005    2    1    2  501    0 -0.16530151020E+02 -0.33580769413E+02 -0.24654087508E+03  0.24938966446E+03  0.34478526834E+01 0.  0.
         13    1    3    3    0    0 -0.21976954980E+01 -0.47033865921E+01 -0.42850192663E+02  0.43163534635E+02  0.00000000000E+00 0.  1.
          1    1    3    3  501    0 -0.14332455522E+02 -0.28877382821E+02 -0.20369068242E+03  0.20622612983E+03  0.00000000000E+00 0.  1.
         -1    1    1    2    0  502  0.16530151020E+02  0.33580769413E+02 -0.75156902236E+03  0.75250043810E+03  0.00000000000E+00 0. -1.
<mgrwt>
<rscale>  1 0.30000000E+03</rscale>
<asrwt>0</asrwt>
<pdfrwt beam="1">  1       21 0.68731147E-02 0.30000000E+03</pdfrwt>
<pdfrwt beam="2">0</pdfrwt>
<totfact> 0.16656843E+04</totfact>
</mgrwt>
</event>
<event>
 6    1  0.1284012E-001  0.3000000E+03  0.7818608E-02  0.1093470E+00
         21   -1    0    0  501  502  0.00000000000E+00  0.00000000000E+00  0.15712271654E+01  0.15712271654E+01  0.00000000000E+00 0. -1.
         13   -1    0    0    0    0 -0.00000000000E+00 -0.00000000000E+00 -0.10000000000E+04  0.10000000000E+04  0.00000000000E+00 0.  1.
    9000005    2    1    2  501    0 -0.87848416607E+01 -0.37565528474E+02 -0.61096858582E+03  0.61219513790E+03  0.34542196370E+01 0.  0.
         13    1    3    3    0    0 -0.30946048614E+01 -0.12299057744E+02 -0.22709070814E+03  0.22744457154E+03  0.00000000000E+00 0.  1.
          3    1    3    3  501    0 -0.56902367993E+01 -0.25266470730E+02 -0.38387787769E+03  0.38475056636E+03  0.00000000000E+00 0.  1.
         -1    1    1    2    0  502  0.87848416607E+01  0.37565528474E+02 -0.38746018701E+03  0.38937608926E+03  0.00000000000E+00 0. -1.
<mgrwt>
<rscale>  1 0.30000000E+03</rscale>
<asrwt>0</asrwt>
<pdfrwt beam="1">  1       21 0.57135654E-02 0.30000000E+03</pdfrwt>
<pdfrwt beam="2">0</pdfrwt>
<totfact> 0.22924357E+04</totfact>
</mgrwt>
</event>
<event>
 6    1  0.1284012E-001  0.3000000E+03  0.7818608E-02  0.1093470E+00
         21   -1    0    0  501  502  0.00000000000E+00  0.00000000000E+00  0.48625036726E+01  0.48625036726E+01  0.00000000000E+00 0. -1.
         13   -1    0    0    0    0 -0.00000000000E+00 -0.00000000000E+00 -0.10000000000E+04  0.10000000000E+04  0.00000000000E+00 0.  1.
    9000005    2    1    2  501    0 -0.23523389648E+02  0.21203498004E+02 -0.94515443191E+03  0.94569118531E+03  0.34611596729E+01 0.  0.
         13    1    3    3    0    0 -0.12058266811E+02  0.98101290229E+01 -0.50919087317E+03  0.50942809674E+03  0.00000000000E+00 0.  1.
          3    1    3    3  501    0 -0.11465122837E+02  0.11393368981E+02 -0.43596355875E+03  0.43626308857E+03  0.00000000000E+00 0.  1.
         -3    1    1    2    0  502  0.23523389648E+02 -0.21203498004E+02 -0.49983064416E+02  0.59171318361E+02  0.00000000000E+00 0. -1.
<mgrwt>
<rscale>  1 0.30000000E+03</rscale>
<asrwt>0</asrwt>
<pdfrwt beam="1">  1       21 0.17681869E-01 0.30000000E+03</pdfrwt>
<pdfrwt beam="2">0</pdfrwt>
<totfact> 0.30295170E+03</totfact>
</mgrwt>
</event>
<event>
 6    1  0.1284012E-001  0.3000000E+03  0.7818608E-02  0.1093470E+00
         21   -1    0    0  501  502  0.00000000000E+00  0.00000000000E+00  0.13245228158E+01  0.13245228158E+01  0.00000000000E+00 0. -1.
         13   -1    0    0    0    0 -0.00000000000E+00 -0.00000000000E+00 -0.10000000000E+04  0.10000000000E+04  0.00000000000E+00 0.  1.
    9000005    2    1    2  501    0  0.96229512149E+00 -0.35294882884E+02 -0.61274924787E+03  0.61378651275E+03  0.50584290235E+01 0.  0.
         13    1    3    3    0    0  0.30663092745E+00 -0.74343417361E+00 -0.59609825661E+01  0.60149837946E+01  0.00000000000E+00 0.  1.
          1    1    3    3  501    0  0.65566419403E+00 -0.34551448710E+02 -0.60678826530E+03  0.60777152896E+03  0.00000000000E+00 0.  1.
         -3    1    1    2    0  502 -0.96229512149E+00  0.35294882884E+02 -0.38592622932E+03  0.38753801006E+03  0.00000000000E+00 0. -1.
<mgrwt>
<rscale>  1 0.30000000E+03</rscale>
<asrwt>0</asrwt>
<pdfrwt beam="1">  1       21 0.48164568E-02 0.30000000E+03</pdfrwt>
<pdfrwt beam="2">0</pdfrwt>
<totfact> 0.30699217E+04</totfact>
</mgrwt>
</event>
<event>
 6    1  0.1284012E-001  0.3000000E+03  0.7818608E-02  0.1093470E+00
         21   -1    0    0  501  502  0.00000000000E+00  0.00000000000E+00  0.42346570908E+01  0.42346570908E+01  0.00000000000E+00 0. -1.
         13   -1    0    0    0    0 -0.00000000000E+00 -0.00000000000E+00 -0.10000000000E+04  0.10000000000E+04  0.00000000000E+00 0.  1.
    9000005    2    1    2  501    0  0.32727034071E+02  0.53367362609E+02 -0.63369884530E+03  0.63679584199E+03  0.39476184661E+01 0.  0.
         13    1    3    3    0    0  0.31823236507E+02  0.51414214893E+02 -0.61781194679E+03  0.62076383712E+03  0.00000000000E+00 0.  1.
          3    1    3    3  501    0  0.90379756368E+00  0.19531477158E+01 -0.15886898509E+02  0.16032004874E+02  0.00000000000E+00 0.  1.
         -1    1    1    2    0  502 -0.32727034071E+02 -0.53367362609E+02 -0.36206649761E+03  0.36743881510E+03  0.00000000000E+00 0. -1.
<mgrwt>
<rscale>  1 0.30000000E+03</rscale>
<asrwt>0</asrwt>
<pdfrwt beam="1">  1       21 0.15398786E-01 0.30000000E+03</pdfrwt>
<pdfrwt beam="2">0</pdfrwt>
<totfact> 0.39225157E+03</totfact>
</mgrwt>
</event>
<event>
 6    1  0.1284012E-001  0.3000000E+03  0.7818608E-02  0.1093470E+00
         21   -1    0    0  501  502  0.00000000000E+00  0.00000000000E+00  0.11609417957E+01  0.11609417957E+01  0.00000000000E+00 0. -1.
         13   -1    0    0    0    0 -0.00000000000E+00 -0.00000000000E+00 -0.10000000000E+04  0.10000000000E+04  0.00000000000E+00 0.  1.
    9000005    2    1    2  501    0  0.16883274063E+02  0.27637223464E+02 -0.65314208551E+03  0.65395025936E+03  0.27380276888E+01 0.  0.
         13    1    3    3    0    0  0.15596879041E+02  0.26165333932E+02 -0.62363657044E+03  0.62438006000E+03  0.00000000000E+00 0.  1.
          1    1    3    3  501    0  0.12863950217E+01  0.14718895312E+01 -0.29505515066E+02  0.29570199361E+02  0.00000000000E+00 0.  1.
         -3    1    1    2    0  502 -0.16883274063E+02 -0.27637223464E+02 -0.34569697270E+03  0.34721068243E+03  0.00000000000E+00 0. -1.
<mgrwt>
<rscale>  1 0.30000000E+03</rscale>
<asrwt>0</asrwt>
<pdfrwt beam="1">  1       21 0.42216154E-02 0.30000000E+03</pdfrwt>
<pdfrwt beam="2">0</pdfrwt>
<totfact> 0.38392162E+04</totfact>
</mgrwt>
</event>
<event>
 6    1  0.1284012E-001  0.3000000E+03  0.7818608E-02  0.1093470E+00
         21   -1    0    0  501  502  0.00000000000E+00  0.00000000000E+00  0.71161206973E+01  0.71161206973E+01  0.00000000000E+00 0. -1.
         13   -1    0    0    0    0 -0.00000000000E+00 -0.00000000000E+00 -0.10000000000E+04  0.10000000000E+04  0.00000000000E+00 0.  1.
    9000005    2    1    2  501    0  0.31757256797E+02 -0.42681619062E+01 -0.96223813979E+03  0.96277762821E+03  0.34326606343E+01 0.  0.
         13    1    3    3    0    0  0.11880535367E+02 -0.14537659369E+01 -0.41023371485E+03  0.41040828617E+03  0.00000000000E+00 0.  1.
          3    1    3    3  501    0  0.19876721430E+02 -0.28143959692E+01 -0.55200442494E+03  0.55236934205E+03  0.00000000000E+00 0.  1.
         -1    1    1    2    0  502 -0.31757256797E+02  0.42681619062E+01 -0.30645739513E+02  0.44338492482E+02  0.00000000000E+00 0. -1.
<mgrwt>
<rscale>  1 0.30000000E+03</rscale>
<asrwt>0</asrwt>
<pdfrwt beam="1">  1       21 0.25876857E-01 0.30000000E+03</pdfrwt>
<pdfrwt beam="2">0</pdfrwt>
<totfact> 0.14575684E+03</totfact>
</mgrwt>
</event>
<event>
 6    1  0.1284012E-001  0.3000000E+03  0.7818608E-02  0.1093470E+00
         21   -1    0    0  501  502  0.00000000000E+00  0.00000000000E+00  0.21138978347E+01  0.21138978347E+01  0.00000000000E+00 0. -1.
         13   -1    0    0    0    0 -0.00000000000E+00 -0.00000000000E+00 -0.10000000000E+04  0.10000000000E+04  0.00000000000E+00 0.  1.
    9000005    2    1    2  501    0 -0.18859215938E+02  0.32622272243E+02 -0.78548786450E+03  0.78639905357E+03  0.35218616950E+01 0.  0.
         13    1    3    3    0    0 -0.16779989228E+01  0.34746597320E+01 -0.10443705570E+03  0.10450831328E+03  0.00000000000E+00 0.  1.
          1    1    3    3  501    0 -0.17181217015E+02  0.29147612511E+02 -0.68105080880E+03  0.68189074029E+03  0.00000000000E+00 0.  1.
         -3    1    1    2    0  502  0.18859215938E+02 -0.32622272243E+02 -0.21239823767E+03  0.21571484427E+03  0.00000000000E+00 0. -1.
<mgrwt>
<rscale>  1 0.30000000E+03</rscale>
<asrwt>0</asrwt>
<pdfrwt beam="1">  1       21 0.76869174E-02 0.30000000E+03</pdfrwt>
<pdfrwt beam="2">0</pdfrwt>
<totfact> 0.13700706E+04</totfact>
</mgrwt>
</event>
<event>
 6    1  0.1284012E-001  0.3000000E+03  0.7818608E-02  0.1093470E+00
         21   -1    0    0  501  502  0.00000000000E+00  0.00000000000E+00  0.12945328885E+01  0.12945328885E+01  0.00000000000E+00 0. -1.
         13   -1    0    0    0    0 -0.00000000000E+00 -0.00000000000E+00 -0.10000000000E+04  0.10000000000E+04  0.00000000000E+00 0.  1.
    9000005    2    1    2  501    0  0.33977698719E+02 -0.11585021593E+02 -0.48824341403E+03  0.48957175211E+03  0.31894170226E+01 0.  0.
         13    1    3    3    0    0  0.25051784668E+02 -0.83947651374E+01 -0.33940894913E+03  0.34043574834E+03  0.00000000000E+00 0.  1.
          1    1    3    3  501    0  0.89259140518E+01 -0.31902564559E+01 -0.14883446491E+03  0.14913600377E+03  0.00000000000E+00 0.  1.
         -3    1    1    2    0  502 -0.33977698719E+02  0.11585021593E+02 -0.51046205308E+03  0.51172278078E+03  0.00000000000E+00 0. -1.
<mgrwt>
<rscale>  1 0.30000000E+03</rscale>
<asrwt>0</asrwt>
<pdfrwt beam="1">  1       21 0.47074022E-02 0.30000000E+03</pdfrwt>
<pdfrwt beam="2">0</pdfrwt>
<totfact> 0.31918812E+04</totfact>
</mgrwt>
</event>
<event>
 6    1  0.1284012E-001  0.3000000E+03  0.7818608E-02  0.1093470E+00
         21   -1    0    0  501  502  0.00000000000E+00  0.00000000000E+00  0.10803837290E+01  0.10803837290E+01  0.00000000000E+00 0. -1.
         13   -1    0    0    0    0 -0.00000000000E+00 -0.00000000000E+00 -0.10000000000E+04  0.10000000000E+04  0.00000000000E+00 0.  1.
    9000005    2    1    2  501    0 -0.13696892171E+02  0.28556073151E+02 -0.62948246285E+03  0.63028817171E+03  0.34574828978E+01 0.  0.
         13    1    3    3    0    0 -0.12995473601E+02  0.25687306678E+02 -0.58489897836E+03  0.58560697994E+03  0.00000000000E+00 0.  1.
          1    1    3    3  501    0 -0.70141856989E+00  0.28687664728E+01 -0.44583484486E+02  0.44681191770E+02  0.00000000000E+00 0.  1.
         -1    1    1    2    0  502  0.13696892171E+02 -0.28556073151E+02 -0.36943715342E+03  0.37079221202E+03  0.00000000000E+00 0. -1.
<mgrwt>
<rscale>  1 0.30000000E+03</rscale>
<asrwt>0</asrwt>
<pdfrwt beam="1">  1       21 0.39286764E-02 0.30000000E+03</pdfrwt>
<pdfrwt beam="2">0</pdfrwt>
<totfact> 0.43340220E+04</totfact>
</mgrwt>
</event>
<event>
 6    1  0.1284012E-001  0.3000000E+03  0.7818608E-02  0.1093470E+00
         21   -1    0    0  501  502  0.00000000000E+00  0.00000000000E+00  0.20549402132E+01  0.20549402132E+01  0.00000000000E+00 0. -1.
         13   -1    0    0    0    0 -0.00000000000E+00 -0.00000000000E+00 -0.10000000000E+04  0.10000000000E+04  0.00000000000E+00 0.  1.
    9000005    2    1    2  501    0  0.31479120939E+02 -0.28453492957E+02 -0.67415649468E+03  0.67549779176E+03  0.31226635045E+01 0.  0.
         13    1    3    3    0    0  0.30260758786E+02 -0.26503541901E+02 -0.63248151014E+03  0.63375942749E+03  0.00000000000E+00 0.  1.
          3    1    3    3  501    0  0.12183621525E+01 -0.19499510557E+01 -0.41674984541E+02  0.41738364270E+02  0.00000000000E+00 0.  1.
         -3    1    1    2    0  502 -0.31479120939E+02  0.28453492957E+02 -0.32378856510E+03  0.32655714846E+03  0.00000000000E+00 0. -1.
<mgrwt>
<rscale>  1 0.30000000E+03</rscale>
<asrwt>0</asrwt>
<pdfrwt beam="1">  1       21 0.74725256E-02 0.30000000E+03</pdfrwt>
<pdfrwt beam="2">0</pdfrwt>
<totfact> 0.14396667E+04</totfact>
</mgrwt>
</event>
<event>
 6    1  0.1284012E-001  0.3000000E+03  0.7818608E-02  0.1093470E+00
         21   -1    0    0  501  502  0.00000000000E+00  0.00000000000E+00  0.91568647008E+00  0.91568647008E+00  0.00000000000E+00 0. -1.
         13   -1    0    0    0    0 -0.00000000000E+00 -0.00000000000E+00 -0.10000000000E+04  0.10000000000E+04  0.00000000000E+00 0.  1.
    9000005    2    1    2  501    0 -0.22068851726E+02  0.20567309984E+02 -0.48616927880E+03  0.48711428388E+03  0.31159990208E+01 0.  0.
         13    1    3    3    0    0 -0.64422548940E+01  0.44766296611E+01 -0.13896580572E+03  0.13918706126E+03  0.00000000000E+00 0.  1.
          3    1    3    3  501    0 -0.15626596832E+02  0.16090680323E+02 -0.34720347308E+03  0.34792722262E+03  0.00000000000E+00 0.  1.
         -3    1    1    2    0  502  0.22068851726E+02 -0.20567309984E+02 -0.51291503473E+03  0.51380140259E+03  0.00000000000E+00 0. -1.
<mgrwt>
<rscale>  1 0.30000000E+03</rscale>
<asrwt>0</asrwt>
<pdfrwt beam="1">  1       21 0.33297760E-02 0.30000000E+03</pdfrwt>
<pdfrwt beam="2">0</pdfrwt>
<totfact> 0.57189953E+04</totfact>
</mgrwt>
</event>
<event>
 6    1  0.1284012E-001  0.3000000E+03  0.7818608E-02  0.1093470E+00
         21   -1    0    0  501  502  0.00000000000E+00  0.00000000000E+00  0.22187186218E+01  0.22187186218E+01  0.00000000000E+00 0. -1.
         13   -1    0    0    0    0 -0.00000000000E+00 -0.00000000000E+00 -0.10000000000E+04  0.10000000000E+04  0.00000000000E+00 0.  1.
    9000005    2    1    2  501    0  0.20804760148E+01  0.42603375719E+02 -0.71103431846E+03  0.71231667181E+03  0.24213439808E+01 0.  0.
         13    1    3    3    0    0  0.57200854041E+00  0.30002596318E+02 -0.51045746460E+03  0.51133873914E+03  0.00000000000E+00 0.  1.
          1    1    3    3  501    0  0.15084674743E+01  0.12600779401E+02 -0.20057685386E+03  0.20097793267E+03  0.00000000000E+00 0.  1.
         -3    1    1    2    0  502 -0.20804760148E+01 -0.42603375719E+02 -0.28674696292E+03  0.28990204681E+03  0.00000000000E+00 0. -1.
<mgrwt>
<rscale>  1 0.30000000E+03</rscale>
<asrwt>0</asrwt>
<pdfrwt beam="1">  1       21 0.80680847E-02 0.30000000E+03</pdfrwt>
<pdfrwt beam="2">0</pdfrwt>
<totfact> 0.12585089E+04</totfact>
</mgrwt>
</event>
<event>
 6    1  0.1284012E-001  0.3000000E+03  0.7818608E-02  0.1093470E+00
         21   -1    0    0  501  502  0.00000000000E+00  0.00000000000E+00  0.13836959746E+01  0.13836959746E+01  0.00000000000E+00 0. -1.
         13   -1    0    0    0    0 -0.00000000000E+00 -0.00000000000E+00 -0.10000000000E+04  0.10000000000E+04  0.00000000000E+00 0.  1.
    9000005    2    1    2  501    0 -0.88712095443E+01 -0.31445629432E+02 -0.73766625616E+03  0.73839614219E+03  0.31354971184E+01 0.  0.
         13    1    3    3    0    0 -0.72289165264E+01 -0.27381988029E+02 -0.61524852299E+03  0.61589997202E+03  0.00000000000E+00 0.  1.
          1    1    3    3  501    0 -0.16422930179E+01 -0.40636414027E+01 -0.12241773318E+03  0.12249617016E+03  0.00000000000E+00 0.  1.
         -3    1    1    2    0  502  0.88712095443E+01  0.31445629432E+02 -0.26095004786E+03  0.26298755379E+03  0.00000000000E+00 0. -1.
<mgrwt>
<rscale>  1 0.30000000E+03</rscale>
<asrwt>0</asrwt>
<pdfrwt beam="1">  1       21 0.50316323E-02 0.30000000E+03</pdfrwt>
<pdfrwt beam="2">0</pdfrwt>
<totfact> 0.28496590E+04</totfact>
</mgrwt>
</event>
<event>
 6    1  0.1284012E-001  0.3000000E+03  0.7818608E-02  0.1093470E+00
         21   -1    0    0  501  502  0.00000000000E+00  0.00000000000E+00  0.23839618483E+01  0.23839618483E+01  0.00000000000E+00 0. -1.
         13   -1    0    0    0    0 -0.00000000000E+00 -0.00000000000E+00 -0.10000000000E+04  0.10000000000E+04  0.00000000000E+00 0.  1.
    9000005    2    1    2  501    0  0.30262938065E+02  0.24168464792E+02 -0.80295214775E+03  0.80390476813E+03  0.55465794244E+01 0.  0.
         13    1    3    3    0    0  0.13968116930E+02  0.12404797551E+02 -0.33377753815E+03  0.33429991365E+03  0.00000000000E+00 0.  1.
          1    1    3    3  501    0  0.16294821135E+02  0.11763667241E+02 -0.46917460960E+03  0.46960485449E+03  0.00000000000E+00 0.  1.
         -1    1    1    2    0  502 -0.30262938065E+02 -0.24168464792E+02 -0.19466389040E+03  0.19847919372E+03  0.00000000000E+00 0. -1.
<mgrwt>
<rscale>  1 0.30000000E+03</rscale>
<asrwt>0</asrwt>
<pdfrwt beam="1">  1       21 0.86689705E-02 0.30000000E+03</pdfrwt>
<pdfrwt beam="2">0</pdfrwt>
<totfact> 0.11089299E+04</totfact>
</mgrwt>
</event>
<event>
 6    1  0.1284012E-001  0.3000000E+03  0.7818608E-02  0.1093470E+00
         21   -1    0    0  501  502  0.00000000000E+00  0.00000000000E+00  0.14728102834E+01  0.14728102834E+01  0.00000000000E+00 0. -1.
         13   -1    0    0    0    0 -0.00000000000E+00 -0.00000000000E+00 -0.10000000000E+04  0.10000000000E+04  0.00000000000E+00 0.  1.
    9000005    2    1    2  501    0 -0.10998662160E+02 -0.36045864087E+02 -0.59113181570E+03  0.59233803339E+03  0.26920976523E+01 0.  0.
         13    1    3    3    0    0 -0.73513229338E+01 -0.19505196347E+02 -0.32599885638E+03  0.32666458179E+03  0.00000000000E+00 0.  1.
          3    1    3    3  501    0 -0.36473392265E+01 -0.16540667740E+02 -0.26513295931E+03  0.26567345160E+03  0.00000000000E+00 0.  1.
         -1    1    1    2    0  502  0.10998662160E+02  0.36045864087E+02 -0.40739537402E+03  0.40913477689E+03  0.00000000000E+00 0. -1.
<mgrwt>
<rscale>  1 0.30000000E+03</rscale>
<asrwt>0</asrwt>
<pdfrwt beam="1">  1       21 0.53556851E-02 0.30000000E+03</pdfrwt>
<pdfrwt beam="2">0</pdfrwt>
<totfact> 0.25614703E+04</totfact>
</mgrwt>
</event>
<event>
 6    1  0.1284012E-001  0.3000000E+03  0.7818608E-02  0.1093470E+00
         21   -1    0    0  501  502  0.00000000000E+00  0.00000000000E+00  0.85177329253E+01  0.85177329253E+01  0.00000000000E+00 0. -1.
         13   -1    0    0    0    0 -0.00000000000E+00 -0.00000000000E+00 -0.10000000000E+04  0.10000000000E+04  0.00000000000E+00 0.  1.
    9000005    2    1    2  501    0 -0.83337283398E+02  0.29949469747E+02 -0.63760490699E+03  0.64372839712E+03  0.20391882255E+01 0.  0.
         13    1    3    3    0    0 -0.63554010843E+02  0.23494485543E+02 -0.49215767164E+03  0.49680003714E+03  0.00000000000E+00 0.  1.
          1    1    3    3  501    0 -0.19783272555E+02  0.64549842043E+01 -0.14544723536E+03  0.14692835998E+03  0.00000000000E+00 0.  1.
         -1    1    1    2    0  502  0.83337283398E+02 -0.29949469747E+02 -0.35387736008E+03  0.36478933581E+03  0.00000000000E+00 0. -1.
<mgrwt>
<rscale>  1 0.30000000E+03</rscale>
<asrwt>0</asrwt>
<pdfrwt beam="1">  1       21 0.30973640E-01 0.30000000E+03</pdfrwt>
<pdfrwt beam="2">0</pdfrwt>
<totfact> 0.10198268E+03</totfact>
</mgrwt>
</event>
<event>
 6    1  0.1284012E-001  0.3000000E+03  0.7818608E-02  0.1093470E+00
         21   -1    0    0  501  502  0.00000000000E+00  0.00000000000E+00  0.33934694621E+01  0.33934694621E+01  0.00000000000E+00 0. -1.
         13   -1    0    0    0    0 -0.00000000000E+00 -0.00000000000E+00 -0.10000000000E+04  0.10000000000E+04  0.00000000000E+00 0.  1.
    9000005    2    1    2  501    0 -0.48588290262E+02 -0.16636958474E+02 -0.73470668360E+03  0.73650559008E+03  0.29938180929E+01 0.  0.
         13    1    3    3    0    0 -0.12210321179E+02 -0.55074088126E+01 -0.18583705332E+03  0.18631917207E+03  0.00000000000E+00 0.  1.
          1    1    3    3  501    0 -0.36377969083E+02 -0.11129549661E+02 -0.54886963028E+03  0.55018641801E+03  0.00000000000E+00 0.  1.
         -3    1    1    2    0  502  0.48588290262E+02  0.16636958474E+02 -0.26189984694E+03  0.26688787939E+03  0.00000000000E+00 0. -1.
<mgrwt>
<rscale>  1 0.30000000E+03</rscale>
<asrwt>0</asrwt>
<pdfrwt beam="1">  1       21 0.12339915E-01 0.30000000E+03</pdfrwt>
<pdfrwt beam="2">0</pdfrwt>
<totfact> 0.58903156E+03</totfact>
</mgrwt>
</event>
<event>
 6    1  0.1284012E-001  0.3000000E+03  0.7818608E-02  0.1093470E+00
         21   -1    0    0  501  502  0.00000000000E+00  0.00000000000E+00  0.24481010372E+01  0.24481010372E+01  0.00000000000E+00 0. -1.
         13   -1    0    0    0    0 -0.00000000000E+00 -0.00000000000E+00 -0.10000000000E+04  0.10000000000E+04  0.00000000000E+00 0.  1.
    9000005    2    1    2  501    0  0.21748213921E+02 -0.21257559856E+02 -0.89396080768E+03  0.89448522383E+03  0.36085092090E+01 0.  0.
         13    1    3    3    0    0  0.15478453983E+02 -0.15901390475E+02 -0.60521149938E+03  0.60561819303E+03  0.00000000000E+00 0.  1.
          3    1    3    3  501    0  0.62697599380E+01 -0.53561693808E+01 -0.28874930830E+03  0.28886703080E+03  0.00000000000E+00 0.  1.
         -1    1    1    2    0  502 -0.21748213921E+02  0.21257559856E+02 -0.10359109129E+03  0.10796287720E+03  0.00000000000E+00 0. -1.
<mgrwt>
<rscale>  1 0.30000000E+03</rscale>
<asrwt>0</asrwt>
<pdfrwt beam="1">  1       21 0.89022044E-02 0.30000000E+03</pdfrwt>
<pdfrwt beam="2">0</pdfrwt>
<totfact> 0.10580829E+04</totfact>
</mgrwt>
</event>
<event>
 6    1  0.1284012E-001  0.3000000E+03  0.7818608E-02  0.1093470E+00
         21   -1    0    0  501  502  0.00000000000E+00  0.00000000000E+00  0.20986765949E+01  0.20986765949E+01  0.00000000000E+00 0. -1.
         13   -1    0    0    0    0 -0.00000000000E+00 -0.00000000000E+00 -0.10000000000E+04  0.10000000000E+04  0.00000000000E+00 0.  1.
    9000005    2    1    2  501    0 -0.35999222980E+02  0.63615138398E+01 -0.80026354423E+03  0.80110836670E+03  0.40573468039E+01 0.  0.
         13    1    3    3    0    0 -0.13116331965E+02  0.29578946081E+01 -0.25495488811E+03  0.25530918957E+03  0.00000000000E+00 0.  1.
          1    1    3    3  501    0 -0.22882891016E+02  0.34036192317E+01 -0.54530865611E+03  0.54579917713E+03  0.00000000000E+00 0.  1.
         -1    1    1    2    0  502  0.35999222980E+02 -0.63615138398E+01 -0.19763777918E+03  0.20099030990E+03  0.00000000000E+00 0. -1.
<mgrwt>
<rscale>  1 0.30000000E+03</rscale>
<asrwt>0</asrwt>
<pdfrwt beam="1">  1       21 0.76315673E-02 0.30000000E+03</pdfrwt>
<pdfrwt beam="2">0</pdfrwt>
<totfact> 0.13875324E+04</totfact>
</mgrwt>
</event>
<event>
 6    1  0.1284012E-001  0.3000000E+03  0.7818608E-02  0.1093470E+00
         21   -1    0    0  501  502  0.00000000000E+00  0.00000000000E+00  0.34924046868E+01  0.34924046868E+01  0.00000000000E+00 0. -1.
         13   -1    0    0    0    0 -0.00000000000E+00 -0.00000000000E+00 -0.10000000000E+04  0.10000000000E+04  0.00000000000E+00 0.  1.
    9000005    2    1    2  501    0 -0.26146893034E+02 -0.44730858358E+02 -0.73922816191E+03  0.74104771231E+03  0.29877840213E+01 0.  0.
         13    1    3    3    0    0 -0.15738339415E+02 -0.29713600946E+02 -0.48228367918E+03  0.48345438318E+03  0.00000000000E+00 0.  1.
          3    1    3    3  501    0 -0.10408553619E+02 -0.15017257413E+02 -0.25694448273E+03  0.25759332913E+03  0.00000000000E+00 0.  1.
         -3    1    1    2    0  502  0.26146893034E+02  0.44730858358E+02 -0.25727943341E+03  0.26244469238E+03  0.00000000000E+00 0. -1.
<mgrwt>
<rscale>  1 0.30000000E+03</rscale>
<asrwt>0</asrwt>
<pdfrwt beam="1">  1       21 0.12699680E-01 0.30000000E+03</pdfrwt>
<pdfrwt beam="2">0</pdfrwt>
<totfact> 0.55899045E+03</totfact>
</mgrwt>
</event>
<event>
 6    1  0.1284012E-001  0.3000000E+03  0.7818608E-02  0.1093470E+00
         21   -1    0    0  501  502  0.00000000000E+00  0.00000000000E+00  0.14561929435E+01  0.14561929435E+01  0.00000000000E+00 0. -1.
         13   -1    0    0    0    0 -0.00000000000E+00 -0.00000000000E+00 -0.10000000000E+04  0.10000000000E+04  0.00000000000E+00 0.  1.
    9000005    2    1    2  501    0 -0.25550150729E+02  0.28174317096E+02 -0.52522224405E+03  0.52660894977E+03  0.34609222644E+01 0.  0.
         13    1    3    3    0    0 -0.19830174897E+01  0.25023246981E+01 -0.32770111368E+02  0.32925281872E+02  0.00000000000E+00 0.  1.
          3    1    3    3  501    0 -0.23567133239E+02  0.25671992398E+02 -0.49245213268E+03  0.49368366790E+03  0.00000000000E+00 0.  1.
         -3    1    1    2    0  502  0.25550150729E+02 -0.28174317096E+02 -0.47332156300E+03  0.47484724317E+03  0.00000000000E+00 0. -1.
<mgrwt>
<rscale>  1 0.30000000E+03</rscale>
<asrwt>0</asrwt>
<pdfrwt beam="1">  1       21 0.52952582E-02 0.30000000E+03</pdfrwt>
<pdfrwt beam="2">0</pdfrwt>
<totfact> 0.26116814E+04</totfact>
</mgrwt>
</event>
<event>
 6    1  0.1284012E-001  0.3000000E+03  0.7818608E-02  0.1093470E+00
         21   -1    0    0  501  502  0.00000000000E+00  0.00000000000E+00  0.11150077333E+01  0.11150077333E+01  0.00000000000E+00 0. -1.
         13   -1    0    0    0    0 -0.00000000000E+00 -0.00000000000E+00 -0.10000000000E+04  0.10000000000E+04  0.00000000000E+00 0.  1.
    9000005    2    1    2  501    0  0.11753787707E+02 -0.30448249277E+02 -0.57564745066E+03  0.57662088053E+03  0.75103259615E+01 0.  0.
         13    1    3    3    0    0 -0.34883828314E+00 -0.45592000397E+01 -0.11220003828E+03  0.11229317247E+03  0.00000000000E+00 0.  1.
          3    1    3    3  501    0  0.12102625990E+02 -0.25889049237E+02 -0.46344741238E+03  0.46432770805E+03  0.00000000000E+00 0.  1.
         -1    1    1    2    0  502 -0.11753787707E+02  0.30448249277E+02 -0.42323754161E+03  0.42449412721E+03  0.00000000000E+00 0. -1.
<mgrwt>
<rscale>  1 0.30000000E+03</rscale>
<asrwt>0</asrwt>
<pdfrwt beam="1">  1       21 0.40545821E-02 0.30000000E+03</pdfrwt>
<pdfrwt beam="2">0</pdfrwt>
<totfact> 0.41098172E+04</totfact>
</mgrwt>
</event>
<event>
 6    1  0.1284012E-001  0.3000000E+03  0.7818608E-02  0.1093470E+00
         21   -1    0    0  501  502  0.00000000000E+00  0.00000000000E+00  0.25672746105E+01  0.25672746105E+01  0.00000000000E+00 0. -1.
         13   -1    0    0    0    0 -0.00000000000E+00 -0.00000000000E+00 -0.10000000000E+04  0.10000000000E+04  0.00000000000E+00 0.  1.
    9000005    2    1    2  501    0 -0.40627295296E+02 -0.49847846766E+01 -0.79385644717E+03  0.79491678399E+03  0.30347247111E+01 0.  0.
         13    1    3    3    0    0 -0.33300154665E+02 -0.44189618199E+01 -0.67174474765E+03  0.67258414605E+03  0.00000000000E+00 0.  1.
          1    1    3    3  501    0 -0.73271406303E+01 -0.56582285672E+00 -0.12211169952E+03  0.12233263794E+03  0.00000000000E+00 0.  1.
         -3    1    1    2    0  502  0.40627295296E+02  0.49847846766E+01 -0.20357627822E+03  0.20765049062E+03  0.00000000000E+00 0. -1.
<mgrwt>
<rscale>  1 0.30000000E+03</rscale>
<asrwt>0</asrwt>
<pdfrwt beam="1">  1       21 0.93355637E-02 0.30000000E+03</pdfrwt>
<pdfrwt beam="2">0</pdfrwt>
<totfact> 0.97252815E+03</totfact>
</mgrwt>
</event>
<event>
 6    1  0.1284012E-001  0.3000000E+03  0.7818608E-02  0.1093470E+00
         21   -1    0    0  501  502  0.00000000000E+00  0.00000000000E+00  0.10554747806E+01  0.10554747806E+01  0.00000000000E+00 0. -1.
         13   -1    0    0    0    0 -0.00000000000E+00 -0.00000000000E+00 -0.10000000000E+04  0.10000000000E+04  0.00000000000E+00 0.  1.
    9000005    2    1    2  501    0 -0.21184158495E+02 -0.23721797488E+02 -0.59836609455E+03  0.59921648791E+03  0.26313562358E+01 0.  0.
         13    1    3    3    0    0 -0.14396520573E+02 -0.14261433838E+02 -0.38494474075E+03  0.38547775776E+03  0.00000000000E+00 0.  1.
          3    1    3    3  501    0 -0.67876379221E+01 -0.94603636505E+01 -0.21342135380E+03  0.21373873016E+03  0.00000000000E+00 0.  1.
         -3    1    1    2    0  502  0.21184158495E+02  0.23721797488E+02 -0.40057843067E+03  0.40183898687E+03  0.00000000000E+00 0. -1.
<mgrwt>
<rscale>  1 0.30000000E+03</rscale>
<asrwt>0</asrwt>
<pdfrwt beam="1">  1       21 0.38380982E-02 0.30000000E+03</pdfrwt>
<pdfrwt beam="2">0</pdfrwt>
<totfact> 0.45074074E+04</totfact>
</mgrwt>
</event>
<event>
 6    1  0.1284012E-001  0.3000000E+03  0.7818608E-02  0.1093470E+00
         21   -1    0    0  501  502  0.00000000000E+00  0.00000000000E+00  0.17848615792E+01  0.17848615792E+01  0.00000000000E+00 0. -1.
         13   -1    0    0    0    0 -0.00000000000E+00 -0.00000000000E+00 -0.10000000000E+04  0.10000000000E+04  0.00000000000E+00 0.  1.
    9000005    2    1    2  501    0 -0.53614819609E+00 -0.36869125441E+02 -0.74270986092E+03  0.74363264544E+03  0.34574548178E+01 0.  0.
         13    1    3    3    0    0  0.78330215474E+00 -0.12633781677E+02 -0.28186803859E+03  0.28215211710E+03  0.00000000000E+00 0.  1.
          1    1    3    3  501    0 -0.13194503508E+01 -0.24235343764E+02 -0.46084182232E+03  0.46148052834E+03  0.00000000000E+00 0.  1.
         -3    1    1    2    0  502  0.53614819609E+00  0.36869125441E+02 -0.25550527750E+03  0.25815221614E+03  0.00000000000E+00 0. -1.
<mgrwt>
<rscale>  1 0.30000000E+03</rscale>
<asrwt>0</asrwt>
<pdfrwt beam="1">  1       21 0.64904194E-02 0.30000000E+03</pdfrwt>
<pdfrwt beam="2">0</pdfrwt>
<totfact> 0.18396966E+04</totfact>
</mgrwt>
</event>
<event>
 6    1  0.1284012E-001  0.3000000E+03  0.7818608E-02  0.1093470E+00
         21   -1    0    0  501  502  0.00000000000E+00  0.00000000000E+00  0.55007364310E+01  0.55007364310E+01  0.00000000000E+00 0. -1.
         13   -1    0    0    0    0 -0.00000000000E+00 -0.00000000000E+00 -0.10000000000E+04  0.10000000000E+04  0.00000000000E+00 0.  1.
    9000005    2    1    2  501    0  0.18270015253E+02  0.50209106210E+02 -0.84582870305E+03  0.84752072703E+03  0.32311061965E+01 0.  0.
         13    1    3    3    0    0  0.79595304501E+01  0.17476942513E+02 -0.29758355737E+03  0.29820256750E+03  0.00000000000E+00 0.  1.
          1    1    3    3  501    0  0.10310484803E+02  0.32732163697E+02 -0.54824514568E+03  0.54931815954E+03  0.00000000000E+00 0.  1.
         -3    1    1    2    0  502 -0.18270015253E+02 -0.50209106210E+02 -0.14867056052E+03  0.15798000940E+03  0.00000000000E+00 0. -1.
<mgrwt>
<rscale>  1 0.30000000E+03</rscale>
<asrwt>0</asrwt>
<pdfrwt beam="1">  1       21 0.20002720E-01 0.30000000E+03</pdfrwt>
<pdfrwt beam="2">0</pdfrwt>
<totfact> 0.23985994E+03</totfact>
</mgrwt>
</event>
<event>
 6    1  0.1284012E-001  0.3000000E+03  0.7818608E-02  0.1093470E+00
         21   -1    0    0  501  502  0.00000000000E+00  0.00000000000E+00  0.39622000200E+01  0.39622000200E+01  0.00000000000E+00 0. -1.
         13   -1    0    0    0    0 -0.00000000000E+00 -0.00000000000E+00 -0.10000000000E+04  0.10000000000E+04  0.00000000000E+00 0.  1.
    9000005    2    1    2  501    0  0.30621253417E+02  0.71603612582E+00 -0.93653391090E+03  0.93703771508E+03  0.23956945188E+01 0.  0.
         13    1    3    3    0    0  0.11642171600E+02 -0.53371887931E+00 -0.33060824827E+03  0.33081360136E+03  0.00000000000E+00 0.  1.
          3    1    3    3  501    0  0.18979081817E+02  0.12497550051E+01 -0.60592566263E+03  0.60622411373E+03  0.00000000000E+00 0.  1.
         -1    1    1    2    0  502 -0.30621253417E+02 -0.71603612582E+00 -0.59503889079E+02  0.66924484937E+02  0.00000000000E+00 0. -1.
<mgrwt>
<rscale>  1 0.30000000E+03</rscale>
<asrwt>0</asrwt>
<pdfrwt beam="1">  1       21 0.14408030E-01 0.30000000E+03</pdfrwt>
<pdfrwt beam="2">0</pdfrwt>
<totfact> 0.44358980E+03</totfact>
</mgrwt>
</event>
<event>
 6    1  0.1284012E-001  0.3000000E+03  0.7818608E-02  0.1093470E+00
         21   -1    0    0  501  502  0.00000000000E+00  0.00000000000E+00  0.29394925334E+01  0.29394925334E+01  0.00000000000E+00 0. -1.
         13   -1    0    0    0    0 -0.00000000000E+00 -0.00000000000E+00 -0.10000000000E+04  0.10000000000E+04  0.00000000000E+00 0.  1.
    9000005    2    1    2  501    0  0.13758132133E+02  0.27226255441E+02 -0.91300318241E+03  0.91351807966E+03  0.31489020287E+01 0.  0.
         13    1    3    3    0    0  0.76225035460E+01  0.11933449436E+02 -0.40216139883E+03  0.40241061180E+03  0.00000000000E+00 0.  1.
          1    1    3    3  501    0  0.61356285870E+01  0.15292806005E+02 -0.51084178358E+03  0.51110746786E+03  0.00000000000E+00 0.  1.
         -3    1    1    2    0  502 -0.13758132133E+02 -0.27226255441E+02 -0.84057325052E+02  0.89421412872E+02  0.00000000000E+00 0. -1.
<mgrwt>
<rscale>  1 0.30000000E+03</rscale>
<asrwt>0</asrwt>
<pdfrwt beam="1">  1       21 0.10689086E-01 0.30000000E+03</pdfrwt>
<pdfrwt beam="2">0</pdfrwt>
<totfact> 0.76354668E+03</totfact>
</mgrwt>
</event>
<event>
 6    1  0.1284012E-001  0.3000000E+03  0.7818608E-02  0.1093470E+00
         21   -1    0    0  501  502  0.00000000000E+00  0.00000000000E+00  0.12268562929E+01  0.12268562929E+01  0.00000000000E+00 0. -1.
         13   -1    0    0    0    0 -0.00000000000E+00 -0.00000000000E+00 -0.10000000000E+04  0.10000000000E+04  0.00000000000E+00 0.  1.
    9000005    2    1    2  501    0  0.53697578641E+01 -0.32381919522E+02 -0.33069028477E+03  0.33233812906E+03  0.38916031925E+01 0.  0.
         13    1    3    3    0    0  0.30806937003E+01 -0.15797070207E+02 -0.18114569438E+03  0.18185928817E+03  0.00000000000E+00 0.  1.
          3    1    3    3  501    0  0.22890641638E+01 -0.16584849315E+02 -0.14954459039E+03  0.15047884089E+03  0.00000000000E+00 0.  1.
         -3    1    1    2    0  502 -0.53697578641E+01  0.32381919522E+02 -0.66808285894E+03  0.66888872723E+03  0.00000000000E+00 0. -1.
<mgrwt>
<rscale>  1 0.30000000E+03</rscale>
<asrwt>0</asrwt>
<pdfrwt beam="1">  1       21 0.44613050E-02 0.30000000E+03</pdfrwt>
<pdfrwt beam="2">0</pdfrwt>
<totfact> 0.34966701E+04</totfact>
</mgrwt>
</event>
<event>
 6    1  0.1284012E-001  0.3000000E+03  0.7818608E-02  0.1093470E+00
         21   -1    0    0  501  502  0.00000000000E+00  0.00000000000E+00  0.39025305939E+01  0.39025305939E+01  0.00000000000E+00 0. -1.
         13   -1    0    0    0    0 -0.00000000000E+00 -0.00000000000E+00 -0.10000000000E+04  0.10000000000E+04  0.00000000000E+00 0.  1.
    9000005    2    1    2  501    0 -0.21132994885E+01  0.44790642526E+02 -0.84738248911E+03  0.84857444860E+03  0.32930635524E+01 0.  0.
         13    1    3    3    0    0 -0.86646942887E+00  0.38424483408E+02 -0.71190781800E+03  0.71294455116E+03  0.00000000000E+00 0.  1.
          3    1    3    3  501    0 -0.12468300596E+01  0.63661591175E+01 -0.13547467111E+03  0.13562989744E+03  0.00000000000E+00 0.  1.
         -3    1    1    2    0  502  0.21132994885E+01 -0.44790642526E+02 -0.14871498030E+03  0.15532808200E+03  0.00000000000E+00 0. -1.
<mgrwt>
<rscale>  1 0.30000000E+03</rscale>
<asrwt>0</asrwt>
<pdfrwt beam="1">  1       21 0.14191050E-01 0.30000000E+03</pdfrwt>
<pdfrwt beam="2">0</pdfrwt>
<totfact> 0.45615753E+03</totfact>
</mgrwt>
</event>
<event>
 6    1  0.1284012E-001  0.3000000E+03  0.7818608E-02  0.1093470E+00
         21   -1    0    0  501  502  0.00000000000E+00  0.00000000000E+00  0.10609515586E+01  0.10609515586E+01  0.00000000000E+00 0. -1.
         13   -1    0    0    0    0 -0.00000000000E+00 -0.00000000000E+00 -0.10000000000E+04  0.10000000000E+04  0.00000000000E+00 0.  1.
    9000005    2    1    2  501    0  0.60513165503E+00 -0.32226427115E+02 -0.55923278183E+03  0.56017490088E+03  0.39631438981E+01 0.  0.
         13    1    3    3    0    0 -0.30432539297E-01 -0.75706001200E+01 -0.10461755364E+03  0.10489112184E+03  0.00000000000E+00 0.  1.
          1    1    3    3  501    0  0.63556419432E+00 -0.24655826995E+02 -0.45461522819E+03  0.45528377903E+03  0.00000000000E+00 0.  1.
         -3    1    1    2    0  502 -0.60513165503E+00  0.32226427115E+02 -0.43970626661E+03  0.44088605068E+03  0.00000000000E+00 0. -1.
<mgrwt>
<rscale>  1 0.30000000E+03</rscale>
<asrwt>0</asrwt>
<pdfrwt beam="1">  1       21 0.38580138E-02 0.30000000E+03</pdfrwt>
<pdfrwt beam="2">0</pdfrwt>
<totfact> 0.44683627E+04</totfact>
</mgrwt>
</event>
<event>
 6    1  0.1284012E-001  0.3000000E+03  0.7818608E-02  0.1093470E+00
         21   -1    0    0  501  502  0.00000000000E+00  0.00000000000E+00  0.22771061565E+01  0.22771061565E+01  0.00000000000E+00 0. -1.
         13   -1    0    0    0    0 -0.00000000000E+00 -0.00000000000E+00 -0.10000000000E+04  0.10000000000E+04  0.00000000000E+00 0.  1.
    9000005    2    1    2  501    0 -0.21565532220E+02 -0.39861123947E+02 -0.65445634438E+03  0.65603166523E+03  0.32338370726E+01 0.  0.
         13    1    3    3    0    0 -0.11146576254E+02 -0.21759019880E+02 -0.33094375066E+03  0.33184554722E+03  0.00000000000E+00 0.  1.
          3    1    3    3  501    0 -0.10418955966E+02 -0.18102104066E+02 -0.32351259372E+03  0.32418611801E+03  0.00000000000E+00 0.  1.
         -3    1    1    2    0  502  0.21565532220E+02  0.39861123947E+02 -0.34326654946E+03  0.34624544092E+03  0.00000000000E+00 0. -1.
<mgrwt>
<rscale>  1 0.30000000E+03</rscale>
<asrwt>0</asrwt>
<pdfrwt beam="1">  1       21 0.82804035E-02 0.30000000E+03</pdfrwt>
<pdfrwt beam="2">0</pdfrwt>
<totfact> 0.12023090E+04</totfact>
</mgrwt>
</event>
<event>
 6    1  0.1284012E-001  0.3000000E+03  0.7818608E-02  0.1093470E+00
         21   -1    0    0  501  502  0.00000000000E+00  0.00000000000E+00  0.43491245084E+01  0.43491245084E+01  0.00000000000E+00 0. -1.
         13   -1    0    0    0    0 -0.00000000000E+00 -0.00000000000E+00 -0.10000000000E+04  0.10000000000E+04  0.00000000000E+00 0.  1.
    9000005    2    1    2  501    0  0.59496293113E+02  0.27922302771E+02 -0.53616269786E+03  0.54018444547E+03  0.30549405752E+01 0.  0.
         13    1    3    3    0    0  0.13023075278E+02  0.51819767416E+01 -0.10686920756E+03  0.10778441861E+03  0.00000000000E+00 0.  1.
          1    1    3    3  501    0  0.46473217835E+02  0.22740326030E+02 -0.42929349030E+03  0.43240002685E+03  0.00000000000E+00 0.  1.
         -1    1    1    2    0  502 -0.59496293113E+02 -0.27922302771E+02 -0.45948817763E+03  0.46416467904E+03  0.00000000000E+00 0. -1.
<mgrwt>
<rscale>  1 0.30000000E+03</rscale>
<asrwt>0</asrwt>
<pdfrwt beam="1">  1       21 0.15815032E-01 0.30000000E+03</pdfrwt>
<pdfrwt beam="2">0</pdfrwt>
<totfact> 0.37326606E+03</totfact>
</mgrwt>
</event>
<event>
 6    1  0.1284012E-001  0.3000000E+03  0.7818608E-02  0.1093470E+00
         21   -1    0    0  501  502  0.00000000000E+00  0.00000000000E+00  0.23424243822E+01  0.23424243822E+01  0.00000000000E+00 0. -1.
         13   -1    0    0    0    0 -0.00000000000E+00 -0.00000000000E+00 -0.10000000000E+04  0.10000000000E+04  0.00000000000E+00 0.  1.
    9000005    2    1    2  501    0 -0.23149014289E+02 -0.22227805446E+02 -0.87380821793E+03  0.87440253382E+03  0.30061987081E+01 0.  0.
         13    1    3    3    0    0 -0.18495293728E-01 -0.30640069163E+00 -0.15233330380E+02  0.15236422740E+02  0.00000000000E+00 0.  1.
          3    1    3    3  501    0 -0.23130518996E+02 -0.21921404755E+02 -0.85857488755E+03  0.85916611108E+03  0.00000000000E+00 0.  1.
         -1    1    1    2    0  502  0.23149014289E+02  0.22227805446E+02 -0.12384935769E+03  0.12793989057E+03  0.00000000000E+00 0. -1.
<mgrwt>
<rscale>  1 0.30000000E+03</rscale>
<asrwt>0</asrwt>
<pdfrwt beam="1">  1       21 0.85179248E-02 0.30000000E+03</pdfrwt>
<pdfrwt beam="2">0</pdfrwt>
<totfact> 0.11438688E+04</totfact>
</mgrwt>
</event>
<event>
 6    1  0.1284012E-001  0.3000000E+03  0.7818608E-02  0.1093470E+00
         21   -1    0    0  501  502  0.00000000000E+00  0.00000000000E+00  0.10016039156E+01  0.10016039156E+01  0.00000000000E+00 0. -1.
         13   -1    0    0    0    0 -0.00000000000E+00 -0.00000000000E+00 -0.10000000000E+04  0.10000000000E+04  0.00000000000E+00 0.  1.
    9000005    2    1    2  501    0 -0.24001941670E+02  0.20351461526E+02 -0.54600132932E+03  0.54691282659E+03  0.24316838394E+01 0.  0.
         13    1    3    3    0    0 -0.39752531464E+01  0.36881856479E+01 -0.79675459043E+02  0.79859777890E+02  0.00000000000E+00 0.  1.
          3    1    3    3  501    0 -0.20026688523E+02  0.16663275878E+02 -0.46632587027E+03  0.46705304870E+03  0.00000000000E+00 0.  1.
         -3    1    1    2    0  502  0.24001941670E+02 -0.20351461526E+02 -0.45299706677E+03  0.45408877732E+03  0.00000000000E+00 0. -1.
<mgrwt>
<rscale>  1 0.30000000E+03</rscale>
<asrwt>0</asrwt>
<pdfrwt beam="1">  1       21 0.36422037E-02 0.30000000E+03</pdfrwt>
<pdfrwt beam="2">0</pdfrwt>
<totfact> 0.49218691E+04</totfact>
</mgrwt>
</event>
<event>
 6    1  0.1284012E-001  0.3000000E+03  0.7818608E-02  0.1093470E+00
         21   -1    0    0  501  502  0.00000000000E+00  0.00000000000E+00  0.17756524179E+01  0.17756524179E+01  0.00000000000E+00 0. -1.
         13   -1    0    0    0    0 -0.00000000000E+00 -0.00000000000E+00 -0.10000000000E+04  0.10000000000E+04  0.00000000000E+00 0.  1.
    9000005    2    1    2  501    0  0.20871512860E+02  0.33367595571E+02 -0.67665489838E+03  0.67780663053E+03  0.33106501881E+01 0.  0.
         13    1    3    3    0    0  0.43671842683E+00  0.12157325016E+00 -0.58197883301E+01  0.58374171726E+01  0.00000000000E+00 0.  1.
          1    1    3    3  501    0  0.20434794433E+02  0.33246022321E+02 -0.67083511005E+03  0.67196921336E+03  0.00000000000E+00 0.  1.
         -3    1    1    2    0  502 -0.20871512860E+02 -0.33367595571E+02 -0.32156944920E+03  0.32396902189E+03  0.00000000000E+00 0. -1.
<mgrwt>
<rscale>  1 0.30000000E+03</rscale>
<asrwt>0</asrwt>
<pdfrwt beam="1">  1       21 0.64569315E-02 0.30000000E+03</pdfrwt>
<pdfrwt beam="2">0</pdfrwt>
<totfact> 0.18562438E+04</totfact>
</mgrwt>
</event>
<event>
 6    1  0.1284012E-001  0.3000000E+03  0.7818608E-02  0.1093470E+00
         21   -1    0    0  501  502  0.00000000000E+00  0.00000000000E+00  0.66316787266E+01  0.66316787266E+01  0.00000000000E+00 0. -1.
         13   -1    0    0    0    0 -0.00000000000E+00 -0.00000000000E+00 -0.10000000000E+04  0.10000000000E+04  0.00000000000E+00 0.  1.
    9000005    2    1    2  501    0 -0.64600385106E+02  0.46041295461E+02 -0.60960334940E+03  0.61475342687E+03  0.35385874729E+01 0.  0.
         13    1    3    3    0    0 -0.55517429669E+01  0.38467232249E+01 -0.60031249320E+02  0.60410015929E+02  0.00000000000E+00 0.  1.
          3    1    3    3  501    0 -0.59048642139E+02  0.42194572236E+02 -0.54957210008E+03  0.55434341094E+03  0.00000000000E+00 0.  1.
         -3    1    1    2    0  502  0.64600385106E+02 -0.46041295461E+02 -0.38376497187E+03  0.39187825185E+03  0.00000000000E+00 0. -1.
<mgrwt>
<rscale>  1 0.30000000E+03</rscale>
<asrwt>0</asrwt>
<pdfrwt beam="1">  1       21 0.24115246E-01 0.30000000E+03</pdfrwt>
<pdfrwt beam="2">0</pdfrwt>
<totfact> 0.16732352E+03</totfact>
</mgrwt>
</event>
<event>
 6    1  0.1284012E-001  0.3000000E+03  0.7818608E-02  0.1093470E+00
         21   -1    0    0  501  502  0.00000000000E+00  0.00000000000E+00  0.19529562460E+01  0.19529562460E+01  0.00000000000E+00 0. -1.
         13   -1    0    0    0    0 -0.00000000000E+00 -0.00000000000E+00 -0.10000000000E+04  0.10000000000E+04  0.00000000000E+00 0.  1.
    9000005    2    1    2  501    0  0.86251869430E+01  0.34582226564E+02 -0.79468527635E+03  0.79549150056E+03  0.34226839865E+01 0.  0.
         13    1    3    3    0    0  0.68827857409E+01  0.24517853159E+02 -0.59614418872E+03  0.59668785107E+03  0.00000000000E+00 0.  1.
          3    1    3    3  501    0  0.17424012021E+01  0.10064373404E+02 -0.19854108763E+03  0.19880364949E+03  0.00000000000E+00 0.  1.
         -3    1    1    2    0  502 -0.86251869430E+01 -0.34582226564E+02 -0.20336176740E+03  0.20646145569E+03  0.00000000000E+00 0. -1.
<mgrwt>
<rscale>  1 0.30000000E+03</rscale>
<asrwt>0</asrwt>
<pdfrwt beam="1">  1       21 0.71016741E-02 0.30000000E+03</pdfrwt>
<pdfrwt beam="2">0</pdfrwt>
<totfact> 0.15735155E+04</totfact>
</mgrwt>
</event>
<event>
 6    1  0.1284012E-001  0.3000000E+03  0.7818608E-02  0.1093470E+00
         21   -1    0    0  501  502  0.00000000000E+00  0.00000000000E+00  0.35182191764E+01  0.35182191764E+01  0.00000000000E+00 0. -1.
         13   -1    0    0    0    0 -0.00000000000E+00 -0.00000000000E+00 -0.10000000000E+04  0.10000000000E+04  0.00000000000E+00 0.  1.
    9000005    2    1    2  501    0 -0.26743017772E+02 -0.16695518282E+02 -0.92312823570E+03  0.92367667665E+03  0.43513351088E+01 0.  0.
         13    1    3    3    0    0 -0.83324254314E+01 -0.74563748320E+01 -0.34866954313E+03  0.34884878837E+03  0.00000000000E+00 0.  1.
          3    1    3    3  501    0 -0.18410592340E+02 -0.92391434503E+01 -0.57445869256E+03  0.57482788828E+03  0.00000000000E+00 0.  1.
         -1    1    1    2    0  502  0.26743017772E+02  0.16695518282E+02 -0.73353545127E+02  0.79841542526E+02  0.00000000000E+00 0. -1.
<mgrwt>
<rscale>  1 0.30000000E+03</rscale>
<asrwt>0</asrwt>
<pdfrwt beam="1">  1       21 0.12793551E-01 0.30000000E+03</pdfrwt>
<pdfrwt beam="2">0</pdfrwt>
<totfact> 0.55153328E+03</totfact>
</mgrwt>
</event>
<event>
 6    1  0.1284012E-001  0.3000000E+03  0.7818608E-02  0.1093470E+00
         21   -1    0    0  501  502  0.00000000000E+00  0.00000000000E+00  0.17839341778E+01  0.17839341778E+01  0.00000000000E+00 0. -1.
         13   -1    0    0    0    0 -0.00000000000E+00 -0.00000000000E+00 -0.10000000000E+04  0.10000000000E+04  0.00000000000E+00 0.  1.
    9000005    2    1    2  501    0  0.32459135100E+02 -0.23953630378E+02 -0.64545360465E+03  0.64672235378E+03  0.34749486475E+01 0.  0.
         13    1    3    3    0    0  0.91785263164E+01 -0.87596472644E+01 -0.19904446155E+03  0.19944842552E+03  0.00000000000E+00 0.  1.
          1    1    3    3  501    0  0.23280608783E+02 -0.15193983113E+02 -0.44640914310E+03  0.44727392827E+03  0.00000000000E+00 0.  1.
         -3    1    1    2    0  502 -0.32459135100E+02  0.23953630378E+02 -0.35276246117E+03  0.35506158039E+03  0.00000000000E+00 0. -1.
<mgrwt>
<rscale>  1 0.30000000E+03</rscale>
<asrwt>0</asrwt>
<pdfrwt beam="1">  1       21 0.64870471E-02 0.30000000E+03</pdfrwt>
<pdfrwt beam="2">0</pdfrwt>
<totfact> 0.18413526E+04</totfact>
</mgrwt>
</event>
<event>
 6    1  0.1284012E-001  0.3000000E+03  0.7818608E-02  0.1093470E+00
         21   -1    0    0  501  502  0.00000000000E+00  0.00000000000E+00  0.11208929057E+01  0.11208929057E+01  0.00000000000E+00 0. -1.
         13   -1    0    0    0    0 -0.00000000000E+00 -0.00000000000E+00 -0.10000000000E+04  0.10000000000E+04  0.00000000000E+00 0.  1.
    9000005    2    1    2  501    0  0.24414931745E+02 -0.17630888777E+02 -0.71661183434E+03  0.71725164413E+03  0.32346194185E+01 0.  0.
         13    1    3    3    0    0  0.73850818121E+01 -0.66065132876E+01 -0.20953420366E+03  0.20976836738E+03  0.00000000000E+00 0.  1.
          1    1    3    3  501    0  0.17029849933E+02 -0.11024375489E+02 -0.50707763068E+03  0.50748327675E+03  0.00000000000E+00 0.  1.
         -1    1    1    2    0  502 -0.24414931745E+02  0.17630888777E+02 -0.28226727275E+03  0.28386924877E+03  0.00000000000E+00 0. -1.
<mgrwt>
<rscale>  1 0.30000000E+03</rscale>
<asrwt>0</asrwt>
<pdfrwt beam="1">  1       21 0.40759828E-02 0.30000000E+03</pdfrwt>
<pdfrwt beam="2">0</pdfrwt>
<totfact> 0.40735134E+04</totfact>
</mgrwt>
</event>
<event>
 6    1  0.1284012E-001  0.3000000E+03  0.7818608E-02  0.1093470E+00
         21   -1    0    0  501  502  0.00000000000E+00  0.00000000000E+00  0.16729609319E+01  0.16729609319E+01  0.00000000000E+00 0. -1.
         13   -1    0    0    0    0 -0.00000000000E+00 -0.00000000000E+00 -0.10000000000E+04  0.10000000000E+04  0.00000000000E+00 0.  1.
    9000005    2    1    2  501    0 -0.61730679392E+01  0.35583725910E+02 -0.72651408222E+03  0.72747122529E+03  0.93468522289E+01 0.  0.
         13    1    3    3    0    0 -0.57358397093E+01  0.35757822455E+02 -0.72443100652E+03  0.72533564984E+03  0.00000000000E+00 0.  1.
          1    1    3    3  501    0 -0.43722822986E+00 -0.17409654494E+00 -0.20830757012E+01  0.21355754514E+01  0.00000000000E+00 0.  1.
         -1    1    1    2    0  502  0.61730679392E+01 -0.35583725910E+02 -0.27181295685E+03  0.27420173564E+03  0.00000000000E+00 0. -1.
<mgrwt>
<rscale>  1 0.30000000E+03</rscale>
<asrwt>0</asrwt>
<pdfrwt beam="1">  1       21 0.60835071E-02 0.30000000E+03</pdfrwt>
<pdfrwt beam="2">0</pdfrwt>
<totfact> 0.20575165E+04</totfact>
</mgrwt>
</event>
<event>
 6    1  0.1284012E-001  0.3000000E+03  0.7818608E-02  0.1093470E+00
         21   -1    0    0  501  502  0.00000000000E+00  0.00000000000E+00  0.39500268799E+01  0.39500268799E+01  0.00000000000E+00 0. -1.
         13   -1    0    0    0    0 -0.00000000000E+00 -0.00000000000E+00 -0.10000000000E+04  0.10000000000E+04  0.00000000000E+00 0.  1.
    9000005    2    1    2  501    0 -0.61474178026E+02  0.42350187457E+01 -0.40137567024E+03  0.40609173560E+03  0.33255245095E+01 0.  0.
         13    1    3    3    0    0 -0.60396719909E+02  0.37620179131E+01 -0.39498658101E+03  0.39959518983E+03  0.00000000000E+00 0.  1.
          1    1    3    3  501    0 -0.10774581168E+01  0.47300083261E+00 -0.63890892271E+01  0.64965457693E+01  0.00000000000E+00 0.  1.
         -1    1    1    2    0  502  0.61474178026E+02 -0.42350187457E+01 -0.59467430288E+03  0.59785829128E+03  0.00000000000E+00 0. -1.
<mgrwt>
<rscale>  1 0.30000000E+03</rscale>
<asrwt>0</asrwt>
<pdfrwt beam="1">  1       21 0.14363764E-01 0.30000000E+03</pdfrwt>
<pdfrwt beam="2">0</pdfrwt>
<totfact> 0.44611156E+03</totfact>
</mgrwt>
</event>
<event>
 6    1  0.1284012E-001  0.3000000E+03  0.7818608E-02  0.1093470E+00
         21   -1    0    0  501  502  0.00000000000E+00  0.00000000000E+00  0.18360884522E+01  0.18360884522E+01  0.00000000000E+00 0. -1.
         13   -1    0    0    0    0 -0.00000000000E+00 -0.00000000000E+00 -0.10000000000E+04  0.10000000000E+04  0.00000000000E+00 0.  1.
    9000005    2    1    2  501    0 -0.33167069130E+02  0.31066938287E+00 -0.81593162420E+03  0.81660985504E+03  0.26625171047E+01 0.  0.
         13    1    3    3    0    0 -0.73605825704E+00  0.26511270443E+00 -0.12979593959E+02  0.13003150612E+02  0.00000000000E+00 0.  1.
          1    1    3    3  501    0 -0.32431010873E+02  0.45556678435E-01 -0.80295203024E+03  0.80360670443E+03  0.00000000000E+00 0.  1.
         -1    1    1    2    0  502  0.33167069130E+02 -0.31066938287E+00 -0.18223228735E+03  0.18522623341E+03  0.00000000000E+00 0. -1.
<mgrwt>
<rscale>  1 0.30000000E+03</rscale>
<asrwt>0</asrwt>
<pdfrwt beam="1">  1       21 0.66766994E-02 0.30000000E+03</pdfrwt>
<pdfrwt beam="2">0</pdfrwt>
<totfact> 0.17516708E+04</totfact>
</mgrwt>
</event>
<event>
 6    1  0.1284012E-001  0.3000000E+03  0.7818608E-02  0.1093470E+00
         21   -1    0    0  501  502  0.00000000000E+00  0.00000000000E+00  0.10519020778E+01  0.10519020778E+01  0.00000000000E+00 0. -1.
         13   -1    0    0    0    0 -0.00000000000E+00 -0.00000000000E+00 -0.10000000000E+04  0.10000000000E+04  0.00000000000E+00 0.  1.
    9000005    2    1    2  501    0 -0.69394410231E+01  0.31194525253E+02 -0.57734180739E+03  0.57823619936E+03  0.35050597633E+01 0.  0.
         13    1    3    3    0    0 -0.39827114734E+01  0.11286877385E+02 -0.19938453004E+03  0.19974345148E+03  0.00000000000E+00 0.  1.
          3    1    3    3  501    0 -0.29567295497E+01  0.19907647868E+02 -0.37795727735E+03  0.37849274787E+03  0.00000000000E+00 0.  1.
         -1    1    1    2    0  502  0.69394410231E+01 -0.31194525253E+02 -0.42160629053E+03  0.42281570272E+03  0.00000000000E+00 0. -1.
<mgrwt>
<rscale>  1 0.30000000E+03</rscale>
<asrwt>0</asrwt>
<pdfrwt beam="1">  1       21 0.38251065E-02 0.30000000E+03</pdfrwt>
<pdfrwt beam="2">0</pdfrwt>
<totfact> 0.45331672E+04</totfact>
</mgrwt>
</event>
<event>
 6    1  0.1284012E-001  0.3000000E+03  0.7818608E-02  0.1093470E+00
         21   -1    0    0  501  502  0.00000000000E+00  0.00000000000E+00  0.30363727703E+01  0.30363727703E+01  0.00000000000E+00 0. -1.
         13   -1    0    0    0    0 -0.00000000000E+00 -0.00000000000E+00 -0.10000000000E+04  0.10000000000E+04  0.00000000000E+00 0.  1.
    9000005    2    1    2  501    0  0.18871616235E+01 -0.42966517879E+02 -0.81116890880E+03  0.81232884687E+03  0.57856564284E+01 0.  0.
         13    1    3    3    0    0  0.37117472436E+00 -0.74816555562E+01 -0.10464458495E+03  0.10491235438E+03  0.00000000000E+00 0.  1.
          1    1    3    3  501    0  0.15159868992E+01 -0.35484862323E+02 -0.70652432384E+03  0.70741649249E+03  0.00000000000E+00 0.  1.
         -1    1    1    2    0  502 -0.18871616235E+01  0.42966517879E+02 -0.18579471843E+03  0.19070752590E+03  0.00000000000E+00 0. -1.
<mgrwt>
<rscale>  1 0.30000000E+03</rscale>
<asrwt>0</asrwt>
<pdfrwt beam="1">  1       21 0.11041379E-01 0.30000000E+03</pdfrwt>
<pdfrwt beam="2">0</pdfrwt>
<totfact> 0.72031917E+03</totfact>
</mgrwt>
</event>
<event>
 6    1  0.1284012E-001  0.3000000E+03  0.7818608E-02  0.1093470E+00
         21   -1    0    0  501  502  0.00000000000E+00  0.00000000000E+00  0.14418157816E+01  0.14418157816E+01  0.00000000000E+00 0. -1.
         13   -1    0    0    0    0 -0.00000000000E+00 -0.00000000000E+00 -0.10000000000E+04  0.10000000000E+04  0.00000000000E+00 0.  1.
    9000005    2    1    2  501    0  0.27260854792E+02  0.15736744609E+02 -0.77857034895E+03  0.77921344900E+03  0.33183593293E+01 0.  0.
         13    1    3    3    0    0  0.98500038254E+01  0.38996223958E+01 -0.26644209343E+03  0.26665261818E+03  0.00000000000E+00 0.  1.
          1    1    3    3  501    0  0.17410850967E+02  0.11837122213E+02 -0.51212825551E+03  0.51256083082E+03  0.00000000000E+00 0.  1.
         -3    1    1    2    0  502 -0.27260854792E+02 -0.15736744609E+02 -0.21998783527E+03  0.22222836678E+03  0.00000000000E+00 0. -1.
<mgrwt>
<rscale>  1 0.30000000E+03</rscale>
<asrwt>0</asrwt>
<pdfrwt beam="1">  1       21 0.52429775E-02 0.30000000E+03</pdfrwt>
<pdfrwt beam="2">0</pdfrwt>
<totfact> 0.26563636E+04</totfact>
</mgrwt>
</event>
<event>
 6    1  0.1284012E-001  0.3000000E+03  0.7818608E-02  0.1093470E+00
         21   -1    0    0  501  502  0.00000000000E+00  0.00000000000E+00  0.26597140794E+01  0.26597140794E+01  0.00000000000E+00 0. -1.
         13   -1    0    0    0    0 -0.00000000000E+00 -0.00000000000E+00 -0.10000000000E+04  0.10000000000E+04  0.00000000000E+00 0.  1.
    9000005    2    1    2  501    0 -0.19022688853E+02 -0.42653203835E+02 -0.71058613047E+03  0.71212726468E+03  0.33813886114E+01 0.  0.
         13    1    3    3    0    0 -0.14524275270E+02 -0.34912082380E+02 -0.58807318639E+03  0.58928760433E+03  0.00000000000E+00 0.  1.
          3    1    3    3  501    0 -0.44984135832E+01 -0.77411214548E+01 -0.12251294408E+03  0.12283966035E+03  0.00000000000E+00 0.  1.
         -3    1    1    2    0  502  0.19022688853E+02  0.42653203835E+02 -0.28675415545E+03  0.29053244940E+03  0.00000000000E+00 0. -1.
<mgrwt>
<rscale>  1 0.30000000E+03</rscale>
<asrwt>0</asrwt>
<pdfrwt beam="1">  1       21 0.96717080E-02 0.30000000E+03</pdfrwt>
<pdfrwt beam="2">0</pdfrwt>
<totfact> 0.91314291E+03</totfact>
</mgrwt>
</event>
<event>
 6    1  0.1284012E-001  0.3000000E+03  0.7818608E-02  0.1093470E+00
         21   -1    0    0  501  502  0.00000000000E+00  0.00000000000E+00  0.16776560943E+01  0.16776560943E+01  0.00000000000E+00 0. -1.
         13   -1    0    0    0    0 -0.00000000000E+00 -0.00000000000E+00 -0.10000000000E+04  0.10000000000E+04  0.00000000000E+00 0.  1.
    9000005    2    1    2  501    0 -0.31927304333E+02 -0.38174057577E+01 -0.80885857132E+03  0.80950469631E+03  0.34263109056E+01 0.  0.
         13    1    3    3    0    0 -0.26882823300E+02 -0.41802823652E+01 -0.66095757292E+03  0.66151725159E+03  0.00000000000E+00 0.  1.
          1    1    3    3  501    0 -0.50444810334E+01  0.36287660745E+00 -0.14790099839E+03  0.14798744472E+03  0.00000000000E+00 0.  1.
         -1    1    1    2    0  502  0.31927304333E+02  0.38174057577E+01 -0.18946377259E+03  0.19217295979E+03  0.00000000000E+00 0. -1.
<mgrwt>
<rscale>  1 0.30000000E+03</rscale>
<asrwt>0</asrwt>
<pdfrwt beam="1">  1       21 0.61005805E-02 0.30000000E+03</pdfrwt>
<pdfrwt beam="2">0</pdfrwt>
<totfact> 0.20475895E+04</totfact>
</mgrwt>
</event>
<event>
 6    1  0.1284012E-001  0.3000000E+03  0.7818608E-02  0.1093470E+00
         21   -1    0    0  501  502  0.00000000000E+00  0.00000000000E+00  0.14416651692E+01  0.14416651692E+01  0.00000000000E+00 0. -1.
         13   -1    0    0    0    0 -0.00000000000E+00 -0.00000000000E+00 -0.10000000000E+04  0.10000000000E+04  0.00000000000E+00 0.  1.
    9000005    2    1    2  501    0 -0.33696955565E+02  0.51697786550E+01 -0.71880782465E+03  0.71962158183E+03  0.28845856900E+01 0.  0.
         13    1    3    3    0    0 -0.31329719885E+02  0.41943497528E+01 -0.65459129092E+03  0.65535402803E+03  0.00000000000E+00 0.  1.
          1    1    3    3  501    0 -0.23672356809E+01  0.97542890216E+00 -0.64216533733E+02  0.64267553796E+02  0.00000000000E+00 0.  1.
         -3    1    1    2    0  502  0.33696955565E+02 -0.51697786550E+01 -0.27975051018E+03  0.28182008334E+03  0.00000000000E+00 0. -1.
<mgrwt>
<rscale>  1 0.30000000E+03</rscale>
<asrwt>0</asrwt>
<pdfrwt beam="1">  1       21 0.52424299E-02 0.30000000E+03</pdfrwt>
<pdfrwt beam="2">0</pdfrwt>
<totfact> 0.26568379E+04</totfact>
</mgrwt>
</event>
<event>
 6    1  0.1284012E-001  0.3000000E+03  0.7818608E-02  0.1093470E+00
         21   -1    0    0  501  502  0.00000000000E+00  0.00000000000E+00  0.54663032973E+01  0.54663032973E+01  0.00000000000E+00 0. -1.
         13   -1    0    0    0    0 -0.00000000000E+00 -0.00000000000E+00 -0.10000000000E+04  0.10000000000E+04  0.00000000000E+00 0.  1.
    9000005    2    1    2  501    0  0.40320359549E+02  0.28779463136E+02 -0.87025923572E+03  0.87168240836E+03  0.50094702797E+01 0.  0.
         13    1    3    3    0    0  0.29915737841E+02  0.23887663695E+02 -0.66165750754E+03  0.66276408256E+03  0.00000000000E+00 0.  1.
          1    1    3    3  501    0  0.10404621707E+02  0.48917994405E+01 -0.20860172819E+03  0.20891832581E+03  0.00000000000E+00 0.  1.
         -3    1    1    2    0  502 -0.40320359549E+02 -0.28779463136E+02 -0.12427446098E+03  0.13378389494E+03  0.00000000000E+00 0. -1.
<mgrwt>
<rscale>  1 0.30000000E+03</rscale>
<asrwt>0</asrwt>
<pdfrwt beam="1">  1       21 0.19877508E-01 0.30000000E+03</pdfrwt>
<pdfrwt beam="2">0</pdfrwt>
<totfact> 0.24275122E+03</totfact>
</mgrwt>
</event>
<event>
 6    1  0.1284012E-001  0.3000000E+03  0.7818608E-02  0.1093470E+00
         21   -1    0    0  501  502  0.00000000000E+00  0.00000000000E+00  0.14083496234E+01  0.14083496234E+01  0.00000000000E+00 0. -1.
         13   -1    0    0    0    0 -0.00000000000E+00 -0.00000000000E+00 -0.10000000000E+04  0.10000000000E+04  0.00000000000E+00 0.  1.
    9000005    2    1    2  501    0 -0.74501546572E+01  0.32274286220E+02 -0.73345386629E+03  0.73420958670E+03  0.34653826169E+01 0.  0.
         13    1    3    3    0    0 -0.41953203558E-01  0.37598877108E+01 -0.10085995128E+03  0.10093001678E+03  0.00000000000E+00 0.  1.
          1    1    3    3  501    0 -0.74082014536E+01  0.28514398509E+02 -0.63259391500E+03  0.63327956991E+03  0.00000000000E+00 0.  1.
         -3    1    1    2    0  502  0.74501546572E+01 -0.32274286220E+02 -0.26513778409E+03  0.26719876292E+03  0.00000000000E+00 0. -1.
<mgrwt>
<rscale>  1 0.30000000E+03</rscale>
<asrwt>0</asrwt>
<pdfrwt beam="1">  1       21 0.51212822E-02 0.30000000E+03</pdfrwt>
<pdfrwt beam="2">0</pdfrwt>
<totfact> 0.27650809E+04</totfact>
</mgrwt>
</event>
<event>
 6    1  0.1284012E-001  0.3000000E+03  0.7818608E-02  0.1093470E+00
         21   -1    0    0  501  502  0.00000000000E+00  0.00000000000E+00  0.15312184636E+01  0.15312184636E+01  0.00000000000E+00 0. -1.
         13   -1    0    0    0    0 -0.00000000000E+00 -0.00000000000E+00 -0.10000000000E+04  0.10000000000E+04  0.00000000000E+00 0.  1.
    9000005    2    1    2  501    0  0.99420562966E+01  0.28411537575E+02 -0.81698569122E+03  0.81756879833E+03  0.68600577838E+01 0.  0.
         13    1    3    3    0    0 -0.62179110854E+00  0.39806551946E+01 -0.14552513812E+03  0.14558089869E+03  0.00000000000E+00 0.  1.
          3    1    3    3  501    0  0.10563847405E+02  0.24430882381E+02 -0.67146055310E+03  0.67198789963E+03  0.00000000000E+00 0.  1.
         -1    1    1    2    0  502 -0.99420562966E+01 -0.28411537575E+02 -0.18148309032E+03  0.18396242013E+03  0.00000000000E+00 0. -1.
<mgrwt>
<rscale>  1 0.30000000E+03</rscale>
<asrwt>0</asrwt>
<pdfrwt beam="1">  1       21 0.55680789E-02 0.30000000E+03</pdfrwt>
<pdfrwt beam="2">0</pdfrwt>
<totfact> 0.23963067E+04</totfact>
</mgrwt>
</event>
<event>
 6    1  0.1284012E-001  0.3000000E+03  0.7818608E-02  0.1093470E+00
         21   -1    0    0  501  502  0.00000000000E+00  0.00000000000E+00  0.52962710929E+01  0.52962710929E+01  0.00000000000E+00 0. -1.
         13   -1    0    0    0    0 -0.00000000000E+00 -0.00000000000E+00 -0.10000000000E+04  0.10000000000E+04  0.00000000000E+00 0.  1.
    9000005    2    1    2  501    0  0.34340734978E+02  0.41609057620E+01 -0.93924635022E+03  0.93993481406E+03  0.98564217641E+01 0.  0.
         13    1    3    3    0    0  0.33803048791E+02  0.45790870245E+01 -0.84786484134E+03  0.84855076650E+03  0.00000000000E+00 0.  1.
          1    1    3    3  501    0  0.53768618721E+00 -0.41818126244E+00 -0.91381508880E+02  0.91384047553E+02  0.00000000000E+00 0.  1.
         -3    1    1    2    0  502 -0.34340734978E+02 -0.41609057620E+01 -0.55457378684E+02  0.65361457038E+02  0.00000000000E+00 0. -1.
<mgrwt>
<rscale>  1 0.30000000E+03</rscale>
<asrwt>0</asrwt>
<pdfrwt beam="1">  1       21 0.19259208E-01 0.30000000E+03</pdfrwt>
<pdfrwt beam="2">0</pdfrwt>
<totfact> 0.25779609E+03</totfact>
</mgrwt>
</event>
<event>
 6    1  0.1284012E-001  0.3000000E+03  0.7818608E-02  0.1093470E+00
         21   -1    0    0  501  502  0.00000000000E+00  0.00000000000E+00  0.47707743379E+01  0.47707743379E+01  0.00000000000E+00 0. -1.
         13   -1    0    0    0    0 -0.00000000000E+00 -0.00000000000E+00 -0.10000000000E+04  0.10000000000E+04  0.00000000000E+00 0.  1.
    9000005    2    1    2  501    0  0.34010974189E+02  0.52319469430E+02 -0.71252428865E+03  0.71526057649E+03  0.35717108288E+01 0.  0.
         13    1    3    3    0    0  0.17361310626E+01  0.43865898539E+01 -0.54826425009E+02  0.55029021442E+02  0.00000000000E+00 0.  1.
          1    1    3    3  501    0  0.32274843126E+02  0.47932879577E+02 -0.65769786364E+03  0.66023155505E+03  0.00000000000E+00 0.  1.
         -3    1    1    2    0  502 -0.34010974189E+02 -0.52319469430E+02 -0.28270493701E+03  0.28951019784E+03  0.00000000000E+00 0. -1.
<mgrwt>
<rscale>  1 0.30000000E+03</rscale>
<asrwt>0</asrwt>
<pdfrwt beam="1">  1       21 0.17348307E-01 0.30000000E+03</pdfrwt>
<pdfrwt beam="2">0</pdfrwt>
<totfact> 0.31398417E+03</totfact>
</mgrwt>
</event>
<event>
 6    1  0.1284012E-001  0.3000000E+03  0.7818608E-02  0.1093470E+00
         21   -1    0    0  501  502  0.00000000000E+00  0.00000000000E+00  0.19747471601E+01  0.19747471601E+01  0.00000000000E+00 0. -1.
         13   -1    0    0    0    0 -0.00000000000E+00 -0.00000000000E+00 -0.10000000000E+04  0.10000000000E+04  0.00000000000E+00 0.  1.
    9000005    2    1    2  501    0 -0.34004386951E+02  0.27846471078E+02 -0.43002632481E+03  0.43227789222E+03  0.31323778174E+01 0.  0.
         13    1    3    3    0    0 -0.27132022581E+02  0.23741638139E+02 -0.35437920655E+03  0.35620841381E+03  0.00000000000E+00 0.  1.
          1    1    3    3  501    0 -0.68723643702E+01  0.41048329395E+01 -0.75647118255E+02  0.76069478412E+02  0.00000000000E+00 0.  1.
         -3    1    1    2    0  502  0.34004386951E+02 -0.27846471078E+02 -0.56799892803E+03  0.56969685494E+03  0.00000000000E+00 0. -1.
<mgrwt>
<rscale>  1 0.30000000E+03</rscale>
<asrwt>0</asrwt>
<pdfrwt beam="1">  1       21 0.71809139E-02 0.30000000E+03</pdfrwt>
<pdfrwt beam="2">0</pdfrwt>
<totfact> 0.15433708E+04</totfact>
</mgrwt>
</event>
<event>
 6    1  0.1284012E-001  0.3000000E+03  0.7818608E-02  0.1093470E+00
         21   -1    0    0  501  502  0.00000000000E+00  0.00000000000E+00  0.94833004111E+00  0.94833004111E+00  0.00000000000E+00 0. -1.
         13   -1    0    0    0    0 -0.00000000000E+00 -0.00000000000E+00 -0.10000000000E+04  0.10000000000E+04  0.00000000000E+00 0.  1.
    9000005    2    1    2  501    0 -0.27910431746E+02  0.12805101875E+02 -0.50815974097E+03  0.50909688013E+03  0.32168587207E+01 0.  0.
         13    1    3    3    0    0 -0.10206501805E+02  0.59331109901E+01 -0.17738786559E+03  0.17778028390E+03  0.00000000000E+00 0.  1.
          3    1    3    3  501    0 -0.17703929941E+02  0.68719908848E+01 -0.33077187538E+03  0.33131659623E+03  0.00000000000E+00 0.  1.
         -1    1    1    2    0  502  0.27910431746E+02 -0.12805101875E+02 -0.49089192899E+03  0.49185144991E+03  0.00000000000E+00 0. -1.
<mgrwt>
<rscale>  1 0.30000000E+03</rscale>
<asrwt>0</asrwt>
<pdfrwt beam="1">  1       21 0.34484801E-02 0.30000000E+03</pdfrwt>
<pdfrwt beam="2">0</pdfrwt>
<totfact> 0.53938996E+04</totfact>
</mgrwt>
</event>
<event>
 6    1  0.1284012E-001  0.3000000E+03  0.7818608E-02  0.1093470E+00
         21   -1    0    0  501  502  0.00000000000E+00  0.00000000000E+00  0.10452899423E+01  0.10452899423E+01  0.00000000000E+00 0. -1.
         13   -1    0    0    0    0 -0.00000000000E+00 -0.00000000000E+00 -0.10000000000E+04  0.10000000000E+04  0.00000000000E+00 0.  1.
    9000005    2    1    2  501    0  0.30604552630E+01  0.32029315248E+02 -0.53058516482E+03  0.53157188886E+03  0.35794514624E+01 0.  0.
         13    1    3    3    0    0  0.17956751098E+01  0.27958170393E+02 -0.47318115141E+03  0.47400979504E+03  0.00000000000E+00 0.  1.
          1    1    3    3  501    0  0.12647801533E+01  0.40711448551E+01 -0.57404013409E+02  0.57562093818E+02  0.00000000000E+00 0.  1.
         -1    1    1    2    0  502 -0.30604552630E+01 -0.32029315248E+02 -0.46836954524E+03  0.46947340109E+03  0.00000000000E+00 0. -1.
<mgrwt>
<rscale>  1 0.30000000E+03</rscale>
<asrwt>0</asrwt>
<pdfrwt beam="1">  1       21 0.38010624E-02 0.30000000E+03</pdfrwt>
<pdfrwt beam="2">0</pdfrwt>
<totfact> 0.45814559E+04</totfact>
</mgrwt>
</event>
<event>
 6    1  0.1284012E-001  0.3000000E+03  0.7818608E-02  0.1093470E+00
         21   -1    0    0  501  502  0.00000000000E+00  0.00000000000E+00  0.19570976500E+01  0.19570976500E+01  0.00000000000E+00 0. -1.
         13   -1    0    0    0    0 -0.00000000000E+00 -0.00000000000E+00 -0.10000000000E+04  0.10000000000E+04  0.00000000000E+00 0.  1.
    9000005    2    1    2  501    0  0.31492708605E+02  0.88883626724E+01 -0.16372658329E+03  0.16699930594E+03  0.34030019960E+01 0.  0.
         13    1    3    3    0    0  0.12161925668E+02  0.26205915333E+01 -0.54948682330E+02  0.56339485494E+02  0.00000000000E+00 0.  1.
          3    1    3    3  501    0  0.19330782937E+02  0.62677711391E+01 -0.10877790096E+03  0.11065982044E+03  0.00000000000E+00 0.  1.
         -1    1    1    2    0  502 -0.31492708605E+02 -0.88883626724E+01 -0.83431631906E+03  0.83495779171E+03  0.00000000000E+00 0. -1.
<mgrwt>
<rscale>  1 0.30000000E+03</rscale>
<asrwt>0</asrwt>
<pdfrwt beam="1">  1       21 0.71167337E-02 0.30000000E+03</pdfrwt>
<pdfrwt beam="2">0</pdfrwt>
<totfact> 0.15677178E+04</totfact>
</mgrwt>
</event>
<event>
 6    1  0.1284012E-001  0.3000000E+03  0.7818608E-02  0.1093470E+00
         21   -1    0    0  501  502  0.00000000000E+00  0.00000000000E+00  0.13249067017E+01  0.13249067017E+01  0.00000000000E+00 0. -1.
         13   -1    0    0    0    0 -0.00000000000E+00 -0.00000000000E+00 -0.10000000000E+04  0.10000000000E+04  0.00000000000E+00 0.  1.
    9000005    2    1    2  501    0 -0.21763853341E+02 -0.27548080867E+02 -0.62662701427E+03  0.62762404347E+03  0.42382610485E+01 0.  0.
         13    1    3    3    0    0 -0.11635599625E+02 -0.16661758055E+02 -0.33093025767E+03  0.33155367108E+03  0.00000000000E+00 0.  1.
          3    1    3    3  501    0 -0.10128253716E+02 -0.10886322812E+02 -0.29569675660E+03  0.29607037240E+03  0.00000000000E+00 0.  1.
         -1    1    1    2    0  502  0.21763853341E+02  0.27548080867E+02 -0.37204807902E+03  0.37370086323E+03  0.00000000000E+00 0. -1.
<mgrwt>
<rscale>  1 0.30000000E+03</rscale>
<asrwt>0</asrwt>
<pdfrwt beam="1">  1       21 0.48178527E-02 0.30000000E+03</pdfrwt>
<pdfrwt beam="2">0</pdfrwt>
<totfact> 0.30684080E+04</totfact>
</mgrwt>
</event>
<event>
 6    1  0.1284012E-001  0.3000000E+03  0.7818608E-02  0.1093470E+00
         21   -1    0    0  501  502  0.00000000000E+00  0.00000000000E+00  0.16393900480E+01  0.16393900480E+01  0.00000000000E+00 0. -1.
         13   -1    0    0    0    0 -0.00000000000E+00 -0.00000000000E+00 -0.10000000000E+04  0.10000000000E+04  0.00000000000E+00 0.  1.
    9000005    2    1    2  501    0 -0.14263589887E+02 -0.33565205438E+02 -0.71539188219E+03  0.71633012994E+03  0.36382609401E+01 0.  0.
         13    1    3    3    0    0 -0.16191360371E+01 -0.38983060777E+01 -0.62608424319E+02  0.62750563245E+02  0.00000000000E+00 0.  1.
          1    1    3    3  501    0 -0.12644453850E+02 -0.29666899360E+02 -0.65278345787E+03  0.65357956670E+03  0.00000000000E+00 0.  1.
         -3    1    1    2    0  502  0.14263589887E+02  0.33565205438E+02 -0.28296872776E+03  0.28530926011E+03  0.00000000000E+00 0. -1.
<mgrwt>
<rscale>  1 0.30000000E+03</rscale>
<asrwt>0</asrwt>
<pdfrwt beam="1">  1       21 0.59614309E-02 0.30000000E+03</pdfrwt>
<pdfrwt beam="2">0</pdfrwt>
<totfact> 0.21307304E+04</totfact>
</mgrwt>
</event>
<event>
 6    1  0.1284012E-001  0.3000000E+03  0.7818608E-02  0.1093470E+00
         21   -1    0    0  501  502  0.00000000000E+00  0.00000000000E+00  0.13218509719E+01  0.13218509719E+01  0.00000000000E+00 0. -1.
         13   -1    0    0    0    0 -0.00000000000E+00 -0.00000000000E+00 -0.10000000000E+04  0.10000000000E+04  0.00000000000E+00 0.  1.
    9000005    2    1    2  501    0 -0.28176122567E+02 -0.13606046614E+02 -0.75270821571E+03  0.75336978608E+03  0.41663166286E+01 0.  0.
         13    1    3    3    0    0 -0.18114606282E+02 -0.10660903491E+02 -0.47932019823E+03  0.47978083148E+03  0.00000000000E+00 0.  1.
          1    1    3    3  501    0 -0.10061516285E+02 -0.29451431230E+01 -0.27338801748E+03  0.27358895460E+03  0.00000000000E+00 0.  1.
         -1    1    1    2    0  502  0.28176122567E+02  0.13606046614E+02 -0.24596993332E+03  0.24795206489E+03  0.00000000000E+00 0. -1.
<mgrwt>
<rscale>  1 0.30000000E+03</rscale>
<asrwt>0</asrwt>
<pdfrwt beam="1">  1       21 0.48067409E-02 0.30000000E+03</pdfrwt>
<pdfrwt beam="2">0</pdfrwt>
<totfact> 0.30804890E+04</totfact>
</mgrwt>
</event>
<event>
 6    1  0.1284012E-001  0.3000000E+03  0.7818608E-02  0.1093470E+00
         21   -1    0    0  501  502  0.00000000000E+00  0.00000000000E+00  0.18615491909E+01  0.18615491909E+01  0.00000000000E+00 0. -1.
         13   -1    0    0    0    0 -0.00000000000E+00 -0.00000000000E+00 -0.10000000000E+04  0.10000000000E+04  0.00000000000E+00 0.  1.
    9000005    2    1    2  501    0 -0.28970106409E+02  0.17827363097E+02 -0.80673855735E+03  0.80746247214E+03  0.33855673512E+01 0.  0.
         13    1    3    3    0    0 -0.13086497618E+02  0.97981561231E+01 -0.40534800188E+03  0.40567753562E+03  0.00000000000E+00 0.  1.
          3    1    3    3  501    0 -0.15883608791E+02  0.80292069740E+01 -0.40139055547E+03  0.40178493652E+03  0.00000000000E+00 0.  1.
         -3    1    1    2    0  502  0.28970106409E+02 -0.17827363097E+02 -0.19139989346E+03  0.19439907705E+03  0.00000000000E+00 0. -1.
<mgrwt>
<rscale>  1 0.30000000E+03</rscale>
<asrwt>0</asrwt>
<pdfrwt beam="1">  1       21 0.67692841E-02 0.30000000E+03</pdfrwt>
<pdfrwt beam="2">0</pdfrwt>
<totfact> 0.17103105E+04</totfact>
</mgrwt>
</event>
<event>
 6    1  0.1284012E-001  0.3000000E+03  0.7818608E-02  0.1093470E+00
         21   -1    0    0  501  502  0.00000000000E+00  0.00000000000E+00  0.96571099622E+00  0.96571099622E+00  0.00000000000E+00 0. -1.
         13   -1    0    0    0    0 -0.00000000000E+00 -0.00000000000E+00 -0.10000000000E+04  0.10000000000E+04  0.00000000000E+00 0.  1.
    9000005    2    1    2  501    0  0.30896428248E+02 -0.17724286222E+01 -0.52008388531E+03  0.52101652621E+03  0.36389613482E+01 0.  0.
         13    1    3    3    0    0  0.13739350064E+02  0.28839796311E+00 -0.20634496310E+03  0.20680207133E+03  0.00000000000E+00 0.  1.
          1    1    3    3  501    0  0.17157078184E+02 -0.20608265853E+01 -0.31373892221E+03  0.31421445487E+03  0.00000000000E+00 0.  1.
         -3    1    1    2    0  502 -0.30896428248E+02  0.17724286222E+01 -0.47895040369E+03  0.47994918479E+03  0.00000000000E+00 0. -1.
<mgrwt>
<rscale>  1 0.30000000E+03</rscale>
<asrwt>0</asrwt>
<pdfrwt beam="1">  1       21 0.35116838E-02 0.30000000E+03</pdfrwt>
<pdfrwt beam="2">0</pdfrwt>
<totfact> 0.52323965E+04</totfact>
</mgrwt>
</event>
<event>
 6    1  0.1284012E-001  0.3000000E+03  0.7818608E-02  0.1093470E+00
         21   -1    0    0  501  502  0.00000000000E+00  0.00000000000E+00  0.99527067699E+00  0.99527067699E+00  0.00000000000E+00 0. -1.
         13   -1    0    0    0    0 -0.00000000000E+00 -0.00000000000E+00 -0.10000000000E+04  0.10000000000E+04  0.00000000000E+00 0.  1.
    9000005    2    1    2  501    0 -0.19652873722E+02 -0.24514237170E+02 -0.52588897924E+03  0.52683738954E+03  0.33516055248E+01 0.  0.
         13    1    3    3    0    0 -0.10196122291E+02 -0.10055776709E+02 -0.23668135607E+03  0.23711420005E+03  0.00000000000E+00 0.  1.
          1    1    3    3  501    0 -0.94567514318E+01 -0.14458460461E+02 -0.28920762317E+03  0.28972318949E+03  0.00000000000E+00 0.  1.
         -3    1    1    2    0  502  0.19652873722E+02  0.24514237170E+02 -0.47311575008E+03  0.47415788114E+03  0.00000000000E+00 0. -1.
<mgrwt>
<rscale>  1 0.30000000E+03</rscale>
<asrwt>0</asrwt>
<pdfrwt beam="1">  1       21 0.36191737E-02 0.30000000E+03</pdfrwt>
<pdfrwt beam="2">0</pdfrwt>
<totfact> 0.49745175E+04</totfact>
</mgrwt>
</event>
<event>
 6    1  0.1284012E-001  0.3000000E+03  0.7818608E-02  0.1093470E+00
         21   -1    0    0  501  502  0.00000000000E+00  0.00000000000E+00  0.20314569598E+01  0.20314569598E+01  0.00000000000E+00 0. -1.
         13   -1    0    0    0    0 -0.00000000000E+00 -0.00000000000E+00 -0.10000000000E+04  0.10000000000E+04  0.00000000000E+00 0.  1.
    9000005    2    1    2  501    0 -0.26141180417E+02 -0.24600723354E+02 -0.80123470918E+03  0.80204956206E+03  0.42289359836E+01 0.  0.
         13    1    3    3    0    0 -0.22861368629E+02 -0.20500721310E+02 -0.71024935499E+03  0.71091284136E+03  0.00000000000E+00 0.  1.
          3    1    3    3  501    0 -0.32798117880E+01 -0.41000020442E+01 -0.90985354199E+02  0.91136720705E+02  0.00000000000E+00 0.  1.
         -3    1    1    2    0  502  0.26141180417E+02  0.24600723354E+02 -0.19673383386E+03  0.19998189490E+03  0.00000000000E+00 0. -1.
<mgrwt>
<rscale>  1 0.30000000E+03</rscale>
<asrwt>0</asrwt>
<pdfrwt beam="1">  1       21 0.73871318E-02 0.30000000E+03</pdfrwt>
<pdfrwt beam="2">0</pdfrwt>
<totfact> 0.14689133E+04</totfact>
</mgrwt>
</event>
<event>
 6    1  0.1284012E-001  0.3000000E+03  0.7818608E-02  0.1093470E+00
         21   -1    0    0  501  502  0.00000000000E+00  0.00000000000E+00  0.17673886974E+01  0.17673886974E+01  0.00000000000E+00 0. -1.
         13   -1    0    0    0    0 -0.00000000000E+00 -0.00000000000E+00 -0.10000000000E+04  0.10000000000E+04  0.00000000000E+00 0.  1.
    9000005    2    1    2  501    0  0.41073256190E+02 -0.93115802888E+00 -0.39914124587E+03  0.40126897607E+03  0.38958406273E+01 0.  0.
         13    1    3    3    0    0  0.15248908335E+02 -0.14606037614E+01 -0.13412422835E+03  0.13499618957E+03  0.00000000000E+00 0.  1.
          1    1    3    3  501    0  0.25824347855E+02  0.52944573252E+00 -0.26501701753E+03  0.26627278650E+03  0.00000000000E+00 0.  1.
         -3    1    1    2    0  502 -0.41073256190E+02  0.93115802888E+00 -0.59909136543E+03  0.60049841262E+03  0.00000000000E+00 0. -1.
<mgrwt>
<rscale>  1 0.30000000E+03</rscale>
<asrwt>0</asrwt>
<pdfrwt beam="1">  1       21 0.64268815E-02 0.30000000E+03</pdfrwt>
<pdfrwt beam="2">0</pdfrwt>
<totfact> 0.18712887E+04</totfact>
</mgrwt>
</event>
<event>
 6    1  0.1284012E-001  0.3000000E+03  0.7818608E-02  0.1093470E+00
         21   -1    0    0  501  502  0.00000000000E+00  0.00000000000E+00  0.79802881183E+01  0.79802881183E+01  0.00000000000E+00 0. -1.
         13   -1    0    0    0    0 -0.00000000000E+00 -0.00000000000E+00 -0.10000000000E+04  0.10000000000E+04  0.00000000000E+00 0.  1.
    9000005    2    1    2  501    0 -0.65737988527E+02  0.55492273577E+02 -0.63136760138E+03  0.63720971165E+03  0.32082692510E+01 0.  0.
         13    1    3    3    0    0 -0.65253144929E+02  0.54648034153E+02 -0.62448666208E+03  0.63026024123E+03  0.00000000000E+00 0.  1.
          1    1    3    3  501    0 -0.48484359816E+00  0.84423942450E+00 -0.68809393008E+01  0.69494704246E+01  0.00000000000E+00 0.  1.
         -3    1    1    2    0  502  0.65737988527E+02 -0.55492273577E+02 -0.36065211050E+03  0.37077057647E+03  0.00000000000E+00 0. -1.
<mgrwt>
<rscale>  1 0.30000000E+03</rscale>
<asrwt>0</asrwt>
<pdfrwt beam="1">  1       21 0.29019291E-01 0.30000000E+03</pdfrwt>
<pdfrwt beam="2">0</pdfrwt>
<totfact> 0.11618499E+03</totfact>
</mgrwt>
</event>
<event>
 6    1  0.1284012E-001  0.3000000E+03  0.7818608E-02  0.1093470E+00
         21   -1    0    0  501  502  0.00000000000E+00  0.00000000000E+00  0.24933395688E+01  0.24933395688E+01  0.00000000000E+00 0. -1.
         13   -1    0    0    0    0 -0.00000000000E+00 -0.00000000000E+00 -0.10000000000E+04  0.10000000000E+04  0.00000000000E+00 0.  1.
    9000005    2    1    2  501    0 -0.30027396614E+02  0.81678369131E+01 -0.89060707382E+03  0.89115655443E+03  0.32690149679E+01 0.  0.
         13    1    3    3    0    0 -0.48538020907E+00  0.55797196127E+00 -0.15006714472E+02  0.15024926153E+02  0.00000000000E+00 0.  1.
          1    1    3    3  501    0 -0.29542016405E+02  0.76098649518E+01 -0.87560035935E+03  0.87613162828E+03  0.00000000000E+00 0.  1.
         -3    1    1    2    0  502  0.30027396614E+02 -0.81678369131E+01 -0.10689958661E+03  0.11133678514E+03  0.00000000000E+00 0. -1.
<mgrwt>
<rscale>  1 0.30000000E+03</rscale>
<asrwt>0</asrwt>
<pdfrwt beam="1">  1       21 0.90667085E-02 0.30000000E+03</pdfrwt>
<pdfrwt beam="2">0</pdfrwt>
<totfact> 0.10243150E+04</totfact>
</mgrwt>
</event>
<event>
 6    1  0.1284012E-001  0.3000000E+03  0.7818608E-02  0.1093470E+00
         21   -1    0    0  501  502  0.00000000000E+00  0.00000000000E+00  0.13896737477E+01  0.13896737477E+01  0.00000000000E+00 0. -1.
         13   -1    0    0    0    0 -0.00000000000E+00 -0.00000000000E+00 -0.10000000000E+04  0.10000000000E+04  0.00000000000E+00 0.  1.
    9000005    2    1    2  501    0 -0.29952219313E+02 -0.64775790772E+01 -0.78362489998E+03  0.78423114184E+03  0.33772006972E+01 0.  0.
         13    1    3    3    0    0 -0.29509465346E+02 -0.63423556856E+01 -0.77863854337E+03  0.77922334105E+03  0.00000000000E+00 0.  1.
          3    1    3    3  501    0 -0.44275396672E+00 -0.13522339164E+00 -0.49863566133E+01  0.50078007863E+01  0.00000000000E+00 0.  1.
         -1    1    1    2    0  502  0.29952219313E+02  0.64775790772E+01 -0.21498542627E+03  0.21715853191E+03  0.00000000000E+00 0. -1.
<mgrwt>
<rscale>  1 0.30000000E+03</rscale>
<asrwt>0</asrwt>
<pdfrwt beam="1">  1       21 0.50533697E-02 0.30000000E+03</pdfrwt>
<pdfrwt beam="2">0</pdfrwt>
<totfact> 0.28287853E+04</totfact>
</mgrwt>
</event>
<event>
 6    1  0.1284012E-001  0.3000000E+03  0.7818608E-02  0.1093470E+00
         21   -1    0    0  501  502  0.00000000000E+00  0.00000000000E+00  0.21844582068E+01  0.21844582068E+01  0.00000000000E+00 0. -1.
         13   -1    0    0    0    0 -0.00000000000E+00 -0.00000000000E+00 -0.10000000000E+04  0.10000000000E+04  0.00000000000E+00 0.  1.
    9000005    2    1    2  501    0 -0.28403533964E+02  0.18815909397E+02 -0.84159643115E+03  0.84229321480E+03  0.35366065034E+01 0.  0.
         13    1    3    3    0    0 -0.66234046563E+01  0.43881058499E+01 -0.23550345933E+03  0.23563744253E+03  0.00000000000E+00 0.  1.
          1    1    3    3  501    0 -0.21780129307E+02  0.14427803547E+02 -0.60609297181E+03  0.60665577227E+03  0.00000000000E+00 0.  1.
         -3    1    1    2    0  502  0.28403533964E+02 -0.18815909397E+02 -0.15621911065E+03  0.15989124341E+03  0.00000000000E+00 0. -1.
<mgrwt>
<rscale>  1 0.30000000E+03</rscale>
<asrwt>0</asrwt>
<pdfrwt beam="1">  1       21 0.79435011E-02 0.30000000E+03</pdfrwt>
<pdfrwt beam="2">0</pdfrwt>
<totfact> 0.12933849E+04</totfact>
</mgrwt>
</event>
<event>
 6    1  0.1284012E-001  0.3000000E+03  0.7818608E-02  0.1093470E+00
         21   -1    0    0  501  502  0.00000000000E+00  0.00000000000E+00  0.28677509404E+01  0.28677509404E+01  0.00000000000E+00 0. -1.
         13   -1    0    0    0    0 -0.00000000000E+00 -0.00000000000E+00 -0.10000000000E+04  0.10000000000E+04  0.00000000000E+00 0.  1.
    9000005    2    1    2  501    0 -0.38990739302E+02 -0.10029298713E+02 -0.82900551173E+03  0.82998783774E+03  0.29677818805E+01 0.  0.
         13    1    3    3    0    0 -0.26546172931E+02 -0.54119944413E+01 -0.55129239652E+03  0.55195769352E+03  0.00000000000E+00 0.  1.
          3    1    3    3  501    0 -0.12444566370E+02 -0.46173042718E+01 -0.27771311521E+03  0.27803014422E+03  0.00000000000E+00 0.  1.
         -3    1    1    2    0  502  0.38990739302E+02  0.10029298713E+02 -0.16812673733E+03  0.17287991320E+03  0.00000000000E+00 0. -1.
<mgrwt>
<rscale>  1 0.30000000E+03</rscale>
<asrwt>0</asrwt>
<pdfrwt beam="1">  1       21 0.10428207E-01 0.30000000E+03</pdfrwt>
<pdfrwt beam="2">0</pdfrwt>
<totfact> 0.79814037E+03</totfact>
</mgrwt>
</event>
<event>
 6    1  0.1284012E-001  0.3000000E+03  0.7818608E-02  0.1093470E+00
         21   -1    0    0  501  502  0.00000000000E+00  0.00000000000E+00  0.13268251398E+01  0.13268251398E+01  0.00000000000E+00 0. -1.
         13   -1    0    0    0    0 -0.00000000000E+00 -0.00000000000E+00 -0.10000000000E+04  0.10000000000E+04  0.00000000000E+00 0.  1.
    9000005    2    1    2  501    0 -0.20675532569E+02  0.26968941095E+02 -0.32529534818E+03  0.32709207456E+03  0.41665643914E+01 0.  0.
         13    1    3    3    0    0 -0.14958060716E+02  0.16365493694E+02 -0.21588621683E+03  0.21702173066E+03  0.00000000000E+00 0.  1.
          1    1    3    3  501    0 -0.57174718531E+01  0.10603447401E+02 -0.10940913136E+03  0.11007034390E+03  0.00000000000E+00 0.  1.
         -3    1    1    2    0  502  0.20675532569E+02 -0.26968941095E+02 -0.67337782668E+03  0.67423475058E+03  0.00000000000E+00 0. -1.
<mgrwt>
<rscale>  1 0.30000000E+03</rscale>
<asrwt>0</asrwt>
<pdfrwt beam="1">  1       21 0.48248289E-02 0.30000000E+03</pdfrwt>
<pdfrwt beam="2">0</pdfrwt>
<totfact> 0.30608612E+04</totfact>
</mgrwt>
</event>
<event>
 6    1  0.1284012E-001  0.3000000E+03  0.7818608E-02  0.1093470E+00
         21   -1    0    0  501  502  0.00000000000E+00  0.00000000000E+00  0.15444591271E+01  0.15444591271E+01  0.00000000000E+00 0. -1.
         13   -1    0    0    0    0 -0.00000000000E+00 -0.00000000000E+00 -0.10000000000E+04  0.10000000000E+04  0.00000000000E+00 0.  1.
    9000005    2    1    2  501    0  0.54242441914E+00 -0.36581423204E+02 -0.67786663956E+03  0.67887475433E+03  0.54089086194E+01 0.  0.
         13    1    3    3    0    0  0.11083499119E+01 -0.17627680243E+02 -0.28002284094E+03  0.28057932033E+03  0.00000000000E+00 0.  1.
          3    1    3    3  501    0 -0.56592549276E+00 -0.18953742961E+02 -0.39784379862E+03  0.39829543400E+03  0.00000000000E+00 0.  1.
         -3    1    1    2    0  502 -0.54242441914E+00  0.36581423204E+02 -0.32058890131E+03  0.32266970480E+03  0.00000000000E+00 0. -1.
<mgrwt>
<rscale>  1 0.30000000E+03</rscale>
<asrwt>0</asrwt>
<pdfrwt beam="1">  1       21 0.56162269E-02 0.30000000E+03</pdfrwt>
<pdfrwt beam="2">0</pdfrwt>
<totfact> 0.23611449E+04</totfact>
</mgrwt>
</event>
<event>
 6    1  0.1284012E-001  0.3000000E+03  0.7818608E-02  0.1093470E+00
         21   -1    0    0  501  502  0.00000000000E+00  0.00000000000E+00  0.13842176656E+02  0.13842176656E+02  0.00000000000E+00 0. -1.
         13   -1    0    0    0    0 -0.00000000000E+00 -0.00000000000E+00 -0.10000000000E+04  0.10000000000E+04  0.00000000000E+00 0.  1.
    9000005    2    1    2  501    0 -0.44096045966E+02  0.57799687953E+01 -0.96237748522E+03  0.96341030389E+03  0.33347085858E+01 0.  0.
         13    1    3    3    0    0 -0.19962814721E+02  0.42502090040E+01 -0.44848920367E+03  0.44895338740E+03  0.00000000000E+00 0.  1.
          3    1    3    3  501    0 -0.24133231245E+02  0.15297597913E+01 -0.51388828155E+03  0.51445691649E+03  0.00000000000E+00 0.  1.
         -3    1    1    2    0  502  0.44096045966E+02 -0.57799687953E+01 -0.23780338124E+02  0.50431872763E+02  0.00000000000E+00 0. -1.
<mgrwt>
<rscale>  1 0.30000000E+03</rscale>
<asrwt>0</asrwt>
<pdfrwt beam="1">  1       21 0.50335294E-01 0.30000000E+03</pdfrwt>
<pdfrwt beam="2">0</pdfrwt>
<totfact> 0.37031646E+02</totfact>
</mgrwt>
</event>
<event>
 6    1  0.1284012E-001  0.3000000E+03  0.7818608E-02  0.1093470E+00
         21   -1    0    0  501  502  0.00000000000E+00  0.00000000000E+00  0.13223069203E+01  0.13223069203E+01  0.00000000000E+00 0. -1.
         13   -1    0    0    0    0 -0.00000000000E+00 -0.00000000000E+00 -0.10000000000E+04  0.10000000000E+04  0.00000000000E+00 0.  1.
    9000005    2    1    2  501    0  0.18245392737E+02 -0.30356820278E+02 -0.60888063062E+03  0.60991946994E+03  0.34214872756E+01 0.  0.
         13    1    3    3    0    0  0.25393568400E+01 -0.25920548080E+01 -0.52649049857E+02  0.52773947475E+02  0.00000000000E+00 0.  1.
          1    1    3    3  501    0  0.15706035896E+02 -0.27764765470E+02 -0.55623158076E+03  0.55714552246E+03  0.00000000000E+00 0.  1.
         -1    1    1    2    0  502 -0.18245392737E+02  0.30356820278E+02 -0.38979706246E+03  0.39140283698E+03  0.00000000000E+00 0. -1.
<mgrwt>
<rscale>  1 0.30000000E+03</rscale>
<asrwt>0</asrwt>
<pdfrwt beam="1">  1       21 0.48083989E-02 0.30000000E+03</pdfrwt>
<pdfrwt beam="2">0</pdfrwt>
<totfact> 0.30786817E+04</totfact>
</mgrwt>
</event>
<event>
 6    1  0.1284012E-001  0.3000000E+03  0.7818608E-02  0.1093470E+00
         21   -1    0    0  501  502  0.00000000000E+00  0.00000000000E+00  0.13802578207E+01  0.13802578207E+01  0.00000000000E+00 0. -1.
         13   -1    0    0    0    0 -0.00000000000E+00 -0.00000000000E+00 -0.10000000000E+04  0.10000000000E+04  0.00000000000E+00 0.  1.
    9000005    2    1    2  501    0 -0.12025333301E+02  0.31946839987E+02 -0.30504710183E+03  0.30696812035E+03  0.32378001561E+01 0.  0.
         13    1    3    3    0    0 -0.41646011005E+01  0.80047456948E+01 -0.72339601260E+02  0.72900190442E+02  0.00000000000E+00 0.  1.
          1    1    3    3  501    0 -0.78607322006E+01  0.23942094292E+02 -0.23270750057E+03  0.23406792990E+03  0.00000000000E+00 0.  1.
         -3    1    1    2    0  502  0.12025333301E+02 -0.31946839987E+02 -0.69357264035E+03  0.69441213748E+03  0.00000000000E+00 0. -1.
<mgrwt>
<rscale>  1 0.30000000E+03</rscale>
<asrwt>0</asrwt>
<pdfrwt beam="1">  1       21 0.50191299E-02 0.30000000E+03</pdfrwt>
<pdfrwt beam="2">0</pdfrwt>
<totfact> 0.28617734E+04</totfact>
</mgrwt>
</event>
<event>
 6    1  0.1284012E-001  0.3000000E+03  0.7818608E-02  0.1093470E+00
         21   -1    0    0  501  502  0.00000000000E+00  0.00000000000E+00  0.11496158752E+01  0.11496158752E+01  0.00000000000E+00 0. -1.
         13   -1    0    0    0    0 -0.00000000000E+00 -0.00000000000E+00 -0.10000000000E+04  0.10000000000E+04  0.00000000000E+00 0.  1.
    9000005    2    1    2  501    0 -0.11883385748E+02  0.31646416151E+02 -0.51324153518E+03  0.51436561379E+03  0.35214633439E+01 0.  0.
         13    1    3    3    0    0 -0.61572459840E+00  0.14764453574E+01 -0.15213848158E+02  0.15297718244E+02  0.00000000000E+00 0.  1.
          3    1    3    3  501    0 -0.11267661150E+02  0.30169970794E+02 -0.49802768702E+03  0.49906789554E+03  0.00000000000E+00 0.  1.
         -3    1    1    2    0  502  0.11883385748E+02 -0.31646416151E+02 -0.48560884895E+03  0.48678400209E+03  0.00000000000E+00 0. -1.
<mgrwt>
<rscale>  1 0.30000000E+03</rscale>
<asrwt>0</asrwt>
<pdfrwt beam="1">  1       21 0.41804302E-02 0.30000000E+03</pdfrwt>
<pdfrwt beam="2">0</pdfrwt>
<totfact> 0.39033040E+04</totfact>
</mgrwt>
</event>
<event>
 6    1  0.1284012E-001  0.3000000E+03  0.7818608E-02  0.1093470E+00
         21   -1    0    0  501  502  0.00000000000E+00  0.00000000000E+00  0.40297469016E+01  0.40297469016E+01  0.00000000000E+00 0. -1.
         13   -1    0    0    0    0 -0.00000000000E+00 -0.00000000000E+00 -0.10000000000E+04  0.10000000000E+04  0.00000000000E+00 0.  1.
    9000005    2    1    2  501    0 -0.40569082866E+02  0.48610289585E+02 -0.47694616999E+03  0.48115805175E+03  0.51585815061E+01 0.  0.
         13    1    3    3    0    0 -0.26872812897E+02  0.33024097860E+02 -0.33805989588E+03  0.34073043937E+03  0.00000000000E+00 0.  1.
          1    1    3    3  501    0 -0.13696269969E+02  0.15586191725E+02 -0.13888627410E+03  0.14042761238E+03  0.00000000000E+00 0.  1.
         -1    1    1    2    0  502  0.40569082866E+02 -0.48610289585E+02 -0.51902408311E+03  0.52287169515E+03  0.00000000000E+00 0. -1.
<mgrwt>
<rscale>  1 0.30000000E+03</rscale>
<asrwt>0</asrwt>
<pdfrwt beam="1">  1       21 0.14653656E-01 0.30000000E+03</pdfrwt>
<pdfrwt beam="2">0</pdfrwt>
<totfact> 0.42997416E+03</totfact>
</mgrwt>
</event>
<event>
 6    1  0.1284012E-001  0.3000000E+03  0.7818608E-02  0.1093470E+00
         21   -1    0    0  501  502  0.00000000000E+00  0.00000000000E+00  0.15198672982E+01  0.15198672982E+01  0.00000000000E+00 0. -1.
         13   -1    0    0    0    0 -0.00000000000E+00 -0.00000000000E+00 -0.10000000000E+04  0.10000000000E+04  0.00000000000E+00 0.  1.
    9000005    2    1    2  501    0 -0.28078822639E+02  0.22130395685E+02 -0.69744988285E+03  0.69837405086E+03  0.34352791730E+01 0.  0.
         13    1    3    3    0    0 -0.19952696611E+02  0.13768255284E+02 -0.47999181787E+03  0.48060359984E+03  0.00000000000E+00 0.  1.
          1    1    3    3  501    0 -0.81261260272E+01  0.83621404013E+01 -0.21745806497E+03  0.21777045102E+03  0.00000000000E+00 0.  1.
         -3    1    1    2    0  502  0.28078822639E+02 -0.22130395685E+02 -0.30103024986E+03  0.30314581644E+03  0.00000000000E+00 0. -1.
<mgrwt>
<rscale>  1 0.30000000E+03</rscale>
<asrwt>0</asrwt>
<pdfrwt beam="1">  1       21 0.55268018E-02 0.30000000E+03</pdfrwt>
<pdfrwt beam="2">0</pdfrwt>
<totfact> 0.24270958E+04</totfact>
</mgrwt>
</event>
<event>
 6    1  0.1284012E-001  0.3000000E+03  0.7818608E-02  0.1093470E+00
         21   -1    0    0  501  502  0.00000000000E+00  0.00000000000E+00  0.17067374558E+01  0.17067374558E+01  0.00000000000E+00 0. -1.
         13   -1    0    0    0    0 -0.00000000000E+00 -0.00000000000E+00 -0.10000000000E+04  0.10000000000E+04  0.00000000000E+00 0.  1.
    9000005    2    1    2  501    0 -0.74659235646E+01  0.35712124824E+02 -0.72449440433E+03  0.72548778330E+03  0.10453991656E+02 0.  0.
         13    1    3    3    0    0  0.26340929940E+01  0.76964449926E+01 -0.16898974210E+03  0.16918542090E+03  0.00000000000E+00 0.  1.
          3    1    3    3  501    0 -0.10100016559E+02  0.28015679831E+02 -0.55550466223E+03  0.55630236240E+03  0.00000000000E+00 0.  1.
         -3    1    1    2    0  502  0.74659235646E+01 -0.35712124824E+02 -0.27379885822E+03  0.27621895416E+03  0.00000000000E+00 0. -1.
<mgrwt>
<rscale>  1 0.30000000E+03</rscale>
<asrwt>0</asrwt>
<pdfrwt beam="1">  1       21 0.62063311E-02 0.30000000E+03</pdfrwt>
<pdfrwt beam="2">0</pdfrwt>
<totfact> 0.19877271E+04</totfact>
</mgrwt>
</event>
<event>
 6    1  0.1284012E-001  0.3000000E+03  0.7818608E-02  0.1093470E+00
         21   -1    0    0  501  502  0.00000000000E+00  0.00000000000E+00  0.36212202771E+01  0.36212202771E+01  0.00000000000E+00 0. -1.
         13   -1    0    0    0    0 -0.00000000000E+00 -0.00000000000E+00 -0.10000000000E+04  0.10000000000E+04  0.00000000000E+00 0.  1.
    9000005    2    1    2  501    0  0.29802102288E+02 -0.28437885813E+02 -0.86284985905E+03  0.86388270982E+03  0.93047516336E+01 0.  0.
         13    1    3    3    0    0  0.24557533621E+02 -0.17690724404E+02 -0.61165359081E+03  0.61240195079E+03  0.00000000000E+00 0.  1.
          3    1    3    3  501    0  0.52445686671E+01 -0.10747161409E+02 -0.25119626825E+03  0.25148075903E+03  0.00000000000E+00 0.  1.
         -3    1    1    2    0  502 -0.29802102288E+02  0.28437885813E+02 -0.13352892067E+03  0.13973851046E+03  0.00000000000E+00 0. -1.
<mgrwt>
<rscale>  1 0.30000000E+03</rscale>
<asrwt>0</asrwt>
<pdfrwt beam="1">  1       21 0.13168102E-01 0.30000000E+03</pdfrwt>
<pdfrwt beam="2">0</pdfrwt>
<totfact> 0.52322534E+03</totfact>
</mgrwt>
</event>
<event>
 6    1  0.1284012E-001  0.3000000E+03  0.7818608E-02  0.1093470E+00
         21   -1    0    0  501  502  0.00000000000E+00  0.00000000000E+00  0.45247664925E+01  0.45247664925E+01  0.00000000000E+00 0. -1.
         13   -1    0    0    0    0 -0.00000000000E+00 -0.00000000000E+00 -0.10000000000E+04  0.10000000000E+04  0.00000000000E+00 0.  1.
    9000005    2    1    2  501    0  0.26951281870E+02 -0.33252454439E+02 -0.88511755959E+03  0.88615706180E+03  0.30243298051E+01 0.  0.
         13    1    3    3    0    0  0.54442505394E+01 -0.49272176391E+01 -0.15458991602E+03  0.15476420604E+03  0.00000000000E+00 0.  1.
          1    1    3    3  501    0  0.21507031330E+02 -0.28325236800E+02 -0.73052764357E+03  0.73139285576E+03  0.00000000000E+00 0.  1.
         -3    1    1    2    0  502 -0.26951281870E+02  0.33252454439E+02 -0.11035767392E+03  0.11836770469E+03  0.00000000000E+00 0. -1.
<mgrwt>
<rscale>  1 0.30000000E+03</rscale>
<asrwt>0</asrwt>
<pdfrwt beam="1">  1       21 0.16453731E-01 0.30000000E+03</pdfrwt>
<pdfrwt beam="2">0</pdfrwt>
<totfact> 0.34669708E+03</totfact>
</mgrwt>
</event>
<event>
 6    1  0.1284012E-001  0.3000000E+03  0.7818608E-02  0.1093470E+00
         21   -1    0    0  501  502  0.00000000000E+00  0.00000000000E+00  0.14927942662E+01  0.14927942662E+01  0.00000000000E+00 0. -1.
         13   -1    0    0    0    0 -0.00000000000E+00 -0.00000000000E+00 -0.10000000000E+04  0.10000000000E+04  0.00000000000E+00 0.  1.
    9000005    2    1    2  501    0  0.27929295547E+02 -0.16170419467E+02 -0.77372834954E+03  0.77440897229E+03  0.34884742249E+01 0.  0.
         13    1    3    3    0    0  0.14721147231E+02 -0.65104146438E+01 -0.38155403848E+03  0.38189341701E+03  0.00000000000E+00 0.  1.
          3    1    3    3  501    0  0.13208148316E+02 -0.96600048231E+01 -0.39217431106E+03  0.39251555527E+03  0.00000000000E+00 0.  1.
         -3    1    1    2    0  502 -0.27929295547E+02  0.16170419467E+02 -0.22477885619E+03  0.22708382198E+03  0.00000000000E+00 0. -1.
<mgrwt>
<rscale>  1 0.30000000E+03</rscale>
<asrwt>0</asrwt>
<pdfrwt beam="1">  1       21 0.54283542E-02 0.30000000E+03</pdfrwt>
<pdfrwt beam="2">0</pdfrwt>
<totfact> 0.25030365E+04</totfact>
</mgrwt>
</event>
<event>
 6    1  0.1284012E-001  0.3000000E+03  0.7818608E-02  0.1093470E+00
         21   -1    0    0  501  502  0.00000000000E+00  0.00000000000E+00  0.17083274920E+01  0.17083274920E+01  0.00000000000E+00 0. -1.
         13   -1    0    0    0    0 -0.00000000000E+00 -0.00000000000E+00 -0.10000000000E+04  0.10000000000E+04  0.00000000000E+00 0.  1.
    9000005    2    1    2  501    0  0.17818700917E+02  0.34448026895E+02 -0.66992743296E+03  0.67106161804E+03  0.40935450497E+01 0.  0.
         13    1    3    3    0    0  0.16415124924E+02  0.33438331143E+02 -0.63547970523E+03  0.63657052561E+03  0.00000000000E+00 0.  1.
          1    1    3    3  501    0  0.14035759930E+01  0.10096957514E+01 -0.34447727730E+02  0.34491092427E+02  0.00000000000E+00 0.  1.
         -1    1    1    2    0  502 -0.17818700917E+02 -0.34448026895E+02 -0.32836423955E+03  0.33064670945E+03  0.00000000000E+00 0. -1.
<mgrwt>
<rscale>  1 0.30000000E+03</rscale>
<asrwt>0</asrwt>
<pdfrwt beam="1">  1       21 0.62121131E-02 0.30000000E+03</pdfrwt>
<pdfrwt beam="2">0</pdfrwt>
<totfact> 0.19845327E+04</totfact>
</mgrwt>
</event>
<event>
 6    1  0.1284012E-001  0.3000000E+03  0.7818608E-02  0.1093470E+00
         21   -1    0    0  501  502  0.00000000000E+00  0.00000000000E+00  0.19755994550E+01  0.19755994550E+01  0.00000000000E+00 0. -1.
         13   -1    0    0    0    0 -0.00000000000E+00 -0.00000000000E+00 -0.10000000000E+04  0.10000000000E+04  0.00000000000E+00 0.  1.
    9000005    2    1    2  501    0 -0.67718302030E+01  0.30753179344E+02 -0.85237357204E+03  0.85295956150E+03  0.27733581243E+01 0.  0.
         13    1    3    3    0    0 -0.58675650461E+01  0.29422674531E+02 -0.81051838079E+03  0.81107346627E+03  0.00000000000E+00 0.  1.
          1    1    3    3  501    0 -0.90426515688E+00  0.13305048132E+01 -0.41855191255E+02  0.41886095229E+02  0.00000000000E+00 0.  1.
         -3    1    1    2    0  502  0.67718302030E+01 -0.30753179344E+02 -0.14565082850E+03  0.14901603796E+03  0.00000000000E+00 0. -1.
<mgrwt>
<rscale>  1 0.30000000E+03</rscale>
<asrwt>0</asrwt>
<pdfrwt beam="1">  1       21 0.71840132E-02 0.30000000E+03</pdfrwt>
<pdfrwt beam="2">0</pdfrwt>
<totfact> 0.15422097E+04</totfact>
</mgrwt>
</event>
<event>
 6    1  0.1284012E-001  0.3000000E+03  0.7818608E-02  0.1093470E+00
         21   -1    0    0  501  502  0.00000000000E+00  0.00000000000E+00  0.12578968826E+01  0.12578968826E+01  0.00000000000E+00 0. -1.
         13   -1    0    0    0    0 -0.00000000000E+00 -0.00000000000E+00 -0.10000000000E+04  0.10000000000E+04  0.00000000000E+00 0.  1.
    9000005    2    1    2  501    0 -0.32963416296E+02 -0.96780974772E+01 -0.61969563603E+03  0.62065774371E+03  0.36195477699E+01 0.  0.
         13    1    3    3    0    0 -0.24406612769E+02 -0.73975778953E+01 -0.48656956810E+03  0.48723746932E+03  0.00000000000E+00 0.  1.
          3    1    3    3  501    0 -0.85568035278E+01 -0.22805195819E+01 -0.13312606793E+03  0.13342027439E+03  0.00000000000E+00 0.  1.
         -3    1    1    2    0  502  0.32963416296E+02  0.96780974772E+01 -0.37904646709E+03  0.38060015317E+03  0.00000000000E+00 0. -1.
<mgrwt>
<rscale>  1 0.30000000E+03</rscale>
<asrwt>0</asrwt>
<pdfrwt beam="1">  1       21 0.45741801E-02 0.30000000E+03</pdfrwt>
<pdfrwt beam="2">0</pdfrwt>
<totfact> 0.33514735E+04</totfact>
</mgrwt>
</event>
<event>
 6    1  0.1284012E-001  0.3000000E+03  0.7818608E-02  0.1093470E+00
         21   -1    0    0  501  502  0.00000000000E+00  0.00000000000E+00  0.14808247677E+01  0.14808247677E+01  0.00000000000E+00 0. -1.
         13   -1    0    0    0    0 -0.00000000000E+00 -0.00000000000E+00 -0.10000000000E+04  0.10000000000E+04  0.00000000000E+00 0.  1.
    9000005    2    1    2  501    0  0.29829933909E+02 -0.17520669971E+02 -0.71769585992E+03  0.71853465806E+03  0.28122321430E+01 0.  0.
         13    1    3    3    0    0  0.21466965861E+02 -0.11120003383E+02 -0.49684809034E+03  0.49743593555E+03  0.00000000000E+00 0.  1.
          1    1    3    3  501    0  0.83629680476E+01 -0.64006665880E+01 -0.22084776958E+03  0.22109872251E+03  0.00000000000E+00 0.  1.
         -1    1    1    2    0  502 -0.29829933909E+02  0.17520669971E+02 -0.28082331531E+03  0.28294616671E+03  0.00000000000E+00 0. -1.
<mgrwt>
<rscale>  1 0.30000000E+03</rscale>
<asrwt>0</asrwt>
<pdfrwt beam="1">  1       21 0.53848287E-02 0.30000000E+03</pdfrwt>
<pdfrwt beam="2">0</pdfrwt>
<totfact> 0.25377852E+04</totfact>
</mgrwt>
</event>
<event>
 6    1  0.1284012E-001  0.3000000E+03  0.7818608E-02  0.1093470E+00
         21   -1    0    0  501  502  0.00000000000E+00  0.00000000000E+00  0.10686821811E+01  0.10686821811E+01  0.00000000000E+00 0. -1.
         13   -1    0    0    0    0 -0.00000000000E+00 -0.00000000000E+00 -0.10000000000E+04  0.10000000000E+04  0.00000000000E+00 0.  1.
    9000005    2    1    2  501    0  0.12418160638E+02 -0.29533439885E+02 -0.43871749153E+03  0.43993949389E+03  0.68764908330E+01 0.  0.
         13    1    3    3    0    0  0.88891031450E+01 -0.24516877184E+02 -0.31861312332E+03  0.31967861326E+03  0.00000000000E+00 0.  1.
          3    1    3    3  501    0  0.35290574927E+01 -0.50165627008E+01 -0.12010436821E+03  0.12026088064E+03  0.00000000000E+00 0.  1.
         -3    1    1    2    0  502 -0.12418160638E+02  0.29533439885E+02 -0.56021382629E+03  0.56112918829E+03  0.00000000000E+00 0. -1.
<mgrwt>
<rscale>  1 0.30000000E+03</rscale>
<asrwt>0</asrwt>
<pdfrwt beam="1">  1       21 0.38861252E-02 0.30000000E+03</pdfrwt>
<pdfrwt beam="2">0</pdfrwt>
<totfact> 0.44141466E+04</totfact>
</mgrwt>
</event>
<event>
 6    1  0.1284012E-001  0.3000000E+03  0.7818608E-02  0.1093470E+00
         21   -1    0    0  501  502  0.00000000000E+00  0.00000000000E+00  0.10526516516E+01  0.10526516516E+01  0.00000000000E+00 0. -1.
         13   -1    0    0    0    0 -0.00000000000E+00 -0.00000000000E+00 -0.10000000000E+04  0.10000000000E+04  0.00000000000E+00 0.  1.
    9000005    2    1    2  501    0 -0.29964371234E+02 -0.86722194922E+01 -0.63206079497E+03  0.63284236664E+03  0.39422771305E+01 0.  0.
         13    1    3    3    0    0 -0.21110009292E+02 -0.66096341953E+01 -0.41124534535E+03  0.41183984002E+03  0.00000000000E+00 0.  1.
          1    1    3    3  501    0 -0.88543619418E+01 -0.20625852969E+01 -0.22081544962E+03  0.22100252663E+03  0.00000000000E+00 0.  1.
         -1    1    1    2    0  502  0.29964371234E+02  0.86722194922E+01 -0.36688655338E+03  0.36821028501E+03  0.00000000000E+00 0. -1.
<mgrwt>
<rscale>  1 0.30000000E+03</rscale>
<asrwt>0</asrwt>
<pdfrwt beam="1">  1       21 0.38278323E-02 0.30000000E+03</pdfrwt>
<pdfrwt beam="2">0</pdfrwt>
<totfact> 0.45277436E+04</totfact>
</mgrwt>
</event>
<event>
 6    1  0.1284012E-001  0.3000000E+03  0.7818608E-02  0.1093470E+00
         21   -1    0    0  501  502  0.00000000000E+00  0.00000000000E+00  0.13561184687E+01  0.13561184687E+01  0.00000000000E+00 0. -1.
         13   -1    0    0    0    0 -0.00000000000E+00 -0.00000000000E+00 -0.10000000000E+04  0.10000000000E+04  0.00000000000E+00 0.  1.
    9000005    2    1    2  501    0  0.23100807114E+02  0.19497848516E+02 -0.78439576700E+03  0.78498590803E+03  0.35132788936E+01 0.  0.
         13    1    3    3    0    0  0.20886718343E+02  0.18824691739E+02 -0.72340174796E+03  0.72394800433E+03  0.00000000000E+00 0.  1.
          3    1    3    3  501    0  0.22140887705E+01  0.67315677703E+00 -0.60994019040E+02  0.61037903698E+02  0.00000000000E+00 0.  1.
         -1    1    1    2    0  502 -0.23100807114E+02 -0.19497848516E+02 -0.21424811453E+03  0.21637021044E+03  0.00000000000E+00 0. -1.
<mgrwt>
<rscale>  1 0.30000000E+03</rscale>
<asrwt>0</asrwt>
<pdfrwt beam="1">  1       21 0.49313503E-02 0.30000000E+03</pdfrwt>
<pdfrwt beam="2">0</pdfrwt>
<totfact> 0.29491353E+04</totfact>
</mgrwt>
</event>
<event>
 6    1  0.1284012E-001  0.3000000E+03  0.7818608E-02  0.1093470E+00
         21   -1    0    0  501  502  0.00000000000E+00  0.00000000000E+00  0.35854629359E+01  0.35854629359E+01  0.00000000000E+00 0. -1.
         13   -1    0    0    0    0 -0.00000000000E+00 -0.00000000000E+00 -0.10000000000E+04  0.10000000000E+04  0.00000000000E+00 0.  1.
    9000005    2    1    2  501    0  0.42523798697E+02  0.37952646696E+02 -0.65117263484E+03  0.65367026193E+03  0.32146717012E+01 0.  0.
         13    1    3    3    0    0  0.28614634756E+02  0.27449980516E+02 -0.44777282567E+03  0.44952508513E+03  0.00000000000E+00 0.  1.
          1    1    3    3  501    0  0.13909163941E+02  0.10502666180E+02 -0.20339980917E+03  0.20414517680E+03  0.00000000000E+00 0.  1.
         -3    1    1    2    0  502 -0.42523798697E+02 -0.37952646696E+02 -0.34524190222E+03  0.34991520101E+03  0.00000000000E+00 0. -1.
<mgrwt>
<rscale>  1 0.30000000E+03</rscale>
<asrwt>0</asrwt>
<pdfrwt beam="1">  1       21 0.13038075E-01 0.30000000E+03</pdfrwt>
<pdfrwt beam="2">0</pdfrwt>
<totfact> 0.53279904E+03</totfact>
</mgrwt>
</event>
<event>
 6    1  0.1284012E-001  0.3000000E+03  0.7818608E-02  0.1093470E+00
         21   -1    0    0  501  502  0.00000000000E+00  0.00000000000E+00  0.21423464842E+01  0.21423464842E+01  0.00000000000E+00 0. -1.
         13   -1    0    0    0    0 -0.00000000000E+00 -0.00000000000E+00 -0.10000000000E+04  0.10000000000E+04  0.00000000000E+00 0.  1.
    9000005    2    1    2  501    0  0.45507623655E+02  0.74376929788E+01 -0.47500354033E+03  0.47725884821E+03  0.46240435693E+01 0.  0.
         13    1    3    3    0    0  0.44166208347E+02  0.67299217718E+01 -0.46496055402E+03  0.46710198308E+03  0.00000000000E+00 0.  1.
          1    1    3    3  501    0  0.13414153083E+01  0.70777120697E+00 -0.10042986313E+02  0.10156865127E+02  0.00000000000E+00 0.  1.
         -1    1    1    2    0  502 -0.45507623655E+02 -0.74376929788E+01 -0.52285411319E+03  0.52488349828E+03  0.00000000000E+00 0. -1.
<mgrwt>
<rscale>  1 0.30000000E+03</rscale>
<asrwt>0</asrwt>
<pdfrwt beam="1">  1       21 0.77903673E-02 0.30000000E+03</pdfrwt>
<pdfrwt beam="2">0</pdfrwt>
<totfact> 0.13383303E+04</totfact>
</mgrwt>
</event>
<event>
 6    1  0.1284012E-001  0.3000000E+03  0.7818608E-02  0.1093470E+00
         21   -1    0    0  501  502  0.00000000000E+00  0.00000000000E+00  0.13628624084E+01  0.13628624084E+01  0.00000000000E+00 0. -1.
         13   -1    0    0    0    0 -0.00000000000E+00 -0.00000000000E+00 -0.10000000000E+04  0.10000000000E+04  0.00000000000E+00 0.  1.
    9000005    2    1    2  501    0 -0.28205343456E+02  0.14147707595E+02 -0.75809175607E+03  0.75875663907E+03  0.35815759957E+01 0.  0.
         13    1    3    3    0    0 -0.13684176270E+02  0.61318529616E+01 -0.32038597257E+03  0.32073669531E+03  0.00000000000E+00 0.  1.
          3    1    3    3  501    0 -0.14521167186E+02  0.80158546331E+01 -0.43770578350E+03  0.43801994376E+03  0.00000000000E+00 0.  1.
         -3    1    1    2    0  502  0.28205343456E+02 -0.14147707595E+02 -0.24054538152E+03  0.24260622333E+03  0.00000000000E+00 0. -1.
<mgrwt>
<rscale>  1 0.30000000E+03</rscale>
<asrwt>0</asrwt>
<pdfrwt beam="1">  1       21 0.49558738E-02 0.30000000E+03</pdfrwt>
<pdfrwt beam="2">0</pdfrwt>
<totfact> 0.29243144E+04</totfact>
</mgrwt>
</event>
<event>
 6    1  0.1284012E-001  0.3000000E+03  0.7818608E-02  0.1093470E+00
         21   -1    0    0  501  502  0.00000000000E+00  0.00000000000E+00  0.17981459945E+01  0.17981459945E+01  0.00000000000E+00 0. -1.
         13   -1    0    0    0    0 -0.00000000000E+00 -0.00000000000E+00 -0.10000000000E+04  0.10000000000E+04  0.00000000000E+00 0.  1.
    9000005    2    1    2  501    0  0.66627086410E+01 -0.38717537262E+02 -0.68651722792E+03  0.68764731356E+03  0.30796499902E+01 0.  0.
         13    1    3    3    0    0  0.59909742838E+01 -0.31880783502E+02 -0.54692023742E+03  0.54788139431E+03  0.00000000000E+00 0.  1.
          3    1    3    3  501    0  0.67173435715E+00 -0.68367537599E+01 -0.13959699050E+03  0.13976591925E+03  0.00000000000E+00 0.  1.
         -3    1    1    2    0  502 -0.66627086410E+01  0.38717537262E+02 -0.31168462609E+03  0.31415083243E+03  0.00000000000E+00 0. -1.
<mgrwt>
<rscale>  1 0.30000000E+03</rscale>
<asrwt>0</asrwt>
<pdfrwt beam="1">  1       21 0.65387265E-02 0.30000000E+03</pdfrwt>
<pdfrwt beam="2">0</pdfrwt>
<totfact> 0.18162251E+04</totfact>
</mgrwt>
</event>
<event>
 6    1  0.1284012E-001  0.3000000E+03  0.7818608E-02  0.1093470E+00
         21   -1    0    0  501  502  0.00000000000E+00  0.00000000000E+00  0.91642539969E+01  0.91642539969E+01  0.00000000000E+00 0. -1.
         13   -1    0    0    0    0 -0.00000000000E+00 -0.00000000000E+00 -0.10000000000E+04  0.10000000000E+04  0.00000000000E+00 0.  1.
    9000005    2    1    2  501    0 -0.21363836009E+02  0.33756188709E+02 -0.95394928753E+03  0.95479050497E+03  0.31259277558E+01 0.  0.
         13    1    3    3    0    0 -0.26899101214E+01  0.31824794455E+01 -0.11915011686E+03  0.11922295978E+03  0.00000000000E+00 0.  1.
          1    1    3    3  501    0 -0.18673925887E+02  0.30573709264E+02 -0.83479917067E+03  0.83556754518E+03  0.00000000000E+00 0.  1.
         -1    1    1    2    0  502  0.21363836009E+02 -0.33756188709E+02 -0.36886458471E+02  0.54373749032E+02  0.00000000000E+00 0. -1.
<mgrwt>
<rscale>  1 0.30000000E+03</rscale>
<asrwt>0</asrwt>
<pdfrwt beam="1">  1       21 0.33324630E-01 0.30000000E+03</pdfrwt>
<pdfrwt beam="2">0</pdfrwt>
<totfact> 0.87953540E+02</totfact>
</mgrwt>
</event>
<event>
 6    1  0.1284012E-001  0.3000000E+03  0.7818608E-02  0.1093470E+00
         21   -1    0    0  501  502  0.00000000000E+00  0.00000000000E+00  0.15442448960E+01  0.15442448960E+01  0.00000000000E+00 0. -1.
         13   -1    0    0    0    0 -0.00000000000E+00 -0.00000000000E+00 -0.10000000000E+04  0.10000000000E+04  0.00000000000E+00 0.  1.
    9000005    2    1    2  501    0 -0.59608456609E+00 -0.38098260074E+02 -0.60971608209E+03  0.61094167692E+03  0.66482401021E+01 0.  0.
         13    1    3    3    0    0  0.15232917541E+01 -0.41248116040E+01 -0.50767515308E+02  0.50957581370E+02  0.00000000000E+00 0.  1.
          1    1    3    3  501    0 -0.21193763202E+01 -0.33973448470E+02 -0.55894856678E+03  0.55998409555E+03  0.00000000000E+00 0.  1.
         -3    1    1    2    0  502  0.59608456609E+00  0.38098260074E+02 -0.38873967301E+03  0.39060256798E+03  0.00000000000E+00 0. -1.
<mgrwt>
<rscale>  1 0.30000000E+03</rscale>
<asrwt>0</asrwt>
<pdfrwt beam="1">  1       21 0.56154478E-02 0.30000000E+03</pdfrwt>
<pdfrwt beam="2">0</pdfrwt>
<totfact> 0.23617075E+04</totfact>
</mgrwt>
</event>
<event>
 6    1  0.1284012E-001  0.3000000E+03  0.7818608E-02  0.1093470E+00
         21   -1    0    0  501  502  0.00000000000E+00  0.00000000000E+00  0.11186341343E+01  0.11186341343E+01  0.00000000000E+00 0. -1.
         13   -1    0    0    0    0 -0.00000000000E+00 -0.00000000000E+00 -0.10000000000E+04  0.10000000000E+04  0.00000000000E+00 0.  1.
    9000005    2    1    2  501    0 -0.20441209517E+02  0.24891006270E+02 -0.63061238891E+03  0.63144385189E+03  0.34565593613E+01 0.  0.
         13    1    3    3    0    0 -0.56411444972E+01  0.46015015577E+01 -0.14181629620E+03  0.14200302179E+03  0.00000000000E+00 0.  1.
          3    1    3    3  501    0 -0.14800065020E+02  0.20289504713E+02 -0.48879609271E+03  0.48944083010E+03  0.00000000000E+00 0.  1.
         -3    1    1    2    0  502  0.20441209517E+02 -0.24891006270E+02 -0.36826897695E+03  0.36967478224E+03  0.00000000000E+00 0. -1.
<mgrwt>
<rscale>  1 0.30000000E+03</rscale>
<asrwt>0</asrwt>
<pdfrwt beam="1">  1       21 0.40677691E-02 0.30000000E+03</pdfrwt>
<pdfrwt beam="2">0</pdfrwt>
<totfact> 0.40873876E+04</totfact>
</mgrwt>
</event>
<event>
 6    1  0.1284012E-001  0.3000000E+03  0.7818608E-02  0.1093470E+00
         21   -1    0    0  501  502  0.00000000000E+00  0.00000000000E+00  0.15872860211E+01  0.15872860211E+01  0.00000000000E+00 0. -1.
         13   -1    0    0    0    0 -0.00000000000E+00 -0.00000000000E+00 -0.10000000000E+04  0.10000000000E+04  0.00000000000E+00 0.  1.
    9000005    2    1    2  501    0 -0.35319021398E+02 -0.69370403521E+01 -0.71293198661E+03  0.71384642778E+03  0.30247518120E+01 0.  0.
         13    1    3    3    0    0 -0.10623760123E+02 -0.32671605256E+01 -0.20451473621E+03  0.20481654216E+03  0.00000000000E+00 0.  1.
          1    1    3    3  501    0 -0.24695261275E+02 -0.36698798265E+01 -0.50841725040E+03  0.50902988562E+03  0.00000000000E+00 0.  1.
         -1    1    1    2    0  502  0.35319021398E+02  0.69370403521E+01 -0.28548072737E+03  0.28774085824E+03  0.00000000000E+00 0. -1.
<mgrwt>
<rscale>  1 0.30000000E+03</rscale>
<asrwt>0</asrwt>
<pdfrwt beam="1">  1       21 0.57719613E-02 0.30000000E+03</pdfrwt>
<pdfrwt beam="2">0</pdfrwt>
<totfact> 0.22526747E+04</totfact>
</mgrwt>
</event>
<event>
 6    1  0.1284012E-001  0.3000000E+03  0.7818608E-02  0.1093470E+00
         21   -1    0    0  501  502  0.00000000000E+00  0.00000000000E+00  0.14095349335E+01  0.14095349335E+01  0.00000000000E+00 0. -1.
         13   -1    0    0    0    0 -0.00000000000E+00 -0.00000000000E+00 -0.10000000000E+04  0.10000000000E+04  0.00000000000E+00 0.  1.
    9000005    2    1    2  501    0  0.28580507728E+02 -0.12836887493E+02 -0.77494963428E+03  0.77558470836E+03  0.17530165726E+01 0.  0.
         13    1    3    3    0    0  0.13013557627E+02 -0.50659344317E+01 -0.35755069530E+03  0.35782330288E+03  0.00000000000E+00 0.  1.
          1    1    3    3  501    0  0.15566950101E+02 -0.77709530612E+01 -0.41739893898E+03  0.41776140548E+03  0.00000000000E+00 0.  1.
         -3    1    1    2    0  502 -0.28580507728E+02  0.12836887493E+02 -0.22364083078E+03  0.22582482657E+03  0.00000000000E+00 0. -1.
<mgrwt>
<rscale>  1 0.30000000E+03</rscale>
<asrwt>0</asrwt>
<pdfrwt beam="1">  1       21 0.51255924E-02 0.30000000E+03</pdfrwt>
<pdfrwt beam="2">0</pdfrwt>
<totfact> 0.27611132E+04</totfact>
</mgrwt>
</event>
<event>
 6    1  0.1284012E-001  0.3000000E+03  0.7818608E-02  0.1093470E+00
         21   -1    0    0  501  502  0.00000000000E+00  0.00000000000E+00  0.75231943407E+01  0.75231943407E+01  0.00000000000E+00 0. -1.
         13   -1    0    0    0    0 -0.00000000000E+00 -0.00000000000E+00 -0.10000000000E+04  0.10000000000E+04  0.00000000000E+00 0.  1.
    9000005    2    1    2  501    0  0.26405287584E+02  0.47250510496E+02 -0.88980212629E+03  0.89145450891E+03  0.36698156398E+01 0.  0.
         13    1    3    3    0    0  0.10176107865E+02  0.20536796152E+02 -0.39985197489E+03  0.40050832075E+03  0.00000000000E+00 0.  1.
          1    1    3    3  501    0  0.16229179719E+02  0.26713714343E+02 -0.48995015141E+03  0.49094618816E+03  0.00000000000E+00 0.  1.
         -3    1    1    2    0  502 -0.26405287584E+02 -0.47250510496E+02 -0.10267467937E+03  0.11606868543E+03  0.00000000000E+00 0. -1.
<mgrwt>
<rscale>  1 0.30000000E+03</rscale>
<asrwt>0</asrwt>
<pdfrwt beam="1">  1       21 0.27357128E-01 0.30000000E+03</pdfrwt>
<pdfrwt beam="2">0</pdfrwt>
<totfact> 0.13061135E+03</totfact>
</mgrwt>
</event>
<event>
 6    1  0.1284012E-001  0.3000000E+03  0.7818608E-02  0.1093470E+00
         21   -1    0    0  501  502  0.00000000000E+00  0.00000000000E+00  0.57191533106E+01  0.57191533106E+01  0.00000000000E+00 0. -1.
         13   -1    0    0    0    0 -0.00000000000E+00 -0.00000000000E+00 -0.10000000000E+04  0.10000000000E+04  0.00000000000E+00 0.  1.
    9000005    2    1    2  501    0 -0.31624347891E+02 -0.28716610634E+02 -0.91194325805E+03  0.91296020976E+03  0.55763424703E+01 0.  0.
         13    1    3    3    0    0 -0.26578081947E+01 -0.67553734338E+00 -0.65503889327E+02  0.65561267621E+02  0.00000000000E+00 0.  1.
          1    1    3    3  501    0 -0.28966539696E+02 -0.28041073291E+02 -0.84643936872E+03  0.84739894214E+03  0.00000000000E+00 0.  1.
         -3    1    1    2    0  502  0.31624347891E+02  0.28716610634E+02 -0.82337588642E+02  0.92758943554E+02  0.00000000000E+00 0. -1.
<mgrwt>
<rscale>  1 0.30000000E+03</rscale>
<asrwt>0</asrwt>
<pdfrwt beam="1">  1       21 0.20796965E-01 0.30000000E+03</pdfrwt>
<pdfrwt beam="2">0</pdfrwt>
<totfact> 0.22264863E+03</totfact>
</mgrwt>
</event>
<event>
 6    1  0.1284012E-001  0.3000000E+03  0.7818608E-02  0.1093470E+00
         21   -1    0    0  501  502  0.00000000000E+00  0.00000000000E+00  0.19974264441E+01  0.19974264441E+01  0.00000000000E+00 0. -1.
         13   -1    0    0    0    0 -0.00000000000E+00 -0.00000000000E+00 -0.10000000000E+04  0.10000000000E+04  0.00000000000E+00 0.  1.
    9000005    2    1    2  501    0  0.22946501237E+02  0.21682292305E+02 -0.85317467474E+03  0.85376860335E+03  0.41398961769E+01 0.  0.
         13    1    3    3    0    0  0.21353217747E+02  0.20916825703E+02 -0.77988046867E+03  0.78045308566E+03  0.00000000000E+00 0.  1.
          1    1    3    3  501    0  0.15932834902E+01  0.76546660208E+00 -0.73294206072E+02  0.73315517696E+02  0.00000000000E+00 0.  1.
         -3    1    1    2    0  502 -0.22946501237E+02 -0.21682292305E+02 -0.14482789882E+03  0.14822882309E+03  0.00000000000E+00 0. -1.
<mgrwt>
<rscale>  1 0.30000000E+03</rscale>
<asrwt>0</asrwt>
<pdfrwt beam="1">  1       21 0.72633842E-02 0.30000000E+03</pdfrwt>
<pdfrwt beam="2">0</pdfrwt>
<totfact> 0.15129208E+04</totfact>
</mgrwt>
</event>
<event>
 6    1  0.1284012E-001  0.3000000E+03  0.7818608E-02  0.1093470E+00
         21   -1    0    0  501  502  0.00000000000E+00  0.00000000000E+00  0.14160965238E+01  0.14160965238E+01  0.00000000000E+00 0. -1.
         13   -1    0    0    0    0 -0.00000000000E+00 -0.00000000000E+00 -0.10000000000E+04  0.10000000000E+04  0.00000000000E+00 0.  1.
    9000005    2    1    2  501    0  0.36610123930E+01 -0.36129915851E+02 -0.37206764226E+03  0.37384825206E+03  0.30677880434E+01 0.  0.
         13    1    3    3    0    0  0.39674457160E+01 -0.35000734725E+02 -0.35617108245E+03  0.35790869231E+03  0.00000000000E+00 0.  1.
          3    1    3    3  501    0 -0.30643332298E+00 -0.11291811252E+01 -0.15896559806E+02  0.15939559751E+02  0.00000000000E+00 0.  1.
         -1    1    1    2    0  502 -0.36610123930E+01  0.36129915851E+02 -0.62651626122E+03  0.62756784446E+03  0.00000000000E+00 0. -1.
<mgrwt>
<rscale>  1 0.30000000E+03</rscale>
<asrwt>0</asrwt>
<pdfrwt beam="1">  1       21 0.51494528E-02 0.30000000E+03</pdfrwt>
<pdfrwt beam="2">0</pdfrwt>
<totfact> 0.27393079E+04</totfact>
</mgrwt>
</event>
<event>
 6    1  0.1284012E-001  0.3000000E+03  0.7818608E-02  0.1093470E+00
         21   -1    0    0  501  502  0.00000000000E+00  0.00000000000E+00  0.28317011751E+01  0.28317011751E+01  0.00000000000E+00 0. -1.
         13   -1    0    0    0    0 -0.00000000000E+00 -0.00000000000E+00 -0.10000000000E+04  0.10000000000E+04  0.00000000000E+00 0.  1.
    9000005    2    1    2  501    0 -0.38294015697E+02  0.36116913380E+02 -0.45993461482E+03  0.46302535228E+03  0.90423382286E+01 0.  0.
         13    1    3    3    0    0 -0.51222395164E+01  0.94374995665E+01 -0.10469033463E+03  0.10523958333E+03  0.00000000000E+00 0.  1.
          3    1    3    3  501    0 -0.33171776181E+02  0.26679413814E+02 -0.35524428019E+03  0.35778576895E+03  0.00000000000E+00 0.  1.
         -1    1    1    2    0  502  0.38294015697E+02 -0.36116913380E+02 -0.53723368401E+03  0.53980634889E+03  0.00000000000E+00 0. -1.
<mgrwt>
<rscale>  1 0.30000000E+03</rscale>
<asrwt>0</asrwt>
<pdfrwt beam="1">  1       21 0.10297117E-01 0.30000000E+03</pdfrwt>
<pdfrwt beam="2">0</pdfrwt>
<totfact> 0.81642923E+03</totfact>
</mgrwt>
</event>
<event>
 6    1  0.1284012E-001  0.3000000E+03  0.7818608E-02  0.1093470E+00
         21   -1    0    0  501  502  0.00000000000E+00  0.00000000000E+00  0.21207663972E+01  0.21207663972E+01  0.00000000000E+00 0. -1.
         13   -1    0    0    0    0 -0.00000000000E+00 -0.00000000000E+00 -0.10000000000E+04  0.10000000000E+04  0.00000000000E+00 0.  1.
    9000005    2    1    2  501    0  0.25095037606E+02  0.28755208488E+02 -0.77896183370E+03  0.77990139077E+03  0.28316113840E+01 0.  0.
         13    1    3    3    0    0  0.22408383921E+02  0.25116523251E+02 -0.70244634234E+03  0.70325232974E+03  0.00000000000E+00 0.  1.
          1    1    3    3  501    0  0.26866536844E+01  0.36386852376E+01 -0.76515491360E+02  0.76649061027E+02  0.00000000000E+00 0.  1.
         -1    1    1    2    0  502 -0.25095037606E+02 -0.28755208488E+02 -0.21891739990E+03  0.22221937563E+03  0.00000000000E+00 0. -1.
<mgrwt>
<rscale>  1 0.30000000E+03</rscale>
<asrwt>0</asrwt>
<pdfrwt beam="1">  1       21 0.77118941E-02 0.30000000E+03</pdfrwt>
<pdfrwt beam="2">0</pdfrwt>
<totfact> 0.13623018E+04</totfact>
</mgrwt>
</event>
<event>
 6    1  0.1284012E-001  0.3000000E+03  0.7818608E-02  0.1093470E+00
         21   -1    0    0  501  502  0.00000000000E+00  0.00000000000E+00  0.22338694153E+01  0.22338694153E+01  0.00000000000E+00 0. -1.
         13   -1    0    0    0    0 -0.00000000000E+00 -0.00000000000E+00 -0.10000000000E+04  0.10000000000E+04  0.00000000000E+00 0.  1.
    9000005    2    1    2  501    0 -0.35053133041E+02  0.30953352619E+02 -0.43247346920E+03  0.43501025814E+03  0.37136167801E+01 0.  0.
         13    1    3    3    0    0 -0.11099373680E+02  0.10590355433E+02 -0.12702429580E+03  0.12794734639E+03  0.00000000000E+00 0.  1.
          3    1    3    3  501    0 -0.23953759361E+02  0.20362997186E+02 -0.30544917340E+03  0.30706291175E+03  0.00000000000E+00 0.  1.
         -3    1    1    2    0  502  0.35053133041E+02 -0.30953352619E+02 -0.56529266138E+03  0.56722361127E+03  0.00000000000E+00 0. -1.
<mgrwt>
<rscale>  1 0.30000000E+03</rscale>
<asrwt>0</asrwt>
<pdfrwt beam="1">  1       21 0.81231786E-02 0.30000000E+03</pdfrwt>
<pdfrwt beam="2">0</pdfrwt>
<totfact> 0.12435446E+04</totfact>
</mgrwt>
</event>
<event>
 6    1  0.1284012E-001  0.3000000E+03  0.7818608E-02  0.1093470E+00
         21   -1    0    0  501  502  0.00000000000E+00  0.00000000000E+00  0.11249973553E+01  0.11249973553E+01  0.00000000000E+00 0. -1.
         13   -1    0    0    0    0 -0.00000000000E+00 -0.00000000000E+00 -0.10000000000E+04  0.10000000000E+04  0.00000000000E+00 0.  1.
    9000005    2    1    2  501    0  0.91590631733E+01  0.30719209148E+02 -0.64364182104E+03  0.64444843300E+03  0.33809396172E+01 0.  0.
         13    1    3    3    0    0  0.62970595113E+01  0.15246154819E+02 -0.32544616173E+03  0.32586393231E+03  0.00000000000E+00 0.  1.
          1    1    3    3  501    0  0.28620036620E+01  0.15473054328E+02 -0.31819565930E+03  0.31858450068E+03  0.00000000000E+00 0.  1.
         -3    1    1    2    0  502 -0.91590631733E+01 -0.30719209148E+02 -0.35523318161E+03  0.35667656436E+03  0.00000000000E+00 0. -1.
<mgrwt>
<rscale>  1 0.30000000E+03</rscale>
<asrwt>0</asrwt>
<pdfrwt beam="1">  1       21 0.40909081E-02 0.30000000E+03</pdfrwt>
<pdfrwt beam="2">0</pdfrwt>
<totfact> 0.40484897E+04</totfact>
</mgrwt>
</event>
<event>
 6    1  0.1284012E-001  0.3000000E+03  0.7818608E-02  0.1093470E+00
         21   -1    0    0  501  502  0.00000000000E+00  0.00000000000E+00  0.12422101128E+01  0.12422101128E+01  0.00000000000E+00 0. -1.
         13   -1    0    0    0    0 -0.00000000000E+00 -0.00000000000E+00 -0.10000000000E+04  0.10000000000E+04  0.00000000000E+00 0.  1.
    9000005    2    1    2  501    0  0.34284511866E+02  0.42900371765E+01 -0.40577236355E+03  0.40725100813E+03  0.28879814986E+01 0.  0.
         13    1    3    3    0    0  0.10427020272E+01  0.65312748826E+00 -0.15192475859E+02  0.15242215251E+02  0.00000000000E+00 0.  1.
          1    1    3    3  501    0  0.33241809839E+02  0.36369096882E+01 -0.39057988769E+03  0.39200879288E+03  0.00000000000E+00 0.  1.
         -3    1    1    2    0  502 -0.34284511866E+02 -0.42900371765E+01 -0.59298542634E+03  0.59399120198E+03  0.00000000000E+00 0. -1.
<mgrwt>
<rscale>  1 0.30000000E+03</rscale>
<asrwt>0</asrwt>
<pdfrwt beam="1">  1       21 0.45171372E-02 0.30000000E+03</pdfrwt>
<pdfrwt beam="2">0</pdfrwt>
<totfact> 0.34236615E+04</totfact>
</mgrwt>
</event>
<event>
 6    1  0.1284012E-001  0.3000000E+03  0.7818608E-02  0.1093470E+00
         21   -1    0    0  501  502  0.00000000000E+00  0.00000000000E+00  0.11748463913E+01  0.11748463913E+01  0.00000000000E+00 0. -1.
         13   -1    0    0    0    0 -0.00000000000E+00 -0.00000000000E+00 -0.10000000000E+04  0.10000000000E+04  0.00000000000E+00 0.  1.
    9000005    2    1    2  501    0  0.31065163358E+02  0.78687734288E+01 -0.32602966005E+03  0.32761658008E+03  0.32128395844E+01 0.  0.
         13    1    3    3    0    0  0.87834001222E+01  0.37035223129E+01 -0.99637705702E+02  0.10009264005E+03  0.00000000000E+00 0.  1.
          3    1    3    3  501    0  0.22281763236E+02  0.41652511158E+01 -0.22639195435E+03  0.22752394003E+03  0.00000000000E+00 0.  1.
         -1    1    1    2    0  502 -0.31065163358E+02 -0.78687734288E+01 -0.67279549355E+03  0.67355826631E+03  0.00000000000E+00 0. -1.
<mgrwt>
<rscale>  1 0.30000000E+03</rscale>
<asrwt>0</asrwt>
<pdfrwt beam="1">  1       21 0.42721777E-02 0.30000000E+03</pdfrwt>
<pdfrwt beam="2">0</pdfrwt>
<totfact> 0.37627477E+04</totfact>
</mgrwt>
</event>
<event>
 6    1  0.1284012E-001  0.3000000E+03  0.7818608E-02  0.1093470E+00
         21   -1    0    0  501  502  0.00000000000E+00  0.00000000000E+00  0.10672681759E+02  0.10672681759E+02  0.00000000000E+00 0. -1.
         13   -1    0    0    0    0 -0.00000000000E+00 -0.00000000000E+00 -0.10000000000E+04  0.10000000000E+04  0.00000000000E+00 0.  1.
    9000005    2    1    2  501    0 -0.50237363824E+02 -0.54371524105E+02 -0.84708203661E+03  0.85031752748E+03  0.34446240541E+01 0.  0.
         13    1    3    3    0    0 -0.83345274546E+01 -0.87734858996E+01 -0.12457288035E+03  0.12515926222E+03  0.00000000000E+00 0.  1.
          1    1    3    3  501    0 -0.41902836369E+02 -0.45598038206E+02 -0.72250915626E+03  0.72515826526E+03  0.00000000000E+00 0.  1.
         -1    1    1    2    0  502  0.50237363824E+02  0.54371524105E+02 -0.14224528163E+03  0.16035515428E+03  0.00000000000E+00 0. -1.
<mgrwt>
<rscale>  1 0.30000000E+03</rscale>
<asrwt>0</asrwt>
<pdfrwt beam="1">  1       21 0.38809834E-01 0.30000000E+03</pdfrwt>
<pdfrwt beam="2">0</pdfrwt>
<totfact> 0.64322462E+02</totfact>
</mgrwt>
</event>
<event>
 6    1  0.1284012E-001  0.3000000E+03  0.7818608E-02  0.1093470E+00
         21   -1    0    0  501  502  0.00000000000E+00  0.00000000000E+00  0.25496972018E+01  0.25496972018E+01  0.00000000000E+00 0. -1.
         13   -1    0    0    0    0 -0.00000000000E+00 -0.00000000000E+00 -0.10000000000E+04  0.10000000000E+04  0.00000000000E+00 0.  1.
    9000005    2    1    2  501    0 -0.17480369761E+02  0.27942447087E+02 -0.87830846709E+03  0.87893286707E+03  0.32981473120E+01 0.  0.
         13    1    3    3    0    0 -0.11646782929E+02  0.21346754175E+02 -0.64872191601E+03  0.64917752255E+03  0.00000000000E+00 0.  1.
          1    1    3    3  501    0 -0.58335868314E+01  0.65956929126E+01 -0.22958655108E+03  0.22975534452E+03  0.00000000000E+00 0.  1.
         -1    1    1    2    0  502  0.17480369761E+02 -0.27942447087E+02 -0.11914183571E+03  0.12361683013E+03  0.00000000000E+00 0. -1.
<mgrwt>
<rscale>  1 0.30000000E+03</rscale>
<asrwt>0</asrwt>
<pdfrwt beam="1">  1       21 0.92716457E-02 0.30000000E+03</pdfrwt>
<pdfrwt beam="2">0</pdfrwt>
<totfact> 0.98447656E+03</totfact>
</mgrwt>
</event>
<event>
 6    1  0.1284012E-001  0.3000000E+03  0.7818608E-02  0.1093470E+00
         21   -1    0    0  501  502  0.00000000000E+00  0.00000000000E+00  0.42901994934E+01  0.42901994934E+01  0.00000000000E+00 0. -1.
         13   -1    0    0    0    0 -0.00000000000E+00 -0.00000000000E+00 -0.10000000000E+04  0.10000000000E+04  0.00000000000E+00 0.  1.
    9000005    2    1    2  501    0  0.36669202771E+02 -0.19992220661E+02 -0.88458076753E+03  0.88557212467E+03  0.32456732357E+01 0.  0.
         13    1    3    3    0    0  0.21319151344E+02 -0.10705598087E+02 -0.53398921530E+03  0.53452184062E+03  0.00000000000E+00 0.  1.
          3    1    3    3  501    0  0.15350051427E+02 -0.92866225737E+01 -0.35059155222E+03  0.35105028405E+03  0.00000000000E+00 0.  1.
         -3    1    1    2    0  502 -0.36669202771E+02  0.19992220661E+02 -0.11112903298E+03  0.11871807482E+03  0.00000000000E+00 0. -1.
<mgrwt>
<rscale>  1 0.30000000E+03</rscale>
<asrwt>0</asrwt>
<pdfrwt beam="1">  1       21 0.15600758E-01 0.30000000E+03</pdfrwt>
<pdfrwt beam="2">0</pdfrwt>
<totfact> 0.38286573E+03</totfact>
</mgrwt>
</event>
<event>
 6    1  0.1284012E-001  0.3000000E+03  0.7818608E-02  0.1093470E+00
         21   -1    0    0  501  502  0.00000000000E+00  0.00000000000E+00  0.12365224901E+01  0.12365224901E+01  0.00000000000E+00 0. -1.
         13   -1    0    0    0    0 -0.00000000000E+00 -0.00000000000E+00 -0.10000000000E+04  0.10000000000E+04  0.00000000000E+00 0.  1.
    9000005    2    1    2  501    0  0.27853028911E+02  0.20180852499E+02 -0.59754509911E+03  0.59854651120E+03  0.38370003925E+01 0.  0.
         13    1    3    3    0    0  0.14300780133E+02  0.11896953261E+02 -0.29702705734E+03  0.29760900961E+03  0.00000000000E+00 0.  1.
          3    1    3    3  501    0  0.13552248778E+02  0.82838992371E+01 -0.30051804177E+03  0.30093750159E+03  0.00000000000E+00 0.  1.
         -3    1    1    2    0  502 -0.27853028911E+02 -0.20180852499E+02 -0.40121837840E+03  0.40269001129E+03  0.00000000000E+00 0. -1.
<mgrwt>
<rscale>  1 0.30000000E+03</rscale>
<asrwt>0</asrwt>
<pdfrwt beam="1">  1       21 0.44964549E-02 0.30000000E+03</pdfrwt>
<pdfrwt beam="2">0</pdfrwt>
<totfact> 0.34504301E+04</totfact>
</mgrwt>
</event>
<event>
 6    1  0.1284012E-001  0.3000000E+03  0.7818608E-02  0.1093470E+00
         21   -1    0    0  501  502  0.00000000000E+00  0.00000000000E+00  0.11473500985E+01  0.11473500985E+01  0.00000000000E+00 0. -1.
         13   -1    0    0    0    0 -0.00000000000E+00 -0.00000000000E+00 -0.10000000000E+04  0.10000000000E+04  0.00000000000E+00 0.  1.
    9000005    2    1    2  501    0 -0.27862866233E+02  0.18260251995E+02 -0.41699824397E+03  0.41834006992E+03  0.33320437843E+01 0.  0.
         13    1    3    3    0    0 -0.20842133375E+02  0.15043306344E+02 -0.33021582822E+03  0.33121471706E+03  0.00000000000E+00 0.  1.
          3    1    3    3  501    0 -0.70207328578E+01  0.32169456508E+01 -0.86782415742E+02  0.87125352861E+02  0.00000000000E+00 0.  1.
         -1    1    1    2    0  502  0.27862866233E+02 -0.18260251995E+02 -0.58185440594E+03  0.58280728017E+03  0.00000000000E+00 0. -1.
<mgrwt>
<rscale>  1 0.30000000E+03</rscale>
<asrwt>0</asrwt>
<pdfrwt beam="1">  1       21 0.41721910E-02 0.30000000E+03</pdfrwt>
<pdfrwt beam="2">0</pdfrwt>
<totfact> 0.39163247E+04</totfact>
</mgrwt>
</event>
<event>
 6    1  0.1284012E-001  0.3000000E+03  0.7818608E-02  0.1093470E+00
         21   -1    0    0  501  502  0.00000000000E+00  0.00000000000E+00  0.27044057018E+01  0.27044057018E+01  0.00000000000E+00 0. -1.
         13   -1    0    0    0    0 -0.00000000000E+00 -0.00000000000E+00 -0.10000000000E+04  0.10000000000E+04  0.00000000000E+00 0.  1.
    9000005    2    1    2  501    0  0.29304315384E+02  0.12983586677E+02 -0.89335593434E+03  0.89393506565E+03  0.27856336617E+01 0.  0.
         13    1    3    3    0    0  0.24598090281E+01  0.19655457795E+01 -0.82336913621E+02  0.82397095673E+02  0.00000000000E+00 0.  1.
          1    1    3    3  501    0  0.26844506356E+02  0.11018040897E+02 -0.81101902072E+03  0.81153796998E+03  0.00000000000E+00 0.  1.
         -3    1    1    2    0  502 -0.29304315384E+02 -0.12983586677E+02 -0.10393965996E+03  0.10876934005E+03  0.00000000000E+00 0. -1.
<mgrwt>
<rscale>  1 0.30000000E+03</rscale>
<asrwt>0</asrwt>
<pdfrwt beam="1">  1       21 0.98342233E-02 0.30000000E+03</pdfrwt>
<pdfrwt beam="2">0</pdfrwt>
<totfact> 0.88639216E+03</totfact>
</mgrwt>
</event>
<event>
 6    1  0.1284012E-001  0.3000000E+03  0.7818608E-02  0.1093470E+00
         21   -1    0    0  501  502  0.00000000000E+00  0.00000000000E+00  0.48117299039E+01  0.48117299039E+01  0.00000000000E+00 0. -1.
         13   -1    0    0    0    0 -0.00000000000E+00 -0.00000000000E+00 -0.10000000000E+04  0.10000000000E+04  0.00000000000E+00 0.  1.
    9000005    2    1    2  501    0 -0.37814760307E+01  0.30644559254E+02 -0.94745075412E+03  0.94795877040E+03  0.30838811727E+01 0.  0.
         13    1    3    3    0    0 -0.10286316432E+01  0.19456296027E+02 -0.61362605961E+03  0.61393529511E+03  0.00000000000E+00 0.  1.
          1    1    3    3  501    0 -0.27528443875E+01  0.11188263227E+02 -0.33382469450E+03  0.33402347529E+03  0.00000000000E+00 0.  1.
         -1    1    1    2    0  502  0.37814760307E+01 -0.30644559254E+02 -0.47737515981E+02  0.56852959508E+02  0.00000000000E+00 0. -1.
<mgrwt>
<rscale>  1 0.30000000E+03</rscale>
<asrwt>0</asrwt>
<pdfrwt beam="1">  1       21 0.17497237E-01 0.30000000E+03</pdfrwt>
<pdfrwt beam="2">0</pdfrwt>
<totfact> 0.30898608E+03</totfact>
</mgrwt>
</event>
<event>
 6    1  0.1284012E-001  0.3000000E+03  0.7818608E-02  0.1093470E+00
         21   -1    0    0  501  502  0.00000000000E+00  0.00000000000E+00  0.23037309000E+01  0.23037309000E+01  0.00000000000E+00 0. -1.
         13   -1    0    0    0    0 -0.00000000000E+00 -0.00000000000E+00 -0.10000000000E+04  0.10000000000E+04  0.00000000000E+00 0.  1.
    9000005    2    1    2  501    0  0.29680114954E+02 -0.26556537232E+02 -0.22166480273E+03  0.22525096841E+03  0.40687968609E+01 0.  0.
         13    1    3    3    0    0  0.18008699009E+02 -0.14280020901E+02 -0.13582082324E+03  0.13775169060E+03  0.00000000000E+00 0.  1.
          1    1    3    3  501    0  0.11671415946E+02 -0.12276516332E+02 -0.85843979488E+02  0.87499277812E+02  0.00000000000E+00 0.  1.
         -3    1    1    2    0  502 -0.29680114954E+02  0.26556537232E+02 -0.77603146637E+03  0.77705276249E+03  0.00000000000E+00 0. -1.
<mgrwt>
<rscale>  1 0.30000000E+03</rscale>
<asrwt>0</asrwt>
<pdfrwt beam="1">  1       21 0.83772209E-02 0.30000000E+03</pdfrwt>
<pdfrwt beam="2">0</pdfrwt>
<totfact> 0.11779489E+04</totfact>
</mgrwt>
</event>
<event>
 6    1  0.1284012E-001  0.3000000E+03  0.7818608E-02  0.1093470E+00
         21   -1    0    0  501  502  0.00000000000E+00  0.00000000000E+00  0.12015560204E+01  0.12015560204E+01  0.00000000000E+00 0. -1.
         13   -1    0    0    0    0 -0.00000000000E+00 -0.00000000000E+00 -0.10000000000E+04  0.10000000000E+04  0.00000000000E+00 0.  1.
    9000005    2    1    2  501    0 -0.31554841697E+02  0.75106150947E+01 -0.67403566730E+03  0.67482297447E+03  0.31382663558E+01 0.  0.
         13    1    3    3    0    0 -0.17697171140E+02  0.37424687400E+01 -0.40626692141E+03  0.40666940796E+03  0.00000000000E+00 0.  1.
          1    1    3    3  501    0 -0.13857670557E+02  0.37681463547E+01 -0.26776874589E+03  0.26815356651E+03  0.00000000000E+00 0.  1.
         -1    1    1    2    0  502  0.31554841697E+02 -0.75106150947E+01 -0.32476277668E+03  0.32637858155E+03  0.00000000000E+00 0. -1.
<mgrwt>
<rscale>  1 0.30000000E+03</rscale>
<asrwt>0</asrwt>
<pdfrwt beam="1">  1       21 0.43693038E-02 0.30000000E+03</pdfrwt>
<pdfrwt beam="2">0</pdfrwt>
<totfact> 0.36223338E+04</totfact>
</mgrwt>
</event>
<event>
 6    1  0.1284012E-001  0.3000000E+03  0.7818608E-02  0.1093470E+00
         21   -1    0    0  501  502  0.00000000000E+00  0.00000000000E+00  0.13274301706E+01  0.13274301706E+01  0.00000000000E+00 0. -1.
         13   -1    0    0    0    0 -0.00000000000E+00 -0.00000000000E+00 -0.10000000000E+04  0.10000000000E+04  0.00000000000E+00 0.  1.
    9000005    2    1    2  501    0 -0.34443907878E+02 -0.10441921706E+02 -0.42846138062E+03  0.42998146071E+03  0.30798300375E+01 0.  0.
         13    1    3    3    0    0 -0.12772705994E+02 -0.53281914307E+01 -0.17079698874E+03  0.17135677111E+03  0.00000000000E+00 0.  1.
          1    1    3    3  501    0 -0.21671201884E+02 -0.51137302753E+01 -0.25766439188E+03  0.25862468960E+03  0.00000000000E+00 0.  1.
         -3    1    1    2    0  502  0.34443907878E+02  0.10441921706E+02 -0.57021118921E+03  0.57134596946E+03  0.00000000000E+00 0. -1.
<mgrwt>
<rscale>  1 0.30000000E+03</rscale>
<asrwt>0</asrwt>
<pdfrwt beam="1">  1       21 0.48270290E-02 0.30000000E+03</pdfrwt>
<pdfrwt beam="2">0</pdfrwt>
<totfact> 0.30584871E+04</totfact>
</mgrwt>
</event>
<event>
 6    1  0.1284012E-001  0.3000000E+03  0.7818608E-02  0.1093470E+00
         21   -1    0    0  501  502  0.00000000000E+00  0.00000000000E+00  0.12787998282E+01  0.12787998282E+01  0.00000000000E+00 0. -1.
         13   -1    0    0    0    0 -0.00000000000E+00 -0.00000000000E+00 -0.10000000000E+04  0.10000000000E+04  0.00000000000E+00 0.  1.
    9000005    2    1    2  501    0 -0.20446242063E+02  0.26267901808E+02 -0.67819979370E+03  0.67903351516E+03  0.48479959851E+01 0.  0.
         13    1    3    3    0    0 -0.10021151259E+02  0.16629813653E+02 -0.40460292809E+03  0.40506851716E+03  0.00000000000E+00 0.  1.
          3    1    3    3  501    0 -0.10425090804E+02  0.96380881552E+01 -0.27359686561E+03  0.27396499800E+03  0.00000000000E+00 0.  1.
         -1    1    1    2    0  502  0.20446242063E+02 -0.26267901808E+02 -0.32052140648E+03  0.32224528467E+03  0.00000000000E+00 0. -1.
<mgrwt>
<rscale>  1 0.30000000E+03</rscale>
<asrwt>0</asrwt>
<pdfrwt beam="1">  1       21 0.46501910E-02 0.30000000E+03</pdfrwt>
<pdfrwt beam="2">0</pdfrwt>
<totfact> 0.32589248E+04</totfact>
</mgrwt>
</event>
<event>
 6    1  0.1284012E-001  0.3000000E+03  0.7818608E-02  0.1093470E+00
         21   -1    0    0  501  502  0.00000000000E+00  0.00000000000E+00  0.22571357279E+01  0.22571357279E+01  0.00000000000E+00 0. -1.
         13   -1    0    0    0    0 -0.00000000000E+00 -0.00000000000E+00 -0.10000000000E+04  0.10000000000E+04  0.00000000000E+00 0.  1.
    9000005    2    1    2  501    0 -0.32354796898E+02  0.38784284449E+01 -0.86331025549E+03  0.86393142809E+03  0.33226673010E+01 0.  0.
         13    1    3    3    0    0 -0.11382510211E+02  0.27266952355E+01 -0.28711411408E+03  0.28735258988E+03  0.00000000000E+00 0.  1.
          3    1    3    3  501    0 -0.20972286688E+02  0.11517332094E+01 -0.57619614141E+03  0.57657883821E+03  0.00000000000E+00 0.  1.
         -3    1    1    2    0  502  0.32354796898E+02 -0.38784284449E+01 -0.13443260878E+03  0.13832570764E+03  0.00000000000E+00 0. -1.
<mgrwt>
<rscale>  1 0.30000000E+03</rscale>
<asrwt>0</asrwt>
<pdfrwt beam="1">  1       21 0.82077836E-02 0.30000000E+03</pdfrwt>
<pdfrwt beam="2">0</pdfrwt>
<totfact> 0.12210905E+04</totfact>
</mgrwt>
</event>
<event>
 6    1  0.1284012E-001  0.3000000E+03  0.7818608E-02  0.1093470E+00
         21   -1    0    0  501  502  0.00000000000E+00  0.00000000000E+00  0.53657010194E+01  0.53657010194E+01  0.00000000000E+00 0. -1.
         13   -1    0    0    0    0 -0.00000000000E+00 -0.00000000000E+00 -0.10000000000E+04  0.10000000000E+04  0.00000000000E+00 0.  1.
    9000005    2    1    2  501    0 -0.73078000656E+01  0.36683523084E+02 -0.92947695446E+03  0.93023538522E+03  0.33731631049E+01 0.  0.
         13    1    3    3    0    0 -0.32615655924E+01  0.17364880032E+02 -0.39779965084E+03  0.39819183703E+03  0.00000000000E+00 0.  1.
          1    1    3    3  501    0 -0.40462344732E+01  0.19318643051E+02 -0.53167730362E+03  0.53204354818E+03  0.00000000000E+00 0.  1.
         -3    1    1    2    0  502  0.73078000656E+01 -0.36683523084E+02 -0.65157344521E+02  0.75130315803E+02  0.00000000000E+00 0. -1.
<mgrwt>
<rscale>  1 0.30000000E+03</rscale>
<asrwt>0</asrwt>
<pdfrwt beam="1">  1       21 0.19511681E-01 0.30000000E+03</pdfrwt>
<pdfrwt beam="2">0</pdfrwt>
<totfact> 0.25149358E+03</totfact>
</mgrwt>
</event>
<event>
 6    1  0.1284012E-001  0.3000000E+03  0.7818608E-02  0.1093470E+00
         21   -1    0    0  501  502  0.00000000000E+00  0.00000000000E+00  0.27741321554E+01  0.27741321554E+01  0.00000000000E+00 0. -1.
         13   -1    0    0    0    0 -0.00000000000E+00 -0.00000000000E+00 -0.10000000000E+04  0.10000000000E+04  0.00000000000E+00 0.  1.
    9000005    2    1    2  501    0  0.19690195392E+02 -0.44680176718E+02 -0.31234706395E+03  0.31615706420E+03  0.32525218000E+01 0.  0.
         13    1    3    3    0    0  0.39407431911E+01 -0.63305092934E+01 -0.50961880776E+02  0.51504544431E+02  0.00000000000E+00 0.  1.
          1    1    3    3  501    0  0.15749452201E+02 -0.38349667425E+02 -0.26138518318E+03  0.26465251977E+03  0.00000000000E+00 0.  1.
         -3    1    1    2    0  502 -0.19690195392E+02  0.44680176718E+02 -0.68487880389E+03  0.68661706796E+03  0.00000000000E+00 0. -1.
<mgrwt>
<rscale>  1 0.30000000E+03</rscale>
<asrwt>0</asrwt>
<pdfrwt beam="1">  1       21 0.10087775E-01 0.30000000E+03</pdfrwt>
<pdfrwt beam="2">0</pdfrwt>
<totfact> 0.84698636E+03</totfact>
</mgrwt>
</event>
<event>
 6    1  0.1284012E-001  0.3000000E+03  0.7818608E-02  0.1093470E+00
         21   -1    0    0  501  502  0.00000000000E+00  0.00000000000E+00  0.10447690265E+01  0.10447690265E+01  0.00000000000E+00 0. -1.
         13   -1    0    0    0    0 -0.00000000000E+00 -0.00000000000E+00 -0.10000000000E+04  0.10000000000E+04  0.00000000000E+00 0.  1.
    9000005    2    1    2  501    0  0.88636000495E+01  0.29554537123E+02 -0.64350007696E+03  0.64425295216E+03  0.41812970176E+01 0.  0.
         13    1    3    3    0    0  0.76308734503E+01  0.21236503151E+02 -0.49653244400E+03  0.49704495495E+03  0.00000000000E+00 0.  1.
          1    1    3    3  501    0  0.12327265992E+01  0.83180339726E+01 -0.14696763296E+03  0.14720799720E+03  0.00000000000E+00 0.  1.
         -1    1    1    2    0  502 -0.88636000495E+01 -0.29554537123E+02 -0.35545515401E+03  0.35679181687E+03  0.00000000000E+00 0. -1.
<mgrwt>
<rscale>  1 0.30000000E+03</rscale>
<asrwt>0</asrwt>
<pdfrwt beam="1">  1       21 0.37991681E-02 0.30000000E+03</pdfrwt>
<pdfrwt beam="2">0</pdfrwt>
<totfact> 0.45852945E+04</totfact>
</mgrwt>
</event>
<event>
 6    1  0.1284012E-001  0.3000000E+03  0.7818608E-02  0.1093470E+00
         21   -1    0    0  501  502  0.00000000000E+00  0.00000000000E+00  0.19325513460E+01  0.19325513460E+01  0.00000000000E+00 0. -1.
         13   -1    0    0    0    0 -0.00000000000E+00 -0.00000000000E+00 -0.10000000000E+04  0.10000000000E+04  0.00000000000E+00 0.  1.
    9000005    2    1    2  501    0 -0.78116808236E+01  0.36955708433E+02 -0.75460054865E+03  0.75555301052E+03  0.34083619140E+01 0.  0.
         13    1    3    3    0    0 -0.31466001309E+01  0.82124242685E+01 -0.16721984636E+03  0.16745095408E+03  0.00000000000E+00 0.  1.
          3    1    3    3  501    0 -0.46650806927E+01  0.28743284164E+02 -0.58738070229E+03  0.58810205644E+03  0.00000000000E+00 0.  1.
         -1    1    1    2    0  502  0.78116808236E+01 -0.36955708433E+02 -0.24346690000E+03  0.24637954083E+03  0.00000000000E+00 0. -1.
<mgrwt>
<rscale>  1 0.30000000E+03</rscale>
<asrwt>0</asrwt>
<pdfrwt beam="1">  1       21 0.70274743E-02 0.30000000E+03</pdfrwt>
<pdfrwt beam="2">0</pdfrwt>
<totfact> 0.16025645E+04</totfact>
</mgrwt>
</event>
<event>
 6    1  0.1284012E-001  0.3000000E+03  0.7818608E-02  0.1093470E+00
         21   -1    0    0  501  502  0.00000000000E+00  0.00000000000E+00  0.13386058180E+01  0.13386058180E+01  0.00000000000E+00 0. -1.
         13   -1    0    0    0    0 -0.00000000000E+00 -0.00000000000E+00 -0.10000000000E+04  0.10000000000E+04  0.00000000000E+00 0.  1.
    9000005    2    1    2  501    0 -0.30853922574E+02 -0.13850171514E+02 -0.68873267501E+03  0.68957009754E+03  0.32295509629E+01 0.  0.
         13    1    3    3    0    0 -0.98093960602E+01 -0.52533057121E+01 -0.20065192329E+03  0.20096023435E+03  0.00000000000E+00 0.  1.
          3    1    3    3  501    0 -0.21044526513E+02 -0.85968658017E+01 -0.48808075172E+03  0.48860986319E+03  0.00000000000E+00 0.  1.
         -1    1    1    2    0  502  0.30853922574E+02  0.13850171514E+02 -0.30992871917E+03  0.31176850828E+03  0.00000000000E+00 0. -1.
<mgrwt>
<rscale>  1 0.30000000E+03</rscale>
<asrwt>0</asrwt>
<pdfrwt beam="1">  1       21 0.48676678E-02 0.30000000E+03</pdfrwt>
<pdfrwt beam="2">0</pdfrwt>
<totfact> 0.30151474E+04</totfact>
</mgrwt>
</event>
<event>
 6    1  0.1284012E-001  0.3000000E+03  0.7818608E-02  0.1093470E+00
         21   -1    0    0  501  502  0.00000000000E+00  0.00000000000E+00  0.18096261236E+02  0.18096261236E+02  0.00000000000E+00 0. -1.
         13   -1    0    0    0    0 -0.00000000000E+00 -0.00000000000E+00 -0.10000000000E+04  0.10000000000E+04  0.00000000000E+00 0.  1.
    9000005    2    1    2  501    0 -0.16750393779E+02  0.52600522889E+02 -0.95515347705E+03  0.95675323228E+03  0.33454524992E+01 0.  0.
         13    1    3    3    0    0 -0.16768048306E+02  0.50751383504E+02 -0.92068903468E+03  0.92223921460E+03  0.00000000000E+00 0.  1.
          1    1    3    3  501    0  0.17654527156E-01  0.18491393857E+01 -0.34464442371E+02  0.34514017676E+02  0.00000000000E+00 0.  1.
         -3    1    1    2    0  502  0.16750393779E+02 -0.52600522889E+02 -0.26750261713E+02  0.61343028958E+02  0.00000000000E+00 0. -1.
<mgrwt>
<rscale>  1 0.30000000E+03</rscale>
<asrwt>0</asrwt>
<pdfrwt beam="1">  1       21 0.65804725E-01 0.30000000E+03</pdfrwt>
<pdfrwt beam="2">0</pdfrwt>
<totfact> 0.20359248E+02</totfact>
</mgrwt>
</event>
<event>
 6    1  0.1284012E-001  0.3000000E+03  0.7818608E-02  0.1093470E+00
         21   -1    0    0  501  502  0.00000000000E+00  0.00000000000E+00  0.17721141197E+01  0.17721141197E+01  0.00000000000E+00 0. -1.
         13   -1    0    0    0    0 -0.00000000000E+00 -0.00000000000E+00 -0.10000000000E+04  0.10000000000E+04  0.00000000000E+00 0.  1.
    9000005    2    1    2  501    0  0.32510330385E+02 -0.58017024975E+01 -0.80931322024E+03  0.80999272985E+03  0.31229208987E+01 0.  0.
         13    1    3    3    0    0  0.24139975493E+02 -0.35399669255E+01 -0.62394691471E+03  0.62442375208E+03  0.00000000000E+00 0.  1.
          1    1    3    3  501    0  0.83703548917E+01 -0.22617355720E+01 -0.18536630552E+03  0.18556897777E+03  0.00000000000E+00 0.  1.
         -3    1    1    2    0  502 -0.32510330385E+02  0.58017024975E+01 -0.18891466564E+03  0.19177938426E+03  0.00000000000E+00 0. -1.
<mgrwt>
<rscale>  1 0.30000000E+03</rscale>
<asrwt>0</asrwt>
<pdfrwt beam="1">  1       21 0.64440649E-02 0.30000000E+03</pdfrwt>
<pdfrwt beam="2">0</pdfrwt>
<totfact> 0.18626626E+04</totfact>
</mgrwt>
</event>
<event>
 6    1  0.1284012E-001  0.3000000E+03  0.7818608E-02  0.1093470E+00
         21   -1    0    0  501  502  0.00000000000E+00  0.00000000000E+00  0.11143760253E+01  0.11143760253E+01  0.00000000000E+00 0. -1.
         13   -1    0    0    0    0 -0.00000000000E+00 -0.00000000000E+00 -0.10000000000E+04  0.10000000000E+04  0.00000000000E+00 0.  1.
    9000005    2    1    2  501    0 -0.44911151142E+00  0.31192818602E+02 -0.67517186766E+03  0.67590092356E+03  0.34371446848E+01 0.  0.
         13    1    3    3    0    0  0.83605132355E+00  0.12284142437E+02 -0.23758691031E+03  0.23790573572E+03  0.00000000000E+00 0.  1.
          1    1    3    3  501    0 -0.12851628350E+01  0.18908676165E+02 -0.43758495735E+03  0.43799518784E+03  0.00000000000E+00 0.  1.
         -3    1    1    2    0  502  0.44911151142E+00 -0.31192818602E+02 -0.32371375632E+03  0.32521345246E+03  0.00000000000E+00 0. -1.
<mgrwt>
<rscale>  1 0.30000000E+03</rscale>
<asrwt>0</asrwt>
<pdfrwt beam="1">  1       21 0.40522850E-02 0.30000000E+03</pdfrwt>
<pdfrwt beam="2">0</pdfrwt>
<totfact> 0.41137440E+04</totfact>
</mgrwt>
</event>
<event>
 6    1  0.1284012E-001  0.3000000E+03  0.7818608E-02  0.1093470E+00
         21   -1    0    0  501  502  0.00000000000E+00  0.00000000000E+00  0.27837680336E+01  0.27837680336E+01  0.00000000000E+00 0. -1.
         13   -1    0    0    0    0 -0.00000000000E+00 -0.00000000000E+00 -0.10000000000E+04  0.10000000000E+04  0.00000000000E+00 0.  1.
    9000005    2    1    2  501    0 -0.41214937487E+02 -0.57294741410E+01 -0.80654476091E+03  0.80762458219E+03  0.33935900117E+01 0.  0.
         13    1    3    3    0    0 -0.36255579061E+02 -0.49610501664E+01 -0.68584078606E+03  0.68681632396E+03  0.00000000000E+00 0.  1.
          1    1    3    3  501    0 -0.49593584261E+01 -0.76842397462E+00 -0.12070397485E+03  0.12080825823E+03  0.00000000000E+00 0.  1.
         -1    1    1    2    0  502  0.41214937487E+02  0.57294741410E+01 -0.19067147105E+03  0.19515918584E+03  0.00000000000E+00 0. -1.
<mgrwt>
<rscale>  1 0.30000000E+03</rscale>
<asrwt>0</asrwt>
<pdfrwt beam="1">  1       21 0.10122814E-01 0.30000000E+03</pdfrwt>
<pdfrwt beam="2">0</pdfrwt>
<totfact> 0.84175153E+03</totfact>
</mgrwt>
</event>
<event>
 6    1  0.1284012E-001  0.3000000E+03  0.7818608E-02  0.1093470E+00
         21   -1    0    0  501  502  0.00000000000E+00  0.00000000000E+00  0.30624977137E+01  0.30624977137E+01  0.00000000000E+00 0. -1.
         13   -1    0    0    0    0 -0.00000000000E+00 -0.00000000000E+00 -0.10000000000E+04  0.10000000000E+04  0.00000000000E+00 0.  1.
    9000005    2    1    2  501    0 -0.22529026615E+02 -0.46264325927E+02 -0.68215590947E+03  0.68410263179E+03  0.34323613446E+01 0.  0.
         13    1    3    3    0    0 -0.92844184135E+01 -0.22862090866E+02 -0.32084205016E+03  0.32178952247E+03  0.00000000000E+00 0.  1.
          1    1    3    3  501    0 -0.13244608201E+02 -0.23402235061E+02 -0.36131385931E+03  0.36231310931E+03  0.00000000000E+00 0.  1.
         -1    1    1    2    0  502  0.22529026615E+02  0.46264325927E+02 -0.31478159282E+03  0.31895986593E+03  0.00000000000E+00 0. -1.
<mgrwt>
<rscale>  1 0.30000000E+03</rscale>
<asrwt>0</asrwt>
<pdfrwt beam="1">  1       21 0.11136379E-01 0.30000000E+03</pdfrwt>
<pdfrwt beam="2">0</pdfrwt>
<totfact> 0.70929400E+03</totfact>
</mgrwt>
</event>
<event>
 6    1  0.1284012E-001  0.3000000E+03  0.7818608E-02  0.1093470E+00
         21   -1    0    0  501  502  0.00000000000E+00  0.00000000000E+00  0.43753200556E+01  0.43753200556E+01  0.00000000000E+00 0. -1.
         13   -1    0    0    0    0 -0.00000000000E+00 -0.00000000000E+00 -0.10000000000E+04  0.10000000000E+04  0.00000000000E+00 0.  1.
    9000005    2    1    2  501    0  0.23522081421E+02 -0.52415726463E+02 -0.74632819533E+03  0.74854445027E+03  0.35102974301E+01 0.  0.
         13    1    3    3    0    0  0.18929384648E+02 -0.42633587906E+02 -0.62279628712E+03  0.62454075902E+03  0.00000000000E+00 0.  1.
          3    1    3    3  501    0  0.45926967730E+01 -0.97821385574E+01 -0.12353190821E+03  0.12400369125E+03  0.00000000000E+00 0.  1.
         -3    1    1    2    0  502 -0.23522081421E+02  0.52415726463E+02 -0.24929648462E+03  0.25583086979E+03  0.00000000000E+00 0. -1.
<mgrwt>
<rscale>  1 0.30000000E+03</rscale>
<asrwt>0</asrwt>
<pdfrwt beam="1">  1       21 0.15910288E-01 0.30000000E+03</pdfrwt>
<pdfrwt beam="2">0</pdfrwt>
<totfact> 0.36911391E+03</totfact>
</mgrwt>
</event>
<event>
 6    1  0.1284012E-001  0.3000000E+03  0.7818608E-02  0.1093470E+00
         21   -1    0    0  501  502  0.00000000000E+00  0.00000000000E+00  0.19287573213E+02  0.19287573213E+02  0.00000000000E+00 0. -1.
         13   -1    0    0    0    0 -0.00000000000E+00 -0.00000000000E+00 -0.10000000000E+04  0.10000000000E+04  0.00000000000E+00 0.  1.
    9000005    2    1    2  501    0  0.57203614970E+02  0.34247290921E+02 -0.93741927615E+03  0.93979274701E+03  0.32214168898E+01 0.  0.
         13    1    3    3    0    0  0.29037339015E+02  0.15507326221E+02 -0.46249389256E+03  0.46366393527E+03  0.00000000000E+00 0.  1.
          1    1    3    3  501    0  0.28166275955E+02  0.18739964700E+02 -0.47492538360E+03  0.47612881174E+03  0.00000000000E+00 0.  1.
         -3    1    1    2    0  502 -0.57203614970E+02 -0.34247290921E+02 -0.43293150633E+02  0.79494826202E+02  0.00000000000E+00 0. -1.
<mgrwt>
<rscale>  1 0.30000000E+03</rscale>
<asrwt>0</asrwt>
<pdfrwt beam="1">  1       21 0.70136778E-01 0.30000000E+03</pdfrwt>
<pdfrwt beam="2">0</pdfrwt>
<totfact> 0.17561406E+02</totfact>
</mgrwt>
</event>
<event>
 6    1  0.1284012E-001  0.3000000E+03  0.7818608E-02  0.1093470E+00
         21   -1    0    0  501  502  0.00000000000E+00  0.00000000000E+00  0.25514675115E+01  0.25514675115E+01  0.00000000000E+00 0. -1.
         13   -1    0    0    0    0 -0.00000000000E+00 -0.00000000000E+00 -0.10000000000E+04  0.10000000000E+04  0.00000000000E+00 0.  1.
    9000005    2    1    2  501    0  0.36052130981E+02 -0.43093906027E+01 -0.84703221482E+03  0.84781493137E+03  0.28736593151E+01 0.  0.
         13    1    3    3    0    0  0.23639295766E+02 -0.16545074472E+01 -0.53452074942E+03  0.53504577866E+03  0.00000000000E+00 0.  1.
          1    1    3    3  501    0  0.12412835215E+02 -0.26548831555E+01 -0.31251146540E+03  0.31276915271E+03  0.00000000000E+00 0.  1.
         -1    1    1    2    0  502 -0.36052130981E+02  0.43093906027E+01 -0.15041631767E+03  0.15473653614E+03  0.00000000000E+00 0. -1.
<mgrwt>
<rscale>  1 0.30000000E+03</rscale>
<asrwt>0</asrwt>
<pdfrwt beam="1">  1       21 0.92780832E-02 0.30000000E+03</pdfrwt>
<pdfrwt beam="2">0</pdfrwt>
<totfact> 0.98326320E+03</totfact>
</mgrwt>
</event>
<event>
 6    1  0.1284012E-001  0.3000000E+03  0.7818608E-02  0.1093470E+00
         21   -1    0    0  501  502  0.00000000000E+00  0.00000000000E+00  0.45062714004E+01  0.45062714004E+01  0.00000000000E+00 0. -1.
         13   -1    0    0    0    0 -0.00000000000E+00 -0.00000000000E+00 -0.10000000000E+04  0.10000000000E+04  0.00000000000E+00 0.  1.
    9000005    2    1    2  501    0  0.23971510006E+02  0.49972088724E+02 -0.78094606132E+03  0.78291533187E+03  0.27970082070E+01 0.  0.
         13    1    3    3    0    0  0.20406482898E+02  0.43310980386E+02 -0.66116246293E+03  0.66289370789E+03  0.00000000000E+00 0.  1.
          3    1    3    3  501    0  0.35650271079E+01  0.66611083376E+01 -0.11978359839E+03  0.12002162399E+03  0.00000000000E+00 0.  1.
         -1    1    1    2    0  502 -0.23971510006E+02 -0.49972088724E+02 -0.21454766728E+03  0.22159093953E+03  0.00000000000E+00 0. -1.
<mgrwt>
<rscale>  1 0.30000000E+03</rscale>
<asrwt>0</asrwt>
<pdfrwt beam="1">  1       21 0.16386476E-01 0.30000000E+03</pdfrwt>
<pdfrwt beam="2">0</pdfrwt>
<totfact> 0.34935923E+03</totfact>
</mgrwt>
</event>
<event>
 6    1  0.1284012E-001  0.3000000E+03  0.7818608E-02  0.1093470E+00
         21   -1    0    0  501  502  0.00000000000E+00  0.00000000000E+00  0.13875762509E+01  0.13875762509E+01  0.00000000000E+00 0. -1.
         13   -1    0    0    0    0 -0.00000000000E+00 -0.00000000000E+00 -0.10000000000E+04  0.10000000000E+04  0.00000000000E+00 0.  1.
    9000005    2    1    2  501    0 -0.27545313811E+02  0.13470677388E+02 -0.78280465625E+03  0.78341235753E+03  0.34042071445E+01 0.  0.
         13    1    3    3    0    0 -0.20282522955E+02  0.92281473194E+01 -0.60173261417E+03  0.60214506424E+03  0.00000000000E+00 0.  1.
          3    1    3    3  501    0 -0.72627908559E+01  0.42425300686E+01 -0.18107204208E+03  0.18126729328E+03  0.00000000000E+00 0.  1.
         -3    1    1    2    0  502  0.27545313811E+02 -0.13470677388E+02 -0.21580776750E+03  0.21797521872E+03  0.00000000000E+00 0. -1.
<mgrwt>
<rscale>  1 0.30000000E+03</rscale>
<asrwt>0</asrwt>
<pdfrwt beam="1">  1       21 0.50457425E-02 0.30000000E+03</pdfrwt>
<pdfrwt beam="2">0</pdfrwt>
<totfact> 0.28360823E+04</totfact>
</mgrwt>
</event>
<event>
 6    1  0.1284012E-001  0.3000000E+03  0.7818608E-02  0.1093470E+00
         21   -1    0    0  501  502  0.00000000000E+00  0.00000000000E+00  0.80092897850E+01  0.80092897850E+01  0.00000000000E+00 0. -1.
         13   -1    0    0    0    0 -0.00000000000E+00 -0.00000000000E+00 -0.10000000000E+04  0.10000000000E+04  0.00000000000E+00 0.  1.
    9000005    2    1    2  501    0 -0.73200656945E+01  0.71289645677E+02 -0.79726865368E+03  0.80051838338E+03  0.75219036179E+01 0.  0.
         13    1    3    3    0    0 -0.68188661012E+01  0.70356465307E+02 -0.79174165315E+03  0.79489079406E+03  0.00000000000E+00 0.  1.
          3    1    3    3  501    0 -0.50119959325E+00  0.93318036983E+00 -0.55270005357E+01  0.56275893202E+01  0.00000000000E+00 0.  1.
         -1    1    1    2    0  502  0.73200656945E+01 -0.71289645677E+02 -0.19472205653E+03  0.20749090641E+03  0.00000000000E+00 0. -1.
<mgrwt>
<rscale>  1 0.30000000E+03</rscale>
<asrwt>0</asrwt>
<pdfrwt beam="1">  1       21 0.29124752E-01 0.30000000E+03</pdfrwt>
<pdfrwt beam="2">0</pdfrwt>
<totfact> 0.11534851E+03</totfact>
</mgrwt>
</event>
<event>
 6    1  0.1284012E-001  0.3000000E+03  0.7818608E-02  0.1093470E+00
         21   -1    0    0  501  502  0.00000000000E+00  0.00000000000E+00  0.68013477540E+01  0.68013477540E+01  0.00000000000E+00 0. -1.
         13   -1    0    0    0    0 -0.00000000000E+00 -0.00000000000E+00 -0.10000000000E+04  0.10000000000E+04  0.00000000000E+00 0.  1.
    9000005    2    1    2  501    0  0.71415186267E+02  0.36827531785E+02 -0.38442873750E+03  0.39275150855E+03  0.34492499514E+01 0.  0.
         13    1    3    3    0    0  0.68268341489E+02  0.35594149820E+02 -0.37095653047E+03  0.37886179202E+03  0.00000000000E+00 0.  1.
          3    1    3    3  501    0  0.31468447786E+01  0.12333819655E+01 -0.13472207022E+02  0.13889716526E+02  0.00000000000E+00 0.  1.
         -3    1    1    2    0  502 -0.71415186267E+02 -0.36827531785E+02 -0.60876991475E+03  0.61404983921E+03  0.00000000000E+00 0. -1.
<mgrwt>
<rscale>  1 0.30000000E+03</rscale>
<asrwt>0</asrwt>
<pdfrwt beam="1">  1       21 0.24732226E-01 0.30000000E+03</pdfrwt>
<pdfrwt beam="2">0</pdfrwt>
<totfact> 0.15927907E+03</totfact>
</mgrwt>
</event>
<event>
 6    1  0.1284012E-001  0.3000000E+03  0.7818608E-02  0.1093470E+00
         21   -1    0    0  501  502  0.00000000000E+00  0.00000000000E+00  0.20667014639E+01  0.20667014639E+01  0.00000000000E+00 0. -1.
         13   -1    0    0    0    0 -0.00000000000E+00 -0.00000000000E+00 -0.10000000000E+04  0.10000000000E+04  0.00000000000E+00 0.  1.
    9000005    2    1    2  501    0  0.21250678888E+02 -0.26290016316E+02 -0.83327923460E+03  0.83397828104E+03  0.47680304058E+01 0.  0.
         13    1    3    3    0    0  0.19668013894E+02 -0.25854440559E+02 -0.78805295805E+03  0.78872222459E+03  0.00000000000E+00 0.  1.
          3    1    3    3  501    0  0.15826649941E+01 -0.43557575664E+00 -0.45226276552E+02  0.45256056450E+02  0.00000000000E+00 0.  1.
         -1    1    1    2    0  502 -0.21250678888E+02  0.26290016316E+02 -0.16465406394E+03  0.16808842043E+03  0.00000000000E+00 0. -1.
<mgrwt>
<rscale>  1 0.30000000E+03</rscale>
<asrwt>0</asrwt>
<pdfrwt beam="1">  1       21 0.75152939E-02 0.30000000E+03</pdfrwt>
<pdfrwt beam="2">0</pdfrwt>
<totfact> 0.14253532E+04</totfact>
</mgrwt>
</event>
<event>
 6    1  0.1284012E-001  0.3000000E+03  0.7818608E-02  0.1093470E+00
         21   -1    0    0  501  502  0.00000000000E+00  0.00000000000E+00  0.11455984119E+01  0.11455984119E+01  0.00000000000E+00 0. -1.
         13   -1    0    0    0    0 -0.00000000000E+00 -0.00000000000E+00 -0.10000000000E+04  0.10000000000E+04  0.00000000000E+00 0.  1.
    9000005    2    1    2  501    0  0.23845691092E+01  0.31297851884E+02 -0.31618404347E+03  0.31775401260E+03  0.31656717210E+01 0.  0.
         13    1    3    3    0    0  0.18496258174E+01  0.87952434304E+01 -0.82269197085E+02  0.82758674541E+02  0.00000000000E+00 0.  1.
          1    1    3    3  501    0  0.53494329179E+00  0.22502608453E+02 -0.23391484638E+03  0.23499533806E+03  0.00000000000E+00 0.  1.
         -3    1    1    2    0  502 -0.23845691092E+01 -0.31297851884E+02 -0.68267035812E+03  0.68339158581E+03  0.00000000000E+00 0. -1.
<mgrwt>
<rscale>  1 0.30000000E+03</rscale>
<asrwt>0</asrwt>
<pdfrwt beam="1">  1       21 0.41658212E-02 0.30000000E+03</pdfrwt>
<pdfrwt beam="2">0</pdfrwt>
<totfact> 0.39264375E+04</totfact>
</mgrwt>
</event>
<event>
 6    1  0.1284012E-001  0.3000000E+03  0.7818608E-02  0.1093470E+00
         21   -1    0    0  501  502  0.00000000000E+00  0.00000000000E+00  0.20781333397E+01  0.20781333397E+01  0.00000000000E+00 0. -1.
         13   -1    0    0    0    0 -0.00000000000E+00 -0.00000000000E+00 -0.10000000000E+04  0.10000000000E+04  0.00000000000E+00 0.  1.
    9000005    2    1    2  501    0 -0.33676241437E+02  0.19980303861E+02 -0.75486540641E+03  0.75588766917E+03  0.33293882198E+01 0.  0.
         13    1    3    3    0    0 -0.26332361679E+02  0.17130625720E+02 -0.60919820117E+03  0.61000762283E+03  0.00000000000E+00 0.  1.
          1    1    3    3  501    0 -0.73438797578E+01  0.28496781414E+01 -0.14566720525E+03  0.14588004634E+03  0.00000000000E+00 0.  1.
         -3    1    1    2    0  502  0.33676241437E+02 -0.19980303861E+02 -0.24305646025E+03  0.24619046417E+03  0.00000000000E+00 0. -1.
<mgrwt>
<rscale>  1 0.30000000E+03</rscale>
<asrwt>0</asrwt>
<pdfrwt beam="1">  1       21 0.75568644E-02 0.30000000E+03</pdfrwt>
<pdfrwt beam="2">0</pdfrwt>
<totfact> 0.14116503E+04</totfact>
</mgrwt>
</event>
<event>
 6    1  0.1284012E-001  0.3000000E+03  0.7818608E-02  0.1093470E+00
         21   -1    0    0  501  502  0.00000000000E+00  0.00000000000E+00  0.48257129191E+01  0.48257129191E+01  0.00000000000E+00 0. -1.
         13   -1    0    0    0    0 -0.00000000000E+00 -0.00000000000E+00 -0.10000000000E+04  0.10000000000E+04  0.00000000000E+00 0.  1.
    9000005    2    1    2  501    0  0.26025658258E+02 -0.59929531523E+02 -0.66777456816E+03  0.67097026578E+03  0.30561479943E+01 0.  0.
         13    1    3    3    0    0  0.22765851544E+02 -0.51474230766E+02 -0.58483853945E+03  0.58754063490E+03  0.00000000000E+00 0.  1.
          1    1    3    3  501    0  0.32598067143E+01 -0.84553007569E+01 -0.82936028703E+02  0.83429630874E+02  0.00000000000E+00 0.  1.
         -1    1    1    2    0  502 -0.26025658258E+02  0.59929531523E+02 -0.32739971892E+03  0.33385544714E+03  0.00000000000E+00 0. -1.
<mgrwt>
<rscale>  1 0.30000000E+03</rscale>
<asrwt>0</asrwt>
<pdfrwt beam="1">  1       21 0.17548084E-01 0.30000000E+03</pdfrwt>
<pdfrwt beam="2">0</pdfrwt>
<totfact> 0.30730660E+03</totfact>
</mgrwt>
</event>
<event>
 6    1  0.1284012E-001  0.3000000E+03  0.7818608E-02  0.1093470E+00
         21   -1    0    0  501  502  0.00000000000E+00  0.00000000000E+00  0.20911329915E+01  0.20911329915E+01  0.00000000000E+00 0. -1.
         13   -1    0    0    0    0 -0.00000000000E+00 -0.00000000000E+00 -0.10000000000E+04  0.10000000000E+04  0.00000000000E+00 0.  1.
    9000005    2    1    2  501    0  0.34386125597E+02 -0.75687197676E+01 -0.81829838352E+03  0.81906212729E+03  0.32913100529E+01 0.  0.
         13    1    3    3    0    0  0.12540970177E+02 -0.23080697610E+01 -0.33235096936E+03  0.33259550501E+03  0.00000000000E+00 0.  1.
          3    1    3    3  501    0  0.21845155420E+02 -0.52606500065E+01 -0.48594741417E+03  0.48646662228E+03  0.00000000000E+00 0.  1.
         -1    1    1    2    0  502 -0.34386125597E+02  0.75687197676E+01 -0.17961048348E+03  0.18302900571E+03  0.00000000000E+00 0. -1.
<mgrwt>
<rscale>  1 0.30000000E+03</rscale>
<asrwt>0</asrwt>
<pdfrwt beam="1">  1       21 0.76041360E-02 0.30000000E+03</pdfrwt>
<pdfrwt beam="2">0</pdfrwt>
<totfact> 0.13963142E+04</totfact>
</mgrwt>
</event>
<event>
 6    1  0.1284012E-001  0.3000000E+03  0.7818608E-02  0.1093470E+00
         21   -1    0    0  501  502  0.00000000000E+00  0.00000000000E+00  0.38122091835E+01  0.38122091835E+01  0.00000000000E+00 0. -1.
         13   -1    0    0    0    0 -0.00000000000E+00 -0.00000000000E+00 -0.10000000000E+04  0.10000000000E+04  0.00000000000E+00 0.  1.
    9000005    2    1    2  501    0  0.33016543518E+02 -0.53761674914E+01 -0.91987605883E+03  0.92049068879E+03  0.34855713717E+01 0.  0.
         13    1    3    3    0    0  0.28490177236E+02 -0.58394968639E+01 -0.79523577686E+03  0.79576738481E+03  0.00000000000E+00 0.  1.
          1    1    3    3  501    0  0.45263662812E+01  0.46332937248E+00 -0.12464028197E+03  0.12472330398E+03  0.00000000000E+00 0.  1.
         -3    1    1    2    0  502 -0.33016543518E+02  0.53761674914E+01 -0.76311731982E+02  0.83321520395E+02  0.00000000000E+00 0. -1.
<mgrwt>
<rscale>  1 0.30000000E+03</rscale>
<asrwt>0</asrwt>
<pdfrwt beam="1">  1       21 0.13862608E-01 0.30000000E+03</pdfrwt>
<pdfrwt beam="2">0</pdfrwt>
<totfact> 0.47621520E+03</totfact>
</mgrwt>
</event>
<event>
 6    1  0.1284012E-001  0.3000000E+03  0.7818608E-02  0.1093470E+00
         21   -1    0    0  501  502  0.00000000000E+00  0.00000000000E+00  0.48432539948E+01  0.48432539948E+01  0.00000000000E+00 0. -1.
         13   -1    0    0    0    0 -0.00000000000E+00 -0.00000000000E+00 -0.10000000000E+04  0.10000000000E+04  0.00000000000E+00 0.  1.
    9000005    2    1    2  501    0 -0.38907117313E+02  0.18163596605E+02 -0.89289904998E+03  0.89393646242E+03  0.31631288929E+01 0.  0.
         13    1    3    3    0    0 -0.20866082926E+02  0.80458266220E+01 -0.47155672705E+03  0.47208672463E+03  0.00000000000E+00 0.  1.
          1    1    3    3  501    0 -0.18041034387E+02  0.10117769983E+02 -0.42134232292E+03  0.42184973780E+03  0.00000000000E+00 0.  1.
         -3    1    1    2    0  502  0.38907117313E+02 -0.18163596605E+02 -0.10225769603E+03  0.11090679157E+03  0.00000000000E+00 0. -1.
<mgrwt>
<rscale>  1 0.30000000E+03</rscale>
<asrwt>0</asrwt>
<pdfrwt beam="1">  1       21 0.17611870E-01 0.30000000E+03</pdfrwt>
<pdfrwt beam="2">0</pdfrwt>
<totfact> 0.30521880E+03</totfact>
</mgrwt>
</event>
<event>
 6    1  0.1284012E-001  0.3000000E+03  0.7818608E-02  0.1093470E+00
         21   -1    0    0  501  502  0.00000000000E+00  0.00000000000E+00  0.15266126686E+01  0.15266126686E+01  0.00000000000E+00 0. -1.
         13   -1    0    0    0    0 -0.00000000000E+00 -0.00000000000E+00 -0.10000000000E+04  0.10000000000E+04  0.00000000000E+00 0.  1.
    9000005    2    1    2  501    0  0.26201684785E+02 -0.16612562796E+02 -0.80288063763E+03  0.80348866362E+03  0.37694501059E+01 0.  0.
         13    1    3    3    0    0  0.24985625411E+01 -0.18308548497E+01 -0.55750306137E+02  0.55836291770E+02  0.00000000000E+00 0.  1.
          1    1    3    3  501    0  0.23703122243E+02 -0.14781707946E+02 -0.74713033150E+03  0.74765237185E+03  0.00000000000E+00 0.  1.
         -1    1    1    2    0  502 -0.26201684785E+02  0.16612562796E+02 -0.19559274970E+03  0.19803794905E+03  0.00000000000E+00 0. -1.
<mgrwt>
<rscale>  1 0.30000000E+03</rscale>
<asrwt>0</asrwt>
<pdfrwt beam="1">  1       21 0.55513305E-02 0.30000000E+03</pdfrwt>
<pdfrwt beam="2">0</pdfrwt>
<totfact> 0.24087267E+04</totfact>
</mgrwt>
</event>
<event>
 6    1  0.1284012E-001  0.3000000E+03  0.7818608E-02  0.1093470E+00
         21   -1    0    0  501  502  0.00000000000E+00  0.00000000000E+00  0.40862202645E+01  0.40862202645E+01  0.00000000000E+00 0. -1.
         13   -1    0    0    0    0 -0.00000000000E+00 -0.00000000000E+00 -0.10000000000E+04  0.10000000000E+04  0.00000000000E+00 0.  1.
    9000005    2    1    2  501    0  0.33712055720E+02 -0.18522658889E+02 -0.89885077512E+03  0.89967923554E+03  0.32279008780E+01 0.  0.
         13    1    3    3    0    0  0.21028045578E+02 -0.10563712486E+02 -0.57942532339E+03  0.57990298853E+03  0.00000000000E+00 0.  1.
          1    1    3    3  501    0  0.12684010142E+02 -0.79589464026E+01 -0.31942545173E+03  0.31977624701E+03  0.00000000000E+00 0.  1.
         -1    1    1    2    0  502 -0.33712055720E+02  0.18522658889E+02 -0.97063004617E+02  0.10440698472E+03  0.00000000000E+00 0. -1.
<mgrwt>
<rscale>  1 0.30000000E+03</rscale>
<asrwt>0</asrwt>
<pdfrwt beam="1">  1       21 0.14859014E-01 0.30000000E+03</pdfrwt>
<pdfrwt beam="2">0</pdfrwt>
<totfact> 0.41906065E+03</totfact>
</mgrwt>
</event>
<event>
 6    1  0.1284012E-001  0.3000000E+03  0.7818608E-02  0.1093470E+00
         21   -1    0    0  501  502  0.00000000000E+00  0.00000000000E+00  0.11803475634E+01  0.11803475634E+01  0.00000000000E+00 0. -1.
         13   -1    0    0    0    0 -0.00000000000E+00 -0.00000000000E+00 -0.10000000000E+04  0.10000000000E+04  0.00000000000E+00 0.  1.
    9000005    2    1    2  501    0  0.33882351194E+02 -0.14013827849E+01 -0.52969645805E+03  0.53083308319E+03  0.74462700394E+01 0.  0.
         13    1    3    3    0    0  0.11089894909E+02  0.83828096303E+00 -0.12705991415E+03  0.12754571834E+03  0.00000000000E+00 0.  1.
          1    1    3    3  501    0  0.22792456285E+02 -0.22396637479E+01 -0.40263654391E+03  0.40328736485E+03  0.00000000000E+00 0.  1.
         -1    1    1    2    0  502 -0.33882351194E+02  0.14013827849E+01 -0.46912319438E+03  0.47034726437E+03  0.00000000000E+00 0. -1.
<mgrwt>
<rscale>  1 0.30000000E+03</rscale>
<asrwt>0</asrwt>
<pdfrwt beam="1">  1       21 0.42921820E-02 0.30000000E+03</pdfrwt>
<pdfrwt beam="2">0</pdfrwt>
<totfact> 0.37331453E+04</totfact>
</mgrwt>
</event>
<event>
 6    1  0.1284012E-001  0.3000000E+03  0.7818608E-02  0.1093470E+00
         21   -1    0    0  501  502  0.00000000000E+00  0.00000000000E+00  0.33310417824E+01  0.33310417824E+01  0.00000000000E+00 0. -1.
         13   -1    0    0    0    0 -0.00000000000E+00 -0.00000000000E+00 -0.10000000000E+04  0.10000000000E+04  0.00000000000E+00 0.  1.
    9000005    2    1    2  501    0 -0.81276983062E+01 -0.33757296503E+02 -0.89892419281E+03  0.89960229113E+03  0.37367424709E+01 0.  0.
         13    1    3    3    0    0 -0.31860719044E+01 -0.17654220885E+02 -0.50354345337E+03  0.50386290992E+03  0.00000000000E+00 0.  1.
          1    1    3    3  501    0 -0.49416264018E+01 -0.16103075618E+02 -0.39538073944E+03  0.39573938120E+03  0.00000000000E+00 0.  1.
         -3    1    1    2    0  502  0.81276983062E+01  0.33757296503E+02 -0.97744765412E+02  0.10372875065E+03  0.00000000000E+00 0. -1.
<mgrwt>
<rscale>  1 0.30000000E+03</rscale>
<asrwt>0</asrwt>
<pdfrwt beam="1">  1       21 0.12112905E-01 0.30000000E+03</pdfrwt>
<pdfrwt beam="2">0</pdfrwt>
<totfact> 0.60926249E+03</totfact>
</mgrwt>
</event>
<event>
 6    1  0.1284012E-001  0.3000000E+03  0.7818608E-02  0.1093470E+00
         21   -1    0    0  501  502  0.00000000000E+00  0.00000000000E+00  0.15813772458E+01  0.15813772458E+01  0.00000000000E+00 0. -1.
         13   -1    0    0    0    0 -0.00000000000E+00 -0.00000000000E+00 -0.10000000000E+04  0.10000000000E+04  0.00000000000E+00 0.  1.
    9000005    2    1    2  501    0  0.34847007753E+02 -0.11345124534E+02 -0.69089380543E+03  0.69188065224E+03  0.46433565184E+01 0.  0.
         13    1    3    3    0    0  0.31495101150E+02 -0.11434541584E+02 -0.64000850999E+03  0.64088499982E+03  0.00000000000E+00 0.  1.
          3    1    3    3  501    0  0.33519066027E+01  0.89417050444E-01 -0.50885295437E+02  0.50995652413E+02  0.00000000000E+00 0.  1.
         -1    1    1    2    0  502 -0.34847007753E+02  0.11345124534E+02 -0.30752481733E+03  0.30970072501E+03  0.00000000000E+00 0. -1.
<mgrwt>
<rscale>  1 0.30000000E+03</rscale>
<asrwt>0</asrwt>
<pdfrwt beam="1">  1       21 0.57504748E-02 0.30000000E+03</pdfrwt>
<pdfrwt beam="2">0</pdfrwt>
<totfact> 0.22671809E+04</totfact>
</mgrwt>
</event>
<event>
 6    1  0.1284012E-001  0.3000000E+03  0.7818608E-02  0.1093470E+00
         21   -1    0    0  501  502  0.00000000000E+00  0.00000000000E+00  0.26463671517E+01  0.26463671517E+01  0.00000000000E+00 0. -1.
         13   -1    0    0    0    0 -0.00000000000E+00 -0.00000000000E+00 -0.10000000000E+04  0.10000000000E+04  0.00000000000E+00 0.  1.
    9000005    2    1    2  501    0 -0.36760523190E+02 -0.10931443798E+01 -0.84896364119E+03  0.84976693539E+03  0.34712243732E+01 0.  0.
         13    1    3    3    0    0 -0.32928666414E+02 -0.23116334319E+00 -0.73934790139E+03  0.74008085355E+03  0.00000000000E+00 0.  1.
          3    1    3    3  501    0 -0.38318567761E+01 -0.86198103659E+00 -0.10961573980E+03  0.10968608184E+03  0.00000000000E+00 0.  1.
         -1    1    1    2    0  502  0.36760523190E+02  0.10931443798E+01 -0.14838999166E+03  0.15287943176E+03  0.00000000000E+00 0. -1.
<mgrwt>
<rscale>  1 0.30000000E+03</rscale>
<asrwt>0</asrwt>
<pdfrwt beam="1">  1       21 0.96231736E-02 0.30000000E+03</pdfrwt>
<pdfrwt beam="2">0</pdfrwt>
<totfact> 0.92137193E+03</totfact>
</mgrwt>
</event>
<event>
 6    1  0.1284012E-001  0.3000000E+03  0.7818608E-02  0.1093470E+00
         21   -1    0    0  501  502  0.00000000000E+00  0.00000000000E+00  0.18005552200E+01  0.18005552200E+01  0.00000000000E+00 0. -1.
         13   -1    0    0    0    0 -0.00000000000E+00 -0.00000000000E+00 -0.10000000000E+04  0.10000000000E+04  0.00000000000E+00 0.  1.
    9000005    2    1    2  501    0 -0.20546963042E+02  0.22328891265E+02 -0.84892100286E+03  0.84946930335E+03  0.32359164226E+01 0.  0.
         13    1    3    3    0    0 -0.90324507124E+01  0.80905178307E+01 -0.30886014745E+03  0.30909809499E+03  0.00000000000E+00 0.  1.
          3    1    3    3  501    0 -0.11514512330E+02  0.14238373435E+02 -0.54006085541E+03  0.54037120835E+03  0.00000000000E+00 0.  1.
         -3    1    1    2    0  502  0.20546963042E+02 -0.22328891265E+02 -0.14927844192E+03  0.15233125187E+03  0.00000000000E+00 0. -1.
<mgrwt>
<rscale>  1 0.30000000E+03</rscale>
<asrwt>0</asrwt>
<pdfrwt beam="1">  1       21 0.65474873E-02 0.30000000E+03</pdfrwt>
<pdfrwt beam="2">0</pdfrwt>
<totfact> 0.18120179E+04</totfact>
</mgrwt>
</event>
<event>
 6    1  0.1284012E-001  0.3000000E+03  0.7818608E-02  0.1093470E+00
         21   -1    0    0  501  502  0.00000000000E+00  0.00000000000E+00  0.13484670607E+01  0.13484670607E+01  0.00000000000E+00 0. -1.
         13   -1    0    0    0    0 -0.00000000000E+00 -0.00000000000E+00 -0.10000000000E+04  0.10000000000E+04  0.00000000000E+00 0.  1.
    9000005    2    1    2  501    0 -0.24896586032E+02 -0.18361626349E+02 -0.76692317429E+03  0.76756433261E+03  0.51826744868E+01 0.  0.
         13    1    3    3    0    0 -0.23913411858E+02 -0.16866133124E+02 -0.74209522144E+03  0.74267195679E+03  0.00000000000E+00 0.  1.
          3    1    3    3  501    0 -0.98317417355E+00 -0.14954932256E+01 -0.24827952848E+02  0.24892375822E+02  0.00000000000E+00 0.  1.
         -3    1    1    2    0  502  0.24896586032E+02  0.18361626349E+02 -0.23172835865E+03  0.23378413445E+03  0.00000000000E+00 0. -1.
<mgrwt>
<rscale>  1 0.30000000E+03</rscale>
<asrwt>0</asrwt>
<pdfrwt beam="1">  1       21 0.49035269E-02 0.30000000E+03</pdfrwt>
<pdfrwt beam="2">0</pdfrwt>
<totfact> 0.29776962E+04</totfact>
</mgrwt>
</event>
<event>
 6    1  0.1284012E-001  0.3000000E+03  0.7818608E-02  0.1093470E+00
         21   -1    0    0  501  502  0.00000000000E+00  0.00000000000E+00  0.96592122982E+01  0.96592122982E+01  0.00000000000E+00 0. -1.
         13   -1    0    0    0    0 -0.00000000000E+00 -0.00000000000E+00 -0.10000000000E+04  0.10000000000E+04  0.00000000000E+00 0.  1.
    9000005    2    1    2  501    0 -0.39643729364E+02 -0.64366271859E+02 -0.81766529873E+03  0.82116128997E+03  0.38316008333E+01 0.  0.
         13    1    3    3    0    0 -0.36809297911E+02 -0.61180356344E+02 -0.77647367555E+03  0.77974952981E+03  0.00000000000E+00 0.  1.
          3    1    3    3  501    0 -0.28344314529E+01 -0.31859155158E+01 -0.41191623178E+02  0.41411760158E+02  0.00000000000E+00 0.  1.
         -3    1    1    2    0  502  0.39643729364E+02  0.64366271859E+02 -0.17267548898E+03  0.18849792233E+03  0.00000000000E+00 0. -1.
<mgrwt>
<rscale>  1 0.30000000E+03</rscale>
<asrwt>0</asrwt>
<pdfrwt beam="1">  1       21 0.35124482E-01 0.30000000E+03</pdfrwt>
<pdfrwt beam="2">0</pdfrwt>
<totfact> 0.79003495E+02</totfact>
</mgrwt>
</event>
<event>
 6    1  0.1284012E-001  0.3000000E+03  0.7818608E-02  0.1093470E+00
         21   -1    0    0  501  502  0.00000000000E+00  0.00000000000E+00  0.10203385288E+01  0.10203385288E+01  0.00000000000E+00 0. -1.
         13   -1    0    0    0    0 -0.00000000000E+00 -0.00000000000E+00 -0.10000000000E+04  0.10000000000E+04  0.00000000000E+00 0.  1.
    9000005    2    1    2  501    0  0.27429696116E+02  0.13641879222E+02 -0.63859108560E+03  0.63933205462E+03  0.29004069324E+01 0.  0.
         13    1    3    3    0    0  0.32516629018E+01  0.20276182958E+01 -0.10013801036E+03  0.10021130509E+03  0.00000000000E+00 0.  1.
          3    1    3    3  501    0  0.24178033214E+02  0.11614260926E+02 -0.53845307524E+03  0.53912074954E+03  0.00000000000E+00 0.  1.
         -3    1    1    2    0  502 -0.27429696116E+02 -0.13641879222E+02 -0.36038857587E+03  0.36168828390E+03  0.00000000000E+00 0. -1.
<mgrwt>
<rscale>  1 0.30000000E+03</rscale>
<asrwt>0</asrwt>
<pdfrwt beam="1">  1       21 0.37103297E-02 0.30000000E+03</pdfrwt>
<pdfrwt beam="2">0</pdfrwt>
<totfact> 0.47711641E+04</totfact>
</mgrwt>
</event>
<event>
 6    1  0.1284012E-001  0.3000000E+03  0.7818608E-02  0.1093470E+00
         21   -1    0    0  501  502  0.00000000000E+00  0.00000000000E+00  0.14192618596E+01  0.14192618596E+01  0.00000000000E+00 0. -1.
         13   -1    0    0    0    0 -0.00000000000E+00 -0.00000000000E+00 -0.10000000000E+04  0.10000000000E+04  0.00000000000E+00 0.  1.
    9000005    2    1    2  501    0  0.25042901642E+02  0.17723974041E+02 -0.21027298268E+03  0.21251470267E+03  0.25466508872E+01 0.  0.
         13    1    3    3    0    0  0.21477931224E+02  0.16087159078E+02 -0.18636200709E+03  0.18828408298E+03  0.00000000000E+00 0.  1.
          3    1    3    3  501    0  0.35649704177E+01  0.16368149635E+01 -0.23910975582E+02  0.24230619691E+02  0.00000000000E+00 0.  1.
         -1    1    1    2    0  502 -0.25042901642E+02 -0.17723974041E+02 -0.78830775546E+03  0.78890455919E+03  0.00000000000E+00 0. -1.
<mgrwt>
<rscale>  1 0.30000000E+03</rscale>
<asrwt>0</asrwt>
<pdfrwt beam="1">  1       21 0.51609631E-02 0.30000000E+03</pdfrwt>
<pdfrwt beam="2">0</pdfrwt>
<totfact> 0.27288845E+04</totfact>
</mgrwt>
</event>
<event>
 6    1  0.1284012E-001  0.3000000E+03  0.7818608E-02  0.1093470E+00
         21   -1    0    0  501  502  0.00000000000E+00  0.00000000000E+00  0.21061609292E+01  0.21061609292E+01  0.00000000000E+00 0. -1.
         13   -1    0    0    0    0 -0.00000000000E+00 -0.00000000000E+00 -0.10000000000E+04  0.10000000000E+04  0.00000000000E+00 0.  1.
    9000005    2    1    2  501    0 -0.15545975647E+02 -0.39574365353E+02 -0.68655581115E+03  0.68787825736E+03  0.31316725475E+01 0.  0.
         13    1    3    3    0    0 -0.19212948839E+01 -0.32981084327E+01 -0.51459721774E+02  0.51601083887E+02  0.00000000000E+00 0.  1.
          3    1    3    3  501    0 -0.13624680763E+02 -0.36276256920E+02 -0.63509608938E+03  0.63627717347E+03  0.00000000000E+00 0.  1.
         -1    1    1    2    0  502  0.15545975647E+02  0.39574365353E+02 -0.31133802792E+03  0.31422790357E+03  0.00000000000E+00 0. -1.
<mgrwt>
<rscale>  1 0.30000000E+03</rscale>
<asrwt>0</asrwt>
<pdfrwt beam="1">  1       21 0.76587832E-02 0.30000000E+03</pdfrwt>
<pdfrwt beam="2">0</pdfrwt>
<totfact> 0.13789037E+04</totfact>
</mgrwt>
</event>
<event>
 6    1  0.1284012E-001  0.3000000E+03  0.7818608E-02  0.1093470E+00
         21   -1    0    0  501  502  0.00000000000E+00  0.00000000000E+00  0.14462116595E+01  0.14462116595E+01  0.00000000000E+00 0. -1.
         13   -1    0    0    0    0 -0.00000000000E+00 -0.00000000000E+00 -0.10000000000E+04  0.10000000000E+04  0.00000000000E+00 0.  1.
    9000005    2    1    2  501    0 -0.29617418014E+02  0.48712286019E+01 -0.80592038057E+03  0.80648839543E+03  0.38667602009E+01 0.  0.
         13    1    3    3    0    0 -0.75891413694E+01  0.16412701355E+01 -0.16737888637E+03  0.16755888648E+03  0.00000000000E+00 0.  1.
          1    1    3    3  501    0 -0.22028276645E+02  0.32299584665E+01 -0.63854149419E+03  0.63892950895E+03  0.00000000000E+00 0.  1.
         -1    1    1    2    0  502  0.29617418014E+02 -0.48712286019E+01 -0.19263340777E+03  0.19495781623E+03  0.00000000000E+00 0. -1.
<mgrwt>
<rscale>  1 0.30000000E+03</rscale>
<asrwt>0</asrwt>
<pdfrwt beam="1">  1       21 0.52589626E-02 0.30000000E+03</pdfrwt>
<pdfrwt beam="2">0</pdfrwt>
<totfact> 0.26425769E+04</totfact>
</mgrwt>
</event>
<event>
 6    1  0.1284012E-001  0.3000000E+03  0.7818608E-02  0.1093470E+00
         21   -1    0    0  501  502  0.00000000000E+00  0.00000000000E+00  0.16192072765E+01  0.16192072765E+01  0.00000000000E+00 0. -1.
         13   -1    0    0    0    0 -0.00000000000E+00 -0.00000000000E+00 -0.10000000000E+04  0.10000000000E+04  0.00000000000E+00 0.  1.
    9000005    2    1    2  501    0  0.29611960643E+02  0.25335555657E+02 -0.62143942965E+03  0.62266861711E+03  0.32378100094E+01 0.  0.
         13    1    3    3    0    0  0.11643896541E+02  0.10441790510E+02 -0.22515286030E+03  0.22569541825E+03  0.00000000000E+00 0.  1.
          1    1    3    3  501    0  0.17968064102E+02  0.14893765147E+02 -0.39628656935E+03  0.39697319887E+03  0.00000000000E+00 0.  1.
         -3    1    1    2    0  502 -0.29611960643E+02 -0.25335555657E+02 -0.37694136307E+03  0.37895059016E+03  0.00000000000E+00 0. -1.
<mgrwt>
<rscale>  1 0.30000000E+03</rscale>
<asrwt>0</asrwt>
<pdfrwt beam="1">  1       21 0.58880389E-02 0.30000000E+03</pdfrwt>
<pdfrwt beam="2">0</pdfrwt>
<totfact> 0.21767189E+04</totfact>
</mgrwt>
</event>
<event>
 6    1  0.1284012E-001  0.3000000E+03  0.7818608E-02  0.1093470E+00
         21   -1    0    0  501  502  0.00000000000E+00  0.00000000000E+00  0.38098015452E+01  0.38098015452E+01  0.00000000000E+00 0. -1.
         13   -1    0    0    0    0 -0.00000000000E+00 -0.00000000000E+00 -0.10000000000E+04  0.10000000000E+04  0.00000000000E+00 0.  1.
    9000005    2    1    2  501    0  0.28791217679E+02  0.15016648596E+02 -0.92474870589E+03  0.92533483222E+03  0.54725429831E+01 0.  0.
         13    1    3    3    0    0  0.12345245291E+02  0.61689478670E+01 -0.47062436419E+03  0.47082666999E+03  0.00000000000E+00 0.  1.
          3    1    3    3  501    0  0.16445972387E+02  0.88477007288E+01 -0.45412434170E+03  0.45450816223E+03  0.00000000000E+00 0.  1.
         -3    1    1    2    0  502 -0.28791217679E+02 -0.15016648596E+02 -0.71441492565E+02  0.78474969323E+02  0.00000000000E+00 0. -1.
<mgrwt>
<rscale>  1 0.30000000E+03</rscale>
<asrwt>0</asrwt>
<pdfrwt beam="1">  1       21 0.13853853E-01 0.30000000E+03</pdfrwt>
<pdfrwt beam="2">0</pdfrwt>
<totfact> 0.47676777E+03</totfact>
</mgrwt>
</event>
<event>
 6    1  0.1284012E-001  0.3000000E+03  0.7818608E-02  0.1093470E+00
         21   -1    0    0  501  502  0.00000000000E+00  0.00000000000E+00  0.11031072219E+01  0.11031072219E+01  0.00000000000E+00 0. -1.
         13   -1    0    0    0    0 -0.00000000000E+00 -0.00000000000E+00 -0.10000000000E+04  0.10000000000E+04  0.00000000000E+00 0.  1.
    9000005    2    1    2  501    0 -0.19415218304E+02  0.24713255763E+02 -0.65795202174E+03  0.65871283166E+03  0.37464609359E+01 0.  0.
         13    1    3    3    0    0 -0.13037975804E+01  0.20717939433E+01 -0.75398445923E+02  0.75438172471E+02  0.00000000000E+00 0.  1.
          3    1    3    3  501    0 -0.18111420724E+02  0.22641461819E+02 -0.58255357582E+03  0.58327465919E+03  0.00000000000E+00 0.  1.
         -3    1    1    2    0  502  0.19415218304E+02 -0.24713255763E+02 -0.34094487103E+03  0.34239027556E+03  0.00000000000E+00 0. -1.
<mgrwt>
<rscale>  1 0.30000000E+03</rscale>
<asrwt>0</asrwt>
<pdfrwt beam="1">  1       21 0.40113074E-02 0.30000000E+03</pdfrwt>
<pdfrwt beam="2">0</pdfrwt>
<totfact> 0.41847899E+04</totfact>
</mgrwt>
</event>
<event>
 6    1  0.1284012E-001  0.3000000E+03  0.7818608E-02  0.1093470E+00
         21   -1    0    0  501  502  0.00000000000E+00  0.00000000000E+00  0.26842129693E+01  0.26842129693E+01  0.00000000000E+00 0. -1.
         13   -1    0    0    0    0 -0.00000000000E+00 -0.00000000000E+00 -0.10000000000E+04  0.10000000000E+04  0.00000000000E+00 0.  1.
    9000005    2    1    2  501    0 -0.22535554281E+02  0.27037634390E+02 -0.86602741775E+03  0.86675952505E+03  0.54498691295E+01 0.  0.
         13    1    3    3    0    0 -0.18303798370E+02  0.23799087196E+02 -0.76901168874E+03  0.76959755912E+03  0.00000000000E+00 0.  1.
          3    1    3    3  501    0 -0.42317559103E+01  0.32385471934E+01 -0.97015729015E+02  0.97161965925E+02  0.00000000000E+00 0.  1.
         -1    1    1    2    0  502  0.22535554281E+02 -0.27037634390E+02 -0.13128836928E+03  0.13592468792E+03  0.00000000000E+00 0. -1.
<mgrwt>
<rscale>  1 0.30000000E+03</rscale>
<asrwt>0</asrwt>
<pdfrwt beam="1">  1       21 0.97607950E-02 0.30000000E+03</pdfrwt>
<pdfrwt beam="2">0</pdfrwt>
<totfact> 0.89832821E+03</totfact>
</mgrwt>
</event>
<event>
 6    1  0.1284012E-001  0.3000000E+03  0.7818608E-02  0.1093470E+00
         21   -1    0    0  501  502  0.00000000000E+00  0.00000000000E+00  0.46553981516E+01  0.46553981516E+01  0.00000000000E+00 0. -1.
         13   -1    0    0    0    0 -0.00000000000E+00 -0.00000000000E+00 -0.10000000000E+04  0.10000000000E+04  0.00000000000E+00 0.  1.
    9000005    2    1    2  501    0 -0.12895547207E+02  0.53972913308E+02 -0.78968622924E+03  0.79164193207E+03  0.36383305796E+01 0.  0.
         13    1    3    3    0    0 -0.10833132892E+02  0.41379805457E+02 -0.62506424776E+03  0.62652610392E+03  0.00000000000E+00 0.  1.
          3    1    3    3  501    0 -0.20624143145E+01  0.12593107852E+02 -0.16462198148E+03  0.16511582814E+03  0.00000000000E+00 0.  1.
         -3    1    1    2    0  502  0.12895547207E+02 -0.53972913308E+02 -0.20565837261E+03  0.21301346608E+03  0.00000000000E+00 0. -1.
<mgrwt>
<rscale>  1 0.30000000E+03</rscale>
<asrwt>0</asrwt>
<pdfrwt beam="1">  1       21 0.16928756E-01 0.30000000E+03</pdfrwt>
<pdfrwt beam="2">0</pdfrwt>
<totfact> 0.32872714E+03</totfact>
</mgrwt>
</event>
<event>
 6    1  0.1284012E-001  0.3000000E+03  0.7818608E-02  0.1093470E+00
         21   -1    0    0  501  502  0.00000000000E+00  0.00000000000E+00  0.21432332531E+01  0.21432332531E+01  0.00000000000E+00 0. -1.
         13   -1    0    0    0    0 -0.00000000000E+00 -0.00000000000E+00 -0.10000000000E+04  0.10000000000E+04  0.00000000000E+00 0.  1.
    9000005    2    1    2  501    0  0.60136425692E+01 -0.43385884488E+02 -0.65989865573E+03  0.66135857445E+03  0.32294429622E+01 0.  0.
         13    1    3    3    0    0  0.14935190230E+01 -0.84156057576E+01 -0.11109464590E+03  0.11142294811E+03  0.00000000000E+00 0.  1.
          1    1    3    3  501    0  0.45201235462E+01 -0.34970278730E+02 -0.54880400983E+03  0.54993562634E+03  0.00000000000E+00 0.  1.
         -1    1    1    2    0  502 -0.60136425692E+01  0.43385884488E+02 -0.33795811102E+03  0.34078465880E+03  0.00000000000E+00 0. -1.
<mgrwt>
<rscale>  1 0.30000000E+03</rscale>
<asrwt>0</asrwt>
<pdfrwt beam="1">  1       21 0.77935919E-02 0.30000000E+03</pdfrwt>
<pdfrwt beam="2">0</pdfrwt>
<totfact> 0.13373593E+04</totfact>
</mgrwt>
</event>
<event>
 6    1  0.1284012E-001  0.3000000E+03  0.7818608E-02  0.1093470E+00
         21   -1    0    0  501  502  0.00000000000E+00  0.00000000000E+00  0.19701421675E+01  0.19701421675E+01  0.00000000000E+00 0. -1.
         13   -1    0    0    0    0 -0.00000000000E+00 -0.00000000000E+00 -0.10000000000E+04  0.10000000000E+04  0.00000000000E+00 0.  1.
    9000005    2    1    2  501    0 -0.21517591580E+02 -0.34927079570E+02 -0.68906103765E+03  0.69028979393E+03  0.34609763412E+01 0.  0.
         13    1    3    3    0    0 -0.19762849623E+01 -0.16358956262E+01 -0.44004166051E+02  0.44078889353E+02  0.00000000000E+00 0.  1.
          3    1    3    3  501    0 -0.19541306617E+02 -0.33291183943E+02 -0.64505687160E+03  0.64621090458E+03  0.00000000000E+00 0.  1.
         -3    1    1    2    0  502  0.21517591580E+02  0.34927079570E+02 -0.30896882018E+03  0.31168034824E+03  0.00000000000E+00 0. -1.
<mgrwt>
<rscale>  1 0.30000000E+03</rscale>
<asrwt>0</asrwt>
<pdfrwt beam="1">  1       21 0.71641684E-02 0.30000000E+03</pdfrwt>
<pdfrwt beam="2">0</pdfrwt>
<totfact> 0.15496674E+04</totfact>
</mgrwt>
</event>
<event>
 6    1  0.1284012E-001  0.3000000E+03  0.7818608E-02  0.1093470E+00
         21   -1    0    0  501  502  0.00000000000E+00  0.00000000000E+00  0.16633866840E+01  0.16633866840E+01  0.00000000000E+00 0. -1.
         13   -1    0    0    0    0 -0.00000000000E+00 -0.00000000000E+00 -0.10000000000E+04  0.10000000000E+04  0.00000000000E+00 0.  1.
    9000005    2    1    2  501    0 -0.34285440762E+02  0.14699463066E+02 -0.70025971734E+03  0.70126132015E+03  0.34931000466E+01 0.  0.
         13    1    3    3    0    0 -0.21656316986E+02  0.10671839347E+02 -0.43147043806E+03  0.43214537269E+03  0.00000000000E+00 0.  1.
          1    1    3    3  501    0 -0.12629123776E+02  0.40276237193E+01 -0.26878927928E+03  0.26911594746E+03  0.00000000000E+00 0.  1.
         -3    1    1    2    0  502  0.34285440762E+02 -0.14699463066E+02 -0.29807689597E+03  0.30040206653E+03  0.00000000000E+00 0. -1.
<mgrwt>
<rscale>  1 0.30000000E+03</rscale>
<asrwt>0</asrwt>
<pdfrwt beam="1">  1       21 0.60486916E-02 0.30000000E+03</pdfrwt>
<pdfrwt beam="2">0</pdfrwt>
<totfact> 0.20779929E+04</totfact>
</mgrwt>
</event>
<event>
 6    1  0.1284012E-001  0.3000000E+03  0.7818608E-02  0.1093470E+00
         21   -1    0    0  501  502  0.00000000000E+00  0.00000000000E+00  0.32072533630E+01  0.32072533630E+01  0.00000000000E+00 0. -1.
         13   -1    0    0    0    0 -0.00000000000E+00 -0.00000000000E+00 -0.10000000000E+04  0.10000000000E+04  0.00000000000E+00 0.  1.
    9000005    2    1    2  501    0 -0.17855911398E+02  0.49051810567E+02 -0.69176505266E+03  0.69374512679E+03  0.43010658894E+01 0.  0.
         13    1    3    3    0    0 -0.14040702830E+02  0.32744639997E+02 -0.46766313143E+03  0.46901829099E+03  0.00000000000E+00 0.  1.
          3    1    3    3  501    0 -0.38152085685E+01  0.16307170570E+02 -0.22410192123E+03  0.22472683580E+03  0.00000000000E+00 0.  1.
         -3    1    1    2    0  502  0.17855911398E+02 -0.49051810567E+02 -0.30502769398E+03  0.30946212658E+03  0.00000000000E+00 0. -1.
<mgrwt>
<rscale>  1 0.30000000E+03</rscale>
<asrwt>0</asrwt>
<pdfrwt beam="1">  1       21 0.11662764E-01 0.30000000E+03</pdfrwt>
<pdfrwt beam="2">0</pdfrwt>
<totfact> 0.65256251E+03</totfact>
</mgrwt>
</event>
<event>
 6    1  0.1284012E-001  0.3000000E+03  0.7818608E-02  0.1093470E+00
         21   -1    0    0  501  502  0.00000000000E+00  0.00000000000E+00  0.62789836648E+01  0.62789836648E+01  0.00000000000E+00 0. -1.
         13   -1    0    0    0    0 -0.00000000000E+00 -0.00000000000E+00 -0.10000000000E+04  0.10000000000E+04  0.00000000000E+00 0.  1.
    9000005    2    1    2  501    0 -0.54288656756E+02 -0.20411625253E+02 -0.83957612790E+03  0.84158369130E+03  0.33379960437E+01 0.  0.
         13    1    3    3    0    0 -0.33284649493E+02 -0.11320459738E+02 -0.52558599505E+03  0.52676053278E+03  0.00000000000E+00 0.  1.
          1    1    3    3  501    0 -0.21004007262E+02 -0.90911655146E+01 -0.31399013285E+03  0.31482315852E+03  0.00000000000E+00 0.  1.
         -1    1    1    2    0  502  0.54288656756E+02  0.20411625253E+02 -0.15414488843E+03  0.16469529237E+03  0.00000000000E+00 0. -1.
<mgrwt>
<rscale>  1 0.30000000E+03</rscale>
<asrwt>0</asrwt>
<pdfrwt beam="1">  1       21 0.22832716E-01 0.30000000E+03</pdfrwt>
<pdfrwt beam="2">0</pdfrwt>
<totfact> 0.18603582E+03</totfact>
</mgrwt>
</event>
<event>
 6    1  0.1284012E-001  0.3000000E+03  0.7818608E-02  0.1093470E+00
         21   -1    0    0  501  502  0.00000000000E+00  0.00000000000E+00  0.10803507263E+01  0.10803507263E+01  0.00000000000E+00 0. -1.
         13   -1    0    0    0    0 -0.00000000000E+00 -0.00000000000E+00 -0.10000000000E+04  0.10000000000E+04  0.00000000000E+00 0.  1.
    9000005    2    1    2  501    0  0.32345702048E+02 -0.53473991615E+01 -0.48998799316E+03  0.49109381197E+03  0.31716864237E+01 0.  0.
         13    1    3    3    0    0  0.30325530890E+02 -0.42978099970E+01 -0.45010371593E+03  0.45114461549E+03  0.00000000000E+00 0.  1.
          3    1    3    3  501    0  0.20201711577E+01 -0.10495891645E+01 -0.39884277232E+02  0.39949196478E+02  0.00000000000E+00 0.  1.
         -1    1    1    2    0  502 -0.32345702048E+02  0.53473991615E+01 -0.50893165611E+03  0.50998653876E+03  0.00000000000E+00 0. -1.
<mgrwt>
<rscale>  1 0.30000000E+03</rscale>
<asrwt>0</asrwt>
<pdfrwt beam="1">  1       21 0.39285564E-02 0.30000000E+03</pdfrwt>
<pdfrwt beam="2">0</pdfrwt>
<totfact> 0.43342448E+04</totfact>
</mgrwt>
</event>
<event>
 6    1  0.1284012E-001  0.3000000E+03  0.7818608E-02  0.1093470E+00
         21   -1    0    0  501  502  0.00000000000E+00  0.00000000000E+00  0.29760679513E+01  0.29760679513E+01  0.00000000000E+00 0. -1.
         13   -1    0    0    0    0 -0.00000000000E+00 -0.00000000000E+00 -0.10000000000E+04  0.10000000000E+04  0.00000000000E+00 0.  1.
    9000005    2    1    2  501    0 -0.69836733496E+01  0.41930651716E+02 -0.81258284516E+03  0.81369990521E+03  0.31151653218E+01 0.  0.
         13    1    3    3    0    0 -0.54167267897E+01  0.25818475353E+02 -0.52311030752E+03  0.52377507427E+03  0.00000000000E+00 0.  1.
          3    1    3    3  501    0 -0.15669465599E+01  0.16112176363E+02 -0.28947253764E+03  0.28992483094E+03  0.00000000000E+00 0.  1.
         -1    1    1    2    0  502  0.69836733496E+01 -0.41930651716E+02 -0.18444108689E+03  0.18927616274E+03  0.00000000000E+00 0. -1.
<mgrwt>
<rscale>  1 0.30000000E+03</rscale>
<asrwt>0</asrwt>
<pdfrwt beam="1">  1       21 0.10822088E-01 0.30000000E+03</pdfrwt>
<pdfrwt beam="2">0</pdfrwt>
<totfact> 0.74677748E+03</totfact>
</mgrwt>
</event>
<event>
 6    1  0.1284012E-001  0.3000000E+03  0.7818608E-02  0.1093470E+00
         21   -1    0    0  501  502  0.00000000000E+00  0.00000000000E+00  0.95969859631E+00  0.95969859631E+00  0.00000000000E+00 0. -1.
         13   -1    0    0    0    0 -0.00000000000E+00 -0.00000000000E+00 -0.10000000000E+04  0.10000000000E+04  0.00000000000E+00 0.  1.
    9000005    2    1    2  501    0  0.30335543750E+02  0.41011261776E+01 -0.55966000256E+03  0.56051434278E+03  0.44660433452E+01 0.  0.
         13    1    3    3    0    0  0.15677497105E+02  0.43624702945E+01 -0.29118556778E+03  0.29163993201E+03  0.00000000000E+00 0.  1.
          1    1    3    3  501    0  0.14658046644E+02 -0.26134411692E+00 -0.26847443478E+03  0.26887441076E+03  0.00000000000E+00 0.  1.
         -3    1    1    2    0  502 -0.30335543750E+02 -0.41011261776E+01 -0.43938029884E+03  0.44044535582E+03  0.00000000000E+00 0. -1.
<mgrwt>
<rscale>  1 0.30000000E+03</rscale>
<asrwt>0</asrwt>
<pdfrwt beam="1">  1       21 0.34898204E-02 0.30000000E+03</pdfrwt>
<pdfrwt beam="2">0</pdfrwt>
<totfact> 0.52874029E+04</totfact>
</mgrwt>
</event>
<event>
 6    1  0.1284012E-001  0.3000000E+03  0.7818608E-02  0.1093470E+00
         21   -1    0    0  501  502  0.00000000000E+00  0.00000000000E+00  0.50857600574E+01  0.50857600574E+01  0.00000000000E+00 0. -1.
         13   -1    0    0    0    0 -0.00000000000E+00 -0.00000000000E+00 -0.10000000000E+04  0.10000000000E+04  0.00000000000E+00 0.  1.
    9000005    2    1    2  501    0  0.21538391488E+02 -0.61861965407E+02 -0.69403114212E+03  0.69715485283E+03  0.74065860716E+01 0.  0.
         13    1    3    3    0    0  0.95931809174E+01 -0.18972702998E+02 -0.24606105654E+03  0.24697780492E+03  0.00000000000E+00 0.  1.
          3    1    3    3  501    0  0.11945210571E+02 -0.42889262408E+02 -0.44797008558E+03  0.45017704791E+03  0.00000000000E+00 0.  1.
         -3    1    1    2    0  502 -0.21538391488E+02  0.61861965407E+02 -0.30088309782E+03  0.30793090723E+03  0.00000000000E+00 0. -1.
<mgrwt>
<rscale>  1 0.30000000E+03</rscale>
<asrwt>0</asrwt>
<pdfrwt beam="1">  1       21 0.18493712E-01 0.30000000E+03</pdfrwt>
<pdfrwt beam="2">0</pdfrwt>
<totfact> 0.27837809E+03</totfact>
</mgrwt>
</event>
<event>
 6    1  0.1284012E-001  0.3000000E+03  0.7818608E-02  0.1093470E+00
         21   -1    0    0  501  502  0.00000000000E+00  0.00000000000E+00  0.74168821479E+01  0.74168821479E+01  0.00000000000E+00 0. -1.
         13   -1    0    0    0    0 -0.00000000000E+00 -0.00000000000E+00 -0.10000000000E+04  0.10000000000E+04  0.00000000000E+00 0.  1.
    9000005    2    1    2  501    0  0.22949453707E+02  0.25408614917E+02 -0.34518507052E+02  0.48740673199E+02  0.34424928939E+01 0.  0.
         13    1    3    3    0    0  0.15293417504E+02  0.15634190928E+02 -0.23977908162E+02  0.32453915399E+02  0.00000000000E+00 0.  1.
          3    1    3    3  501    0  0.76560362034E+01  0.97744239888E+01 -0.10540598890E+02  0.16286757800E+02  0.00000000000E+00 0.  1.
         -3    1    1    2    0  502 -0.22949453707E+02 -0.25408614917E+02 -0.95806461080E+03  0.95867620895E+03  0.00000000000E+00 0. -1.
<mgrwt>
<rscale>  1 0.30000000E+03</rscale>
<asrwt>0</asrwt>
<pdfrwt beam="1">  1       21 0.26970537E-01 0.30000000E+03</pdfrwt>
<pdfrwt beam="2">0</pdfrwt>
<totfact> 0.13433710E+03</totfact>
</mgrwt>
</event>
<event>
 6    1  0.1284012E-001  0.3000000E+03  0.7818608E-02  0.1093470E+00
         21   -1    0    0  501  502  0.00000000000E+00  0.00000000000E+00  0.18375488174E+01  0.18375488174E+01  0.00000000000E+00 0. -1.
         13   -1    0    0    0    0 -0.00000000000E+00 -0.00000000000E+00 -0.10000000000E+04  0.10000000000E+04  0.00000000000E+00 0.  1.
    9000005    2    1    2  501    0 -0.45471160113E+01  0.40260520712E+02 -0.66112180343E+03  0.66237034270E+03  0.32933455990E+01 0.  0.
         13    1    3    3    0    0 -0.49415637107E+01  0.33629622612E+02 -0.55989436204E+03  0.56092518860E+03  0.00000000000E+00 0.  1.
          1    1    3    3  501    0  0.39444769949E+00  0.66308981003E+01 -0.10122744140E+03  0.10144515410E+03  0.00000000000E+00 0.  1.
         -3    1    1    2    0  502  0.45471160113E+01 -0.40260520712E+02 -0.33704064775E+03  0.33946720611E+03  0.00000000000E+00 0. -1.
<mgrwt>
<rscale>  1 0.30000000E+03</rscale>
<asrwt>0</asrwt>
<pdfrwt beam="1">  1       21 0.66820098E-02 0.30000000E+03</pdfrwt>
<pdfrwt beam="2">0</pdfrwt>
<totfact> 0.17492571E+04</totfact>
</mgrwt>
</event>
<event>
 6    1  0.1284012E-001  0.3000000E+03  0.7818608E-02  0.1093470E+00
         21   -1    0    0  501  502  0.00000000000E+00  0.00000000000E+00  0.11840495535E+01  0.11840495535E+01  0.00000000000E+00 0. -1.
         13   -1    0    0    0    0 -0.00000000000E+00 -0.00000000000E+00 -0.10000000000E+04  0.10000000000E+04  0.00000000000E+00 0.  1.
    9000005    2    1    2  501    0 -0.12414770559E+02  0.30433619994E+02 -0.64445417921E+03  0.64530120835E+03  0.34826188425E+01 0.  0.
         13    1    3    3    0    0 -0.43562412846E+01  0.14983334141E+02 -0.29245072365E+03  0.29286669818E+03  0.00000000000E+00 0.  1.
          1    1    3    3  501    0 -0.80585292741E+01  0.15450285854E+02 -0.35200345557E+03  0.35243451017E+03  0.00000000000E+00 0.  1.
         -1    1    1    2    0  502  0.12414770559E+02 -0.30433619994E+02 -0.35436177123E+03  0.35588284121E+03  0.00000000000E+00 0. -1.
<mgrwt>
<rscale>  1 0.30000000E+03</rscale>
<asrwt>0</asrwt>
<pdfrwt beam="1">  1       21 0.43056438E-02 0.30000000E+03</pdfrwt>
<pdfrwt beam="2">0</pdfrwt>
<totfact> 0.37134274E+04</totfact>
</mgrwt>
</event>
<event>
 6    1  0.1284012E-001  0.3000000E+03  0.7818608E-02  0.1093470E+00
         21   -1    0    0  501  502  0.00000000000E+00  0.00000000000E+00  0.33617102904E+01  0.33617102904E+01  0.00000000000E+00 0. -1.
         13   -1    0    0    0    0 -0.00000000000E+00 -0.00000000000E+00 -0.10000000000E+04  0.10000000000E+04  0.00000000000E+00 0.  1.
    9000005    2    1    2  501    0 -0.98053407830E+00  0.49477254371E+02 -0.75922119783E+03  0.76084194684E+03  0.38315389751E+01 0.  0.
         13    1    3    3    0    0  0.11146527033E+01  0.60924232973E+01 -0.90865785042E+02  0.91076621389E+02  0.00000000000E+00 0.  1.
          1    1    3    3  501    0 -0.20951867816E+01  0.43384831073E+02 -0.66835541279E+03  0.66976532545E+03  0.00000000000E+00 0.  1.
         -1    1    1    2    0  502  0.98053407830E+00 -0.49477254371E+02 -0.23741709188E+03  0.24251976345E+03  0.00000000000E+00 0. -1.
<mgrwt>
<rscale>  1 0.30000000E+03</rscale>
<asrwt>0</asrwt>
<pdfrwt beam="1">  1       21 0.12224427E-01 0.30000000E+03</pdfrwt>
<pdfrwt beam="2">0</pdfrwt>
<totfact> 0.59919564E+03</totfact>
</mgrwt>
</event>
<event>
 6    1  0.1284012E-001  0.3000000E+03  0.7818608E-02  0.1093470E+00
         21   -1    0    0  501  502  0.00000000000E+00  0.00000000000E+00  0.13888413707E+01  0.13888413707E+01  0.00000000000E+00 0. -1.
         13   -1    0    0    0    0 -0.00000000000E+00 -0.00000000000E+00 -0.10000000000E+04  0.10000000000E+04  0.00000000000E+00 0.  1.
    9000005    2    1    2  501    0 -0.19604490235E+02 -0.28701731187E+02 -0.67824675826E+03  0.67914440863E+03  0.32151622296E+01 0.  0.
         13    1    3    3    0    0 -0.16291407834E+02 -0.25513913782E+02 -0.59890356815E+03  0.59966811964E+03  0.00000000000E+00 0.  1.
          3    1    3    3  501    0 -0.33130824003E+01 -0.31878174049E+01 -0.79343190114E+02  0.79476288994E+02  0.00000000000E+00 0.  1.
         -1    1    1    2    0  502  0.19604490235E+02  0.28701731187E+02 -0.32036440036E+03  0.32224443274E+03  0.00000000000E+00 0. -1.
<mgrwt>
<rscale>  1 0.30000000E+03</rscale>
<asrwt>0</asrwt>
<pdfrwt beam="1">  1       21 0.50503429E-02 0.30000000E+03</pdfrwt>
<pdfrwt beam="2">0</pdfrwt>
<totfact> 0.28316776E+04</totfact>
</mgrwt>
</event>
<event>
 6    1  0.1284012E-001  0.3000000E+03  0.7818608E-02  0.1093470E+00
         21   -1    0    0  501  502  0.00000000000E+00  0.00000000000E+00  0.15160509674E+01  0.15160509674E+01  0.00000000000E+00 0. -1.
         13   -1    0    0    0    0 -0.00000000000E+00 -0.00000000000E+00 -0.10000000000E+04  0.10000000000E+04  0.00000000000E+00 0.  1.
    9000005    2    1    2  501    0  0.27614824165E+02 -0.12148745625E+02 -0.81517801488E+03  0.81574405085E+03  0.36041658418E+01 0.  0.
         13    1    3    3    0    0  0.68502312701E+01 -0.15112571795E+01 -0.20615561311E+03  0.20627492912E+03  0.00000000000E+00 0.  1.
          3    1    3    3  501    0  0.20764592895E+02 -0.10637488446E+02 -0.60902240177E+03  0.60946912173E+03  0.00000000000E+00 0.  1.
         -3    1    1    2    0  502 -0.27614824165E+02  0.12148745625E+02 -0.18330593415E+03  0.18577200012E+03  0.00000000000E+00 0. -1.
<mgrwt>
<rscale>  1 0.30000000E+03</rscale>
<asrwt>0</asrwt>
<pdfrwt beam="1">  1       21 0.55129242E-02 0.30000000E+03</pdfrwt>
<pdfrwt beam="2">0</pdfrwt>
<totfact> 0.24375842E+04</totfact>
</mgrwt>
</event>
<event>
 6    1  0.1284012E-001  0.3000000E+03  0.7818608E-02  0.1093470E+00
         21   -1    0    0  501  502  0.00000000000E+00  0.00000000000E+00  0.12966521559E+01  0.12966521559E+01  0.00000000000E+00 0. -1.
         13   -1    0    0    0    0 -0.00000000000E+00 -0.00000000000E+00 -0.10000000000E+04  0.10000000000E+04  0.00000000000E+00 0.  1.
    9000005    2    1    2  501    0 -0.56879397382E+00  0.32983961484E+02 -0.69942081028E+03  0.70020148027E+03  0.20923380921E+01 0.  0.
         13    1    3    3    0    0  0.65121596181E-01  0.56458379494E+01 -0.13693981998E+03  0.13705617105E+03  0.00000000000E+00 0.  1.
          3    1    3    3  501    0 -0.63391557000E+00  0.27338123535E+02 -0.56248099030E+03  0.56314530922E+03  0.00000000000E+00 0.  1.
         -1    1    1    2    0  502  0.56879397382E+00 -0.32983961484E+02 -0.29928253757E+03  0.30109517189E+03  0.00000000000E+00 0. -1.
<mgrwt>
<rscale>  1 0.30000000E+03</rscale>
<asrwt>0</asrwt>
<pdfrwt beam="1">  1       21 0.47151087E-02 0.30000000E+03</pdfrwt>
<pdfrwt beam="2">0</pdfrwt>
<totfact> 0.31830157E+04</totfact>
</mgrwt>
</event>
<event>
 6    1  0.1284012E-001  0.3000000E+03  0.7818608E-02  0.1093470E+00
         21   -1    0    0  501  502  0.00000000000E+00  0.00000000000E+00  0.21956491327E+02  0.21956491327E+02  0.00000000000E+00 0. -1.
         13   -1    0    0    0    0 -0.00000000000E+00 -0.00000000000E+00 -0.10000000000E+04  0.10000000000E+04  0.00000000000E+00 0.  1.
    9000005    2    1    2  501    0 -0.13182308014E+02  0.61101505094E+02 -0.25929400753E+02  0.67792751883E+02  0.40442817785E+01 0.  0.
         13    1    3    3    0    0 -0.11963802541E+02  0.48588650048E+02 -0.21500737844E+02  0.54463485130E+02  0.00000000000E+00 0.  1.
          1    1    3    3  501    0 -0.12185054727E+01  0.12512855047E+02 -0.44286629091E+01  0.13329266753E+02  0.00000000000E+00 0.  1.
         -3    1    1    2    0  502  0.13182308014E+02 -0.61101505094E+02 -0.95211410792E+03  0.95416373944E+03  0.00000000000E+00 0. -1.
<mgrwt>
<rscale>  1 0.30000000E+03</rscale>
<asrwt>0</asrwt>
<pdfrwt beam="1">  1       21 0.79841955E-01 0.30000000E+03</pdfrwt>
<pdfrwt beam="2">0</pdfrwt>
<totfact> 0.12931150E+02</totfact>
</mgrwt>
</event>
<event>
 6    1  0.1284012E-001  0.3000000E+03  0.7818608E-02  0.1093470E+00
         21   -1    0    0  501  502  0.00000000000E+00  0.00000000000E+00  0.11719234087E+01  0.11719234087E+01  0.00000000000E+00 0. -1.
         13   -1    0    0    0    0 -0.00000000000E+00 -0.00000000000E+00 -0.10000000000E+04  0.10000000000E+04  0.00000000000E+00 0.  1.
    9000005    2    1    2  501    0  0.13381419573E+02 -0.31429954578E+02 -0.50397176403E+03  0.50513797849E+03  0.31518143915E+01 0.  0.
         13    1    3    3    0    0  0.10512643346E+02 -0.24491159236E+02 -0.41123249045E+03  0.41209524840E+03  0.00000000000E+00 0.  1.
          1    1    3    3  501    0  0.28687762275E+01 -0.69387953425E+01 -0.92739273578E+02  0.93042730085E+02  0.00000000000E+00 0.  1.
         -3    1    1    2    0  502 -0.13381419573E+02  0.31429954578E+02 -0.49485631256E+03  0.49603394492E+03  0.00000000000E+00 0. -1.
<mgrwt>
<rscale>  1 0.30000000E+03</rscale>
<asrwt>0</asrwt>
<pdfrwt beam="1">  1       21 0.42615487E-02 0.30000000E+03</pdfrwt>
<pdfrwt beam="2">0</pdfrwt>
<totfact> 0.37786251E+04</totfact>
</mgrwt>
</event>
<event>
 6    1  0.1284012E-001  0.3000000E+03  0.7818608E-02  0.1093470E+00
         21   -1    0    0  501  502  0.00000000000E+00  0.00000000000E+00  0.21845755244E+01  0.21845755244E+01  0.00000000000E+00 0. -1.
         13   -1    0    0    0    0 -0.00000000000E+00 -0.00000000000E+00 -0.10000000000E+04  0.10000000000E+04  0.00000000000E+00 0.  1.
    9000005    2    1    2  501    0  0.41899591876E+02  0.19111417949E+02 -0.58142708528E+03  0.58325728933E+03  0.32845046004E+01 0.  0.
         13    1    3    3    0    0  0.16912087579E+02  0.72079995311E+01 -0.25180099084E+03  0.25247121213E+03  0.00000000000E+00 0.  1.
          1    1    3    3  501    0  0.24987504297E+02  0.11903418418E+02 -0.32962609443E+03  0.33078607720E+03  0.00000000000E+00 0.  1.
         -3    1    1    2    0  502 -0.41899591876E+02 -0.19111417949E+02 -0.41638833920E+03  0.41892728619E+03  0.00000000000E+00 0. -1.
<mgrwt>
<rscale>  1 0.30000000E+03</rscale>
<asrwt>0</asrwt>
<pdfrwt beam="1">  1       21 0.79439277E-02 0.30000000E+03</pdfrwt>
<pdfrwt beam="2">0</pdfrwt>
<totfact> 0.12932630E+04</totfact>
</mgrwt>
</event>
<event>
 6    1  0.1284012E-001  0.3000000E+03  0.7818608E-02  0.1093470E+00
         21   -1    0    0  501  502  0.00000000000E+00  0.00000000000E+00  0.84927400861E+01  0.84927400861E+01  0.00000000000E+00 0. -1.
         13   -1    0    0    0    0 -0.00000000000E+00 -0.00000000000E+00 -0.10000000000E+04  0.10000000000E+04  0.00000000000E+00 0.  1.
    9000005    2    1    2  501    0 -0.38898363277E+01 -0.44192537282E+02 -0.93770962394E+03  0.93876256861E+03  0.27767263627E+01 0.  0.
         13    1    3    3    0    0 -0.39787998987E+01 -0.44114395503E+02 -0.93657078813E+03  0.93761759365E+03  0.00000000000E+00 0.  1.
          3    1    3    3  501    0  0.88963570979E-01 -0.78141779678E-01 -0.11388358067E+01  0.11449749558E+01  0.00000000000E+00 0.  1.
         -3    1    1    2    0  502  0.38898363277E+01  0.44192537282E+02 -0.53797635972E+02  0.69730171478E+02  0.00000000000E+00 0. -1.
<mgrwt>
<rscale>  1 0.30000000E+03</rscale>
<asrwt>0</asrwt>
<pdfrwt beam="1">  1       21 0.30882756E-01 0.30000000E+03</pdfrwt>
<pdfrwt beam="2">0</pdfrwt>
<totfact> 0.10258674E+03</totfact>
</mgrwt>
</event>
<event>
 6    1  0.1284012E-001  0.3000000E+03  0.7818608E-02  0.1093470E+00
         21   -1    0    0  501  502  0.00000000000E+00  0.00000000000E+00  0.10462272861E+01  0.10462272861E+01  0.00000000000E+00 0. -1.
         13   -1    0    0    0    0 -0.00000000000E+00 -0.00000000000E+00 -0.10000000000E+04  0.10000000000E+04  0.00000000000E+00 0.  1.
    9000005    2    1    2  501    0  0.25401807414E+02  0.19434541552E+02 -0.43516595660E+03  0.43635192519E+03  0.32618407529E+01 0.  0.
         13    1    3    3    0    0  0.22929334513E+02  0.16194305664E+02 -0.38167391620E+03  0.38270483173E+03  0.00000000000E+00 0.  1.
          1    1    3    3  501    0  0.24724729015E+01  0.32402358886E+01 -0.53492040395E+02  0.53647093458E+02  0.00000000000E+00 0.  1.
         -3    1    1    2    0  502 -0.25401807414E+02 -0.19434541552E+02 -0.56378781611E+03  0.56469430210E+03  0.00000000000E+00 0. -1.
<mgrwt>
<rscale>  1 0.30000000E+03</rscale>
<asrwt>0</asrwt>
<pdfrwt beam="1">  1       21 0.38044709E-02 0.30000000E+03</pdfrwt>
<pdfrwt beam="2">0</pdfrwt>
<totfact> 0.45745614E+04</totfact>
</mgrwt>
</event>
<event>
 6    1  0.1284012E-001  0.3000000E+03  0.7818608E-02  0.1093470E+00
         21   -1    0    0  501  502  0.00000000000E+00  0.00000000000E+00  0.12552933529E+01  0.12552933529E+01  0.00000000000E+00 0. -1.
         13   -1    0    0    0    0 -0.00000000000E+00 -0.00000000000E+00 -0.10000000000E+04  0.10000000000E+04  0.00000000000E+00 0.  1.
    9000005    2    1    2  501    0  0.24611771751E+02 -0.24562617037E+02 -0.43974534435E+03  0.44117552357E+03  0.71283420814E+01 0.  0.
         13    1    3    3    0    0  0.14357857761E+02 -0.18856527412E+02 -0.28185254482E+03  0.28284726219E+03  0.00000000000E+00 0.  1.
          3    1    3    3  501    0  0.10253913990E+02 -0.57060896256E+01 -0.15789279953E+03  0.15832826138E+03  0.00000000000E+00 0.  1.
         -1    1    1    2    0  502 -0.24611771751E+02  0.24562617037E+02 -0.55899936230E+03  0.56007976978E+03  0.00000000000E+00 0. -1.
<mgrwt>
<rscale>  1 0.30000000E+03</rscale>
<asrwt>0</asrwt>
<pdfrwt beam="1">  1       21 0.45647127E-02 0.30000000E+03</pdfrwt>
<pdfrwt beam="2">0</pdfrwt>
<totfact> 0.33632892E+04</totfact>
</mgrwt>
</event>
<event>
 6    1  0.1284012E-001  0.3000000E+03  0.7818608E-02  0.1093470E+00
         21   -1    0    0  501  502  0.00000000000E+00  0.00000000000E+00  0.16556078658E+01  0.16556078658E+01  0.00000000000E+00 0. -1.
         13   -1    0    0    0    0 -0.00000000000E+00 -0.00000000000E+00 -0.10000000000E+04  0.10000000000E+04  0.00000000000E+00 0.  1.
    9000005    2    1    2  501    0 -0.39588495389E+02 -0.15783284673E+01 -0.60979932253E+03  0.61109573896E+03  0.36122466728E+01 0.  0.
         13    1    3    3    0    0 -0.11298530907E+02 -0.17954909820E+01 -0.19023827448E+03  0.19058195525E+03  0.00000000000E+00 0.  1.
          1    1    3    3  501    0 -0.28289964482E+02  0.21716251472E+00 -0.41956104805E+03  0.42051378371E+03  0.00000000000E+00 0.  1.
         -1    1    1    2    0  502  0.39588495389E+02  0.15783284673E+01 -0.38854506960E+03  0.39055986891E+03  0.00000000000E+00 0. -1.
<mgrwt>
<rscale>  1 0.30000000E+03</rscale>
<asrwt>0</asrwt>
<pdfrwt beam="1">  1       21 0.60204049E-02 0.30000000E+03</pdfrwt>
<pdfrwt beam="2">0</pdfrwt>
<totfact> 0.20948638E+04</totfact>
</mgrwt>
</event>
<event>
 6    1  0.1284012E-001  0.3000000E+03  0.7818608E-02  0.1093470E+00
         21   -1    0    0  501  502  0.00000000000E+00  0.00000000000E+00  0.11252189591E+01  0.11252189591E+01  0.00000000000E+00 0. -1.
         13   -1    0    0    0    0 -0.00000000000E+00 -0.00000000000E+00 -0.10000000000E+04  0.10000000000E+04  0.00000000000E+00 0.  1.
    9000005    2    1    2  501    0 -0.25498959421E+02  0.17313249491E+02 -0.30650324701E+03  0.30806801593E+03  0.34229328904E+01 0.  0.
         13    1    3    3    0    0 -0.43493955440E+01  0.30419620550E+01 -0.66877319534E+02  0.67087604241E+02  0.00000000000E+00 0.  1.
          3    1    3    3  501    0 -0.21149563877E+02  0.14271287436E+02 -0.23962592748E+03  0.24098041169E+03  0.00000000000E+00 0.  1.
         -3    1    1    2    0  502  0.25498959421E+02 -0.17313249491E+02 -0.69237153403E+03  0.69305720303E+03  0.00000000000E+00 0. -1.
<mgrwt>
<rscale>  1 0.30000000E+03</rscale>
<asrwt>0</asrwt>
<pdfrwt beam="1">  1       21 0.40917139E-02 0.30000000E+03</pdfrwt>
<pdfrwt beam="2">0</pdfrwt>
<totfact> 0.40471454E+04</totfact>
</mgrwt>
</event>
<event>
 6    1  0.1284012E-001  0.3000000E+03  0.7818608E-02  0.1093470E+00
         21   -1    0    0  501  502  0.00000000000E+00  0.00000000000E+00  0.30414224225E+01  0.30414224225E+01  0.00000000000E+00 0. -1.
         13   -1    0    0    0    0 -0.00000000000E+00 -0.00000000000E+00 -0.10000000000E+04  0.10000000000E+04  0.00000000000E+00 0.  1.
    9000005    2    1    2  501    0  0.12087711577E+02  0.28079466420E+02 -0.91578795675E+03  0.91630481602E+03  0.35163785074E+01 0.  0.
         13    1    3    3    0    0  0.46928736642E+01  0.97517222990E+01 -0.27742716640E+03  0.27763816706E+03  0.00000000000E+00 0.  1.
          3    1    3    3  501    0  0.73948379128E+01  0.18327744121E+02 -0.63836079035E+03  0.63866664895E+03  0.00000000000E+00 0.  1.
         -3    1    1    2    0  502 -0.12087711577E+02 -0.28079466420E+02 -0.81170620826E+02  0.86736606406E+02  0.00000000000E+00 0. -1.
<mgrwt>
<rscale>  1 0.30000000E+03</rscale>
<asrwt>0</asrwt>
<pdfrwt beam="1">  1       21 0.11059741E-01 0.30000000E+03</pdfrwt>
<pdfrwt beam="2">0</pdfrwt>
<totfact> 0.71816809E+03</totfact>
</mgrwt>
</event>
<event>
 6    1  0.1284012E-001  0.3000000E+03  0.7818608E-02  0.1093470E+00
         21   -1    0    0  501  502  0.00000000000E+00  0.00000000000E+00  0.31782876434E+01  0.31782876434E+01  0.00000000000E+00 0. -1.
         13   -1    0    0    0    0 -0.00000000000E+00 -0.00000000000E+00 -0.10000000000E+04  0.10000000000E+04  0.00000000000E+00 0.  1.
    9000005    2    1    2  501    0 -0.11375910812E+02  0.34980958277E+02 -0.87848149559E+03  0.87925296460E+03  0.17201344816E+01 0.  0.
         13    1    3    3    0    0 -0.71074797300E+01  0.23692376483E+02 -0.57654404797E+03  0.57707441827E+03  0.00000000000E+00 0.  1.
          1    1    3    3  501    0 -0.42684310823E+01  0.11288581794E+02 -0.30193744763E+03  0.30217854633E+03  0.00000000000E+00 0.  1.
         -3    1    1    2    0  502  0.11375910812E+02 -0.34980958277E+02 -0.11834021676E+03  0.12392532305E+03  0.00000000000E+00 0. -1.
<mgrwt>
<rscale>  1 0.30000000E+03</rscale>
<asrwt>0</asrwt>
<pdfrwt beam="1">  1       21 0.11557434E-01 0.30000000E+03</pdfrwt>
<pdfrwt beam="2">0</pdfrwt>
<totfact> 0.66335665E+03</totfact>
</mgrwt>
</event>
<event>
 6    1  0.1284012E-001  0.3000000E+03  0.7818608E-02  0.1093470E+00
         21   -1    0    0  501  502  0.00000000000E+00  0.00000000000E+00  0.17068701764E+01  0.17068701764E+01  0.00000000000E+00 0. -1.
         13   -1    0    0    0    0 -0.00000000000E+00 -0.00000000000E+00 -0.10000000000E+04  0.10000000000E+04  0.00000000000E+00 0.  1.
    9000005    2    1    2  501    0 -0.30286166301E+02 -0.26773377600E+02 -0.59883407024E+03  0.60020767229E+03  0.35973020673E+01 0.  0.
         13    1    3    3    0    0 -0.11269321337E+02 -0.81566523494E+01 -0.22126565667E+03  0.22170254712E+03  0.00000000000E+00 0.  1.
          3    1    3    3  501    0 -0.19016844964E+02 -0.18616725251E+02 -0.37756841357E+03  0.37850512517E+03  0.00000000000E+00 0.  1.
         -1    1    1    2    0  502  0.30286166301E+02  0.26773377600E+02 -0.39945905959E+03  0.40149919789E+03  0.00000000000E+00 0. -1.
<mgrwt>
<rscale>  1 0.30000000E+03</rscale>
<asrwt>0</asrwt>
<pdfrwt beam="1">  1       21 0.62068137E-02 0.30000000E+03</pdfrwt>
<pdfrwt beam="2">0</pdfrwt>
<totfact> 0.19874602E+04</totfact>
</mgrwt>
</event>
<event>
 6    1  0.1284012E-001  0.3000000E+03  0.7818608E-02  0.1093470E+00
         21   -1    0    0  501  502  0.00000000000E+00  0.00000000000E+00  0.11062366806E+01  0.11062366806E+01  0.00000000000E+00 0. -1.
         13   -1    0    0    0    0 -0.00000000000E+00 -0.00000000000E+00 -0.10000000000E+04  0.10000000000E+04  0.00000000000E+00 0.  1.
    9000005    2    1    2  501    0  0.16190977981E+02 -0.28957444649E+02 -0.48488807618E+03  0.48603097249E+03  0.29964028744E+01 0.  0.
         13    1    3    3    0    0  0.13266470989E+02 -0.23302333759E+02 -0.37369007120E+03  0.37465086057E+03  0.00000000000E+00 0.  1.
          1    1    3    3  501    0  0.29245069929E+01 -0.56551108898E+01 -0.11119800498E+03  0.11138011192E+03  0.00000000000E+00 0.  1.
         -1    1    1    2    0  502 -0.16190977981E+02  0.28957444649E+02 -0.51400568714E+03  0.51507526419E+03  0.00000000000E+00 0. -1.
<mgrwt>
<rscale>  1 0.30000000E+03</rscale>
<asrwt>0</asrwt>
<pdfrwt beam="1">  1       21 0.40226873E-02 0.30000000E+03</pdfrwt>
<pdfrwt beam="2">0</pdfrwt>
<totfact> 0.41648686E+04</totfact>
</mgrwt>
</event>
<event>
 6    1  0.1284012E-001  0.3000000E+03  0.7818608E-02  0.1093470E+00
         21   -1    0    0  501  502  0.00000000000E+00  0.00000000000E+00  0.28501540592E+01  0.28501540592E+01  0.00000000000E+00 0. -1.
         13   -1    0    0    0    0 -0.00000000000E+00 -0.00000000000E+00 -0.10000000000E+04  0.10000000000E+04  0.00000000000E+00 0.  1.
    9000005    2    1    2  501    0 -0.11442615592E+02 -0.30358469175E+02 -0.89663972843E+03  0.89723361262E+03  0.35753217302E+01 0.  0.
         13    1    3    3    0    0 -0.65344514995E+01 -0.14673186918E+02 -0.40141511387E+03  0.40173635025E+03  0.00000000000E+00 0.  1.
          3    1    3    3  501    0 -0.49081640923E+01 -0.15685282256E+02 -0.49522461456E+03  0.49549726237E+03  0.00000000000E+00 0.  1.
         -1    1    1    2    0  502  0.11442615592E+02  0.30358469175E+02 -0.10051011751E+03  0.10561654144E+03  0.00000000000E+00 0. -1.
<mgrwt>
<rscale>  1 0.30000000E+03</rscale>
<asrwt>0</asrwt>
<pdfrwt beam="1">  1       21 0.10364218E-01 0.30000000E+03</pdfrwt>
<pdfrwt beam="2">0</pdfrwt>
<totfact> 0.80698899E+03</totfact>
</mgrwt>
</event>
<event>
 6    1  0.1284012E-001  0.3000000E+03  0.7818608E-02  0.1093470E+00
         21   -1    0    0  501  502  0.00000000000E+00  0.00000000000E+00  0.29845343639E+01  0.29845343639E+01  0.00000000000E+00 0. -1.
         13   -1    0    0    0    0 -0.00000000000E+00 -0.00000000000E+00 -0.10000000000E+04  0.10000000000E+04  0.00000000000E+00 0.  1.
    9000005    2    1    2  501    0  0.15664648900E+02 -0.50660270974E+02 -0.37993039592E+03  0.38362532717E+03  0.30727211467E+01 0.  0.
         13    1    3    3    0    0  0.14744935713E+02 -0.48236416934E+02 -0.35614792207E+03  0.35970197030E+03  0.00000000000E+00 0.  1.
          3    1    3    3  501    0  0.91971318695E+00 -0.24238540403E+01 -0.23782473857E+02  0.23923356862E+02  0.00000000000E+00 0.  1.
         -3    1    1    2    0  502 -0.15664648900E+02  0.50660270974E+02 -0.61708506971E+03  0.61935920720E+03  0.00000000000E+00 0. -1.
<mgrwt>
<rscale>  1 0.30000000E+03</rscale>
<asrwt>0</asrwt>
<pdfrwt beam="1">  1       21 0.10852875E-01 0.30000000E+03</pdfrwt>
<pdfrwt beam="2">0</pdfrwt>
<totfact> 0.74297517E+03</totfact>
</mgrwt>
</event>
<event>
 6    1  0.1284012E-001  0.3000000E+03  0.7818608E-02  0.1093470E+00
         21   -1    0    0  501  502  0.00000000000E+00  0.00000000000E+00  0.44025003519E+01  0.44025003519E+01  0.00000000000E+00 0. -1.
         13   -1    0    0    0    0 -0.00000000000E+00 -0.00000000000E+00 -0.10000000000E+04  0.10000000000E+04  0.00000000000E+00 0.  1.
    9000005    2    1    2  501    0  0.21424415389E+02  0.26084522066E+02 -0.93010396046E+03  0.93072203115E+03  0.32732465702E+01 0.  0.
         13    1    3    3    0    0  0.13025185496E+02  0.13318990378E+02 -0.50455660031E+03  0.50490039996E+03  0.00000000000E+00 0.  1.
          1    1    3    3  501    0  0.83992298926E+01  0.12765531688E+02 -0.42554736014E+03  0.42582163119E+03  0.00000000000E+00 0.  1.
         -1    1    1    2    0  502 -0.21424415389E+02 -0.26084522066E+02 -0.65493539192E+02  0.73680469203E+02  0.00000000000E+00 0. -1.
<mgrwt>
<rscale>  1 0.30000000E+03</rscale>
<asrwt>0</asrwt>
<pdfrwt beam="1">  1       21 0.16009126E-01 0.30000000E+03</pdfrwt>
<pdfrwt beam="2">0</pdfrwt>
<totfact> 0.36487843E+03</totfact>
</mgrwt>
</event>
<event>
 6    1  0.1284012E-001  0.3000000E+03  0.7818608E-02  0.1093470E+00
         21   -1    0    0  501  502  0.00000000000E+00  0.00000000000E+00  0.18859679892E+01  0.18859679892E+01  0.00000000000E+00 0. -1.
         13   -1    0    0    0    0 -0.00000000000E+00 -0.00000000000E+00 -0.10000000000E+04  0.10000000000E+04  0.00000000000E+00 0.  1.
    9000005    2    1    2  501    0 -0.11057227460E+02 -0.41843502433E+02 -0.47150776282E+03  0.47350418960E+03  0.36750784086E+01 0.  0.
         13    1    3    3    0    0 -0.48426599118E+01 -0.13487278337E+02 -0.16928598972E+03  0.16989144872E+03  0.00000000000E+00 0.  1.
          1    1    3    3  501    0 -0.62145675482E+01 -0.28356224096E+02 -0.30222177310E+03  0.30361274089E+03  0.00000000000E+00 0.  1.
         -1    1    1    2    0  502  0.11057227460E+02  0.41843502433E+02 -0.52660626919E+03  0.52838177839E+03  0.00000000000E+00 0. -1.
<mgrwt>
<rscale>  1 0.30000000E+03</rscale>
<asrwt>0</asrwt>
<pdfrwt beam="1">  1       21 0.68580799E-02 0.30000000E+03</pdfrwt>
<pdfrwt beam="2">0</pdfrwt>
<totfact> 0.16720349E+04</totfact>
</mgrwt>
</event>
<event>
 6    1  0.1284012E-001  0.3000000E+03  0.7818608E-02  0.1093470E+00
         21   -1    0    0  501  502  0.00000000000E+00  0.00000000000E+00  0.13550372645E+01  0.13550372645E+01  0.00000000000E+00 0. -1.
         13   -1    0    0    0    0 -0.00000000000E+00 -0.00000000000E+00 -0.10000000000E+04  0.10000000000E+04  0.00000000000E+00 0.  1.
    9000005    2    1    2  501    0  0.12130779446E+02  0.33352764659E+02 -0.62906903730E+03  0.63007895753E+03  0.34750991759E+01 0.  0.
         13    1    3    3    0    0  0.39059682151E+01  0.65863204865E+01 -0.13704587201E+03  0.13725963442E+03  0.00000000000E+00 0.  1.
          3    1    3    3  501    0  0.82248112309E+01  0.26766444172E+02 -0.49202316529E+03  0.49281932311E+03  0.00000000000E+00 0.  1.
         -3    1    1    2    0  502 -0.12130779446E+02 -0.33352764659E+02 -0.36957592544E+03  0.37127607974E+03  0.00000000000E+00 0. -1.
<mgrwt>
<rscale>  1 0.30000000E+03</rscale>
<asrwt>0</asrwt>
<pdfrwt beam="1">  1       21 0.49274186E-02 0.30000000E+03</pdfrwt>
<pdfrwt beam="2">0</pdfrwt>
<totfact> 0.29531451E+04</totfact>
</mgrwt>
</event>
<event>
 6    1  0.1284012E-001  0.3000000E+03  0.7818608E-02  0.1093470E+00
         21   -1    0    0  501  502  0.00000000000E+00  0.00000000000E+00  0.19575677922E+01  0.19575677922E+01  0.00000000000E+00 0. -1.
         13   -1    0    0    0    0 -0.00000000000E+00 -0.00000000000E+00 -0.10000000000E+04  0.10000000000E+04  0.00000000000E+00 0.  1.
    9000005    2    1    2  501    0  0.43659096153E+02  0.50244460991E+01 -0.53416201444E+03  0.53600005501E+03  0.59698876054E+01 0.  0.
         13    1    3    3    0    0  0.38158357864E+02  0.26698882923E+01 -0.44761756950E+03  0.44924901458E+03  0.00000000000E+00 0.  1.
          1    1    3    3  501    0  0.55007382889E+01  0.23545578068E+01 -0.86544444944E+02  0.86751040426E+02  0.00000000000E+00 0.  1.
         -3    1    1    2    0  502 -0.43659096153E+02 -0.50244460991E+01 -0.46388041777E+03  0.46595751279E+03  0.00000000000E+00 0. -1.
<mgrwt>
<rscale>  1 0.30000000E+03</rscale>
<asrwt>0</asrwt>
<pdfrwt beam="1">  1       21 0.71184433E-02 0.30000000E+03</pdfrwt>
<pdfrwt beam="2">0</pdfrwt>
<totfact> 0.15670617E+04</totfact>
</mgrwt>
</event>
<event>
 6    1  0.1284012E-001  0.3000000E+03  0.7818608E-02  0.1093470E+00
         21   -1    0    0  501  502  0.00000000000E+00  0.00000000000E+00  0.28156324489E+01  0.28156324489E+01  0.00000000000E+00 0. -1.
         13   -1    0    0    0    0 -0.00000000000E+00 -0.00000000000E+00 -0.10000000000E+04  0.10000000000E+04  0.00000000000E+00 0.  1.
    9000005    2    1    2  501    0 -0.47419223317E+02 -0.23398671206E+02 -0.53417275561E+03  0.53679435252E+03  0.34005157372E+01 0.  0.
         13    1    3    3    0    0 -0.35032184789E+02 -0.17540776584E+02 -0.38031612898E+03  0.38232877314E+03  0.00000000000E+00 0.  1.
          1    1    3    3  501    0 -0.12387038528E+02 -0.58578946226E+01 -0.15385662663E+03  0.15446557938E+03  0.00000000000E+00 0.  1.
         -1    1    1    2    0  502  0.47419223317E+02  0.23398671206E+02 -0.46301161194E+03  0.46602127993E+03  0.00000000000E+00 0. -1.
<mgrwt>
<rscale>  1 0.30000000E+03</rscale>
<asrwt>0</asrwt>
<pdfrwt beam="1">  1       21 0.10238685E-01 0.30000000E+03</pdfrwt>
<pdfrwt beam="2">0</pdfrwt>
<totfact> 0.82478730E+03</totfact>
</mgrwt>
</event>
<event>
 6    1  0.1284012E-001  0.3000000E+03  0.7818608E-02  0.1093470E+00
         21   -1    0    0  501  502  0.00000000000E+00  0.00000000000E+00  0.26446167927E+01  0.26446167927E+01  0.00000000000E+00 0. -1.
         13   -1    0    0    0    0 -0.00000000000E+00 -0.00000000000E+00 -0.10000000000E+04  0.10000000000E+04  0.00000000000E+00 0.  1.
    9000005    2    1    2  501    0  0.10365472244E+02  0.32929191937E+02 -0.87004682389E+03  0.87073842296E+03  0.34857937920E+01 0.  0.
         13    1    3    3    0    0  0.82466316165E+00  0.72994053121E+00 -0.32177720039E+02  0.32196561143E+02  0.00000000000E+00 0.  1.
          3    1    3    3  501    0  0.95408090822E+01  0.32199251406E+02 -0.83786910385E+03  0.83854186181E+03  0.00000000000E+00 0.  1.
         -1    1    1    2    0  502 -0.10365472244E+02 -0.32929191937E+02 -0.12730855932E+03  0.13190619384E+03  0.00000000000E+00 0. -1.
<mgrwt>
<rscale>  1 0.30000000E+03</rscale>
<asrwt>0</asrwt>
<pdfrwt beam="1">  1       21 0.96168086E-02 0.30000000E+03</pdfrwt>
<pdfrwt beam="2">0</pdfrwt>
<totfact> 0.92245953E+03</totfact>
</mgrwt>
</event>
<event>
 6    1  0.1284012E-001  0.3000000E+03  0.7818608E-02  0.1093470E+00
         21   -1    0    0  501  502  0.00000000000E+00  0.00000000000E+00  0.13704106645E+01  0.13704106645E+01  0.00000000000E+00 0. -1.
         13   -1    0    0    0    0 -0.00000000000E+00 -0.00000000000E+00 -0.10000000000E+04  0.10000000000E+04  0.00000000000E+00 0.  1.
    9000005    2    1    2  501    0  0.88573352563E+01  0.31764742999E+02 -0.72499547287E+03  0.72575640344E+03  0.40583449259E+01 0.  0.
         13    1    3    3    0    0  0.19780414887E+01  0.63981544609E+01 -0.11482001060E+03  0.11501514624E+03  0.00000000000E+00 0.  1.
          1    1    3    3  501    0  0.68792937676E+01  0.25366588538E+02 -0.61017546227E+03  0.61074125721E+03  0.00000000000E+00 0.  1.
         -3    1    1    2    0  502 -0.88573352563E+01 -0.31764742999E+02 -0.27363411646E+03  0.27561400722E+03  0.00000000000E+00 0. -1.
<mgrwt>
<rscale>  1 0.30000000E+03</rscale>
<asrwt>0</asrwt>
<pdfrwt beam="1">  1       21 0.49833220E-02 0.30000000E+03</pdfrwt>
<pdfrwt beam="2">0</pdfrwt>
<totfact> 0.28969175E+04</totfact>
</mgrwt>
</event>
<event>
 6    1  0.1284012E-001  0.3000000E+03  0.7818608E-02  0.1093470E+00
         21   -1    0    0  501  502  0.00000000000E+00  0.00000000000E+00  0.98702135873E+00  0.98702135873E+00  0.00000000000E+00 0. -1.
         13   -1    0    0    0    0 -0.00000000000E+00 -0.00000000000E+00 -0.10000000000E+04  0.10000000000E+04  0.00000000000E+00 0.  1.
    9000005    2    1    2  501    0 -0.22214113103E+02 -0.21158172622E+02 -0.39841397035E+03  0.39960502641E+03  0.30578213406E+01 0.  0.
         13    1    3    3    0    0 -0.14526774288E+02 -0.15545533625E+02 -0.28391617793E+03  0.28471228789E+03  0.00000000000E+00 0.  1.
          1    1    3    3  501    0 -0.76873388149E+01 -0.56126389975E+01 -0.11449779242E+03  0.11489273852E+03  0.00000000000E+00 0.  1.
         -3    1    1    2    0  502  0.22214113103E+02  0.21158172622E+02 -0.60059900829E+03  0.60138199495E+03  0.00000000000E+00 0. -1.
<mgrwt>
<rscale>  1 0.30000000E+03</rscale>
<asrwt>0</asrwt>
<pdfrwt beam="1">  1       21 0.35891761E-02 0.30000000E+03</pdfrwt>
<pdfrwt beam="2">0</pdfrwt>
<totfact> 0.50444380E+04</totfact>
</mgrwt>
</event>
<event>
 6    1  0.1284012E-001  0.3000000E+03  0.7818608E-02  0.1093470E+00
         21   -1    0    0  501  502  0.00000000000E+00  0.00000000000E+00  0.20077310472E+01  0.20077310472E+01  0.00000000000E+00 0. -1.
         13   -1    0    0    0    0 -0.00000000000E+00 -0.00000000000E+00 -0.10000000000E+04  0.10000000000E+04  0.00000000000E+00 0.  1.
    9000005    2    1    2  501    0  0.34112512573E+02 -0.26370714288E+02 -0.63360585993E+03  0.63507921871E+03  0.31859398104E+01 0.  0.
         13    1    3    3    0    0  0.53782182719E+00 -0.70281845750E+00 -0.20069433133E+02  0.20088936069E+02  0.00000000000E+00 0.  1.
          1    1    3    3  501    0  0.33574690746E+02 -0.25667895831E+02 -0.61353642680E+03  0.61499028264E+03  0.00000000000E+00 0.  1.
         -3    1    1    2    0  502 -0.34112512573E+02  0.26370714288E+02 -0.36438640902E+03  0.36692851233E+03  0.00000000000E+00 0. -1.
<mgrwt>
<rscale>  1 0.30000000E+03</rscale>
<asrwt>0</asrwt>
<pdfrwt beam="1">  1       21 0.73008556E-02 0.30000000E+03</pdfrwt>
<pdfrwt beam="2">0</pdfrwt>
<totfact> 0.14993862E+04</totfact>
</mgrwt>
</event>
<event>
 6    1  0.1284012E-001  0.3000000E+03  0.7818608E-02  0.1093470E+00
         21   -1    0    0  501  502  0.00000000000E+00  0.00000000000E+00  0.21957196802E+01  0.21957196802E+01  0.00000000000E+00 0. -1.
         13   -1    0    0    0    0 -0.00000000000E+00 -0.00000000000E+00 -0.10000000000E+04  0.10000000000E+04  0.00000000000E+00 0.  1.
    9000005    2    1    2  501    0  0.13848269696E+02 -0.43662307179E+02 -0.60162967770E+03  0.60338186911E+03  0.36385773958E+01 0.  0.
         13    1    3    3    0    0  0.12962124119E+02 -0.36809930652E+02 -0.50544916175E+03  0.50695349173E+03  0.00000000000E+00 0.  1.
          1    1    3    3  501    0  0.88614557750E+00 -0.68523765266E+01 -0.96180515946E+02  0.96428377388E+02  0.00000000000E+00 0.  1.
         -3    1    1    2    0  502 -0.13848269696E+02  0.43662307179E+02 -0.39617460262E+03  0.39881385057E+03  0.00000000000E+00 0. -1.
<mgrwt>
<rscale>  1 0.30000000E+03</rscale>
<asrwt>0</asrwt>
<pdfrwt beam="1">  1       21 0.79844520E-02 0.30000000E+03</pdfrwt>
<pdfrwt beam="2">0</pdfrwt>
<totfact> 0.12817589E+04</totfact>
</mgrwt>
</event>
<event>
 6    1  0.1284012E-001  0.3000000E+03  0.7818608E-02  0.1093470E+00
         21   -1    0    0  501  502  0.00000000000E+00  0.00000000000E+00  0.13195093831E+01  0.13195093831E+01  0.00000000000E+00 0. -1.
         13   -1    0    0    0    0 -0.00000000000E+00 -0.00000000000E+00 -0.10000000000E+04  0.10000000000E+04  0.00000000000E+00 0.  1.
    9000005    2    1    2  501    0 -0.18465581747E+02 -0.26527251733E+02 -0.72691884522E+03  0.72764257447E+03  0.28347581669E+01 0.  0.
         13    1    3    3    0    0 -0.67046339978E+01 -0.74553130097E+01 -0.23403085498E+03  0.23424554402E+03  0.00000000000E+00 0.  1.
          1    1    3    3  501    0 -0.11760947749E+02 -0.19071938723E+02 -0.49288799024E+03  0.49339703045E+03  0.00000000000E+00 0.  1.
         -1    1    1    2    0  502  0.18465581747E+02  0.26527251733E+02 -0.27176164539E+03  0.27367693491E+03  0.00000000000E+00 0. -1.
<mgrwt>
<rscale>  1 0.30000000E+03</rscale>
<asrwt>0</asrwt>
<pdfrwt beam="1">  1       21 0.47982261E-02 0.30000000E+03</pdfrwt>
<pdfrwt beam="2">0</pdfrwt>
<totfact> 0.30897970E+04</totfact>
</mgrwt>
</event>
<event>
 6    1  0.1284012E-001  0.3000000E+03  0.7818608E-02  0.1093470E+00
         21   -1    0    0  501  502  0.00000000000E+00  0.00000000000E+00  0.11813583619E+01  0.11813583619E+01  0.00000000000E+00 0. -1.
         13   -1    0    0    0    0 -0.00000000000E+00 -0.00000000000E+00 -0.10000000000E+04  0.10000000000E+04  0.00000000000E+00 0.  1.
    9000005    2    1    2  501    0  0.13818994985E+02 -0.26708797690E+02 -0.74062603206E+03  0.74124338857E+03  0.32430300894E+01 0.  0.
         13    1    3    3    0    0  0.59862213494E+01 -0.94234752420E+01 -0.30480265171E+03  0.30500703798E+03  0.00000000000E+00 0.  1.
          1    1    3    3  501    0  0.78327736352E+01 -0.17285322448E+02 -0.43582338035E+03  0.43623635059E+03  0.00000000000E+00 0.  1.
         -1    1    1    2    0  502 -0.13818994985E+02  0.26708797690E+02 -0.25819260958E+03  0.25993796979E+03  0.00000000000E+00 0. -1.
<mgrwt>
<rscale>  1 0.30000000E+03</rscale>
<asrwt>0</asrwt>
<pdfrwt beam="1">  1       21 0.42958576E-02 0.30000000E+03</pdfrwt>
<pdfrwt beam="2">0</pdfrwt>
<totfact> 0.37277454E+04</totfact>
</mgrwt>
</event>
<event>
 6    1  0.1284012E-001  0.3000000E+03  0.7818608E-02  0.1093470E+00
         21   -1    0    0  501  502  0.00000000000E+00  0.00000000000E+00  0.27450886683E+01  0.27450886683E+01  0.00000000000E+00 0. -1.
         13   -1    0    0    0    0 -0.00000000000E+00 -0.00000000000E+00 -0.10000000000E+04  0.10000000000E+04  0.00000000000E+00 0.  1.
    9000005    2    1    2  501    0 -0.44050079511E+02 -0.11443664712E+02 -0.74625370449E+03  0.74765104169E+03  0.40151849976E+01 0.  0.
         13    1    3    3    0    0 -0.34609918747E+02 -0.90167722716E+01 -0.55778363230E+03  0.55892909131E+03  0.00000000000E+00 0.  1.
          3    1    3    3  501    0 -0.94401607639E+01 -0.24268924403E+01 -0.18847007219E+03  0.18872195038E+03  0.00000000000E+00 0.  1.
         -1    1    1    2    0  502  0.44050079511E+02  0.11443664712E+02 -0.25100120685E+03  0.25509404698E+03  0.00000000000E+00 0. -1.
<mgrwt>
<rscale>  1 0.30000000E+03</rscale>
<asrwt>0</asrwt>
<pdfrwt beam="1">  1       21 0.99821617E-02 0.30000000E+03</pdfrwt>
<pdfrwt beam="2">0</pdfrwt>
<totfact> 0.86306865E+03</totfact>
</mgrwt>
</event>
<event>
 6    1  0.1284012E-001  0.3000000E+03  0.7818608E-02  0.1093470E+00
         21   -1    0    0  501  502  0.00000000000E+00  0.00000000000E+00  0.18727972594E+01  0.18727972594E+01  0.00000000000E+00 0. -1.
         13   -1    0    0    0    0 -0.00000000000E+00 -0.00000000000E+00 -0.10000000000E+04  0.10000000000E+04  0.00000000000E+00 0.  1.
    9000005    2    1    2  501    0  0.34475226596E+02 -0.75345126819E+01 -0.20943859272E+03  0.21239510049E+03  0.13581084991E+01 0.  0.
         13    1    3    3    0    0  0.29090031214E+02 -0.58593654980E+01 -0.17659748364E+03  0.17907326240E+03  0.00000000000E+00 0.  1.
          3    1    3    3  501    0  0.53851953827E+01 -0.16751471840E+01 -0.32841109086E+02  0.33321838086E+02  0.00000000000E+00 0.  1.
         -3    1    1    2    0  502 -0.34475226596E+02  0.75345126819E+01 -0.78868861002E+03  0.78947769677E+03  0.00000000000E+00 0. -1.
<mgrwt>
<rscale>  1 0.30000000E+03</rscale>
<asrwt>0</asrwt>
<pdfrwt beam="1">  1       21 0.68101862E-02 0.30000000E+03</pdfrwt>
<pdfrwt beam="2">0</pdfrwt>
<totfact> 0.16925143E+04</totfact>
</mgrwt>
</event>
<event>
 6    1  0.1284012E-001  0.3000000E+03  0.7818608E-02  0.1093470E+00
         21   -1    0    0  501  502  0.00000000000E+00  0.00000000000E+00  0.21122230353E+01  0.21122230353E+01  0.00000000000E+00 0. -1.
         13   -1    0    0    0    0 -0.00000000000E+00 -0.00000000000E+00 -0.10000000000E+04  0.10000000000E+04  0.00000000000E+00 0.  1.
    9000005    2    1    2  501    0  0.27102364008E+02  0.16520925932E+02 -0.86109287634E+03  0.86168315209E+03  0.30714476851E+01 0.  0.
         13    1    3    3    0    0  0.12336949004E+02  0.76168046427E+01 -0.35239263433E+03  0.35269077782E+03  0.00000000000E+00 0.  1.
          3    1    3    3  501    0  0.14765415004E+02  0.89041212891E+01 -0.50870024201E+03  0.50899237428E+03  0.00000000000E+00 0.  1.
         -3    1    1    2    0  502 -0.27102364008E+02 -0.16520925932E+02 -0.13679490062E+03  0.14042907094E+03  0.00000000000E+00 0. -1.
<mgrwt>
<rscale>  1 0.30000000E+03</rscale>
<asrwt>0</asrwt>
<pdfrwt beam="1">  1       21 0.76808272E-02 0.30000000E+03</pdfrwt>
<pdfrwt beam="2">0</pdfrwt>
<totfact> 0.13719752E+04</totfact>
</mgrwt>
</event>
<event>
 6    1  0.1284012E-001  0.3000000E+03  0.7818608E-02  0.1093470E+00
         21   -1    0    0  501  502  0.00000000000E+00  0.00000000000E+00  0.93481436325E+00  0.93481436325E+00  0.00000000000E+00 0. -1.
         13   -1    0    0    0    0 -0.00000000000E+00 -0.00000000000E+00 -0.10000000000E+04  0.10000000000E+04  0.00000000000E+00 0.  1.
    9000005    2    1    2  501    0 -0.28310099087E+02 -0.10754444438E+02 -0.55676860700E+03  0.55760267785E+03  0.35135205974E+01 0.  0.
         13    1    3    3    0    0 -0.17914873520E+02 -0.60742799788E+01 -0.31811871461E+03  0.31868064917E+03  0.00000000000E+00 0.  1.
          3    1    3    3  501    0 -0.10395225567E+02 -0.46801644594E+01 -0.23864989239E+03  0.23892202868E+03  0.00000000000E+00 0.  1.
         -3    1    1    2    0  502  0.28310099087E+02  0.10754444438E+02 -0.44229657864E+03  0.44333213651E+03  0.00000000000E+00 0. -1.
<mgrwt>
<rscale>  1 0.30000000E+03</rscale>
<asrwt>0</asrwt>
<pdfrwt beam="1">  1       21 0.33993321E-02 0.30000000E+03</pdfrwt>
<pdfrwt beam="2">0</pdfrwt>
<totfact> 0.55249155E+04</totfact>
</mgrwt>
</event>
<event>
 6    1  0.1284012E-001  0.3000000E+03  0.7818608E-02  0.1093470E+00
         21   -1    0    0  501  502  0.00000000000E+00  0.00000000000E+00  0.32554222062E+01  0.32554222062E+01  0.00000000000E+00 0. -1.
         13   -1    0    0    0    0 -0.00000000000E+00 -0.00000000000E+00 -0.10000000000E+04  0.10000000000E+04  0.00000000000E+00 0.  1.
    9000005    2    1    2  501    0  0.27767319171E+02  0.49346438616E+02 -0.55763095206E+03  0.56050620276E+03  0.29714668853E+01 0.  0.
         13    1    3    3    0    0  0.21150285312E+02  0.35915048427E+02 -0.42013885419E+03  0.42220123409E+03  0.00000000000E+00 0.  1.
          3    1    3    3  501    0  0.66170338586E+01  0.13431390190E+02 -0.13749209788E+03  0.13830496867E+03  0.00000000000E+00 0.  1.
         -1    1    1    2    0  502 -0.27767319171E+02 -0.49346438616E+02 -0.43911362573E+03  0.44274921945E+03  0.00000000000E+00 0. -1.
<mgrwt>
<rscale>  1 0.30000000E+03</rscale>
<asrwt>0</asrwt>
<pdfrwt beam="1">  1       21 0.11837924E-01 0.30000000E+03</pdfrwt>
<pdfrwt beam="2">0</pdfrwt>
<totfact> 0.63518456E+03</totfact>
</mgrwt>
</event>
<event>
 6    1  0.1284012E-001  0.3000000E+03  0.7818608E-02  0.1093470E+00
         21   -1    0    0  501  502  0.00000000000E+00  0.00000000000E+00  0.10101025363E+01  0.10101025363E+01  0.00000000000E+00 0. -1.
         13   -1    0    0    0    0 -0.00000000000E+00 -0.00000000000E+00 -0.10000000000E+04  0.10000000000E+04  0.00000000000E+00 0.  1.
    9000005    2    1    2  501    0 -0.14677822842E+02  0.27306802401E+02 -0.53347414175E+03  0.53446319304E+03  0.97542226935E+01 0.  0.
         13    1    3    3    0    0 -0.67513167650E+01  0.20771303071E+02 -0.32219480068E+03  0.32293422998E+03  0.00000000000E+00 0.  1.
          1    1    3    3  501    0 -0.79265060769E+01  0.65354993298E+01 -0.21127934108E+03  0.21152896307E+03  0.00000000000E+00 0.  1.
         -3    1    1    2    0  502  0.14677822842E+02 -0.27306802401E+02 -0.46551575571E+03  0.46654690949E+03  0.00000000000E+00 0. -1.
<mgrwt>
<rscale>  1 0.30000000E+03</rscale>
<asrwt>0</asrwt>
<pdfrwt beam="1">  1       21 0.36731079E-02 0.30000000E+03</pdfrwt>
<pdfrwt beam="2">0</pdfrwt>
<totfact> 0.48525884E+04</totfact>
</mgrwt>
</event>
<event>
 6    1  0.1284012E-001  0.3000000E+03  0.7818608E-02  0.1093470E+00
         21   -1    0    0  501  502  0.00000000000E+00  0.00000000000E+00  0.86679160954E+01  0.86679160954E+01  0.00000000000E+00 0. -1.
         13   -1    0    0    0    0 -0.00000000000E+00 -0.00000000000E+00 -0.10000000000E+04  0.10000000000E+04  0.00000000000E+00 0.  1.
    9000005    2    1    2  501    0  0.30342695593E+02 -0.27107202718E+02 -0.94927497584E+03  0.95015056863E+03  0.27647258728E+01 0.  0.
         13    1    3    3    0    0  0.27487793814E+02 -0.23619406515E+02 -0.83176668629E+03  0.83255586935E+03  0.00000000000E+00 0.  1.
          1    1    3    3  501    0  0.28549017790E+01 -0.34877962025E+01 -0.11750828955E+03  0.11759469928E+03  0.00000000000E+00 0.  1.
         -1    1    1    2    0  502 -0.30342695593E+02  0.27107202718E+02 -0.42057108069E+02  0.58517347463E+02  0.00000000000E+00 0. -1.
<mgrwt>
<rscale>  1 0.30000000E+03</rscale>
<asrwt>0</asrwt>
<pdfrwt beam="1">  1       21 0.31519761E-01 0.30000000E+03</pdfrwt>
<pdfrwt beam="2">0</pdfrwt>
<totfact> 0.98456758E+02</totfact>
</mgrwt>
</event>
<event>
 6    1  0.1284012E-001  0.3000000E+03  0.7818608E-02  0.1093470E+00
         21   -1    0    0  501  502  0.00000000000E+00  0.00000000000E+00  0.21075965056E+01  0.21075965056E+01  0.00000000000E+00 0. -1.
         13   -1    0    0    0    0 -0.00000000000E+00 -0.00000000000E+00 -0.10000000000E+04  0.10000000000E+04  0.00000000000E+00 0.  1.
    9000005    2    1    2  501    0 -0.64247605313E+01 -0.30410520741E+02 -0.86652298298E+03  0.86711129298E+03  0.73373741547E+01 0.  0.
         13    1    3    3    0    0 -0.23960808680E+01 -0.53800369978E+01 -0.24622241056E+03  0.24629283681E+03  0.00000000000E+00 0.  1.
          1    1    3    3  501    0 -0.40286796633E+01 -0.25030483743E+02 -0.62030057242E+03  0.62081845617E+03  0.00000000000E+00 0.  1.
         -3    1    1    2    0  502  0.64247605313E+01  0.30410520741E+02 -0.13136942052E+03  0.13499630353E+03  0.00000000000E+00 0. -1.
<mgrwt>
<rscale>  1 0.30000000E+03</rscale>
<asrwt>0</asrwt>
<pdfrwt beam="1">  1       21 0.76640035E-02 0.30000000E+03</pdfrwt>
<pdfrwt beam="2">0</pdfrwt>
<totfact> 0.13772581E+04</totfact>
</mgrwt>
</event>
<event>
 6    1  0.1284012E-001  0.3000000E+03  0.7818608E-02  0.1093470E+00
         21   -1    0    0  501  502  0.00000000000E+00  0.00000000000E+00  0.15515393012E+01  0.15515393012E+01  0.00000000000E+00 0. -1.
         13   -1    0    0    0    0 -0.00000000000E+00 -0.00000000000E+00 -0.10000000000E+04  0.10000000000E+04  0.00000000000E+00 0.  1.
    9000005    2    1    2  501    0  0.10335136978E+02 -0.37263428171E+02 -0.40772841267E+03  0.40956711951E+03  0.27182251223E+01 0.  0.
         13    1    3    3    0    0  0.31141823449E+01 -0.14246357981E+02 -0.14276700400E+03  0.14350984035E+03  0.00000000000E+00 0.  1.
          3    1    3    3  501    0  0.72209546334E+01 -0.23017070190E+02 -0.26496140868E+03  0.26605727916E+03  0.00000000000E+00 0.  1.
         -1    1    1    2    0  502 -0.10335136978E+02  0.37263428171E+02 -0.59072004803E+03  0.59198441979E+03  0.00000000000E+00 0. -1.
<mgrwt>
<rscale>  1 0.30000000E+03</rscale>
<asrwt>0</asrwt>
<pdfrwt beam="1">  1       21 0.56419730E-02 0.30000000E+03</pdfrwt>
<pdfrwt beam="2">0</pdfrwt>
<totfact> 0.23426671E+04</totfact>
</mgrwt>
</event>
<event>
 6    1  0.1284012E-001  0.3000000E+03  0.7818608E-02  0.1093470E+00
         21   -1    0    0  501  502  0.00000000000E+00  0.00000000000E+00  0.15790776202E+01  0.15790776202E+01  0.00000000000E+00 0. -1.
         13   -1    0    0    0    0 -0.00000000000E+00 -0.00000000000E+00 -0.10000000000E+04  0.10000000000E+04  0.00000000000E+00 0.  1.
    9000005    2    1    2  501    0  0.87326408067E+01  0.36928322325E+02 -0.64507277991E+03  0.64619918259E+03  0.38121113951E+01 0.  0.
         13    1    3    3    0    0  0.47891721359E+01  0.18961659542E+02 -0.36420813504E+03  0.36473284241E+03  0.00000000000E+00 0.  1.
          1    1    3    3  501    0  0.39434686708E+01  0.17966662783E+02 -0.28086464487E+03  0.28146634018E+03  0.00000000000E+00 0.  1.
         -3    1    1    2    0  502 -0.87326408067E+01 -0.36928322325E+02 -0.35334814247E+03  0.35537989503E+03  0.00000000000E+00 0. -1.
<mgrwt>
<rscale>  1 0.30000000E+03</rscale>
<asrwt>0</asrwt>
<pdfrwt beam="1">  1       21 0.57421125E-02 0.30000000E+03</pdfrwt>
<pdfrwt beam="2">0</pdfrwt>
<totfact> 0.22728653E+04</totfact>
</mgrwt>
</event>
<event>
 6    1  0.1284012E-001  0.3000000E+03  0.7818608E-02  0.1093470E+00
         21   -1    0    0  501  502  0.00000000000E+00  0.00000000000E+00  0.97883225870E+01  0.97883225870E+01  0.00000000000E+00 0. -1.
         13   -1    0    0    0    0 -0.00000000000E+00 -0.00000000000E+00 -0.10000000000E+04  0.10000000000E+04  0.00000000000E+00 0.  1.
    9000005    2    1    2  501    0  0.18549258935E+02 -0.45403569767E+02 -0.93357062265E+03  0.93486323841E+03  0.30996605733E+01 0.  0.
         13    1    3    3    0    0  0.72404365817E+00 -0.38123189888E+01 -0.67978528517E+02  0.68089194110E+02  0.00000000000E+00 0.  1.
          1    1    3    3  501    0  0.17825215277E+02 -0.41591250778E+02 -0.86559209414E+03  0.86677404430E+03  0.00000000000E+00 0.  1.
         -1    1    1    2    0  502 -0.18549258935E+02  0.45403569767E+02 -0.56641054761E+02  0.74925084178E+02  0.00000000000E+00 0. -1.
<mgrwt>
<rscale>  1 0.30000000E+03</rscale>
<asrwt>0</asrwt>
<pdfrwt beam="1">  1       21 0.35593975E-01 0.30000000E+03</pdfrwt>
<pdfrwt beam="2">0</pdfrwt>
<totfact> 0.76884034E+02</totfact>
</mgrwt>
</event>
<event>
 6    1  0.1284012E-001  0.3000000E+03  0.7818608E-02  0.1093470E+00
         21   -1    0    0  501  502  0.00000000000E+00  0.00000000000E+00  0.22202063867E+01  0.22202063867E+01  0.00000000000E+00 0. -1.
         13   -1    0    0    0    0 -0.00000000000E+00 -0.00000000000E+00 -0.10000000000E+04  0.10000000000E+04  0.00000000000E+00 0.  1.
    9000005    2    1    2  501    0 -0.17932613366E+02 -0.33030376676E+02 -0.80067858397E+03  0.80156759303E+03  0.34390341819E+01 0.  0.
         13    1    3    3    0    0 -0.81789219052E+01 -0.13433805277E+02 -0.36720493155E+03  0.36754159443E+03  0.00000000000E+00 0.  1.
          3    1    3    3  501    0 -0.97536914607E+01 -0.19596571400E+02 -0.43347365243E+03  0.43402599860E+03  0.00000000000E+00 0.  1.
         -1    1    1    2    0  502  0.17932613366E+02  0.33030376676E+02 -0.19710120964E+03  0.20065261336E+03  0.00000000000E+00 0. -1.
<mgrwt>
<rscale>  1 0.30000000E+03</rscale>
<asrwt>0</asrwt>
<pdfrwt beam="1">  1       21 0.80734948E-02 0.30000000E+03</pdfrwt>
<pdfrwt beam="2">0</pdfrwt>
<totfact> 0.12570272E+04</totfact>
</mgrwt>
</event>
<event>
 6    1  0.1284012E-001  0.3000000E+03  0.7818608E-02  0.1093470E+00
         21   -1    0    0  501  502  0.00000000000E+00  0.00000000000E+00  0.21102639622E+01  0.21102639622E+01  0.00000000000E+00 0. -1.
         13   -1    0    0    0    0 -0.00000000000E+00 -0.00000000000E+00 -0.10000000000E+04  0.10000000000E+04  0.00000000000E+00 0.  1.
    9000005    2    1    2  501    0  0.86551583755E+01 -0.40269016702E+02 -0.71958061810E+03  0.72076977523E+03  0.40370121889E+01 0.  0.
         13    1    3    3    0    0  0.46388099867E+01 -0.28150496109E+02 -0.47467562389E+03  0.47553224592E+03  0.00000000000E+00 0.  1.
          1    1    3    3  501    0  0.40163483888E+01 -0.12118520593E+02 -0.24490499421E+03  0.24523752932E+03  0.00000000000E+00 0.  1.
         -3    1    1    2    0  502 -0.86551583755E+01  0.40269016702E+02 -0.27830911793E+03  0.28134048873E+03  0.00000000000E+00 0. -1.
<mgrwt>
<rscale>  1 0.30000000E+03</rscale>
<asrwt>0</asrwt>
<pdfrwt beam="1">  1       21 0.76737033E-02 0.30000000E+03</pdfrwt>
<pdfrwt beam="2">0</pdfrwt>
<totfact> 0.13742084E+04</totfact>
</mgrwt>
</event>
<event>
 6    1  0.1284012E-001  0.3000000E+03  0.7818608E-02  0.1093470E+00
         21   -1    0    0  501  502  0.00000000000E+00  0.00000000000E+00  0.15790190394E+01  0.15790190394E+01  0.00000000000E+00 0. -1.
         13   -1    0    0    0    0 -0.00000000000E+00 -0.00000000000E+00 -0.10000000000E+04  0.10000000000E+04  0.00000000000E+00 0.  1.
    9000005    2    1    2  501    0  0.59843947161E+01  0.39187218600E+02 -0.48794539880E+03  0.48956654745E+03  0.36388307984E+01 0.  0.
         13    1    3    3    0    0  0.38698143661E+00  0.14011912475E+02 -0.17337645080E+03  0.17394216607E+03  0.00000000000E+00 0.  1.
          1    1    3    3  501    0  0.55974132795E+01  0.25175306125E+02 -0.31456894800E+03  0.31562438137E+03  0.00000000000E+00 0.  1.
         -1    1    1    2    0  502 -0.59843947161E+01 -0.39187218600E+02 -0.51047558216E+03  0.51201247159E+03  0.00000000000E+00 0. -1.
<mgrwt>
<rscale>  1 0.30000000E+03</rscale>
<asrwt>0</asrwt>
<pdfrwt beam="1">  1       21 0.57418995E-02 0.30000000E+03</pdfrwt>
<pdfrwt beam="2">0</pdfrwt>
<totfact> 0.22730104E+04</totfact>
</mgrwt>
</event>
<event>
 6    1  0.1284012E-001  0.3000000E+03  0.7818608E-02  0.1093470E+00
         21   -1    0    0  501  502  0.00000000000E+00  0.00000000000E+00  0.48228784849E+01  0.48228784849E+01  0.00000000000E+00 0. -1.
         13   -1    0    0    0    0 -0.00000000000E+00 -0.00000000000E+00 -0.10000000000E+04  0.10000000000E+04  0.00000000000E+00 0.  1.
    9000005    2    1    2  501    0 -0.31222594980E+02  0.31976780665E+02 -0.88123784512E+03  0.88243201426E+03  0.10428575624E+02 0.  0.
         13    1    3    3    0    0 -0.24435378302E+02  0.19039403950E+02 -0.54922594466E+03  0.55009883194E+03  0.00000000000E+00 0.  1.
          3    1    3    3  501    0 -0.67872166778E+01  0.12937376715E+02 -0.33201190046E+03  0.33233318233E+03  0.00000000000E+00 0.  1.
         -3    1    1    2    0  502  0.31222594980E+02 -0.31976780665E+02 -0.11393927640E+03  0.12239086422E+03  0.00000000000E+00 0. -1.
<mgrwt>
<rscale>  1 0.30000000E+03</rscale>
<asrwt>0</asrwt>
<pdfrwt beam="1">  1       21 0.17537777E-01 0.30000000E+03</pdfrwt>
<pdfrwt beam="2">0</pdfrwt>
<totfact> 0.30764595E+03</totfact>
</mgrwt>
</event>
<event>
 6    1  0.1284012E-001  0.3000000E+03  0.7818608E-02  0.1093470E+00
         21   -1    0    0  501  502  0.00000000000E+00  0.00000000000E+00  0.16476368717E+01  0.16476368717E+01  0.00000000000E+00 0. -1.
         13   -1    0    0    0    0 -0.00000000000E+00 -0.00000000000E+00 -0.10000000000E+04  0.10000000000E+04  0.00000000000E+00 0.  1.
    9000005    2    1    2  501    0 -0.33282858311E+02  0.41073341010E+01 -0.78058738477E+03  0.78131560413E+03  0.35761922463E+01 0.  0.
         13    1    3    3    0    0 -0.27336847172E+02  0.43278864696E+01 -0.61823590864E+03  0.61885513050E+03  0.00000000000E+00 0.  1.
          1    1    3    3  501    0 -0.59460111388E+01 -0.22055236865E+00 -0.16235147613E+03  0.16246047364E+03  0.00000000000E+00 0.  1.
         -3    1    1    2    0  502  0.33282858311E+02 -0.41073341010E+01 -0.21776497836E+03  0.22033203274E+03  0.00000000000E+00 0. -1.
<mgrwt>
<rscale>  1 0.30000000E+03</rscale>
<asrwt>0</asrwt>
<pdfrwt beam="1">  1       21 0.59914194E-02 0.30000000E+03</pdfrwt>
<pdfrwt beam="2">0</pdfrwt>
<totfact> 0.21123736E+04</totfact>
</mgrwt>
</event>
<event>
 6    1  0.1284012E-001  0.3000000E+03  0.7818608E-02  0.1093470E+00
         21   -1    0    0  501  502  0.00000000000E+00  0.00000000000E+00  0.10736286877E+01  0.10736286877E+01  0.00000000000E+00 0. -1.
         13   -1    0    0    0    0 -0.00000000000E+00 -0.00000000000E+00 -0.10000000000E+04  0.10000000000E+04  0.00000000000E+00 0.  1.
    9000005    2    1    2  501    0  0.35730335105E+01  0.30571697842E+02 -0.33170132136E+03  0.33313900422E+03  0.29041804461E+01 0.  0.
         13    1    3    3    0    0  0.19609443635E+01  0.21200399900E+02 -0.24218128058E+03  0.24311535312E+03  0.00000000000E+00 0.  1.
          1    1    3    3  501    0  0.16120891470E+01  0.93712979423E+01 -0.89520040776E+02  0.90023651098E+02  0.00000000000E+00 0.  1.
         -1    1    1    2    0  502 -0.35730335105E+01 -0.30571697842E+02 -0.66722504995E+03  0.66793462447E+03  0.00000000000E+00 0. -1.
<mgrwt>
<rscale>  1 0.30000000E+03</rscale>
<asrwt>0</asrwt>
<pdfrwt beam="1">  1       21 0.39041126E-02 0.30000000E+03</pdfrwt>
<pdfrwt beam="2">0</pdfrwt>
<totfact> 0.43799951E+04</totfact>
</mgrwt>
</event>
<event>
 6    1  0.1284012E-001  0.3000000E+03  0.7818608E-02  0.1093470E+00
         21   -1    0    0  501  502  0.00000000000E+00  0.00000000000E+00  0.98894914984E+00  0.98894914984E+00  0.00000000000E+00 0. -1.
         13   -1    0    0    0    0 -0.00000000000E+00 -0.00000000000E+00 -0.10000000000E+04  0.10000000000E+04  0.00000000000E+00 0.  1.
    9000005    2    1    2  501    0 -0.31282222239E+02  0.30587461478E+01 -0.50682704707E+03  0.50780234458E+03  0.12775588654E+01 0.  0.
         13    1    3    3    0    0 -0.23255009648E+02  0.20332827655E+01 -0.36804377529E+03  0.36878333781E+03  0.00000000000E+00 0.  1.
          1    1    3    3  501    0 -0.80272125919E+01  0.10254633823E+01 -0.13878327178E+03  0.13901900677E+03  0.00000000000E+00 0.  1.
         -3    1    1    2    0  502  0.31282222239E+02 -0.30587461478E+01 -0.49218400378E+03  0.49318660457E+03  0.00000000000E+00 0. -1.
<mgrwt>
<rscale>  1 0.30000000E+03</rscale>
<asrwt>0</asrwt>
<pdfrwt beam="1">  1       21 0.35961863E-02 0.30000000E+03</pdfrwt>
<pdfrwt beam="2">0</pdfrwt>
<totfact> 0.50279599E+04</totfact>
</mgrwt>
</event>
<event>
 6    1  0.1284012E-001  0.3000000E+03  0.7818608E-02  0.1093470E+00
         21   -1    0    0  501  502  0.00000000000E+00  0.00000000000E+00  0.20343320764E+01  0.20343320764E+01  0.00000000000E+00 0. -1.
         13   -1    0    0    0    0 -0.00000000000E+00 -0.00000000000E+00 -0.10000000000E+04  0.10000000000E+04  0.00000000000E+00 0.  1.
    9000005    2    1    2  501    0  0.32430568344E+02 -0.23053772596E+02 -0.73424655611E+03  0.73533039860E+03  0.30938256973E+01 0.  0.
         13    1    3    3    0    0  0.26301653529E+02 -0.17898997907E+02 -0.60510617138E+03  0.60594193596E+03  0.00000000000E+00 0.  1.
          3    1    3    3  501    0  0.61289148146E+01 -0.51547746894E+01 -0.12914038472E+03  0.12938846265E+03  0.00000000000E+00 0.  1.
         -3    1    1    2    0  502 -0.32430568344E+02  0.23053772596E+02 -0.26371911182E+03  0.26670393347E+03  0.00000000000E+00 0. -1.
<mgrwt>
<rscale>  1 0.30000000E+03</rscale>
<asrwt>0</asrwt>
<pdfrwt beam="1">  1       21 0.73975868E-02 0.30000000E+03</pdfrwt>
<pdfrwt beam="2">0</pdfrwt>
<totfact> 0.14652844E+04</totfact>
</mgrwt>
</event>
<event>
 6    1  0.1284012E-001  0.3000000E+03  0.7818608E-02  0.1093470E+00
         21   -1    0    0  501  502  0.00000000000E+00  0.00000000000E+00  0.10010570583E+01  0.10010570583E+01  0.00000000000E+00 0. -1.
         13   -1    0    0    0    0 -0.00000000000E+00 -0.00000000000E+00 -0.10000000000E+04  0.10000000000E+04  0.00000000000E+00 0.  1.
    9000005    2    1    2  501    0  0.29651907367E+02  0.46862646916E+01 -0.34794563887E+03  0.34925601378E+03  0.35212028890E+01 0.  0.
         13    1    3    3    0    0  0.24517118156E+02  0.28508358213E+01 -0.29473777229E+03  0.29576945542E+03  0.00000000000E+00 0.  1.
          1    1    3    3  501    0  0.51347892105E+01  0.18354288703E+01 -0.53207866578E+02  0.53486558360E+02  0.00000000000E+00 0.  1.
         -3    1    1    2    0  502 -0.29651907367E+02 -0.46862646916E+01 -0.65105330407E+03  0.65174504327E+03  0.00000000000E+00 0. -1.
<mgrwt>
<rscale>  1 0.30000000E+03</rscale>
<asrwt>0</asrwt>
<pdfrwt beam="1">  1       21 0.36402152E-02 0.30000000E+03</pdfrwt>
<pdfrwt beam="2">0</pdfrwt>
<totfact> 0.49263804E+04</totfact>
</mgrwt>
</event>
<event>
 6    1  0.1284012E-001  0.3000000E+03  0.7818608E-02  0.1093470E+00
         21   -1    0    0  501  502  0.00000000000E+00  0.00000000000E+00  0.50550036133E+01  0.50550036133E+01  0.00000000000E+00 0. -1.
         13   -1    0    0    0    0 -0.00000000000E+00 -0.00000000000E+00 -0.10000000000E+04  0.10000000000E+04  0.00000000000E+00 0.  1.
    9000005    2    1    2  501    0 -0.65387654510E+02 -0.25932188931E+02 -0.42692959702E+03  0.43270063987E+03  0.35971018823E+01 0.  0.
         13    1    3    3    0    0 -0.30823682950E+02 -0.10635794247E+02 -0.20399520262E+03  0.20658475801E+03  0.00000000000E+00 0.  1.
          3    1    3    3  501    0 -0.34563971560E+02 -0.15296394684E+02 -0.22293439440E+03  0.22611588185E+03  0.00000000000E+00 0.  1.
         -3    1    1    2    0  502  0.65387654510E+02  0.25932188931E+02 -0.56801539936E+03  0.57235436375E+03  0.00000000000E+00 0. -1.
<mgrwt>
<rscale>  1 0.30000000E+03</rscale>
<asrwt>0</asrwt>
<pdfrwt beam="1">  1       21 0.18381870E-01 0.30000000E+03</pdfrwt>
<pdfrwt beam="2">0</pdfrwt>
<totfact> 0.28158533E+03</totfact>
</mgrwt>
</event>
<event>
 6    1  0.1284012E-001  0.3000000E+03  0.7818608E-02  0.1093470E+00
         21   -1    0    0  501  502  0.00000000000E+00  0.00000000000E+00  0.12845970915E+02  0.12845970915E+02  0.00000000000E+00 0. -1.
         13   -1    0    0    0    0 -0.00000000000E+00 -0.00000000000E+00 -0.10000000000E+04  0.10000000000E+04  0.00000000000E+00 0.  1.
    9000005    2    1    2  501    0 -0.65244752672E+01 -0.92976885659E+02 -0.78148048121E+03  0.78703880021E+03  0.55731936025E+01 0.  0.
         13    1    3    3    0    0  0.38736249552E+00 -0.15195207254E+01 -0.18219540833E+02  0.18286898619E+02  0.00000000000E+00 0.  1.
          1    1    3    3  501    0 -0.69118377628E+01 -0.91457364934E+02 -0.76326094037E+03  0.76875190159E+03  0.00000000000E+00 0.  1.
         -3    1    1    2    0  502  0.65244752672E+01  0.92976885659E+02 -0.20567354788E+03  0.22580717070E+03  0.00000000000E+00 0. -1.
<mgrwt>
<rscale>  1 0.30000000E+03</rscale>
<asrwt>0</asrwt>
<pdfrwt beam="1">  1       21 0.46712720E-01 0.30000000E+03</pdfrwt>
<pdfrwt beam="2">0</pdfrwt>
<totfact> 0.43499118E+02</totfact>
</mgrwt>
</event>
<event>
 6    1  0.1284012E-001  0.3000000E+03  0.7818608E-02  0.1093470E+00
         21   -1    0    0  501  502  0.00000000000E+00  0.00000000000E+00  0.10957566395E+01  0.10957566395E+01  0.00000000000E+00 0. -1.
         13   -1    0    0    0    0 -0.00000000000E+00 -0.00000000000E+00 -0.10000000000E+04  0.10000000000E+04  0.00000000000E+00 0.  1.
    9000005    2    1    2  501    0  0.30973175565E+02  0.72437496882E-01 -0.32944897258E+03  0.33092435884E+03  0.38681892877E+01 0.  0.
         13    1    3    3    0    0  0.98448098646E+01 -0.90168787524E-01 -0.12471449712E+03  0.12510249479E+03  0.00000000000E+00 0.  1.
          3    1    3    3  501    0  0.21128365700E+02  0.16260628441E+00 -0.20473447546E+03  0.20582186405E+03  0.00000000000E+00 0.  1.
         -3    1    1    2    0  502 -0.30973175565E+02 -0.72437496882E-01 -0.66945527078E+03  0.67017139780E+03  0.00000000000E+00 0. -1.
<mgrwt>
<rscale>  1 0.30000000E+03</rscale>
<asrwt>0</asrwt>
<pdfrwt beam="1">  1       21 0.39845780E-02 0.30000000E+03</pdfrwt>
<pdfrwt beam="2">0</pdfrwt>
<totfact> 0.42321720E+04</totfact>
</mgrwt>
</event>
<event>
 6    1  0.1284012E-001  0.3000000E+03  0.7818608E-02  0.1093470E+00
         21   -1    0    0  501  502  0.00000000000E+00  0.00000000000E+00  0.29644406618E+01  0.29644406618E+01  0.00000000000E+00 0. -1.
         13   -1    0    0    0    0 -0.00000000000E+00 -0.00000000000E+00 -0.10000000000E+04  0.10000000000E+04  0.00000000000E+00 0.  1.
    9000005    2    1    2  501    0  0.36928225596E+02 -0.19820407381E+02 -0.81832434392E+03  0.81940452971E+03  0.35368140670E+01 0.  0.
         13    1    3    3    0    0  0.23888054487E+02 -0.10995598318E+02 -0.50038586227E+03  0.50107639486E+03  0.00000000000E+00 0.  1.
          1    1    3    3  501    0  0.13040171109E+02 -0.88248090631E+01 -0.31793848165E+03  0.31832813484E+03  0.00000000000E+00 0.  1.
         -1    1    1    2    0  502 -0.36928225596E+02  0.19820407381E+02 -0.17871121542E+03  0.18355991096E+03  0.00000000000E+00 0. -1.
<mgrwt>
<rscale>  1 0.30000000E+03</rscale>
<asrwt>0</asrwt>
<pdfrwt beam="1">  1       21 0.10779807E-01 0.30000000E+03</pdfrwt>
<pdfrwt beam="2">0</pdfrwt>
<totfact> 0.75204748E+03</totfact>
</mgrwt>
</event>
<event>
 6    1  0.1284012E-001  0.3000000E+03  0.7818608E-02  0.1093470E+00
         21   -1    0    0  501  502  0.00000000000E+00  0.00000000000E+00  0.11407768797E+01  0.11407768797E+01  0.00000000000E+00 0. -1.
         13   -1    0    0    0    0 -0.00000000000E+00 -0.00000000000E+00 -0.10000000000E+04  0.10000000000E+04  0.00000000000E+00 0.  1.
    9000005    2    1    2  501    0  0.14303704334E+02  0.30225897883E+02 -0.56039001629E+03  0.56139829974E+03  0.35888348418E+01 0.  0.
         13    1    3    3    0    0  0.61687560209E+01  0.10152430040E+02 -0.21887048496E+03  0.21919264260E+03  0.00000000000E+00 0.  1.
          3    1    3    3  501    0  0.81349483132E+01  0.20073467844E+02 -0.34151953133E+03  0.34220565714E+03  0.00000000000E+00 0.  1.
         -1    1    1    2    0  502 -0.14303704334E+02 -0.30225897883E+02 -0.43846920683E+03  0.43974247714E+03  0.00000000000E+00 0. -1.
<mgrwt>
<rscale>  1 0.30000000E+03</rscale>
<asrwt>0</asrwt>
<pdfrwt beam="1">  1       21 0.41482883E-02 0.30000000E+03</pdfrwt>
<pdfrwt beam="2">0</pdfrwt>
<totfact> 0.39544841E+04</totfact>
</mgrwt>
</event>
<event>
 6    1  0.1284012E-001  0.3000000E+03  0.7818608E-02  0.1093470E+00
         21   -1    0    0  501  502  0.00000000000E+00  0.00000000000E+00  0.36074521723E+01  0.36074521723E+01  0.00000000000E+00 0. -1.
         13   -1    0    0    0    0 -0.00000000000E+00 -0.00000000000E+00 -0.10000000000E+04  0.10000000000E+04  0.00000000000E+00 0.  1.
    9000005    2    1    2  501    0  0.41518937025E+02 -0.33967824384E+02 -0.72358798755E+03  0.72557874262E+03  0.27019984238E+01 0.  0.
         13    1    3    3    0    0  0.29050642872E+01 -0.18252626177E+01 -0.53543516980E+02  0.53653324154E+02  0.00000000000E+00 0.  1.
          3    1    3    3  501    0  0.38613872737E+02 -0.32142561767E+02 -0.67004447057E+03  0.67192541847E+03  0.00000000000E+00 0.  1.
         -1    1    1    2    0  502 -0.41518937025E+02  0.33967824384E+02 -0.27280456028E+03  0.27802870955E+03  0.00000000000E+00 0. -1.
<mgrwt>
<rscale>  1 0.30000000E+03</rscale>
<asrwt>0</asrwt>
<pdfrwt beam="1">  1       21 0.13118036E-01 0.30000000E+03</pdfrwt>
<pdfrwt beam="2">0</pdfrwt>
<totfact> 0.52688070E+03</totfact>
</mgrwt>
</event>
<event>
 6    1  0.1284012E-001  0.3000000E+03  0.7818608E-02  0.1093470E+00
         21   -1    0    0  501  502  0.00000000000E+00  0.00000000000E+00  0.20393633359E+01  0.20393633359E+01  0.00000000000E+00 0. -1.
         13   -1    0    0    0    0 -0.00000000000E+00 -0.00000000000E+00 -0.10000000000E+04  0.10000000000E+04  0.00000000000E+00 0.  1.
    9000005    2    1    2  501    0 -0.15443959883E+02  0.27888992450E+02 -0.85360400683E+03  0.85420449474E+03  0.30342305574E+01 0.  0.
         13    1    3    3    0    0 -0.39272498299E+01  0.99380897409E+01 -0.29514525116E+03  0.29533863310E+03  0.00000000000E+00 0.  1.
          1    1    3    3  501    0 -0.11516710053E+02  0.17950902709E+02 -0.55845875567E+03  0.55886586164E+03  0.00000000000E+00 0.  1.
         -1    1    1    2    0  502  0.15443959883E+02 -0.27888992450E+02 -0.14435662983E+03  0.14783486860E+03  0.00000000000E+00 0. -1.
<mgrwt>
<rscale>  1 0.30000000E+03</rscale>
<asrwt>0</asrwt>
<pdfrwt beam="1">  1       21 0.74158823E-02 0.30000000E+03</pdfrwt>
<pdfrwt beam="2">0</pdfrwt>
<totfact> 0.14589668E+04</totfact>
</mgrwt>
</event>
<event>
 6    1  0.1284012E-001  0.3000000E+03  0.7818608E-02  0.1093470E+00
         21   -1    0    0  501  502  0.00000000000E+00  0.00000000000E+00  0.31813362772E+01  0.31813362772E+01  0.00000000000E+00 0. -1.
         13   -1    0    0    0    0 -0.00000000000E+00 -0.00000000000E+00 -0.10000000000E+04  0.10000000000E+04  0.00000000000E+00 0.  1.
    9000005    2    1    2  501    0  0.41628146434E+02 -0.34637132006E+02 -0.63673993908E+03  0.63905317006E+03  0.43093689592E+01 0.  0.
         13    1    3    3    0    0  0.29213747874E+02 -0.21988283565E+02 -0.43988704466E+03  0.44140405497E+03  0.00000000000E+00 0.  1.
          3    1    3    3  501    0  0.12414398560E+02 -0.12648848441E+02 -0.19685289441E+03  0.19764911509E+03  0.00000000000E+00 0.  1.
         -3    1    1    2    0  502 -0.41628146434E+02  0.34637132006E+02 -0.36007872465E+03  0.36412816622E+03  0.00000000000E+00 0. -1.
<mgrwt>
<rscale>  1 0.30000000E+03</rscale>
<asrwt>0</asrwt>
<pdfrwt beam="1">  1       21 0.11568520E-01 0.30000000E+03</pdfrwt>
<pdfrwt beam="2">0</pdfrwt>
<totfact> 0.66220805E+03</totfact>
</mgrwt>
</event>
<event>
 6    1  0.1284012E-001  0.3000000E+03  0.7818608E-02  0.1093470E+00
         21   -1    0    0  501  502  0.00000000000E+00  0.00000000000E+00  0.18003764067E+01  0.18003764067E+01  0.00000000000E+00 0. -1.
         13   -1    0    0    0    0 -0.00000000000E+00 -0.00000000000E+00 -0.10000000000E+04  0.10000000000E+04  0.00000000000E+00 0.  1.
    9000005    2    1    2  501    0 -0.23617640583E+02 -0.23723791610E+02 -0.80628546112E+03  0.80698852617E+03  0.36912491265E+01 0.  0.
         13    1    3    3    0    0 -0.87169937720E+01 -0.72660742964E+01 -0.24030424873E+03  0.24057205526E+03  0.00000000000E+00 0.  1.
          3    1    3    3  501    0 -0.14900646811E+02 -0.16457717314E+02 -0.56598121239E+03  0.56641647091E+03  0.00000000000E+00 0.  1.
         -1    1    1    2    0  502  0.23617640583E+02  0.23723791610E+02 -0.19191416247E+03  0.19481185023E+03  0.00000000000E+00 0. -1.
<mgrwt>
<rscale>  1 0.30000000E+03</rscale>
<asrwt>0</asrwt>
<pdfrwt beam="1">  1       21 0.65468371E-02 0.30000000E+03</pdfrwt>
<pdfrwt beam="2">0</pdfrwt>
<totfact> 0.18123296E+04</totfact>
</mgrwt>
</event>
<event>
 6    1  0.1284012E-001  0.3000000E+03  0.7818608E-02  0.1093470E+00
         21   -1    0    0  501  502  0.00000000000E+00  0.00000000000E+00  0.17930623785E+01  0.17930623785E+01  0.00000000000E+00 0. -1.
         13   -1    0    0    0    0 -0.00000000000E+00 -0.00000000000E+00 -0.10000000000E+04  0.10000000000E+04  0.00000000000E+00 0.  1.
    9000005    2    1    2  501    0 -0.24184799018E+02 -0.25492320667E+02 -0.77759621824E+03  0.77840136060E+03  0.42469577107E+01 0.  0.
         13    1    3    3    0    0 -0.72062246146E+01 -0.78964455301E+01 -0.28149831283E+03  0.28170123118E+03  0.00000000000E+00 0.  1.
          1    1    3    3  501    0 -0.16978574403E+02 -0.17595875137E+02 -0.49609790541E+03  0.49670012942E+03  0.00000000000E+00 0.  1.
         -1    1    1    2    0  502  0.24184799018E+02  0.25492320667E+02 -0.22061071938E+03  0.22339170178E+03  0.00000000000E+00 0. -1.
<mgrwt>
<rscale>  1 0.30000000E+03</rscale>
<asrwt>0</asrwt>
<pdfrwt beam="1">  1       21 0.65202406E-02 0.30000000E+03</pdfrwt>
<pdfrwt beam="2">0</pdfrwt>
<totfact> 0.18251522E+04</totfact>
</mgrwt>
</event>
<event>
 6    1  0.1284012E-001  0.3000000E+03  0.7818608E-02  0.1093470E+00
         21   -1    0    0  501  502  0.00000000000E+00  0.00000000000E+00  0.23677395874E+01  0.23677395874E+01  0.00000000000E+00 0. -1.
         13   -1    0    0    0    0 -0.00000000000E+00 -0.00000000000E+00 -0.10000000000E+04  0.10000000000E+04  0.00000000000E+00 0.  1.
    9000005    2    1    2  501    0  0.21803401346E+02  0.22927197680E+02 -0.87946497375E+03  0.88003805251E+03  0.26998342803E+01 0.  0.
         13    1    3    3    0    0  0.73118067197E-01  0.54705739723E+00 -0.12888015780E+02  0.12899828247E+02  0.00000000000E+00 0.  1.
          3    1    3    3  501    0  0.21730283279E+02  0.22380140283E+02 -0.86657695797E+03  0.86713822427E+03  0.00000000000E+00 0.  1.
         -3    1    1    2    0  502 -0.21803401346E+02 -0.22927197680E+02 -0.11816728666E+03  0.12232968708E+03  0.00000000000E+00 0. -1.
<mgrwt>
<rscale>  1 0.30000000E+03</rscale>
<asrwt>0</asrwt>
<pdfrwt beam="1">  1       21 0.86099803E-02 0.30000000E+03</pdfrwt>
<pdfrwt beam="2">0</pdfrwt>
<totfact> 0.11223791E+04</totfact>
</mgrwt>
</event>
<event>
 6    1  0.1284012E-001  0.3000000E+03  0.7818608E-02  0.1093470E+00
         21   -1    0    0  501  502  0.00000000000E+00  0.00000000000E+00  0.30409920787E+01  0.30409920787E+01  0.00000000000E+00 0. -1.
         13   -1    0    0    0    0 -0.00000000000E+00 -0.00000000000E+00 -0.10000000000E+04  0.10000000000E+04  0.00000000000E+00 0.  1.
    9000005    2    1    2  501    0  0.28754842472E+01  0.44564588905E+02 -0.79238957063E+03  0.79365396844E+03  0.33345143764E+01 0.  0.
         13    1    3    3    0    0  0.15416037997E+01  0.39735777421E+02 -0.69946587232E+03  0.70059532905E+03  0.00000000000E+00 0.  1.
          3    1    3    3  501    0  0.13338804475E+01  0.48288114834E+01 -0.92923698308E+02  0.93058639387E+02  0.00000000000E+00 0.  1.
         -1    1    1    2    0  502 -0.28754842472E+01 -0.44564588905E+02 -0.20456943730E+03  0.20938702364E+03  0.00000000000E+00 0. -1.
<mgrwt>
<rscale>  1 0.30000000E+03</rscale>
<asrwt>0</asrwt>
<pdfrwt beam="1">  1       21 0.11058176E-01 0.30000000E+03</pdfrwt>
<pdfrwt beam="2">0</pdfrwt>
<totfact> 0.71835104E+03</totfact>
</mgrwt>
</event>
<event>
 6    1  0.1284012E-001  0.3000000E+03  0.7818608E-02  0.1093470E+00
         21   -1    0    0  501  502  0.00000000000E+00  0.00000000000E+00  0.29938792662E+01  0.29938792662E+01  0.00000000000E+00 0. -1.
         13   -1    0    0    0    0 -0.00000000000E+00 -0.00000000000E+00 -0.10000000000E+04  0.10000000000E+04  0.00000000000E+00 0.  1.
    9000005    2    1    2  501    0  0.34000239575E+02  0.26086178640E+02 -0.80924970022E+03  0.81040888906E+03  0.64019653177E+01 0.  0.
         13    1    3    3    0    0  0.20894647607E+02  0.15100908766E+02 -0.42783082836E+03  0.42860686117E+03  0.00000000000E+00 0.  1.
          1    1    3    3  501    0  0.13105591968E+02  0.10985269874E+02 -0.38141887186E+03  0.38180202790E+03  0.00000000000E+00 0.  1.
         -3    1    1    2    0  502 -0.34000239575E+02 -0.26086178640E+02 -0.18775642051E+03  0.19258499020E+03  0.00000000000E+00 0. -1.
<mgrwt>
<rscale>  1 0.30000000E+03</rscale>
<asrwt>0</asrwt>
<pdfrwt beam="1">  1       21 0.10886857E-01 0.30000000E+03</pdfrwt>
<pdfrwt beam="2">0</pdfrwt>
<totfact> 0.73881219E+03</totfact>
</mgrwt>
</event>
<event>
 6    1  0.1284012E-001  0.3000000E+03  0.7818608E-02  0.1093470E+00
         21   -1    0    0  501  502  0.00000000000E+00  0.00000000000E+00  0.11103564756E+02  0.11103564756E+02  0.00000000000E+00 0. -1.
         13   -1    0    0    0    0 -0.00000000000E+00 -0.00000000000E+00 -0.10000000000E+04  0.10000000000E+04  0.00000000000E+00 0.  1.
    9000005    2    1    2  501    0  0.32496345665E+02 -0.39303330336E+02 -0.93682637939E+03  0.93821971899E+03  0.34368186743E+01 0.  0.
         13    1    3    3    0    0  0.20363052111E+02 -0.26656609775E+02 -0.63336817942E+03  0.63425584698E+03  0.00000000000E+00 0.  1.
          3    1    3    3  501    0  0.12133293554E+02 -0.12646720561E+02 -0.30345819997E+03  0.30396387201E+03  0.00000000000E+00 0.  1.
         -1    1    1    2    0  502 -0.32496345665E+02  0.39303330336E+02 -0.52070055855E+02  0.72883845767E+02  0.00000000000E+00 0. -1.
<mgrwt>
<rscale>  1 0.30000000E+03</rscale>
<asrwt>0</asrwt>
<pdfrwt beam="1">  1       21 0.40376684E-01 0.30000000E+03</pdfrwt>
<pdfrwt beam="2">0</pdfrwt>
<totfact> 0.59230268E+02</totfact>
</mgrwt>
</event>
<event>
 6    1  0.1284012E-001  0.3000000E+03  0.7818608E-02  0.1093470E+00
         21   -1    0    0  501  502  0.00000000000E+00  0.00000000000E+00  0.55759548378E+01  0.55759548378E+01  0.00000000000E+00 0. -1.
         13   -1    0    0    0    0 -0.00000000000E+00 -0.00000000000E+00 -0.10000000000E+04  0.10000000000E+04  0.00000000000E+00 0.  1.
    9000005    2    1    2  501    0 -0.23183132870E+02 -0.23664365734E+02 -0.94778443898E+03  0.94836832667E+03  0.31113360374E+01 0.  0.
         13    1    3    3    0    0 -0.63095576580E+01 -0.74078117447E+01 -0.31492794274E+03  0.31507823681E+03  0.00000000000E+00 0.  1.
          1    1    3    3  501    0 -0.16873575212E+02 -0.16256553990E+02 -0.63285649624E+03  0.63329008986E+03  0.00000000000E+00 0.  1.
         -3    1    1    2    0  502  0.23183132870E+02  0.23664365734E+02 -0.46639606186E+02  0.57207628167E+02  0.00000000000E+00 0. -1.
<mgrwt>
<rscale>  1 0.30000000E+03</rscale>
<asrwt>0</asrwt>
<pdfrwt beam="1">  1       21 0.20276242E-01 0.30000000E+03</pdfrwt>
<pdfrwt beam="2">0</pdfrwt>
<totfact> 0.23371680E+03</totfact>
</mgrwt>
</event>
<event>
 6    1  0.1284012E-001  0.3000000E+03  0.7818608E-02  0.1093470E+00
         21   -1    0    0  501  502  0.00000000000E+00  0.00000000000E+00  0.39100069041E+01  0.39100069041E+01  0.00000000000E+00 0. -1.
         13   -1    0    0    0    0 -0.00000000000E+00 -0.00000000000E+00 -0.10000000000E+04  0.10000000000E+04  0.00000000000E+00 0.  1.
    9000005    2    1    2  501    0  0.17972558058E+02  0.32576686333E+02 -0.90136539097E+03  0.90214064224E+03  0.37305512807E+01 0.  0.
         13    1    3    3    0    0  0.80312995273E+01  0.11418743432E+02 -0.36096794389E+03  0.36123779701E+03  0.00000000000E+00 0.  1.
          3    1    3    3  501    0  0.99412585311E+01  0.21157942902E+02 -0.54039744708E+03  0.54090284523E+03  0.00000000000E+00 0.  1.
         -3    1    1    2    0  502 -0.17972558058E+02 -0.32576686333E+02 -0.94724602131E+02  0.10176936467E+03  0.00000000000E+00 0. -1.
<mgrwt>
<rscale>  1 0.30000000E+03</rscale>
<asrwt>0</asrwt>
<pdfrwt beam="1">  1       21 0.14218237E-01 0.30000000E+03</pdfrwt>
<pdfrwt beam="2">0</pdfrwt>
<totfact> 0.45455401E+03</totfact>
</mgrwt>
</event>
<event>
 6    1  0.1284012E-001  0.3000000E+03  0.7818608E-02  0.1093470E+00
         21   -1    0    0  501  502  0.00000000000E+00  0.00000000000E+00  0.17890626485E+01  0.17890626485E+01  0.00000000000E+00 0. -1.
         13   -1    0    0    0    0 -0.00000000000E+00 -0.00000000000E+00 -0.10000000000E+04  0.10000000000E+04  0.00000000000E+00 0.  1.
    9000005    2    1    2  501    0  0.17046762326E+02  0.29392934656E+02 -0.79677212119E+03  0.79750462034E+03  0.36427518937E+01 0.  0.
         13    1    3    3    0    0  0.13807392755E+02  0.26223063816E+02 -0.69557510347E+03  0.69620616037E+03  0.00000000000E+00 0.  1.
          3    1    3    3  501    0  0.32393695705E+01  0.31698708407E+01 -0.10119701773E+03  0.10129845997E+03  0.00000000000E+00 0.  1.
         -1    1    1    2    0  502 -0.17046762326E+02 -0.29392934656E+02 -0.20143881616E+03  0.20428444231E+03  0.00000000000E+00 0. -1.
<mgrwt>
<rscale>  1 0.30000000E+03</rscale>
<asrwt>0</asrwt>
<pdfrwt beam="1">  1       21 0.65056961E-02 0.30000000E+03</pdfrwt>
<pdfrwt beam="2">0</pdfrwt>
<totfact> 0.18322236E+04</totfact>
</mgrwt>
</event>
<event>
 6    1  0.1284012E-001  0.3000000E+03  0.7818608E-02  0.1093470E+00
         21   -1    0    0  501  502  0.00000000000E+00  0.00000000000E+00  0.22264046084E+01  0.22264046084E+01  0.00000000000E+00 0. -1.
         13   -1    0    0    0    0 -0.00000000000E+00 -0.00000000000E+00 -0.10000000000E+04  0.10000000000E+04  0.00000000000E+00 0.  1.
    9000005    2    1    2  501    0  0.42205960160E+02  0.56495507536E+01 -0.28588096509E+03  0.28906136230E+03  0.39095365075E+01 0.  0.
         13    1    3    3    0    0  0.21504306373E+02  0.48107200781E+01 -0.14472743465E+03  0.14639538436E+03  0.00000000000E+00 0.  1.
          3    1    3    3  501    0  0.20701653787E+02  0.83883067548E+00 -0.14115353044E+03  0.14266597794E+03  0.00000000000E+00 0.  1.
         -3    1    1    2    0  502 -0.42205960160E+02 -0.56495507536E+01 -0.71189263030E+03  0.71316504231E+03  0.00000000000E+00 0. -1.
<mgrwt>
<rscale>  1 0.30000000E+03</rscale>
<asrwt>0</asrwt>
<pdfrwt beam="1">  1       21 0.80960338E-02 0.30000000E+03</pdfrwt>
<pdfrwt beam="2">0</pdfrwt>
<totfact> 0.12508832E+04</totfact>
</mgrwt>
</event>
<event>
 6    1  0.1284012E-001  0.3000000E+03  0.7818608E-02  0.1093470E+00
         21   -1    0    0  501  502  0.00000000000E+00  0.00000000000E+00  0.10569734009E+01  0.10569734009E+01  0.00000000000E+00 0. -1.
         13   -1    0    0    0    0 -0.00000000000E+00 -0.00000000000E+00 -0.10000000000E+04  0.10000000000E+04  0.00000000000E+00 0.  1.
    9000005    2    1    2  501    0 -0.25370234068E+02 -0.18322815031E+02 -0.62357779339E+03  0.62438943746E+03  0.57905853733E+01 0.  0.
         13    1    3    3    0    0 -0.22426852958E+02 -0.15303299436E+02 -0.49660058933E+03  0.49734223632E+03  0.00000000000E+00 0.  1.
          1    1    3    3  501    0 -0.29433811098E+01 -0.30195155953E+01 -0.12697720406E+03  0.12704720114E+03  0.00000000000E+00 0.  1.
         -1    1    1    2    0  502  0.25370234068E+02  0.18322815031E+02 -0.37536523321E+03  0.37666753594E+03  0.00000000000E+00 0. -1.
<mgrwt>
<rscale>  1 0.30000000E+03</rscale>
<asrwt>0</asrwt>
<pdfrwt beam="1">  1       21 0.38435477E-02 0.30000000E+03</pdfrwt>
<pdfrwt beam="2">0</pdfrwt>
<totfact> 0.44966705E+04</totfact>
</mgrwt>
</event>
<event>
 6    1  0.1284012E-001  0.3000000E+03  0.7818608E-02  0.1093470E+00
         21   -1    0    0  501  502  0.00000000000E+00  0.00000000000E+00  0.11613270729E+01  0.11613270729E+01  0.00000000000E+00 0. -1.
         13   -1    0    0    0    0 -0.00000000000E+00 -0.00000000000E+00 -0.10000000000E+04  0.10000000000E+04  0.00000000000E+00 0.  1.
    9000005    2    1    2  501    0  0.26630123885E+02  0.20713859072E+02 -0.56716333098E+03  0.56816960856E+03  0.20573348646E+01 0.  0.
         13    1    3    3    0    0  0.14607978296E+02  0.10584019208E+02 -0.31682503904E+03  0.31733817900E+03  0.00000000000E+00 0.  1.
          1    1    3    3  501    0  0.12022145589E+02  0.10129839864E+02 -0.25033829195E+03  0.25083142956E+03  0.00000000000E+00 0.  1.
         -3    1    1    2    0  502 -0.26630123885E+02 -0.20713859072E+02 -0.43167534194E+03  0.43299171851E+03  0.00000000000E+00 0. -1.
<mgrwt>
<rscale>  1 0.30000000E+03</rscale>
<asrwt>0</asrwt>
<pdfrwt beam="1">  1       21 0.42230164E-02 0.30000000E+03</pdfrwt>
<pdfrwt beam="2">0</pdfrwt>
<totfact> 0.38370649E+04</totfact>
</mgrwt>
</event>
<event>
 6    1  0.1284012E-001  0.3000000E+03  0.7818608E-02  0.1093470E+00
         21   -1    0    0  501  502  0.00000000000E+00  0.00000000000E+00  0.20898238385E+01  0.20898238385E+01  0.00000000000E+00 0. -1.
         13   -1    0    0    0    0 -0.00000000000E+00 -0.00000000000E+00 -0.10000000000E+04  0.10000000000E+04  0.00000000000E+00 0.  1.
    9000005    2    1    2  501    0 -0.30739340947E+02  0.17961898704E+01 -0.86902320347E+03  0.86957572983E+03  0.35338887927E+01 0.  0.
         13    1    3    3    0    0 -0.13541929435E+02  0.23826866726E+01 -0.36512264858E+03  0.36538145759E+03  0.00000000000E+00 0.  1.
          1    1    3    3  501    0 -0.17197411511E+02 -0.58649680227E+00 -0.50390055489E+03  0.50419427224E+03  0.00000000000E+00 0.  1.
         -3    1    1    2    0  502  0.30739340947E+02 -0.17961898704E+01 -0.12888697270E+03  0.13251409401E+03  0.00000000000E+00 0. -1.
<mgrwt>
<rscale>  1 0.30000000E+03</rscale>
<asrwt>0</asrwt>
<pdfrwt beam="1">  1       21 0.75993754E-02 0.30000000E+03</pdfrwt>
<pdfrwt beam="2">0</pdfrwt>
<totfact> 0.13978469E+04</totfact>
</mgrwt>
</event>
<event>
 6    1  0.1284012E-001  0.3000000E+03  0.7818608E-02  0.1093470E+00
         21   -1    0    0  501  502  0.00000000000E+00  0.00000000000E+00  0.16642452006E+01  0.16642452006E+01  0.00000000000E+00 0. -1.
         13   -1    0    0    0    0 -0.00000000000E+00 -0.00000000000E+00 -0.10000000000E+04  0.10000000000E+04  0.00000000000E+00 0.  1.
    9000005    2    1    2  501    0 -0.13588208979E+01 -0.34161568929E+02 -0.77119113721E+03  0.77196109658E+03  0.43937839350E+01 0.  0.
         13    1    3    3    0    0 -0.17144705974E+01 -0.32620666245E+02 -0.71214325565E+03  0.71289204221E+03  0.00000000000E+00 0.  1.
          1    1    3    3  501    0  0.35564969948E+00 -0.15409026839E+01 -0.59047881561E+02  0.59069054374E+02  0.00000000000E+00 0.  1.
         -1    1    1    2    0  502  0.13588208979E+01  0.34161568929E+02 -0.22714461759E+03  0.22970314862E+03  0.00000000000E+00 0. -1.
<mgrwt>
<rscale>  1 0.30000000E+03</rscale>
<asrwt>0</asrwt>
<pdfrwt beam="1">  1       21 0.60518135E-02 0.30000000E+03</pdfrwt>
<pdfrwt beam="2">0</pdfrwt>
<totfact> 0.20761439E+04</totfact>
</mgrwt>
</event>
<event>
 6    1  0.1284012E-001  0.3000000E+03  0.7818608E-02  0.1093470E+00
         21   -1    0    0  501  502  0.00000000000E+00  0.00000000000E+00  0.13690915687E+01  0.13690915687E+01  0.00000000000E+00 0. -1.
         13   -1    0    0    0    0 -0.00000000000E+00 -0.00000000000E+00 -0.10000000000E+04  0.10000000000E+04  0.00000000000E+00 0.  1.
    9000005    2    1    2  501    0 -0.33966678659E+01 -0.36278405067E+02 -0.58144773444E+03  0.58259772115E+03  0.33131206922E+01 0.  0.
         13    1    3    3    0    0 -0.26875973785E+01 -0.16494419284E+02 -0.24723069720E+03  0.24779488833E+03  0.00000000000E+00 0.  1.
          1    1    3    3  501    0 -0.70907048735E+00 -0.19783985784E+02 -0.33421703725E+03  0.33480283282E+03  0.00000000000E+00 0.  1.
         -1    1    1    2    0  502  0.33966678659E+01  0.36278405067E+02 -0.41718317399E+03  0.41877137042E+03  0.00000000000E+00 0. -1.
<mgrwt>
<rscale>  1 0.30000000E+03</rscale>
<asrwt>0</asrwt>
<pdfrwt beam="1">  1       21 0.49785253E-02 0.30000000E+03</pdfrwt>
<pdfrwt beam="2">0</pdfrwt>
<totfact> 0.29016763E+04</totfact>
</mgrwt>
</event>
<event>
 6    1  0.1284012E-001  0.3000000E+03  0.7818608E-02  0.1093470E+00
         21   -1    0    0  501  502  0.00000000000E+00  0.00000000000E+00  0.11528110928E+01  0.11528110928E+01  0.00000000000E+00 0. -1.
         13   -1    0    0    0    0 -0.00000000000E+00 -0.00000000000E+00 -0.10000000000E+04  0.10000000000E+04  0.00000000000E+00 0.  1.
    9000005    2    1    2  501    0 -0.32426015650E+02  0.27475564608E+01 -0.36484876039E+03  0.36631975988E+03  0.40685327312E+01 0.  0.
         13    1    3    3    0    0 -0.99979376786E+01  0.26716164213E+01 -0.10953411135E+03  0.11002189709E+03  0.00000000000E+00 0.  1.
          1    1    3    3  501    0 -0.22428077971E+02  0.75940039419E-01 -0.25531464905E+03  0.25629786278E+03  0.00000000000E+00 0.  1.
         -1    1    1    2    0  502  0.32426015650E+02 -0.27475564608E+01 -0.63399842852E+03  0.63483305122E+03  0.00000000000E+00 0. -1.
<mgrwt>
<rscale>  1 0.30000000E+03</rscale>
<asrwt>0</asrwt>
<pdfrwt beam="1">  1       21 0.41920492E-02 0.30000000E+03</pdfrwt>
<pdfrwt beam="2">0</pdfrwt>
<totfact> 0.38850563E+04</totfact>
</mgrwt>
</event>
<event>
 6    1  0.1284012E-001  0.3000000E+03  0.7818608E-02  0.1093470E+00
         21   -1    0    0  501  502  0.00000000000E+00  0.00000000000E+00  0.26066480657E+01  0.26066480657E+01  0.00000000000E+00 0. -1.
         13   -1    0    0    0    0 -0.00000000000E+00 -0.00000000000E+00 -0.10000000000E+04  0.10000000000E+04  0.00000000000E+00 0.  1.
    9000005    2    1    2  501    0  0.80332252700E+00  0.44619331856E+02 -0.74162417860E+03  0.74297344501E+03  0.34040563123E+01 0.  0.
         13    1    3    3    0    0 -0.86926340114E+00  0.90787348087E+01 -0.13687842359E+03  0.13718192989E+03  0.00000000000E+00 0.  1.
          1    1    3    3  501    0  0.16725859281E+01  0.35540597047E+02 -0.60474575501E+03  0.60579151512E+03  0.00000000000E+00 0.  1.
         -1    1    1    2    0  502 -0.80332252700E+00 -0.44619331856E+02 -0.25576917334E+03  0.25963320306E+03  0.00000000000E+00 0. -1.
<mgrwt>
<rscale>  1 0.30000000E+03</rscale>
<asrwt>0</asrwt>
<pdfrwt beam="1">  1       21 0.94787402E-02 0.30000000E+03</pdfrwt>
<pdfrwt beam="2">0</pdfrwt>
<totfact> 0.94654197E+03</totfact>
</mgrwt>
</event>
<event>
 6    1  0.1284012E-001  0.3000000E+03  0.7818608E-02  0.1093470E+00
         21   -1    0    0  501  502  0.00000000000E+00  0.00000000000E+00  0.35149138803E+01  0.35149138803E+01  0.00000000000E+00 0. -1.
         13   -1    0    0    0    0 -0.00000000000E+00 -0.00000000000E+00 -0.10000000000E+04  0.10000000000E+04  0.00000000000E+00 0.  1.
    9000005    2    1    2  501    0 -0.42365407634E+02 -0.30042181256E+02 -0.73961598888E+03  0.74144795004E+03  0.39863763091E+01 0.  0.
         13    1    3    3    0    0 -0.29165679023E+02 -0.20971647680E+02 -0.53673191011E+03  0.53793270041E+03  0.00000000000E+00 0.  1.
          3    1    3    3  501    0 -0.13199728610E+02 -0.90705335768E+01 -0.20288407876E+03  0.20351524962E+03  0.00000000000E+00 0.  1.
         -1    1    1    2    0  502  0.42365407634E+02  0.30042181256E+02 -0.25686909724E+03  0.26206696384E+03  0.00000000000E+00 0. -1.
<mgrwt>
<rscale>  1 0.30000000E+03</rscale>
<asrwt>0</asrwt>
<pdfrwt beam="1">  1       21 0.12781532E-01 0.30000000E+03</pdfrwt>
<pdfrwt beam="2">0</pdfrwt>
<totfact> 0.55247968E+03</totfact>
</mgrwt>
</event>
<event>
 6    1  0.1284012E-001  0.3000000E+03  0.7818608E-02  0.1093470E+00
         21   -1    0    0  501  502  0.00000000000E+00  0.00000000000E+00  0.13951440701E+01  0.13951440701E+01  0.00000000000E+00 0. -1.
         13   -1    0    0    0    0 -0.00000000000E+00 -0.00000000000E+00 -0.10000000000E+04  0.10000000000E+04  0.00000000000E+00 0.  1.
    9000005    2    1    2  501    0 -0.30302893402E+02 -0.10370795252E+02 -0.75616180243E+03  0.75684565432E+03  0.29756139865E+01 0.  0.
         13    1    3    3    0    0 -0.17884947665E+02 -0.48762571401E+01 -0.41557440764E+03  0.41598766511E+03  0.00000000000E+00 0.  1.
          3    1    3    3  501    0 -0.12417945737E+02 -0.54945381122E+01 -0.34058739478E+03  0.34085798921E+03  0.00000000000E+00 0.  1.
         -1    1    1    2    0  502  0.30302893402E+02  0.10370795252E+02 -0.24244305350E+03  0.24454948975E+03  0.00000000000E+00 0. -1.
<mgrwt>
<rscale>  1 0.30000000E+03</rscale>
<asrwt>0</asrwt>
<pdfrwt beam="1">  1       21 0.50732619E-02 0.30000000E+03</pdfrwt>
<pdfrwt beam="2">0</pdfrwt>
<totfact> 0.28098913E+04</totfact>
</mgrwt>
</event>
<event>
 6    1  0.1284012E-001  0.3000000E+03  0.7818608E-02  0.1093470E+00
         21   -1    0    0  501  502  0.00000000000E+00  0.00000000000E+00  0.10763587683E+01  0.10763587683E+01  0.00000000000E+00 0. -1.
         13   -1    0    0    0    0 -0.00000000000E+00 -0.00000000000E+00 -0.10000000000E+04  0.10000000000E+04  0.00000000000E+00 0.  1.
    9000005    2    1    2  501    0 -0.69568149709E+01 -0.29428850025E+02 -0.31150225762E+03  0.31299016276E+03  0.38380978265E+01 0.  0.
         13    1    3    3    0    0 -0.54982462198E+01 -0.19165212054E+02 -0.22038232577E+03  0.22128241135E+03  0.00000000000E+00 0.  1.
          1    1    3    3  501    0 -0.14585687510E+01 -0.10263637971E+02 -0.91119931852E+02  0.91707751406E+02  0.00000000000E+00 0.  1.
         -3    1    1    2    0  502  0.69568149709E+01  0.29428850025E+02 -0.68742138361E+03  0.68808619601E+03  0.00000000000E+00 0. -1.
<mgrwt>
<rscale>  1 0.30000000E+03</rscale>
<asrwt>0</asrwt>
<pdfrwt beam="1">  1       21 0.39140401E-02 0.30000000E+03</pdfrwt>
<pdfrwt beam="2">0</pdfrwt>
<totfact> 0.43613233E+04</totfact>
</mgrwt>
</event>
<event>
 6    1  0.1284012E-001  0.3000000E+03  0.7818608E-02  0.1093470E+00
         21   -1    0    0  501  502  0.00000000000E+00  0.00000000000E+00  0.84418202207E+01  0.84418202207E+01  0.00000000000E+00 0. -1.
         13   -1    0    0    0    0 -0.00000000000E+00 -0.00000000000E+00 -0.10000000000E+04  0.10000000000E+04  0.00000000000E+00 0.  1.
    9000005    2    1    2  501    0 -0.46561691136E+02 -0.20628249838E+02 -0.91541776596E+03  0.91684008230E+03  0.35404113055E+01 0.  0.
         13    1    3    3    0    0 -0.73167671406E+01 -0.46916658697E+01 -0.15730847000E+03  0.15754841016E+03  0.00000000000E+00 0.  1.
          3    1    3    3  501    0 -0.39244923995E+02 -0.15936583968E+02 -0.75810929595E+03  0.75929167214E+03  0.00000000000E+00 0.  1.
         -3    1    1    2    0  502  0.46561691136E+02  0.20628249838E+02 -0.76140413823E+02  0.91601737920E+02  0.00000000000E+00 0. -1.
<mgrwt>
<rscale>  1 0.30000000E+03</rscale>
<asrwt>0</asrwt>
<pdfrwt beam="1">  1       21 0.30697593E-01 0.30000000E+03</pdfrwt>
<pdfrwt beam="2">0</pdfrwt>
<totfact> 0.10383325E+03</totfact>
</mgrwt>
</event>
<event>
 6    1  0.1284012E-001  0.3000000E+03  0.7818608E-02  0.1093470E+00
         21   -1    0    0  501  502  0.00000000000E+00  0.00000000000E+00  0.32123814307E+01  0.32123814307E+01  0.00000000000E+00 0. -1.
         13   -1    0    0    0    0 -0.00000000000E+00 -0.00000000000E+00 -0.10000000000E+04  0.10000000000E+04  0.00000000000E+00 0.  1.
    9000005    2    1    2  501    0 -0.34861173524E+02  0.10695186959E+02 -0.88220389341E+03  0.88296630659E+03  0.40125527228E+01 0.  0.
         13    1    3    3    0    0 -0.20041959526E+02  0.51811529102E+01 -0.54197383768E+03  0.54236903047E+03  0.00000000000E+00 0.  1.
          1    1    3    3  501    0 -0.14819213998E+02  0.55140340487E+01 -0.34023005573E+03  0.34059727612E+03  0.00000000000E+00 0.  1.
         -3    1    1    2    0  502  0.34861173524E+02 -0.10695186959E+02 -0.11458372516E+03  0.12024607484E+03  0.00000000000E+00 0. -1.
<mgrwt>
<rscale>  1 0.30000000E+03</rscale>
<asrwt>0</asrwt>
<pdfrwt beam="1">  1       21 0.11681412E-01 0.30000000E+03</pdfrwt>
<pdfrwt beam="2">0</pdfrwt>
<totfact> 0.65067891E+03</totfact>
</mgrwt>
</event>
<event>
 6    1  0.1284012E-001  0.3000000E+03  0.7818608E-02  0.1093470E+00
         21   -1    0    0  501  502  0.00000000000E+00  0.00000000000E+00  0.17463904034E+01  0.17463904034E+01  0.00000000000E+00 0. -1.
         13   -1    0    0    0    0 -0.00000000000E+00 -0.00000000000E+00 -0.10000000000E+04  0.10000000000E+04  0.00000000000E+00 0.  1.
    9000005    2    1    2  501    0  0.30847824688E+02  0.20788300561E+02 -0.27281127398E+03  0.27535095813E+03  0.29012415146E+01 0.  0.
         13    1    3    3    0    0  0.21261267962E+02  0.14848232529E+02 -0.19915248119E+03  0.20083381759E+03  0.00000000000E+00 0.  1.
          1    1    3    3  501    0  0.95865567262E+01  0.59400680320E+01 -0.73658792789E+02  0.74517140533E+02  0.00000000000E+00 0.  1.
         -3    1    1    2    0  502 -0.30847824688E+02 -0.20788300561E+02 -0.72544233562E+03  0.72639543228E+03  0.00000000000E+00 0. -1.
<mgrwt>
<rscale>  1 0.30000000E+03</rscale>
<asrwt>0</asrwt>
<pdfrwt beam="1">  1       21 0.63505239E-02 0.30000000E+03</pdfrwt>
<pdfrwt beam="2">0</pdfrwt>
<totfact> 0.19103777E+04</totfact>
</mgrwt>
</event>
<event>
 6    1  0.1284012E-001  0.3000000E+03  0.7818608E-02  0.1093470E+00
         21   -1    0    0  501  502  0.00000000000E+00  0.00000000000E+00  0.60406766823E+01  0.60406766823E+01  0.00000000000E+00 0. -1.
         13   -1    0    0    0    0 -0.00000000000E+00 -0.00000000000E+00 -0.10000000000E+04  0.10000000000E+04  0.00000000000E+00 0.  1.
    9000005    2    1    2  501    0 -0.33157836873E+02 -0.11212383477E+02 -0.94605733574E+03  0.94671311055E+03  0.40089262052E+01 0.  0.
         13    1    3    3    0    0 -0.43478892359E+00 -0.75331993686E+00 -0.20527671339E+02  0.20546090210E+02  0.00000000000E+00 0.  1.
          1    1    3    3  501    0 -0.32723047949E+02 -0.10459063541E+02 -0.92552966440E+03  0.92616702034E+03  0.00000000000E+00 0.  1.
         -1    1    1    2    0  502  0.33157836873E+02  0.11212383477E+02 -0.47901987576E+02  0.59327566131E+02  0.00000000000E+00 0. -1.
<mgrwt>
<rscale>  1 0.30000000E+03</rscale>
<asrwt>0</asrwt>
<pdfrwt beam="1">  1       21 0.21966143E-01 0.30000000E+03</pdfrwt>
<pdfrwt beam="2">0</pdfrwt>
<totfact> 0.20045280E+03</totfact>
</mgrwt>
</event>
<event>
 6    1  0.1284012E-001  0.3000000E+03  0.7818608E-02  0.1093470E+00
         21   -1    0    0  501  502  0.00000000000E+00  0.00000000000E+00  0.31606525922E+01  0.31606525922E+01  0.00000000000E+00 0. -1.
         13   -1    0    0    0    0 -0.00000000000E+00 -0.00000000000E+00 -0.10000000000E+04  0.10000000000E+04  0.00000000000E+00 0.  1.
    9000005    2    1    2  501    0 -0.26787798490E+02  0.48307084820E+02 -0.59008374277E+03  0.59267157540E+03  0.31003566511E+01 0.  0.
         13    1    3    3    0    0 -0.16499455204E+02  0.29047450626E+02 -0.34083844393E+03  0.34247165032E+03  0.00000000000E+00 0.  1.
          1    1    3    3  501    0 -0.10288343285E+02  0.19259634194E+02 -0.24924529884E+03  0.25019992508E+03  0.00000000000E+00 0.  1.
         -1    1    1    2    0  502  0.26787798490E+02 -0.48307084820E+02 -0.40675560464E+03  0.41048907719E+03  0.00000000000E+00 0. -1.
<mgrwt>
<rscale>  1 0.30000000E+03</rscale>
<asrwt>0</asrwt>
<pdfrwt beam="1">  1       21 0.11493306E-01 0.30000000E+03</pdfrwt>
<pdfrwt beam="2">0</pdfrwt>
<totfact> 0.67005976E+03</totfact>
</mgrwt>
</event>
<event>
 6    1  0.1284012E-001  0.3000000E+03  0.7818608E-02  0.1093470E+00
         21   -1    0    0  501  502  0.00000000000E+00  0.00000000000E+00  0.24266396915E+01  0.24266396915E+01  0.00000000000E+00 0. -1.
         13   -1    0    0    0    0 -0.00000000000E+00 -0.00000000000E+00 -0.10000000000E+04  0.10000000000E+04  0.00000000000E+00 0.  1.
    9000005    2    1    2  501    0 -0.43553410390E+02  0.22515085034E+02 -0.46161078862E+03  0.46422620597E+03  0.41978000340E+01 0.  0.
         13    1    3    3    0    0 -0.30660359090E+02  0.17325557958E+02 -0.34346633283E+03  0.34526707686E+03  0.00000000000E+00 0.  1.
          3    1    3    3  501    0 -0.12893051300E+02  0.51895270752E+01 -0.11814445579E+03  0.11895912911E+03  0.00000000000E+00 0.  1.
         -3    1    1    2    0  502  0.43553410390E+02 -0.22515085034E+02 -0.53596257168E+03  0.53820043372E+03  0.00000000000E+00 0. -1.
<mgrwt>
<rscale>  1 0.30000000E+03</rscale>
<asrwt>0</asrwt>
<pdfrwt beam="1">  1       21 0.88241629E-02 0.30000000E+03</pdfrwt>
<pdfrwt beam="2">0</pdfrwt>
<totfact> 0.10746954E+04</totfact>
</mgrwt>
</event>
<event>
 6    1  0.1284012E-001  0.3000000E+03  0.7818608E-02  0.1093470E+00
         21   -1    0    0  501  502  0.00000000000E+00  0.00000000000E+00  0.27038329964E+01  0.27038329964E+01  0.00000000000E+00 0. -1.
         13   -1    0    0    0    0 -0.00000000000E+00 -0.00000000000E+00 -0.10000000000E+04  0.10000000000E+04  0.00000000000E+00 0.  1.
    9000005    2    1    2  501    0 -0.10581982183E+02  0.47171829878E+02 -0.68230035214E+03  0.68401978372E+03  0.34834050132E+01 0.  0.
         13    1    3    3    0    0 -0.62703158213E+01  0.28855149574E+02 -0.39253978553E+03  0.39364885335E+03  0.00000000000E+00 0.  1.
          1    1    3    3  501    0 -0.43116663616E+01  0.18316680303E+02 -0.28976056661E+03  0.29037093037E+03  0.00000000000E+00 0.  1.
         -3    1    1    2    0  502  0.10581982183E+02 -0.47171829878E+02 -0.31499581486E+03  0.31868404927E+03  0.00000000000E+00 0. -1.
<mgrwt>
<rscale>  1 0.30000000E+03</rscale>
<asrwt>0</asrwt>
<pdfrwt beam="1">  1       21 0.98321407E-02 0.30000000E+03</pdfrwt>
<pdfrwt beam="2">0</pdfrwt>
<totfact> 0.88672734E+03</totfact>
</mgrwt>
</event>
<event>
 6    1  0.1284012E-001  0.3000000E+03  0.7818608E-02  0.1093470E+00
         21   -1    0    0  501  502  0.00000000000E+00  0.00000000000E+00  0.14531174723E+02  0.14531174723E+02  0.00000000000E+00 0. -1.
         13   -1    0    0    0    0 -0.00000000000E+00 -0.00000000000E+00 -0.10000000000E+04  0.10000000000E+04  0.00000000000E+00 0.  1.
    9000005    2    1    2  501    0 -0.24588593608E+02 -0.36813662664E+02 -0.96454277063E+03  0.96556440582E+03  0.34670886422E+01 0.  0.
         13    1    3    3    0    0 -0.16193853409E+02 -0.26253691394E+02 -0.64568164421E+03  0.64641804033E+03  0.00000000000E+00 0.  1.
          3    1    3    3  501    0 -0.83947401988E+01 -0.10559971270E+02 -0.31886112643E+03  0.31914636549E+03  0.00000000000E+00 0.  1.
         -3    1    1    2    0  502  0.24588593608E+02  0.36813662664E+02 -0.20926054643E+02  0.48966768908E+02  0.00000000000E+00 0. -1.
<mgrwt>
<rscale>  1 0.30000000E+03</rscale>
<asrwt>0</asrwt>
<pdfrwt beam="1">  1       21 0.52840747E-01 0.30000000E+03</pdfrwt>
<pdfrwt beam="2">0</pdfrwt>
<totfact> 0.33305661E+02</totfact>
</mgrwt>
</event>
<event>
 6    1  0.1284012E-001  0.3000000E+03  0.7818608E-02  0.1093470E+00
         21   -1    0    0  501  502  0.00000000000E+00  0.00000000000E+00  0.17879492984E+01  0.17879492984E+01  0.00000000000E+00 0. -1.
         13   -1    0    0    0    0 -0.00000000000E+00 -0.00000000000E+00 -0.10000000000E+04  0.10000000000E+04  0.00000000000E+00 0.  1.
    9000005    2    1    2  501    0  0.20426706166E+02 -0.26900611350E+02 -0.19982291687E+03  0.20268463793E+03  0.33122698373E+01 0.  0.
         13    1    3    3    0    0  0.17485841048E+02 -0.20893153908E+02 -0.16188979070E+03  0.16416632678E+03  0.00000000000E+00 0.  1.
          1    1    3    3  501    0  0.29408651186E+01 -0.60074574422E+01 -0.37933126172E+02  0.38518311149E+02  0.00000000000E+00 0.  1.
         -3    1    1    2    0  502 -0.20426706166E+02  0.26900611350E+02 -0.79838913383E+03  0.79910331137E+03  0.00000000000E+00 0. -1.
<mgrwt>
<rscale>  1 0.30000000E+03</rscale>
<asrwt>0</asrwt>
<pdfrwt beam="1">  1       21 0.65016475E-02 0.30000000E+03</pdfrwt>
<pdfrwt beam="2">0</pdfrwt>
<totfact> 0.18341995E+04</totfact>
</mgrwt>
</event>
<event>
 6    1  0.1284012E-001  0.3000000E+03  0.7818608E-02  0.1093470E+00
         21   -1    0    0  501  502  0.00000000000E+00  0.00000000000E+00  0.11284783729E+01  0.11284783729E+01  0.00000000000E+00 0. -1.
         13   -1    0    0    0    0 -0.00000000000E+00 -0.00000000000E+00 -0.10000000000E+04  0.10000000000E+04  0.00000000000E+00 0.  1.
    9000005    2    1    2  501    0  0.29225264649E+02  0.15105878950E+02 -0.57757749406E+03  0.57855190385E+03  0.66513254339E+01 0.  0.
         13    1    3    3    0    0  0.24971970017E+02  0.14922870328E+02 -0.52311616018E+03  0.52392443003E+03  0.00000000000E+00 0.  1.
          1    1    3    3  501    0  0.42532946323E+01  0.18300862231E+00 -0.54461333884E+02  0.54627473819E+02  0.00000000000E+00 0.  1.
         -1    1    1    2    0  502 -0.29225264649E+02 -0.15105878950E+02 -0.42129402756E+03  0.42257657452E+03  0.00000000000E+00 0. -1.
<mgrwt>
<rscale>  1 0.30000000E+03</rscale>
<asrwt>0</asrwt>
<pdfrwt beam="1">  1       21 0.41035664E-02 0.30000000E+03</pdfrwt>
<pdfrwt beam="2">0</pdfrwt>
<totfact> 0.40274543E+04</totfact>
</mgrwt>
</event>
<event>
 6    1  0.1284012E-001  0.3000000E+03  0.7818608E-02  0.1093470E+00
         21   -1    0    0  501  502  0.00000000000E+00  0.00000000000E+00  0.13115306618E+01  0.13115306618E+01  0.00000000000E+00 0. -1.
         13   -1    0    0    0    0 -0.00000000000E+00 -0.00000000000E+00 -0.10000000000E+04  0.10000000000E+04  0.00000000000E+00 0.  1.
    9000005    2    1    2  501    0  0.25016329397E+02  0.22789307078E+02 -0.67466130704E+03  0.67552207233E+03  0.41257403716E+01 0.  0.
         13    1    3    3    0    0  0.17043608506E+02  0.17721059804E+02 -0.50432499740E+03  0.50492397799E+03  0.00000000000E+00 0.  1.
          3    1    3    3  501    0  0.79727208912E+01  0.50682472737E+01 -0.17033630964E+03  0.17059809434E+03  0.00000000000E+00 0.  1.
         -1    1    1    2    0  502 -0.25016329397E+02 -0.22789307078E+02 -0.32402716230E+03  0.32578945833E+03  0.00000000000E+00 0. -1.
<mgrwt>
<rscale>  1 0.30000000E+03</rscale>
<asrwt>0</asrwt>
<pdfrwt beam="1">  1       21 0.47692125E-02 0.30000000E+03</pdfrwt>
<pdfrwt beam="2">0</pdfrwt>
<totfact> 0.31218456E+04</totfact>
</mgrwt>
</event>
<event>
 6    1  0.1284012E-001  0.3000000E+03  0.7818608E-02  0.1093470E+00
         21   -1    0    0  501  502  0.00000000000E+00  0.00000000000E+00  0.61591165869E+01  0.61591165869E+01  0.00000000000E+00 0. -1.
         13   -1    0    0    0    0 -0.00000000000E+00 -0.00000000000E+00 -0.10000000000E+04  0.10000000000E+04  0.00000000000E+00 0.  1.
    9000005    2    1    2  501    0 -0.34860789763E+01  0.76177415421E+02 -0.61518374280E+03  0.61989964227E+03  0.30623041418E+01 0.  0.
         13    1    3    3    0    0 -0.33765664094E+01  0.41774794825E+02 -0.33440076595E+03  0.33701692383E+03  0.00000000000E+00 0.  1.
          3    1    3    3  501    0 -0.10951256688E+00  0.34402620596E+02 -0.28078297686E+03  0.28288271843E+03  0.00000000000E+00 0.  1.
         -3    1    1    2    0  502  0.34860789763E+01 -0.76177415421E+02 -0.37865714061E+03  0.38625947432E+03  0.00000000000E+00 0. -1.
<mgrwt>
<rscale>  1 0.30000000E+03</rscale>
<asrwt>0</asrwt>
<pdfrwt beam="1">  1       21 0.22396835E-01 0.30000000E+03</pdfrwt>
<pdfrwt beam="2">0</pdfrwt>
<totfact> 0.19309089E+03</totfact>
</mgrwt>
</event>
<event>
 6    1  0.1284012E-001  0.3000000E+03  0.7818608E-02  0.1093470E+00
         21   -1    0    0  501  502  0.00000000000E+00  0.00000000000E+00  0.18364618237E+01  0.18364618237E+01  0.00000000000E+00 0. -1.
         13   -1    0    0    0    0 -0.00000000000E+00 -0.00000000000E+00 -0.10000000000E+04  0.10000000000E+04  0.00000000000E+00 0.  1.
    9000005    2    1    2  501    0 -0.30691180989E+02 -0.18663045593E+01 -0.84773653509E+03  0.84829912128E+03  0.29554284938E+01 0.  0.
         13    1    3    3    0    0 -0.25613207447E+02 -0.62064278410E+00 -0.68705120899E+03  0.68752875239E+03  0.00000000000E+00 0.  1.
          1    1    3    3  501    0 -0.50779735420E+01 -0.12456617752E+01 -0.16068532610E+03  0.16077036889E+03  0.00000000000E+00 0.  1.
         -3    1    1    2    0  502  0.30691180989E+02  0.18663045593E+01 -0.15042700309E+03  0.15353734054E+03  0.00000000000E+00 0. -1.
<mgrwt>
<rscale>  1 0.30000000E+03</rscale>
<asrwt>0</asrwt>
<pdfrwt beam="1">  1       21 0.66780571E-02 0.30000000E+03</pdfrwt>
<pdfrwt beam="2">0</pdfrwt>
<totfact> 0.17510532E+04</totfact>
</mgrwt>
</event>
<event>
 6    1  0.1284012E-001  0.3000000E+03  0.7818608E-02  0.1093470E+00
         21   -1    0    0  501  502  0.00000000000E+00  0.00000000000E+00  0.98509289684E+00  0.98509289684E+00  0.00000000000E+00 0. -1.
         13   -1    0    0    0    0 -0.00000000000E+00 -0.00000000000E+00 -0.10000000000E+04  0.10000000000E+04  0.00000000000E+00 0.  1.
    9000005    2    1    2  501    0  0.15007721853E+02  0.27398104803E+02 -0.46677443422E+03  0.46782863478E+03  0.30612435658E+01 0.  0.
         13    1    3    3    0    0  0.47408617816E+01  0.60749755593E+01 -0.10818730093E+03  0.10846139028E+03  0.00000000000E+00 0.  1.
          1    1    3    3  501    0  0.10266860072E+02  0.21323129243E+02 -0.35858713329E+03  0.35936724450E+03  0.00000000000E+00 0.  1.
         -1    1    1    2    0  502 -0.15007721853E+02 -0.27398104803E+02 -0.53224047288E+03  0.53315645812E+03  0.00000000000E+00 0. -1.
<mgrwt>
<rscale>  1 0.30000000E+03</rscale>
<asrwt>0</asrwt>
<pdfrwt beam="1">  1       21 0.35821635E-02 0.30000000E+03</pdfrwt>
<pdfrwt beam="2">0</pdfrwt>
<totfact> 0.50610072E+04</totfact>
</mgrwt>
</event>
<event>
 6    1  0.1284012E-001  0.3000000E+03  0.7818608E-02  0.1093470E+00
         21   -1    0    0  501  502  0.00000000000E+00  0.00000000000E+00  0.10994137379E+01  0.10994137379E+01  0.00000000000E+00 0. -1.
         13   -1    0    0    0    0 -0.00000000000E+00 -0.00000000000E+00 -0.10000000000E+04  0.10000000000E+04  0.00000000000E+00 0.  1.
    9000005    2    1    2  501    0  0.30279156835E+02 -0.17207423966E+01 -0.69956349897E+03  0.70022987370E+03  0.36053627299E+01 0.  0.
         13    1    3    3    0    0  0.12974664637E+02  0.57854655512E+00 -0.27112108004E+03  0.27143197431E+03  0.00000000000E+00 0.  1.
          1    1    3    3  501    0  0.17304492197E+02 -0.22992889517E+01 -0.42844241893E+03  0.42879789939E+03  0.00000000000E+00 0.  1.
         -1    1    1    2    0  502 -0.30279156835E+02  0.17207423966E+01 -0.29933708729E+03  0.30086954004E+03  0.00000000000E+00 0. -1.
<mgrwt>
<rscale>  1 0.30000000E+03</rscale>
<asrwt>0</asrwt>
<pdfrwt beam="1">  1       21 0.39978766E-02 0.30000000E+03</pdfrwt>
<pdfrwt beam="2">0</pdfrwt>
<totfact> 0.42084939E+04</totfact>
</mgrwt>
</event>
<event>
 6    1  0.1284012E-001  0.3000000E+03  0.7818608E-02  0.1093470E+00
         21   -1    0    0  501  502  0.00000000000E+00  0.00000000000E+00  0.11867398758E+01  0.11867398758E+01  0.00000000000E+00 0. -1.
         13   -1    0    0    0    0 -0.00000000000E+00 -0.00000000000E+00 -0.10000000000E+04  0.10000000000E+04  0.00000000000E+00 0.  1.
    9000005    2    1    2  501    0  0.23864309281E+02  0.20439593283E+02 -0.70304089875E+03  0.70375007102E+03  0.32210099689E+01 0.  0.
         13    1    3    3    0    0  0.19656703902E+02  0.16137302361E+02 -0.54095702394E+03  0.54155452198E+03  0.00000000000E+00 0.  1.
          1    1    3    3  501    0  0.42076053793E+01  0.43022909213E+01 -0.16208387482E+03  0.16219554903E+03  0.00000000000E+00 0.  1.
         -1    1    1    2    0  502 -0.23864309281E+02 -0.20439593283E+02 -0.29577236137E+03  0.29743666886E+03  0.00000000000E+00 0. -1.
<mgrwt>
<rscale>  1 0.30000000E+03</rscale>
<asrwt>0</asrwt>
<pdfrwt beam="1">  1       21 0.43154268E-02 0.30000000E+03</pdfrwt>
<pdfrwt beam="2">0</pdfrwt>
<totfact> 0.36991991E+04</totfact>
</mgrwt>
</event>
<event>
 6    1  0.1284012E-001  0.3000000E+03  0.7818608E-02  0.1093470E+00
         21   -1    0    0  501  502  0.00000000000E+00  0.00000000000E+00  0.36922037231E+01  0.36922037231E+01  0.00000000000E+00 0. -1.
         13   -1    0    0    0    0 -0.00000000000E+00 -0.00000000000E+00 -0.10000000000E+04  0.10000000000E+04  0.00000000000E+00 0.  1.
    9000005    2    1    2  501    0 -0.50796750683E+02 -0.28289559017E+02 -0.64321743100E+03  0.64584668526E+03  0.29441970112E+01 0.  0.
         13    1    3    3    0    0 -0.31392577804E+02 -0.19049832785E+02 -0.40994924483E+03  0.41159054096E+03  0.00000000000E+00 0.  1.
          3    1    3    3  501    0 -0.19404172879E+02 -0.92397262318E+01 -0.23326818617E+03  0.23425614431E+03  0.00000000000E+00 0.  1.
         -1    1    1    2    0  502  0.50796750683E+02  0.28289559017E+02 -0.35309036528E+03  0.35784551846E+03  0.00000000000E+00 0. -1.
<mgrwt>
<rscale>  1 0.30000000E+03</rscale>
<asrwt>0</asrwt>
<pdfrwt beam="1">  1       21 0.13426224E-01 0.30000000E+03</pdfrwt>
<pdfrwt beam="2">0</pdfrwt>
<totfact> 0.50497166E+03</totfact>
</mgrwt>
</event>
<event>
 6    1  0.1284012E-001  0.3000000E+03  0.7818608E-02  0.1093470E+00
         21   -1    0    0  501  502  0.00000000000E+00  0.00000000000E+00  0.30601808624E+01  0.30601808624E+01  0.00000000000E+00 0. -1.
         13   -1    0    0    0    0 -0.00000000000E+00 -0.00000000000E+00 -0.10000000000E+04  0.10000000000E+04  0.00000000000E+00 0.  1.
    9000005    2    1    2  501    0 -0.24288887635E+01  0.50144227413E+02 -0.70845827694E+03  0.71024292858E+03  0.33977043328E+01 0.  0.
         13    1    3    3    0    0  0.32348419859E+00  0.28109735136E+02 -0.39743653642E+03  0.39842949481E+03  0.00000000000E+00 0.  1.
          3    1    3    3  501    0 -0.27523729621E+01  0.22034492277E+02 -0.31102174051E+03  0.31181343377E+03  0.00000000000E+00 0.  1.
         -3    1    1    2    0  502  0.24288887635E+01 -0.50144227413E+02 -0.28848154220E+03  0.29281725228E+03  0.00000000000E+00 0. -1.
<mgrwt>
<rscale>  1 0.30000000E+03</rscale>
<asrwt>0</asrwt>
<pdfrwt beam="1">  1       21 0.11127954E-01 0.30000000E+03</pdfrwt>
<pdfrwt beam="2">0</pdfrwt>
<totfact> 0.71026145E+03</totfact>
</mgrwt>
</event>
<event>
 6    1  0.1284012E-001  0.3000000E+03  0.7818608E-02  0.1093470E+00
         21   -1    0    0  501  502  0.00000000000E+00  0.00000000000E+00  0.54596514779E+01  0.54596514779E+01  0.00000000000E+00 0. -1.
         13   -1    0    0    0    0 -0.00000000000E+00 -0.00000000000E+00 -0.10000000000E+04  0.10000000000E+04  0.00000000000E+00 0.  1.
    9000005    2    1    2  501    0  0.59473214577E+02 -0.41406749824E+02 -0.40128394368E+03  0.40779357073E+03  0.39000891425E+01 0.  0.
         13    1    3    3    0    0  0.38425414094E+02 -0.28745930547E+02 -0.26058661433E+03  0.26496834630E+03  0.00000000000E+00 0.  1.
          3    1    3    3  501    0  0.21047800483E+02 -0.12660819276E+02 -0.14069732935E+03  0.14282522443E+03  0.00000000000E+00 0.  1.
         -3    1    1    2    0  502 -0.59473214577E+02  0.41406749824E+02 -0.59325640485E+03  0.59766608075E+03  0.00000000000E+00 0. -1.
<mgrwt>
<rscale>  1 0.30000000E+03</rscale>
<asrwt>0</asrwt>
<pdfrwt beam="1">  1       21 0.19853320E-01 0.30000000E+03</pdfrwt>
<pdfrwt beam="2">0</pdfrwt>
<totfact> 0.24331557E+03</totfact>
</mgrwt>
</event>
<event>
 6    1  0.1284012E-001  0.3000000E+03  0.7818608E-02  0.1093470E+00
         21   -1    0    0  501  502  0.00000000000E+00  0.00000000000E+00  0.17392671556E+01  0.17392671556E+01  0.00000000000E+00 0. -1.
         13   -1    0    0    0    0 -0.00000000000E+00 -0.00000000000E+00 -0.10000000000E+04  0.10000000000E+04  0.00000000000E+00 0.  1.
    9000005    2    1    2  501    0 -0.27893553260E+02 -0.15035878092E+02 -0.82439203118E+03  0.82500654986E+03  0.30754347471E+01 0.  0.
         13    1    3    3    0    0 -0.14404487743E+02 -0.87882964888E+01 -0.47030730207E+03  0.47060990406E+03  0.00000000000E+00 0.  1.
          1    1    3    3  501    0 -0.13489065517E+02 -0.62475816030E+01 -0.35408472911E+03  0.35439664580E+03  0.00000000000E+00 0.  1.
         -3    1    1    2    0  502  0.27893553260E+02  0.15035878092E+02 -0.17386870166E+03  0.17673271729E+03  0.00000000000E+00 0. -1.
<mgrwt>
<rscale>  1 0.30000000E+03</rscale>
<asrwt>0</asrwt>
<pdfrwt beam="1">  1       21 0.63246212E-02 0.30000000E+03</pdfrwt>
<pdfrwt beam="2">0</pdfrwt>
<totfact> 0.19239254E+04</totfact>
</mgrwt>
</event>
<event>
 6    1  0.1284012E-001  0.3000000E+03  0.7818608E-02  0.1093470E+00
         21   -1    0    0  501  502  0.00000000000E+00  0.00000000000E+00  0.14000868524E+01  0.14000868524E+01  0.00000000000E+00 0. -1.
         13   -1    0    0    0    0 -0.00000000000E+00 -0.00000000000E+00 -0.10000000000E+04  0.10000000000E+04  0.00000000000E+00 0.  1.
    9000005    2    1    2  501    0  0.36381292841E+02 -0.78742519907E+01 -0.53548731783E+03  0.53679393294E+03  0.39314843458E+01 0.  0.
         13    1    3    3    0    0  0.26716205137E+02 -0.48778263704E+01 -0.36747033848E+03  0.36847252064E+03  0.00000000000E+00 0.  1.
          3    1    3    3  501    0  0.96650877037E+01 -0.29964256203E+01 -0.16801697935E+03  0.16832141230E+03  0.00000000000E+00 0.  1.
         -1    1    1    2    0  502 -0.36381292841E+02  0.78742519907E+01 -0.46311259531E+03  0.46460615391E+03  0.00000000000E+00 0. -1.
<mgrwt>
<rscale>  1 0.30000000E+03</rscale>
<asrwt>0</asrwt>
<pdfrwt beam="1">  1       21 0.50912357E-02 0.30000000E+03</pdfrwt>
<pdfrwt beam="2">0</pdfrwt>
<totfact> 0.27929876E+04</totfact>
</mgrwt>
</event>
<event>
 6    1  0.1284012E-001  0.3000000E+03  0.7818608E-02  0.1093470E+00
         21   -1    0    0  501  502  0.00000000000E+00  0.00000000000E+00  0.17151519844E+01  0.17151519844E+01  0.00000000000E+00 0. -1.
         13   -1    0    0    0    0 -0.00000000000E+00 -0.00000000000E+00 -0.10000000000E+04  0.10000000000E+04  0.00000000000E+00 0.  1.
    9000005    2    1    2  501    0 -0.31623631115E+02 -0.13987284559E+02 -0.77396009500E+03  0.77474093982E+03  0.36874109319E+01 0.  0.
         13    1    3    3    0    0 -0.25792590491E+02 -0.11124195445E+02 -0.65763100526E+03  0.65823061652E+03  0.00000000000E+00 0.  1.
          3    1    3    3  501    0 -0.58310406247E+01 -0.28630891147E+01 -0.11632908974E+03  0.11651032330E+03  0.00000000000E+00 0.  1.
         -3    1    1    2    0  502  0.31623631115E+02  0.13987284559E+02 -0.22432475301E+03  0.22697421217E+03  0.00000000000E+00 0. -1.
<mgrwt>
<rscale>  1 0.30000000E+03</rscale>
<asrwt>0</asrwt>
<pdfrwt beam="1">  1       21 0.62369295E-02 0.30000000E+03</pdfrwt>
<pdfrwt beam="2">0</pdfrwt>
<totfact> 0.19709123E+04</totfact>
</mgrwt>
</event>
<event>
 6    1  0.1284012E-001  0.3000000E+03  0.7818608E-02  0.1093470E+00
         21   -1    0    0  501  502  0.00000000000E+00  0.00000000000E+00  0.44869290415E+01  0.44869290415E+01  0.00000000000E+00 0. -1.
         13   -1    0    0    0    0 -0.00000000000E+00 -0.00000000000E+00 -0.10000000000E+04  0.10000000000E+04  0.00000000000E+00 0.  1.
    9000005    2    1    2  501    0  0.35240961785E+02  0.81757802653E+01 -0.92039288336E+03  0.92110940596E+03  0.32724969370E+01 0.  0.
         13    1    3    3    0    0  0.12287564129E+01 -0.41154647213E-01 -0.20825151865E+02  0.20861411415E+02  0.00000000000E+00 0.  1.
          3    1    3    3  501    0  0.34012205372E+02  0.82169349125E+01 -0.89956773150E+03  0.90024799455E+03  0.00000000000E+00 0.  1.
         -1    1    1    2    0  502 -0.35240961785E+02 -0.81757802653E+01 -0.75120187596E+02  0.83377523080E+02  0.00000000000E+00 0. -1.
<mgrwt>
<rscale>  1 0.30000000E+03</rscale>
<asrwt>0</asrwt>
<pdfrwt beam="1">  1       21 0.16316140E-01 0.30000000E+03</pdfrwt>
<pdfrwt beam="2">0</pdfrwt>
<totfact> 0.35217613E+03</totfact>
</mgrwt>
</event>
<event>
 6    1  0.1284012E-001  0.3000000E+03  0.7818608E-02  0.1093470E+00
         21   -1    0    0  501  502  0.00000000000E+00  0.00000000000E+00  0.14310848513E+01  0.14310848513E+01  0.00000000000E+00 0. -1.
         13   -1    0    0    0    0 -0.00000000000E+00 -0.00000000000E+00 -0.10000000000E+04  0.10000000000E+04  0.00000000000E+00 0.  1.
    9000005    2    1    2  501    0 -0.55962635097E+01  0.37185212267E+02 -0.45422231369E+03  0.45578717102E+03  0.31586136153E+01 0.  0.
         13    1    3    3    0    0  0.12764009736E+00  0.66027654798E-01 -0.87116923901E+00  0.88294251718E+00  0.00000000000E+00 0.  1.
          3    1    3    3  501    0 -0.57239036071E+01  0.37119184612E+02 -0.45335114445E+03  0.45490422850E+03  0.00000000000E+00 0.  1.
         -1    1    1    2    0  502  0.55962635097E+01 -0.37185212267E+02 -0.54434660146E+03  0.54564391383E+03  0.00000000000E+00 0. -1.
<mgrwt>
<rscale>  1 0.30000000E+03</rscale>
<asrwt>0</asrwt>
<pdfrwt beam="1">  1       21 0.52039559E-02 0.30000000E+03</pdfrwt>
<pdfrwt beam="2">0</pdfrwt>
<totfact> 0.26904907E+04</totfact>
</mgrwt>
</event>
<event>
 6    1  0.1284012E-001  0.3000000E+03  0.7818608E-02  0.1093470E+00
         21   -1    0    0  501  502  0.00000000000E+00  0.00000000000E+00  0.29037831918E+01  0.29037831918E+01  0.00000000000E+00 0. -1.
         13   -1    0    0    0    0 -0.00000000000E+00 -0.00000000000E+00 -0.10000000000E+04  0.10000000000E+04  0.00000000000E+00 0.  1.
    9000005    2    1    2  501    0 -0.35741599155E+02 -0.27540623268E+02 -0.77225030536E+03  0.77357512878E+03  0.34637978765E+01 0.  0.
         13    1    3    3    0    0 -0.14269535459E+02 -0.10797303241E+02 -0.27786945109E+03  0.27844502734E+03  0.00000000000E+00 0.  1.
          3    1    3    3  501    0 -0.21472063696E+02 -0.16743320027E+02 -0.49438085427E+03  0.49513010144E+03  0.00000000000E+00 0.  1.
         -3    1    1    2    0  502  0.35741599155E+02  0.27540623268E+02 -0.22484591145E+03  0.22932865442E+03  0.00000000000E+00 0. -1.
<mgrwt>
<rscale>  1 0.30000000E+03</rscale>
<asrwt>0</asrwt>
<pdfrwt beam="1">  1       21 0.10559234E-01 0.30000000E+03</pdfrwt>
<pdfrwt beam="2">0</pdfrwt>
<totfact> 0.78047513E+03</totfact>
</mgrwt>
</event>
<event>
 6    1  0.1284012E-001  0.3000000E+03  0.7818608E-02  0.1093470E+00
         21   -1    0    0  501  502  0.00000000000E+00  0.00000000000E+00  0.14789762816E+02  0.14789762816E+02  0.00000000000E+00 0. -1.
         13   -1    0    0    0    0 -0.00000000000E+00 -0.00000000000E+00 -0.10000000000E+04  0.10000000000E+04  0.00000000000E+00 0.  1.
    9000005    2    1    2  501    0 -0.89099504821E+02 -0.15878996852E+02 -0.83147928334E+03  0.83639674033E+03  0.32930714700E+01 0.  0.
         13    1    3    3    0    0 -0.10073791182E+02 -0.27846630549E+01 -0.92367993878E+02  0.92957419877E+02  0.00000000000E+00 0.  1.
          1    1    3    3  501    0 -0.79025713639E+02 -0.13094333797E+02 -0.73911128946E+03  0.74343932045E+03  0.00000000000E+00 0.  1.
         -1    1    1    2    0  502  0.89099504821E+02  0.15878996852E+02 -0.15373095385E+03  0.17839302249E+03  0.00000000000E+00 0. -1.
<mgrwt>
<rscale>  1 0.30000000E+03</rscale>
<asrwt>0</asrwt>
<pdfrwt beam="1">  1       21 0.53781069E-01 0.30000000E+03</pdfrwt>
<pdfrwt beam="2">0</pdfrwt>
<totfact> 0.32037424E+02</totfact>
</mgrwt>
</event>
<event>
 6    1  0.1284012E-001  0.3000000E+03  0.7818608E-02  0.1093470E+00
         21   -1    0    0  501  502  0.00000000000E+00  0.00000000000E+00  0.13408102940E+01  0.13408102940E+01  0.00000000000E+00 0. -1.
         13   -1    0    0    0    0 -0.00000000000E+00 -0.00000000000E+00 -0.10000000000E+04  0.10000000000E+04  0.00000000000E+00 0.  1.
    9000005    2    1    2  501    0  0.34729140959E+02  0.33161507551E+01 -0.35161243655E+03  0.35335422798E+03  0.32855453235E+01 0.  0.
         13    1    3    3    0    0  0.34147789213E+02  0.36886443997E+01 -0.34384318269E+03  0.34555435446E+03  0.00000000000E+00 0.  1.
          1    1    3    3  501    0  0.58135174584E+00 -0.37249364454E+00 -0.77692538553E+01  0.77998735141E+01  0.00000000000E+00 0.  1.
         -3    1    1    2    0  502 -0.34729140959E+02 -0.33161507551E+01 -0.64704675316E+03  0.64798658232E+03  0.00000000000E+00 0. -1.
<mgrwt>
<rscale>  1 0.30000000E+03</rscale>
<asrwt>0</asrwt>
<pdfrwt beam="1">  1       21 0.48756841E-02 0.30000000E+03</pdfrwt>
<pdfrwt beam="2">0</pdfrwt>
<totfact> 0.30067116E+04</totfact>
</mgrwt>
</event>
<event>
 6    1  0.1284012E-001  0.3000000E+03  0.7818608E-02  0.1093470E+00
         21   -1    0    0  501  502  0.00000000000E+00  0.00000000000E+00  0.12654215834E+01  0.12654215834E+01  0.00000000000E+00 0. -1.
         13   -1    0    0    0    0 -0.00000000000E+00 -0.00000000000E+00 -0.10000000000E+04  0.10000000000E+04  0.00000000000E+00 0.  1.
    9000005    2    1    2  501    0 -0.14911321710E+02  0.26934674069E+02 -0.74865820494E+03  0.74930110515E+03  0.39005357714E+01 0.  0.
         13    1    3    3    0    0 -0.60417265463E+01  0.90160689540E+01 -0.22559321100E+03  0.22585413170E+03  0.00000000000E+00 0.  1.
          3    1    3    3  501    0 -0.88695951638E+01  0.17918605115E+02 -0.52306499394E+03  0.52344697345E+03  0.00000000000E+00 0.  1.
         -3    1    1    2    0  502  0.14911321710E+02 -0.26934674069E+02 -0.25007637348E+03  0.25196431643E+03  0.00000000000E+00 0. -1.
<mgrwt>
<rscale>  1 0.30000000E+03</rscale>
<asrwt>0</asrwt>
<pdfrwt beam="1">  1       21 0.46015427E-02 0.30000000E+03</pdfrwt>
<pdfrwt beam="2">0</pdfrwt>
<totfact> 0.33176878E+04</totfact>
</mgrwt>
</event>
<event>
 6    1  0.1284012E-001  0.3000000E+03  0.7818608E-02  0.1093470E+00
         21   -1    0    0  501  502  0.00000000000E+00  0.00000000000E+00  0.16647831201E+01  0.16647831201E+01  0.00000000000E+00 0. -1.
         13   -1    0    0    0    0 -0.00000000000E+00 -0.00000000000E+00 -0.10000000000E+04  0.10000000000E+04  0.00000000000E+00 0.  1.
    9000005    2    1    2  501    0  0.22596706307E+02  0.24507543572E+02 -0.78723599588E+03  0.78794975807E+03  0.36162406523E+01 0.  0.
         13    1    3    3    0    0  0.16196945261E+02  0.15136518130E+02 -0.53140206272E+03  0.53186427543E+03  0.00000000000E+00 0.  1.
          3    1    3    3  501    0  0.63997610467E+01  0.93710254419E+01 -0.25583393317E+03  0.25608548264E+03  0.00000000000E+00 0.  1.
         -3    1    1    2    0  502 -0.22596706307E+02 -0.24507543572E+02 -0.21109922100E+03  0.21371502505E+03  0.00000000000E+00 0. -1.
<mgrwt>
<rscale>  1 0.30000000E+03</rscale>
<asrwt>0</asrwt>
<pdfrwt beam="1">  1       21 0.60537696E-02 0.30000000E+03</pdfrwt>
<pdfrwt beam="2">0</pdfrwt>
<totfact> 0.20749866E+04</totfact>
</mgrwt>
</event>
<event>
 6    1  0.1284012E-001  0.3000000E+03  0.7818608E-02  0.1093470E+00
         21   -1    0    0  501  502  0.00000000000E+00  0.00000000000E+00  0.98331331337E+01  0.98331331337E+01  0.00000000000E+00 0. -1.
         13   -1    0    0    0    0 -0.00000000000E+00 -0.00000000000E+00 -0.10000000000E+04  0.10000000000E+04  0.00000000000E+00 0.  1.
    9000005    2    1    2  501    0 -0.22827128896E+02  0.31289483633E+02 -0.95988077835E+03  0.96066651075E+03  0.29877443352E+01 0.  0.
         13    1    3    3    0    0 -0.41063796935E+01  0.41880118888E+01 -0.16189528098E+03  0.16200149321E+03  0.00000000000E+00 0.  1.
          3    1    3    3  501    0 -0.18720749203E+02  0.27101471744E+02 -0.79798549737E+03  0.79866501754E+03  0.00000000000E+00 0.  1.
         -1    1    1    2    0  502  0.22827128896E+02 -0.31289483633E+02 -0.30286088513E+02  0.49166622389E+02  0.00000000000E+00 0. -1.
<mgrwt>
<rscale>  1 0.30000000E+03</rscale>
<asrwt>0</asrwt>
<pdfrwt beam="1">  1       21 0.35756923E-01 0.30000000E+03</pdfrwt>
<pdfrwt beam="2">0</pdfrwt>
<totfact> 0.76167375E+02</totfact>
</mgrwt>
</event>
<event>
 6    1  0.1284012E-001  0.3000000E+03  0.7818608E-02  0.1093470E+00
         21   -1    0    0  501  502  0.00000000000E+00  0.00000000000E+00  0.15055708012E+01  0.15055708012E+01  0.00000000000E+00 0. -1.
         13   -1    0    0    0    0 -0.00000000000E+00 -0.00000000000E+00 -0.10000000000E+04  0.10000000000E+04  0.00000000000E+00 0.  1.
    9000005    2    1    2  501    0 -0.13422955457E+02  0.31225041381E+02 -0.73971953236E+03  0.74050820266E+03  0.34975291733E+01 0.  0.
         13    1    3    3    0    0 -0.12384693117E+02  0.25960796035E+02 -0.61010763158E+03  0.61078528606E+03  0.00000000000E+00 0.  1.
          1    1    3    3  501    0 -0.10382623396E+01  0.52642453455E+01 -0.12961190078E+03  0.12972291660E+03  0.00000000000E+00 0.  1.
         -1    1    1    2    0  502  0.13422955457E+02 -0.31225041381E+02 -0.25877489684E+03  0.26099736814E+03  0.00000000000E+00 0. -1.
<mgrwt>
<rscale>  1 0.30000000E+03</rscale>
<asrwt>0</asrwt>
<pdfrwt beam="1">  1       21 0.54748145E-02 0.30000000E+03</pdfrwt>
<pdfrwt beam="2">0</pdfrwt>
<totfact> 0.24667484E+04</totfact>
</mgrwt>
</event>
<event>
 6    1  0.1284012E-001  0.3000000E+03  0.7818608E-02  0.1093470E+00
         21   -1    0    0  501  502  0.00000000000E+00  0.00000000000E+00  0.98620947788E+00  0.98620947788E+00  0.00000000000E+00 0. -1.
         13   -1    0    0    0    0 -0.00000000000E+00 -0.00000000000E+00 -0.10000000000E+04  0.10000000000E+04  0.00000000000E+00 0.  1.
    9000005    2    1    2  501    0 -0.30390976882E+02  0.70796168146E+01 -0.53858956671E+03  0.53950576750E+03  0.37442426103E+01 0.  0.
         13    1    3    3    0    0 -0.76460976266E+01  0.19739056723E+01 -0.11032762627E+03  0.11060987402E+03  0.00000000000E+00 0.  1.
          1    1    3    3  501    0 -0.22744879255E+02  0.51057111423E+01 -0.42826194043E+03  0.42889589348E+03  0.00000000000E+00 0.  1.
         -1    1    1    2    0  502  0.30390976882E+02 -0.70796168146E+01 -0.46042422381E+03  0.46148044198E+03  0.00000000000E+00 0. -1.
<mgrwt>
<rscale>  1 0.30000000E+03</rscale>
<asrwt>0</asrwt>
<pdfrwt beam="1">  1       21 0.35862238E-02 0.30000000E+03</pdfrwt>
<pdfrwt beam="2">0</pdfrwt>
<totfact> 0.50514032E+04</totfact>
</mgrwt>
</event>
<event>
 6    1  0.1284012E-001  0.3000000E+03  0.7818608E-02  0.1093470E+00
         21   -1    0    0  501  502  0.00000000000E+00  0.00000000000E+00  0.45437119817E+01  0.45437119817E+01  0.00000000000E+00 0. -1.
         13   -1    0    0    0    0 -0.00000000000E+00 -0.00000000000E+00 -0.10000000000E+04  0.10000000000E+04  0.00000000000E+00 0.  1.
    9000005    2    1    2  501    0 -0.14203180635E+02  0.58230790023E+02 -0.72706197574E+03  0.72953814456E+03  0.37726067248E+01 0.  0.
         13    1    3    3    0    0 -0.11780718899E+02  0.49302425854E+02 -0.63021920205E+03  0.63225450348E+03  0.00000000000E+00 0.  1.
          3    1    3    3  501    0 -0.24224617364E+01  0.89283641694E+01 -0.96842773688E+02  0.97283641087E+02  0.00000000000E+00 0.  1.
         -3    1    1    2    0  502  0.14203180635E+02 -0.58230790023E+02 -0.26839431228E+03  0.27500556742E+03  0.00000000000E+00 0. -1.
<mgrwt>
<rscale>  1 0.30000000E+03</rscale>
<asrwt>0</asrwt>
<pdfrwt beam="1">  1       21 0.16522624E-01 0.30000000E+03</pdfrwt>
<pdfrwt beam="2">0</pdfrwt>
<totfact> 0.34400138E+03</totfact>
</mgrwt>
</event>
<event>
 6    1  0.1284012E-001  0.3000000E+03  0.7818608E-02  0.1093470E+00
         21   -1    0    0  501  502  0.00000000000E+00  0.00000000000E+00  0.30214067382E+01  0.30214067382E+01  0.00000000000E+00 0. -1.
         13   -1    0    0    0    0 -0.00000000000E+00 -0.00000000000E+00 -0.10000000000E+04  0.10000000000E+04  0.00000000000E+00 0.  1.
    9000005    2    1    2  501    0  0.90140419210E+01 -0.39759483293E+02 -0.83465774129E+03  0.83565913964E+03  0.32531684123E+01 0.  0.
         13    1    3    3    0    0  0.40496216445E+01 -0.13410238390E+02 -0.31123714924E+03  0.31155223799E+03  0.00000000000E+00 0.  1.
          3    1    3    3  501    0  0.49644202765E+01 -0.26349244903E+02 -0.52342059205E+03  0.52410690165E+03  0.00000000000E+00 0.  1.
         -1    1    1    2    0  502 -0.90140419210E+01  0.39759483293E+02 -0.16232085197E+03  0.16736226710E+03  0.00000000000E+00 0. -1.
<mgrwt>
<rscale>  1 0.30000000E+03</rscale>
<asrwt>0</asrwt>
<pdfrwt beam="1">  1       21 0.10986957E-01 0.30000000E+03</pdfrwt>
<pdfrwt beam="2">0</pdfrwt>
<totfact> 0.72675185E+03</totfact>
</mgrwt>
</event>
<event>
 6    1  0.1284012E-001  0.3000000E+03  0.7818608E-02  0.1093470E+00
         21   -1    0    0  501  502  0.00000000000E+00  0.00000000000E+00  0.24450503615E+01  0.24450503615E+01  0.00000000000E+00 0. -1.
         13   -1    0    0    0    0 -0.00000000000E+00 -0.00000000000E+00 -0.10000000000E+04  0.10000000000E+04  0.00000000000E+00 0.  1.
    9000005    2    1    2  501    0 -0.29608397545E+02 -0.16699015211E+02 -0.86255620593E+03  0.86323235296E+03  0.33723135864E+01 0.  0.
         13    1    3    3    0    0 -0.47166338951E+01 -0.13176798650E+01 -0.12684190387E+03  0.12693640728E+03  0.00000000000E+00 0.  1.
          3    1    3    3  501    0 -0.24891763650E+02 -0.15381335346E+02 -0.73571430205E+03  0.73629594568E+03  0.00000000000E+00 0.  1.
         -3    1    1    2    0  502  0.29608397545E+02  0.16699015211E+02 -0.13499874371E+03  0.13921269740E+03  0.00000000000E+00 0. -1.
<mgrwt>
<rscale>  1 0.30000000E+03</rscale>
<asrwt>0</asrwt>
<pdfrwt beam="1">  1       21 0.88911110E-02 0.30000000E+03</pdfrwt>
<pdfrwt beam="2">0</pdfrwt>
<totfact> 0.10604205E+04</totfact>
</mgrwt>
</event>
<event>
 6    1  0.1284012E-001  0.3000000E+03  0.7818608E-02  0.1093470E+00
         21   -1    0    0  501  502  0.00000000000E+00  0.00000000000E+00  0.30655839148E+01  0.30655839148E+01  0.00000000000E+00 0. -1.
         13   -1    0    0    0    0 -0.00000000000E+00 -0.00000000000E+00 -0.10000000000E+04  0.10000000000E+04  0.00000000000E+00 0.  1.
    9000005    2    1    2  501    0  0.37056381735E+02 -0.10443365262E+02 -0.85866942734E+03  0.85954051147E+03  0.38034350598E+01 0.  0.
         13    1    3    3    0    0  0.14965086356E+02 -0.57339720285E+01 -0.38276778943E+03  0.38310313608E+03  0.00000000000E+00 0.  1.
          1    1    3    3  501    0  0.22091295379E+02 -0.47093932336E+01 -0.47590163790E+03  0.47643737540E+03  0.00000000000E+00 0.  1.
         -3    1    1    2    0  502 -0.37056381735E+02  0.10443365262E+02 -0.13826498875E+03  0.14352507244E+03  0.00000000000E+00 0. -1.
<mgrwt>
<rscale>  1 0.30000000E+03</rscale>
<asrwt>0</asrwt>
<pdfrwt beam="1">  1       21 0.11147601E-01 0.30000000E+03</pdfrwt>
<pdfrwt beam="2">0</pdfrwt>
<totfact> 0.70800838E+03</totfact>
</mgrwt>
</event>
<event>
 6    1  0.1284012E-001  0.3000000E+03  0.7818608E-02  0.1093470E+00
         21   -1    0    0  501  502  0.00000000000E+00  0.00000000000E+00  0.30829399124E+01  0.30829399124E+01  0.00000000000E+00 0. -1.
         13   -1    0    0    0    0 -0.00000000000E+00 -0.00000000000E+00 -0.10000000000E+04  0.10000000000E+04  0.00000000000E+00 0.  1.
    9000005    2    1    2  501    0  0.52510568369E+02 -0.14187882885E+02 -0.40020349537E+03  0.40389537819E+03  0.31595887880E+01 0.  0.
         13    1    3    3    0    0  0.21609870169E+02 -0.72705839982E+01 -0.16221470431E+03  0.16380921272E+03  0.00000000000E+00 0.  1.
          3    1    3    3  501    0  0.30900698201E+02 -0.69172988867E+01 -0.23798879107E+03  0.24008616546E+03  0.00000000000E+00 0.  1.
         -1    1    1    2    0  502 -0.52510568369E+02  0.14187882885E+02 -0.59671356471E+03  0.59918756172E+03  0.00000000000E+00 0. -1.
<mgrwt>
<rscale>  1 0.30000000E+03</rscale>
<asrwt>0</asrwt>
<pdfrwt beam="1">  1       21 0.11210714E-01 0.30000000E+03</pdfrwt>
<pdfrwt beam="2">0</pdfrwt>
<totfact> 0.70084327E+03</totfact>
</mgrwt>
</event>
<event>
 6    1  0.1284012E-001  0.3000000E+03  0.7818608E-02  0.1093470E+00
         21   -1    0    0  501  502  0.00000000000E+00  0.00000000000E+00  0.15714407086E+01  0.15714407086E+01  0.00000000000E+00 0. -1.
         13   -1    0    0    0    0 -0.00000000000E+00 -0.00000000000E+00 -0.10000000000E+04  0.10000000000E+04  0.00000000000E+00 0.  1.
    9000005    2    1    2  501    0  0.37784412308E+02  0.11593524775E+02 -0.47669897500E+03  0.47834698528E+03  0.34429541708E+01 0.  0.
         13    1    3    3    0    0  0.17956148351E+02  0.49176498784E+01 -0.24411635964E+03  0.24482525113E+03  0.00000000000E+00 0.  1.
          3    1    3    3  501    0  0.19828263958E+02  0.66758748965E+01 -0.23258261536E+03  0.23352173416E+03  0.00000000000E+00 0.  1.
         -1    1    1    2    0  502 -0.37784412308E+02 -0.11593524775E+02 -0.52172958429E+03  0.52322445543E+03  0.00000000000E+00 0. -1.
<mgrwt>
<rscale>  1 0.30000000E+03</rscale>
<asrwt>0</asrwt>
<pdfrwt beam="1">  1       21 0.57143419E-02 0.30000000E+03</pdfrwt>
<pdfrwt beam="2">0</pdfrwt>
<totfact> 0.22919000E+04</totfact>
</mgrwt>
</event>
<event>
 6    1  0.1284012E-001  0.3000000E+03  0.7818608E-02  0.1093470E+00
         21   -1    0    0  501  502  0.00000000000E+00  0.00000000000E+00  0.13443503090E+01  0.13443503090E+01  0.00000000000E+00 0. -1.
         13   -1    0    0    0    0 -0.00000000000E+00 -0.00000000000E+00 -0.10000000000E+04  0.10000000000E+04  0.00000000000E+00 0.  1.
    9000005    2    1    2  501    0 -0.14303093826E+02  0.31633049996E+02 -0.65922859196E+03  0.66014652519E+03  0.24227917052E+01 0.  0.
         13    1    3    3    0    0 -0.13251559966E+02  0.28732593478E+02 -0.61183614205E+03  0.61265376069E+03  0.00000000000E+00 0.  1.
          3    1    3    3  501    0 -0.10515338608E+01  0.29004565175E+01 -0.47392449914E+02  0.47492764505E+02  0.00000000000E+00 0.  1.
         -3    1    1    2    0  502  0.14303093826E+02 -0.31633049996E+02 -0.33942705773E+03  0.34119782512E+03  0.00000000000E+00 0. -1.
<mgrwt>
<rscale>  1 0.30000000E+03</rscale>
<asrwt>0</asrwt>
<pdfrwt beam="1">  1       21 0.48885569E-02 0.30000000E+03</pdfrwt>
<pdfrwt beam="2">0</pdfrwt>
<totfact> 0.29932420E+04</totfact>
</mgrwt>
</event>
<event>
 6    1  0.1284012E-001  0.3000000E+03  0.7818608E-02  0.1093470E+00
         21   -1    0    0  501  502  0.00000000000E+00  0.00000000000E+00  0.21365030236E+01  0.21365030236E+01  0.00000000000E+00 0. -1.
         13   -1    0    0    0    0 -0.00000000000E+00 -0.00000000000E+00 -0.10000000000E+04  0.10000000000E+04  0.00000000000E+00 0.  1.
    9000005    2    1    2  501    0  0.31185816609E+02  0.16611068503E+02 -0.82131148749E+03  0.82208346970E+03  0.44932083003E+01 0.  0.
         13    1    3    3    0    0  0.15310085958E+02  0.95409069661E+01 -0.37475006102E+03  0.37518400268E+03  0.00000000000E+00 0.  1.
          1    1    3    3  501    0  0.15875730652E+02  0.70701615373E+01 -0.44656142647E+03  0.44689946702E+03  0.00000000000E+00 0.  1.
         -3    1    1    2    0  502 -0.31185816609E+02 -0.16611068503E+02 -0.17655200949E+03  0.18005303332E+03  0.00000000000E+00 0. -1.
<mgrwt>
<rscale>  1 0.30000000E+03</rscale>
<asrwt>0</asrwt>
<pdfrwt beam="1">  1       21 0.77691183E-02 0.30000000E+03</pdfrwt>
<pdfrwt beam="2">0</pdfrwt>
<totfact> 0.13447567E+04</totfact>
</mgrwt>
</event>
<event>
 6    1  0.1284012E-001  0.3000000E+03  0.7818608E-02  0.1093470E+00
         21   -1    0    0  501  502  0.00000000000E+00  0.00000000000E+00  0.12851453438E+01  0.12851453438E+01  0.00000000000E+00 0. -1.
         13   -1    0    0    0    0 -0.00000000000E+00 -0.00000000000E+00 -0.10000000000E+04  0.10000000000E+04  0.00000000000E+00 0.  1.
    9000005    2    1    2  501    0  0.24556223806E+02  0.21786417770E+02 -0.69896417783E+03  0.69974223896E+03  0.32592916018E+01 0.  0.
         13    1    3    3    0    0  0.76554357158E+01  0.86882977468E+01 -0.25925611106E+03  0.25951459176E+03  0.00000000000E+00 0.  1.
          3    1    3    3  501    0  0.16900788090E+02  0.13098120023E+02 -0.43970806676E+03  0.44022764720E+03  0.00000000000E+00 0.  1.
         -1    1    1    2    0  502 -0.24556223806E+02 -0.21786417770E+02 -0.29975067683E+03  0.30154290638E+03  0.00000000000E+00 0. -1.
<mgrwt>
<rscale>  1 0.30000000E+03</rscale>
<asrwt>0</asrwt>
<pdfrwt beam="1">  1       21 0.46732657E-02 0.30000000E+03</pdfrwt>
<pdfrwt beam="2">0</pdfrwt>
<totfact> 0.32316213E+04</totfact>
</mgrwt>
</event>
<event>
 6    1  0.1284012E-001  0.3000000E+03  0.7818608E-02  0.1093470E+00
         21   -1    0    0  501  502  0.00000000000E+00  0.00000000000E+00  0.23986356499E+01  0.23986356499E+01  0.00000000000E+00 0. -1.
         13   -1    0    0    0    0 -0.00000000000E+00 -0.00000000000E+00 -0.10000000000E+04  0.10000000000E+04  0.00000000000E+00 0.  1.
    9000005    2    1    2  501    0  0.39689175184E+02 -0.20803263228E+02 -0.69935358761E+03  0.70080330625E+03  0.46719540838E+01 0.  0.
         13    1    3    3    0    0  0.48906534644E+01 -0.40737217469E+01 -0.11418896135E+03  0.11436622138E+03  0.00000000000E+00 0.  1.
          3    1    3    3  501    0  0.34798521720E+02 -0.16729541481E+02 -0.58516462626E+03  0.58643708486E+03  0.00000000000E+00 0.  1.
         -1    1    1    2    0  502 -0.39689175184E+02  0.20803263228E+02 -0.29824777674E+03  0.30159532940E+03  0.00000000000E+00 0. -1.
<mgrwt>
<rscale>  1 0.30000000E+03</rscale>
<asrwt>0</asrwt>
<pdfrwt beam="1">  1       21 0.87223298E-02 0.30000000E+03</pdfrwt>
<pdfrwt beam="2">0</pdfrwt>
<totfact> 0.10969745E+04</totfact>
</mgrwt>
</event>
<event>
 6    1  0.1284012E-001  0.3000000E+03  0.7818608E-02  0.1093470E+00
         21   -1    0    0  501  502  0.00000000000E+00  0.00000000000E+00  0.21572821210E+01  0.21572821210E+01  0.00000000000E+00 0. -1.
         13   -1    0    0    0    0 -0.00000000000E+00 -0.00000000000E+00 -0.10000000000E+04  0.10000000000E+04  0.00000000000E+00 0.  1.
    9000005    2    1    2  501    0 -0.12032409566E+02 -0.33960058159E+02 -0.81468886843E+03  0.81549342114E+03  0.36746620610E+01 0.  0.
         13    1    3    3    0    0 -0.78295605285E+01 -0.16601672120E+02 -0.41121324542E+03  0.41162270436E+03  0.00000000000E+00 0.  1.
          3    1    3    3  501    0 -0.42028490371E+01 -0.17358386038E+02 -0.40347562301E+03  0.40387071678E+03  0.00000000000E+00 0.  1.
         -1    1    1    2    0  502  0.12032409566E+02  0.33960058159E+02 -0.18315384945E+03  0.18666386098E+03  0.00000000000E+00 0. -1.
<mgrwt>
<rscale>  1 0.30000000E+03</rscale>
<asrwt>0</asrwt>
<pdfrwt beam="1">  1       21 0.78446788E-02 0.30000000E+03</pdfrwt>
<pdfrwt beam="2">0</pdfrwt>
<totfact> 0.13221182E+04</totfact>
</mgrwt>
</event>
<event>
 6    1  0.1284012E-001  0.3000000E+03  0.7818608E-02  0.1093470E+00
         21   -1    0    0  501  502  0.00000000000E+00  0.00000000000E+00  0.14810159371E+01  0.14810159371E+01  0.00000000000E+00 0. -1.
         13   -1    0    0    0    0 -0.00000000000E+00 -0.00000000000E+00 -0.10000000000E+04  0.10000000000E+04  0.00000000000E+00 0.  1.
    9000005    2    1    2  501    0  0.27856643528E+02 -0.23166864426E+02 -0.66697890297E+03  0.66796711583E+03  0.25523758460E+01 0.  0.
         13    1    3    3    0    0  0.16846283299E+02 -0.12416190275E+02 -0.38981700985E+03  0.39037835521E+03  0.00000000000E+00 0.  1.
          3    1    3    3  501    0  0.11010360228E+02 -0.10750674151E+02 -0.27716189311E+03  0.27758876062E+03  0.00000000000E+00 0.  1.
         -3    1    1    2    0  502 -0.27856643528E+02  0.23166864426E+02 -0.33154008109E+03  0.33351390011E+03  0.00000000000E+00 0. -1.
<mgrwt>
<rscale>  1 0.30000000E+03</rscale>
<asrwt>0</asrwt>
<pdfrwt beam="1">  1       21 0.53855239E-02 0.30000000E+03</pdfrwt>
<pdfrwt beam="2">0</pdfrwt>
<totfact> 0.25372244E+04</totfact>
</mgrwt>
</event>
<event>
 6    1  0.1284012E-001  0.3000000E+03  0.7818608E-02  0.1093470E+00
         21   -1    0    0  501  502  0.00000000000E+00  0.00000000000E+00  0.13505424208E+01  0.13505424208E+01  0.00000000000E+00 0. -1.
         13   -1    0    0    0    0 -0.00000000000E+00 -0.00000000000E+00 -0.10000000000E+04  0.10000000000E+04  0.00000000000E+00 0.  1.
    9000005    2    1    2  501    0  0.33312531326E+02  0.14929640932E+02 -0.45295680882E+03  0.45443822236E+03  0.34071051975E+01 0.  0.
         13    1    3    3    0    0  0.66137270040E+01  0.17820165627E+01 -0.94751894871E+02  0.94999150257E+02  0.00000000000E+00 0.  1.
          3    1    3    3  501    0  0.26698804322E+02  0.13147624370E+02 -0.35820491395E+03  0.35943907211E+03  0.00000000000E+00 0.  1.
         -3    1    1    2    0  502 -0.33312531326E+02 -0.14929640932E+02 -0.54569264876E+03  0.54691232006E+03  0.00000000000E+00 0. -1.
<mgrwt>
<rscale>  1 0.30000000E+03</rscale>
<asrwt>0</asrwt>
<pdfrwt beam="1">  1       21 0.49110737E-02 0.30000000E+03</pdfrwt>
<pdfrwt beam="2">0</pdfrwt>
<totfact> 0.29699068E+04</totfact>
</mgrwt>
</event>
<event>
 6    1  0.1284012E-001  0.3000000E+03  0.7818608E-02  0.1093470E+00
         21   -1    0    0  501  502  0.00000000000E+00  0.00000000000E+00  0.16187335542E+01  0.16187335542E+01  0.00000000000E+00 0. -1.
         13   -1    0    0    0    0 -0.00000000000E+00 -0.00000000000E+00 -0.10000000000E+04  0.10000000000E+04  0.00000000000E+00 0.  1.
    9000005    2    1    2  501    0 -0.39616993167E+02  0.62044568743E+01 -0.47327476304E+03  0.47498333657E+03  0.34881600159E+01 0.  0.
         13    1    3    3    0    0 -0.16595014668E+02  0.24112030221E+01 -0.17800917376E+03  0.17879729963E+03  0.00000000000E+00 0.  1.
          1    1    3    3  501    0 -0.23021978500E+02  0.37932538522E+01 -0.29526558927E+03  0.29618603694E+03  0.00000000000E+00 0.  1.
         -1    1    1    2    0  502  0.39616993167E+02 -0.62044568743E+01 -0.52510650341E+03  0.52663539698E+03  0.00000000000E+00 0. -1.
<mgrwt>
<rscale>  1 0.30000000E+03</rscale>
<asrwt>0</asrwt>
<pdfrwt beam="1">  1       21 0.58863162E-02 0.30000000E+03</pdfrwt>
<pdfrwt beam="2">0</pdfrwt>
<totfact> 0.21778168E+04</totfact>
</mgrwt>
</event>
<event>
 6    1  0.1284012E-001  0.3000000E+03  0.7818608E-02  0.1093470E+00
         21   -1    0    0  501  502  0.00000000000E+00  0.00000000000E+00  0.18674973929E+01  0.18674973929E+01  0.00000000000E+00 0. -1.
         13   -1    0    0    0    0 -0.00000000000E+00 -0.00000000000E+00 -0.10000000000E+04  0.10000000000E+04  0.00000000000E+00 0.  1.
    9000005    2    1    2  501    0 -0.36711462471E+02 -0.20593976625E+02 -0.60973615349E+03  0.61119683384E+03  0.33984523661E+01 0.  0.
         13    1    3    3    0    0 -0.37526548432E+01 -0.10955761368E+01 -0.50517543521E+02  0.50668579108E+02  0.00000000000E+00 0.  1.
          3    1    3    3  501    0 -0.32958807628E+02 -0.19498400488E+02 -0.55921860997E+03  0.56052825474E+03  0.00000000000E+00 0.  1.
         -1    1    1    2    0  502  0.36711462471E+02  0.20593976625E+02 -0.38839634912E+03  0.39067066355E+03  0.00000000000E+00 0. -1.
<mgrwt>
<rscale>  1 0.30000000E+03</rscale>
<asrwt>0</asrwt>
<pdfrwt beam="1">  1       21 0.67909139E-02 0.30000000E+03</pdfrwt>
<pdfrwt beam="2">0</pdfrwt>
<totfact> 0.17008639E+04</totfact>
</mgrwt>
</event>
<event>
 6    1  0.1284012E-001  0.3000000E+03  0.7818608E-02  0.1093470E+00
         21   -1    0    0  501  502  0.00000000000E+00  0.00000000000E+00  0.47525981695E+01  0.47525981695E+01  0.00000000000E+00 0. -1.
         13   -1    0    0    0    0 -0.00000000000E+00 -0.00000000000E+00 -0.10000000000E+04  0.10000000000E+04  0.00000000000E+00 0.  1.
    9000005    2    1    2  501    0  0.16507322160E+02  0.47045543691E+02 -0.84444489801E+03  0.84592196502E+03  0.33181731894E+01 0.  0.
         13    1    3    3    0    0  0.12110012789E+02  0.35031749992E+02 -0.65125440797E+03  0.65230834720E+03  0.00000000000E+00 0.  1.
          1    1    3    3  501    0  0.43973093707E+01  0.12013793699E+02 -0.19319049003E+03  0.19361361783E+03  0.00000000000E+00 0.  1.
         -3    1    1    2    0  502 -0.16507322160E+02 -0.47045543691E+02 -0.15080250382E+03  0.15883063314E+03  0.00000000000E+00 0. -1.
<mgrwt>
<rscale>  1 0.30000000E+03</rscale>
<asrwt>0</asrwt>
<pdfrwt beam="1">  1       21 0.17282212E-01 0.30000000E+03</pdfrwt>
<pdfrwt beam="2">0</pdfrwt>
<totfact> 0.31624080E+03</totfact>
</mgrwt>
</event>
<event>
 6    1  0.1284012E-001  0.3000000E+03  0.7818608E-02  0.1093470E+00
         21   -1    0    0  501  502  0.00000000000E+00  0.00000000000E+00  0.19610869285E+01  0.19610869285E+01  0.00000000000E+00 0. -1.
         13   -1    0    0    0    0 -0.00000000000E+00 -0.00000000000E+00 -0.10000000000E+04  0.10000000000E+04  0.00000000000E+00 0.  1.
    9000005    2    1    2  501    0 -0.31836531197E+02 -0.30083620153E+01 -0.84519303168E+03  0.84580578468E+03  0.36809841383E+01 0.  0.
         13    1    3    3    0    0 -0.17075738312E+02 -0.25359352212E+00 -0.48219638117E+03  0.48249869965E+03  0.00000000000E+00 0.  1.
          1    1    3    3  501    0 -0.14760792886E+02 -0.27547684932E+01 -0.36299665050E+03  0.36330708503E+03  0.00000000000E+00 0.  1.
         -3    1    1    2    0  502  0.31836531197E+02  0.30083620153E+01 -0.15284588140E+03  0.15615530225E+03  0.00000000000E+00 0. -1.
<mgrwt>
<rscale>  1 0.30000000E+03</rscale>
<asrwt>0</asrwt>
<pdfrwt beam="1">  1       21 0.71312402E-02 0.30000000E+03</pdfrwt>
<pdfrwt beam="2">0</pdfrwt>
<totfact> 0.15621638E+04</totfact>
</mgrwt>
</event>
<event>
 6    1  0.1284012E-001  0.3000000E+03  0.7818608E-02  0.1093470E+00
         21   -1    0    0  501  502  0.00000000000E+00  0.00000000000E+00  0.17922248657E+01  0.17922248657E+01  0.00000000000E+00 0. -1.
         13   -1    0    0    0    0 -0.00000000000E+00 -0.00000000000E+00 -0.10000000000E+04  0.10000000000E+04  0.00000000000E+00 0.  1.
    9000005    2    1    2  501    0  0.12041730337E+02 -0.28707103112E+02 -0.83811878515E+03  0.83870456208E+03  0.36253819845E+01 0.  0.
         13    1    3    3    0    0  0.68635930042E+01 -0.16378580855E+02 -0.52535239642E+03  0.52565245861E+03  0.00000000000E+00 0.  1.
          1    1    3    3  501    0  0.51781373331E+01 -0.12328522257E+02 -0.31276638873E+03  0.31305210347E+03  0.00000000000E+00 0.  1.
         -1    1    1    2    0  502 -0.12041730337E+02  0.28707103112E+02 -0.16008898998E+03  0.16308766278E+03  0.00000000000E+00 0. -1.
<mgrwt>
<rscale>  1 0.30000000E+03</rscale>
<asrwt>0</asrwt>
<pdfrwt beam="1">  1       21 0.65171951E-02 0.30000000E+03</pdfrwt>
<pdfrwt beam="2">0</pdfrwt>
<totfact> 0.18266294E+04</totfact>
</mgrwt>
</event>
<event>
 6    1  0.1284012E-001  0.3000000E+03  0.7818608E-02  0.1093470E+00
         21   -1    0    0  501  502  0.00000000000E+00  0.00000000000E+00  0.44929699751E+01  0.44929699751E+01  0.00000000000E+00 0. -1.
         13   -1    0    0    0    0 -0.00000000000E+00 -0.00000000000E+00 -0.10000000000E+04  0.10000000000E+04  0.00000000000E+00 0.  1.
    9000005    2    1    2  501    0  0.48792933496E+02 -0.41978948325E+02 -0.63718524547E+03  0.64043599127E+03  0.31999062770E+01 0.  0.
         13    1    3    3    0    0  0.40087898938E+02 -0.35301365118E+02 -0.53850940783E+03  0.54115211202E+03  0.00000000000E+00 0.  1.
          1    1    3    3  501    0  0.87050345580E+01 -0.66775832068E+01 -0.98675837640E+02  0.99283879245E+02  0.00000000000E+00 0.  1.
         -3    1    1    2    0  502 -0.48792933496E+02  0.41978948325E+02 -0.35832178455E+03  0.36405697871E+03  0.00000000000E+00 0. -1.
<mgrwt>
<rscale>  1 0.30000000E+03</rscale>
<asrwt>0</asrwt>
<pdfrwt beam="1">  1       21 0.16338107E-01 0.30000000E+03</pdfrwt>
<pdfrwt beam="2">0</pdfrwt>
<totfact> 0.35129273E+03</totfact>
</mgrwt>
</event>
<event>
 6    1  0.1284012E-001  0.3000000E+03  0.7818608E-02  0.1093470E+00
         21   -1    0    0  501  502  0.00000000000E+00  0.00000000000E+00  0.13416803399E+01  0.13416803399E+01  0.00000000000E+00 0. -1.
         13   -1    0    0    0    0 -0.00000000000E+00 -0.00000000000E+00 -0.10000000000E+04  0.10000000000E+04  0.00000000000E+00 0.  1.
    9000005    2    1    2  501    0 -0.66496806050E+01  0.33998186728E+02 -0.66001893250E+03  0.66093496847E+03  0.31537801574E+01 0.  0.
         13    1    3    3    0    0  0.24495410228E-01  0.58106592663E+01 -0.11567928023E+03  0.11582512782E+03  0.00000000000E+00 0.  1.
          3    1    3    3  501    0 -0.66741760152E+01  0.28187527462E+02 -0.54433965227E+03  0.54510984065E+03  0.00000000000E+00 0.  1.
         -1    1    1    2    0  502  0.66496806050E+01 -0.33998186728E+02 -0.33863938716E+03  0.34040671187E+03  0.00000000000E+00 0. -1.
<mgrwt>
<rscale>  1 0.30000000E+03</rscale>
<asrwt>0</asrwt>
<pdfrwt beam="1">  1       21 0.48788479E-02 0.30000000E+03</pdfrwt>
<pdfrwt beam="2">0</pdfrwt>
<totfact> 0.30033923E+04</totfact>
</mgrwt>
</event>
<event>
 6    1  0.1284012E-001  0.3000000E+03  0.7818608E-02  0.1093470E+00
         21   -1    0    0  501  502  0.00000000000E+00  0.00000000000E+00  0.15229331505E+01  0.15229331505E+01  0.00000000000E+00 0. -1.
         13   -1    0    0    0    0 -0.00000000000E+00 -0.00000000000E+00 -0.10000000000E+04  0.10000000000E+04  0.00000000000E+00 0.  1.
    9000005    2    1    2  501    0 -0.21199687359E+02  0.21545087538E+02 -0.81503673188E+03  0.81560904439E+03  0.44296086285E+01 0.  0.
         13    1    3    3    0    0 -0.90090189044E+01  0.11342612821E+02 -0.43136136372E+03  0.43160449881E+03  0.00000000000E+00 0.  1.
          3    1    3    3  501    0 -0.12190668455E+02  0.10202474717E+02 -0.38367536816E+03  0.38400454558E+03  0.00000000000E+00 0.  1.
         -1    1    1    2    0  502  0.21199687359E+02 -0.21545087538E+02 -0.18344033497E+03  0.18591388876E+03  0.00000000000E+00 0. -1.
<mgrwt>
<rscale>  1 0.30000000E+03</rscale>
<asrwt>0</asrwt>
<pdfrwt beam="1">  1       21 0.55379504E-02 0.30000000E+03</pdfrwt>
<pdfrwt beam="2">0</pdfrwt>
<totfact> 0.24187202E+04</totfact>
</mgrwt>
</event>
<event>
 6    1  0.1284012E-001  0.3000000E+03  0.7818608E-02  0.1093470E+00
         21   -1    0    0  501  502  0.00000000000E+00  0.00000000000E+00  0.20021119766E+01  0.20021119766E+01  0.00000000000E+00 0. -1.
         13   -1    0    0    0    0 -0.00000000000E+00 -0.00000000000E+00 -0.10000000000E+04  0.10000000000E+04  0.00000000000E+00 0.  1.
    9000005    2    1    2  501    0  0.32331058930E+02 -0.91825038598E+01 -0.82934138449E+03  0.83002934689E+03  0.34596121451E+01 0.  0.
         13    1    3    3    0    0  0.42589579984E+01 -0.15218561583E+01 -0.86332695448E+02  0.86451079072E+02  0.00000000000E+00 0.  1.
          3    1    3    3  501    0  0.28072100931E+02 -0.76606477015E+01 -0.74300868904E+03  0.74357826782E+03  0.00000000000E+00 0.  1.
         -3    1    1    2    0  502 -0.32331058930E+02  0.91825038598E+01 -0.16865650353E+03  0.17197276509E+03  0.00000000000E+00 0. -1.
<mgrwt>
<rscale>  1 0.30000000E+03</rscale>
<asrwt>0</asrwt>
<pdfrwt beam="1">  1       21 0.72804225E-02 0.30000000E+03</pdfrwt>
<pdfrwt beam="2">0</pdfrwt>
<totfact> 0.15067437E+04</totfact>
</mgrwt>
</event>
<event>
 6    1  0.1284012E-001  0.3000000E+03  0.7818608E-02  0.1093470E+00
         21   -1    0    0  501  502  0.00000000000E+00  0.00000000000E+00  0.18813752854E+01  0.18813752854E+01  0.00000000000E+00 0. -1.
         13   -1    0    0    0    0 -0.00000000000E+00 -0.00000000000E+00 -0.10000000000E+04  0.10000000000E+04  0.00000000000E+00 0.  1.
    9000005    2    1    2  501    0  0.15182571470E+02  0.39970184160E+02 -0.56620144455E+03  0.56785306213E+03  0.67006166116E+01 0.  0.
         13    1    3    3    0    0  0.12938084368E+02  0.35048877716E+02 -0.46037142605E+03  0.46188490750E+03  0.00000000000E+00 0.  1.
          1    1    3    3  501    0  0.22444871019E+01  0.49213064445E+01 -0.10583001850E+03  0.10596815462E+03  0.00000000000E+00 0.  1.
         -3    1    1    2    0  502 -0.15182571470E+02 -0.39970184160E+02 -0.43191718017E+03  0.43402831316E+03  0.00000000000E+00 0. -1.
<mgrwt>
<rscale>  1 0.30000000E+03</rscale>
<asrwt>0</asrwt>
<pdfrwt beam="1">  1       21 0.68413791E-02 0.30000000E+03</pdfrwt>
<pdfrwt beam="2">0</pdfrwt>
<totfact> 0.16791328E+04</totfact>
</mgrwt>
</event>
<event>
 6    1  0.1284012E-001  0.3000000E+03  0.7818608E-02  0.1093470E+00
         21   -1    0    0  501  502  0.00000000000E+00  0.00000000000E+00  0.21973187831E+01  0.21973187831E+01  0.00000000000E+00 0. -1.
         13   -1    0    0    0    0 -0.00000000000E+00 -0.00000000000E+00 -0.10000000000E+04  0.10000000000E+04  0.00000000000E+00 0.  1.
    9000005    2    1    2  501    0  0.44166377155E+02 -0.14069944310E+02 -0.56887192940E+03  0.57076919956E+03  0.36844132488E+01 0.  0.
         13    1    3    3    0    0  0.11669124878E+02 -0.33813843970E+01 -0.16941221185E+03  0.16984728364E+03  0.00000000000E+00 0.  1.
          3    1    3    3  501    0  0.32497252277E+02 -0.10688559913E+02 -0.39945971756E+03  0.40092191593E+03  0.00000000000E+00 0.  1.
         -3    1    1    2    0  502 -0.44166377155E+02  0.14069944310E+02 -0.42893075181E+03  0.43142811922E+03  0.00000000000E+00 0. -1.
<mgrwt>
<rscale>  1 0.30000000E+03</rscale>
<asrwt>0</asrwt>
<pdfrwt beam="1">  1       21 0.79902670E-02 0.30000000E+03</pdfrwt>
<pdfrwt beam="2">0</pdfrwt>
<totfact> 0.12801211E+04</totfact>
</mgrwt>
</event>
<event>
 6    1  0.1284012E-001  0.3000000E+03  0.7818608E-02  0.1093470E+00
         21   -1    0    0  501  502  0.00000000000E+00  0.00000000000E+00  0.17665057107E+01  0.17665057107E+01  0.00000000000E+00 0. -1.
         13   -1    0    0    0    0 -0.00000000000E+00 -0.00000000000E+00 -0.10000000000E+04  0.10000000000E+04  0.00000000000E+00 0.  1.
    9000005    2    1    2  501    0 -0.32463035107E+02  0.25737307560E+02 -0.42071561539E+03  0.42276464207E+03  0.34721613498E+01 0.  0.
         13    1    3    3    0    0 -0.30555885159E+01  0.28196439442E+01 -0.53460551812E+02  0.53621988150E+02  0.00000000000E+00 0.  1.
          3    1    3    3  501    0 -0.29407446591E+02  0.22917663616E+02 -0.36725506358E+03  0.36914265392E+03  0.00000000000E+00 0.  1.
         -1    1    1    2    0  502  0.32463035107E+02 -0.25737307560E+02 -0.57751787890E+03  0.57900186364E+03  0.00000000000E+00 0. -1.
<mgrwt>
<rscale>  1 0.30000000E+03</rscale>
<asrwt>0</asrwt>
<pdfrwt beam="1">  1       21 0.64236707E-02 0.30000000E+03</pdfrwt>
<pdfrwt beam="2">0</pdfrwt>
<totfact> 0.18729074E+04</totfact>
</mgrwt>
</event>
<event>
 6    1  0.1284012E-001  0.3000000E+03  0.7818608E-02  0.1093470E+00
         21   -1    0    0  501  502  0.00000000000E+00  0.00000000000E+00  0.15675423675E+01  0.15675423675E+01  0.00000000000E+00 0. -1.
         13   -1    0    0    0    0 -0.00000000000E+00 -0.00000000000E+00 -0.10000000000E+04  0.10000000000E+04  0.00000000000E+00 0.  1.
    9000005    2    1    2  501    0 -0.56758795190E+01  0.37207732382E+02 -0.34706253536E+03  0.34911110198E+03  0.30866033652E+01 0.  0.
         13    1    3    3    0    0 -0.36886419895E+01  0.24359786610E+02 -0.24039475873E+03  0.24165397847E+03  0.00000000000E+00 0.  1.
          3    1    3    3  501    0 -0.19872375295E+01  0.12847945772E+02 -0.10666777663E+03  0.10745712352E+03  0.00000000000E+00 0.  1.
         -1    1    1    2    0  502  0.56758795190E+01 -0.37207732382E+02 -0.65136992227E+03  0.65245644038E+03  0.00000000000E+00 0. -1.
<mgrwt>
<rscale>  1 0.30000000E+03</rscale>
<asrwt>0</asrwt>
<pdfrwt beam="1">  1       21 0.57001661E-02 0.30000000E+03</pdfrwt>
<pdfrwt beam="2">0</pdfrwt>
<totfact> 0.23017107E+04</totfact>
</mgrwt>
</event>
<event>
 6    1  0.1284012E-001  0.3000000E+03  0.7818608E-02  0.1093470E+00
         21   -1    0    0  501  502  0.00000000000E+00  0.00000000000E+00  0.16750603239E+01  0.16750603239E+01  0.00000000000E+00 0. -1.
         13   -1    0    0    0    0 -0.00000000000E+00 -0.00000000000E+00 -0.10000000000E+04  0.10000000000E+04  0.00000000000E+00 0.  1.
    9000005    2    1    2  501    0 -0.88351988237E+01 -0.39879937606E+02 -0.51189063958E+03  0.51352877234E+03  0.33619890643E+01 0.  0.
         13    1    3    3    0    0 -0.26602802259E+00 -0.59305385805E+01 -0.67104032040E+02  0.67366112956E+02  0.00000000000E+00 0.  1.
          1    1    3    3  501    0 -0.85691708011E+01 -0.33949399025E+02 -0.44478660754E+03  0.44616265938E+03  0.00000000000E+00 0.  1.
         -3    1    1    2    0  502  0.88351988237E+01  0.39879937606E+02 -0.48643430010E+03  0.48814628798E+03  0.00000000000E+00 0. -1.
<mgrwt>
<rscale>  1 0.30000000E+03</rscale>
<asrwt>0</asrwt>
<pdfrwt beam="1">  1       21 0.60911413E-02 0.30000000E+03</pdfrwt>
<pdfrwt beam="2">0</pdfrwt>
<totfact> 0.20530685E+04</totfact>
</mgrwt>
</event>
<event>
 6    1  0.1284012E-001  0.3000000E+03  0.7818608E-02  0.1093470E+00
         21   -1    0    0  501  502  0.00000000000E+00  0.00000000000E+00  0.25560637783E+01  0.25560637783E+01  0.00000000000E+00 0. -1.
         13   -1    0    0    0    0 -0.00000000000E+00 -0.00000000000E+00 -0.10000000000E+04  0.10000000000E+04  0.00000000000E+00 0.  1.
    9000005    2    1    2  501    0  0.24491874958E+02  0.40863943767E+02 -0.66593400001E+03  0.66764032565E+03  0.24079503932E+01 0.  0.
         13    1    3    3    0    0  0.24260290765E+01  0.56095691189E+01 -0.84879733839E+02  0.85099483543E+02  0.00000000000E+00 0.  1.
          3    1    3    3  501    0  0.22065845882E+02  0.35254374648E+02 -0.58105426618E+03  0.58254084211E+03  0.00000000000E+00 0.  1.
         -3    1    1    2    0  502 -0.24491874958E+02 -0.40863943767E+02 -0.33150993621E+03  0.33491573812E+03  0.00000000000E+00 0. -1.
<mgrwt>
<rscale>  1 0.30000000E+03</rscale>
<asrwt>0</asrwt>
<pdfrwt beam="1">  1       21 0.92947970E-02 0.30000000E+03</pdfrwt>
<pdfrwt beam="2">0</pdfrwt>
<totfact> 0.98012343E+03</totfact>
</mgrwt>
</event>
<event>
 6    1  0.1284012E-001  0.3000000E+03  0.7818608E-02  0.1093470E+00
         21   -1    0    0  501  502  0.00000000000E+00  0.00000000000E+00  0.12570354486E+01  0.12570354486E+01  0.00000000000E+00 0. -1.
         13   -1    0    0    0    0 -0.00000000000E+00 -0.00000000000E+00 -0.10000000000E+04  0.10000000000E+04  0.00000000000E+00 0.  1.
    9000005    2    1    2  501    0  0.30844495552E+02  0.38089055730E+01 -0.73913363558E+03  0.73979404695E+03  0.32878540160E+01 0.  0.
         13    1    3    3    0    0  0.69345975829E+01  0.37414380696E+00 -0.19746890532E+03  0.19759098460E+03  0.00000000000E+00 0.  1.
          1    1    3    3  501    0  0.23909897969E+02  0.34347617660E+01 -0.54166473026E+03  0.54220306235E+03  0.00000000000E+00 0.  1.
         -3    1    1    2    0  502 -0.30844495552E+02 -0.38089055730E+01 -0.25960932897E+03  0.26146298850E+03  0.00000000000E+00 0. -1.
<mgrwt>
<rscale>  1 0.30000000E+03</rscale>
<asrwt>0</asrwt>
<pdfrwt beam="1">  1       21 0.45710476E-02 0.30000000E+03</pdfrwt>
<pdfrwt beam="2">0</pdfrwt>
<totfact> 0.33553758E+04</totfact>
</mgrwt>
</event>
<event>
 6    1  0.1284012E-001  0.3000000E+03  0.7818608E-02  0.1093470E+00
         21   -1    0    0  501  502  0.00000000000E+00  0.00000000000E+00  0.13974066689E+01  0.13974066689E+01  0.00000000000E+00 0. -1.
         13   -1    0    0    0    0 -0.00000000000E+00 -0.00000000000E+00 -0.10000000000E+04  0.10000000000E+04  0.00000000000E+00 0.  1.
    9000005    2    1    2  501    0  0.30546590852E+02 -0.18844712691E+02 -0.63670036152E+03  0.63771974334E+03  0.33020124521E+01 0.  0.
         13    1    3    3    0    0  0.12230617823E+01 -0.31976345188E+00 -0.32564111997E+02  0.32588640949E+02  0.00000000000E+00 0.  1.
          3    1    3    3  501    0  0.29323529070E+02 -0.18524949239E+02 -0.60413624952E+03  0.60513110239E+03  0.00000000000E+00 0.  1.
         -1    1    1    2    0  502 -0.30546590852E+02  0.18844712691E+02 -0.36190223182E+03  0.36367766333E+03  0.00000000000E+00 0. -1.
<mgrwt>
<rscale>  1 0.30000000E+03</rscale>
<asrwt>0</asrwt>
<pdfrwt beam="1">  1       21 0.50814895E-02 0.30000000E+03</pdfrwt>
<pdfrwt beam="2">0</pdfrwt>
<totfact> 0.28021338E+04</totfact>
</mgrwt>
</event>
<event>
 6    1  0.1284012E-001  0.3000000E+03  0.7818608E-02  0.1093470E+00
         21   -1    0    0  501  502  0.00000000000E+00  0.00000000000E+00  0.16809831463E+01  0.16809831463E+01  0.00000000000E+00 0. -1.
         13   -1    0    0    0    0 -0.00000000000E+00 -0.00000000000E+00 -0.10000000000E+04  0.10000000000E+04  0.00000000000E+00 0.  1.
    9000005    2    1    2  501    0  0.20939373755E+02  0.29474487391E+02 -0.26552497855E+03  0.26799555645E+03  0.33017056354E+01 0.  0.
         13    1    3    3    0    0  0.18192346365E+02  0.23858303047E+02 -0.22484710902E+03  0.22684003731E+03  0.00000000000E+00 0.  1.
          3    1    3    3  501    0  0.27470273900E+01  0.56161843442E+01 -0.40677869532E+02  0.41155519141E+02  0.00000000000E+00 0.  1.
         -1    1    1    2    0  502 -0.20939373755E+02 -0.29474487391E+02 -0.73279403830E+03  0.73368542670E+03  0.00000000000E+00 0. -1.
<mgrwt>
<rscale>  1 0.30000000E+03</rscale>
<asrwt>0</asrwt>
<pdfrwt beam="1">  1       21 0.61126789E-02 0.30000000E+03</pdfrwt>
<pdfrwt beam="2">0</pdfrwt>
<totfact> 0.20406000E+04</totfact>
</mgrwt>
</event>
<event>
 6    1  0.1284012E-001  0.3000000E+03  0.7818608E-02  0.1093470E+00
         21   -1    0    0  501  502  0.00000000000E+00  0.00000000000E+00  0.27148982080E+01  0.27148982080E+01  0.00000000000E+00 0. -1.
         13   -1    0    0    0    0 -0.00000000000E+00 -0.00000000000E+00 -0.10000000000E+04  0.10000000000E+04  0.00000000000E+00 0.  1.
    9000005    2    1    2  501    0 -0.22965969518E+02 -0.22798920989E+02 -0.89142532419E+03  0.89201928371E+03  0.34738102247E+01 0.  0.
         13    1    3    3    0    0 -0.12574944908E+02 -0.14386534473E+02 -0.49540266958E+03  0.49577102239E+03  0.00000000000E+00 0.  1.
          1    1    3    3  501    0 -0.10391024610E+02 -0.84123865159E+01 -0.39602265460E+03  0.39624826132E+03  0.00000000000E+00 0.  1.
         -1    1    1    2    0  502  0.22965969518E+02  0.22798920989E+02 -0.10585977761E+03  0.11069561450E+03  0.00000000000E+00 0. -1.
<mgrwt>
<rscale>  1 0.30000000E+03</rscale>
<asrwt>0</asrwt>
<pdfrwt beam="1">  1       21 0.98723779E-02 0.30000000E+03</pdfrwt>
<pdfrwt beam="2">0</pdfrwt>
<totfact> 0.88028547E+03</totfact>
</mgrwt>
</event>
<event>
 6    1  0.1284012E-001  0.3000000E+03  0.7818608E-02  0.1093470E+00
         21   -1    0    0  501  502  0.00000000000E+00  0.00000000000E+00  0.80183601810E+01  0.80183601810E+01  0.00000000000E+00 0. -1.
         13   -1    0    0    0    0 -0.00000000000E+00 -0.00000000000E+00 -0.10000000000E+04  0.10000000000E+04  0.00000000000E+00 0.  1.
    9000005    2    1    2  501    0 -0.30114978296E+02 -0.55121297250E+02 -0.85513644046E+03  0.85744652378E+03  0.33075700439E+01 0.  0.
         13    1    3    3    0    0 -0.77323527725E+01 -0.14310423664E+02 -0.20228291967E+03  0.20293584477E+03  0.00000000000E+00 0.  1.
          1    1    3    3  501    0 -0.22382625523E+02 -0.40810873586E+02 -0.65285352079E+03  0.65451067901E+03  0.00000000000E+00 0.  1.
         -3    1    1    2    0  502  0.30114978296E+02  0.55121297250E+02 -0.13684519936E+03  0.15057183640E+03  0.00000000000E+00 0. -1.
<mgrwt>
<rscale>  1 0.30000000E+03</rscale>
<asrwt>0</asrwt>
<pdfrwt beam="1">  1       21 0.29157735E-01 0.30000000E+03</pdfrwt>
<pdfrwt beam="2">0</pdfrwt>
<totfact> 0.11508867E+03</totfact>
</mgrwt>
</event>
<event>
 6    1  0.1284012E-001  0.3000000E+03  0.7818608E-02  0.1093470E+00
         21   -1    0    0  501  502  0.00000000000E+00  0.00000000000E+00  0.24300691608E+01  0.24300691608E+01  0.00000000000E+00 0. -1.
         13   -1    0    0    0    0 -0.00000000000E+00 -0.00000000000E+00 -0.10000000000E+04  0.10000000000E+04  0.00000000000E+00 0.  1.
    9000005    2    1    2  501    0  0.39416156001E+01  0.32655566585E+02 -0.87191364268E+03  0.87254001905E+03  0.32805789736E+01 0.  0.
         13    1    3    3    0    0  0.28481735293E+00  0.12172301049E+02 -0.29439441382E+03  0.29464608757E+03  0.00000000000E+00 0.  1.
          3    1    3    3  501    0  0.36567982471E+01  0.20483265536E+02 -0.57751922886E+03  0.57789393148E+03  0.00000000000E+00 0.  1.
         -3    1    1    2    0  502 -0.39416156001E+01 -0.32655566585E+02 -0.12565628816E+03  0.12989005011E+03  0.00000000000E+00 0. -1.
<mgrwt>
<rscale>  1 0.30000000E+03</rscale>
<asrwt>0</asrwt>
<pdfrwt beam="1">  1       21 0.88366338E-02 0.30000000E+03</pdfrwt>
<pdfrwt beam="2">0</pdfrwt>
<totfact> 0.10720144E+04</totfact>
</mgrwt>
</event>
<event>
 6    1  0.1284012E-001  0.3000000E+03  0.7818608E-02  0.1093470E+00
         21   -1    0    0  501  502  0.00000000000E+00  0.00000000000E+00  0.31908602179E+01  0.31908602179E+01  0.00000000000E+00 0. -1.
         13   -1    0    0    0    0 -0.00000000000E+00 -0.00000000000E+00 -0.10000000000E+04  0.10000000000E+04  0.00000000000E+00 0.  1.
    9000005    2    1    2  501    0 -0.43895708024E+02  0.33982417627E+02 -0.58956883303E+03  0.59218440609E+03  0.30535300502E+01 0.  0.
         13    1    3    3    0    0 -0.65789996532E+01  0.65296403417E+01 -0.97805111161E+02  0.98243367250E+02  0.00000000000E+00 0.  1.
          3    1    3    3  501    0 -0.37316708371E+02  0.27452777286E+02 -0.49176372187E+03  0.49394103884E+03  0.00000000000E+00 0.  1.
         -3    1    1    2    0  502  0.43895708024E+02 -0.33982417627E+02 -0.40724030675E+03  0.41100645412E+03  0.00000000000E+00 0. -1.
<mgrwt>
<rscale>  1 0.30000000E+03</rscale>
<asrwt>0</asrwt>
<pdfrwt beam="1">  1       21 0.11603153E-01 0.30000000E+03</pdfrwt>
<pdfrwt beam="2">0</pdfrwt>
<totfact> 0.65863890E+03</totfact>
</mgrwt>
</event>
<event>
 6    1  0.1284012E-001  0.3000000E+03  0.7818608E-02  0.1093470E+00
         21   -1    0    0  501  502  0.00000000000E+00  0.00000000000E+00  0.20057335149E+01  0.20057335149E+01  0.00000000000E+00 0. -1.
         13   -1    0    0    0    0 -0.00000000000E+00 -0.00000000000E+00 -0.10000000000E+04  0.10000000000E+04  0.00000000000E+00 0.  1.
    9000005    2    1    2  501    0 -0.39210962297E+02 -0.11174303531E+02 -0.70538379436E+03  0.70656834079E+03  0.31871986759E+01 0.  0.
         13    1    3    3    0    0 -0.14036759100E+02 -0.43533371023E+01 -0.28057092565E+03  0.28095555960E+03  0.00000000000E+00 0.  1.
          3    1    3    3  501    0 -0.25174203197E+02 -0.68209664290E+01 -0.42481286870E+03  0.42561278118E+03  0.00000000000E+00 0.  1.
         -1    1    1    2    0  502  0.39210962297E+02  0.11174303531E+02 -0.29261047213E+03  0.29543739273E+03  0.00000000000E+00 0. -1.
<mgrwt>
<rscale>  1 0.30000000E+03</rscale>
<asrwt>0</asrwt>
<pdfrwt beam="1">  1       21 0.72935918E-02 0.30000000E+03</pdfrwt>
<pdfrwt beam="2">0</pdfrwt>
<totfact> 0.15019955E+04</totfact>
</mgrwt>
</event>
<event>
 6    1  0.1284012E-001  0.3000000E+03  0.7818608E-02  0.1093470E+00
         21   -1    0    0  501  502  0.00000000000E+00  0.00000000000E+00  0.17890334410E+01  0.17890334410E+01  0.00000000000E+00 0. -1.
         13   -1    0    0    0    0 -0.00000000000E+00 -0.00000000000E+00 -0.10000000000E+04  0.10000000000E+04  0.00000000000E+00 0.  1.
    9000005    2    1    2  501    0  0.10316551040E+02 -0.38746699154E+02 -0.65666375357E+03  0.65789626437E+03  0.35315004014E+01 0.  0.
         13    1    3    3    0    0  0.54088494378E+01 -0.21676756623E+02 -0.33745731460E+03  0.33819606237E+03  0.00000000000E+00 0.  1.
          1    1    3    3  501    0  0.49077016017E+01 -0.17069942531E+02 -0.31920643897E+03  0.31970020199E+03  0.00000000000E+00 0.  1.
         -3    1    1    2    0  502 -0.10316551040E+02  0.38746699154E+02 -0.34154721299E+03  0.34389276908E+03  0.00000000000E+00 0. -1.
<mgrwt>
<rscale>  1 0.30000000E+03</rscale>
<asrwt>0</asrwt>
<pdfrwt beam="1">  1       21 0.65055899E-02 0.30000000E+03</pdfrwt>
<pdfrwt beam="2">0</pdfrwt>
<totfact> 0.18322754E+04</totfact>
</mgrwt>
</event>
<event>
 6    1  0.1284012E-001  0.3000000E+03  0.7818608E-02  0.1093470E+00
         21   -1    0    0  501  502  0.00000000000E+00  0.00000000000E+00  0.10163659043E+01  0.10163659043E+01  0.00000000000E+00 0. -1.
         13   -1    0    0    0    0 -0.00000000000E+00 -0.00000000000E+00 -0.10000000000E+04  0.10000000000E+04  0.00000000000E+00 0.  1.
    9000005    2    1    2  501    0 -0.27178550206E+02  0.14527671061E+02 -0.54626553177E+03  0.54725055958E+03  0.11287911254E+02 0.  0.
         13    1    3    3    0    0 -0.19015613175E+02  0.93413766819E+01 -0.45050841638E+03  0.45100630604E+03  0.00000000000E+00 0.  1.
          3    1    3    3  501    0 -0.81629370311E+01  0.51862943791E+01 -0.95757115394E+02  0.96244253537E+02  0.00000000000E+00 0.  1.
         -1    1    1    2    0  502  0.27178550206E+02 -0.14527671061E+02 -0.45271810233E+03  0.45376580633E+03  0.00000000000E+00 0. -1.
<mgrwt>
<rscale>  1 0.30000000E+03</rscale>
<asrwt>0</asrwt>
<pdfrwt beam="1">  1       21 0.36958838E-02 0.30000000E+03</pdfrwt>
<pdfrwt beam="2">0</pdfrwt>
<totfact> 0.48025078E+04</totfact>
</mgrwt>
</event>
<event>
 6    1  0.1284012E-001  0.3000000E+03  0.7818608E-02  0.1093470E+00
         21   -1    0    0  501  502  0.00000000000E+00  0.00000000000E+00  0.19067598496E+01  0.19067598496E+01  0.00000000000E+00 0. -1.
         13   -1    0    0    0    0 -0.00000000000E+00 -0.00000000000E+00 -0.10000000000E+04  0.10000000000E+04  0.00000000000E+00 0.  1.
    9000005    2    1    2  501    0 -0.34269705282E+02  0.51971941925E+01 -0.80329201786E+03  0.80404584978E+03  0.31998537598E+01 0.  0.
         13    1    3    3    0    0 -0.10047581981E+01  0.61883259452E+00 -0.20448951080E+02  0.20482970807E+02  0.00000000000E+00 0.  1.
          1    1    3    3  501    0 -0.33264947084E+02  0.45783615980E+01 -0.78284306678E+03  0.78356287897E+03  0.00000000000E+00 0.  1.
         -3    1    1    2    0  502  0.34269705282E+02 -0.51971941925E+01 -0.19480122230E+03  0.19786091007E+03  0.00000000000E+00 0. -1.
<mgrwt>
<rscale>  1 0.30000000E+03</rscale>
<asrwt>0</asrwt>
<pdfrwt beam="1">  1       21 0.69336868E-02 0.30000000E+03</pdfrwt>
<pdfrwt beam="2">0</pdfrwt>
<totfact> 0.16404695E+04</totfact>
</mgrwt>
</event>
<event>
 6    1  0.1284012E-001  0.3000000E+03  0.7818608E-02  0.1093470E+00
         21   -1    0    0  501  502  0.00000000000E+00  0.00000000000E+00  0.22640237636E+01  0.22640237636E+01  0.00000000000E+00 0. -1.
         13   -1    0    0    0    0 -0.00000000000E+00 -0.00000000000E+00 -0.10000000000E+04  0.10000000000E+04  0.00000000000E+00 0.  1.
    9000005    2    1    2  501    0  0.78586584946E+01 -0.45491481024E+02 -0.60908365570E+03  0.61087948189E+03  0.77206472875E+01 0.  0.
         13    1    3    3    0    0 -0.86716182626E+00 -0.29450341373E+01 -0.26028570354E+02  0.26208999798E+02  0.00000000000E+00 0.  1.
          3    1    3    3  501    0  0.87258203209E+01 -0.42546446887E+02 -0.58305508535E+03  0.58467048209E+03  0.00000000000E+00 0.  1.
         -3    1    1    2    0  502 -0.78586584946E+01  0.45491481024E+02 -0.38865232053E+03  0.39138454187E+03  0.00000000000E+00 0. -1.
<mgrwt>
<rscale>  1 0.30000000E+03</rscale>
<asrwt>0</asrwt>
<pdfrwt beam="1">  1       21 0.82328310E-02 0.30000000E+03</pdfrwt>
<pdfrwt beam="2">0</pdfrwt>
<totfact> 0.12145621E+04</totfact>
</mgrwt>
</event>
<event>
 6    1  0.1284012E-001  0.3000000E+03  0.7818608E-02  0.1093470E+00
         21   -1    0    0  501  502  0.00000000000E+00  0.00000000000E+00  0.10911418141E+01  0.10911418141E+01  0.00000000000E+00 0. -1.
         13   -1    0    0    0    0 -0.00000000000E+00 -0.00000000000E+00 -0.10000000000E+04  0.10000000000E+04  0.00000000000E+00 0.  1.
    9000005    2    1    2  501    0 -0.27126193678E+02 -0.16498924489E+02 -0.63301143280E+03  0.63381880308E+03  0.38413791339E+01 0.  0.
         13    1    3    3    0    0 -0.19293591029E+02 -0.97184018104E+01 -0.43779194564E+03  0.43832462588E+03  0.00000000000E+00 0.  1.
          1    1    3    3  501    0 -0.78326026495E+01 -0.67805226785E+01 -0.19521948716E+03  0.19549417720E+03  0.00000000000E+00 0.  1.
         -3    1    1    2    0  502  0.27126193678E+02  0.16498924489E+02 -0.36589742539E+03  0.36727233874E+03  0.00000000000E+00 0. -1.
<mgrwt>
<rscale>  1 0.30000000E+03</rscale>
<asrwt>0</asrwt>
<pdfrwt beam="1">  1       21 0.39677968E-02 0.30000000E+03</pdfrwt>
<pdfrwt beam="2">0</pdfrwt>
<totfact> 0.42623497E+04</totfact>
</mgrwt>
</event>
<event>
 6    1  0.1284012E-001  0.3000000E+03  0.7818608E-02  0.1093470E+00
         21   -1    0    0  501  502  0.00000000000E+00  0.00000000000E+00  0.96499691279E+00  0.96499691279E+00  0.00000000000E+00 0. -1.
         13   -1    0    0    0    0 -0.00000000000E+00 -0.00000000000E+00 -0.10000000000E+04  0.10000000000E+04  0.00000000000E+00 0.  1.
    9000005    2    1    2  501    0  0.28236203326E+02  0.10938487250E+02 -0.60602321044E+03  0.60678838315E+03  0.33281595874E+01 0.  0.
         13    1    3    3    0    0  0.24003488187E+02  0.10485397659E+02 -0.52718676645E+03  0.52783709394E+03  0.00000000000E+00 0.  1.
          3    1    3    3  501    0  0.42327151387E+01  0.45308959164E+00 -0.78836443986E+02  0.78951289210E+02  0.00000000000E+00 0.  1.
         -1    1    1    2    0  502 -0.28236203326E+02 -0.10938487250E+02 -0.39301179265E+03  0.39417661377E+03  0.00000000000E+00 0. -1.
<mgrwt>
<rscale>  1 0.30000000E+03</rscale>
<asrwt>0</asrwt>
<pdfrwt beam="1">  1       21 0.35090871E-02 0.30000000E+03</pdfrwt>
<pdfrwt beam="2">0</pdfrwt>
<totfact> 0.52388829E+04</totfact>
</mgrwt>
</event>
<event>
 6    1  0.1284012E-001  0.3000000E+03  0.7818608E-02  0.1093470E+00
         21   -1    0    0  501  502  0.00000000000E+00  0.00000000000E+00  0.10791430682E+01  0.10791430682E+01  0.00000000000E+00 0. -1.
         13   -1    0    0    0    0 -0.00000000000E+00 -0.00000000000E+00 -0.10000000000E+04  0.10000000000E+04  0.00000000000E+00 0.  1.
    9000005    2    1    2  501    0 -0.22839693198E+02  0.19847340353E+02 -0.69265927094E+03  0.69332643787E+03  0.30191591148E+01 0.  0.
         13    1    3    3    0    0 -0.15020333097E+02  0.12199016992E+02 -0.41212447104E+03  0.41257848472E+03  0.00000000000E+00 0.  1.
          1    1    3    3  501    0 -0.78193601017E+01  0.76483233606E+01 -0.28053479990E+03  0.28074795315E+03  0.00000000000E+00 0.  1.
         -1    1    1    2    0  502  0.22839693198E+02 -0.19847340353E+02 -0.30626158599E+03  0.30775270520E+03  0.00000000000E+00 0. -1.
<mgrwt>
<rscale>  1 0.30000000E+03</rscale>
<asrwt>0</asrwt>
<pdfrwt beam="1">  1       21 0.39241649E-02 0.30000000E+03</pdfrwt>
<pdfrwt beam="2">0</pdfrwt>
<totfact> 0.43424088E+04</totfact>
</mgrwt>
</event>
<event>
 6    1  0.1284012E-001  0.3000000E+03  0.7818608E-02  0.1093470E+00
         21   -1    0    0  501  502  0.00000000000E+00  0.00000000000E+00  0.15271461188E+01  0.15271461188E+01  0.00000000000E+00 0. -1.
         13   -1    0    0    0    0 -0.00000000000E+00 -0.00000000000E+00 -0.10000000000E+04  0.10000000000E+04  0.00000000000E+00 0.  1.
    9000005    2    1    2  501    0 -0.37275961975E+02  0.14425059188E+01 -0.64646107354E+03  0.64754427696E+03  0.31769240476E+01 0.  0.
         13    1    3    3    0    0 -0.29961410847E+02  0.16791466137E+01 -0.49862589955E+03  0.49952807065E+03  0.00000000000E+00 0.  1.
          1    1    3    3  501    0 -0.73145511275E+01 -0.23664069490E+00 -0.14783517400E+03  0.14801620630E+03  0.00000000000E+00 0.  1.
         -1    1    1    2    0  502  0.37275961975E+02 -0.14425059188E+01 -0.35201178034E+03  0.35398286916E+03  0.00000000000E+00 0. -1.
<mgrwt>
<rscale>  1 0.30000000E+03</rscale>
<asrwt>0</asrwt>
<pdfrwt beam="1">  1       21 0.55532703E-02 0.30000000E+03</pdfrwt>
<pdfrwt beam="2">0</pdfrwt>
<totfact> 0.24072831E+04</totfact>
</mgrwt>
</event>
<event>
 6    1  0.1284012E-001  0.3000000E+03  0.7818608E-02  0.1093470E+00
         21   -1    0    0  501  502  0.00000000000E+00  0.00000000000E+00  0.17761191148E+01  0.17761191148E+01  0.00000000000E+00 0. -1.
         13   -1    0    0    0    0 -0.00000000000E+00 -0.00000000000E+00 -0.10000000000E+04  0.10000000000E+04  0.00000000000E+00 0.  1.
    9000005    2    1    2  501    0  0.41509841584E+02 -0.44334721205E+01 -0.56342943658E+03  0.56498219583E+03  0.30706631386E+01 0.  0.
         13    1    3    3    0    0  0.52176235289E+01  0.99310008486E-02 -0.59733417540E+02  0.59960861108E+02  0.00000000000E+00 0.  1.
          1    1    3    3  501    0  0.36292218055E+02 -0.44434031214E+01 -0.50369601904E+03  0.50502133472E+03  0.00000000000E+00 0.  1.
         -1    1    1    2    0  502 -0.41509841584E+02  0.44334721205E+01 -0.43479444430E+03  0.43679392329E+03  0.00000000000E+00 0. -1.
<mgrwt>
<rscale>  1 0.30000000E+03</rscale>
<asrwt>0</asrwt>
<pdfrwt beam="1">  1       21 0.64586286E-02 0.30000000E+03</pdfrwt>
<pdfrwt beam="2">0</pdfrwt>
<totfact> 0.18553997E+04</totfact>
</mgrwt>
</event>
<event>
 6    1  0.1284012E-001  0.3000000E+03  0.7818608E-02  0.1093470E+00
         21   -1    0    0  501  502  0.00000000000E+00  0.00000000000E+00  0.18266603197E+01  0.18266603197E+01  0.00000000000E+00 0. -1.
         13   -1    0    0    0    0 -0.00000000000E+00 -0.00000000000E+00 -0.10000000000E+04  0.10000000000E+04  0.00000000000E+00 0.  1.
    9000005    2    1    2  501    0  0.41727299283E+02  0.52537899846E+01 -0.41581897968E+03  0.41795563824E+03  0.35667714649E+01 0.  0.
         13    1    3    3    0    0  0.28633749619E+02  0.25052484125E+01 -0.29583243416E+03  0.29722549855E+03  0.00000000000E+00 0.  1.
          3    1    3    3  501    0  0.13093549665E+02  0.27485415721E+01 -0.11998654552E+03  0.12073013969E+03  0.00000000000E+00 0.  1.
         -1    1    1    2    0  502 -0.41727299283E+02 -0.52537899846E+01 -0.58235436000E+03  0.58387102208E+03  0.00000000000E+00 0. -1.
<mgrwt>
<rscale>  1 0.30000000E+03</rscale>
<asrwt>0</asrwt>
<pdfrwt beam="1">  1       21 0.66424152E-02 0.30000000E+03</pdfrwt>
<pdfrwt beam="2">0</pdfrwt>
<totfact> 0.17673777E+04</totfact>
</mgrwt>
</event>
<event>
 6    1  0.1284012E-001  0.3000000E+03  0.7818608E-02  0.1093470E+00
         21   -1    0    0  501  502  0.00000000000E+00  0.00000000000E+00  0.10401011179E+01  0.10401011179E+01  0.00000000000E+00 0. -1.
         13   -1    0    0    0    0 -0.00000000000E+00 -0.00000000000E+00 -0.10000000000E+04  0.10000000000E+04  0.00000000000E+00 0.  1.
    9000005    2    1    2  501    0 -0.38760788775E+01  0.29861102983E+02 -0.67198699743E+03  0.67268360622E+03  0.54772165253E+01 0.  0.
         13    1    3    3    0    0  0.54616713306E+00  0.89991564072E+01 -0.16162663770E+03  0.16187789574E+03  0.00000000000E+00 0.  1.
          1    1    3    3  501    0 -0.44222460106E+01  0.20861946576E+02 -0.51036035973E+03  0.51080571048E+03  0.00000000000E+00 0.  1.
         -3    1    1    2    0  502  0.38760788775E+01 -0.29861102983E+02 -0.32697290145E+03  0.32835649490E+03  0.00000000000E+00 0. -1.
<mgrwt>
<rscale>  1 0.30000000E+03</rscale>
<asrwt>0</asrwt>
<pdfrwt beam="1">  1       21 0.37821939E-02 0.30000000E+03</pdfrwt>
<pdfrwt beam="2">0</pdfrwt>
<totfact> 0.46199187E+04</totfact>
</mgrwt>
</event>
<event>
 6    1  0.1284012E-001  0.3000000E+03  0.7818608E-02  0.1093470E+00
         21   -1    0    0  501  502  0.00000000000E+00  0.00000000000E+00  0.21734834371E+01  0.21734834371E+01  0.00000000000E+00 0. -1.
         13   -1    0    0    0    0 -0.00000000000E+00 -0.00000000000E+00 -0.10000000000E+04  0.10000000000E+04  0.00000000000E+00 0.  1.
    9000005    2    1    2  501    0 -0.17264843407E+02  0.43009327773E+02 -0.53345708853E+03  0.53549710437E+03  0.57276859118E+01 0.  0.
         13    1    3    3    0    0 -0.65874006867E+01  0.23368638701E+02 -0.26380911866E+03  0.26492402347E+03  0.00000000000E+00 0.  1.
          3    1    3    3  501    0 -0.10677442720E+02  0.19640689072E+02 -0.26964796987E+03  0.27057308089E+03  0.00000000000E+00 0.  1.
         -3    1    1    2    0  502  0.17264843407E+02 -0.43009327773E+02 -0.46436942803E+03  0.46667637907E+03  0.00000000000E+00 0. -1.
<mgrwt>
<rscale>  1 0.30000000E+03</rscale>
<asrwt>0</asrwt>
<pdfrwt beam="1">  1       21 0.79035928E-02 0.30000000E+03</pdfrwt>
<pdfrwt beam="2">0</pdfrwt>
<totfact> 0.13048718E+04</totfact>
</mgrwt>
</event>
<event>
 6    1  0.1284012E-001  0.3000000E+03  0.7818608E-02  0.1093470E+00
         21   -1    0    0  501  502  0.00000000000E+00  0.00000000000E+00  0.18381261593E+01  0.18381261593E+01  0.00000000000E+00 0. -1.
         13   -1    0    0    0    0 -0.00000000000E+00 -0.00000000000E+00 -0.10000000000E+04  0.10000000000E+04  0.00000000000E+00 0.  1.
    9000005    2    1    2  501    0  0.60702554244E+01  0.30471203983E+02 -0.15580077962E+03  0.15890422879E+03  0.33658171146E+01 0.  0.
         13    1    3    3    0    0  0.86782732589E+00  0.75900503625E+01 -0.31998358621E+02  0.32897673827E+02  0.00000000000E+00 0.  1.
          3    1    3    3  501    0  0.52024280986E+01  0.22881153620E+02 -0.12380242100E+03  0.12600655496E+03  0.00000000000E+00 0.  1.
         -3    1    1    2    0  502 -0.60702554244E+01 -0.30471203983E+02 -0.84236109422E+03  0.84293389737E+03  0.00000000000E+00 0. -1.
<mgrwt>
<rscale>  1 0.30000000E+03</rscale>
<asrwt>0</asrwt>
<pdfrwt beam="1">  1       21 0.66841092E-02 0.30000000E+03</pdfrwt>
<pdfrwt beam="2">0</pdfrwt>
<totfact> 0.17483043E+04</totfact>
</mgrwt>
</event>
<event>
 6    1  0.1284012E-001  0.3000000E+03  0.7818608E-02  0.1093470E+00
         21   -1    0    0  501  502  0.00000000000E+00  0.00000000000E+00  0.10949103247E+01  0.10949103247E+01  0.00000000000E+00 0. -1.
         13   -1    0    0    0    0 -0.00000000000E+00 -0.00000000000E+00 -0.10000000000E+04  0.10000000000E+04  0.00000000000E+00 0.  1.
    9000005    2    1    2  501    0 -0.15974508900E+02  0.26362702563E+02 -0.67888796705E+03  0.67959664315E+03  0.35423944658E+01 0.  0.
         13    1    3    3    0    0 -0.71125011664E+01  0.12781713165E+02 -0.28527411881E+03  0.28564888015E+03  0.00000000000E+00 0.  1.
          3    1    3    3  501    0 -0.88620077337E+01  0.13580989398E+02 -0.39361384824E+03  0.39394776301E+03  0.00000000000E+00 0.  1.
         -1    1    1    2    0  502  0.15974508900E+02 -0.26362702563E+02 -0.32001712263E+03  0.32149826717E+03  0.00000000000E+00 0. -1.
<mgrwt>
<rscale>  1 0.30000000E+03</rscale>
<asrwt>0</asrwt>
<pdfrwt beam="1">  1       21 0.39815005E-02 0.30000000E+03</pdfrwt>
<pdfrwt beam="2">0</pdfrwt>
<totfact> 0.42376812E+04</totfact>
</mgrwt>
</event>
<event>
 6    1  0.1284012E-001  0.3000000E+03  0.7818608E-02  0.1093470E+00
         21   -1    0    0  501  502  0.00000000000E+00  0.00000000000E+00  0.10521452847E+01  0.10521452847E+01  0.00000000000E+00 0. -1.
         13   -1    0    0    0    0 -0.00000000000E+00 -0.00000000000E+00 -0.10000000000E+04  0.10000000000E+04  0.00000000000E+00 0.  1.
    9000005    2    1    2  501    0 -0.23687180006E+02 -0.20546025235E+02 -0.62379851941E+03  0.62459465043E+03  0.32654069476E+01 0.  0.
         13    1    3    3    0    0 -0.15247153163E+02 -0.14550885800E+02 -0.44071014920E+03  0.44121382522E+03  0.00000000000E+00 0.  1.
          1    1    3    3  501    0 -0.84400268427E+01 -0.59951394346E+01 -0.18308837020E+03  0.18338082521E+03  0.00000000000E+00 0.  1.
         -3    1    1    2    0  502  0.23687180006E+02  0.20546025235E+02 -0.37514933531E+03  0.37645749485E+03  0.00000000000E+00 0. -1.
<mgrwt>
<rscale>  1 0.30000000E+03</rscale>
<asrwt>0</asrwt>
<pdfrwt beam="1">  1       21 0.38259909E-02 0.30000000E+03</pdfrwt>
<pdfrwt beam="2">0</pdfrwt>
<totfact> 0.45314063E+04</totfact>
</mgrwt>
</event>
<event>
 6    1  0.1284012E-001  0.3000000E+03  0.7818608E-02  0.1093470E+00
         21   -1    0    0  501  502  0.00000000000E+00  0.00000000000E+00  0.17293301302E+01  0.17293301302E+01  0.00000000000E+00 0. -1.
         13   -1    0    0    0    0 -0.00000000000E+00 -0.00000000000E+00 -0.10000000000E+04  0.10000000000E+04  0.00000000000E+00 0.  1.
    9000005    2    1    2  501    0 -0.29634178506E+02  0.61855277216E+01 -0.84207818033E+03  0.84263018155E+03  0.36763826437E+01 0.  0.
         13    1    3    3    0    0 -0.11619865393E+01  0.81071213262E+00 -0.56680156272E+02  0.56697862234E+02  0.00000000000E+00 0.  1.
          3    1    3    3  501    0 -0.28472191967E+02  0.53748155889E+01 -0.78539802405E+03  0.78593231932E+03  0.00000000000E+00 0.  1.
         -3    1    1    2    0  502  0.29634178506E+02 -0.61855277216E+01 -0.15619248954E+03  0.15909914858E+03  0.00000000000E+00 0. -1.
<mgrwt>
<rscale>  1 0.30000000E+03</rscale>
<asrwt>0</asrwt>
<pdfrwt beam="1">  1       21 0.62884865E-02 0.30000000E+03</pdfrwt>
<pdfrwt beam="2">0</pdfrwt>
<totfact> 0.19430745E+04</totfact>
</mgrwt>
</event>
<event>
 6    1  0.1284012E-001  0.3000000E+03  0.7818608E-02  0.1093470E+00
         21   -1    0    0  501  502  0.00000000000E+00  0.00000000000E+00  0.24827990924E+01  0.24827990924E+01  0.00000000000E+00 0. -1.
         13   -1    0    0    0    0 -0.00000000000E+00 -0.00000000000E+00 -0.10000000000E+04  0.10000000000E+04  0.00000000000E+00 0.  1.
    9000005    2    1    2  501    0 -0.30599906991E+02 -0.37347519630E+02 -0.37771537499E+03  0.38080322332E+03  0.33164516177E+01 0.  0.
         13    1    3    3    0    0 -0.90584019752E+00 -0.19122257447E+01 -0.20369130121E+02  0.20478735695E+02  0.00000000000E+00 0.  1.
          1    1    3    3  501    0 -0.29694066794E+02 -0.35435293885E+02 -0.35734624487E+03  0.36032448762E+03  0.00000000000E+00 0.  1.
         -1    1    1    2    0  502  0.30599906991E+02  0.37347519630E+02 -0.61980182592E+03  0.62167957578E+03  0.00000000000E+00 0. -1.
<mgrwt>
<rscale>  1 0.30000000E+03</rscale>
<asrwt>0</asrwt>
<pdfrwt beam="1">  1       21 0.90283794E-02 0.30000000E+03</pdfrwt>
<pdfrwt beam="2">0</pdfrwt>
<totfact> 0.10320356E+04</totfact>
</mgrwt>
</event>
<event>
 6    1  0.1284012E-001  0.3000000E+03  0.7818608E-02  0.1093470E+00
         21   -1    0    0  501  502  0.00000000000E+00  0.00000000000E+00  0.28882431322E+01  0.28882431322E+01  0.00000000000E+00 0. -1.
         13   -1    0    0    0    0 -0.00000000000E+00 -0.00000000000E+00 -0.10000000000E+04  0.10000000000E+04  0.00000000000E+00 0.  1.
    9000005    2    1    2  501    0  0.15564570532E+02  0.41587474138E+02 -0.78042546920E+03  0.78169890993E+03  0.41831736719E+01 0.  0.
         13    1    3    3    0    0  0.15340100904E+02  0.40288101420E+02 -0.74241114272E+03  0.74366172057E+03  0.00000000000E+00 0.  1.
          3    1    3    3  501    0  0.22446962771E+00  0.12993727184E+01 -0.38014326490E+02  0.38037189362E+02  0.00000000000E+00 0.  1.
         -1    1    1    2    0  502 -0.15564570532E+02 -0.41587474138E+02 -0.21668628766E+03  0.22118933320E+03  0.00000000000E+00 0. -1.
<mgrwt>
<rscale>  1 0.30000000E+03</rscale>
<asrwt>0</asrwt>
<pdfrwt beam="1">  1       21 0.10502724E-01 0.30000000E+03</pdfrwt>
<pdfrwt beam="2">0</pdfrwt>
<totfact> 0.78802031E+03</totfact>
</mgrwt>
</event>
<event>
 6    1  0.1284012E-001  0.3000000E+03  0.7818608E-02  0.1093470E+00
         21   -1    0    0  501  502  0.00000000000E+00  0.00000000000E+00  0.47843988492E+01  0.47843988492E+01  0.00000000000E+00 0. -1.
         13   -1    0    0    0    0 -0.00000000000E+00 -0.00000000000E+00 -0.10000000000E+04  0.10000000000E+04  0.00000000000E+00 0.  1.
    9000005    2    1    2  501    0 -0.41954670767E+02 -0.11929418745E+01 -0.89684502650E+03  0.89783400163E+03  0.36435428414E+01 0.  0.
         13    1    3    3    0    0 -0.25801014233E+02  0.79127849251E+00 -0.56919466594E+03  0.56977968215E+03  0.00000000000E+00 0.  1.
          1    1    3    3  501    0 -0.16153656534E+02 -0.19842203670E+01 -0.32765036056E+03  0.32805431948E+03  0.00000000000E+00 0.  1.
         -1    1    1    2    0  502  0.41954670767E+02  0.11929418745E+01 -0.98370574647E+02  0.10695039722E+03  0.00000000000E+00 0. -1.
<mgrwt>
<rscale>  1 0.30000000E+03</rscale>
<asrwt>0</asrwt>
<pdfrwt beam="1">  1       21 0.17397851E-01 0.30000000E+03</pdfrwt>
<pdfrwt beam="2">0</pdfrwt>
<totfact> 0.31230826E+03</totfact>
</mgrwt>
</event>
<event>
 6    1  0.1284012E-001  0.3000000E+03  0.7818608E-02  0.1093470E+00
         21   -1    0    0  501  502  0.00000000000E+00  0.00000000000E+00  0.76009159025E+01  0.76009159025E+01  0.00000000000E+00 0. -1.
         13   -1    0    0    0    0 -0.00000000000E+00 -0.00000000000E+00 -0.10000000000E+04  0.10000000000E+04  0.00000000000E+00 0.  1.
    9000005    2    1    2  501    0  0.63557481388E+02  0.45510441647E+02 -0.27382595704E+03  0.28478828965E+03  0.36001991805E+01 0.  0.
         13    1    3    3    0    0  0.42508779591E+02  0.29694847223E+02 -0.18731880833E+03  0.19436336139E+03  0.00000000000E+00 0.  1.
          3    1    3    3  501    0  0.21048701797E+02  0.15815594425E+02 -0.86507148703E+02  0.90424928261E+02  0.00000000000E+00 0.  1.
         -1    1    1    2    0  502 -0.63557481388E+02 -0.45510441647E+02 -0.71857312706E+03  0.72281262626E+03  0.00000000000E+00 0. -1.
<mgrwt>
<rscale>  1 0.30000000E+03</rscale>
<asrwt>0</asrwt>
<pdfrwt beam="1">  1       21 0.27639752E-01 0.30000000E+03</pdfrwt>
<pdfrwt beam="2">0</pdfrwt>
<totfact> 0.12798181E+03</totfact>
</mgrwt>
</event>
<event>
 6    1  0.1284012E-001  0.3000000E+03  0.7818608E-02  0.1093470E+00
         21   -1    0    0  501  502  0.00000000000E+00  0.00000000000E+00  0.29336724350E+01  0.29336724350E+01  0.00000000000E+00 0. -1.
         13   -1    0    0    0    0 -0.00000000000E+00 -0.00000000000E+00 -0.10000000000E+04  0.10000000000E+04  0.00000000000E+00 0.  1.
    9000005    2    1    2  501    0 -0.32805041140E+02 -0.16907163259E+02 -0.86482264681E+03  0.86563686259E+03  0.68516091316E+01 0.  0.
         13    1    3    3    0    0 -0.81941395225E+01 -0.74021273905E+01 -0.28659768606E+03  0.28681033640E+03  0.00000000000E+00 0.  1.
          3    1    3    3  501    0 -0.24610901617E+02 -0.95050358683E+01 -0.57822496075E+03  0.57882652619E+03  0.00000000000E+00 0.  1.
         -1    1    1    2    0  502  0.32805041140E+02  0.16907163259E+02 -0.13224368075E+03  0.13729680984E+03  0.00000000000E+00 0. -1.
<mgrwt>
<rscale>  1 0.30000000E+03</rscale>
<asrwt>0</asrwt>
<pdfrwt beam="1">  1       21 0.10667922E-01 0.30000000E+03</pdfrwt>
<pdfrwt beam="2">0</pdfrwt>
<totfact> 0.76626760E+03</totfact>
</mgrwt>
</event>
<event>
 6    1  0.1284012E-001  0.3000000E+03  0.7818608E-02  0.1093470E+00
         21   -1    0    0  501  502  0.00000000000E+00  0.00000000000E+00  0.24925608330E+01  0.24925608330E+01  0.00000000000E+00 0. -1.
         13   -1    0    0    0    0 -0.00000000000E+00 -0.00000000000E+00 -0.10000000000E+04  0.10000000000E+04  0.00000000000E+00 0.  1.
    9000005    2    1    2  501    0  0.31802785229E+02  0.68127943148E+01 -0.87849909552E+03  0.87911988488E+03  0.57688685222E+01 0.  0.
         13    1    3    3    0    0  0.19627192992E+02  0.67088855000E+01 -0.58797613135E+03  0.58834187925E+03  0.00000000000E+00 0.  1.
          1    1    3    3  501    0  0.12175592237E+02  0.10390881475E+00 -0.29052296417E+03  0.29077800563E+03  0.00000000000E+00 0.  1.
         -3    1    1    2    0  502 -0.31802785229E+02 -0.68127943148E+01 -0.11900834365E+03  0.12337267596E+03  0.00000000000E+00 0. -1.
<mgrwt>
<rscale>  1 0.30000000E+03</rscale>
<asrwt>0</asrwt>
<pdfrwt beam="1">  1       21 0.90638767E-02 0.30000000E+03</pdfrwt>
<pdfrwt beam="2">0</pdfrwt>
<totfact> 0.10248824E+04</totfact>
</mgrwt>
</event>
<event>
 6    1  0.1284012E-001  0.3000000E+03  0.7818608E-02  0.1093470E+00
         21   -1    0    0  501  502  0.00000000000E+00  0.00000000000E+00  0.19454763313E+01  0.19454763313E+01  0.00000000000E+00 0. -1.
         13   -1    0    0    0    0 -0.00000000000E+00 -0.00000000000E+00 -0.10000000000E+04  0.10000000000E+04  0.00000000000E+00 0.  1.
    9000005    2    1    2  501    0  0.24623624816E+02 -0.31686153307E+02 -0.70579852181E+03  0.70694733085E+03  0.35552787462E+01 0.  0.
         13    1    3    3    0    0  0.89683260398E+00 -0.15270517917E+01 -0.45765885912E+02  0.45800136563E+02  0.00000000000E+00 0.  1.
          3    1    3    3  501    0  0.23726792212E+02 -0.30159101516E+02 -0.66003263589E+03  0.66114719429E+03  0.00000000000E+00 0.  1.
         -1    1    1    2    0  502 -0.24623624816E+02  0.31686153307E+02 -0.29225600186E+03  0.29499814548E+03  0.00000000000E+00 0. -1.
<mgrwt>
<rscale>  1 0.30000000E+03</rscale>
<asrwt>0</asrwt>
<pdfrwt beam="1">  1       21 0.70744743E-02 0.30000000E+03</pdfrwt>
<pdfrwt beam="2">0</pdfrwt>
<totfact> 0.15840702E+04</totfact>
</mgrwt>
</event>
<event>
 6    1  0.1284012E-001  0.3000000E+03  0.7818608E-02  0.1093470E+00
         21   -1    0    0  501  502  0.00000000000E+00  0.00000000000E+00  0.17945787623E+01  0.17945787623E+01  0.00000000000E+00 0. -1.
         13   -1    0    0    0    0 -0.00000000000E+00 -0.00000000000E+00 -0.10000000000E+04  0.10000000000E+04  0.00000000000E+00 0.  1.
    9000005    2    1    2  501    0 -0.12571771245E+02 -0.30859589129E+02 -0.80810535333E+03  0.80879613449E+03  0.25615249325E+01 0.  0.
         13    1    3    3    0    0 -0.35435977155E+01 -0.11451347919E+02 -0.30616517907E+03  0.30639975087E+03  0.00000000000E+00 0.  1.
          3    1    3    3  501    0 -0.90281735299E+01 -0.19408241211E+02 -0.50194017426E+03  0.50239638362E+03  0.00000000000E+00 0.  1.
         -1    1    1    2    0  502  0.12571771245E+02  0.30859589129E+02 -0.19010006790E+03  0.19299844427E+03  0.00000000000E+00 0. -1.
<mgrwt>
<rscale>  1 0.30000000E+03</rscale>
<asrwt>0</asrwt>
<pdfrwt beam="1">  1       21 0.65257547E-02 0.30000000E+03</pdfrwt>
<pdfrwt beam="2">0</pdfrwt>
<totfact> 0.18224823E+04</totfact>
</mgrwt>
</event>
<event>
 6    1  0.1284012E-001  0.3000000E+03  0.7818608E-02  0.1093470E+00
         21   -1    0    0  501  502  0.00000000000E+00  0.00000000000E+00  0.24629656421E+01  0.24629656421E+01  0.00000000000E+00 0. -1.
         13   -1    0    0    0    0 -0.00000000000E+00 -0.00000000000E+00 -0.10000000000E+04  0.10000000000E+04  0.00000000000E+00 0.  1.
    9000005    2    1    2  501    0 -0.38033140876E+02  0.49248134893E+01 -0.81658179509E+03  0.81748844791E+03  0.32803652907E+01 0.  0.
         13    1    3    3    0    0 -0.17010423301E+02  0.72189465435E+00 -0.34652113375E+03  0.34693914706E+03  0.00000000000E+00 0.  1.
          1    1    3    3  501    0 -0.21022717575E+02  0.42029188350E+01 -0.47006066134E+03  0.47054930084E+03  0.00000000000E+00 0.  1.
         -1    1    1    2    0  502  0.38033140876E+02 -0.49248134893E+01 -0.18095523927E+03  0.18497451773E+03  0.00000000000E+00 0. -1.
<mgrwt>
<rscale>  1 0.30000000E+03</rscale>
<asrwt>0</asrwt>
<pdfrwt beam="1">  1       21 0.89562576E-02 0.30000000E+03</pdfrwt>
<pdfrwt beam="2">0</pdfrwt>
<totfact> 0.10468038E+04</totfact>
</mgrwt>
</event>
<event>
 6    1  0.1284012E-001  0.3000000E+03  0.7818608E-02  0.1093470E+00
         21   -1    0    0  501  502  0.00000000000E+00  0.00000000000E+00  0.56505452939E+01  0.56505452939E+01  0.00000000000E+00 0. -1.
         13   -1    0    0    0    0 -0.00000000000E+00 -0.00000000000E+00 -0.10000000000E+04  0.10000000000E+04  0.00000000000E+00 0.  1.
    9000005    2    1    2  501    0 -0.36474654810E+02  0.47740809685E+02 -0.79898630237E+03  0.80125791665E+03  0.50549251389E+01 0.  0.
         13    1    3    3    0    0 -0.27922397510E+00 -0.67116180806E-01 -0.22451678490E+01  0.22634595822E+01  0.00000000000E+00 0.  1.
          3    1    3    3  501    0 -0.36195430835E+02  0.47807925866E+02 -0.79674113452E+03  0.79899445707E+03  0.00000000000E+00 0.  1.
         -1    1    1    2    0  502  0.36474654810E+02 -0.47740809685E+02 -0.19536315234E+03  0.20439262864E+03  0.00000000000E+00 0. -1.
<mgrwt>
<rscale>  1 0.30000000E+03</rscale>
<asrwt>0</asrwt>
<pdfrwt beam="1">  1       21 0.20547481E-01 0.30000000E+03</pdfrwt>
<pdfrwt beam="2">0</pdfrwt>
<totfact> 0.22785241E+03</totfact>
</mgrwt>
</event>
<event>
 6    1  0.1284012E-001  0.3000000E+03  0.7818608E-02  0.1093470E+00
         21   -1    0    0  501  502  0.00000000000E+00  0.00000000000E+00  0.20249363064E+01  0.20249363064E+01  0.00000000000E+00 0. -1.
         13   -1    0    0    0    0 -0.00000000000E+00 -0.00000000000E+00 -0.10000000000E+04  0.10000000000E+04  0.00000000000E+00 0.  1.
    9000005    2    1    2  501    0 -0.27193005299E+02  0.32556009990E+02 -0.33505943437E+03  0.33775354228E+03  0.36438217591E+01 0.  0.
         13    1    3    3    0    0 -0.11595663068E+02  0.16305261364E+02 -0.16514398316E+03  0.16635160391E+03  0.00000000000E+00 0.  1.
          1    1    3    3  501    0 -0.15597342231E+02  0.16250748627E+02 -0.16991545121E+03  0.17140193837E+03  0.00000000000E+00 0.  1.
         -3    1    1    2    0  502  0.27193005299E+02 -0.32556009990E+02 -0.66291562932E+03  0.66427139403E+03  0.00000000000E+00 0. -1.
<mgrwt>
<rscale>  1 0.30000000E+03</rscale>
<asrwt>0</asrwt>
<pdfrwt beam="1">  1       21 0.73634203E-02 0.30000000E+03</pdfrwt>
<pdfrwt beam="2">0</pdfrwt>
<totfact> 0.14771940E+04</totfact>
</mgrwt>
</event>
<event>
 6    1  0.1284012E-001  0.3000000E+03  0.7818608E-02  0.1093470E+00
         21   -1    0    0  501  502  0.00000000000E+00  0.00000000000E+00  0.39373326254E+01  0.39373326254E+01  0.00000000000E+00 0. -1.
         13   -1    0    0    0    0 -0.00000000000E+00 -0.00000000000E+00 -0.10000000000E+04  0.10000000000E+04  0.00000000000E+00 0.  1.
    9000005    2    1    2  501    0 -0.52003737013E+02  0.10595283616E+02 -0.76555816578E+03  0.76740197807E+03  0.31372054855E+01 0.  0.
         13    1    3    3    0    0 -0.90453318373E+01  0.30361957523E+01 -0.13339248134E+03  0.13373328154E+03  0.00000000000E+00 0.  1.
          1    1    3    3  501    0 -0.42958405176E+02  0.75590878641E+01 -0.63216568444E+03  0.63366869654E+03  0.00000000000E+00 0.  1.
         -1    1    1    2    0  502  0.52003737013E+02 -0.10595283616E+02 -0.23050450159E+03  0.23653535455E+03  0.00000000000E+00 0. -1.
<mgrwt>
<rscale>  1 0.30000000E+03</rscale>
<asrwt>0</asrwt>
<pdfrwt beam="1">  1       21 0.14317603E-01 0.30000000E+03</pdfrwt>
<pdfrwt beam="2">0</pdfrwt>
<totfact> 0.44876404E+03</totfact>
</mgrwt>
</event>
<event>
 6    1  0.1284012E-001  0.3000000E+03  0.7818608E-02  0.1093470E+00
         21   -1    0    0  501  502  0.00000000000E+00  0.00000000000E+00  0.21548907097E+01  0.21548907097E+01  0.00000000000E+00 0. -1.
         13   -1    0    0    0    0 -0.00000000000E+00 -0.00000000000E+00 -0.10000000000E+04  0.10000000000E+04  0.00000000000E+00 0.  1.
    9000005    2    1    2  501    0 -0.41830092013E+02  0.14181135288E+01 -0.71478492511E+03  0.71601709958E+03  0.33511317617E+01 0.  0.
         13    1    3    3    0    0 -0.64853178927E+01 -0.36998003220E+00 -0.13016671274E+03  0.13032869730E+03  0.00000000000E+00 0.  1.
          3    1    3    3  501    0 -0.35344774120E+02  0.17880935610E+01 -0.58461821237E+03  0.58568840228E+03  0.00000000000E+00 0.  1.
         -1    1    1    2    0  502  0.41830092013E+02 -0.14181135288E+01 -0.28306018418E+03  0.28613779113E+03  0.00000000000E+00 0. -1.
<mgrwt>
<rscale>  1 0.30000000E+03</rscale>
<asrwt>0</asrwt>
<pdfrwt beam="1">  1       21 0.78359827E-02 0.30000000E+03</pdfrwt>
<pdfrwt beam="2">0</pdfrwt>
<totfact> 0.13246936E+04</totfact>
</mgrwt>
</event>
<event>
 6    1  0.1284012E-001  0.3000000E+03  0.7818608E-02  0.1093470E+00
         21   -1    0    0  501  502  0.00000000000E+00  0.00000000000E+00  0.97585500256E+00  0.97585500256E+00  0.00000000000E+00 0. -1.
         13   -1    0    0    0    0 -0.00000000000E+00 -0.00000000000E+00 -0.10000000000E+04  0.10000000000E+04  0.00000000000E+00 0.  1.
    9000005    2    1    2  501    0 -0.30559673039E+02 -0.34582430279E+01 -0.42107956145E+03  0.42221355948E+03  0.32310494908E+01 0.  0.
         13    1    3    3    0    0 -0.26222550134E+02 -0.38825106539E+01 -0.37006418202E+03  0.37101239176E+03  0.00000000000E+00 0.  1.
          1    1    3    3  501    0 -0.43371229054E+01  0.42426762603E+00 -0.51015379432E+02  0.51201167728E+02  0.00000000000E+00 0.  1.
         -1    1    1    2    0  502  0.30559673039E+02  0.34582430279E+01 -0.57794458355E+03  0.57876229552E+03  0.00000000000E+00 0. -1.
<mgrwt>
<rscale>  1 0.30000000E+03</rscale>
<asrwt>0</asrwt>
<pdfrwt beam="1">  1       21 0.35485711E-02 0.30000000E+03</pdfrwt>
<pdfrwt beam="2">0</pdfrwt>
<totfact> 0.51415835E+04</totfact>
</mgrwt>
</event>
<event>
 6    1  0.1284012E-001  0.3000000E+03  0.7818608E-02  0.1093470E+00
         21   -1    0    0  501  502  0.00000000000E+00  0.00000000000E+00  0.10401440765E+01  0.10401440765E+01  0.00000000000E+00 0. -1.
         13   -1    0    0    0    0 -0.00000000000E+00 -0.00000000000E+00 -0.10000000000E+04  0.10000000000E+04  0.00000000000E+00 0.  1.
    9000005    2    1    2  501    0 -0.25925939236E+02 -0.18598379709E+02 -0.44141506389E+03  0.44258311872E+03  0.38084496195E+01 0.  0.
         13    1    3    3    0    0 -0.15394014207E+01 -0.14198209694E+00 -0.22814121774E+02  0.22866439774E+02  0.00000000000E+00 0.  1.
          1    1    3    3  501    0 -0.24386537816E+02 -0.18456397612E+02 -0.41860094212E+03  0.41971667894E+03  0.00000000000E+00 0.  1.
         -3    1    1    2    0  502  0.25925939236E+02  0.18598379709E+02 -0.55754479203E+03  0.55845702536E+03  0.00000000000E+00 0. -1.
<mgrwt>
<rscale>  1 0.30000000E+03</rscale>
<asrwt>0</asrwt>
<pdfrwt beam="1">  1       21 0.37823501E-02 0.30000000E+03</pdfrwt>
<pdfrwt beam="2">0</pdfrwt>
<totfact> 0.46195981E+04</totfact>
</mgrwt>
</event>
<event>
 6    1  0.1284012E-001  0.3000000E+03  0.7818608E-02  0.1093470E+00
         21   -1    0    0  501  502  0.00000000000E+00  0.00000000000E+00  0.21480101132E+02  0.21480101132E+02  0.00000000000E+00 0. -1.
         13   -1    0    0    0    0 -0.00000000000E+00 -0.00000000000E+00 -0.10000000000E+04  0.10000000000E+04  0.00000000000E+00 0.  1.
    9000005    2    1    2  501    0  0.10746391048E+02 -0.62522371776E+02 -0.94966358112E+03  0.95178634986E+03  0.34360684878E+01 0.  0.
         13    1    3    3    0    0  0.65384810674E+01 -0.46673772322E+02 -0.70969979214E+03  0.71126295259E+03  0.00000000000E+00 0.  1.
          1    1    3    3  501    0  0.42079099805E+01 -0.15848599455E+02 -0.23996378898E+03  0.24052339727E+03  0.00000000000E+00 0.  1.
         -3    1    1    2    0  502 -0.10746391048E+02  0.62522371776E+02 -0.28856317743E+02  0.69693751275E+02  0.00000000000E+00 0. -1.
<mgrwt>
<rscale>  1 0.30000000E+03</rscale>
<asrwt>0</asrwt>
<pdfrwt beam="1">  1       21 0.78109623E-01 0.30000000E+03</pdfrwt>
<pdfrwt beam="2">0</pdfrwt>
<totfact> 0.13628145E+02</totfact>
</mgrwt>
</event>
<event>
 6    1  0.1284012E-001  0.3000000E+03  0.7818608E-02  0.1093470E+00
         21   -1    0    0  501  502  0.00000000000E+00  0.00000000000E+00  0.10774485839E+01  0.10774485839E+01  0.00000000000E+00 0. -1.
         13   -1    0    0    0    0 -0.00000000000E+00 -0.00000000000E+00 -0.10000000000E+04  0.10000000000E+04  0.00000000000E+00 0.  1.
    9000005    2    1    2  501    0 -0.14379951708E+02 -0.27232021582E+02 -0.67068184540E+03  0.67139528787E+03  0.30213915940E+01 0.  0.
         13    1    3    3    0    0 -0.10690381531E+02 -0.21851898918E+02 -0.54896667272E+03  0.54950541171E+03  0.00000000000E+00 0.  1.
          3    1    3    3  501    0 -0.36895701767E+01 -0.53801226645E+01 -0.12171517269E+03  0.12188987616E+03  0.00000000000E+00 0.  1.
         -1    1    1    2    0  502  0.14379951708E+02  0.27232021582E+02 -0.32824070601E+03  0.32968216072E+03  0.00000000000E+00 0. -1.
<mgrwt>
<rscale>  1 0.30000000E+03</rscale>
<asrwt>0</asrwt>
<pdfrwt beam="1">  1       21 0.39180031E-02 0.30000000E+03</pdfrwt>
<pdfrwt beam="2">0</pdfrwt>
<totfact> 0.43539045E+04</totfact>
</mgrwt>
</event>
<event>
 6    1  0.1284012E-001  0.3000000E+03  0.7818608E-02  0.1093470E+00
         21   -1    0    0  501  502  0.00000000000E+00  0.00000000000E+00  0.17489873419E+01  0.17489873419E+01  0.00000000000E+00 0. -1.
         13   -1    0    0    0    0 -0.00000000000E+00 -0.00000000000E+00 -0.10000000000E+04  0.10000000000E+04  0.00000000000E+00 0.  1.
    9000005    2    1    2  501    0 -0.31673371664E+02 -0.14277889640E+02 -0.77732284050E+03  0.77810570472E+03  0.32601783079E+01 0.  0.
         13    1    3    3    0    0 -0.11774507476E+02 -0.37717588007E+01 -0.29113224512E+03  0.29139466251E+03  0.00000000000E+00 0.  1.
          1    1    3    3  501    0 -0.19898864188E+02 -0.10506130839E+02 -0.48619059537E+03  0.48671104221E+03  0.00000000000E+00 0.  1.
         -3    1    1    2    0  502  0.31673371664E+02  0.14277889640E+02 -0.22092817216E+03  0.22364328262E+03  0.00000000000E+00 0. -1.
<mgrwt>
<rscale>  1 0.30000000E+03</rscale>
<asrwt>0</asrwt>
<pdfrwt beam="1">  1       21 0.63599674E-02 0.30000000E+03</pdfrwt>
<pdfrwt beam="2">0</pdfrwt>
<totfact> 0.19054753E+04</totfact>
</mgrwt>
</event>
<event>
 6    1  0.1284012E-001  0.3000000E+03  0.7818608E-02  0.1093470E+00
         21   -1    0    0  501  502  0.00000000000E+00  0.00000000000E+00  0.16579760921E+01  0.16579760921E+01  0.00000000000E+00 0. -1.
         13   -1    0    0    0    0 -0.00000000000E+00 -0.00000000000E+00 -0.10000000000E+04  0.10000000000E+04  0.00000000000E+00 0.  1.
    9000005    2    1    2  501    0 -0.26470968074E+02  0.14509489993E+02 -0.83487505159E+03  0.83542714716E+03  0.33059013829E+01 0.  0.
         13    1    3    3    0    0 -0.62092645090E+01  0.35181523736E+01 -0.16133838537E+03  0.16149615152E+03  0.00000000000E+00 0.  1.
          3    1    3    3  501    0 -0.20261703565E+02  0.10991337620E+02 -0.67353666622E+03  0.67393099564E+03  0.00000000000E+00 0.  1.
         -1    1    1    2    0  502  0.26470968074E+02 -0.14509489993E+02 -0.16346697232E+03  0.16623082894E+03  0.00000000000E+00 0. -1.
<mgrwt>
<rscale>  1 0.30000000E+03</rscale>
<asrwt>0</asrwt>
<pdfrwt beam="1">  1       21 0.60290167E-02 0.30000000E+03</pdfrwt>
<pdfrwt beam="2">0</pdfrwt>
<totfact> 0.20897050E+04</totfact>
</mgrwt>
</event>
<event>
 6    1  0.1284012E-001  0.3000000E+03  0.7818608E-02  0.1093470E+00
         21   -1    0    0  501  502  0.00000000000E+00  0.00000000000E+00  0.13755411695E+01  0.13755411695E+01  0.00000000000E+00 0. -1.
         13   -1    0    0    0    0 -0.00000000000E+00 -0.00000000000E+00 -0.10000000000E+04  0.10000000000E+04  0.00000000000E+00 0.  1.
    9000005    2    1    2  501    0 -0.36212716782E+02  0.36471589242E+01 -0.40508299465E+03  0.40671922671E+03  0.19063567844E+01 0.  0.
         13    1    3    3    0    0 -0.12827654237E+02  0.81955424405E+00 -0.15183953180E+03  0.15238262302E+03  0.00000000000E+00 0.  1.
          1    1    3    3  501    0 -0.23385062545E+02  0.28276046802E+01 -0.25324346286E+03  0.25433660369E+03  0.00000000000E+00 0.  1.
         -3    1    1    2    0  502  0.36212716782E+02 -0.36471589242E+01 -0.59354146418E+03  0.59465631446E+03  0.00000000000E+00 0. -1.
<mgrwt>
<rscale>  1 0.30000000E+03</rscale>
<asrwt>0</asrwt>
<pdfrwt beam="1">  1       21 0.50019784E-02 0.30000000E+03</pdfrwt>
<pdfrwt beam="2">0</pdfrwt>
<totfact> 0.28785236E+04</totfact>
</mgrwt>
</event>
<event>
 6    1  0.1284012E-001  0.3000000E+03  0.7818608E-02  0.1093470E+00
         21   -1    0    0  501  502  0.00000000000E+00  0.00000000000E+00  0.59902736599E+01  0.59902736599E+01  0.00000000000E+00 0. -1.
         13   -1    0    0    0    0 -0.00000000000E+00 -0.00000000000E+00 -0.10000000000E+04  0.10000000000E+04  0.00000000000E+00 0.  1.
    9000005    2    1    2  501    0  0.45212578746E+02  0.78851651810E+01 -0.90195380255E+03  0.90312800550E+03  0.36303265846E+01 0.  0.
         13    1    3    3    0    0  0.32772182367E+02  0.44284782464E+01 -0.62806720833E+03  0.62893723497E+03  0.00000000000E+00 0.  1.
          3    1    3    3  501    0  0.12440396379E+02  0.34566869346E+01 -0.27388659422E+03  0.27419077053E+03  0.00000000000E+00 0.  1.
         -3    1    1    2    0  502 -0.45212578746E+02 -0.78851651810E+01 -0.92055923787E+02  0.10286226816E+03  0.00000000000E+00 0. -1.
<mgrwt>
<rscale>  1 0.30000000E+03</rscale>
<asrwt>0</asrwt>
<pdfrwt beam="1">  1       21 0.21782859E-01 0.30000000E+03</pdfrwt>
<pdfrwt beam="2">0</pdfrwt>
<totfact> 0.20371095E+03</totfact>
</mgrwt>
</event>
<event>
 6    1  0.1284012E-001  0.3000000E+03  0.7818608E-02  0.1093470E+00
         21   -1    0    0  501  502  0.00000000000E+00  0.00000000000E+00  0.11842728787E+01  0.11842728787E+01  0.00000000000E+00 0. -1.
         13   -1    0    0    0    0 -0.00000000000E+00 -0.00000000000E+00 -0.10000000000E+04  0.10000000000E+04  0.00000000000E+00 0.  1.
    9000005    2    1    2  501    0 -0.33794044840E+02 -0.58009084367E+01 -0.51653555705E+03  0.51768675433E+03  0.38608158920E+01 0.  0.
         13    1    3    3    0    0 -0.13185535615E+02 -0.17570709098E+01 -0.22819521392E+03  0.22858259187E+03  0.00000000000E+00 0.  1.
          1    1    3    3  501    0 -0.20608509225E+02 -0.40438375269E+01 -0.28834034313E+03  0.28910416246E+03  0.00000000000E+00 0.  1.
         -1    1    1    2    0  502  0.33794044840E+02  0.58009084367E+01 -0.48228017007E+03  0.48349751855E+03  0.00000000000E+00 0. -1.
<mgrwt>
<rscale>  1 0.30000000E+03</rscale>
<asrwt>0</asrwt>
<pdfrwt beam="1">  1       21 0.43064559E-02 0.30000000E+03</pdfrwt>
<pdfrwt beam="2">0</pdfrwt>
<totfact> 0.37122431E+04</totfact>
</mgrwt>
</event>
<event>
 6    1  0.1284012E-001  0.3000000E+03  0.7818608E-02  0.1093470E+00
         21   -1    0    0  501  502  0.00000000000E+00  0.00000000000E+00  0.14482601713E+01  0.14482601713E+01  0.00000000000E+00 0. -1.
         13   -1    0    0    0    0 -0.00000000000E+00 -0.00000000000E+00 -0.10000000000E+04  0.10000000000E+04  0.00000000000E+00 0.  1.
    9000005    2    1    2  501    0 -0.34154367447E+02  0.15671023986E+02 -0.56513001099E+03  0.56640056527E+03  0.50566005718E+01 0.  0.
         13    1    3    3    0    0 -0.27376739167E+01  0.68569533888E+00 -0.64674576008E+02  0.64736124524E+02  0.00000000000E+00 0.  1.
          3    1    3    3  501    0 -0.31416693530E+02  0.14985328647E+02 -0.50045543498E+03  0.50166444074E+03  0.00000000000E+00 0.  1.
         -3    1    1    2    0  502  0.34154367447E+02 -0.15671023986E+02 -0.43342172884E+03  0.43504769490E+03  0.00000000000E+00 0. -1.
<mgrwt>
<rscale>  1 0.30000000E+03</rscale>
<asrwt>0</asrwt>
<pdfrwt beam="1">  1       21 0.52664117E-02 0.30000000E+03</pdfrwt>
<pdfrwt beam="2">0</pdfrwt>
<totfact> 0.26361901E+04</totfact>
</mgrwt>
</event>
<event>
 6    1  0.1284012E-001  0.3000000E+03  0.7818608E-02  0.1093470E+00
         21   -1    0    0  501  502  0.00000000000E+00  0.00000000000E+00  0.15344258841E+01  0.15344258841E+01  0.00000000000E+00 0. -1.
         13   -1    0    0    0    0 -0.00000000000E+00 -0.00000000000E+00 -0.10000000000E+04  0.10000000000E+04  0.00000000000E+00 0.  1.
    9000005    2    1    2  501    0 -0.18548481861E+02  0.32741877662E+02 -0.36498266488E+03  0.36693480957E+03  0.35682038992E+01 0.  0.
         13    1    3    3    0    0 -0.17868271911E+02  0.31693007545E+02 -0.34501527275E+03  0.34692832156E+03  0.00000000000E+00 0.  1.
          3    1    3    3  501    0 -0.68020995057E+00  0.10488701173E+01 -0.19967392132E+02  0.20006488014E+02  0.00000000000E+00 0.  1.
         -3    1    1    2    0  502  0.18548481861E+02 -0.32741877662E+02 -0.63348290923E+03  0.63459961631E+03  0.00000000000E+00 0. -1.
<mgrwt>
<rscale>  1 0.30000000E+03</rscale>
<asrwt>0</asrwt>
<pdfrwt beam="1">  1       21 0.55797423E-02 0.30000000E+03</pdfrwt>
<pdfrwt beam="2">0</pdfrwt>
<totfact> 0.23877156E+04</totfact>
</mgrwt>
</event>
<event>
 6    1  0.1284012E-001  0.3000000E+03  0.7818608E-02  0.1093470E+00
         21   -1    0    0  501  502  0.00000000000E+00  0.00000000000E+00  0.24671923509E+01  0.24671923509E+01  0.00000000000E+00 0. -1.
         13   -1    0    0    0    0 -0.00000000000E+00 -0.00000000000E+00 -0.10000000000E+04  0.10000000000E+04  0.00000000000E+00 0.  1.
    9000005    2    1    2  501    0  0.31207176823E+02  0.44525039480E+01 -0.88594084486E+03  0.88650823911E+03  0.34590098744E+01 0.  0.
         13    1    3    3    0    0  0.64542875730E+01 -0.38577736602E+00 -0.19547041212E+03  0.19557732145E+03  0.00000000000E+00 0.  1.
          3    1    3    3  501    0  0.24752889250E+02  0.48382813140E+01 -0.69047043274E+03  0.69093091767E+03  0.00000000000E+00 0.  1.
         -1    1    1    2    0  502 -0.31207176823E+02 -0.44525039480E+01 -0.11159196279E+03  0.11595895324E+03  0.00000000000E+00 0. -1.
<mgrwt>
<rscale>  1 0.30000000E+03</rscale>
<asrwt>0</asrwt>
<pdfrwt beam="1">  1       21 0.89716275E-02 0.30000000E+03</pdfrwt>
<pdfrwt beam="2">0</pdfrwt>
<totfact> 0.10436299E+04</totfact>
</mgrwt>
</event>
<event>
 6    1  0.1284012E-001  0.3000000E+03  0.7818608E-02  0.1093470E+00
         21   -1    0    0  501  502  0.00000000000E+00  0.00000000000E+00  0.41298633035E+01  0.41298633035E+01  0.00000000000E+00 0. -1.
         13   -1    0    0    0    0 -0.00000000000E+00 -0.00000000000E+00 -0.10000000000E+04  0.10000000000E+04  0.00000000000E+00 0.  1.
    9000005    2    1    2  501    0 -0.26357997402E+02 -0.35452118050E+02 -0.86242332507E+03  0.86356084739E+03  0.34276553399E+01 0.  0.
         13    1    3    3    0    0 -0.21720316038E+02 -0.30566728698E+02 -0.71192389738E+03  0.71291074665E+03  0.00000000000E+00 0.  1.
          1    1    3    3  501    0 -0.46376813637E+01 -0.48853893515E+01 -0.15049942769E+03  0.15065010074E+03  0.00000000000E+00 0.  1.
         -3    1    1    2    0  502  0.26357997402E+02  0.35452118050E+02 -0.13344681162E+03  0.14056901591E+03  0.00000000000E+00 0. -1.
<mgrwt>
<rscale>  1 0.30000000E+03</rscale>
<asrwt>0</asrwt>
<pdfrwt beam="1">  1       21 0.15017716E-01 0.30000000E+03</pdfrwt>
<pdfrwt beam="2">0</pdfrwt>
<totfact> 0.41090482E+03</totfact>
</mgrwt>
</event>
<event>
 6    1  0.1284012E-001  0.3000000E+03  0.7818608E-02  0.1093470E+00
         21   -1    0    0  501  502  0.00000000000E+00  0.00000000000E+00  0.16512948775E+01  0.16512948775E+01  0.00000000000E+00 0. -1.
         13   -1    0    0    0    0 -0.00000000000E+00 -0.00000000000E+00 -0.10000000000E+04  0.10000000000E+04  0.00000000000E+00 0.  1.
    9000005    2    1    2  501    0  0.29102465690E+02 -0.25624367263E+02 -0.35239056647E+03  0.35453037990E+03  0.30194750850E+01 0.  0.
         13    1    3    3    0    0  0.20110510366E+02 -0.18936920400E+02 -0.25965267773E+03  0.26111789030E+03  0.00000000000E+00 0.  1.
          1    1    3    3  501    0  0.89919553238E+01 -0.66874468632E+01 -0.92737888734E+02  0.93412489599E+02  0.00000000000E+00 0.  1.
         -1    1    1    2    0  502 -0.29102465690E+02  0.25624367263E+02 -0.64595813865E+03  0.64712091498E+03  0.00000000000E+00 0. -1.
<mgrwt>
<rscale>  1 0.30000000E+03</rscale>
<asrwt>0</asrwt>
<pdfrwt beam="1">  1       21 0.60047213E-02 0.30000000E+03</pdfrwt>
<pdfrwt beam="2">0</pdfrwt>
<totfact> 0.21043099E+04</totfact>
</mgrwt>
</event>
<event>
 6    1  0.1284012E-001  0.3000000E+03  0.7818608E-02  0.1093470E+00
         21   -1    0    0  501  502  0.00000000000E+00  0.00000000000E+00  0.20033200707E+01  0.20033200707E+01  0.00000000000E+00 0. -1.
         13   -1    0    0    0    0 -0.00000000000E+00 -0.00000000000E+00 -0.10000000000E+04  0.10000000000E+04  0.00000000000E+00 0.  1.
    9000005    2    1    2  501    0  0.41496459790E+02  0.10456929655E+02 -0.64374574603E+03  0.64517699295E+03  0.36692174000E+01 0.  0.
         13    1    3    3    0    0  0.14187058759E+02  0.19077659710E+01 -0.22396073466E+03  0.22441774189E+03  0.00000000000E+00 0.  1.
          3    1    3    3  501    0  0.27309401031E+02  0.85491636842E+01 -0.41978501137E+03  0.42075925106E+03  0.00000000000E+00 0.  1.
         -1    1    1    2    0  502 -0.41496459790E+02 -0.10456929655E+02 -0.35425093390E+03  0.35682632712E+03  0.00000000000E+00 0. -1.
<mgrwt>
<rscale>  1 0.30000000E+03</rscale>
<asrwt>0</asrwt>
<pdfrwt beam="1">  1       21 0.72848156E-02 0.30000000E+03</pdfrwt>
<pdfrwt beam="2">0</pdfrwt>
<totfact> 0.15051572E+04</totfact>
</mgrwt>
</event>
<event>
 6    1  0.1284012E-001  0.3000000E+03  0.7818608E-02  0.1093470E+00
         21   -1    0    0  501  502  0.00000000000E+00  0.00000000000E+00  0.83295510650E+01  0.83295510650E+01  0.00000000000E+00 0. -1.
         13   -1    0    0    0    0 -0.00000000000E+00 -0.00000000000E+00 -0.10000000000E+04  0.10000000000E+04  0.00000000000E+00 0.  1.
    9000005    2    1    2  501    0 -0.23128418397E+02  0.28599991143E+02 -0.95722585521E+03  0.95793795188E+03  0.33012955724E+01 0.  0.
         13    1    3    3    0    0 -0.59191204509E+01  0.64204382518E+01 -0.26218674116E+03  0.26233212775E+03  0.00000000000E+00 0.  1.
          1    1    3    3  501    0 -0.17209297946E+02  0.22179552891E+02 -0.69503911405E+03  0.69560582413E+03  0.00000000000E+00 0.  1.
         -3    1    1    2    0  502  0.23128418397E+02 -0.28599991143E+02 -0.34444593728E+02  0.50391599181E+02  0.00000000000E+00 0. -1.
<mgrwt>
<rscale>  1 0.30000000E+03</rscale>
<asrwt>0</asrwt>
<pdfrwt beam="1">  1       21 0.30289340E-01 0.30000000E+03</pdfrwt>
<pdfrwt beam="2">0</pdfrwt>
<totfact> 0.10665871E+03</totfact>
</mgrwt>
</event>
<event>
 6    1  0.1284012E-001  0.3000000E+03  0.7818608E-02  0.1093470E+00
         21   -1    0    0  501  502  0.00000000000E+00  0.00000000000E+00  0.20817464273E+01  0.20817464273E+01  0.00000000000E+00 0. -1.
         13   -1    0    0    0    0 -0.00000000000E+00 -0.00000000000E+00 -0.10000000000E+04  0.10000000000E+04  0.00000000000E+00 0.  1.
    9000005    2    1    2  501    0  0.44321369712E+02 -0.12170468160E+01 -0.61406523589E+03  0.61567651328E+03  0.39484256920E+01 0.  0.
         13    1    3    3    0    0  0.13189346487E+02  0.14423452448E+01 -0.18228445938E+03  0.18276669104E+03  0.00000000000E+00 0.  1.
          1    1    3    3  501    0  0.31132023225E+02 -0.26593920607E+01 -0.43178077650E+03  0.43290982224E+03  0.00000000000E+00 0.  1.
         -1    1    1    2    0  502 -0.44321369712E+02  0.12170468160E+01 -0.38385301769E+03  0.38640523315E+03  0.00000000000E+00 0. -1.
<mgrwt>
<rscale>  1 0.30000000E+03</rscale>
<asrwt>0</asrwt>
<pdfrwt beam="1">  1       21 0.75700030E-02 0.30000000E+03</pdfrwt>
<pdfrwt beam="2">0</pdfrwt>
<totfact> 0.14073618E+04</totfact>
</mgrwt>
</event>
<event>
 6    1  0.1284012E-001  0.3000000E+03  0.7818608E-02  0.1093470E+00
         21   -1    0    0  501  502  0.00000000000E+00  0.00000000000E+00  0.10620131556E+01  0.10620131556E+01  0.00000000000E+00 0. -1.
         13   -1    0    0    0    0 -0.00000000000E+00 -0.00000000000E+00 -0.10000000000E+04  0.10000000000E+04  0.00000000000E+00 0.  1.
    9000005    2    1    2  501    0  0.29645683707E+02  0.12099604543E+02 -0.41417295607E+03  0.41542098983E+03  0.31771455482E+01 0.  0.
         13    1    3    3    0    0  0.42736381889E+01  0.29468582615E+01 -0.62546953897E+02  0.62762006013E+02  0.00000000000E+00 0.  1.
          3    1    3    3  501    0  0.25372045518E+02  0.91527462819E+01 -0.35162600218E+03  0.35265898381E+03  0.00000000000E+00 0.  1.
         -3    1    1    2    0  502 -0.29645683707E+02 -0.12099604543E+02 -0.58476503077E+03  0.58564102333E+03  0.00000000000E+00 0. -1.
<mgrwt>
<rscale>  1 0.30000000E+03</rscale>
<asrwt>0</asrwt>
<pdfrwt beam="1">  1       21 0.38618742E-02 0.30000000E+03</pdfrwt>
<pdfrwt beam="2">0</pdfrwt>
<totfact> 0.44608559E+04</totfact>
</mgrwt>
</event>
<event>
 6    1  0.1284012E-001  0.3000000E+03  0.7818608E-02  0.1093470E+00
         21   -1    0    0  501  502  0.00000000000E+00  0.00000000000E+00  0.13951623624E+01  0.13951623624E+01  0.00000000000E+00 0. -1.
         13   -1    0    0    0    0 -0.00000000000E+00 -0.00000000000E+00 -0.10000000000E+04  0.10000000000E+04  0.00000000000E+00 0.  1.
    9000005    2    1    2  501    0  0.21706275876E+02  0.29793935453E+02 -0.42955225576E+03  0.43114988009E+03  0.40296003060E+01 0.  0.
         13    1    3    3    0    0  0.95588291189E+00  0.31112706804E+01 -0.33423159476E+02  0.33581264222E+02  0.00000000000E+00 0.  1.
          3    1    3    3  501    0  0.20750392964E+02  0.26682664773E+02 -0.39612909628E+03  0.39756861587E+03  0.00000000000E+00 0.  1.
         -1    1    1    2    0  502 -0.21706275876E+02 -0.29793935453E+02 -0.56905258188E+03  0.57024528227E+03  0.00000000000E+00 0. -1.
<mgrwt>
<rscale>  1 0.30000000E+03</rscale>
<asrwt>0</asrwt>
<pdfrwt beam="1">  1       21 0.50733284E-02 0.30000000E+03</pdfrwt>
<pdfrwt beam="2">0</pdfrwt>
<totfact> 0.28098285E+04</totfact>
</mgrwt>
</event>
<event>
 6    1  0.1284012E-001  0.3000000E+03  0.7818608E-02  0.1093470E+00
         21   -1    0    0  501  502  0.00000000000E+00  0.00000000000E+00  0.12408536235E+01  0.12408536235E+01  0.00000000000E+00 0. -1.
         13   -1    0    0    0    0 -0.00000000000E+00 -0.00000000000E+00 -0.10000000000E+04  0.10000000000E+04  0.00000000000E+00 0.  1.
    9000005    2    1    2  501    0  0.18738458804E+02  0.23442448106E+02 -0.75875524962E+03  0.75936785251E+03  0.54155684149E+01 0.  0.
         13    1    3    3    0    0  0.59814977164E+01  0.39532818960E+01 -0.16401202219E+03  0.16416866381E+03  0.00000000000E+00 0.  1.
          1    1    3    3  501    0  0.12756961087E+02  0.19489166210E+02 -0.59474322743E+03  0.59519918870E+03  0.00000000000E+00 0.  1.
         -3    1    1    2    0  502 -0.18738458804E+02 -0.23442448106E+02 -0.24000389676E+03  0.24187300112E+03  0.00000000000E+00 0. -1.
<mgrwt>
<rscale>  1 0.30000000E+03</rscale>
<asrwt>0</asrwt>
<pdfrwt beam="1">  1       21 0.45122045E-02 0.30000000E+03</pdfrwt>
<pdfrwt beam="2">0</pdfrwt>
<totfact> 0.34300166E+04</totfact>
</mgrwt>
</event>
<event>
 6    1  0.1284012E-001  0.3000000E+03  0.7818608E-02  0.1093470E+00
         21   -1    0    0  501  502  0.00000000000E+00  0.00000000000E+00  0.12084104044E+01  0.12084104044E+01  0.00000000000E+00 0. -1.
         13   -1    0    0    0    0 -0.00000000000E+00 -0.00000000000E+00 -0.10000000000E+04  0.10000000000E+04  0.00000000000E+00 0.  1.
    9000005    2    1    2  501    0  0.20099855157E+02  0.28170365761E+02 -0.53731287251E+03  0.53843397290E+03  0.29062903637E+01 0.  0.
         13    1    3    3    0    0  0.97423596158E+01  0.15674191383E+02 -0.27263187950E+03  0.27325580610E+03  0.00000000000E+00 0.  1.
          3    1    3    3  501    0  0.10357495541E+02  0.12496174379E+02 -0.26468099301E+03  0.26517816680E+03  0.00000000000E+00 0.  1.
         -3    1    1    2    0  502 -0.20099855157E+02 -0.28170365761E+02 -0.46147871709E+03  0.46277443751E+03  0.00000000000E+00 0. -1.
<mgrwt>
<rscale>  1 0.30000000E+03</rscale>
<asrwt>0</asrwt>
<pdfrwt beam="1">  1       21 0.43942289E-02 0.30000000E+03</pdfrwt>
<pdfrwt beam="2">0</pdfrwt>
<totfact> 0.35876074E+04</totfact>
</mgrwt>
</event>
<event>
 6    1  0.1284012E-001  0.3000000E+03  0.7818608E-02  0.1093470E+00
         21   -1    0    0  501  502  0.00000000000E+00  0.00000000000E+00  0.16721175831E+01  0.16721175831E+01  0.00000000000E+00 0. -1.
         13   -1    0    0    0    0 -0.00000000000E+00 -0.00000000000E+00 -0.10000000000E+04  0.10000000000E+04  0.00000000000E+00 0.  1.
    9000005    2    1    2  501    0  0.16274368338E+02 -0.29334812966E+02 -0.78492771068E+03  0.78565123985E+03  0.33126088770E+01 0.  0.
         13    1    3    3    0    0  0.18142256680E+00 -0.64733517871E+00 -0.29628800713E+02  0.29636426719E+02  0.00000000000E+00 0.  1.
          1    1    3    3  501    0  0.16092945771E+02 -0.28687477788E+02 -0.75529890996E+03  0.75601481313E+03  0.00000000000E+00 0.  1.
         -1    1    1    2    0  502 -0.16274368338E+02  0.29334812966E+02 -0.21340017174E+03  0.21602087773E+03  0.00000000000E+00 0. -1.
<mgrwt>
<rscale>  1 0.30000000E+03</rscale>
<asrwt>0</asrwt>
<pdfrwt beam="1">  1       21 0.60804404E-02 0.30000000E+03</pdfrwt>
<pdfrwt beam="2">0</pdfrwt>
<totfact> 0.20593076E+04</totfact>
</mgrwt>
</event>
<event>
 6    1  0.1284012E-001  0.3000000E+03  0.7818608E-02  0.1093470E+00
         21   -1    0    0  501  502  0.00000000000E+00  0.00000000000E+00  0.39575949579E+01  0.39575949579E+01  0.00000000000E+00 0. -1.
         13   -1    0    0    0    0 -0.00000000000E+00 -0.00000000000E+00 -0.10000000000E+04  0.10000000000E+04  0.00000000000E+00 0.  1.
    9000005    2    1    2  501    0 -0.27411054895E+02 -0.31306554261E+02 -0.87437544709E+03  0.87537176787E+03  0.34414013158E+01 0.  0.
         13    1    3    3    0    0 -0.17658576385E+02 -0.18126605056E+02 -0.55151281925E+03  0.55209309806E+03  0.00000000000E+00 0.  1.
          1    1    3    3  501    0 -0.97524785099E+01 -0.13179949205E+02 -0.32286262784E+03  0.32327866981E+03  0.00000000000E+00 0.  1.
         -3    1    1    2    0  502  0.27411054895E+02  0.31306554261E+02 -0.12166695796E+03  0.12858582709E+03  0.00000000000E+00 0. -1.
<mgrwt>
<rscale>  1 0.30000000E+03</rscale>
<asrwt>0</asrwt>
<pdfrwt beam="1">  1       21 0.14391285E-01 0.30000000E+03</pdfrwt>
<pdfrwt beam="2">0</pdfrwt>
<totfact> 0.44454127E+03</totfact>
</mgrwt>
</event>
<event>
 6    1  0.1284012E-001  0.3000000E+03  0.7818608E-02  0.1093470E+00
         21   -1    0    0  501  502  0.00000000000E+00  0.00000000000E+00  0.33947520935E+01  0.33947520935E+01  0.00000000000E+00 0. -1.
         13   -1    0    0    0    0 -0.00000000000E+00 -0.00000000000E+00 -0.10000000000E+04  0.10000000000E+04  0.00000000000E+00 0.  1.
    9000005    2    1    2  501    0 -0.33066339028E+02  0.12175338182E+02 -0.89752258568E+03  0.89823299293E+03  0.58391905154E+01 0.  0.
         13    1    3    3    0    0 -0.18071653984E+02  0.36604213306E+01 -0.48359202752E+03  0.48394341864E+03  0.00000000000E+00 0.  1.
          1    1    3    3  501    0 -0.14994685044E+02  0.85149168512E+01 -0.41393055815E+03  0.41428957429E+03  0.00000000000E+00 0.  1.
         -3    1    1    2    0  502  0.33066339028E+02 -0.12175338182E+02 -0.99082662231E+02  0.10516175917E+03  0.00000000000E+00 0. -1.
<mgrwt>
<rscale>  1 0.30000000E+03</rscale>
<asrwt>0</asrwt>
<pdfrwt beam="1">  1       21 0.12344579E-01 0.30000000E+03</pdfrwt>
<pdfrwt beam="2">0</pdfrwt>
<totfact> 0.58862658E+03</totfact>
</mgrwt>
</event>
<event>
 6    1  0.1284012E-001  0.3000000E+03  0.7818608E-02  0.1093470E+00
         21   -1    0    0  501  502  0.00000000000E+00  0.00000000000E+00  0.11023041133E+01  0.11023041133E+01  0.00000000000E+00 0. -1.
         13   -1    0    0    0    0 -0.00000000000E+00 -0.00000000000E+00 -0.10000000000E+04  0.10000000000E+04  0.00000000000E+00 0.  1.
    9000005    2    1    2  501    0  0.17425422952E+02 -0.27103396057E+02 -0.61499053369E+03  0.61584531374E+03  0.37221617999E+01 0.  0.
         13    1    3    3    0    0  0.13400422350E+02 -0.21591478841E+02 -0.45470486486E+03  0.45541440184E+03  0.00000000000E+00 0.  1.
          3    1    3    3  501    0  0.40250006027E+01 -0.55119172161E+01 -0.16028566883E+03  0.16043091190E+03  0.00000000000E+00 0.  1.
         -3    1    1    2    0  502 -0.17425422952E+02  0.27103396057E+02 -0.38390716220E+03  0.38525699037E+03  0.00000000000E+00 0. -1.
<mgrwt>
<rscale>  1 0.30000000E+03</rscale>
<asrwt>0</asrwt>
<pdfrwt beam="1">  1       21 0.40083870E-02 0.30000000E+03</pdfrwt>
<pdfrwt beam="2">0</pdfrwt>
<totfact> 0.41899263E+04</totfact>
</mgrwt>
</event>
<event>
 6    1  0.1284012E-001  0.3000000E+03  0.7818608E-02  0.1093470E+00
         21   -1    0    0  501  502  0.00000000000E+00  0.00000000000E+00  0.27948753376E+01  0.27948753376E+01  0.00000000000E+00 0. -1.
         13   -1    0    0    0    0 -0.00000000000E+00 -0.00000000000E+00 -0.10000000000E+04  0.10000000000E+04  0.00000000000E+00 0.  1.
    9000005    2    1    2  501    0  0.45497502472E+02  0.20569045871E+02 -0.66178079997E+03  0.66367456339E+03  0.41219539427E+01 0.  0.
         13    1    3    3    0    0  0.32560991474E+02  0.16715034796E+02 -0.48595926631E+03  0.48733563287E+03  0.00000000000E+00 0.  1.
          1    1    3    3  501    0  0.12936510998E+02  0.38540110758E+01 -0.17582153366E+03  0.17633893051E+03  0.00000000000E+00 0.  1.
         -1    1    1    2    0  502 -0.45497502472E+02 -0.20569045871E+02 -0.33542432469E+03  0.33912031195E+03  0.00000000000E+00 0. -1.
<mgrwt>
<rscale>  1 0.30000000E+03</rscale>
<asrwt>0</asrwt>
<pdfrwt beam="1">  1       21 0.10163204E-01 0.30000000E+03</pdfrwt>
<pdfrwt beam="2">0</pdfrwt>
<totfact> 0.83577827E+03</totfact>
</mgrwt>
</event>
<event>
 6    1  0.1284012E-001  0.3000000E+03  0.7818608E-02  0.1093470E+00
         21   -1    0    0  501  502  0.00000000000E+00  0.00000000000E+00  0.15230470987E+02  0.15230470987E+02  0.00000000000E+00 0. -1.
         13   -1    0    0    0    0 -0.00000000000E+00 -0.00000000000E+00 -0.10000000000E+04  0.10000000000E+04  0.00000000000E+00 0.  1.
    9000005    2    1    2  501    0 -0.92702329485E+02  0.46591043928E+02 -0.76719425575E+03  0.77418390536E+03  0.30407222360E+01 0.  0.
         13    1    3    3    0    0 -0.39089299455E+01  0.21317159992E+01 -0.37674241491E+02  0.37936426009E+02  0.00000000000E+00 0.  1.
          3    1    3    3  501    0 -0.88793399540E+02  0.44459327929E+02 -0.72952001426E+03  0.73624747935E+03  0.00000000000E+00 0.  1.
         -1    1    1    2    0  502  0.92702329485E+02 -0.46591043928E+02 -0.21757527327E+03  0.24104656563E+03  0.00000000000E+00 0. -1.
<mgrwt>
<rscale>  1 0.30000000E+03</rscale>
<asrwt>0</asrwt>
<pdfrwt beam="1">  1       21 0.55383648E-01 0.30000000E+03</pdfrwt>
<pdfrwt beam="2">0</pdfrwt>
<totfact> 0.30023168E+02</totfact>
</mgrwt>
</event>
<event>
 6    1  0.1284012E-001  0.3000000E+03  0.7818608E-02  0.1093470E+00
         21   -1    0    0  501  502  0.00000000000E+00  0.00000000000E+00  0.70200452648E+01  0.70200452648E+01  0.00000000000E+00 0. -1.
         13   -1    0    0    0    0 -0.00000000000E+00 -0.00000000000E+00 -0.10000000000E+04  0.10000000000E+04  0.00000000000E+00 0.  1.
    9000005    2    1    2  501    0 -0.71356880471E+02  0.43406216280E+02 -0.45919010925E+03  0.46673539516E+03  0.32355299362E+01 0.  0.
         13    1    3    3    0    0 -0.53477356855E+02  0.34059842610E+02 -0.35087391092E+03  0.35655630963E+03  0.00000000000E+00 0.  1.
          1    1    3    3  501    0 -0.17879523616E+02  0.93463736699E+01 -0.10831619834E+03  0.11017908553E+03  0.00000000000E+00 0.  1.
         -1    1    1    2    0  502  0.71356880471E+02 -0.43406216280E+02 -0.53378984548E+03  0.54028465011E+03  0.00000000000E+00 0. -1.
<mgrwt>
<rscale>  1 0.30000000E+03</rscale>
<asrwt>0</asrwt>
<pdfrwt beam="1">  1       21 0.25527491E-01 0.30000000E+03</pdfrwt>
<pdfrwt beam="2">0</pdfrwt>
<totfact> 0.14970419E+03</totfact>
</mgrwt>
</event>
<event>
 6    1  0.1284012E-001  0.3000000E+03  0.7818608E-02  0.1093470E+00
         21   -1    0    0  501  502  0.00000000000E+00  0.00000000000E+00  0.10111516751E+01  0.10111516751E+01  0.00000000000E+00 0. -1.
         13   -1    0    0    0    0 -0.00000000000E+00 -0.00000000000E+00 -0.10000000000E+04  0.10000000000E+04  0.00000000000E+00 0.  1.
    9000005    2    1    2  501    0 -0.15553298208E+02 -0.27002180921E+02 -0.57373653658E+03  0.57461866639E+03  0.64788503773E+01 0.  0.
         13    1    3    3    0    0 -0.12173964045E+02 -0.15769841211E+02 -0.33116325324E+03  0.33176195319E+03  0.00000000000E+00 0.  1.
          3    1    3    3  501    0 -0.33793341626E+01 -0.11232339710E+02 -0.24257328334E+03  0.24285671320E+03  0.00000000000E+00 0.  1.
         -1    1    1    2    0  502  0.15553298208E+02  0.27002180921E+02 -0.42525231175E+03  0.42639248528E+03  0.00000000000E+00 0. -1.
<mgrwt>
<rscale>  1 0.30000000E+03</rscale>
<asrwt>0</asrwt>
<pdfrwt beam="1">  1       21 0.36769229E-02 0.30000000E+03</pdfrwt>
<pdfrwt beam="2">0</pdfrwt>
<totfact> 0.48441425E+04</totfact>
</mgrwt>
</event>
<event>
 6    1  0.1284012E-001  0.3000000E+03  0.7818608E-02  0.1093470E+00
         21   -1    0    0  501  502  0.00000000000E+00  0.00000000000E+00  0.59151504172E+01  0.59151504172E+01  0.00000000000E+00 0. -1.
         13   -1    0    0    0    0 -0.00000000000E+00 -0.00000000000E+00 -0.10000000000E+04  0.10000000000E+04  0.00000000000E+00 0.  1.
    9000005    2    1    2  501    0  0.54288356975E+02 -0.71645980993E+00 -0.85317562804E+03  0.85490803889E+03  0.33710013131E+01 0.  0.
         13    1    3    3    0    0  0.17947844267E+01  0.33418312205E+00 -0.37422200484E+02  0.37466705467E+02  0.00000000000E+00 0.  1.
          3    1    3    3  501    0  0.52493572548E+02 -0.10506429320E+01 -0.81575342756E+03  0.81744133342E+03  0.00000000000E+00 0.  1.
         -3    1    1    2    0  502 -0.54288356975E+02  0.71645980993E+00 -0.14090922154E+03  0.15100711153E+03  0.00000000000E+00 0. -1.
<mgrwt>
<rscale>  1 0.30000000E+03</rscale>
<asrwt>0</asrwt>
<pdfrwt beam="1">  1       21 0.21509683E-01 0.30000000E+03</pdfrwt>
<pdfrwt beam="2">0</pdfrwt>
<totfact> 0.20871327E+03</totfact>
</mgrwt>
</event>
<event>
 6    1  0.1284012E-001  0.3000000E+03  0.7818608E-02  0.1093470E+00
         21   -1    0    0  501  502  0.00000000000E+00  0.00000000000E+00  0.27033819295E+01  0.27033819295E+01  0.00000000000E+00 0. -1.
         13   -1    0    0    0    0 -0.00000000000E+00 -0.00000000000E+00 -0.10000000000E+04  0.10000000000E+04  0.00000000000E+00 0.  1.
    9000005    2    1    2  501    0 -0.48615734276E+02  0.17754524579E+02 -0.45620055583E+03  0.45913769010E+03  0.31238707297E+01 0.  0.
         13    1    3    3    0    0 -0.25964990567E+01  0.13782366449E+01 -0.31727440938E+02  0.31863330837E+02  0.00000000000E+00 0.  1.
          1    1    3    3  501    0 -0.46019235219E+02  0.16376287934E+02 -0.42447311489E+03  0.42727435926E+03  0.00000000000E+00 0.  1.
         -3    1    1    2    0  502  0.48615734276E+02 -0.17754524579E+02 -0.54109606224E+03  0.54356569183E+03  0.00000000000E+00 0. -1.
<mgrwt>
<rscale>  1 0.30000000E+03</rscale>
<asrwt>0</asrwt>
<pdfrwt beam="1">  1       21 0.98305005E-02 0.30000000E+03</pdfrwt>
<pdfrwt beam="2">0</pdfrwt>
<totfact> 0.88699146E+03</totfact>
</mgrwt>
</event>
<event>
 6    1  0.1284012E-001  0.3000000E+03  0.7818608E-02  0.1093470E+00
         21   -1    0    0  501  502  0.00000000000E+00  0.00000000000E+00  0.50205460693E+01  0.50205460693E+01  0.00000000000E+00 0. -1.
         13   -1    0    0    0    0 -0.00000000000E+00 -0.00000000000E+00 -0.10000000000E+04  0.10000000000E+04  0.00000000000E+00 0.  1.
    9000005    2    1    2  501    0 -0.34561890417E+02  0.39060064647E+01 -0.93523733047E+03  0.93589093974E+03  0.36339547504E+01 0.  0.
         13    1    3    3    0    0 -0.37586264767E+01  0.14711378455E+01 -0.12230070297E+03  0.12236728920E+03  0.00000000000E+00 0.  1.
          3    1    3    3  501    0 -0.30803263941E+02  0.24348686193E+01 -0.81293662750E+03  0.81352365054E+03  0.00000000000E+00 0.  1.
         -1    1    1    2    0  502  0.34561890417E+02 -0.39060064647E+01 -0.59742123464E+02  0.69129606333E+02  0.00000000000E+00 0. -1.
<mgrwt>
<rscale>  1 0.30000000E+03</rscale>
<asrwt>0</asrwt>
<pdfrwt beam="1">  1       21 0.18256570E-01 0.30000000E+03</pdfrwt>
<pdfrwt beam="2">0</pdfrwt>
<totfact> 0.28524339E+03</totfact>
</mgrwt>
</event>
<event>
 6    1  0.1284012E-001  0.3000000E+03  0.7818608E-02  0.1093470E+00
         21   -1    0    0  501  502  0.00000000000E+00  0.00000000000E+00  0.29448535099E+01  0.29448535099E+01  0.00000000000E+00 0. -1.
         13   -1    0    0    0    0 -0.00000000000E+00 -0.00000000000E+00 -0.10000000000E+04  0.10000000000E+04  0.00000000000E+00 0.  1.
    9000005    2    1    2  501    0  0.46694811619E+02  0.14210122657E+02 -0.71722886561E+03  0.71889366008E+03  0.29181878232E+01 0.  0.
         13    1    3    3    0    0  0.45187698930E+01  0.21261010531E+01 -0.66090377551E+02  0.66278786892E+02  0.00000000000E+00 0.  1.
          3    1    3    3  501    0  0.42176041726E+02  0.12084021604E+02 -0.65113848806E+03  0.65261487319E+03  0.00000000000E+00 0.  1.
         -1    1    1    2    0  502 -0.46694811619E+02 -0.14210122657E+02 -0.27982628088E+03  0.28405119343E+03  0.00000000000E+00 0. -1.
<mgrwt>
<rscale>  1 0.30000000E+03</rscale>
<asrwt>0</asrwt>
<pdfrwt beam="1">  1       21 0.10708581E-01 0.30000000E+03</pdfrwt>
<pdfrwt beam="2">0</pdfrwt>
<totfact> 0.76105333E+03</totfact>
</mgrwt>
</event>
<event>
 6    1  0.1284012E-001  0.3000000E+03  0.7818608E-02  0.1093470E+00
         21   -1    0    0  501  502  0.00000000000E+00  0.00000000000E+00  0.14366987741E+01  0.14366987741E+01  0.00000000000E+00 0. -1.
         13   -1    0    0    0    0 -0.00000000000E+00 -0.00000000000E+00 -0.10000000000E+04  0.10000000000E+04  0.00000000000E+00 0.  1.
    9000005    2    1    2  501    0  0.31553697076E+02  0.71198901453E+01 -0.75325542980E+03  0.75400533371E+03  0.91636293213E+01 0.  0.
         13    1    3    3    0    0  0.31364195305E+02  0.69181023081E+01 -0.68796739847E+03  0.68871671553E+03  0.00000000000E+00 0.  1.
          3    1    3    3  501    0  0.18950177093E+00  0.20178783718E+00 -0.65288031331E+02  0.65288618184E+02  0.00000000000E+00 0.  1.
         -1    1    1    2    0  502 -0.31553697076E+02 -0.71198901453E+01 -0.24530787142E+03  0.24743136506E+03  0.00000000000E+00 0. -1.
<mgrwt>
<rscale>  1 0.30000000E+03</rscale>
<asrwt>0</asrwt>
<pdfrwt beam="1">  1       21 0.52243702E-02 0.30000000E+03</pdfrwt>
<pdfrwt beam="2">0</pdfrwt>
<totfact> 0.26725528E+04</totfact>
</mgrwt>
</event>
<event>
 6    1  0.1284012E-001  0.3000000E+03  0.7818608E-02  0.1093470E+00
         21   -1    0    0  501  502  0.00000000000E+00  0.00000000000E+00  0.19018232936E+01  0.19018232936E+01  0.00000000000E+00 0. -1.
         13   -1    0    0    0    0 -0.00000000000E+00 -0.00000000000E+00 -0.10000000000E+04  0.10000000000E+04  0.00000000000E+00 0.  1.
    9000005    2    1    2  501    0 -0.33279423402E+02  0.28072520921E+02 -0.51000153909E+03  0.51186721829E+03  0.33004285476E+01 0.  0.
         13    1    3    3    0    0 -0.76487058506E+01  0.66183396830E+01 -0.10296177193E+03  0.10345739027E+03  0.00000000000E+00 0.  1.
          3    1    3    3  501    0 -0.25630717551E+02  0.21454181238E+02 -0.40703976716E+03  0.40840982802E+03  0.00000000000E+00 0.  1.
         -3    1    1    2    0  502  0.33279423402E+02 -0.28072520921E+02 -0.48809663761E+03  0.49003460500E+03  0.00000000000E+00 0. -1.
<mgrwt>
<rscale>  1 0.30000000E+03</rscale>
<asrwt>0</asrwt>
<pdfrwt beam="1">  1       21 0.69157357E-02 0.30000000E+03</pdfrwt>
<pdfrwt beam="2">0</pdfrwt>
<totfact> 0.16478809E+04</totfact>
</mgrwt>
</event>
<event>
 6    1  0.1284012E-001  0.3000000E+03  0.7818608E-02  0.1093470E+00
         21   -1    0    0  501  502  0.00000000000E+00  0.00000000000E+00  0.11332277790E+02  0.11332277790E+02  0.00000000000E+00 0. -1.
         13   -1    0    0    0    0 -0.00000000000E+00 -0.00000000000E+00 -0.10000000000E+04  0.10000000000E+04  0.00000000000E+00 0.  1.
    9000005    2    1    2  501    0  0.10116749427E+03  0.32935506236E+02 -0.50084787444E+03  0.51204497238E+03  0.46744985808E+01 0.  0.
         13    1    3    3    0    0  0.40811232731E+02  0.14985335428E+02 -0.21246332243E+03  0.21686581191E+03  0.00000000000E+00 0.  1.
          1    1    3    3  501    0  0.60356261539E+02  0.17950170808E+02 -0.28838455201E+03  0.29517916047E+03  0.00000000000E+00 0.  1.
         -3    1    1    2    0  502 -0.10116749427E+03 -0.32935506236E+02 -0.48781984777E+03  0.49928730541E+03  0.00000000000E+00 0. -1.
<mgrwt>
<rscale>  1 0.30000000E+03</rscale>
<asrwt>0</asrwt>
<pdfrwt beam="1">  1       21 0.41208370E-01 0.30000000E+03</pdfrwt>
<pdfrwt beam="2">0</pdfrwt>
<totfact> 0.56752362E+02</totfact>
</mgrwt>
</event>
<event>
 6    1  0.1284012E-001  0.3000000E+03  0.7818608E-02  0.1093470E+00
         21   -1    0    0  501  502  0.00000000000E+00  0.00000000000E+00  0.27965841282E+01  0.27965841282E+01  0.00000000000E+00 0. -1.
         13   -1    0    0    0    0 -0.00000000000E+00 -0.00000000000E+00 -0.10000000000E+04  0.10000000000E+04  0.00000000000E+00 0.  1.
    9000005    2    1    2  501    0  0.11087020517E+02 -0.33957390309E+02 -0.86724741849E+03  0.86802051936E+03  0.80938718225E+01 0.  0.
         13    1    3    3    0    0  0.14439930639E+01 -0.74764174932E+01 -0.11961338943E+03  0.11985551663E+03  0.00000000000E+00 0.  1.
          1    1    3    3  501    0  0.96430274533E+01 -0.26480972816E+02 -0.74763402906E+03  0.74816500273E+03  0.00000000000E+00 0.  1.
         -3    1    1    2    0  502 -0.11087020517E+02  0.33957390309E+02 -0.12995599738E+03  0.13477606477E+03  0.00000000000E+00 0. -1.
<mgrwt>
<rscale>  1 0.30000000E+03</rscale>
<asrwt>0</asrwt>
<pdfrwt beam="1">  1       21 0.10169418E-01 0.30000000E+03</pdfrwt>
<pdfrwt beam="2">0</pdfrwt>
<totfact> 0.83486506E+03</totfact>
</mgrwt>
</event>
<event>
 6    1  0.1284012E-001  0.3000000E+03  0.7818608E-02  0.1093470E+00
         21   -1    0    0  501  502  0.00000000000E+00  0.00000000000E+00  0.17282859967E+01  0.17282859967E+01  0.00000000000E+00 0. -1.
         13   -1    0    0    0    0 -0.00000000000E+00 -0.00000000000E+00 -0.10000000000E+04  0.10000000000E+04  0.00000000000E+00 0.  1.
    9000005    2    1    2  501    0  0.33644131575E+02  0.23564345928E+02 -0.57212128146E+03  0.57360284043E+03  0.32018520935E+01 0.  0.
         13    1    3    3    0    0  0.32124783707E+02  0.22462087413E+02 -0.53497983063E+03  0.53641398777E+03  0.00000000000E+00 0.  1.
          1    1    3    3  501    0  0.15193478682E+01  0.11022585146E+01 -0.37141450833E+02  0.37188852654E+02  0.00000000000E+00 0.  1.
         -3    1    1    2    0  502 -0.33644131575E+02 -0.23564345928E+02 -0.42615043254E+03  0.42812544557E+03  0.00000000000E+00 0. -1.
<mgrwt>
<rscale>  1 0.30000000E+03</rscale>
<asrwt>0</asrwt>
<pdfrwt beam="1">  1       21 0.62846896E-02 0.30000000E+03</pdfrwt>
<pdfrwt beam="2">0</pdfrwt>
<totfact> 0.19451038E+04</totfact>
</mgrwt>
</event>
<event>
 6    1  0.1284012E-001  0.3000000E+03  0.7818608E-02  0.1093470E+00
         21   -1    0    0  501  502  0.00000000000E+00  0.00000000000E+00  0.13604888291E+01  0.13604888291E+01  0.00000000000E+00 0. -1.
         13   -1    0    0    0    0 -0.00000000000E+00 -0.00000000000E+00 -0.10000000000E+04  0.10000000000E+04  0.00000000000E+00 0.  1.
    9000005    2    1    2  501    0 -0.15177167301E+02 -0.29608352379E+02 -0.71309676534E+03  0.71388586276E+03  0.43620373543E+01 0.  0.
         13    1    3    3    0    0 -0.64932662868E+01 -0.84075238330E+01 -0.23835755564E+03  0.23859416023E+03  0.00000000000E+00 0.  1.
          3    1    3    3  501    0 -0.86839010144E+01 -0.21200828546E+02 -0.47473920970E+03  0.47529170253E+03  0.00000000000E+00 0.  1.
         -3    1    1    2    0  502  0.15177167301E+02  0.29608352379E+02 -0.28554274583E+03  0.28747462607E+03  0.00000000000E+00 0. -1.
<mgrwt>
<rscale>  1 0.30000000E+03</rscale>
<asrwt>0</asrwt>
<pdfrwt beam="1">  1       21 0.49472425E-02 0.30000000E+03</pdfrwt>
<pdfrwt beam="2">0</pdfrwt>
<totfact> 0.29330130E+04</totfact>
</mgrwt>
</event>
<event>
 6    1  0.1284012E-001  0.3000000E+03  0.7818608E-02  0.1093470E+00
         21   -1    0    0  501  502  0.00000000000E+00  0.00000000000E+00  0.62421706601E+01  0.62421706601E+01  0.00000000000E+00 0. -1.
         13   -1    0    0    0    0 -0.00000000000E+00 -0.00000000000E+00 -0.10000000000E+04  0.10000000000E+04  0.00000000000E+00 0.  1.
    9000005    2    1    2  501    0  0.37249542532E+02 -0.88909703136E+01 -0.93691486501E+03  0.93770239852E+03  0.31218793421E+01 0.  0.
         13    1    3    3    0    0  0.24298911955E+02 -0.72570439216E+01 -0.62869527751E+03  0.62920652712E+03  0.00000000000E+00 0.  1.
          3    1    3    3  501    0  0.12950630576E+02 -0.16339263919E+01 -0.30821958751E+03  0.30849587140E+03  0.00000000000E+00 0.  1.
         -1    1    1    2    0  502 -0.37249542532E+02  0.88909703136E+01 -0.56842964326E+02  0.68539772143E+02  0.00000000000E+00 0. -1.
<mgrwt>
<rscale>  1 0.30000000E+03</rscale>
<asrwt>0</asrwt>
<pdfrwt beam="1">  1       21 0.22698850E-01 0.30000000E+03</pdfrwt>
<pdfrwt beam="2">0</pdfrwt>
<totfact> 0.18816196E+03</totfact>
</mgrwt>
</event>
<event>
 6    1  0.1284012E-001  0.3000000E+03  0.7818608E-02  0.1093470E+00
         21   -1    0    0  501  502  0.00000000000E+00  0.00000000000E+00  0.15102113653E+01  0.15102113653E+01  0.00000000000E+00 0. -1.
         13   -1    0    0    0    0 -0.00000000000E+00 -0.00000000000E+00 -0.10000000000E+04  0.10000000000E+04  0.00000000000E+00 0.  1.
    9000005    2    1    2  501    0  0.16391531593E+02  0.29083087374E+02 -0.75432542425E+03  0.75507412409E+03  0.39470130514E+01 0.  0.
         13    1    3    3    0    0  0.33357118520E+01  0.80890886942E+01 -0.16797174437E+03  0.16819948643E+03  0.00000000000E+00 0.  1.
          1    1    3    3  501    0  0.13055819741E+02  0.20993998679E+02 -0.58635367988E+03  0.58687463765E+03  0.00000000000E+00 0.  1.
         -1    1    1    2    0  502 -0.16391531593E+02 -0.29083087374E+02 -0.24416436438E+03  0.24643608728E+03  0.00000000000E+00 0. -1.
<mgrwt>
<rscale>  1 0.30000000E+03</rscale>
<asrwt>0</asrwt>
<pdfrwt beam="1">  1       21 0.54916893E-02 0.30000000E+03</pdfrwt>
<pdfrwt beam="2">0</pdfrwt>
<totfact> 0.24537687E+04</totfact>
</mgrwt>
</event>
<event>
 6    1  0.1284012E-001  0.3000000E+03  0.7818608E-02  0.1093470E+00
         21   -1    0    0  501  502  0.00000000000E+00  0.00000000000E+00  0.10626782191E+01  0.10626782191E+01  0.00000000000E+00 0. -1.
         13   -1    0    0    0    0 -0.00000000000E+00 -0.00000000000E+00 -0.10000000000E+04  0.10000000000E+04  0.00000000000E+00 0.  1.
    9000005    2    1    2  501    0 -0.14893430039E+02  0.26053297151E+02 -0.69257662110E+03  0.69323566921E+03  0.35676920983E+01 0.  0.
         13    1    3    3    0    0 -0.23944166304E+01  0.35861583220E+01 -0.13077615706E+03  0.13084722778E+03  0.00000000000E+00 0.  1.
          3    1    3    3  501    0 -0.12499013409E+02  0.22467138829E+02 -0.56180046404E+03  0.56238844143E+03  0.00000000000E+00 0.  1.
         -3    1    1    2    0  502  0.14893430039E+02 -0.26053297151E+02 -0.30636070068E+03  0.30782700901E+03  0.00000000000E+00 0. -1.
<mgrwt>
<rscale>  1 0.30000000E+03</rscale>
<asrwt>0</asrwt>
<pdfrwt beam="1">  1       21 0.38642926E-02 0.30000000E+03</pdfrwt>
<pdfrwt beam="2">0</pdfrwt>
<totfact> 0.44561631E+04</totfact>
</mgrwt>
</event>
<event>
 6    1  0.1284012E-001  0.3000000E+03  0.7818608E-02  0.1093470E+00
         21   -1    0    0  501  502  0.00000000000E+00  0.00000000000E+00  0.23116139043E+01  0.23116139043E+01  0.00000000000E+00 0. -1.
         13   -1    0    0    0    0 -0.00000000000E+00 -0.00000000000E+00 -0.10000000000E+04  0.10000000000E+04  0.00000000000E+00 0.  1.
    9000005    2    1    2  501    0 -0.16946639457E+02 -0.41091697545E+02 -0.68904495282E+03  0.69048396103E+03  0.30720075136E+01 0.  0.
         13    1    3    3    0    0 -0.15260914596E+02 -0.36608977039E+02 -0.59892594758E+03  0.60023778904E+03  0.00000000000E+00 0.  1.
          3    1    3    3  501    0 -0.16857248608E+01 -0.44827205053E+01 -0.90119005245E+02  0.90246171984E+02  0.00000000000E+00 0.  1.
         -3    1    1    2    0  502  0.16946639457E+02  0.41091697545E+02 -0.30864343327E+03  0.31182765288E+03  0.00000000000E+00 0. -1.
<mgrwt>
<rscale>  1 0.30000000E+03</rscale>
<asrwt>0</asrwt>
<pdfrwt beam="1">  1       21 0.84058865E-02 0.30000000E+03</pdfrwt>
<pdfrwt beam="2">0</pdfrwt>
<totfact> 0.11708811E+04</totfact>
</mgrwt>
</event>
<event>
 6    1  0.1284012E-001  0.3000000E+03  0.7818608E-02  0.1093470E+00
         21   -1    0    0  501  502  0.00000000000E+00  0.00000000000E+00  0.23370851525E+02  0.23370851525E+02  0.00000000000E+00 0. -1.
         13   -1    0    0    0    0 -0.00000000000E+00 -0.00000000000E+00 -0.10000000000E+04  0.10000000000E+04  0.00000000000E+00 0.  1.
    9000005    2    1    2  501    0 -0.45484791923E+01 -0.12204961002E+03 -0.79601159444E+03  0.80533531131E+03  0.37025935254E+01 0.  0.
         13    1    3    3    0    0 -0.66297075918E-01 -0.10009912621E+01 -0.91187214112E+01  0.91737374600E+01  0.00000000000E+00 0.  1.
          3    1    3    3  501    0 -0.44821821163E+01 -0.12104861876E+03 -0.78689287303E+03  0.79616157385E+03  0.00000000000E+00 0.  1.
         -1    1    1    2    0  502  0.45484791923E+01  0.12204961002E+03 -0.18061755404E+03  0.21803554021E+03  0.00000000000E+00 0. -1.
<mgrwt>
<rscale>  1 0.30000000E+03</rscale>
<asrwt>0</asrwt>
<pdfrwt beam="1">  1       21 0.84985094E-01 0.30000000E+03</pdfrwt>
<pdfrwt beam="2">0</pdfrwt>
<totfact> 0.11107965E+02</totfact>
</mgrwt>
</event>
<event>
 6    1  0.1284012E-001  0.3000000E+03  0.7818608E-02  0.1093470E+00
         21   -1    0    0  501  502  0.00000000000E+00  0.00000000000E+00  0.19664991001E+01  0.19664991001E+01  0.00000000000E+00 0. -1.
         13   -1    0    0    0    0 -0.00000000000E+00 -0.00000000000E+00 -0.10000000000E+04  0.10000000000E+04  0.00000000000E+00 0.  1.
    9000005    2    1    2  501    0  0.19590507809E+02  0.33150899703E+02 -0.74691836929E+03  0.74791615080E+03  0.29577185694E+01 0.  0.
         13    1    3    3    0    0  0.86208238057E+01  0.12898518815E+02 -0.32352260650E+03  0.32389437678E+03  0.00000000000E+00 0.  1.
          1    1    3    3  501    0  0.10969684003E+02  0.20252380888E+02 -0.42339576279E+03  0.42402177402E+03  0.00000000000E+00 0.  1.
         -1    1    1    2    0  502 -0.19590507809E+02 -0.33150899703E+02 -0.25111513161E+03  0.25405034830E+03  0.00000000000E+00 0. -1.
<mgrwt>
<rscale>  1 0.30000000E+03</rscale>
<asrwt>0</asrwt>
<pdfrwt beam="1">  1       21 0.71509209E-02 0.30000000E+03</pdfrwt>
<pdfrwt beam="2">0</pdfrwt>
<totfact> 0.15546765E+04</totfact>
</mgrwt>
</event>
<event>
 6    1  0.1284012E-001  0.3000000E+03  0.7818608E-02  0.1093470E+00
         21   -1    0    0  501  502  0.00000000000E+00  0.00000000000E+00  0.88380308678E+01  0.88380308678E+01  0.00000000000E+00 0. -1.
         13   -1    0    0    0    0 -0.00000000000E+00 -0.00000000000E+00 -0.10000000000E+04  0.10000000000E+04  0.00000000000E+00 0.  1.
    9000005    2    1    2  501    0  0.39741163014E+02  0.32927079511E+01 -0.95235310509E+03  0.95319335555E+03  0.33067081965E+01 0.  0.
         13    1    3    3    0    0  0.36677952289E+02  0.22317650291E+01 -0.88412839297E+03  0.88489167033E+03  0.00000000000E+00 0.  1.
          1    1    3    3  501    0  0.30632107258E+01  0.10609429220E+01 -0.68224712121E+02  0.68301685219E+02  0.00000000000E+00 0.  1.
         -3    1    1    2    0  502 -0.39741163014E+02 -0.32927079511E+01 -0.38808864041E+02  0.55644675320E+02  0.00000000000E+00 0. -1.
<mgrwt>
<rscale>  1 0.30000000E+03</rscale>
<asrwt>0</asrwt>
<pdfrwt beam="1">  1       21 0.32138362E-01 0.30000000E+03</pdfrwt>
<pdfrwt beam="2">0</pdfrwt>
<totfact> 0.94667193E+02</totfact>
</mgrwt>
</event>
<event>
 6    1  0.1284012E-001  0.3000000E+03  0.7818608E-02  0.1093470E+00
         21   -1    0    0  501  502  0.00000000000E+00  0.00000000000E+00  0.23647570672E+01  0.23647570672E+01  0.00000000000E+00 0. -1.
         13   -1    0    0    0    0 -0.00000000000E+00 -0.00000000000E+00 -0.10000000000E+04  0.10000000000E+04  0.00000000000E+00 0.  1.
    9000005    2    1    2  501    0 -0.34013263671E+02 -0.33672702849E+02 -0.58077406261E+03  0.58276495168E+03  0.50718912508E+01 0.  0.
         13    1    3    3    0    0 -0.20329457295E+01 -0.10864941749E+01 -0.40276607049E+02  0.40342513721E+02  0.00000000000E+00 0.  1.
          3    1    3    3  501    0 -0.31980317941E+02 -0.32586208674E+02 -0.54049745557E+03  0.54242243796E+03  0.00000000000E+00 0.  1.
         -3    1    1    2    0  502  0.34013263671E+02  0.33672702849E+02 -0.41686118032E+03  0.41959980539E+03  0.00000000000E+00 0. -1.
<mgrwt>
<rscale>  1 0.30000000E+03</rscale>
<asrwt>0</asrwt>
<pdfrwt beam="1">  1       21 0.85991347E-02 0.30000000E+03</pdfrwt>
<pdfrwt beam="2">0</pdfrwt>
<totfact> 0.11248788E+04</totfact>
</mgrwt>
</event>
<event>
 6    1  0.1284012E-001  0.3000000E+03  0.7818608E-02  0.1093470E+00
         21   -1    0    0  501  502  0.00000000000E+00  0.00000000000E+00  0.11379220643E+01  0.11379220643E+01  0.00000000000E+00 0. -1.
         13   -1    0    0    0    0 -0.00000000000E+00 -0.00000000000E+00 -0.10000000000E+04  0.10000000000E+04  0.00000000000E+00 0.  1.
    9000005    2    1    2  501    0  0.18859084359E+02 -0.26908272892E+02 -0.60210372345E+03  0.60302121548E+03  0.50963031063E+01 0.  0.
         13    1    3    3    0    0  0.18238422831E+02 -0.24295653506E+02 -0.56805135415E+03  0.56886312923E+03  0.00000000000E+00 0.  1.
          1    1    3    3  501    0  0.62066152808E+00 -0.26126193860E+01 -0.34052369309E+02  0.34158086251E+02  0.00000000000E+00 0.  1.
         -3    1    1    2    0  502 -0.18859084359E+02  0.26908272892E+02 -0.39675835448E+03  0.39811670659E+03  0.00000000000E+00 0. -1.
<mgrwt>
<rscale>  1 0.30000000E+03</rscale>
<asrwt>0</asrwt>
<pdfrwt beam="1">  1       21 0.41379071E-02 0.30000000E+03</pdfrwt>
<pdfrwt beam="2">0</pdfrwt>
<totfact> 0.39712378E+04</totfact>
</mgrwt>
</event>
<event>
 6    1  0.1284012E-001  0.3000000E+03  0.7818608E-02  0.1093470E+00
         21   -1    0    0  501  502  0.00000000000E+00  0.00000000000E+00  0.80993269167E+01  0.80993269167E+01  0.00000000000E+00 0. -1.
         13   -1    0    0    0    0 -0.00000000000E+00 -0.00000000000E+00 -0.10000000000E+04  0.10000000000E+04  0.00000000000E+00 0.  1.
    9000005    2    1    2  501    0 -0.45081274547E+02  0.76136895343E+02 -0.58727450433E+03  0.59391158616E+03  0.32373755226E+01 0.  0.
         13    1    3    3    0    0 -0.25208564818E+02  0.42465174749E+02 -0.31694602937E+03  0.32077024229E+03  0.00000000000E+00 0.  1.
          1    1    3    3  501    0 -0.19872709729E+02  0.33671720593E+02 -0.27032847495E+03  0.27314134387E+03  0.00000000000E+00 0.  1.
         -3    1    1    2    0  502  0.45081274547E+02 -0.76136895343E+02 -0.40462616876E+03  0.41418774075E+03  0.00000000000E+00 0. -1.
<mgrwt>
<rscale>  1 0.30000000E+03</rscale>
<asrwt>0</asrwt>
<pdfrwt beam="1">  1       21 0.29452160E-01 0.30000000E+03</pdfrwt>
<pdfrwt beam="2">0</pdfrwt>
<totfact> 0.11280600E+03</totfact>
</mgrwt>
</event>
<event>
 6    1  0.1284012E-001  0.3000000E+03  0.7818608E-02  0.1093470E+00
         21   -1    0    0  501  502  0.00000000000E+00  0.00000000000E+00  0.12583876586E+01  0.12583876586E+01  0.00000000000E+00 0. -1.
         13   -1    0    0    0    0 -0.00000000000E+00 -0.00000000000E+00 -0.10000000000E+04  0.10000000000E+04  0.00000000000E+00 0.  1.
    9000005    2    1    2  501    0  0.29199218851E+02 -0.14668866990E+02 -0.69172840256E+03  0.69251111071E+03  0.39604941960E+01 0.  0.
         13    1    3    3    0    0  0.20635609041E+02 -0.12221313891E+02 -0.51645233700E+03  0.51700890250E+03  0.00000000000E+00 0.  1.
          3    1    3    3  501    0  0.85636098103E+01 -0.24475530991E+01 -0.17527606556E+03  0.17550220821E+03  0.00000000000E+00 0.  1.
         -1    1    1    2    0  502 -0.29199218851E+02  0.14668866990E+02 -0.30701320978E+03  0.30874727694E+03  0.00000000000E+00 0. -1.
<mgrwt>
<rscale>  1 0.30000000E+03</rscale>
<asrwt>0</asrwt>
<pdfrwt beam="1">  1       21 0.45759648E-02 0.30000000E+03</pdfrwt>
<pdfrwt beam="2">0</pdfrwt>
<totfact> 0.33492535E+04</totfact>
</mgrwt>
</event>
<event>
 6    1  0.1284012E-001  0.3000000E+03  0.7818608E-02  0.1093470E+00
         21   -1    0    0  501  502  0.00000000000E+00  0.00000000000E+00  0.27248000678E+01  0.27248000678E+01  0.00000000000E+00 0. -1.
         13   -1    0    0    0    0 -0.00000000000E+00 -0.00000000000E+00 -0.10000000000E+04  0.10000000000E+04  0.00000000000E+00 0.  1.
    9000005    2    1    2  501    0  0.15202548652E+02  0.49381959174E+02 -0.56638072647E+03  0.56874353015E+03  0.35185786590E+01 0.  0.
         13    1    3    3    0    0  0.65146677609E+00  0.56436533720E+01 -0.66137297187E+02  0.66380850488E+02  0.00000000000E+00 0.  1.
          3    1    3    3  501    0  0.14551081876E+02  0.43738305802E+02 -0.50024342928E+03  0.50236267967E+03  0.00000000000E+00 0.  1.
         -3    1    1    2    0  502 -0.15202548652E+02 -0.49381959174E+02 -0.43089447346E+03  0.43398126991E+03  0.00000000000E+00 0. -1.
<mgrwt>
<rscale>  1 0.30000000E+03</rscale>
<asrwt>0</asrwt>
<pdfrwt beam="1">  1       21 0.99083848E-02 0.30000000E+03</pdfrwt>
<pdfrwt beam="2">0</pdfrwt>
<totfact> 0.87458132E+03</totfact>
</mgrwt>
</event>
<event>
 6    1  0.1284012E-001  0.3000000E+03  0.7818608E-02  0.1093470E+00
         21   -1    0    0  501  502  0.00000000000E+00  0.00000000000E+00  0.36766806557E+01  0.36766806557E+01  0.00000000000E+00 0. -1.
         13   -1    0    0    0    0 -0.00000000000E+00 -0.00000000000E+00 -0.10000000000E+04  0.10000000000E+04  0.00000000000E+00 0.  1.
    9000005    2    1    2  501    0  0.45183252146E+02 -0.15959072681E+02 -0.80536537893E+03  0.80679815648E+03  0.36950562874E+01 0.  0.
         13    1    3    3    0    0  0.27852927897E+02 -0.88929373929E+01 -0.46434420236E+03  0.46526380495E+03  0.00000000000E+00 0.  1.
          1    1    3    3  501    0  0.17330324249E+02 -0.70661352885E+01 -0.34102117656E+03  0.34153435153E+03  0.00000000000E+00 0.  1.
         -3    1    1    2    0  502 -0.45183252146E+02  0.15959072681E+02 -0.19095794041E+03  0.19687852418E+03  0.00000000000E+00 0. -1.
<mgrwt>
<rscale>  1 0.30000000E+03</rscale>
<asrwt>0</asrwt>
<pdfrwt beam="1">  1       21 0.13369776E-01 0.30000000E+03</pdfrwt>
<pdfrwt beam="2">0</pdfrwt>
<totfact> 0.50888077E+03</totfact>
</mgrwt>
</event>
<event>
 6    1  0.1284012E-001  0.3000000E+03  0.7818608E-02  0.1093470E+00
         21   -1    0    0  501  502  0.00000000000E+00  0.00000000000E+00  0.61991582473E+01  0.61991582473E+01  0.00000000000E+00 0. -1.
         13   -1    0    0    0    0 -0.00000000000E+00 -0.00000000000E+00 -0.10000000000E+04  0.10000000000E+04  0.00000000000E+00 0.  1.
    9000005    2    1    2  501    0  0.53436430511E+02  0.34720081870E+02 -0.79217604688E+03  0.79474350308E+03  0.36620024553E+01 0.  0.
         13    1    3    3    0    0  0.29079067906E+02  0.20509041897E+02 -0.42676026374E+03  0.42824121205E+03  0.00000000000E+00 0.  1.
          1    1    3    3  501    0  0.24357362604E+02  0.14211039973E+02 -0.36541578314E+03  0.36650229104E+03  0.00000000000E+00 0.  1.
         -3    1    1    2    0  502 -0.53436430511E+02 -0.34720081870E+02 -0.20162479488E+03  0.21145565516E+03  0.00000000000E+00 0. -1.
<mgrwt>
<rscale>  1 0.30000000E+03</rscale>
<asrwt>0</asrwt>
<pdfrwt beam="1">  1       21 0.22542441E-01 0.30000000E+03</pdfrwt>
<pdfrwt beam="2">0</pdfrwt>
<totfact> 0.19069134E+03</totfact>
</mgrwt>
</event>
<event>
 6    1  0.1284012E-001  0.3000000E+03  0.7818608E-02  0.1093470E+00
         21   -1    0    0  501  502  0.00000000000E+00  0.00000000000E+00  0.11203989390E+01  0.11203989390E+01  0.00000000000E+00 0. -1.
         13   -1    0    0    0    0 -0.00000000000E+00 -0.00000000000E+00 -0.10000000000E+04  0.10000000000E+04  0.00000000000E+00 0.  1.
    9000005    2    1    2  501    0  0.27351458750E+02 -0.18857493565E+02 -0.44946197985E+03  0.45069926031E+03  0.31693135621E+01 0.  0.
         13    1    3    3    0    0  0.83941116008E+01 -0.53209646229E+01 -0.15408583766E+03  0.15440602042E+03  0.00000000000E+00 0.  1.
          1    1    3    3  501    0  0.18957347149E+02 -0.13536528942E+02 -0.29537614220E+03  0.29629323989E+03  0.00000000000E+00 0.  1.
         -1    1    1    2    0  502 -0.27351458750E+02  0.18857493565E+02 -0.54941762121E+03  0.55042113863E+03  0.00000000000E+00 0. -1.
<mgrwt>
<rscale>  1 0.30000000E+03</rscale>
<asrwt>0</asrwt>
<pdfrwt beam="1">  1       21 0.40741866E-02 0.30000000E+03</pdfrwt>
<pdfrwt beam="2">0</pdfrwt>
<totfact> 0.40765412E+04</totfact>
</mgrwt>
</event>
<event>
 6    1  0.1284012E-001  0.3000000E+03  0.7818608E-02  0.1093470E+00
         21   -1    0    0  501  502  0.00000000000E+00  0.00000000000E+00  0.11320938796E+01  0.11320938796E+01  0.00000000000E+00 0. -1.
         13   -1    0    0    0    0 -0.00000000000E+00 -0.00000000000E+00 -0.10000000000E+04  0.10000000000E+04  0.00000000000E+00 0.  1.
    9000005    2    1    2  501    0  0.25321060883E+02 -0.21038306783E+02 -0.40456560200E+03  0.40591869084E+03  0.35903724160E+01 0.  0.
         13    1    3    3    0    0  0.11728852157E+02 -0.87493086334E+01 -0.16009430875E+03  0.16076163743E+03  0.00000000000E+00 0.  1.
          1    1    3    3  501    0  0.13592208726E+02 -0.12288998150E+02 -0.24447129325E+03  0.24515705341E+03  0.00000000000E+00 0.  1.
         -1    1    1    2    0  502 -0.25321060883E+02  0.21038306783E+02 -0.59430230412E+03  0.59521340304E+03  0.00000000000E+00 0. -1.
<mgrwt>
<rscale>  1 0.30000000E+03</rscale>
<asrwt>0</asrwt>
<pdfrwt beam="1">  1       21 0.41167137E-02 0.30000000E+03</pdfrwt>
<pdfrwt beam="2">0</pdfrwt>
<totfact> 0.40057862E+04</totfact>
</mgrwt>
</event>
<event>
 6    1  0.1284012E-001  0.3000000E+03  0.7818608E-02  0.1093470E+00
         21   -1    0    0  501  502  0.00000000000E+00  0.00000000000E+00  0.37820465793E+01  0.37820465793E+01  0.00000000000E+00 0. -1.
         13   -1    0    0    0    0 -0.00000000000E+00 -0.00000000000E+00 -0.10000000000E+04  0.10000000000E+04  0.00000000000E+00 0.  1.
    9000005    2    1    2  501    0 -0.32141273297E+02  0.34766979353E+02 -0.81812324799E+03  0.81950093414E+03  0.37852131473E+01 0.  0.
         13    1    3    3    0    0 -0.26449343350E+02  0.30381323265E+02 -0.70464674471E+03  0.70579715741E+03  0.00000000000E+00 0.  1.
          1    1    3    3  501    0 -0.56919299469E+01  0.43856560878E+01 -0.11347650328E+03  0.11370377673E+03  0.00000000000E+00 0.  1.
         -1    1    1    2    0  502  0.32141273297E+02 -0.34766979353E+02 -0.17809470543E+03  0.18428111244E+03  0.00000000000E+00 0. -1.
<mgrwt>
<rscale>  1 0.30000000E+03</rscale>
<asrwt>0</asrwt>
<pdfrwt beam="1">  1       21 0.13752926E-01 0.30000000E+03</pdfrwt>
<pdfrwt beam="2">0</pdfrwt>
<totfact> 0.48320761E+03</totfact>
</mgrwt>
</event>
<event>
 6    1  0.1284012E-001  0.3000000E+03  0.7818608E-02  0.1093470E+00
         21   -1    0    0  501  502  0.00000000000E+00  0.00000000000E+00  0.18088116304E+01  0.18088116304E+01  0.00000000000E+00 0. -1.
         13   -1    0    0    0    0 -0.00000000000E+00 -0.00000000000E+00 -0.10000000000E+04  0.10000000000E+04  0.00000000000E+00 0.  1.
    9000005    2    1    2  501    0  0.36814683069E+02  0.43457989273E+01 -0.74176697191E+03  0.74271889356E+03  0.62375780160E+01 0.  0.
         13    1    3    3    0    0  0.15619869411E+02  0.30816208168E+00 -0.36561331741E+03  0.36594695401E+03  0.00000000000E+00 0.  1.
          1    1    3    3  501    0  0.21194813658E+02  0.40376368456E+01 -0.37615365451E+03  0.37677193955E+03  0.00000000000E+00 0.  1.
         -1    1    1    2    0  502 -0.36814683069E+02 -0.43457989273E+01 -0.25642421646E+03  0.25908991807E+03  0.00000000000E+00 0. -1.
<mgrwt>
<rscale>  1 0.30000000E+03</rscale>
<asrwt>0</asrwt>
<pdfrwt beam="1">  1       21 0.65775107E-02 0.30000000E+03</pdfrwt>
<pdfrwt beam="2">0</pdfrwt>
<totfact> 0.17977132E+04</totfact>
</mgrwt>
</event>
<event>
 6    1  0.1284012E-001  0.3000000E+03  0.7818608E-02  0.1093470E+00
         21   -1    0    0  501  502  0.00000000000E+00  0.00000000000E+00  0.20168993159E+01  0.20168993159E+01  0.00000000000E+00 0. -1.
         13   -1    0    0    0    0 -0.00000000000E+00 -0.00000000000E+00 -0.10000000000E+04  0.10000000000E+04  0.00000000000E+00 0.  1.
    9000005    2    1    2  501    0  0.88338420016E+01 -0.37507085791E+02 -0.75619684574E+03  0.75717937905E+03  0.14574997546E+01 0.  0.
         13    1    3    3    0    0  0.80923306582E-01 -0.13195247367E+01 -0.28850167045E+02  0.28880440312E+02  0.00000000000E+00 0.  1.
          1    1    3    3  501    0  0.87529186950E+01 -0.36187561054E+02 -0.72734667869E+03  0.72829893874E+03  0.00000000000E+00 0.  1.
         -1    1    1    2    0  502 -0.88338420016E+01  0.37507085791E+02 -0.24178625495E+03  0.24483752027E+03  0.00000000000E+00 0. -1.
<mgrwt>
<rscale>  1 0.30000000E+03</rscale>
<asrwt>0</asrwt>
<pdfrwt beam="1">  1       21 0.73341948E-02 0.30000000E+03</pdfrwt>
<pdfrwt beam="2">0</pdfrwt>
<totfact> 0.14874981E+04</totfact>
</mgrwt>
</event>
<event>
 6    1  0.1284012E-001  0.3000000E+03  0.7818608E-02  0.1093470E+00
         21   -1    0    0  501  502  0.00000000000E+00  0.00000000000E+00  0.12722858881E+01  0.12722858881E+01  0.00000000000E+00 0. -1.
         13   -1    0    0    0    0 -0.00000000000E+00 -0.00000000000E+00 -0.10000000000E+04  0.10000000000E+04  0.00000000000E+00 0.  1.
    9000005    2    1    2  501    0  0.28642639862E+02 -0.16961265140E+02 -0.32777850719E+03  0.32949782701E+03  0.46885919454E+01 0.  0.
         13    1    3    3    0    0  0.20347838888E+02 -0.14355558477E+02 -0.24782473104E+03  0.24907270810E+03  0.00000000000E+00 0.  1.
          1    1    3    3  501    0  0.82948009741E+01 -0.26057066631E+01 -0.79953776154E+02  0.80425118910E+02  0.00000000000E+00 0.  1.
         -3    1    1    2    0  502 -0.28642639862E+02  0.16961265140E+02 -0.67094920692E+03  0.67177445888E+03  0.00000000000E+00 0. -1.
<mgrwt>
<rscale>  1 0.30000000E+03</rscale>
<asrwt>0</asrwt>
<pdfrwt beam="1">  1       21 0.46265039E-02 0.30000000E+03</pdfrwt>
<pdfrwt beam="2">0</pdfrwt>
<totfact> 0.32873311E+04</totfact>
</mgrwt>
</event>
<event>
 6    1  0.1284012E-001  0.3000000E+03  0.7818608E-02  0.1093470E+00
         21   -1    0    0  501  502  0.00000000000E+00  0.00000000000E+00  0.53158745244E+01  0.53158745244E+01  0.00000000000E+00 0. -1.
         13   -1    0    0    0    0 -0.00000000000E+00 -0.00000000000E+00 -0.10000000000E+04  0.10000000000E+04  0.00000000000E+00 0.  1.
    9000005    2    1    2  501    0 -0.64073625609E+02 -0.34614758144E+02 -0.49789484488E+03  0.50321707917E+03  0.49539107690E+01 0.  0.
         13    1    3    3    0    0 -0.55541631403E+02 -0.30766850690E+02 -0.44369390868E+03  0.44821396287E+03  0.00000000000E+00 0.  1.
          3    1    3    3  501    0 -0.85319942064E+01 -0.38479074536E+01 -0.54200936204E+02  0.55003116296E+02  0.00000000000E+00 0.  1.
         -1    1    1    2    0  502  0.64073625609E+02  0.34614758144E+02 -0.49678928060E+03  0.50209879535E+03  0.00000000000E+00 0. -1.
<mgrwt>
<rscale>  1 0.30000000E+03</rscale>
<asrwt>0</asrwt>
<pdfrwt beam="1">  1       21 0.19330494E-01 0.30000000E+03</pdfrwt>
<pdfrwt beam="2">0</pdfrwt>
<totfact> 0.25599352E+03</totfact>
</mgrwt>
</event>
<event>
 6    1  0.1284012E-001  0.3000000E+03  0.7818608E-02  0.1093470E+00
         21   -1    0    0  501  502  0.00000000000E+00  0.00000000000E+00  0.95471064290E+00  0.95471064290E+00  0.00000000000E+00 0. -1.
         13   -1    0    0    0    0 -0.00000000000E+00 -0.00000000000E+00 -0.10000000000E+04  0.10000000000E+04  0.00000000000E+00 0.  1.
    9000005    2    1    2  501    0 -0.61742876421E+01  0.29974588695E+02 -0.44433850445E+03  0.44540433938E+03  0.34236239203E+01 0.  0.
         13    1    3    3    0    0 -0.34805867030E+01  0.11120479494E+02 -0.15187318980E+03  0.15231955005E+03  0.00000000000E+00 0.  1.
          1    1    3    3  501    0 -0.26937009391E+01  0.18854109201E+02 -0.29246531465E+03  0.29308478932E+03  0.00000000000E+00 0.  1.
         -3    1    1    2    0  502  0.61742876421E+01 -0.29974588695E+02 -0.55470678490E+03  0.55555037127E+03  0.00000000000E+00 0. -1.
<mgrwt>
<rscale>  1 0.30000000E+03</rscale>
<asrwt>0</asrwt>
<pdfrwt beam="1">  1       21 0.34716824E-02 0.30000000E+03</pdfrwt>
<pdfrwt beam="2">0</pdfrwt>
<totfact> 0.53337220E+04</totfact>
</mgrwt>
</event>
<event>
 6    1  0.1284012E-001  0.3000000E+03  0.7818608E-02  0.1093470E+00
         21   -1    0    0  501  502  0.00000000000E+00  0.00000000000E+00  0.20909835122E+01  0.20909835122E+01  0.00000000000E+00 0. -1.
         13   -1    0    0    0    0 -0.00000000000E+00 -0.00000000000E+00 -0.10000000000E+04  0.10000000000E+04  0.00000000000E+00 0.  1.
    9000005    2    1    2  501    0 -0.39607334425E+02 -0.25530385394E+01 -0.74725780494E+03  0.74831689343E+03  0.29473725563E+01 0.  0.
         13    1    3    3    0    0 -0.14791991833E+02 -0.13772465279E+00 -0.25662109667E+03  0.25704709539E+03  0.00000000000E+00 0.  1.
          3    1    3    3  501    0 -0.24815342592E+02 -0.24153138866E+01 -0.49063670826E+03  0.49126979804E+03  0.00000000000E+00 0.  1.
         -1    1    1    2    0  502  0.39607334425E+02  0.25530385394E+01 -0.25065121155E+03  0.25377409008E+03  0.00000000000E+00 0. -1.
<mgrwt>
<rscale>  1 0.30000000E+03</rscale>
<asrwt>0</asrwt>
<pdfrwt beam="1">  1       21 0.76035924E-02 0.30000000E+03</pdfrwt>
<pdfrwt beam="2">0</pdfrwt>
<totfact> 0.13964891E+04</totfact>
</mgrwt>
</event>
<event>
 6    1  0.1284012E-001  0.3000000E+03  0.7818608E-02  0.1093470E+00
         21   -1    0    0  501  502  0.00000000000E+00  0.00000000000E+00  0.23806766337E+01  0.23806766337E+01  0.00000000000E+00 0. -1.
         13   -1    0    0    0    0 -0.00000000000E+00 -0.00000000000E+00 -0.10000000000E+04  0.10000000000E+04  0.00000000000E+00 0.  1.
    9000005    2    1    2  501    0 -0.45146327700E+02  0.16587778574E+02 -0.58152476262E+03  0.58351550885E+03  0.24401272864E+01 0.  0.
         13    1    3    3    0    0 -0.39424270920E+02  0.15249444602E+02 -0.51467753836E+03  0.51641048323E+03  0.00000000000E+00 0.  1.
          3    1    3    3  501    0 -0.57220567804E+01  0.13383339721E+01 -0.66847224259E+02  0.67105025614E+02  0.00000000000E+00 0.  1.
         -3    1    1    2    0  502  0.45146327700E+02 -0.16587778574E+02 -0.41609456075E+03  0.41886516779E+03  0.00000000000E+00 0. -1.
<mgrwt>
<rscale>  1 0.30000000E+03</rscale>
<asrwt>0</asrwt>
<pdfrwt beam="1">  1       21 0.86570242E-02 0.30000000E+03</pdfrwt>
<pdfrwt beam="2">0</pdfrwt>
<totfact> 0.11116337E+04</totfact>
</mgrwt>
</event>
<event>
 6    1  0.1284012E-001  0.3000000E+03  0.7818608E-02  0.1093470E+00
         21   -1    0    0  501  502  0.00000000000E+00  0.00000000000E+00  0.97035608178E+00  0.97035608178E+00  0.00000000000E+00 0. -1.
         13   -1    0    0    0    0 -0.00000000000E+00 -0.00000000000E+00 -0.10000000000E+04  0.10000000000E+04  0.00000000000E+00 0.  1.
    9000005    2    1    2  501    0 -0.10684640793E+02 -0.28740387243E+02 -0.58061254723E+03  0.58143127779E+03  0.33510283576E+01 0.  0.
         13    1    3    3    0    0 -0.37187955308E+00 -0.13020894535E+00 -0.47881331152E+01  0.48043175895E+01  0.00000000000E+00 0.  1.
          1    1    3    3  501    0 -0.10312761240E+02 -0.28610178297E+02 -0.57582441411E+03  0.57662696020E+03  0.00000000000E+00 0.  1.
         -1    1    1    2    0  502  0.10684640793E+02  0.28740387243E+02 -0.41841709669E+03  0.41953907829E+03  0.00000000000E+00 0. -1.
<mgrwt>
<rscale>  1 0.30000000E+03</rscale>
<asrwt>0</asrwt>
<pdfrwt beam="1">  1       21 0.35285750E-02 0.30000000E+03</pdfrwt>
<pdfrwt beam="2">0</pdfrwt>
<totfact> 0.51905055E+04</totfact>
</mgrwt>
</event>
<event>
 6    1  0.1284012E-001  0.3000000E+03  0.7818608E-02  0.1093470E+00
         21   -1    0    0  501  502  0.00000000000E+00  0.00000000000E+00  0.64419345397E+01  0.64419345397E+01  0.00000000000E+00 0. -1.
         13   -1    0    0    0    0 -0.00000000000E+00 -0.00000000000E+00 -0.10000000000E+04  0.10000000000E+04  0.00000000000E+00 0.  1.
    9000005    2    1    2  501    0 -0.27389489295E+02  0.23901505835E+02 -0.94521073470E+03  0.94595284051E+03  0.90541354164E+01 0.  0.
         13    1    3    3    0    0 -0.11915623671E+00 -0.47819102236E+00 -0.38141007234E+01  0.38458067022E+01  0.00000000000E+00 0.  1.
          3    1    3    3  501    0 -0.27270333059E+02  0.24379696857E+02 -0.94139663398E+03  0.94210703381E+03  0.00000000000E+00 0.  1.
         -3    1    1    2    0  502  0.27389489295E+02 -0.23901505835E+02 -0.48347330756E+02  0.60489094028E+02  0.00000000000E+00 0. -1.
<mgrwt>
<rscale>  1 0.30000000E+03</rscale>
<asrwt>0</asrwt>
<pdfrwt beam="1">  1       21 0.23425266E-01 0.30000000E+03</pdfrwt>
<pdfrwt beam="2">0</pdfrwt>
<totfact> 0.17703227E+03</totfact>
</mgrwt>
</event>
<event>
 6    1  0.1284012E-001  0.3000000E+03  0.7818608E-02  0.1093470E+00
         21   -1    0    0  501  502  0.00000000000E+00  0.00000000000E+00  0.32696919851E+01  0.32696919851E+01  0.00000000000E+00 0. -1.
         13   -1    0    0    0    0 -0.00000000000E+00 -0.00000000000E+00 -0.10000000000E+04  0.10000000000E+04  0.00000000000E+00 0.  1.
    9000005    2    1    2  501    0  0.11923581050E+02  0.41720348033E+02 -0.82482909777E+03  0.82597675555E+03  0.34352526388E+01 0.  0.
         13    1    3    3    0    0  0.12078023497E+02  0.41027238945E+02 -0.80546244107E+03  0.80659708464E+03  0.00000000000E+00 0.  1.
          1    1    3    3  501    0 -0.15444244701E+00  0.69310908797E+00 -0.19366656702E+02  0.19379670908E+02  0.00000000000E+00 0.  1.
         -3    1    1    2    0  502 -0.11923581050E+02 -0.41720348033E+02 -0.17190121025E+03  0.17729293643E+03  0.00000000000E+00 0. -1.
<mgrwt>
<rscale>  1 0.30000000E+03</rscale>
<asrwt>0</asrwt>
<pdfrwt beam="1">  1       21 0.11889814E-01 0.30000000E+03</pdfrwt>
<pdfrwt beam="2">0</pdfrwt>
<totfact> 0.63016886E+03</totfact>
</mgrwt>
</event>
<event>
 6    1  0.1284012E-001  0.3000000E+03  0.7818608E-02  0.1093470E+00
         21   -1    0    0  501  502  0.00000000000E+00  0.00000000000E+00  0.11362675901E+01  0.11362675901E+01  0.00000000000E+00 0. -1.
         13   -1    0    0    0    0 -0.00000000000E+00 -0.00000000000E+00 -0.10000000000E+04  0.10000000000E+04  0.00000000000E+00 0.  1.
    9000005    2    1    2  501    0  0.30457644555E+02  0.85888691992E+01 -0.66930434970E+03  0.67006101403E+03  0.34660082473E+01 0.  0.
         13    1    3    3    0    0  0.23646882387E+02  0.52709948758E+01 -0.52223363663E+03  0.52279530379E+03  0.00000000000E+00 0.  1.
          3    1    3    3  501    0  0.68107621682E+01  0.33178743234E+01 -0.14707071307E+03  0.14726571024E+03  0.00000000000E+00 0.  1.
         -1    1    1    2    0  502 -0.30457644555E+02 -0.85888691992E+01 -0.32955938271E+03  0.33107525356E+03  0.00000000000E+00 0. -1.
<mgrwt>
<rscale>  1 0.30000000E+03</rscale>
<asrwt>0</asrwt>
<pdfrwt beam="1">  1       21 0.41318909E-02 0.30000000E+03</pdfrwt>
<pdfrwt beam="2">0</pdfrwt>
<totfact> 0.39809978E+04</totfact>
</mgrwt>
</event>
<event>
 6    1  0.1284012E-001  0.3000000E+03  0.7818608E-02  0.1093470E+00
         21   -1    0    0  501  502  0.00000000000E+00  0.00000000000E+00  0.38384873149E+01  0.38384873149E+01  0.00000000000E+00 0. -1.
         13   -1    0    0    0    0 -0.00000000000E+00 -0.00000000000E+00 -0.10000000000E+04  0.10000000000E+04  0.00000000000E+00 0.  1.
    9000005    2    1    2  501    0 -0.42993724926E+02 -0.43391554119E+02 -0.58011810071E+03  0.58333473227E+03  0.33334305206E+01 0.  0.
         13    1    3    3    0    0 -0.16269789499E+01 -0.18754442705E+01 -0.18195804859E+02  0.18364413037E+02  0.00000000000E+00 0.  1.
          1    1    3    3  501    0 -0.41366745976E+02 -0.41516109849E+02 -0.56192229585E+03  0.56497031924E+03  0.00000000000E+00 0.  1.
         -1    1    1    2    0  502  0.42993724926E+02  0.43391554119E+02 -0.41604341198E+03  0.42050375504E+03  0.00000000000E+00 0. -1.
<mgrwt>
<rscale>  1 0.30000000E+03</rscale>
<asrwt>0</asrwt>
<pdfrwt beam="1">  1       21 0.13958165E-01 0.30000000E+03</pdfrwt>
<pdfrwt beam="2">0</pdfrwt>
<totfact> 0.47024591E+03</totfact>
</mgrwt>
</event>
<event>
 6    1  0.1284012E-001  0.3000000E+03  0.7818608E-02  0.1093470E+00
         21   -1    0    0  501  502  0.00000000000E+00  0.00000000000E+00  0.37699092342E+01  0.37699092342E+01  0.00000000000E+00 0. -1.
         13   -1    0    0    0    0 -0.00000000000E+00 -0.00000000000E+00 -0.10000000000E+04  0.10000000000E+04  0.00000000000E+00 0.  1.
    9000005    2    1    2  501    0  0.25452747381E+02  0.23025372007E+02 -0.91417005049E+03  0.91482127060E+03  0.36146672368E+01 0.  0.
         13    1    3    3    0    0  0.25552185255E+02  0.22743344674E+02 -0.90464791931E+03  0.90529444481E+03  0.00000000000E+00 0.  1.
          3    1    3    3  501    0 -0.99437874212E-01  0.28202733297E+00 -0.95221311844E+01  0.95268257883E+01  0.00000000000E+00 0.  1.
         -1    1    1    2    0  502 -0.25452747381E+02 -0.23025372007E+02 -0.82060040276E+02  0.88948638637E+02  0.00000000000E+00 0. -1.
<mgrwt>
<rscale>  1 0.30000000E+03</rscale>
<asrwt>0</asrwt>
<pdfrwt beam="1">  1       21 0.13708790E-01 0.30000000E+03</pdfrwt>
<pdfrwt beam="2">0</pdfrwt>
<totfact> 0.48606476E+03</totfact>
</mgrwt>
</event>
<event>
 6    1  0.1284012E-001  0.3000000E+03  0.7818608E-02  0.1093470E+00
         21   -1    0    0  501  502  0.00000000000E+00  0.00000000000E+00  0.44436500345E+01  0.44436500345E+01  0.00000000000E+00 0. -1.
         13   -1    0    0    0    0 -0.00000000000E+00 -0.00000000000E+00 -0.10000000000E+04  0.10000000000E+04  0.00000000000E+00 0.  1.
    9000005    2    1    2  501    0 -0.54571343046E+02  0.19385861517E+01 -0.78500745063E+03  0.78692898706E+03  0.62244300950E+01 0.  0.
         13    1    3    3    0    0 -0.44995851391E+02  0.31370345301E+01 -0.67065785711E+03  0.67217291595E+03  0.00000000000E+00 0.  1.
          1    1    3    3  501    0 -0.95754916548E+01 -0.11984483783E+01 -0.11434959352E+03  0.11475607112E+03  0.00000000000E+00 0.  1.
         -1    1    1    2    0  502  0.54571343046E+02 -0.19385861517E+01 -0.21054889933E+03  0.21751466297E+03  0.00000000000E+00 0. -1.
<mgrwt>
<rscale>  1 0.30000000E+03</rscale>
<asrwt>0</asrwt>
<pdfrwt beam="1">  1       21 0.16158761E-01 0.30000000E+03</pdfrwt>
<pdfrwt beam="2">0</pdfrwt>
<totfact> 0.35860331E+03</totfact>
</mgrwt>
</event>
<event>
 6    1  0.1284012E-001  0.3000000E+03  0.7818608E-02  0.1093470E+00
         21   -1    0    0  501  502  0.00000000000E+00  0.00000000000E+00  0.23153911069E+01  0.23153911069E+01  0.00000000000E+00 0. -1.
         13   -1    0    0    0    0 -0.00000000000E+00 -0.00000000000E+00 -0.10000000000E+04  0.10000000000E+04  0.00000000000E+00 0.  1.
    9000005    2    1    2  501    0  0.37000002884E+02 -0.16067975307E+02 -0.77155094163E+03  0.77261207047E+03  0.33728110698E+01 0.  0.
         13    1    3    3    0    0  0.24425184980E+02 -0.11109040252E+02 -0.54136906398E+03  0.54203363722E+03  0.00000000000E+00 0.  1.
          3    1    3    3  501    0  0.12574817904E+02 -0.49589350548E+01 -0.23018187765E+03  0.23057843325E+03  0.00000000000E+00 0.  1.
         -1    1    1    2    0  502 -0.37000002884E+02  0.16067975307E+02 -0.22613366726E+03  0.22970332064E+03  0.00000000000E+00 0. -1.
<mgrwt>
<rscale>  1 0.30000000E+03</rscale>
<asrwt>0</asrwt>
<pdfrwt beam="1">  1       21 0.84196218E-02 0.30000000E+03</pdfrwt>
<pdfrwt beam="2">0</pdfrwt>
<totfact> 0.11675175E+04</totfact>
</mgrwt>
</event>
<event>
 6    1  0.1284012E-001  0.3000000E+03  0.7818608E-02  0.1093470E+00
         21   -1    0    0  501  502  0.00000000000E+00  0.00000000000E+00  0.10703823518E+01  0.10703823518E+01  0.00000000000E+00 0. -1.
         13   -1    0    0    0    0 -0.00000000000E+00 -0.00000000000E+00 -0.10000000000E+04  0.10000000000E+04  0.00000000000E+00 0.  1.
    9000005    2    1    2  501    0  0.31526833166E+02 -0.80526150324E+01 -0.53229501502E+03  0.53330266416E+03  0.38681726752E+01 0.  0.
         13    1    3    3    0    0  0.19537022545E+02 -0.49845667455E+01 -0.35952596482E+03  0.36009090594E+03  0.00000000000E+00 0.  1.
          3    1    3    3  501    0  0.11989810621E+02 -0.30680482869E+01 -0.17276905020E+03  0.17321175822E+03  0.00000000000E+00 0.  1.
         -3    1    1    2    0  502 -0.31526833166E+02  0.80526150324E+01 -0.46663460263E+03  0.46776771820E+03  0.00000000000E+00 0. -1.
<mgrwt>
<rscale>  1 0.30000000E+03</rscale>
<asrwt>0</asrwt>
<pdfrwt beam="1">  1       21 0.38923077E-02 0.30000000E+03</pdfrwt>
<pdfrwt beam="2">0</pdfrwt>
<totfact> 0.44023614E+04</totfact>
</mgrwt>
</event>
<event>
 6    1  0.1284012E-001  0.3000000E+03  0.7818608E-02  0.1093470E+00
         21   -1    0    0  501  502  0.00000000000E+00  0.00000000000E+00  0.11593272289E+01  0.11593272289E+01  0.00000000000E+00 0. -1.
         13   -1    0    0    0    0 -0.00000000000E+00 -0.00000000000E+00 -0.10000000000E+04  0.10000000000E+04  0.00000000000E+00 0.  1.
    9000005    2    1    2  501    0  0.94464765454E+01 -0.31788466800E+02 -0.60853379881E+03  0.60944616890E+03  0.33920438732E+01 0.  0.
         13    1    3    3    0    0  0.24182521701E+01 -0.89197199253E+01 -0.14339531948E+03  0.14369282166E+03  0.00000000000E+00 0.  1.
          1    1    3    3  501    0  0.70282243753E+01 -0.22868746874E+02 -0.46513847932E+03  0.46575334724E+03  0.00000000000E+00 0.  1.
         -1    1    1    2    0  502 -0.94464765454E+01  0.31788466800E+02 -0.39030687397E+03  0.39171315833E+03  0.00000000000E+00 0. -1.
<mgrwt>
<rscale>  1 0.30000000E+03</rscale>
<asrwt>0</asrwt>
<pdfrwt beam="1">  1       21 0.42157443E-02 0.30000000E+03</pdfrwt>
<pdfrwt beam="2">0</pdfrwt>
<totfact> 0.38482518E+04</totfact>
</mgrwt>
</event>
<event>
 6    1  0.1284012E-001  0.3000000E+03  0.7818608E-02  0.1093470E+00
         21   -1    0    0  501  502  0.00000000000E+00  0.00000000000E+00  0.23714340999E+01  0.23714340999E+01  0.00000000000E+00 0. -1.
         13   -1    0    0    0    0 -0.00000000000E+00 -0.00000000000E+00 -0.10000000000E+04  0.10000000000E+04  0.00000000000E+00 0.  1.
    9000005    2    1    2  501    0  0.30162478180E+02 -0.54031098255E+00 -0.89192399479E+03  0.89244635334E+03  0.46919171679E+01 0.  0.
         13    1    3    3    0    0  0.15002656028E+02 -0.20633353635E+01 -0.40044366034E+03  0.40072991172E+03  0.00000000000E+00 0.  1.
          1    1    3    3  501    0  0.15159822152E+02  0.15230243810E+01 -0.49148033445E+03  0.49171644162E+03  0.00000000000E+00 0.  1.
         -3    1    1    2    0  502 -0.30162478180E+02  0.54031098255E+00 -0.10570457111E+03  0.10992508076E+03  0.00000000000E+00 0. -1.
<mgrwt>
<rscale>  1 0.30000000E+03</rscale>
<asrwt>0</asrwt>
<pdfrwt beam="1">  1       21 0.86234149E-02 0.30000000E+03</pdfrwt>
<pdfrwt beam="2">0</pdfrwt>
<totfact> 0.11192944E+04</totfact>
</mgrwt>
</event>
<event>
 6    1  0.1284012E-001  0.3000000E+03  0.7818608E-02  0.1093470E+00
         21   -1    0    0  501  502  0.00000000000E+00  0.00000000000E+00  0.20644940762E+01  0.20644940762E+01  0.00000000000E+00 0. -1.
         13   -1    0    0    0    0 -0.00000000000E+00 -0.00000000000E+00 -0.10000000000E+04  0.10000000000E+04  0.00000000000E+00 0.  1.
    9000005    2    1    2  501    0  0.11214051376E+02  0.40519651254E+02 -0.31108086047E+03  0.31392431863E+03  0.30949941097E+01 0.  0.
         13    1    3    3    0    0  0.10437338511E+02  0.33951381789E+02 -0.25835453987E+03  0.26078478221E+03  0.00000000000E+00 0.  1.
          3    1    3    3  501    0  0.77671286478E+00  0.65682694648E+01 -0.52726320602E+02  0.53139536420E+02  0.00000000000E+00 0.  1.
         -3    1    1    2    0  502 -0.11214051376E+02 -0.40519651254E+02 -0.68685464545E+03  0.68814017545E+03  0.00000000000E+00 0. -1.
<mgrwt>
<rscale>  1 0.30000000E+03</rscale>
<asrwt>0</asrwt>
<pdfrwt beam="1">  1       21 0.75072670E-02 0.30000000E+03</pdfrwt>
<pdfrwt beam="2">0</pdfrwt>
<totfact> 0.14280228E+04</totfact>
</mgrwt>
</event>
