<event>
 6    1  0.1347953E-004  0.6593276E+03  0.7818608E-02  0.9789432E-01
         21   -1    0    0  501  502  0.00000000000E+00  0.00000000000E+00  0.34901301297E+03  0.34901301297E+03  0.00000000000E+00 0.  1.
         13   -1    0    0    0    0 -0.00000000000E+00 -0.00000000000E+00 -0.10000000000E+04  0.10000000000E+04  0.00000000000E+00 0.  1.
    9000005    2    1    2  501    0 -0.59299790294E+02  0.54974379632E+02 -0.88375239293E+03  0.11026020113E+04  0.65435025470E+03 0.  0.
         13    1    3    3    0    0 -0.34692069903E+03  0.11228915139E+03 -0.52543848887E+03  0.63956894118E+03  0.00000000000E+00 0.  1.
          3    1    3    3  501    0  0.28762090874E+03 -0.57314771760E+02 -0.35831390406E+03  0.46303307015E+03  0.00000000000E+00 0.  1.
         -3    1    1    2    0  502  0.59299790294E+02 -0.54974379632E+02  0.23276540590E+03  0.24641100164E+03  0.00000000000E+00 0. -1.
<mgrwt>
<rscale>  1 0.65932761E+03</rscale>
<asrwt>0</asrwt>
<pdfrwt beam="1">  1       21 0.53694308E-01 0.65932761E+03</pdfrwt>
<pdfrwt beam="2">0</pdfrwt>
<totfact> 0.30219434E+02</totfact>
</mgrwt>
</event>
<event>
 6    1  0.1347953E-004  0.6604566E+03  0.7818608E-02  0.9787354E-01
         21   -1    0    0  501  502  0.00000000000E+00  0.00000000000E+00  0.15169313956E+03  0.15169313956E+03  0.00000000000E+00 0.  1.
         13   -1    0    0    0    0 -0.00000000000E+00 -0.00000000000E+00 -0.10000000000E+04  0.10000000000E+04  0.00000000000E+00 0.  1.
    9000005    2    1    2  501    0 -0.31681572497E+02  0.35508818020E+02 -0.87565864437E+03  0.10968049051E+04  0.65873996410E+03 0.  0.
         13    1    3    3    0    0 -0.24225951393E+03 -0.22144880350E+03 -0.43887901534E+03  0.54803652685E+03  0.00000000000E+00 0.  1.
          3    1    3    3  501    0  0.21057794144E+03  0.25695762152E+03 -0.43677962903E+03  0.54876837829E+03  0.00000000000E+00 0.  1.
         -1    1    1    2    0  502  0.31681572497E+02 -0.35508818020E+02  0.27351783933E+02  0.54888234416E+02  0.00000000000E+00 0. -1.
<mgrwt>
<rscale>  1 0.66045661E+03</rscale>
<asrwt>0</asrwt>
<pdfrwt beam="1">  1       21 0.23337405E-01 0.66045661E+03</pdfrwt>
<pdfrwt beam="2">0</pdfrwt>
<totfact> 0.16648533E+03</totfact>
</mgrwt>
</event>
<event>
 6    1  0.1347953E-004  0.5999891E+03  0.7818608E-02  0.9905429E-01
         21   -1    0    0  501  502  0.00000000000E+00  0.00000000000E+00  0.15676137111E+03  0.15676137111E+03  0.00000000000E+00 0.  1.
         13   -1    0    0    0    0 -0.00000000000E+00 -0.00000000000E+00 -0.10000000000E+04  0.10000000000E+04  0.00000000000E+00 0.  1.
    9000005    2    1    2  501    0 -0.41786934604E+02  0.20983572159E+02 -0.90097146654E+03  0.10824677728E+04  0.59816422282E+03 0.  0.
         13    1    3    3    0    0  0.28313924719E+01  0.15954593504E+03  0.10052286573E+02  0.15988736859E+03  0.00000000000E+00 0.  1.
          3    1    3    3  501    0 -0.44618327075E+02 -0.13856236288E+03 -0.91102375311E+03  0.92258040422E+03  0.00000000000E+00 0.  1.
         -3    1    1    2    0  502  0.41786934604E+02 -0.20983572159E+02  0.57732837650E+02  0.74293598293E+02  0.00000000000E+00 0. -1.
<mgrwt>
<rscale>  1 0.59998908E+03</rscale>
<asrwt>0</asrwt>
<pdfrwt beam="1">  1       21 0.24117133E-01 0.59998908E+03</pdfrwt>
<pdfrwt beam="2">0</pdfrwt>
<totfact> 0.15663617E+03</totfact>
</mgrwt>
</event>
<event>
 6    1  0.1347953E-004  0.6733997E+03  0.7818608E-02  0.9763836E-01
         21   -1    0    0  501  502  0.00000000000E+00  0.00000000000E+00  0.37703690692E+03  0.37703690692E+03  0.00000000000E+00 0. -1.
         13   -1    0    0    0    0 -0.00000000000E+00 -0.00000000000E+00 -0.10000000000E+04  0.10000000000E+04  0.00000000000E+00 0.  1.
    9000005    2    1    2  501    0  0.15199050652E+03 -0.34697323412E+02 -0.86064715137E+03  0.10927857330E+04  0.65510466393E+03 0.  0.
         13    1    3    3    0    0  0.32923471042E+03 -0.23335415266E+03 -0.46220722030E+03  0.61358387332E+03  0.00000000000E+00 0.  1.
          3    1    3    3  501    0 -0.17724420389E+03  0.19865682924E+03 -0.39843993107E+03  0.47920185965E+03  0.00000000000E+00 0.  1.
         -1    1    1    2    0  502 -0.15199050652E+03  0.34697323412E+02  0.23768405829E+03  0.28425117395E+03  0.00000000000E+00 0. -1.
<mgrwt>
<rscale>  1 0.67339969E+03</rscale>
<asrwt>0</asrwt>
<pdfrwt beam="1">  1       21 0.58005676E-01 0.67339969E+03</pdfrwt>
<pdfrwt beam="2">0</pdfrwt>
<totfact> 0.25495655E+02</totfact>
</mgrwt>
</event>
<event>
 6    1  0.1347953E-004  0.6533061E+03  0.7818608E-02  0.9800595E-01
         21   -1    0    0  501  502  0.00000000000E+00  0.00000000000E+00  0.32099163210E+03  0.32099163210E+03  0.00000000000E+00 0. -1.
         13   -1    0    0    0    0 -0.00000000000E+00 -0.00000000000E+00 -0.10000000000E+04  0.10000000000E+04  0.00000000000E+00 0.  1.
    9000005    2    1    2  501    0  0.37674501525E+02  0.10743703434E+02 -0.89131404683E+03  0.11051016218E+04  0.65213040817E+03 0.  0.
         13    1    3    3    0    0 -0.33082270514E+02 -0.25918602050E+03 -0.12517340328E+03  0.28972437028E+03  0.00000000000E+00 0.  1.
          3    1    3    3  501    0  0.70756772039E+02  0.26992972393E+03 -0.76614064355E+03  0.81537725155E+03  0.00000000000E+00 0.  1.
         -3    1    1    2    0  502 -0.37674501525E+02 -0.10743703434E+02  0.21230567893E+03  0.21589001027E+03  0.00000000000E+00 0. -1.
<mgrwt>
<rscale>  1 0.65330610E+03</rscale>
<asrwt>0</asrwt>
<pdfrwt beam="1">  1       21 0.49383327E-01 0.65330610E+03</pdfrwt>
<pdfrwt beam="2">0</pdfrwt>
<totfact> 0.36210302E+02</totfact>
</mgrwt>
</event>
<event>
 6    1  0.1347953E-004  0.6829582E+03  0.7818608E-02  0.9746828E-01
         21   -1    0    0  501  502  0.00000000000E+00  0.00000000000E+00  0.25936945517E+03  0.25936945517E+03  0.00000000000E+00 0. -1.
         13   -1    0    0    0    0 -0.00000000000E+00 -0.00000000000E+00 -0.10000000000E+04  0.10000000000E+04  0.00000000000E+00 0.  1.
    9000005    2    1    2  501    0 -0.12549947261E+03 -0.44866903433E+02 -0.84757242245E+03  0.10884901942E+04  0.66982739185E+03 0.  0.
         13    1    3    3    0    0 -0.37464701067E+03 -0.12481138197E+03 -0.65026252801E+03  0.76077566930E+03  0.00000000000E+00 0.  1.
          1    1    3    3  501    0  0.24914753805E+03  0.79944478541E+02 -0.19730989444E+03  0.32771452487E+03  0.00000000000E+00 0.  1.
         -3    1    1    2    0  502  0.12549947261E+03  0.44866903433E+02  0.10694187762E+03  0.17087926099E+03  0.00000000000E+00 0. -1.
<mgrwt>
<rscale>  1 0.68295819E+03</rscale>
<asrwt>0</asrwt>
<pdfrwt beam="1">  1       21 0.39902992E-01 0.68295819E+03</pdfrwt>
<pdfrwt beam="2">0</pdfrwt>
<totfact> 0.56613922E+02</totfact>
</mgrwt>
</event>
<event>
 6    1  0.1347953E-004  0.6567879E+03  0.7818608E-02  0.9794125E-01
         21   -1    0    0  501  502  0.00000000000E+00  0.00000000000E+00  0.13621536796E+03  0.13621536796E+03  0.00000000000E+00 0.  1.
         13   -1    0    0    0    0 -0.00000000000E+00 -0.00000000000E+00 -0.10000000000E+04  0.10000000000E+04  0.00000000000E+00 0.  1.
    9000005    2    1    2  501    0 -0.22515388118E+02 -0.67258700318E+02 -0.82773339851E+03  0.10566517650E+04  0.65294693358E+03 0.  0.
         13    1    3    3    0    0 -0.62928101204E+01 -0.34223285079E+03 -0.27496567507E+03  0.43905471879E+03  0.00000000000E+00 0.  1.
          3    1    3    3  501    0 -0.16222577997E+02  0.27497415047E+03 -0.55276772344E+03  0.61759704626E+03  0.00000000000E+00 0.  1.
         -1    1    1    2    0  502  0.22515388118E+02  0.67258700318E+02 -0.36051233526E+02  0.79563602918E+02  0.00000000000E+00 0. -1.
<mgrwt>
<rscale>  1 0.65678792E+03</rscale>
<asrwt>0</asrwt>
<pdfrwt beam="1">  1       21 0.20956210E-01 0.65678792E+03</pdfrwt>
<pdfrwt beam="2">0</pdfrwt>
<totfact> 0.20510137E+03</totfact>
</mgrwt>
</event>
<event>
 6    1  0.1347953E-004  0.6555105E+03  0.7818608E-02  0.9796494E-01
         21   -1    0    0  501  502  0.00000000000E+00  0.00000000000E+00  0.41947516550E+03  0.41947516550E+03  0.00000000000E+00 0. -1.
         13   -1    0    0    0    0 -0.00000000000E+00 -0.00000000000E+00 -0.10000000000E+04  0.10000000000E+04  0.00000000000E+00 0.  1.
    9000005    2    1    2  501    0 -0.20908785451E+02 -0.13007522232E+02 -0.89203838865E+03  0.11069898581E+04  0.65504785023E+03 0.  0.
         13    1    3    3    0    0  0.23007764427E+03 -0.22837324530E+03 -0.41763470011E+03  0.52868592217E+03  0.00000000000E+00 0.  1.
          1    1    3    3  501    0 -0.25098642972E+03  0.21536572307E+03 -0.47440368854E+03  0.57830393590E+03  0.00000000000E+00 0.  1.
         -1    1    1    2    0  502  0.20908785451E+02  0.13007522232E+02  0.31151355415E+03  0.31248530743E+03  0.00000000000E+00 0. -1.
<mgrwt>
<rscale>  1 0.65551053E+03</rscale>
<asrwt>0</asrwt>
<pdfrwt beam="1">  1       21 0.64534639E-01 0.65551053E+03</pdfrwt>
<pdfrwt beam="2">0</pdfrwt>
<totfact> 0.20162907E+02</totfact>
</mgrwt>
</event>
<event>
 6    1  0.1347953E-004  0.6508641E+03  0.7818608E-02  0.9805159E-01
         21   -1    0    0  501  502  0.00000000000E+00  0.00000000000E+00  0.14449899082E+03  0.14449899082E+03  0.00000000000E+00 0.  1.
         13   -1    0    0    0    0 -0.00000000000E+00 -0.00000000000E+00 -0.10000000000E+04  0.10000000000E+04  0.00000000000E+00 0.  1.
    9000005    2    1    2  501    0  0.62173055211E+01 -0.68137388502E+02 -0.85690716929E+03  0.10760640883E+04  0.64725780543E+03 0.  0.
         13    1    3    3    0    0  0.15621035585E+03  0.15989353464E+03 -0.75055686571E+03  0.78313678649E+03  0.00000000000E+00 0.  1.
          3    1    3    3  501    0 -0.14999305033E+03 -0.22803092314E+03 -0.10635030359E+03  0.29292730178E+03  0.00000000000E+00 0.  1.
         -3    1    1    2    0  502 -0.62173055211E+01  0.68137388502E+02  0.14061601116E+01  0.68434902543E+02  0.00000000000E+00 0. -1.
<mgrwt>
<rscale>  1 0.65086406E+03</rscale>
<asrwt>0</asrwt>
<pdfrwt beam="1">  1       21 0.22230613E-01 0.65086406E+03</pdfrwt>
<pdfrwt beam="2">0</pdfrwt>
<totfact> 0.18304177E+03</totfact>
</mgrwt>
</event>
<event>
 6    1  0.1347953E-004  0.6033373E+03  0.7818608E-02  0.9898506E-01
         21   -1    0    0  501  502  0.00000000000E+00  0.00000000000E+00  0.13416772688E+03  0.13416772688E+03  0.00000000000E+00 0.  1.
         13   -1    0    0    0    0 -0.00000000000E+00 -0.00000000000E+00 -0.10000000000E+04  0.10000000000E+04  0.00000000000E+00 0.  1.
    9000005    2    1    2  501    0  0.65699337133E+02  0.40629509768E+02 -0.86776357240E+03  0.10568961934E+04  0.59837177920E+03 0.  0.
         13    1    3    3    0    0 -0.25137491505E+03 -0.71805790815E+02 -0.30987765610E+03  0.40542518578E+03  0.00000000000E+00 0.  1.
          1    1    3    3  501    0  0.31707425218E+03  0.11243530058E+03 -0.55788591630E+03  0.65147100766E+03  0.00000000000E+00 0.  1.
         -1    1    1    2    0  502 -0.65699337133E+02 -0.40629509768E+02  0.19312992791E+01  0.77271533443E+02  0.00000000000E+00 0. -1.
<mgrwt>
<rscale>  1 0.60333734E+03</rscale>
<asrwt>0</asrwt>
<pdfrwt beam="1">  1       21 0.20641188E-01 0.60333734E+03</pdfrwt>
<pdfrwt beam="2">0</pdfrwt>
<totfact> 0.21164782E+03</totfact>
</mgrwt>
</event>
<event>
 6    1  0.1347953E-004  0.6580921E+03  0.7818608E-02  0.9791712E-01
         21   -1    0    0  501  502  0.00000000000E+00  0.00000000000E+00  0.27669972317E+03  0.27669972317E+03  0.00000000000E+00 0. -1.
         13   -1    0    0    0    0 -0.00000000000E+00 -0.00000000000E+00 -0.10000000000E+04  0.10000000000E+04  0.00000000000E+00 0.  1.
    9000005    2    1    2  501    0  0.68360894260E+01  0.22846246997E+02 -0.89079260965E+03  0.11075182683E+04  0.65765991065E+03 0.  0.
         13    1    3    3    0    0 -0.15112088076E+03 -0.10935042755E+03 -0.88183402555E+03  0.90134692834E+03  0.00000000000E+00 0.  1.
          3    1    3    3  501    0  0.15795697018E+03  0.13219667455E+03 -0.89585841025E+01  0.20617133996E+03  0.00000000000E+00 0.  1.
         -3    1    1    2    0  502 -0.68360894260E+01 -0.22846246997E+02  0.16749233282E+03  0.16918145487E+03  0.00000000000E+00 0. -1.
<mgrwt>
<rscale>  1 0.65809212E+03</rscale>
<asrwt>0</asrwt>
<pdfrwt beam="1">  1       21 0.42569187E-01 0.65809212E+03</pdfrwt>
<pdfrwt beam="2">0</pdfrwt>
<totfact> 0.49565553E+02</totfact>
</mgrwt>
</event>
<event>
 6    1  0.1347953E-004  0.6602038E+03  0.7818608E-02  0.9787819E-01
         21   -1    0    0  501  502  0.00000000000E+00  0.00000000000E+00  0.79276323131E+03  0.79276323131E+03  0.00000000000E+00 0. -1.
         13   -1    0    0    0    0 -0.00000000000E+00 -0.00000000000E+00 -0.10000000000E+04  0.10000000000E+04  0.00000000000E+00 0.  1.
    9000005    2    1    2  501    0 -0.21182336187E+02  0.13073777759E+03 -0.88390895133E+03  0.11032515921E+04  0.64678279459E+03 0.  0.
         13    1    3    3    0    0 -0.32335889948E+03  0.30053804153E+02 -0.57018729042E+03  0.65618423875E+03  0.00000000000E+00 0.  1.
          3    1    3    3  501    0  0.30217656330E+03  0.10068397343E+03 -0.31372166090E+03  0.44706735335E+03  0.00000000000E+00 0.  1.
         -1    1    1    2    0  502  0.21182336187E+02 -0.13073777759E+03  0.67667218263E+03  0.68951163921E+03  0.00000000000E+00 0. -1.
<mgrwt>
<rscale>  1 0.66020379E+03</rscale>
<asrwt>0</asrwt>
<pdfrwt beam="1">  1       21 0.12196357E+00 0.66020379E+03</pdfrwt>
<pdfrwt beam="2">0</pdfrwt>
<totfact> 0.43966699E+01</totfact>
</mgrwt>
</event>
<event>
 6    1  0.1347953E-004  0.6368407E+03  0.7818608E-02  0.9831790E-01
         21   -1    0    0  501  502  0.00000000000E+00  0.00000000000E+00  0.21087904890E+03  0.21087904890E+03  0.00000000000E+00 0. -1.
         13   -1    0    0    0    0 -0.00000000000E+00 -0.00000000000E+00 -0.10000000000E+04  0.10000000000E+04  0.00000000000E+00 0.  1.
    9000005    2    1    2  501    0  0.75351269222E+02 -0.24527908094E+02 -0.88257601905E+03  0.10883503511E+04  0.63189130821E+03 0.  0.
         13    1    3    3    0    0 -0.24503778900E+03 -0.15075529623E+03 -0.46863131473E+03  0.54989634162E+03  0.00000000000E+00 0.  1.
          1    1    3    3  501    0  0.32038905822E+03  0.12622738813E+03 -0.41394470431E+03  0.53845400952E+03  0.00000000000E+00 0.  1.
         -1    1    1    2    0  502 -0.75351269222E+02  0.24527908094E+02  0.93455067948E+02  0.12252869776E+03  0.00000000000E+00 0. -1.
<mgrwt>
<rscale>  1 0.63684068E+03</rscale>
<asrwt>0</asrwt>
<pdfrwt beam="1">  1       21 0.32442930E-01 0.63684068E+03</pdfrwt>
<pdfrwt beam="2">0</pdfrwt>
<totfact> 0.86775080E+02</totfact>
</mgrwt>
</event>
<event>
 6    1  0.1347953E-004  0.6515771E+03  0.7818608E-02  0.9803824E-01
         21   -1    0    0  501  502  0.00000000000E+00  0.00000000000E+00  0.23214801919E+03  0.23214801919E+03  0.00000000000E+00 0. -1.
         13   -1    0    0    0    0 -0.00000000000E+00 -0.00000000000E+00 -0.10000000000E+04  0.10000000000E+04  0.00000000000E+00 0.  1.
    9000005    2    1    2  501    0 -0.48721388403E+02 -0.36319145345E+02 -0.88570085593E+03  0.10995538588E+04  0.64873710249E+03 0.  0.
         13    1    3    3    0    0 -0.37807319404E+02 -0.16002171235E+03  0.36995850708E+02  0.16853793280E+03  0.00000000000E+00 0.  1.
          3    1    3    3  501    0 -0.10914068998E+02  0.12370256700E+03 -0.92269670664E+03  0.93101592598E+03  0.00000000000E+00 0.  1.
         -3    1    1    2    0  502  0.48721388403E+02  0.36319145345E+02  0.11784887513E+03  0.13259416041E+03  0.00000000000E+00 0. -1.
<mgrwt>
<rscale>  1 0.65157707E+03</rscale>
<asrwt>0</asrwt>
<pdfrwt beam="1">  1       21 0.35715079E-01 0.65157707E+03</pdfrwt>
<pdfrwt beam="2">0</pdfrwt>
<totfact> 0.71309756E+02</totfact>
</mgrwt>
</event>
<event>
 6    1  0.1347953E-004  0.8316063E+03  0.7818608E-02  0.9515362E-01
         21   -1    0    0  501  502  0.00000000000E+00  0.00000000000E+00  0.19777035906E+03  0.19777035906E+03  0.00000000000E+00 0.  1.
         13   -1    0    0    0    0 -0.00000000000E+00 -0.00000000000E+00 -0.10000000000E+04  0.10000000000E+04  0.00000000000E+00 0.  1.
    9000005    2    1    2  501    0  0.48060292136E+02  0.21626425445E+02 -0.78134126312E+03  0.11410798106E+04  0.82993461834E+03 0.  0.
         13    1    3    3    0    0 -0.66201369132E+02 -0.38112596922E+03 -0.51797854871E+03  0.64648387653E+03  0.00000000000E+00 0.  1.
          1    1    3    3  501    0  0.11426166127E+03  0.40275239467E+03 -0.26336271441E+03  0.49459593406E+03  0.00000000000E+00 0.  1.
         -1    1    1    2    0  502 -0.48060292136E+02 -0.21626425445E+02 -0.20888377825E+02  0.56690548470E+02  0.00000000000E+00 0. -1.
<mgrwt>
<rscale>  1 0.83160626E+03</rscale>
<asrwt>0</asrwt>
<pdfrwt beam="1">  1       21 0.30426208E-01 0.83160626E+03</pdfrwt>
<pdfrwt beam="2">0</pdfrwt>
<totfact> 0.97647003E+02</totfact>
</mgrwt>
</event>
<event>
 6    1  0.1347953E-004  0.6654858E+03  0.7818608E-02  0.9778147E-01
         21   -1    0    0  501  502  0.00000000000E+00  0.00000000000E+00  0.18976557565E+03  0.18976557565E+03  0.00000000000E+00 0.  1.
         13   -1    0    0    0    0 -0.00000000000E+00 -0.00000000000E+00 -0.10000000000E+04  0.10000000000E+04  0.00000000000E+00 0.  1.
    9000005    2    1    2  501    0 -0.10474279867E+03 -0.77660795227E+02 -0.82340415265E+03  0.10587095009E+04  0.65258651202E+03 0.  0.
         13    1    3    3    0    0  0.14100859107E+03  0.22265663177E+02  0.45799349595E+02  0.14992252311E+03  0.00000000000E+00 0.  1.
          1    1    3    3  501    0 -0.24575138974E+03 -0.99926458404E+02 -0.86920350225E+03  0.90878697777E+03  0.00000000000E+00 0.  1.
         -3    1    1    2    0  502  0.10474279867E+03  0.77660795227E+02  0.13169728298E+02  0.13105607476E+03  0.00000000000E+00 0. -1.
<mgrwt>
<rscale>  1 0.66548584E+03</rscale>
<asrwt>0</asrwt>
<pdfrwt beam="1">  1       21 0.29194703E-01 0.66548584E+03</pdfrwt>
<pdfrwt beam="2">0</pdfrwt>
<totfact> 0.10705096E+03</totfact>
</mgrwt>
</event>
<event>
 6    1  0.1347953E-004  0.6528903E+03  0.7818608E-02  0.9801371E-01
         21   -1    0    0  501  502  0.00000000000E+00  0.00000000000E+00  0.16846397539E+03  0.16846397539E+03  0.00000000000E+00 0. -1.
         13   -1    0    0    0    0 -0.00000000000E+00 -0.00000000000E+00 -0.10000000000E+04  0.10000000000E+04  0.00000000000E+00 0.  1.
    9000005    2    1    2  501    0  0.26991501043E+02  0.61352229073E+02 -0.87263262503E+03  0.10898410289E+04  0.64944063082E+03 0.  0.
         13    1    3    3    0    0  0.52937775959E+01  0.34492206945E+03 -0.33098601598E+03  0.47807007943E+03  0.00000000000E+00 0.  1.
          1    1    3    3  501    0  0.21697723447E+02 -0.28356984037E+03 -0.54164660905E+03  0.61177094951E+03  0.00000000000E+00 0.  1.
         -3    1    1    2    0  502 -0.26991501043E+02 -0.61352229073E+02  0.41096600420E+02  0.78622946440E+02  0.00000000000E+00 0. -1.
<mgrwt>
<rscale>  1 0.65289032E+03</rscale>
<asrwt>0</asrwt>
<pdfrwt beam="1">  1       21 0.25917534E-01 0.65289032E+03</pdfrwt>
<pdfrwt beam="2">0</pdfrwt>
<totfact> 0.13564459E+03</totfact>
</mgrwt>
</event>
<event>
 6    1  0.1347953E-004  0.6506901E+03  0.7818608E-02  0.9805485E-01
         21   -1    0    0  501  502  0.00000000000E+00  0.00000000000E+00  0.46036702839E+03  0.46036702839E+03  0.00000000000E+00 0. -1.
         13   -1    0    0    0    0 -0.00000000000E+00 -0.00000000000E+00 -0.10000000000E+04  0.10000000000E+04  0.00000000000E+00 0.  1.
    9000005    2    1    2  501    0 -0.79471479447E+02  0.41102380015E+02 -0.88789398158E+03  0.11007966559E+04  0.64450945181E+03 0.  0.
         13    1    3    3    0    0  0.14405547481E+03  0.92030875103E+02 -0.85171974905E+03  0.86870489392E+03  0.00000000000E+00 0.  1.
          3    1    3    3  501    0 -0.22352695426E+03 -0.50928495088E+02 -0.36174232527E+02  0.23209176200E+03  0.00000000000E+00 0.  1.
         -1    1    1    2    0  502  0.79471479447E+02 -0.41102380015E+02  0.34826100997E+03  0.35957037246E+03  0.00000000000E+00 0. -1.
<mgrwt>
<rscale>  1 0.65069006E+03</rscale>
<asrwt>0</asrwt>
<pdfrwt beam="1">  1       21 0.70825695E-01 0.65069006E+03</pdfrwt>
<pdfrwt beam="2">0</pdfrwt>
<totfact> 0.16354394E+02</totfact>
</mgrwt>
</event>
<event>
 6    1  0.1347953E-004  0.6635115E+03  0.7818608E-02  0.9781751E-01
         21   -1    0    0  501  502  0.00000000000E+00  0.00000000000E+00  0.18491053263E+03  0.18491053263E+03  0.00000000000E+00 0.  1.
         13   -1    0    0    0    0 -0.00000000000E+00 -0.00000000000E+00 -0.10000000000E+04  0.10000000000E+04  0.00000000000E+00 0.  1.
    9000005    2    1    2  501    0 -0.84188213623E+02 -0.12323546645E+03 -0.79310721007E+03  0.10340534640E+04  0.64650822450E+03 0.  0.
         13    1    3    3    0    0 -0.22885646838E+03 -0.22683651368E+03 -0.79316005323E+03  0.85611503730E+03  0.00000000000E+00 0.  1.
          1    1    3    3  501    0  0.14466825476E+03  0.10360104723E+03  0.52843159216E-01  0.17793842675E+03  0.00000000000E+00 0.  1.
         -3    1    1    2    0  502  0.84188213623E+02  0.12323546645E+03 -0.21982257307E+02  0.15085706858E+03  0.00000000000E+00 0. -1.
<mgrwt>
<rscale>  1 0.66351151E+03</rscale>
<asrwt>0</asrwt>
<pdfrwt beam="1">  1       21 0.28447773E-01 0.66351151E+03</pdfrwt>
<pdfrwt beam="2">0</pdfrwt>
<totfact> 0.11274077E+03</totfact>
</mgrwt>
</event>
<event>
 6    1  0.1347953E-004  0.6550581E+03  0.7818608E-02  0.9797334E-01
         21   -1    0    0  501  502  0.00000000000E+00  0.00000000000E+00  0.29828474947E+03  0.29828474947E+03  0.00000000000E+00 0. -1.
         13   -1    0    0    0    0 -0.00000000000E+00 -0.00000000000E+00 -0.10000000000E+04  0.10000000000E+04  0.00000000000E+00 0.  1.
    9000005    2    1    2  501    0 -0.91257098619E+01 -0.56579663888E+02 -0.88795102395E+03  0.11034301877E+04  0.65254625982E+03 0.  0.
         13    1    3    3    0    0  0.22542193529E+03  0.42781196847E+02 -0.59971709992E+02  0.23715371747E+03  0.00000000000E+00 0.  1.
          3    1    3    3  501    0 -0.23454764515E+03 -0.99360860735E+02 -0.82797931396E+03  0.86627647021E+03  0.00000000000E+00 0.  1.
         -3    1    1    2    0  502  0.91257098619E+01  0.56579663888E+02  0.18623577343E+03  0.19485456179E+03  0.00000000000E+00 0. -1.
<mgrwt>
<rscale>  1 0.65505813E+03</rscale>
<asrwt>0</asrwt>
<pdfrwt beam="1">  1       21 0.45889960E-01 0.65505813E+03</pdfrwt>
<pdfrwt beam="2">0</pdfrwt>
<totfact> 0.42323988E+02</totfact>
</mgrwt>
</event>
<event>
 6    1  0.1347953E-004  0.6598226E+03  0.7818608E-02  0.9788520E-01
         21   -1    0    0  501  502  0.00000000000E+00  0.00000000000E+00  0.12623774734E+03  0.12623774734E+03  0.00000000000E+00 0.  1.
         13   -1    0    0    0    0 -0.00000000000E+00 -0.00000000000E+00 -0.10000000000E+04  0.10000000000E+04  0.00000000000E+00 0.  1.
    9000005    2    1    2  501    0 -0.33573211902E+02  0.69250857779E+01 -0.86977010263E+03  0.10917260880E+04  0.65893148532E+03 0.  0.
         13    1    3    3    0    0  0.89475918989E+02  0.30195272547E+03 -0.28238172988E+03  0.42299034252E+03  0.00000000000E+00 0.  1.
          3    1    3    3  501    0 -0.12304913089E+03 -0.29502763969E+03 -0.58738837275E+03  0.66873574544E+03  0.00000000000E+00 0.  1.
         -1    1    1    2    0  502  0.33573211902E+02 -0.69250857779E+01 -0.39921500341E+01  0.34511659368E+02  0.00000000000E+00 0. -1.
<mgrwt>
<rscale>  1 0.65982257E+03</rscale>
<asrwt>0</asrwt>
<pdfrwt beam="1">  1       21 0.19421191E-01 0.65982257E+03</pdfrwt>
<pdfrwt beam="2">0</pdfrwt>
<totfact> 0.23732121E+03</totfact>
</mgrwt>
</event>
<event>
 6    1  0.1347953E-004  0.6576152E+03  0.7818608E-02  0.9792594E-01
         21   -1    0    0  501  502  0.00000000000E+00  0.00000000000E+00  0.17303602454E+03  0.17303602454E+03  0.00000000000E+00 0.  1.
         13   -1    0    0    0    0 -0.00000000000E+00 -0.00000000000E+00 -0.10000000000E+04  0.10000000000E+04  0.00000000000E+00 0.  1.
    9000005    2    1    2  501    0 -0.17897148817E+02 -0.16456568107E+03 -0.72406582701E+03  0.97812527502E+03  0.63643975401E+03 0.  0.
         13    1    3    3    0    0 -0.20244177599E+03  0.48320350719E+02 -0.65607702177E+03  0.68829832737E+03  0.00000000000E+00 0.  1.
          1    1    3    3  501    0  0.18454462717E+03 -0.21288603179E+03 -0.67988805233E+02  0.28982694765E+03  0.00000000000E+00 0.  1.
         -3    1    1    2    0  502  0.17897148817E+02  0.16456568107E+03 -0.10289814845E+03  0.19491074952E+03  0.00000000000E+00 0. -1.
<mgrwt>
<rscale>  1 0.65761519E+03</rscale>
<asrwt>0</asrwt>
<pdfrwt beam="1">  1       21 0.26620926E-01 0.65761519E+03</pdfrwt>
<pdfrwt beam="2">0</pdfrwt>
<totfact> 0.12863863E+03</totfact>
</mgrwt>
</event>
<event>
 6    1  0.1347953E-004  0.7357763E+03  0.7818608E-02  0.9657933E-01
         21   -1    0    0  501  502  0.00000000000E+00  0.00000000000E+00  0.46335415481E+03  0.46335415481E+03  0.00000000000E+00 0. -1.
         13   -1    0    0    0    0 -0.00000000000E+00 -0.00000000000E+00 -0.10000000000E+04  0.10000000000E+04  0.00000000000E+00 0.  1.
    9000005    2    1    2  501    0  0.25126641436E+03 -0.19401936457E+03 -0.77329038340E+03  0.10674009224E+04  0.66376832344E+03 0.  0.
         13    1    3    3    0    0  0.39099614731E+03 -0.60722391237E+02 -0.16414757296E+03  0.42838023031E+03  0.00000000000E+00 0.  1.
          1    1    3    3  501    0 -0.13972973295E+03 -0.13329697333E+03 -0.60914281044E+03  0.63902069206E+03  0.00000000000E+00 0.  1.
         -3    1    1    2    0  502 -0.25126641436E+03  0.19401936457E+03  0.23664453821E+03  0.39595323244E+03  0.00000000000E+00 0. -1.
<mgrwt>
<rscale>  1 0.73577626E+03</rscale>
<asrwt>0</asrwt>
<pdfrwt beam="1">  1       21 0.71285253E-01 0.73577626E+03</pdfrwt>
<pdfrwt beam="2">0</pdfrwt>
<totfact> 0.15960165E+02</totfact>
</mgrwt>
</event>
<event>
 6    1  0.1347953E-004  0.6574217E+03  0.7818608E-02  0.9792952E-01
         21   -1    0    0  501  502  0.00000000000E+00  0.00000000000E+00  0.95559305326E+03  0.95559305326E+03  0.00000000000E+00 0. -1.
         13   -1    0    0    0    0 -0.00000000000E+00 -0.00000000000E+00 -0.10000000000E+04  0.10000000000E+04  0.00000000000E+00 0.  1.
    9000005    2    1    2  501    0  0.11191458136E+03 -0.74886971202E+02 -0.88601538025E+03  0.11032799140E+04  0.64348300882E+03 0.  0.
         13    1    3    3    0    0 -0.22245099690E+03 -0.15181904604E+03 -0.59600689082E+03  0.65403186670E+03  0.00000000000E+00 0.  1.
          3    1    3    3  501    0  0.33436557826E+03  0.76932074842E+02 -0.29000848944E+03  0.44924804731E+03  0.00000000000E+00 0.  1.
         -3    1    1    2    0  502 -0.11191458136E+03  0.74886971202E+02  0.84160843351E+03  0.85231313924E+03  0.00000000000E+00 0. -1.
<mgrwt>
<rscale>  1 0.65742172E+03</rscale>
<asrwt>0</asrwt>
<pdfrwt beam="1">  1       21 0.14701431E+00 0.65742172E+03</pdfrwt>
<pdfrwt beam="2">0</pdfrwt>
<totfact> 0.26798216E+01</totfact>
</mgrwt>
</event>
<event>
 6    1  0.1347953E-004  0.6525461E+03  0.7818608E-02  0.9802013E-01
         21   -1    0    0  501  502  0.00000000000E+00  0.00000000000E+00  0.14769382043E+03  0.14769382043E+03  0.00000000000E+00 0. -1.
         13   -1    0    0    0    0 -0.00000000000E+00 -0.00000000000E+00 -0.10000000000E+04  0.10000000000E+04  0.00000000000E+00 0.  1.
    9000005    2    1    2  501    0 -0.23412003112E+01 -0.78069122862E+02 -0.84726493769E+03  0.10694270760E+04  0.64785502011E+03 0.  0.
         13    1    3    3    0    0  0.25762817759E+03 -0.14072720774E+03 -0.16528138559E+03  0.33688924191E+03  0.00000000000E+00 0.  1.
          3    1    3    3  501    0 -0.25996937791E+03  0.62658084877E+02 -0.68198355210E+03  0.73253783409E+03  0.00000000000E+00 0.  1.
         -3    1    1    2    0  502  0.23412003112E+01  0.78069122862E+02 -0.50412418842E+01  0.78266744426E+02  0.00000000000E+00 0. -1.
<mgrwt>
<rscale>  1 0.65254609E+03</rscale>
<asrwt>0</asrwt>
<pdfrwt beam="1">  1       21 0.22722126E-01 0.65254609E+03</pdfrwt>
<pdfrwt beam="2">0</pdfrwt>
<totfact> 0.17542754E+03</totfact>
</mgrwt>
</event>
<event>
 6    1  0.1347953E-004  0.7045736E+03  0.7818608E-02  0.9709443E-01
         21   -1    0    0  501  502  0.00000000000E+00  0.00000000000E+00  0.24076497727E+03  0.24076497727E+03  0.00000000000E+00 0. -1.
         13   -1    0    0    0    0 -0.00000000000E+00 -0.00000000000E+00 -0.10000000000E+04  0.10000000000E+04  0.00000000000E+00 0.  1.
    9000005    2    1    2  501    0 -0.26150543710E+03  0.89256316258E+02 -0.56236997929E+03  0.90148982500E+03  0.64812971491E+03 0.  0.
         13    1    3    3    0    0 -0.12697298650E+03 -0.27838276938E+03 -0.18395891339E+03  0.35701538819E+03  0.00000000000E+00 0.  1.
          3    1    3    3  501    0 -0.13453245059E+03  0.36763908563E+03 -0.37841106591E+03  0.54447443682E+03  0.00000000000E+00 0.  1.
         -1    1    1    2    0  502  0.26150543710E+03 -0.89256316258E+02 -0.19686504343E+03  0.33927515227E+03  0.00000000000E+00 0. -1.
<mgrwt>
<rscale>  1 0.70457357E+03</rscale>
<asrwt>0</asrwt>
<pdfrwt beam="1">  1       21 0.37040765E-01 0.70457357E+03</pdfrwt>
<pdfrwt beam="2">0</pdfrwt>
<totfact> 0.65922950E+02</totfact>
</mgrwt>
</event>
<event>
 6    1  0.1347953E-004  0.6482647E+03  0.7818608E-02  0.9810041E-01
         21   -1    0    0  501  502  0.00000000000E+00  0.00000000000E+00  0.24424857903E+03  0.24424857903E+03  0.00000000000E+00 0.  1.
         13   -1    0    0    0    0 -0.00000000000E+00 -0.00000000000E+00 -0.10000000000E+04  0.10000000000E+04  0.00000000000E+00 0.  1.
    9000005    2    1    2  501    0 -0.24692761694E+02 -0.44476687254E+02 -0.88978107354E+03  0.11008893939E+04  0.64626557283E+03 0.  0.
         13    1    3    3    0    0  0.17320938787E+03 -0.20799104416E+03 -0.13266031663E+03  0.30143079821E+03  0.00000000000E+00 0.  1.
          1    1    3    3  501    0 -0.19790214957E+03  0.16351435691E+03 -0.75712075691E+03  0.79945859571E+03  0.00000000000E+00 0.  1.
         -3    1    1    2    0  502  0.24692761694E+02  0.44476687254E+02  0.13402965257E+03  0.14335918511E+03  0.00000000000E+00 0. -1.
<mgrwt>
<rscale>  1 0.64826468E+03</rscale>
<asrwt>0</asrwt>
<pdfrwt beam="1">  1       21 0.37576703E-01 0.64826468E+03</pdfrwt>
<pdfrwt beam="2">0</pdfrwt>
<totfact> 0.64269236E+02</totfact>
</mgrwt>
</event>
<event>
 6    1  0.1347953E-004  0.6359775E+03  0.7818608E-02  0.9833453E-01
         21   -1    0    0  501  502  0.00000000000E+00  0.00000000000E+00  0.11845694733E+03  0.11845694733E+03  0.00000000000E+00 0.  1.
         13   -1    0    0    0    0 -0.00000000000E+00 -0.00000000000E+00 -0.10000000000E+04  0.10000000000E+04  0.00000000000E+00 0.  1.
    9000005    2    1    2  501    0  0.20622259438E+02  0.41646745427E+02 -0.85273892089E+03  0.10637814775E+04  0.63427725465E+03 0.  0.
         13    1    3    3    0    0 -0.75544142898E+01 -0.28044601623E+03 -0.23265342359E+03  0.36446488542E+03  0.00000000000E+00 0.  1.
          3    1    3    3  501    0  0.28176673728E+02  0.32209276166E+03 -0.62008549729E+03  0.69931659212E+03  0.00000000000E+00 0.  1.
         -3    1    1    2    0  502 -0.20622259438E+02 -0.41646745427E+02 -0.28804131781E+02  0.54675469789E+02  0.00000000000E+00 0. -1.
<mgrwt>
<rscale>  1 0.63597749E+03</rscale>
<asrwt>0</asrwt>
<pdfrwt beam="1">  1       21 0.18224145E-01 0.63597749E+03</pdfrwt>
<pdfrwt beam="2">0</pdfrwt>
<totfact> 0.26814249E+03</totfact>
</mgrwt>
</event>
<event>
 6    1  0.1347953E-004  0.6382996E+03  0.7818608E-02  0.9828985E-01
         21   -1    0    0  501  502  0.00000000000E+00  0.00000000000E+00  0.14678635870E+03  0.14678635870E+03  0.00000000000E+00 0.  1.
         13   -1    0    0    0    0 -0.00000000000E+00 -0.00000000000E+00 -0.10000000000E+04  0.10000000000E+04  0.00000000000E+00 0.  1.
    9000005    2    1    2  501    0  0.82342522904E+02  0.16436272314E+02 -0.84970778681E+03  0.10627462900E+04  0.63275264669E+03 0.  0.
         13    1    3    3    0    0 -0.15031085264E+03  0.16993832345E+03 -0.74249756790E+02  0.23871617579E+03  0.00000000000E+00 0.  1.
          3    1    3    3  501    0  0.23265337555E+03 -0.15350205114E+03 -0.77545803002E+03  0.82403011425E+03  0.00000000000E+00 0.  1.
         -3    1    1    2    0  502 -0.82342522904E+02 -0.16436272314E+02 -0.35058544862E+01  0.84040068666E+02  0.00000000000E+00 0. -1.
<mgrwt>
<rscale>  1 0.63829958E+03</rscale>
<asrwt>0</asrwt>
<pdfrwt beam="1">  1       21 0.22582516E-01 0.63829958E+03</pdfrwt>
<pdfrwt beam="2">0</pdfrwt>
<totfact> 0.17765625E+03</totfact>
</mgrwt>
</event>
<event>
 6    1  0.1347953E-004  0.6686883E+03  0.7818608E-02  0.9772330E-01
         21   -1    0    0  501  502  0.00000000000E+00  0.00000000000E+00  0.69597071240E+03  0.69597071240E+03  0.00000000000E+00 0. -1.
         13   -1    0    0    0    0 -0.00000000000E+00 -0.00000000000E+00 -0.10000000000E+04  0.10000000000E+04  0.00000000000E+00 0.  1.
    9000005    2    1    2  501    0 -0.33792929501E+01 -0.96457309419E+02 -0.88377667396E+03  0.11082441908E+04  0.66168613778E+03 0.  0.
         13    1    3    3    0    0  0.25829898600E+03  0.15686554790E+03 -0.35553833794E+03  0.46661834087E+03  0.00000000000E+00 0.  1.
          1    1    3    3  501    0 -0.26167827895E+03 -0.25332285732E+03 -0.52823833601E+03  0.64162584997E+03  0.00000000000E+00 0.  1.
         -1    1    1    2    0  502  0.33792929501E+01  0.96457309419E+02  0.57974738635E+03  0.58772652156E+03  0.00000000000E+00 0. -1.
<mgrwt>
<rscale>  1 0.66868825E+03</rscale>
<asrwt>0</asrwt>
<pdfrwt beam="1">  1       21 0.10707241E+00 0.66868825E+03</pdfrwt>
<pdfrwt beam="2">0</pdfrwt>
<totfact> 0.61052082E+01</totfact>
</mgrwt>
</event>
<event>
 6    1  0.1347953E-004  0.6875955E+03  0.7818608E-02  0.9738684E-01
         21   -1    0    0  501  502  0.00000000000E+00  0.00000000000E+00  0.20149348683E+03  0.20149348683E+03  0.00000000000E+00 0.  1.
         13   -1    0    0    0    0 -0.00000000000E+00 -0.00000000000E+00 -0.10000000000E+04  0.10000000000E+04  0.00000000000E+00 0.  1.
    9000005    2    1    2  501    0 -0.15698236974E+03  0.13412050587E+03 -0.65827931682E+03  0.95190293994E+03  0.65586261794E+03 0.  0.
         13    1    3    3    0    0 -0.19627038312E+03 -0.20596033953E+03 -0.49880785178E+03  0.57423949511E+03  0.00000000000E+00 0.  1.
          1    1    3    3  501    0  0.39288013376E+02  0.34008084540E+03 -0.15947146504E+03  0.37766344483E+03  0.00000000000E+00 0.  1.
         -3    1    1    2    0  502  0.15698236974E+03 -0.13412050587E+03 -0.14022719634E+03  0.24959054689E+03  0.00000000000E+00 0. -1.
<mgrwt>
<rscale>  1 0.68759548E+03</rscale>
<asrwt>0</asrwt>
<pdfrwt beam="1">  1       21 0.30998997E-01 0.68759548E+03</pdfrwt>
<pdfrwt beam="2">0</pdfrwt>
<totfact> 0.94800778E+02</totfact>
</mgrwt>
</event>
<event>
 6    1  0.1347953E-004  0.6377833E+03  0.7818608E-02  0.9829977E-01
         21   -1    0    0  501  502  0.00000000000E+00  0.00000000000E+00  0.25526756126E+03  0.25526756126E+03  0.00000000000E+00 0. -1.
         13   -1    0    0    0    0 -0.00000000000E+00 -0.00000000000E+00 -0.10000000000E+04  0.10000000000E+04  0.00000000000E+00 0.  1.
    9000005    2    1    2  501    0 -0.96597859881E+01  0.20650097985E+02 -0.89737543241E+03  0.11009314944E+04  0.63737567468E+03 0.  0.
         13    1    3    3    0    0  0.16780733998E+03 -0.18602208538E+03 -0.75099964946E+03  0.79168427614E+03  0.00000000000E+00 0.  1.
          1    1    3    3  501    0 -0.17746712597E+03  0.20667218336E+03 -0.14637578296E+03  0.30924721828E+03  0.00000000000E+00 0.  1.
         -3    1    1    2    0  502  0.96597859881E+01 -0.20650097985E+02  0.15264299368E+03  0.15433606685E+03  0.00000000000E+00 0. -1.
<mgrwt>
<rscale>  1 0.63778326E+03</rscale>
<asrwt>0</asrwt>
<pdfrwt beam="1">  1       21 0.39271931E-01 0.63778326E+03</pdfrwt>
<pdfrwt beam="2">0</pdfrwt>
<totfact> 0.58726030E+02</totfact>
</mgrwt>
</event>
<event>
 6    1  0.1347953E-004  0.6551338E+03  0.7818608E-02  0.9797193E-01
         21   -1    0    0  501  502  0.00000000000E+00  0.00000000000E+00  0.15648750100E+03  0.15648750100E+03  0.00000000000E+00 0.  1.
         13   -1    0    0    0    0 -0.00000000000E+00 -0.00000000000E+00 -0.10000000000E+04  0.10000000000E+04  0.00000000000E+00 0.  1.
    9000005    2    1    2  501    0 -0.20771682367E+02  0.82987403704E+01 -0.88986755257E+03  0.11050178704E+04  0.65475178575E+03 0.  0.
         13    1    3    3    0    0 -0.19499981297E+03  0.68789040204E+02 -0.89692593443E+03  0.92045260115E+03  0.00000000000E+00 0.  1.
          3    1    3    3  501    0  0.17422813060E+03 -0.60490299833E+02  0.70583818593E+01  0.18456526927E+03  0.00000000000E+00 0.  1.
         -3    1    1    2    0  502  0.20771682367E+02 -0.82987403704E+01  0.46355053576E+02  0.51469630581E+02  0.00000000000E+00 0. -1.
<mgrwt>
<rscale>  1 0.65513375E+03</rscale>
<asrwt>0</asrwt>
<pdfrwt beam="1">  1       21 0.24074999E-01 0.65513375E+03</pdfrwt>
<pdfrwt beam="2">0</pdfrwt>
<totfact> 0.15672415E+03</totfact>
</mgrwt>
</event>
<event>
 6    1  0.1347953E-004  0.6458527E+03  0.7818608E-02  0.9814593E-01
         21   -1    0    0  501  502  0.00000000000E+00  0.00000000000E+00  0.42595514132E+03  0.42595514132E+03  0.00000000000E+00 0.  1.
         13   -1    0    0    0    0 -0.00000000000E+00 -0.00000000000E+00 -0.10000000000E+04  0.10000000000E+04  0.00000000000E+00 0.  1.
    9000005    2    1    2  501    0 -0.72012978267E+01 -0.35859814774E+02 -0.89456994852E+03  0.11033499364E+04  0.64481617877E+03 0.  0.
         13    1    3    3    0    0  0.25090811406E+03 -0.21579284005E+03 -0.44246174947E+03  0.55253400915E+03  0.00000000000E+00 0.  1.
          3    1    3    3  501    0 -0.25810941189E+03  0.17993302527E+03 -0.45210819905E+03  0.55081592728E+03  0.00000000000E+00 0.  1.
         -1    1    1    2    0  502  0.72012978267E+01  0.35859814774E+02  0.32052508985E+03  0.32260520490E+03  0.00000000000E+00 0. -1.
<mgrwt>
<rscale>  1 0.64585268E+03</rscale>
<asrwt>0</asrwt>
<pdfrwt beam="1">  1       21 0.65531558E-01 0.64585268E+03</pdfrwt>
<pdfrwt beam="2">0</pdfrwt>
<totfact> 0.19503557E+02</totfact>
</mgrwt>
</event>
<event>
 6    1  0.1347953E-004  0.6461789E+03  0.7818608E-02  0.9813976E-01
         21   -1    0    0  501  502  0.00000000000E+00  0.00000000000E+00  0.11661629759E+03  0.11661629759E+03  0.00000000000E+00 0.  1.
         13   -1    0    0    0    0 -0.00000000000E+00 -0.00000000000E+00 -0.10000000000E+04  0.10000000000E+04  0.00000000000E+00 0.  1.
    9000005    2    1    2  501    0 -0.25925349091E+02 -0.10436388930E+02 -0.87441237947E+03  0.10872645247E+04  0.64557423682E+03 0.  0.
         13    1    3    3    0    0 -0.14029754378E+03  0.26560796190E+03 -0.23467399343E+03  0.38118614011E+03  0.00000000000E+00 0.  1.
          3    1    3    3  501    0  0.11437219469E+03 -0.27604435083E+03 -0.63973838604E+03  0.70607838455E+03  0.00000000000E+00 0.  1.
         -1    1    1    2    0  502  0.25925349091E+02  0.10436388930E+02 -0.89713229363E+01  0.29351772938E+02  0.00000000000E+00 0. -1.
<mgrwt>
<rscale>  1 0.64617887E+03</rscale>
<asrwt>0</asrwt>
<pdfrwt beam="1">  1       21 0.17940968E-01 0.64617887E+03</pdfrwt>
<pdfrwt beam="2">0</pdfrwt>
<totfact> 0.27613574E+03</totfact>
</mgrwt>
</event>
<event>
 6    1  0.1347953E-004  0.6583356E+03  0.7818608E-02  0.9791263E-01
         21   -1    0    0  501  502  0.00000000000E+00  0.00000000000E+00  0.18147252949E+03  0.18147252949E+03  0.00000000000E+00 0. -1.
         13   -1    0    0    0    0 -0.00000000000E+00 -0.00000000000E+00 -0.10000000000E+04  0.10000000000E+04  0.00000000000E+00 0.  1.
    9000005    2    1    2  501    0  0.65522841456E+02  0.78212564426E+02 -0.84960008056E+03  0.10748144071E+04  0.65038086128E+03 0.  0.
         13    1    3    3    0    0  0.25892469027E+03 -0.14103551366E+03 -0.18325333322E+03  0.34715240958E+03  0.00000000000E+00 0.  1.
          1    1    3    3  501    0 -0.19340184881E+03  0.21924807809E+03 -0.66634674734E+03  0.72766199747E+03  0.00000000000E+00 0.  1.
         -3    1    1    2    0  502 -0.65522841456E+02 -0.78212564426E+02  0.31072610050E+02  0.10665812244E+03  0.00000000000E+00 0. -1.
<mgrwt>
<rscale>  1 0.65833556E+03</rscale>
<asrwt>0</asrwt>
<pdfrwt beam="1">  1       21 0.27918850E-01 0.65833556E+03</pdfrwt>
<pdfrwt beam="2">0</pdfrwt>
<totfact> 0.11706271E+03</totfact>
</mgrwt>
</event>
<event>
 6    1  0.1347953E-004  0.6257888E+03  0.7818608E-02  0.9853301E-01
         21   -1    0    0  501  502  0.00000000000E+00  0.00000000000E+00  0.13135911707E+03  0.13135911707E+03  0.00000000000E+00 0.  1.
         13   -1    0    0    0    0 -0.00000000000E+00 -0.00000000000E+00 -0.10000000000E+04  0.10000000000E+04  0.00000000000E+00 0.  1.
    9000005    2    1    2  501    0  0.85293100165E+01  0.47189254863E+02 -0.88211844171E+03  0.10815472762E+04  0.62394870821E+03 0.  0.
         13    1    3    3    0    0 -0.99112612142E+02  0.29362131810E+03 -0.26265439234E+03  0.40623160653E+03  0.00000000000E+00 0.  1.
          1    1    3    3  501    0  0.10764192216E+03 -0.24643206324E+03 -0.61946404937E+03  0.67531566964E+03  0.00000000000E+00 0.  1.
         -1    1    1    2    0  502 -0.85293100165E+01 -0.47189254863E+02  0.13477558779E+02  0.49811840907E+02  0.00000000000E+00 0. -1.
<mgrwt>
<rscale>  1 0.62578875E+03</rscale>
<asrwt>0</asrwt>
<pdfrwt beam="1">  1       21 0.20209094E-01 0.62578875E+03</pdfrwt>
<pdfrwt beam="2">0</pdfrwt>
<totfact> 0.22020755E+03</totfact>
</mgrwt>
</event>
<event>
 6    1  0.1347953E-004  0.6475526E+03  0.7818608E-02  0.9811382E-01
         21   -1    0    0  501  502  0.00000000000E+00  0.00000000000E+00  0.17726750052E+03  0.17726750052E+03  0.00000000000E+00 0.  1.
         13   -1    0    0    0    0 -0.00000000000E+00 -0.00000000000E+00 -0.10000000000E+04  0.10000000000E+04  0.00000000000E+00 0.  1.
    9000005    2    1    2  501    0 -0.10443099180E+02 -0.82907511672E+02 -0.86744833619E+03  0.10824929266E+04  0.64213830780E+03 0.  0.
         13    1    3    3    0    0 -0.18387479011E+03  0.22408100808E+03 -0.45948933637E+03  0.54327956602E+03  0.00000000000E+00 0.  1.
          3    1    3    3  501    0  0.17343169092E+03 -0.30698851975E+03 -0.40795899982E+03  0.53921336057E+03  0.00000000000E+00 0.  1.
         -3    1    1    2    0  502  0.10443099180E+02  0.82907511672E+02  0.44715836712E+02  0.94774573938E+02  0.00000000000E+00 0. -1.
<mgrwt>
<rscale>  1 0.64755256E+03</rscale>
<asrwt>0</asrwt>
<pdfrwt beam="1">  1       21 0.27271922E-01 0.64755256E+03</pdfrwt>
<pdfrwt beam="2">0</pdfrwt>
<totfact> 0.12271028E+03</totfact>
</mgrwt>
</event>
<event>
 6    1  0.1347953E-004  0.6391883E+03  0.7818608E-02  0.9827281E-01
         21   -1    0    0  501  502  0.00000000000E+00  0.00000000000E+00  0.13104228744E+03  0.13104228744E+03  0.00000000000E+00 0.  1.
         13   -1    0    0    0    0 -0.00000000000E+00 -0.00000000000E+00 -0.10000000000E+04  0.10000000000E+04  0.00000000000E+00 0.  1.
    9000005    2    1    2  501    0 -0.18062862444E+02  0.12333886787E+02 -0.89322802789E+03  0.10983705876E+04  0.63881393706E+03 0.  0.
         13    1    3    3    0    0 -0.27379139524E+01  0.23451420771E+03 -0.83621380065E+03  0.86848024168E+03  0.00000000000E+00 0.  1.
          3    1    3    3  501    0 -0.15324948492E+02 -0.22218032092E+03 -0.57014227237E+02  0.22989034594E+03  0.00000000000E+00 0.  1.
         -3    1    1    2    0  502  0.18062862444E+02 -0.12333886787E+02  0.24270315329E+02  0.32671699820E+02  0.00000000000E+00 0. -1.
<mgrwt>
<rscale>  1 0.63918826E+03</rscale>
<asrwt>0</asrwt>
<pdfrwt beam="1">  1       21 0.20160351E-01 0.63918826E+03</pdfrwt>
<pdfrwt beam="2">0</pdfrwt>
<totfact> 0.22110907E+03</totfact>
</mgrwt>
</event>
<event>
 6    1  0.1347953E-004  0.6609813E+03  0.7818608E-02  0.9786389E-01
         21   -1    0    0  501  502  0.00000000000E+00  0.00000000000E+00  0.18232923470E+03  0.18232923470E+03  0.00000000000E+00 0. -1.
         13   -1    0    0    0    0 -0.00000000000E+00 -0.00000000000E+00 -0.10000000000E+04  0.10000000000E+04  0.00000000000E+00 0.  1.
    9000005    2    1    2  501    0  0.25389724473E+02  0.84861552513E+02 -0.85958465209E+03  0.10843348721E+04  0.65501925120E+03 0.  0.
         13    1    3    3    0    0  0.35307374069E+02 -0.27522443489E+03 -0.23638806138E+03  0.36451943129E+03  0.00000000000E+00 0.  1.
          3    1    3    3  501    0 -0.99176495962E+01  0.36008598740E+03 -0.62319659071E+03  0.71981544077E+03  0.00000000000E+00 0.  1.
         -3    1    1    2    0  502 -0.25389724473E+02 -0.84861552513E+02  0.41913886786E+02  0.97994362640E+02  0.00000000000E+00 0. -1.
<mgrwt>
<rscale>  1 0.66098135E+03</rscale>
<asrwt>0</asrwt>
<pdfrwt beam="1">  1       21 0.28050651E-01 0.66098135E+03</pdfrwt>
<pdfrwt beam="2">0</pdfrwt>
<totfact> 0.11595470E+03</totfact>
</mgrwt>
</event>
<event>
 6    1  0.1347953E-004  0.6610570E+03  0.7818608E-02  0.9786250E-01
         21   -1    0    0  501  502  0.00000000000E+00  0.00000000000E+00  0.32458243334E+03  0.32458243334E+03  0.00000000000E+00 0. -1.
         13   -1    0    0    0    0 -0.00000000000E+00 -0.00000000000E+00 -0.10000000000E+04  0.10000000000E+04  0.00000000000E+00 0.  1.
    9000005    2    1    2  501    0 -0.18697504799E+02 -0.67141459113E+02 -0.88447359040E+03  0.11042145743E+04  0.65737258984E+03 0.  0.
         13    1    3    3    0    0 -0.15000320819E+03 -0.52130954968E+02 -0.94542944722E+03  0.95867379155E+03  0.00000000000E+00 0.  1.
          3    1    3    3  501    0  0.13130570339E+03 -0.15010504146E+02  0.60955856821E+02  0.14554078280E+03  0.00000000000E+00 0.  1.
         -3    1    1    2    0  502  0.18697504799E+02  0.67141459113E+02  0.20905602373E+03  0.22036785899E+03  0.00000000000E+00 0. -1.
<mgrwt>
<rscale>  1 0.66105695E+03</rscale>
<asrwt>0</asrwt>
<pdfrwt beam="1">  1       21 0.49935758E-01 0.66105695E+03</pdfrwt>
<pdfrwt beam="2">0</pdfrwt>
<totfact> 0.35331801E+02</totfact>
</mgrwt>
</event>
<event>
 6    1  0.1347953E-004  0.6588678E+03  0.7818608E-02  0.9790280E-01
         21   -1    0    0  501  502  0.00000000000E+00  0.00000000000E+00  0.12448508502E+03  0.12448508502E+03  0.00000000000E+00 0.  1.
         13   -1    0    0    0    0 -0.00000000000E+00 -0.00000000000E+00 -0.10000000000E+04  0.10000000000E+04  0.00000000000E+00 0.  1.
    9000005    2    1    2  501    0 -0.20256861084E+02 -0.34322856646E+02 -0.85572619380E+03  0.10799879796E+04  0.65766124891E+03 0.  0.
         13    1    3    3    0    0  0.19779216997E+03  0.16960731503E+03 -0.69213733696E+03  0.73955559428E+03  0.00000000000E+00 0.  1.
          1    1    3    3  501    0 -0.21804903106E+03 -0.20393017167E+03 -0.16358885684E+03  0.34043238528E+03  0.00000000000E+00 0.  1.
         -1    1    1    2    0  502  0.20256861084E+02  0.34322856646E+02 -0.19788721175E+02  0.44497105468E+02  0.00000000000E+00 0. -1.
<mgrwt>
<rscale>  1 0.65886775E+03</rscale>
<asrwt>0</asrwt>
<pdfrwt beam="1">  1       21 0.19151551E-01 0.65886775E+03</pdfrwt>
<pdfrwt beam="2">0</pdfrwt>
<totfact> 0.24375803E+03</totfact>
</mgrwt>
</event>
<event>
 6    1  0.1347953E-004  0.6937573E+03  0.7818608E-02  0.9727968E-01
         21   -1    0    0  501  502  0.00000000000E+00  0.00000000000E+00  0.26083722641E+03  0.26083722641E+03  0.00000000000E+00 0.  1.
         13   -1    0    0    0    0 -0.00000000000E+00 -0.00000000000E+00 -0.10000000000E+04  0.10000000000E+04  0.00000000000E+00 0.  1.
    9000005    2    1    2  501    0 -0.21198355069E+02  0.25708636186E+03 -0.72354594401E+03  0.10024060884E+04  0.64401588902E+03 0.  0.
         13    1    3    3    0    0 -0.12196539336E+03 -0.13139899303E+03 -0.49719956769E+01  0.17934874766E+03  0.00000000000E+00 0.  1.
          1    1    3    3  501    0  0.10076703829E+03  0.38848535489E+03 -0.71857394833E+03  0.82305734077E+03  0.00000000000E+00 0.  1.
         -1    1    1    2    0  502  0.21198355069E+02 -0.25708636186E+03 -0.15616829576E+02  0.25843113798E+03  0.00000000000E+00 0. -1.
<mgrwt>
<rscale>  1 0.69375733E+03</rscale>
<asrwt>0</asrwt>
<pdfrwt beam="1">  1       21 0.40128803E-01 0.69375733E+03</pdfrwt>
<pdfrwt beam="2">0</pdfrwt>
<totfact> 0.55907282E+02</totfact>
</mgrwt>
</event>
<event>
 6    1  0.1347953E-004  0.6954559E+03  0.7818608E-02  0.9725035E-01
         21   -1    0    0  501  502  0.00000000000E+00  0.00000000000E+00  0.20224858292E+03  0.20224858292E+03  0.00000000000E+00 0.  1.
         13   -1    0    0    0    0 -0.00000000000E+00 -0.00000000000E+00 -0.10000000000E+04  0.10000000000E+04  0.00000000000E+00 0.  1.
    9000005    2    1    2  501    0 -0.18989561692E+02  0.21407202942E+02 -0.87625247285E+03  0.11186944834E+04  0.69486695071E+03 0.  0.
         13    1    3    3    0    0 -0.12788010704E+03  0.14047032224E+03 -0.92955774813E+03  0.94876911855E+03  0.00000000000E+00 0.  1.
          3    1    3    3  501    0  0.10889054535E+03 -0.11906311929E+03  0.53305275277E+02  0.16992536484E+03  0.00000000000E+00 0.  1.
         -3    1    1    2    0  502  0.18989561692E+02 -0.21407202942E+02  0.78501055771E+02  0.83554099529E+02  0.00000000000E+00 0. -1.
<mgrwt>
<rscale>  1 0.69545593E+03</rscale>
<asrwt>0</asrwt>
<pdfrwt beam="1">  1       21 0.31115166E-01 0.69545593E+03</pdfrwt>
<pdfrwt beam="2">0</pdfrwt>
<totfact> 0.94044504E+02</totfact>
</mgrwt>
</event>
<event>
 6    1  0.1347953E-004  0.6808820E+03  0.7818608E-02  0.9750497E-01
         21   -1    0    0  501  502  0.00000000000E+00  0.00000000000E+00  0.25245950914E+03  0.25245950914E+03  0.00000000000E+00 0. -1.
         13   -1    0    0    0    0 -0.00000000000E+00 -0.00000000000E+00 -0.10000000000E+04  0.10000000000E+04  0.00000000000E+00 0.  1.
    9000005    2    1    2  501    0  0.15069039146E+02 -0.21184334660E+02 -0.88271759705E+03  0.11148052247E+04  0.68038553850E+03 0.  0.
         13    1    3    3    0    0 -0.10351859441E+03 -0.23594659905E+03 -0.82289395528E+03  0.86228844282E+03  0.00000000000E+00 0.  1.
          1    1    3    3  501    0  0.11858763355E+03  0.21476226439E+03 -0.59823641766E+02  0.25251678192E+03  0.00000000000E+00 0.  1.
         -1    1    1    2    0  502 -0.15069039146E+02  0.21184334660E+02  0.13517710619E+03  0.13765428440E+03  0.00000000000E+00 0. -1.
<mgrwt>
<rscale>  1 0.68088203E+03</rscale>
<asrwt>0</asrwt>
<pdfrwt beam="1">  1       21 0.38839923E-01 0.68088203E+03</pdfrwt>
<pdfrwt beam="2">0</pdfrwt>
<totfact> 0.59882783E+02</totfact>
</mgrwt>
</event>
<event>
 6    1  0.1347953E-004  0.6345718E+03  0.7818608E-02  0.9836168E-01
         21   -1    0    0  501  502  0.00000000000E+00  0.00000000000E+00  0.14177013804E+03  0.14177013804E+03  0.00000000000E+00 0.  1.
         13   -1    0    0    0    0 -0.00000000000E+00 -0.00000000000E+00 -0.10000000000E+04  0.10000000000E+04  0.00000000000E+00 0.  1.
    9000005    2    1    2  501    0 -0.50679733003E+02 -0.90100812165E+00 -0.88137393917E+03  0.10860485492E+04  0.63254421460E+03 0.  0.
         13    1    3    3    0    0  0.10640311980E+03 -0.28747848796E+03 -0.39288123320E+03  0.49831834037E+03  0.00000000000E+00 0.  1.
          3    1    3    3  501    0 -0.15708285281E+03  0.28657747984E+03 -0.48849270597E+03  0.58773020883E+03  0.00000000000E+00 0.  1.
         -1    1    1    2    0  502  0.50679733003E+02  0.90100812165E+00  0.23144077212E+02  0.55721588841E+02  0.00000000000E+00 0. -1.
<mgrwt>
<rscale>  1 0.63457185E+03</rscale>
<asrwt>0</asrwt>
<pdfrwt beam="1">  1       21 0.21810790E-01 0.63457185E+03</pdfrwt>
<pdfrwt beam="2">0</pdfrwt>
<totfact> 0.19006033E+03</totfact>
</mgrwt>
</event>
<event>
 6    1  0.1347953E-004  0.6515557E+03  0.7818608E-02  0.9803864E-01
         21   -1    0    0  501  502  0.00000000000E+00  0.00000000000E+00  0.29124130301E+03  0.29124130301E+03  0.00000000000E+00 0. -1.
         13   -1    0    0    0    0 -0.00000000000E+00 -0.00000000000E+00 -0.10000000000E+04  0.10000000000E+04  0.00000000000E+00 0.  1.
    9000005    2    1    2  501    0 -0.27855818093E+02  0.39174780601E+02 -0.89040974871E+03  0.11033378314E+04  0.64978014715E+03 0.  0.
         13    1    3    3    0    0 -0.18886647303E+02 -0.26585203963E+03 -0.15784729210E+03  0.30975761500E+03  0.00000000000E+00 0.  1.
          1    1    3    3  501    0 -0.89691707900E+01  0.30502682023E+03 -0.73256245661E+03  0.79358021644E+03  0.00000000000E+00 0.  1.
         -1    1    1    2    0  502  0.27855818093E+02 -0.39174780601E+02  0.18165105173E+03  0.18790347157E+03  0.00000000000E+00 0. -1.
<mgrwt>
<rscale>  1 0.65155571E+03</rscale>
<asrwt>0</asrwt>
<pdfrwt beam="1">  1       21 0.44806353E-01 0.65155571E+03</pdfrwt>
<pdfrwt beam="2">0</pdfrwt>
<totfact> 0.44530380E+02</totfact>
</mgrwt>
</event>
<event>
 6    1  0.1347953E-004  0.6660296E+03  0.7818608E-02  0.9777157E-01
         21   -1    0    0  501  502  0.00000000000E+00  0.00000000000E+00  0.15100157776E+03  0.15100157776E+03  0.00000000000E+00 0.  1.
         13   -1    0    0    0    0 -0.00000000000E+00 -0.00000000000E+00 -0.10000000000E+04  0.10000000000E+04  0.00000000000E+00 0.  1.
    9000005    2    1    2  501    0  0.40431657874E+01 -0.69307885524E+02 -0.85209262685E+03  0.10815069428E+04  0.66240130769E+03 0.  0.
         13    1    3    3    0    0 -0.14837659135E+03  0.97029405288E+02  0.22111841110E+02  0.17865959775E+03  0.00000000000E+00 0.  1.
          3    1    3    3  501    0  0.15241975714E+03 -0.16633729081E+03 -0.87420446796E+03  0.90284734506E+03  0.00000000000E+00 0.  1.
         -3    1    1    2    0  502 -0.40431657874E+01  0.69307885524E+02  0.30942046101E+01  0.69494634955E+02  0.00000000000E+00 0. -1.
<mgrwt>
<rscale>  1 0.66602960E+03</rscale>
<asrwt>0</asrwt>
<pdfrwt beam="1">  1       21 0.23231011E-01 0.66602960E+03</pdfrwt>
<pdfrwt beam="2">0</pdfrwt>
<totfact> 0.16792895E+03</totfact>
</mgrwt>
</event>
<event>
 6    1  0.1347953E-004  0.6600342E+03  0.7818608E-02  0.9788131E-01
         21   -1    0    0  501  502  0.00000000000E+00  0.00000000000E+00  0.24040031670E+03  0.24040031670E+03  0.00000000000E+00 0. -1.
         13   -1    0    0    0    0 -0.00000000000E+00 -0.00000000000E+00 -0.10000000000E+04  0.10000000000E+04  0.00000000000E+00 0.  1.
    9000005    2    1    2  501    0 -0.86536906057E+02 -0.32030972099E+01 -0.87506109910E+03  0.10960734845E+04  0.65432886260E+03 0.  0.
         13    1    3    3    0    0  0.19852220924E+03 -0.22375032448E+03 -0.41803696198E+03  0.51403324489E+03  0.00000000000E+00 0.  1.
          3    1    3    3  501    0 -0.28505911530E+03  0.22054722727E+03 -0.45702413712E+03  0.58204023966E+03  0.00000000000E+00 0.  1.
         -3    1    1    2    0  502  0.86536906057E+02  0.32030972099E+01  0.11546141580E+03  0.14432683216E+03  0.00000000000E+00 0. -1.
<mgrwt>
<rscale>  1 0.66003421E+03</rscale>
<asrwt>0</asrwt>
<pdfrwt beam="1">  1       21 0.36984663E-01 0.66003421E+03</pdfrwt>
<pdfrwt beam="2">0</pdfrwt>
<totfact> 0.66342594E+02</totfact>
</mgrwt>
</event>
<event>
 6    1  0.1347953E-004  0.6465336E+03  0.7818608E-02  0.9813306E-01
         21   -1    0    0  501  502  0.00000000000E+00  0.00000000000E+00  0.11358826522E+03  0.11358826522E+03  0.00000000000E+00 0.  1.
         13   -1    0    0    0    0 -0.00000000000E+00 -0.00000000000E+00 -0.10000000000E+04  0.10000000000E+04  0.00000000000E+00 0.  1.
    9000005    2    1    2  501    0 -0.85726109022E+01  0.23532541763E+02 -0.86881253755E+03  0.10829777781E+04  0.64604827392E+03 0.  0.
         13    1    3    3    0    0 -0.11773409770E+03 -0.26058284300E+03 -0.20233709455E+03  0.35029278562E+03  0.00000000000E+00 0.  1.
          3    1    3    3  501    0  0.10916148679E+03  0.28411538477E+03 -0.66647544300E+03  0.73268499246E+03  0.00000000000E+00 0.  1.
         -3    1    1    2    0  502  0.85726109022E+01 -0.23532541763E+02 -0.17599197230E+02  0.30610487135E+02  0.00000000000E+00 0. -1.
<mgrwt>
<rscale>  1 0.64653356E+03</rscale>
<asrwt>0</asrwt>
<pdfrwt beam="1">  1       21 0.17475117E-01 0.64653356E+03</pdfrwt>
<pdfrwt beam="2">0</pdfrwt>
<totfact> 0.29024508E+03</totfact>
</mgrwt>
</event>
<event>
 6    1  0.1347953E-004  0.6274708E+03  0.7818608E-02  0.9849997E-01
         21   -1    0    0  501  502  0.00000000000E+00  0.00000000000E+00  0.12190824591E+03  0.12190824591E+03  0.00000000000E+00 0.  1.
         13   -1    0    0    0    0 -0.00000000000E+00 -0.00000000000E+00 -0.10000000000E+04  0.10000000000E+04  0.00000000000E+00 0.  1.
    9000005    2    1    2  501    0  0.13650126700E+02 -0.40684384659E+02 -0.87778599439E+03  0.10789939289E+04  0.62600167858E+03 0.  0.
         13    1    3    3    0    0  0.14909559097E+03 -0.28984906075E+03 -0.59540241263E+03  0.67878273861E+03  0.00000000000E+00 0.  1.
          3    1    3    3  501    0 -0.13544546427E+03  0.24916467609E+03 -0.28238358176E+03  0.40021119031E+03  0.00000000000E+00 0.  1.
         -1    1    1    2    0  502 -0.13650126700E+02  0.40684384659E+02 -0.30575969107E+00  0.42914316993E+02  0.00000000000E+00 0. -1.
<mgrwt>
<rscale>  1 0.62747083E+03</rscale>
<asrwt>0</asrwt>
<pdfrwt beam="1">  1       21 0.18755114E-01 0.62747083E+03</pdfrwt>
<pdfrwt beam="2">0</pdfrwt>
<totfact> 0.25397222E+03</totfact>
</mgrwt>
</event>
<event>
 6    1  0.1347953E-004  0.6583802E+03  0.7818608E-02  0.9791180E-01
         21   -1    0    0  501  502  0.00000000000E+00  0.00000000000E+00  0.29789937251E+03  0.29789937251E+03  0.00000000000E+00 0. -1.
         13   -1    0    0    0    0 -0.00000000000E+00 -0.00000000000E+00 -0.10000000000E+04  0.10000000000E+04  0.00000000000E+00 0.  1.
    9000005    2    1    2  501    0 -0.25709290560E+02 -0.48230735865E+01 -0.89063296658E+03  0.11075610618E+04  0.65786031549E+03 0.  0.
         13    1    3    3    0    0  0.23355275249E+03 -0.18992518024E+03 -0.24694325592E+03  0.38935771975E+03  0.00000000000E+00 0.  1.
          3    1    3    3  501    0 -0.25926204305E+03  0.18510210666E+03 -0.64368971065E+03  0.71820334200E+03  0.00000000000E+00 0.  1.
         -3    1    1    2    0  502  0.25709290560E+02  0.48230735865E+01  0.18853233909E+03  0.19033831076E+03  0.00000000000E+00 0. -1.
<mgrwt>
<rscale>  1 0.65838015E+03</rscale>
<asrwt>0</asrwt>
<pdfrwt beam="1">  1       21 0.45830671E-01 0.65838015E+03</pdfrwt>
<pdfrwt beam="2">0</pdfrwt>
<totfact> 0.42427462E+02</totfact>
</mgrwt>
</event>
<event>
 6    1  0.1347953E-004  0.7045829E+03  0.7818608E-02  0.9709427E-01
         21   -1    0    0  501  502  0.00000000000E+00  0.00000000000E+00  0.21164236329E+03  0.21164236329E+03  0.00000000000E+00 0.  1.
         13   -1    0    0    0    0 -0.00000000000E+00 -0.00000000000E+00 -0.10000000000E+04  0.10000000000E+04  0.00000000000E+00 0.  1.
    9000005    2    1    2  501    0  0.40289733348E+02  0.76941857850E+01 -0.87044873555E+03  0.11198741138E+04  0.70338792029E+03 0.  0.
         13    1    3    3    0    0 -0.98990833904E+02 -0.30156005121E+03 -0.21961095773E+03  0.38596194428E+03  0.00000000000E+00 0.  1.
          3    1    3    3  501    0  0.13928056725E+03  0.30925423699E+03 -0.65083777782E+03  0.73391216951E+03  0.00000000000E+00 0.  1.
         -3    1    1    2    0  502 -0.40289733348E+02 -0.76941857850E+01  0.82091098841E+02  0.91768249505E+02  0.00000000000E+00 0. -1.
<mgrwt>
<rscale>  1 0.70458288E+03</rscale>
<asrwt>0</asrwt>
<pdfrwt beam="1">  1       21 0.32560363E-01 0.70458288E+03</pdfrwt>
<pdfrwt beam="2">0</pdfrwt>
<totfact> 0.85759747E+02</totfact>
</mgrwt>
</event>
<event>
 6    1  0.1347953E-004  0.6399877E+03  0.7818608E-02  0.9825750E-01
         21   -1    0    0  501  502  0.00000000000E+00  0.00000000000E+00  0.12276487567E+03  0.12276487567E+03  0.00000000000E+00 0.  1.
         13   -1    0    0    0    0 -0.00000000000E+00 -0.00000000000E+00 -0.10000000000E+04  0.10000000000E+04  0.00000000000E+00 0.  1.
    9000005    2    1    2  501    0 -0.45568552736E+02 -0.61141775273E+01 -0.86344229517E+03  0.10747636434E+04  0.63833409423E+03 0.  0.
         13    1    3    3    0    0 -0.23925722531E+03 -0.52614331546E+02 -0.83905316766E+03  0.87408380944E+03  0.00000000000E+00 0.  1.
          3    1    3    3  501    0  0.19368867258E+03  0.46500154019E+02 -0.24389127510E+02  0.20067983394E+03  0.00000000000E+00 0.  1.
         -3    1    1    2    0  502  0.45568552736E+02  0.61141775273E+01 -0.13792829160E+02  0.48001232292E+02  0.00000000000E+00 0. -1.
<mgrwt>
<rscale>  1 0.63998773E+03</rscale>
<asrwt>0</asrwt>
<pdfrwt beam="1">  1       21 0.18886903E-01 0.63998773E+03</pdfrwt>
<pdfrwt beam="2">0</pdfrwt>
<totfact> 0.25049046E+03</totfact>
</mgrwt>
</event>
<event>
 6    1  0.1347953E-004  0.6660697E+03  0.7818608E-02  0.9777084E-01
         21   -1    0    0  501  502  0.00000000000E+00  0.00000000000E+00  0.40615599097E+03  0.40615599097E+03  0.00000000000E+00 0.  1.
         13   -1    0    0    0    0 -0.00000000000E+00 -0.00000000000E+00 -0.10000000000E+04  0.10000000000E+04  0.00000000000E+00 0.  1.
    9000005    2    1    2  501    0  0.86351833835E+01 -0.18576334334E+02 -0.88869298781E+03  0.11105962392E+04  0.66575455935E+03 0.  0.
         13    1    3    3    0    0  0.94920601601E+02  0.24193079083E+03 -0.10508899888E+03  0.28032860333E+03  0.00000000000E+00 0.  1.
          1    1    3    3  501    0 -0.86285418217E+02 -0.26050712516E+03 -0.78360398894E+03  0.83026763585E+03  0.00000000000E+00 0.  1.
         -1    1    1    2    0  502 -0.86351833835E+01  0.18576334334E+02  0.29484897878E+03  0.29555975179E+03  0.00000000000E+00 0. -1.
<mgrwt>
<rscale>  1 0.66606965E+03</rscale>
<asrwt>0</asrwt>
<pdfrwt beam="1">  1       21 0.62485535E-01 0.66606965E+03</pdfrwt>
<pdfrwt beam="2">0</pdfrwt>
<totfact> 0.21643350E+02</totfact>
</mgrwt>
</event>
<event>
 6    1  0.1347953E-004  0.7238710E+03  0.7818608E-02  0.9677259E-01
         21   -1    0    0  501  502  0.00000000000E+00  0.00000000000E+00  0.28427252272E+03  0.28427252272E+03  0.00000000000E+00 0.  1.
         13   -1    0    0    0    0 -0.00000000000E+00 -0.00000000000E+00 -0.10000000000E+04  0.10000000000E+04  0.00000000000E+00 0.  1.
    9000005    2    1    2  501    0 -0.32504805741E+03  0.29860518473E+02 -0.59225513041E+03  0.93528353918E+03  0.64609695014E+03 0.  0.
         13    1    3    3    0    0 -0.20162610493E+03  0.19366796980E+03 -0.66202969972E+03  0.71864016867E+03  0.00000000000E+00 0.  1.
          3    1    3    3  501    0 -0.12342195248E+03 -0.16380745132E+03  0.69774569313E+02  0.21664337051E+03  0.00000000000E+00 0.  1.
         -1    1    1    2    0  502  0.32504805741E+03 -0.29860518473E+02 -0.12347234687E+03  0.34898898354E+03  0.00000000000E+00 0. -1.
<mgrwt>
<rscale>  1 0.72387095E+03</rscale>
<asrwt>0</asrwt>
<pdfrwt beam="1">  1       21 0.43734233E-01 0.72387095E+03</pdfrwt>
<pdfrwt beam="2">0</pdfrwt>
<totfact> 0.46583283E+02</totfact>
</mgrwt>
</event>
<event>
 6    1  0.1347953E-004  0.6531052E+03  0.7818608E-02  0.9800970E-01
         21   -1    0    0  501  502  0.00000000000E+00  0.00000000000E+00  0.11786050622E+03  0.11786050622E+03  0.00000000000E+00 0.  1.
         13   -1    0    0    0    0 -0.00000000000E+00 -0.00000000000E+00 -0.10000000000E+04  0.10000000000E+04  0.00000000000E+00 0.  1.
    9000005    2    1    2  501    0  0.24990719755E+02 -0.85678451354E+01 -0.87222348326E+03  0.10896422265E+04  0.65257063453E+03 0.  0.
         13    1    3    3    0    0  0.26197006788E+03 -0.20293508870E+03 -0.33543516244E+03  0.47151639940E+03  0.00000000000E+00 0.  1.
          1    1    3    3  501    0 -0.23697934813E+03  0.19436724357E+03 -0.53678832081E+03  0.61812582714E+03  0.00000000000E+00 0.  1.
         -3    1    1    2    0  502 -0.24990719755E+02  0.85678451354E+01 -0.99160105184E+01  0.28218279692E+02  0.00000000000E+00 0. -1.
<mgrwt>
<rscale>  1 0.65310518E+03</rscale>
<asrwt>0</asrwt>
<pdfrwt beam="1">  1       21 0.18132385E-01 0.65310518E+03</pdfrwt>
<pdfrwt beam="2">0</pdfrwt>
<totfact> 0.27056700E+03</totfact>
</mgrwt>
</event>
<event>
 6    1  0.1347953E-004  0.6896282E+03  0.7818608E-02  0.9735136E-01
         21   -1    0    0  501  502  0.00000000000E+00  0.00000000000E+00  0.37530732166E+03  0.37530732166E+03  0.00000000000E+00 0. -1.
         13   -1    0    0    0    0 -0.00000000000E+00 -0.00000000000E+00 -0.10000000000E+04  0.10000000000E+04  0.00000000000E+00 0.  1.
    9000005    2    1    2  501    0  0.24387439866E+03 -0.41111990254E+02 -0.81180649465E+03  0.10651839618E+04  0.64375629682E+03 0.  0.
         13    1    3    3    0    0 -0.21996725994E+03 -0.50422223285E+02 -0.26955352404E+03  0.35154956745E+03  0.00000000000E+00 0.  1.
          3    1    3    3  501    0  0.46384165860E+03  0.93102330317E+01 -0.54225297061E+03  0.71363439437E+03  0.00000000000E+00 0.  1.
         -1    1    1    2    0  502 -0.24387439866E+03  0.41111990254E+02  0.18711381632E+03  0.31012335984E+03  0.00000000000E+00 0. -1.
<mgrwt>
<rscale>  1 0.68962822E+03</rscale>
<asrwt>0</asrwt>
<pdfrwt beam="1">  1       21 0.57739586E-01 0.68962822E+03</pdfrwt>
<pdfrwt beam="2">0</pdfrwt>
<totfact> 0.25712440E+02</totfact>
</mgrwt>
</event>
<event>
 6    1  0.1347953E-004  0.6127088E+03  0.7818608E-02  0.9879385E-01
         21   -1    0    0  501  502  0.00000000000E+00  0.00000000000E+00  0.16804209617E+03  0.16804209617E+03  0.00000000000E+00 0.  1.
         13   -1    0    0    0    0 -0.00000000000E+00 -0.00000000000E+00 -0.10000000000E+04  0.10000000000E+04  0.00000000000E+00 0.  1.
    9000005    2    1    2  501    0 -0.41117457881E+02 -0.71115074521E+02 -0.88044145964E+03  0.10726552294E+04  0.60717713902E+03 0.  0.
         13    1    3    3    0    0 -0.70049839790E+02 -0.26479307375E+03 -0.14167168062E+03  0.30837188110E+03  0.00000000000E+00 0.  1.
          1    1    3    3  501    0  0.28932381909E+02  0.19367799923E+03 -0.73876977902E+03  0.76428334831E+03  0.00000000000E+00 0.  1.
         -3    1    1    2    0  502  0.41117457881E+02  0.71115074521E+02  0.48483555811E+02  0.95386866763E+02  0.00000000000E+00 0. -1.
<mgrwt>
<rscale>  1 0.61270880E+03</rscale>
<asrwt>0</asrwt>
<pdfrwt beam="1">  1       21 0.25852629E-01 0.61270880E+03</pdfrwt>
<pdfrwt beam="2">0</pdfrwt>
<totfact> 0.13661971E+03</totfact>
</mgrwt>
</event>
<event>
 6    1  0.1347953E-004  0.6654271E+03  0.7818608E-02  0.9778254E-01
         21   -1    0    0  501  502  0.00000000000E+00  0.00000000000E+00  0.17497954018E+03  0.17497954018E+03  0.00000000000E+00 0. -1.
         13   -1    0    0    0    0 -0.00000000000E+00 -0.00000000000E+00 -0.10000000000E+04  0.10000000000E+04  0.00000000000E+00 0.  1.
    9000005    2    1    2  501    0 -0.16554680379E+03 -0.13315280878E+02 -0.70920335259E+03  0.97250326186E+03  0.64436802999E+03 0.  0.
         13    1    3    3    0    0 -0.37233120479E+03 -0.12187118295E+02 -0.66319101830E+03  0.76065851646E+03  0.00000000000E+00 0.  1.
          1    1    3    3  501    0  0.20678440100E+03 -0.11281625831E+01 -0.46012334288E+02  0.21184474540E+03  0.00000000000E+00 0.  1.
         -1    1    1    2    0  502  0.16554680379E+03  0.13315280878E+02 -0.11581710724E+03  0.20247627831E+03  0.00000000000E+00 0. -1.
<mgrwt>
<rscale>  1 0.66542708E+03</rscale>
<asrwt>0</asrwt>
<pdfrwt beam="1">  1       21 0.26919928E-01 0.66542708E+03</pdfrwt>
<pdfrwt beam="2">0</pdfrwt>
<totfact> 0.12577758E+03</totfact>
</mgrwt>
</event>
<event>
 6    1  0.1347953E-004  0.6810321E+03  0.7818608E-02  0.9750231E-01
         21   -1    0    0  501  502  0.00000000000E+00  0.00000000000E+00  0.19649528961E+03  0.19649528961E+03  0.00000000000E+00 0.  1.
         13   -1    0    0    0    0 -0.00000000000E+00 -0.00000000000E+00 -0.10000000000E+04  0.10000000000E+04  0.00000000000E+00 0.  1.
    9000005    2    1    2  501    0 -0.26302274432E+02  0.18787732601E+03 -0.71406586836E+03  0.98675972817E+03  0.65407568179E+03 0.  0.
         13    1    3    3    0    0  0.93752486126E+02  0.10830467300E+02  0.10443929261E+03  0.14076360864E+03  0.00000000000E+00 0.  1.
          3    1    3    3  501    0 -0.12005476056E+03  0.17704685871E+03 -0.81850516097E+03  0.84599611952E+03  0.00000000000E+00 0.  1.
         -3    1    1    2    0  502  0.26302274432E+02 -0.18787732601E+03 -0.89438842035E+02  0.20973556144E+03  0.00000000000E+00 0. -1.
<mgrwt>
<rscale>  1 0.68103208E+03</rscale>
<asrwt>0</asrwt>
<pdfrwt beam="1">  1       21 0.30230044E-01 0.68103208E+03</pdfrwt>
<pdfrwt beam="2">0</pdfrwt>
<totfact> 0.99746595E+02</totfact>
</mgrwt>
</event>
<event>
 6    1  0.1347953E-004  0.6709552E+03  0.7818608E-02  0.9768234E-01
         21   -1    0    0  501  502  0.00000000000E+00  0.00000000000E+00  0.29137708328E+03  0.29137708328E+03  0.00000000000E+00 0.  1.
         13   -1    0    0    0    0 -0.00000000000E+00 -0.00000000000E+00 -0.10000000000E+04  0.10000000000E+04  0.00000000000E+00 0.  1.
    9000005    2    1    2  501    0  0.67786882610E+02 -0.10870697075E+02 -0.88008849767E+03  0.11066781960E+04  0.66743361638E+03 0.  0.
         13    1    3    3    0    0  0.28033939981E+03  0.11855468546E+02 -0.10007257996E+03  0.29790141403E+03  0.00000000000E+00 0.  1.
          1    1    3    3  501    0 -0.21255251720E+03 -0.22726165621E+02 -0.78001591772E+03  0.80877678198E+03  0.00000000000E+00 0.  1.
         -1    1    1    2    0  502 -0.67786882610E+02  0.10870697075E+02  0.17146558095E+03  0.18469888727E+03  0.00000000000E+00 0. -1.
<mgrwt>
<rscale>  1 0.67095519E+03</rscale>
<asrwt>0</asrwt>
<pdfrwt beam="1">  1       21 0.44827242E-01 0.67095519E+03</pdfrwt>
<pdfrwt beam="2">0</pdfrwt>
<totfact> 0.44411710E+02</totfact>
</mgrwt>
</event>
<event>
 6    1  0.1347953E-004  0.7574847E+03  0.7818608E-02  0.9623681E-01
         21   -1    0    0  501  502  0.00000000000E+00  0.00000000000E+00  0.92151869167E+03  0.92151869167E+03  0.00000000000E+00 0. -1.
         13   -1    0    0    0    0 -0.00000000000E+00 -0.00000000000E+00 -0.10000000000E+04  0.10000000000E+04  0.00000000000E+00 0.  1.
    9000005    2    1    2  501    0  0.14168154910E+03  0.36305616518E+03 -0.79984817620E+03  0.11016079657E+04  0.64953796256E+03 0.  0.
         13    1    3    3    0    0 -0.16377862524E+02  0.34832204032E+03 -0.86298101118E+03  0.93076995214E+03  0.00000000000E+00 0.  1.
          1    1    3    3  501    0  0.15805941163E+03  0.14734124852E+02  0.63132834986E+02  0.17083801360E+03  0.00000000000E+00 0.  1.
         -1    1    1    2    0  502 -0.14168154910E+03 -0.36305616518E+03  0.72136686787E+03  0.81991072592E+03  0.00000000000E+00 0. -1.
<mgrwt>
<rscale>  1 0.75748466E+03</rscale>
<asrwt>0</asrwt>
<pdfrwt beam="1">  1       21 0.14177210E+00 0.75748466E+03</pdfrwt>
<pdfrwt beam="2">0</pdfrwt>
<totfact> 0.29073312E+01</totfact>
</mgrwt>
</event>
<event>
 6    1  0.1347953E-004  0.5953865E+03  0.7818608E-02  0.9915024E-01
         21   -1    0    0  501  502  0.00000000000E+00  0.00000000000E+00  0.32411978977E+03  0.32411978977E+03  0.00000000000E+00 0. -1.
         13   -1    0    0    0    0 -0.00000000000E+00 -0.00000000000E+00 -0.10000000000E+04  0.10000000000E+04  0.00000000000E+00 0.  1.
    9000005    2    1    2  501    0 -0.21433731632E+02  0.19442250035E+02 -0.91041059295E+03  0.10878108683E+04  0.59468279909E+03 0.  0.
         13    1    3    3    0    0  0.24490106087E+03  0.12657125886E+03 -0.62454660894E+03  0.68268241513E+03  0.00000000000E+00 0.  1.
          3    1    3    3  501    0 -0.26633479250E+03 -0.10712900882E+03 -0.28586398401E+03  0.40512845319E+03  0.00000000000E+00 0.  1.
         -1    1    1    2    0  502  0.21433731632E+02 -0.19442250035E+02  0.23453038272E+03  0.23630892145E+03  0.00000000000E+00 0. -1.
<mgrwt>
<rscale>  1 0.59538646E+03</rscale>
<asrwt>0</asrwt>
<pdfrwt beam="1">  1       21 0.49864582E-01 0.59538646E+03</pdfrwt>
<pdfrwt beam="2">0</pdfrwt>
<totfact> 0.35670245E+02</totfact>
</mgrwt>
</event>
<event>
 6    1  0.1347953E-004  0.6744857E+03  0.7818608E-02  0.9761888E-01
         21   -1    0    0  501  502  0.00000000000E+00  0.00000000000E+00  0.14194140573E+03  0.14194140573E+03  0.00000000000E+00 0.  1.
         13   -1    0    0    0    0 -0.00000000000E+00 -0.00000000000E+00 -0.10000000000E+04  0.10000000000E+04  0.00000000000E+00 0.  1.
    9000005    2    1    2  501    0 -0.10810651334E+02 -0.19927931668E+02 -0.88109419165E+03  0.11096206479E+04  0.67410460238E+03 0.  0.
         13    1    3    3    0    0  0.32381806369E+03 -0.13724323222E+02 -0.31483903679E+03  0.45185187231E+03  0.00000000000E+00 0.  1.
          3    1    3    3  501    0 -0.33462871503E+03 -0.62036084465E+01 -0.56625515486E+03  0.65776877555E+03  0.00000000000E+00 0.  1.
         -3    1    1    2    0  502  0.10810651334E+02  0.19927931668E+02  0.23035597381E+02  0.32320757874E+02  0.00000000000E+00 0. -1.
<mgrwt>
<rscale>  1 0.67448574E+03</rscale>
<asrwt>0</asrwt>
<pdfrwt beam="1">  1       21 0.21837139E-01 0.67448574E+03</pdfrwt>
<pdfrwt beam="2">0</pdfrwt>
<totfact> 0.18928498E+03</totfact>
</mgrwt>
</event>
<event>
 6    1  0.1347953E-004  0.6566198E+03  0.7818608E-02  0.9794436E-01
         21   -1    0    0  501  502  0.00000000000E+00  0.00000000000E+00  0.14724817056E+03  0.14724817056E+03  0.00000000000E+00 0. -1.
         13   -1    0    0    0    0 -0.00000000000E+00 -0.00000000000E+00 -0.10000000000E+04  0.10000000000E+04  0.00000000000E+00 0.  1.
    9000005    2    1    2  501    0  0.34289403174E+02  0.68398858143E+01 -0.88343440496E+03  0.11007297049E+04  0.65568817905E+03 0.  0.
         13    1    3    3    0    0  0.27739238842E+03  0.20308358541E+03 -0.48212411510E+03  0.59214283933E+03  0.00000000000E+00 0.  1.
          1    1    3    3  501    0 -0.24310298524E+03 -0.19624369959E+03 -0.40131028986E+03  0.50858686555E+03  0.00000000000E+00 0.  1.
         -1    1    1    2    0  502 -0.34289403174E+02 -0.68398858143E+01  0.30682575519E+02  0.46518465672E+02  0.00000000000E+00 0. -1.
<mgrwt>
<rscale>  1 0.65661978E+03</rscale>
<asrwt>0</asrwt>
<pdfrwt beam="1">  1       21 0.22653564E-01 0.65661978E+03</pdfrwt>
<pdfrwt beam="2">0</pdfrwt>
<totfact> 0.17642657E+03</totfact>
</mgrwt>
</event>
<event>
 6    1  0.1347953E-004  0.6604489E+03  0.7818608E-02  0.9787368E-01
         21   -1    0    0  501  502  0.00000000000E+00  0.00000000000E+00  0.13942160372E+03  0.13942160372E+03  0.00000000000E+00 0.  1.
         13   -1    0    0    0    0 -0.00000000000E+00 -0.00000000000E+00 -0.10000000000E+04  0.10000000000E+04  0.00000000000E+00 0.  1.
    9000005    2    1    2  501    0 -0.67376346128E+02  0.52959369472E+02 -0.77618707506E+03  0.10191462449E+04  0.65486519702E+03 0.  0.
         13    1    3    3    0    0  0.17918432201E+03 -0.14816507561E+03 -0.67187151981E+02  0.24202071042E+03  0.00000000000E+00 0.  1.
          3    1    3    3  501    0 -0.24656066813E+03  0.20112444508E+03 -0.70899992308E+03  0.77712553452E+03  0.00000000000E+00 0.  1.
         -3    1    1    2    0  502  0.67376346128E+02 -0.52959369472E+02 -0.84391321216E+02  0.12027535878E+03  0.00000000000E+00 0. -1.
<mgrwt>
<rscale>  1 0.66044886E+03</rscale>
<asrwt>0</asrwt>
<pdfrwt beam="1">  1       21 0.21449477E-01 0.66044886E+03</pdfrwt>
<pdfrwt beam="2">0</pdfrwt>
<totfact> 0.19607109E+03</totfact>
</mgrwt>
</event>
<event>
 6    1  0.1347953E-004  0.5907803E+03  0.7818608E-02  0.9924721E-01
         21   -1    0    0  501  502  0.00000000000E+00  0.00000000000E+00  0.11427103859E+03  0.11427103859E+03  0.00000000000E+00 0.  1.
         13   -1    0    0    0    0 -0.00000000000E+00 -0.00000000000E+00 -0.10000000000E+04  0.10000000000E+04  0.00000000000E+00 0.  1.
    9000005    2    1    2  501    0 -0.34467995022E+02 -0.73428193999E+02 -0.81531581608E+03  0.10068571038E+04  0.58518510331E+03 0.  0.
         13    1    3    3    0    0  0.24329091726E+03 -0.28055035414E+02 -0.61338597935E+03  0.66046946568E+03  0.00000000000E+00 0.  1.
          3    1    3    3  501    0 -0.27775891228E+03 -0.45373158585E+02 -0.20192983673E+03  0.34638763811E+03  0.00000000000E+00 0.  1.
         -1    1    1    2    0  502  0.34467995022E+02  0.73428193999E+02 -0.70413145328E+02  0.10741393480E+03  0.00000000000E+00 0. -1.
<mgrwt>
<rscale>  1 0.59078029E+03</rscale>
<asrwt>0</asrwt>
<pdfrwt beam="1">  1       21 0.17580159E-01 0.59078029E+03</pdfrwt>
<pdfrwt beam="2">0</pdfrwt>
<totfact> 0.28750686E+03</totfact>
</mgrwt>
</event>
<event>
 6    1  0.1347953E-004  0.6560597E+03  0.7818608E-02  0.9795475E-01
         21   -1    0    0  501  502  0.00000000000E+00  0.00000000000E+00  0.15077249524E+03  0.15077249524E+03  0.00000000000E+00 0.  1.
         13   -1    0    0    0    0 -0.00000000000E+00 -0.00000000000E+00 -0.10000000000E+04  0.10000000000E+04  0.00000000000E+00 0.  1.
    9000005    2    1    2  501    0 -0.91336807705E+02 -0.63926034784E+02 -0.78132310251E+03  0.10202353043E+04  0.64651785384E+03 0.  0.
         13    1    3    3    0    0 -0.33280262217E+03  0.20349295635E+02 -0.20937905751E+03  0.39371470493E+03  0.00000000000E+00 0.  1.
          3    1    3    3  501    0  0.24146581446E+03 -0.84275330419E+02 -0.57194404499E+03  0.62652059940E+03  0.00000000000E+00 0.  1.
         -1    1    1    2    0  502  0.91336807705E+02  0.63926034784E+02 -0.67904402253E+02  0.13053719091E+03  0.00000000000E+00 0. -1.
<mgrwt>
<rscale>  1 0.65605967E+03</rscale>
<asrwt>0</asrwt>
<pdfrwt beam="1">  1       21 0.23195768E-01 0.65605967E+03</pdfrwt>
<pdfrwt beam="2">0</pdfrwt>
<totfact> 0.16850479E+03</totfact>
</mgrwt>
</event>
<event>
 6    1  0.1347953E-004  0.6800320E+03  0.7818608E-02  0.9752003E-01
         21   -1    0    0  501  502  0.00000000000E+00  0.00000000000E+00  0.18292822480E+03  0.18292822480E+03  0.00000000000E+00 0.  1.
         13   -1    0    0    0    0 -0.00000000000E+00 -0.00000000000E+00 -0.10000000000E+04  0.10000000000E+04  0.00000000000E+00 0.  1.
    9000005    2    1    2  501    0  0.12569150365E+03 -0.73671225591E+02 -0.77548825809E+03  0.10314191740E+04  0.66424217764E+03 0.  0.
         13    1    3    3    0    0  0.36890313747E+03  0.98726100122E+02 -0.44042258665E+03  0.58293089000E+03  0.00000000000E+00 0.  1.
          1    1    3    3  501    0 -0.24321163382E+03 -0.17239732571E+03 -0.33506567144E+03  0.44848828403E+03  0.00000000000E+00 0.  1.
         -3    1    1    2    0  502 -0.12569150365E+03  0.73671225591E+02 -0.41583517107E+02  0.15150905077E+03  0.00000000000E+00 0. -1.
<mgrwt>
<rscale>  1 0.68003197E+03</rscale>
<asrwt>0</asrwt>
<pdfrwt beam="1">  1       21 0.28142803E-01 0.68003197E+03</pdfrwt>
<pdfrwt beam="2">0</pdfrwt>
<totfact> 0.11507540E+03</totfact>
</mgrwt>
</event>
<event>
 6    1  0.1347953E-004  0.6503516E+03  0.7818608E-02  0.9806120E-01
         21   -1    0    0  501  502  0.00000000000E+00  0.00000000000E+00  0.24402173359E+03  0.24402173359E+03  0.00000000000E+00 0.  1.
         13   -1    0    0    0    0 -0.00000000000E+00 -0.00000000000E+00 -0.10000000000E+04  0.10000000000E+04  0.00000000000E+00 0.  1.
    9000005    2    1    2  501    0  0.50572671078E+02 -0.50991155260E+02 -0.88386545604E+03  0.10973492200E+04  0.64637409697E+03 0.  0.
         13    1    3    3    0    0  0.15292556744E+03 -0.18359016714E+03 -0.89800213825E+03  0.92924669434E+03  0.00000000000E+00 0.  1.
          3    1    3    3  501    0 -0.10235289636E+03  0.13259901188E+03  0.14136682201E+02  0.16810252565E+03  0.00000000000E+00 0.  1.
         -3    1    1    2    0  502 -0.50572671078E+02  0.50991155260E+02  0.12788718964E+03  0.14667251361E+03  0.00000000000E+00 0. -1.
<mgrwt>
<rscale>  1 0.65035157E+03</rscale>
<asrwt>0</asrwt>
<pdfrwt beam="1">  1       21 0.37541804E-01 0.65035157E+03</pdfrwt>
<pdfrwt beam="2">0</pdfrwt>
<totfact> 0.64381872E+02</totfact>
</mgrwt>
</event>
<event>
 6    1  0.1347953E-004  0.6052534E+03  0.7818608E-02  0.9894566E-01
         21   -1    0    0  501  502  0.00000000000E+00  0.00000000000E+00  0.11281595448E+03  0.11281595448E+03  0.00000000000E+00 0.  1.
         13   -1    0    0    0    0 -0.00000000000E+00 -0.00000000000E+00 -0.10000000000E+04  0.10000000000E+04  0.00000000000E+00 0.  1.
    9000005    2    1    2  501    0 -0.59219989522E+02 -0.20819890137E+02 -0.83438080679E+03  0.10307875630E+04  0.60198936401E+03 0.  0.
         13    1    3    3    0    0 -0.69498591408E+02 -0.24102015694E+03 -0.11052595802E+03  0.27411084921E+03  0.00000000000E+00 0.  1.
          1    1    3    3  501    0  0.10278601887E+02  0.22020026680E+03 -0.72385484877E+03  0.75667671382E+03  0.00000000000E+00 0.  1.
         -1    1    1    2    0  502  0.59219989522E+02  0.20819890137E+02 -0.52803238729E+02  0.82028391454E+02  0.00000000000E+00 0. -1.
<mgrwt>
<rscale>  1 0.60525339E+03</rscale>
<asrwt>0</asrwt>
<pdfrwt beam="1">  1       21 0.17356300E-01 0.60525339E+03</pdfrwt>
<pdfrwt beam="2">0</pdfrwt>
<totfact> 0.29440950E+03</totfact>
</mgrwt>
</event>
<event>
 6    1  0.1347953E-004  0.7307667E+03  0.7818608E-02  0.9666017E-01
         21   -1    0    0  501  502  0.00000000000E+00  0.00000000000E+00  0.37667794716E+03  0.37667794716E+03  0.00000000000E+00 0. -1.
         13   -1    0    0    0    0 -0.00000000000E+00 -0.00000000000E+00 -0.10000000000E+04  0.10000000000E+04  0.00000000000E+00 0.  1.
    9000005    2    1    2  501    0  0.19723892601E+02  0.34236489954E+03 -0.71429980827E+03  0.10218826423E+04  0.64530393005E+03 0.  0.
         13    1    3    3    0    0 -0.25386759361E+03  0.10805461546E+03 -0.71477834053E+02  0.28501515007E+03  0.00000000000E+00 0.  1.
          1    1    3    3  501    0  0.27359148621E+03  0.23431028408E+03 -0.64282197422E+03  0.73686749222E+03  0.00000000000E+00 0.  1.
         -1    1    1    2    0  502 -0.19723892601E+02 -0.34236489954E+03  0.90977755432E+02  0.35479530488E+03  0.00000000000E+00 0. -1.
<mgrwt>
<rscale>  1 0.73076666E+03</rscale>
<asrwt>0</asrwt>
<pdfrwt beam="1">  1       21 0.57950452E-01 0.73076666E+03</pdfrwt>
<pdfrwt beam="2">0</pdfrwt>
<totfact> 0.25405752E+02</totfact>
</mgrwt>
</event>
<event>
 6    1  0.1347953E-004  0.6650141E+03  0.7818608E-02  0.9779007E-01
         21   -1    0    0  501  502  0.00000000000E+00  0.00000000000E+00  0.13045670708E+03  0.13045670708E+03  0.00000000000E+00 0.  1.
         13   -1    0    0    0    0 -0.00000000000E+00 -0.00000000000E+00 -0.10000000000E+04  0.10000000000E+04  0.00000000000E+00 0.  1.
    9000005    2    1    2  501    0  0.46453709303E+02  0.44638346911E+01 -0.85151791054E+03  0.10804288415E+04  0.66337459747E+03 0.  0.
         13    1    3    3    0    0 -0.47280714355E+02  0.40732056891E+02  0.10310991744E+03  0.12052477539E+03  0.00000000000E+00 0.  1.
          3    1    3    3  501    0  0.93734423658E+02 -0.36268222199E+02 -0.95462782797E+03  0.95990406607E+03  0.00000000000E+00 0.  1.
         -3    1    1    2    0  502 -0.46453709303E+02 -0.44638346911E+01 -0.18025382384E+02  0.50027865617E+02  0.00000000000E+00 0. -1.
<mgrwt>
<rscale>  1 0.66501408E+03</rscale>
<asrwt>0</asrwt>
<pdfrwt beam="1">  1       21 0.20070262E-01 0.66501408E+03</pdfrwt>
<pdfrwt beam="2">0</pdfrwt>
<totfact> 0.22279046E+03</totfact>
</mgrwt>
</event>
<event>
 6    1  0.1347953E-004  0.6471836E+03  0.7818608E-02  0.9812078E-01
         21   -1    0    0  501  502  0.00000000000E+00  0.00000000000E+00  0.13287911413E+03  0.13287911413E+03  0.00000000000E+00 0.  1.
         13   -1    0    0    0    0 -0.00000000000E+00 -0.00000000000E+00 -0.10000000000E+04  0.10000000000E+04  0.00000000000E+00 0.  1.
    9000005    2    1    2  501    0 -0.72044039947E+02 -0.15391565534E+02 -0.82308687901E+03  0.10470523249E+04  0.64297691778E+03 0.  0.
         13    1    3    3    0    0 -0.41325724011E+02  0.16913722906E+02  0.10697620391E+03  0.11592151522E+03  0.00000000000E+00 0.  1.
          1    1    3    3  501    0 -0.30718315936E+02 -0.32305288440E+02 -0.93006308293E+03  0.93113080972E+03  0.00000000000E+00 0.  1.
         -1    1    1    2    0  502  0.72044039947E+02  0.15391565534E+02 -0.44034006858E+02  0.85826789183E+02  0.00000000000E+00 0. -1.
<mgrwt>
<rscale>  1 0.64718356E+03</rscale>
<asrwt>0</asrwt>
<pdfrwt beam="1">  1       21 0.20442940E-01 0.64718356E+03</pdfrwt>
<pdfrwt beam="2">0</pdfrwt>
<totfact> 0.21520859E+03</totfact>
</mgrwt>
</event>
<event>
 6    1  0.1347953E-004  0.6469559E+03  0.7818608E-02  0.9812508E-01
         21   -1    0    0  501  502  0.00000000000E+00  0.00000000000E+00  0.13494435245E+03  0.13494435245E+03  0.00000000000E+00 0.  1.
         13   -1    0    0    0    0 -0.00000000000E+00 -0.00000000000E+00 -0.10000000000E+04  0.10000000000E+04  0.00000000000E+00 0.  1.
    9000005    2    1    2  501    0  0.61118250887E+02 -0.78603028887E+01 -0.85550655457E+03  0.10725872347E+04  0.64401450781E+03 0.  0.
         13    1    3    3    0    0  0.19248430474E+03  0.18645788194E+02 -0.90821913835E+03  0.92857949377E+03  0.00000000000E+00 0.  1.
          1    1    3    3  501    0 -0.13136605385E+03 -0.26506091083E+02  0.52712583786E+02  0.14400774097E+03  0.00000000000E+00 0.  1.
         -1    1    1    2    0  502 -0.61118250887E+02  0.78603028887E+01 -0.95490929794E+01  0.62357117715E+02  0.00000000000E+00 0. -1.
<mgrwt>
<rscale>  1 0.64695588E+03</rscale>
<asrwt>0</asrwt>
<pdfrwt beam="1">  1       21 0.20760669E-01 0.64695588E+03</pdfrwt>
<pdfrwt beam="2">0</pdfrwt>
<totfact> 0.20892222E+03</totfact>
</mgrwt>
</event>
<event>
 6    1  0.1347953E-004  0.6135825E+03  0.7818608E-02  0.9877621E-01
         21   -1    0    0  501  502  0.00000000000E+00  0.00000000000E+00  0.15440321414E+03  0.15440321414E+03  0.00000000000E+00 0. -1.
         13   -1    0    0    0    0 -0.00000000000E+00 -0.00000000000E+00 -0.10000000000E+04  0.10000000000E+04  0.00000000000E+00 0.  1.
    9000005    2    1    2  501    0  0.94510245522E+02  0.98531132321E+02 -0.80457718142E+03  0.10118438283E+04  0.59819973375E+03 0.  0.
         13    1    3    3    0    0 -0.21912882575E+03 -0.73005053205E+02 -0.18251355415E+03  0.29437795013E+03  0.00000000000E+00 0.  1.
          1    1    3    3  501    0  0.31363907128E+03  0.17153618553E+03 -0.62206362727E+03  0.71746587817E+03  0.00000000000E+00 0.  1.
         -3    1    1    2    0  502 -0.94510245522E+02 -0.98531132321E+02 -0.41019604434E+02  0.14255938585E+03  0.00000000000E+00 0. -1.
<mgrwt>
<rscale>  1 0.61358251E+03</rscale>
<asrwt>0</asrwt>
<pdfrwt beam="1">  1       21 0.23754340E-01 0.61358251E+03</pdfrwt>
<pdfrwt beam="2">0</pdfrwt>
<totfact> 0.16121608E+03</totfact>
</mgrwt>
</event>
<event>
 6    1  0.1347953E-004  0.6224551E+03  0.7818608E-02  0.9859884E-01
         21   -1    0    0  501  502  0.00000000000E+00  0.00000000000E+00  0.13357513393E+03  0.13357513393E+03  0.00000000000E+00 0.  1.
         13   -1    0    0    0    0 -0.00000000000E+00 -0.00000000000E+00 -0.10000000000E+04  0.10000000000E+04  0.00000000000E+00 0.  1.
    9000005    2    1    2  501    0 -0.49866886437E+02 -0.74522737679E+02 -0.82836169450E+03  0.10361628666E+04  0.61596269729E+03 0.  0.
         13    1    3    3    0    0 -0.19010069806E+03 -0.29854816336E+03 -0.41379412131E+03  0.54451341222E+03  0.00000000000E+00 0.  1.
          3    1    3    3  501    0  0.14023381163E+03  0.22402542568E+03 -0.41456757318E+03  0.49164945440E+03  0.00000000000E+00 0.  1.
         -1    1    1    2    0  502  0.49866886437E+02  0.74522737679E+02 -0.38063171571E+02  0.97412267319E+02  0.00000000000E+00 0. -1.
<mgrwt>
<rscale>  1 0.62245513E+03</rscale>
<asrwt>0</asrwt>
<pdfrwt beam="1">  1       21 0.20550020E-01 0.62245513E+03</pdfrwt>
<pdfrwt beam="2">0</pdfrwt>
<totfact> 0.21327842E+03</totfact>
</mgrwt>
</event>
<event>
 6    1  0.1347953E-004  0.6557432E+03  0.7818608E-02  0.9796062E-01
         21   -1    0    0  501  502  0.00000000000E+00  0.00000000000E+00  0.16156466487E+03  0.16156466487E+03  0.00000000000E+00 0. -1.
         13   -1    0    0    0    0 -0.00000000000E+00 -0.00000000000E+00 -0.10000000000E+04  0.10000000000E+04  0.00000000000E+00 0.  1.
    9000005    2    1    2  501    0 -0.10365419881E+03  0.46573300336E+02 -0.81410168770E+03  0.10453519649E+04  0.64582188519E+03 0.  0.
         13    1    3    3    0    0 -0.29435689531E+02  0.14759723478E+03 -0.88744459603E+03  0.90011627835E+03  0.00000000000E+00 0.  1.
          1    1    3    3  501    0 -0.74218509282E+02 -0.10102393444E+03  0.73342908324E+02  0.14523568656E+03  0.00000000000E+00 0.  1.
         -1    1    1    2    0  502  0.10365419881E+03 -0.46573300336E+02 -0.24333647426E+02  0.11621269996E+03  0.00000000000E+00 0. -1.
<mgrwt>
<rscale>  1 0.65574322E+03</rscale>
<asrwt>0</asrwt>
<pdfrwt beam="1">  1       21 0.24856102E-01 0.65574322E+03</pdfrwt>
<pdfrwt beam="2">0</pdfrwt>
<totfact> 0.14723030E+03</totfact>
</mgrwt>
</event>
<event>
 6    1  0.1347953E-004  0.6742804E+03  0.7818608E-02  0.9762256E-01
         21   -1    0    0  501  502  0.00000000000E+00  0.00000000000E+00  0.28333047543E+03  0.28333047543E+03  0.00000000000E+00 0.  1.
         13   -1    0    0    0    0 -0.00000000000E+00 -0.00000000000E+00 -0.10000000000E+04  0.10000000000E+04  0.00000000000E+00 0.  1.
    9000005    2    1    2  501    0 -0.17495830377E+03  0.42867208095E+02 -0.83087071156E+03  0.10700468223E+04  0.64977385063E+03 0.  0.
         13    1    3    3    0    0  0.17571847954E+03  0.18243785196E+03 -0.15796657409E+03  0.29851966838E+03  0.00000000000E+00 0.  1.
          3    1    3    3  501    0 -0.35067678331E+03 -0.13957064387E+03 -0.67290413748E+03  0.77152715391E+03  0.00000000000E+00 0.  1.
         -3    1    1    2    0  502  0.17495830377E+03 -0.42867208095E+02  0.11420118699E+03  0.21328365315E+03  0.00000000000E+00 0. -1.
<mgrwt>
<rscale>  1 0.67428040E+03</rscale>
<asrwt>0</asrwt>
<pdfrwt beam="1">  1       21 0.43589303E-01 0.67428040E+03</pdfrwt>
<pdfrwt beam="2">0</pdfrwt>
<totfact> 0.47098075E+02</totfact>
</mgrwt>
</event>
<event>
 6    1  0.1347953E-004  0.6391892E+03  0.7818608E-02  0.9827279E-01
         21   -1    0    0  501  502  0.00000000000E+00  0.00000000000E+00  0.27446054971E+03  0.27446054971E+03  0.00000000000E+00 0.  1.
         13   -1    0    0    0    0 -0.00000000000E+00 -0.00000000000E+00 -0.10000000000E+04  0.10000000000E+04  0.00000000000E+00 0.  1.
    9000005    2    1    2  501    0 -0.68389032871E+01 -0.21142271146E+02 -0.89706939303E+03  0.11014972950E+04  0.63880280896E+03 0.  0.
         13    1    3    3    0    0  0.46029084718E+02  0.71026591357E+02 -0.96931801713E+03  0.97300610052E+03  0.00000000000E+00 0.  1.
          1    1    3    3  501    0 -0.52867988006E+02 -0.92168862502E+02  0.72248624103E+02  0.12849119447E+03  0.00000000000E+00 0.  1.
         -3    1    1    2    0  502  0.68389032871E+01  0.21142271146E+02  0.17152994274E+03  0.17296325472E+03  0.00000000000E+00 0. -1.
<mgrwt>
<rscale>  1 0.63918917E+03</rscale>
<asrwt>0</asrwt>
<pdfrwt beam="1">  1       21 0.42224699E-01 0.63918917E+03</pdfrwt>
<pdfrwt beam="2">0</pdfrwt>
<totfact> 0.50496683E+02</totfact>
</mgrwt>
</event>
<event>
 6    1  0.1347953E-004  0.8194324E+03  0.7818608E-02  0.9532308E-01
         21   -1    0    0  501  502  0.00000000000E+00  0.00000000000E+00  0.28481870352E+03  0.28481870352E+03  0.00000000000E+00 0.  1.
         13   -1    0    0    0    0 -0.00000000000E+00 -0.00000000000E+00 -0.10000000000E+04  0.10000000000E+04  0.00000000000E+00 0.  1.
    9000005    2    1    2  501    0  0.27411612516E+02  0.14376917509E+03 -0.77390373785E+03  0.11271186803E+04  0.80625588482E+03 0.  0.
         13    1    3    3    0    0  0.31174773228E+03 -0.15327757942E+03 -0.57151399297E+03  0.66881156471E+03  0.00000000000E+00 0.  1.
          3    1    3    3  501    0 -0.28433611976E+03  0.29704675450E+03 -0.20238974488E+03  0.45830711558E+03  0.00000000000E+00 0.  1.
         -1    1    1    2    0  502 -0.27411612516E+02 -0.14376917509E+03  0.58722441367E+02  0.15770002323E+03  0.00000000000E+00 0. -1.
<mgrwt>
<rscale>  1 0.81943244E+03</rscale>
<asrwt>0</asrwt>
<pdfrwt beam="1">  1       21 0.43818261E-01 0.81943244E+03</pdfrwt>
<pdfrwt beam="2">0</pdfrwt>
<totfact> 0.46074174E+02</totfact>
</mgrwt>
</event>
<event>
 6    1  0.1347953E-004  0.6672817E+03  0.7818608E-02  0.9774881E-01
         21   -1    0    0  501  502  0.00000000000E+00  0.00000000000E+00  0.34463437164E+03  0.34463437164E+03  0.00000000000E+00 0. -1.
         13   -1    0    0    0    0 -0.00000000000E+00 -0.00000000000E+00 -0.10000000000E+04  0.10000000000E+04  0.00000000000E+00 0.  1.
    9000005    2    1    2  501    0 -0.15581329664E+03  0.28359987241E+02 -0.85832738043E+03  0.10871939997E+04  0.64821510994E+03 0.  0.
         13    1    3    3    0    0  0.41533898628E+02 -0.15667396701E+03 -0.79232541292E+03  0.80873441663E+03  0.00000000000E+00 0.  1.
          1    1    3    3  501    0 -0.19734719527E+03  0.18503395425E+03 -0.66001967510E+02  0.27845958310E+03  0.00000000000E+00 0.  1.
         -3    1    1    2    0  502  0.15581329664E+03 -0.28359987241E+02  0.20296175208E+03  0.25744037191E+03  0.00000000000E+00 0. -1.
<mgrwt>
<rscale>  1 0.66728173E+03</rscale>
<asrwt>0</asrwt>
<pdfrwt beam="1">  1       21 0.53020671E-01 0.66728173E+03</pdfrwt>
<pdfrwt beam="2">0</pdfrwt>
<totfact> 0.31033088E+02</totfact>
</mgrwt>
</event>
<event>
 6    1  0.1347953E-004  0.6816494E+03  0.7818608E-02  0.9749139E-01
         21   -1    0    0  501  502  0.00000000000E+00  0.00000000000E+00  0.25877451887E+03  0.25877451887E+03  0.00000000000E+00 0.  1.
         13   -1    0    0    0    0 -0.00000000000E+00 -0.00000000000E+00 -0.10000000000E+04  0.10000000000E+04  0.00000000000E+00 0.  1.
    9000005    2    1    2  501    0 -0.72082918518E+02  0.37961867939E+02 -0.87070910343E+03  0.11057939351E+04  0.67676349901E+03 0.  0.
         13    1    3    3    0    0 -0.14976658976E+03  0.18716432605E+03 -0.90320185264E+03  0.93446995830E+03  0.00000000000E+00 0.  1.
          3    1    3    3  501    0  0.77683671239E+02 -0.14920245811E+03  0.32492749209E+02  0.17132397682E+03  0.00000000000E+00 0.  1.
         -3    1    1    2    0  502  0.72082918518E+02 -0.37961867939E+02  0.12948362230E+03  0.15298058375E+03  0.00000000000E+00 0. -1.
<mgrwt>
<rscale>  1 0.68164939E+03</rscale>
<asrwt>0</asrwt>
<pdfrwt beam="1">  1       21 0.39811463E-01 0.68164939E+03</pdfrwt>
<pdfrwt beam="2">0</pdfrwt>
<totfact> 0.56890424E+02</totfact>
</mgrwt>
</event>
<event>
 6    1  0.1347953E-004  0.6748561E+03  0.7818608E-02  0.9761225E-01
         21   -1    0    0  501  502  0.00000000000E+00  0.00000000000E+00  0.18089608448E+03  0.18089608448E+03  0.00000000000E+00 0.  1.
         13   -1    0    0    0    0 -0.00000000000E+00 -0.00000000000E+00 -0.10000000000E+04  0.10000000000E+04  0.00000000000E+00 0.  1.
    9000005    2    1    2  501    0 -0.14694322753E+02 -0.17473711062E+03 -0.66507558537E+03  0.94750005315E+03  0.65167617381E+03 0.  0.
         13    1    3    3    0    0 -0.73147791536E+02 -0.41193764859E+03 -0.50333155254E+03  0.65451193841E+03  0.00000000000E+00 0.  1.
          1    1    3    3  501    0  0.58453468783E+02  0.23720053797E+03 -0.16174403283E+03  0.29298811475E+03  0.00000000000E+00 0.  1.
         -1    1    1    2    0  502  0.14694322753E+02  0.17473711062E+03 -0.15402833015E+03  0.23339603132E+03  0.00000000000E+00 0. -1.
<mgrwt>
<rscale>  1 0.67485615E+03</rscale>
<asrwt>0</asrwt>
<pdfrwt beam="1">  1       21 0.27830166E-01 0.67485615E+03</pdfrwt>
<pdfrwt beam="2">0</pdfrwt>
<totfact> 0.11769370E+03</totfact>
</mgrwt>
</event>
<event>
 6    1  0.1347953E-004  0.6584298E+03  0.7818608E-02  0.9791089E-01
         21   -1    0    0  501  502  0.00000000000E+00  0.00000000000E+00  0.15287182914E+03  0.15287182914E+03  0.00000000000E+00 0.  1.
         13   -1    0    0    0    0 -0.00000000000E+00 -0.00000000000E+00 -0.10000000000E+04  0.10000000000E+04  0.00000000000E+00 0.  1.
    9000005    2    1    2  501    0 -0.38765311139E+02  0.18538206358E+02 -0.87979514641E+03  0.10988945586E+04  0.65702613103E+03 0.  0.
         13    1    3    3    0    0 -0.19915421390E+03  0.15734210399E+02 -0.91340616880E+03  0.93499775160E+03  0.00000000000E+00 0.  1.
          1    1    3    3  501    0  0.16038890276E+03  0.28039959596E+01  0.33611022396E+02  0.16389680701E+03  0.00000000000E+00 0.  1.
         -3    1    1    2    0  502  0.38765311139E+02 -0.18538206358E+02  0.32666975543E+02  0.53977270530E+02  0.00000000000E+00 0. -1.
<mgrwt>
<rscale>  1 0.65842976E+03</rscale>
<asrwt>0</asrwt>
<pdfrwt beam="1">  1       21 0.23518742E-01 0.65842976E+03</pdfrwt>
<pdfrwt beam="2">0</pdfrwt>
<totfact> 0.16400998E+03</totfact>
</mgrwt>
</event>
<event>
 6    1  0.1347953E-004  0.6669901E+03  0.7818608E-02  0.9775411E-01
         21   -1    0    0  501  502  0.00000000000E+00  0.00000000000E+00  0.24751041002E+03  0.24751041002E+03  0.00000000000E+00 0. -1.
         13   -1    0    0    0    0 -0.00000000000E+00 -0.00000000000E+00 -0.10000000000E+04  0.10000000000E+04  0.00000000000E+00 0.  1.
    9000005    2    1    2  501    0 -0.11333965727E+03  0.94956807301E+02 -0.84238217865E+03  0.10744689391E+04  0.65039456718E+03 0.  0.
         13    1    3    3    0    0 -0.30852386420E+03 -0.14151789904E+03 -0.57464279815E+03  0.66740440214E+03  0.00000000000E+00 0.  1.
          1    1    3    3  501    0  0.19518420694E+03  0.23647470634E+03 -0.26773938050E+03  0.40706453696E+03  0.00000000000E+00 0.  1.
         -1    1    1    2    0  502  0.11333965727E+03 -0.94956807301E+02  0.89892588671E+02  0.17304147093E+03  0.00000000000E+00 0. -1.
<mgrwt>
<rscale>  1 0.66699008E+03</rscale>
<asrwt>0</asrwt>
<pdfrwt beam="1">  1       21 0.38078524E-01 0.66699008E+03</pdfrwt>
<pdfrwt beam="2">0</pdfrwt>
<totfact> 0.62447485E+02</totfact>
</mgrwt>
</event>
<event>
 6    1  0.1347953E-004  0.6822673E+03  0.7818608E-02  0.9748047E-01
         21   -1    0    0  501  502  0.00000000000E+00  0.00000000000E+00  0.19358085715E+03  0.19358085715E+03  0.00000000000E+00 0.  1.
         13   -1    0    0    0    0 -0.00000000000E+00 -0.00000000000E+00 -0.10000000000E+04  0.10000000000E+04  0.00000000000E+00 0.  1.
    9000005    2    1    2  501    0 -0.16539330495E+03  0.82386446237E+02 -0.71184241753E+03  0.98600622282E+03  0.65676949701E+03 0.  0.
         13    1    3    3    0    0 -0.12086731662E+03 -0.76779755749E+02 -0.79021860550E+03  0.80308746946E+03  0.00000000000E+00 0.  1.
          3    1    3    3  501    0 -0.44525988326E+02  0.15916620199E+03  0.78376187971E+02  0.18291875336E+03  0.00000000000E+00 0.  1.
         -3    1    1    2    0  502  0.16539330495E+03 -0.82386446237E+02 -0.94576725313E+02  0.20757463433E+03  0.00000000000E+00 0. -1.
<mgrwt>
<rscale>  1 0.68226728E+03</rscale>
<asrwt>0</asrwt>
<pdfrwt beam="1">  1       21 0.29781669E-01 0.68226728E+03</pdfrwt>
<pdfrwt beam="2">0</pdfrwt>
<totfact> 0.10277090E+03</totfact>
</mgrwt>
</event>
<event>
 6    1  0.1347953E-004  0.6408991E+03  0.7818608E-02  0.9824008E-01
         21   -1    0    0  501  502  0.00000000000E+00  0.00000000000E+00  0.26883063248E+03  0.26883063248E+03  0.00000000000E+00 0. -1.
         13   -1    0    0    0    0 -0.00000000000E+00 -0.00000000000E+00 -0.10000000000E+04  0.10000000000E+04  0.00000000000E+00 0.  1.
    9000005    2    1    2  501    0 -0.37852902610E+01 -0.85425560604E+02 -0.88508255237E+03  0.10927592739E+04  0.63516915184E+03 0.  0.
         13    1    3    3    0    0 -0.25838243339E+03 -0.65443081316E+02 -0.76586762492E+03  0.81092385442E+03  0.00000000000E+00 0.  1.
          1    1    3    3  501    0  0.25459714313E+03 -0.19982479289E+02 -0.11921492745E+03  0.28183541952E+03  0.00000000000E+00 0.  1.
         -1    1    1    2    0  502  0.37852902610E+01  0.85425560604E+02  0.15391318485E+03  0.17607135854E+03  0.00000000000E+00 0. -1.
<mgrwt>
<rscale>  1 0.64089914E+03</rscale>
<asrwt>0</asrwt>
<pdfrwt beam="1">  1       21 0.41358558E-01 0.64089914E+03</pdfrwt>
<pdfrwt beam="2">0</pdfrwt>
<totfact> 0.52722912E+02</totfact>
</mgrwt>
</event>
<event>
 6    1  0.1347953E-004  0.6302036E+03  0.7818608E-02  0.9844652E-01
         21   -1    0    0  501  502  0.00000000000E+00  0.00000000000E+00  0.13615338309E+03  0.13615338309E+03  0.00000000000E+00 0.  1.
         13   -1    0    0    0    0 -0.00000000000E+00 -0.00000000000E+00 -0.10000000000E+04  0.10000000000E+04  0.00000000000E+00 0.  1.
    9000005    2    1    2  501    0 -0.12724428994E+02 -0.62461559637E+02 -0.86756654247E+03  0.10723004633E+04  0.62697146694E+03 0.  0.
         13    1    3    3    0    0 -0.15732754733E+03 -0.29868837159E+03 -0.59263656012E+03  0.68204456809E+03  0.00000000000E+00 0.  1.
          1    1    3    3  501    0  0.14460311833E+03  0.23622681195E+03 -0.27492998235E+03  0.39025589516E+03  0.00000000000E+00 0.  1.
         -3    1    1    2    0  502  0.12724428994E+02  0.62461559637E+02  0.37199255612E+01  0.63852919837E+02  0.00000000000E+00 0. -1.
<mgrwt>
<rscale>  1 0.63020360E+03</rscale>
<asrwt>0</asrwt>
<pdfrwt beam="1">  1       21 0.20946674E-01 0.63020360E+03</pdfrwt>
<pdfrwt beam="2">0</pdfrwt>
<totfact> 0.20551205E+03</totfact>
</mgrwt>
</event>
<event>
 6    1  0.1347953E-004  0.6813130E+03  0.7818608E-02  0.9749734E-01
         21   -1    0    0  501  502  0.00000000000E+00  0.00000000000E+00  0.28524263340E+03  0.28524263340E+03  0.00000000000E+00 0. -1.
         13   -1    0    0    0    0 -0.00000000000E+00 -0.00000000000E+00 -0.10000000000E+04  0.10000000000E+04  0.00000000000E+00 0.  1.
    9000005    2    1    2  501    0 -0.13266678342E+03 -0.16776422928E+03 -0.80368422101E+03  0.10536108189E+04  0.64687102158E+03 0.  0.
         13    1    3    3    0    0 -0.29630871424E+03  0.33988976162E+02 -0.72218993508E+03  0.78135293368E+03  0.00000000000E+00 0.  1.
          1    1    3    3  501    0  0.16364193082E+03 -0.20175320544E+03 -0.81494285935E+02  0.27225788523E+03  0.00000000000E+00 0.  1.
         -3    1    1    2    0  502  0.13266678342E+03  0.16776422928E+03  0.88926854412E+02  0.23163181449E+03  0.00000000000E+00 0. -1.
<mgrwt>
<rscale>  1 0.68131302E+03</rscale>
<asrwt>0</asrwt>
<pdfrwt beam="1">  1       21 0.43883481E-01 0.68131302E+03</pdfrwt>
<pdfrwt beam="2">0</pdfrwt>
<totfact> 0.46408943E+02</totfact>
</mgrwt>
</event>
<event>
 6    1  0.1347953E-004  0.6446185E+03  0.7818608E-02  0.9816930E-01
         21   -1    0    0  501  502  0.00000000000E+00  0.00000000000E+00  0.16207982580E+03  0.16207982580E+03  0.00000000000E+00 0.  1.
         13   -1    0    0    0    0 -0.00000000000E+00 -0.00000000000E+00 -0.10000000000E+04  0.10000000000E+04  0.00000000000E+00 0.  1.
    9000005    2    1    2  501    0  0.20142858879E+02  0.19039347009E+02 -0.89245081416E+03  0.11009093902E+04  0.64402235848E+03 0.  0.
         13    1    3    3    0    0  0.10849841359E+03  0.21869922184E+03 -0.84219228065E+03  0.87686321224E+03  0.00000000000E+00 0.  1.
          3    1    3    3  501    0 -0.88355554712E+02 -0.19965987483E+03 -0.50258533508E+02  0.22404617796E+03  0.00000000000E+00 0.  1.
         -3    1    1    2    0  502 -0.20142858879E+02 -0.19039347009E+02  0.54530639957E+02  0.61170435608E+02  0.00000000000E+00 0. -1.
<mgrwt>
<rscale>  1 0.64461851E+03</rscale>
<asrwt>0</asrwt>
<pdfrwt beam="1">  1       21 0.24935357E-01 0.64461851E+03</pdfrwt>
<pdfrwt beam="2">0</pdfrwt>
<totfact> 0.14639917E+03</totfact>
</mgrwt>
</event>
<event>
 6    1  0.1347953E-004  0.6475117E+03  0.7818608E-02  0.9811460E-01
         21   -1    0    0  501  502  0.00000000000E+00  0.00000000000E+00  0.17284226415E+03  0.17284226415E+03  0.00000000000E+00 0.  1.
         13   -1    0    0    0    0 -0.00000000000E+00 -0.00000000000E+00 -0.10000000000E+04  0.10000000000E+04  0.00000000000E+00 0.  1.
    9000005    2    1    2  501    0  0.38522180745E+02  0.33753827690E+02 -0.88435574320E+03  0.10960640684E+04  0.64548282881E+03 0.  0.
         13    1    3    3    0    0 -0.20097797488E+03  0.23241675330E+03 -0.27724196394E+03  0.41385118119E+03  0.00000000000E+00 0.  1.
          1    1    3    3  501    0  0.23950015563E+03 -0.19866292561E+03 -0.60711377926E+03  0.68221288725E+03  0.00000000000E+00 0.  1.
         -3    1    1    2    0  502 -0.38522180745E+02 -0.33753827690E+02  0.57198007350E+02  0.76778195719E+02  0.00000000000E+00 0. -1.
<mgrwt>
<rscale>  1 0.64751167E+03</rscale>
<asrwt>0</asrwt>
<pdfrwt beam="1">  1       21 0.26591117E-01 0.64751167E+03</pdfrwt>
<pdfrwt beam="2">0</pdfrwt>
<totfact> 0.12899572E+03</totfact>
</mgrwt>
</event>
<event>
 6    1  0.1347953E-004  0.6568079E+03  0.7818608E-02  0.9794088E-01
         21   -1    0    0  501  502  0.00000000000E+00  0.00000000000E+00  0.21137405872E+03  0.21137405872E+03  0.00000000000E+00 0.  1.
         13   -1    0    0    0    0 -0.00000000000E+00 -0.00000000000E+00 -0.10000000000E+04  0.10000000000E+04  0.00000000000E+00 0.  1.
    9000005    2    1    2  501    0 -0.52967947021E+02  0.18318594876E+02 -0.88367285078E+03  0.11010332715E+04  0.65441224264E+03 0.  0.
         13    1    3    3    0    0 -0.13097844380E+03 -0.10861147076E+03 -0.92966646789E+03  0.94510927720E+03  0.00000000000E+00 0.  1.
          1    1    3    3  501    0  0.78010496775E+02  0.12693006564E+03  0.45993617117E+02  0.15592399426E+03  0.00000000000E+00 0.  1.
         -1    1    1    2    0  502  0.52967947021E+02 -0.18318594876E+02  0.95046909496E+02  0.11034078727E+03  0.00000000000E+00 0. -1.
<mgrwt>
<rscale>  1 0.65680785E+03</rscale>
<asrwt>0</asrwt>
<pdfrwt beam="1">  1       21 0.32519085E-01 0.65680785E+03</pdfrwt>
<pdfrwt beam="2">0</pdfrwt>
<totfact> 0.86247574E+02</totfact>
</mgrwt>
</event>
<event>
 6    1  0.1347953E-004  0.6451952E+03  0.7818608E-02  0.9815837E-01
         21   -1    0    0  501  502  0.00000000000E+00  0.00000000000E+00  0.24409013772E+03  0.24409013772E+03  0.00000000000E+00 0. -1.
         13   -1    0    0    0    0 -0.00000000000E+00 -0.00000000000E+00 -0.10000000000E+04  0.10000000000E+04  0.00000000000E+00 0.  1.
    9000005    2    1    2  501    0 -0.87360026584E+01  0.32296864576E+02 -0.89372044302E+03  0.11022763113E+04  0.64432711485E+03 0.  0.
         13    1    3    3    0    0  0.12991903810E+03 -0.25806403823E+03 -0.24773647404E+03  0.38059081026E+03  0.00000000000E+00 0.  1.
          3    1    3    3  501    0 -0.13865504076E+03  0.29036090280E+03 -0.64598396898E+03  0.72168550102E+03  0.00000000000E+00 0.  1.
         -3    1    1    2    0  502  0.87360026584E+01 -0.32296864576E+02  0.13781058074E+03  0.14181382643E+03  0.00000000000E+00 0. -1.
<mgrwt>
<rscale>  1 0.64519519E+03</rscale>
<asrwt>0</asrwt>
<pdfrwt beam="1">  1       21 0.37552328E-01 0.64519519E+03</pdfrwt>
<pdfrwt beam="2">0</pdfrwt>
<totfact> 0.64370339E+02</totfact>
</mgrwt>
</event>
<event>
 6    1  0.1347953E-004  0.6524465E+03  0.7818608E-02  0.9802199E-01
         21   -1    0    0  501  502  0.00000000000E+00  0.00000000000E+00  0.12466624541E+03  0.12466624541E+03  0.00000000000E+00 0.  1.
         13   -1    0    0    0    0 -0.00000000000E+00 -0.00000000000E+00 -0.10000000000E+04  0.10000000000E+04  0.00000000000E+00 0.  1.
    9000005    2    1    2  501    0  0.45255198273E+02 -0.22089737615E+02 -0.83767381345E+03  0.10617833332E+04  0.65050014564E+03 0.  0.
         13    1    3    3    0    0 -0.22482479837E+03  0.46457051152E+01 -0.73988567684E+03  0.77330368377E+03  0.00000000000E+00 0.  1.
          1    1    3    3  501    0  0.27007999664E+03 -0.26735442730E+02 -0.97788136610E+02  0.28847964945E+03  0.00000000000E+00 0.  1.
         -1    1    1    2    0  502 -0.45255198273E+02  0.22089737615E+02 -0.37659941139E+02  0.62882912188E+02  0.00000000000E+00 0. -1.
<mgrwt>
<rscale>  1 0.65244650E+03</rscale>
<asrwt>0</asrwt>
<pdfrwt beam="1">  1       21 0.19179422E-01 0.65244650E+03</pdfrwt>
<pdfrwt beam="2">0</pdfrwt>
<totfact> 0.24313875E+03</totfact>
</mgrwt>
</event>
<event>
 6    1  0.1347953E-004  0.6592124E+03  0.7818608E-02  0.9789645E-01
         21   -1    0    0  501  502  0.00000000000E+00  0.00000000000E+00  0.12864735699E+03  0.12864735699E+03  0.00000000000E+00 0.  1.
         13   -1    0    0    0    0 -0.00000000000E+00 -0.00000000000E+00 -0.10000000000E+04  0.10000000000E+04  0.00000000000E+00 0.  1.
    9000005    2    1    2  501    0 -0.29418849638E+02  0.12666777739E+02 -0.87595024962E+03  0.10962891438E+04  0.65843384716E+03 0.  0.
         13    1    3    3    0    0  0.21313965370E+03  0.19573153668E+03 -0.66821803431E+03  0.72818588822E+03  0.00000000000E+00 0.  1.
          3    1    3    3  501    0 -0.24255850334E+03 -0.18306475894E+03 -0.20773221532E+03  0.36810325561E+03  0.00000000000E+00 0.  1.
         -3    1    1    2    0  502  0.29418849638E+02 -0.12666777739E+02  0.45976066101E+01  0.32358213159E+02  0.00000000000E+00 0. -1.
<mgrwt>
<rscale>  1 0.65921244E+03</rscale>
<asrwt>0</asrwt>
<pdfrwt beam="1">  1       21 0.19791901E-01 0.65921244E+03</pdfrwt>
<pdfrwt beam="2">0</pdfrwt>
<totfact> 0.22888893E+03</totfact>
</mgrwt>
</event>
<event>
 6    1  0.1347953E-004  0.6406904E+03  0.7818608E-02  0.9824406E-01
         21   -1    0    0  501  502  0.00000000000E+00  0.00000000000E+00  0.13887858094E+03  0.13887858094E+03  0.00000000000E+00 0.  1.
         13   -1    0    0    0    0 -0.00000000000E+00 -0.00000000000E+00 -0.10000000000E+04  0.10000000000E+04  0.00000000000E+00 0.  1.
    9000005    2    1    2  501    0 -0.27881775746E+02 -0.53854040279E+02 -0.86689922217E+03  0.10779603236E+04  0.63781388092E+03 0.  0.
         13    1    3    3    0    0 -0.22063847898E+03 -0.89408964389E+02 -0.84829915080E+03  0.88107136520E+03  0.00000000000E+00 0.  1.
          1    1    3    3  501    0  0.19275670323E+03  0.35554924111E+02 -0.18600071369E+02  0.19688895836E+03  0.00000000000E+00 0.  1.
         -1    1    1    2    0  502  0.27881775746E+02  0.53854040279E+02  0.57778031054E+01  0.60918257377E+02  0.00000000000E+00 0. -1.
<mgrwt>
<rscale>  1 0.64069041E+03</rscale>
<asrwt>0</asrwt>
<pdfrwt beam="1">  1       21 0.21365935E-01 0.64069041E+03</pdfrwt>
<pdfrwt beam="2">0</pdfrwt>
<totfact> 0.19772165E+03</totfact>
</mgrwt>
</event>
<event>
 6    1  0.1347953E-004  0.6677856E+03  0.7818608E-02  0.9773966E-01
         21   -1    0    0  501  502  0.00000000000E+00  0.00000000000E+00  0.44557836955E+03  0.44557836955E+03  0.00000000000E+00 0. -1.
         13   -1    0    0    0    0 -0.00000000000E+00 -0.00000000000E+00 -0.10000000000E+04  0.10000000000E+04  0.00000000000E+00 0.  1.
    9000005    2    1    2  501    0  0.32277044496E+02  0.16966322653E+03 -0.86345801407E+03  0.10915573187E+04  0.64506605858E+03 0.  0.
         13    1    3    3    0    0 -0.23065671487E+03 -0.79792438575E+02 -0.58699120472E+03  0.63571064784E+03  0.00000000000E+00 0.  1.
          1    1    3    3  501    0  0.26293375937E+03  0.24945566510E+03 -0.27646680935E+03  0.45584667087E+03  0.00000000000E+00 0.  1.
         -3    1    1    2    0  502 -0.32277044496E+02 -0.16966322653E+03  0.30903638362E+03  0.35402105084E+03  0.00000000000E+00 0. -1.
<mgrwt>
<rscale>  1 0.66778562E+03</rscale>
<asrwt>0</asrwt>
<pdfrwt beam="1">  1       21 0.68550516E-01 0.66778562E+03</pdfrwt>
<pdfrwt beam="2">0</pdfrwt>
<totfact> 0.17576848E+02</totfact>
</mgrwt>
</event>
<event>
 6    1  0.1347953E-004  0.6426173E+03  0.7818608E-02  0.9820732E-01
         21   -1    0    0  501  502  0.00000000000E+00  0.00000000000E+00  0.21265435479E+03  0.21265435479E+03  0.00000000000E+00 0.  1.
         13   -1    0    0    0    0 -0.00000000000E+00 -0.00000000000E+00 -0.10000000000E+04  0.10000000000E+04  0.00000000000E+00 0.  1.
    9000005    2    1    2  501    0 -0.42505381435E+02  0.63415756125E+02 -0.88185797257E+03  0.10911601344E+04  0.63806636760E+03 0.  0.
         13    1    3    3    0    0 -0.16290723627E+03 -0.51106263636E+02 -0.90715064543E+03  0.92307795517E+03  0.00000000000E+00 0.  1.
          1    1    3    3  501    0  0.12040185484E+03  0.11452201976E+03  0.25292672867E+02  0.16808217919E+03  0.00000000000E+00 0.  1.
         -1    1    1    2    0  502  0.42505381435E+02 -0.63415756125E+02  0.94512327352E+02  0.12149422043E+03  0.00000000000E+00 0. -1.
<mgrwt>
<rscale>  1 0.64261727E+03</rscale>
<asrwt>0</asrwt>
<pdfrwt beam="1">  1       21 0.32716054E-01 0.64261727E+03</pdfrwt>
<pdfrwt beam="2">0</pdfrwt>
<totfact> 0.85283428E+02</totfact>
</mgrwt>
</event>
<event>
 6    1  0.1347953E-004  0.6883566E+03  0.7818608E-02  0.9737354E-01
         21   -1    0    0  501  502  0.00000000000E+00  0.00000000000E+00  0.17018052723E+03  0.17018052723E+03  0.00000000000E+00 0.  1.
         13   -1    0    0    0    0 -0.00000000000E+00 -0.00000000000E+00 -0.10000000000E+04  0.10000000000E+04  0.00000000000E+00 0.  1.
    9000005    2    1    2  501    0 -0.69515589982E+02 -0.84360400494E+02 -0.80293674673E+03  0.10576115467E+04  0.67962171096E+03 0.  0.
         13    1    3    3    0    0  0.89118931425E+02  0.18049122358E+03 -0.42556778469E+01  0.20133895927E+03  0.00000000000E+00 0.  1.
          3    1    3    3  501    0 -0.15863452141E+03 -0.26485162407E+03 -0.79868106889E+03  0.85627258741E+03  0.00000000000E+00 0.  1.
         -3    1    1    2    0  502  0.69515589982E+02  0.84360400494E+02 -0.26882726036E+02  0.11256898055E+03  0.00000000000E+00 0. -1.
<mgrwt>
<rscale>  1 0.68835657E+03</rscale>
<asrwt>0</asrwt>
<pdfrwt beam="1">  1       21 0.26181619E-01 0.68835657E+03</pdfrwt>
<pdfrwt beam="2">0</pdfrwt>
<totfact> 0.13271337E+03</totfact>
</mgrwt>
</event>
<event>
 6    1  0.1347953E-004  0.6564973E+03  0.7818608E-02  0.9794663E-01
         21   -1    0    0  501  502  0.00000000000E+00  0.00000000000E+00  0.21567878419E+03  0.21567878419E+03  0.00000000000E+00 0. -1.
         13   -1    0    0    0    0 -0.00000000000E+00 -0.00000000000E+00 -0.10000000000E+04  0.10000000000E+04  0.00000000000E+00 0.  1.
    9000005    2    1    2  501    0  0.32859954809E+02 -0.23855801955E+02 -0.88800415381E+03  0.11043278635E+04  0.65524024366E+03 0.  0.
         13    1    3    3    0    0 -0.21274519769E+03 -0.45528595178E+02 -0.40002557654E+02  0.22120935047E+03  0.00000000000E+00 0.  1.
          3    1    3    3  501    0  0.24560515250E+03  0.21672793223E+02 -0.84800159615E+03  0.88311851298E+03  0.00000000000E+00 0.  1.
         -1    1    1    2    0  502 -0.32859954809E+02  0.23855801955E+02  0.10368293800E+03  0.11135092074E+03  0.00000000000E+00 0. -1.
<mgrwt>
<rscale>  1 0.65649726E+03</rscale>
<asrwt>0</asrwt>
<pdfrwt beam="1">  1       21 0.33181350E-01 0.65649726E+03</pdfrwt>
<pdfrwt beam="2">0</pdfrwt>
<totfact> 0.82801164E+02</totfact>
</mgrwt>
</event>
<event>
 6    1  0.1347953E-004  0.6343460E+03  0.7818608E-02  0.9836604E-01
         21   -1    0    0  501  502  0.00000000000E+00  0.00000000000E+00  0.14471617476E+03  0.14471617476E+03  0.00000000000E+00 0.  1.
         13   -1    0    0    0    0 -0.00000000000E+00 -0.00000000000E+00 -0.10000000000E+04  0.10000000000E+04  0.00000000000E+00 0.  1.
    9000005    2    1    2  501    0  0.18294912436E+02  0.90053414250E+01 -0.89679335191E+03  0.10984685716E+04  0.63401820693E+03 0.  0.
         13    1    3    3    0    0  0.21457454841E+03  0.98534049311E+02 -0.84394919129E+03  0.87635690970E+03  0.00000000000E+00 0.  1.
          1    1    3    3  501    0 -0.19627963597E+03 -0.89528707886E+02 -0.52844160626E+02  0.22211166188E+03  0.00000000000E+00 0.  1.
         -3    1    1    2    0  502 -0.18294912436E+02 -0.90053414250E+01  0.41509526674E+02  0.46247603181E+02  0.00000000000E+00 0. -1.
<mgrwt>
<rscale>  1 0.63434603E+03</rscale>
<asrwt>0</asrwt>
<pdfrwt beam="1">  1       21 0.22264026E-01 0.63434603E+03</pdfrwt>
<pdfrwt beam="2">0</pdfrwt>
<totfact> 0.18264826E+03</totfact>
</mgrwt>
</event>
<event>
 6    1  0.1347953E-004  0.6502281E+03  0.7818608E-02  0.9806351E-01
         21   -1    0    0  501  502  0.00000000000E+00  0.00000000000E+00  0.20887949836E+03  0.20887949836E+03  0.00000000000E+00 0. -1.
         13   -1    0    0    0    0 -0.00000000000E+00 -0.00000000000E+00 -0.10000000000E+04  0.10000000000E+04  0.00000000000E+00 0.  1.
    9000005    2    1    2  501    0 -0.11838149515E+02  0.51981503644E+02 -0.88662644436E+03  0.10995012391E+04  0.64803881398E+03 0.  0.
         13    1    3    3    0    0  0.97342128662E+01 -0.90503227971E+02 -0.94106213192E+03  0.94545413707E+03  0.00000000000E+00 0.  1.
          1    1    3    3  501    0 -0.21572362381E+02  0.14248473162E+03  0.54435687555E+02  0.15404710202E+03  0.00000000000E+00 0.  1.
         -1    1    1    2    0  502  0.11838149515E+02 -0.51981503644E+02  0.95505942722E+02  0.10937825927E+03  0.00000000000E+00 0. -1.
<mgrwt>
<rscale>  1 0.65022805E+03</rscale>
<asrwt>0</asrwt>
<pdfrwt beam="1">  1       21 0.32135307E-01 0.65022805E+03</pdfrwt>
<pdfrwt beam="2">0</pdfrwt>
<totfact> 0.88379632E+02</totfact>
</mgrwt>
</event>
<event>
 6    1  0.1347953E-004  0.6494379E+03  0.7818608E-02  0.9807835E-01
         21   -1    0    0  501  502  0.00000000000E+00  0.00000000000E+00  0.16022333872E+03  0.16022333872E+03  0.00000000000E+00 0.  1.
         13   -1    0    0    0    0 -0.00000000000E+00 -0.00000000000E+00 -0.10000000000E+04  0.10000000000E+04  0.00000000000E+00 0.  1.
    9000005    2    1    2  501    0  0.56168991535E+02  0.57275586556E+02 -0.85983070608E+03  0.10775334776E+04  0.64446419894E+03 0.  0.
         13    1    3    3    0    0 -0.60272411633E+02 -0.26948799790E+03 -0.23383709394E+03  0.36185125552E+03  0.00000000000E+00 0.  1.
          1    1    3    3  501    0  0.11644140317E+03  0.32676358446E+03 -0.62599361214E+03  0.71568222204E+03  0.00000000000E+00 0.  1.
         -3    1    1    2    0  502 -0.56168991535E+02 -0.57275586556E+02  0.20054044803E+02  0.82689861158E+02  0.00000000000E+00 0. -1.
<mgrwt>
<rscale>  1 0.64943787E+03</rscale>
<asrwt>0</asrwt>
<pdfrwt beam="1">  1       21 0.24649744E-01 0.64943787E+03</pdfrwt>
<pdfrwt beam="2">0</pdfrwt>
<totfact> 0.14970218E+03</totfact>
</mgrwt>
</event>
<event>
 6    1  0.1347953E-004  0.6595485E+03  0.7818608E-02  0.9789025E-01
         21   -1    0    0  501  502  0.00000000000E+00  0.00000000000E+00  0.19146891382E+03  0.19146891382E+03  0.00000000000E+00 0. -1.
         13   -1    0    0    0    0 -0.00000000000E+00 -0.00000000000E+00 -0.10000000000E+04  0.10000000000E+04  0.00000000000E+00 0.  1.
    9000005    2    1    2  501    0  0.13594844825E+03 -0.25453380514E+02 -0.82040623555E+03  0.10526493391E+04  0.64488323328E+03 0.  0.
         13    1    3    3    0    0 -0.23847640073E+03 -0.10282265247E+03 -0.21756851627E+03  0.33879130868E+03  0.00000000000E+00 0.  1.
          1    1    3    3  501    0  0.37442484898E+03  0.77369271957E+02 -0.60283771927E+03  0.71385803039E+03  0.00000000000E+00 0.  1.
         -3    1    1    2    0  502 -0.13594844825E+03  0.25453380514E+02  0.11875149374E+02  0.13881957475E+03  0.00000000000E+00 0. -1.
<mgrwt>
<rscale>  1 0.65954851E+03</rscale>
<asrwt>0</asrwt>
<pdfrwt beam="1">  1       21 0.29456755E-01 0.65954851E+03</pdfrwt>
<pdfrwt beam="2">0</pdfrwt>
<totfact> 0.10519490E+03</totfact>
</mgrwt>
</event>
<event>
 6    1  0.1347953E-004  0.6461712E+03  0.7818608E-02  0.9813990E-01
         21   -1    0    0  501  502  0.00000000000E+00  0.00000000000E+00  0.13203201151E+03  0.13203201151E+03  0.00000000000E+00 0.  1.
         13   -1    0    0    0    0 -0.00000000000E+00 -0.00000000000E+00 -0.10000000000E+04  0.10000000000E+04  0.00000000000E+00 0.  1.
    9000005    2    1    2  501    0  0.19749350696E+01  0.28254575686E+02 -0.88736450989E+03  0.10977035036E+04  0.64555014283E+03 0.  0.
         13    1    3    3    0    0  0.24338234419E+03  0.21983832200E+03 -0.55324311795E+03  0.64314990542E+03  0.00000000000E+00 0.  1.
          3    1    3    3  501    0 -0.24140740912E+03 -0.19158374632E+03 -0.33412139194E+03  0.45455359814E+03  0.00000000000E+00 0.  1.
         -1    1    1    2    0  502 -0.19749350696E+01 -0.28254575686E+02  0.19396521396E+02  0.34328507948E+02  0.00000000000E+00 0. -1.
<mgrwt>
<rscale>  1 0.64617119E+03</rscale>
<asrwt>0</asrwt>
<pdfrwt beam="1">  1       21 0.20312617E-01 0.64617119E+03</pdfrwt>
<pdfrwt beam="2">0</pdfrwt>
<totfact> 0.21787752E+03</totfact>
</mgrwt>
</event>
<event>
 6    1  0.1347953E-004  0.6606935E+03  0.7818608E-02  0.9786918E-01
         21   -1    0    0  501  502  0.00000000000E+00  0.00000000000E+00  0.25259849760E+03  0.25259849760E+03  0.00000000000E+00 0. -1.
         13   -1    0    0    0    0 -0.00000000000E+00 -0.00000000000E+00 -0.10000000000E+04  0.10000000000E+04  0.00000000000E+00 0.  1.
    9000005    2    1    2  501    0  0.75992422308E+02 -0.25627082357E+02 -0.87831756429E+03  0.10990712660E+04  0.65580813376E+03 0.  0.
         13    1    3    3    0    0 -0.83470332249E+02 -0.14301661224E+03 -0.88557742640E+03  0.90092642646E+03  0.00000000000E+00 0.  1.
          3    1    3    3  501    0  0.15946275456E+03  0.11738952989E+03  0.72598621165E+01  0.19814483949E+03  0.00000000000E+00 0.  1.
         -3    1    1    2    0  502 -0.75992422308E+02  0.25627082357E+02  0.13091606188E+03  0.15352723165E+03  0.00000000000E+00 0. -1.
<mgrwt>
<rscale>  1 0.66069350E+03</rscale>
<asrwt>0</asrwt>
<pdfrwt beam="1">  1       21 0.38861306E-01 0.66069350E+03</pdfrwt>
<pdfrwt beam="2">0</pdfrwt>
<totfact> 0.59907311E+02</totfact>
</mgrwt>
</event>
<event>
 6    1  0.1347953E-004  0.6587243E+03  0.7818608E-02  0.9790545E-01
         21   -1    0    0  501  502  0.00000000000E+00  0.00000000000E+00  0.20595415813E+03  0.20595415813E+03  0.00000000000E+00 0.  1.
         13   -1    0    0    0    0 -0.00000000000E+00 -0.00000000000E+00 -0.10000000000E+04  0.10000000000E+04  0.00000000000E+00 0.  1.
    9000005    2    1    2  501    0  0.97099138873E+02  0.90013900225E+02 -0.83848642340E+03  0.10662913131E+04  0.64528051040E+03 0.  0.
         13    1    3    3    0    0 -0.11080894602E+03  0.26649205908E+03 -0.70679484346E+03  0.76344979587E+03  0.00000000000E+00 0.  1.
          3    1    3    3  501    0  0.20790808489E+03 -0.17647815885E+03 -0.13169157994E+03  0.30284151720E+03  0.00000000000E+00 0.  1.
         -1    1    1    2    0  502 -0.97099138873E+02 -0.90013900225E+02  0.44440581532E+02  0.13966284506E+03  0.00000000000E+00 0. -1.
<mgrwt>
<rscale>  1 0.65872428E+03</rscale>
<asrwt>0</asrwt>
<pdfrwt beam="1">  1       21 0.31685254E-01 0.65872428E+03</pdfrwt>
<pdfrwt beam="2">0</pdfrwt>
<totfact> 0.90878291E+02</totfact>
</mgrwt>
</event>
<event>
 6    1  0.1347953E-004  0.6711417E+03  0.7818608E-02  0.9767897E-01
         21   -1    0    0  501  502  0.00000000000E+00  0.00000000000E+00  0.24366471020E+03  0.24366471020E+03  0.00000000000E+00 0. -1.
         13   -1    0    0    0    0 -0.00000000000E+00 -0.00000000000E+00 -0.10000000000E+04  0.10000000000E+04  0.00000000000E+00 0.  1.
    9000005    2    1    2  501    0  0.29365655656E+02  0.15865082061E+01 -0.88555371438E+03  0.11111420329E+04  0.67049711226E+03 0.  0.
         13    1    3    3    0    0  0.24737186649E+03  0.10203935734E+03 -0.93405494456E+02  0.28342451759E+03  0.00000000000E+00 0.  1.
          3    1    3    3  501    0 -0.21800621083E+03 -0.10045284914E+03 -0.79214821992E+03  0.82771751533E+03  0.00000000000E+00 0.  1.
         -1    1    1    2    0  502 -0.29365655656E+02 -0.15865082061E+01  0.12921842458E+03  0.13252267727E+03  0.00000000000E+00 0. -1.
<mgrwt>
<rscale>  1 0.67114174E+03</rscale>
<asrwt>0</asrwt>
<pdfrwt beam="1">  1       21 0.37486877E-01 0.67114174E+03</pdfrwt>
<pdfrwt beam="2">0</pdfrwt>
<totfact> 0.64474734E+02</totfact>
</mgrwt>
</event>
<event>
 6    1  0.1347953E-004  0.6517453E+03  0.7818608E-02  0.9803510E-01
         21   -1    0    0  501  502  0.00000000000E+00  0.00000000000E+00  0.11683100119E+03  0.11683100119E+03  0.00000000000E+00 0.  1.
         13   -1    0    0    0    0 -0.00000000000E+00 -0.00000000000E+00 -0.10000000000E+04  0.10000000000E+04  0.00000000000E+00 0.  1.
    9000005    2    1    2  501    0  0.27315646868E+02 -0.14953215139E+01 -0.86832312165E+03  0.10857057603E+04  0.65117092524E+03 0.  0.
         13    1    3    3    0    0  0.17396084274E+03  0.28125081711E+03 -0.39447387247E+03  0.51475628505E+03  0.00000000000E+00 0.  1.
          1    1    3    3  501    0 -0.14664519587E+03 -0.28274613863E+03 -0.47384924918E+03  0.57094947529E+03  0.00000000000E+00 0.  1.
         -1    1    1    2    0  502 -0.27315646868E+02  0.14953215139E+01 -0.14845877153E+02  0.31125240862E+02  0.00000000000E+00 0. -1.
<mgrwt>
<rscale>  1 0.65174531E+03</rscale>
<asrwt>0</asrwt>
<pdfrwt beam="1">  1       21 0.17974000E-01 0.65174531E+03</pdfrwt>
<pdfrwt beam="2">0</pdfrwt>
<totfact> 0.27512301E+03</totfact>
</mgrwt>
</event>
<event>
 6    1  0.1347953E-004  0.6613535E+03  0.7818608E-02  0.9785705E-01
         21   -1    0    0  501  502  0.00000000000E+00  0.00000000000E+00  0.15989531065E+03  0.15989531065E+03  0.00000000000E+00 0.  1.
         13   -1    0    0    0    0 -0.00000000000E+00 -0.00000000000E+00 -0.10000000000E+04  0.10000000000E+04  0.00000000000E+00 0.  1.
    9000005    2    1    2  501    0  0.23451484414E+02  0.19584049635E+02 -0.88547627382E+03  0.11051953308E+04  0.66064739503E+03 0.  0.
         13    1    3    3    0    0  0.27012196469E+03  0.43719429136E+02 -0.79595047404E+03  0.84167358365E+03  0.00000000000E+00 0.  1.
          1    1    3    3  501    0 -0.24667048028E+03 -0.24135379501E+02 -0.89525799781E+02  0.26352174713E+03  0.00000000000E+00 0.  1.
         -1    1    1    2    0  502 -0.23451484414E+02 -0.19584049635E+02  0.45371584471E+02  0.54699979879E+02  0.00000000000E+00 0. -1.
<mgrwt>
<rscale>  1 0.66135353E+03</rscale>
<asrwt>0</asrwt>
<pdfrwt beam="1">  1       21 0.24599278E-01 0.66135353E+03</pdfrwt>
<pdfrwt beam="2">0</pdfrwt>
<totfact> 0.15021300E+03</totfact>
</mgrwt>
</event>
<event>
 6    1  0.1347953E-004  0.7369599E+03  0.7818608E-02  0.9656033E-01
         21   -1    0    0  501  502  0.00000000000E+00  0.00000000000E+00  0.20385070569E+03  0.20385070569E+03  0.00000000000E+00 0.  1.
         13   -1    0    0    0    0 -0.00000000000E+00 -0.00000000000E+00 -0.10000000000E+04  0.10000000000E+04  0.00000000000E+00 0.  1.
    9000005    2    1    2  501    0  0.92148373262E+02 -0.63760109725E+02 -0.80506596363E+03  0.10914399354E+04  0.72839086520E+03 0.  0.
         13    1    3    3    0    0  0.20742052850E+03 -0.21772701128E+03 -0.40949326459E+02  0.30348834314E+03  0.00000000000E+00 0.  1.
          3    1    3    3  501    0 -0.11527215523E+03  0.15396690156E+03 -0.76411663717E+03  0.78795159226E+03  0.00000000000E+00 0.  1.
         -3    1    1    2    0  502 -0.92148373262E+02  0.63760109725E+02  0.89166693188E+01  0.11241077030E+03  0.00000000000E+00 0. -1.
<mgrwt>
<rscale>  1 0.73695992E+03</rscale>
<asrwt>0</asrwt>
<pdfrwt beam="1">  1       21 0.31361646E-01 0.73695992E+03</pdfrwt>
<pdfrwt beam="2">0</pdfrwt>
<totfact> 0.92332859E+02</totfact>
</mgrwt>
</event>
<event>
 6    1  0.1347953E-004  0.6880986E+03  0.7818608E-02  0.9737804E-01
         21   -1    0    0  501  502  0.00000000000E+00  0.00000000000E+00  0.22595543127E+03  0.22595543127E+03  0.00000000000E+00 0.  1.
         13   -1    0    0    0    0 -0.00000000000E+00 -0.00000000000E+00 -0.10000000000E+04  0.10000000000E+04  0.00000000000E+00 0.  1.
    9000005    2    1    2  501    0  0.22426914500E+03  0.28318014260E+02 -0.71499709113E+03  0.99232075075E+03  0.64990851104E+03 0.  0.
         13    1    3    3    0    0  0.12216092278E+03 -0.30558075186E+02 -0.82292599411E+03  0.83250482209E+03  0.00000000000E+00 0.  1.
          1    1    3    3  501    0  0.10210822222E+03  0.58876089446E+02  0.10792890299E+03  0.15981592866E+03  0.00000000000E+00 0.  1.
         -1    1    1    2    0  502 -0.22426914500E+03 -0.28318014260E+02 -0.59047477609E+02  0.23363468052E+03  0.00000000000E+00 0. -1.
<mgrwt>
<rscale>  1 0.68809856E+03</rscale>
<asrwt>0</asrwt>
<pdfrwt beam="1">  1       21 0.34762373E-01 0.68809856E+03</pdfrwt>
<pdfrwt beam="2">0</pdfrwt>
<totfact> 0.75162792E+02</totfact>
</mgrwt>
</event>
<event>
 6    1  0.1347953E-004  0.6491838E+03  0.7818608E-02  0.9808312E-01
         21   -1    0    0  501  502  0.00000000000E+00  0.00000000000E+00  0.13079961782E+03  0.13079961782E+03  0.00000000000E+00 0. -1.
         13   -1    0    0    0    0 -0.00000000000E+00 -0.00000000000E+00 -0.10000000000E+04  0.10000000000E+04  0.00000000000E+00 0.  1.
    9000005    2    1    2  501    0 -0.50790029869E+01 -0.31694691153E+02 -0.88291652568E+03  0.10958928518E+04  0.64838969893E+03 0.  0.
         13    1    3    3    0    0 -0.15734443608E+03  0.22594035051E+03 -0.17221518265E+03  0.32475280243E+03  0.00000000000E+00 0.  1.
          1    1    3    3  501    0  0.15226543309E+03 -0.25763504167E+03 -0.71070134303E+03  0.77114004940E+03  0.00000000000E+00 0.  1.
         -3    1    1    2    0  502  0.50790029869E+01  0.31694691153E+02  0.13716143498E+02  0.34906765979E+02  0.00000000000E+00 0. -1.
<mgrwt>
<rscale>  1 0.64918376E+03</rscale>
<asrwt>0</asrwt>
<pdfrwt beam="1">  1       21 0.20123018E-01 0.64918376E+03</pdfrwt>
<pdfrwt beam="2">0</pdfrwt>
<totfact> 0.22180817E+03</totfact>
</mgrwt>
</event>
<event>
 6    1  0.1347953E-004  0.6437571E+03  0.7818608E-02  0.9818565E-01
         21   -1    0    0  501  502  0.00000000000E+00  0.00000000000E+00  0.25512548889E+03  0.25512548889E+03  0.00000000000E+00 0.  1.
         13   -1    0    0    0    0 -0.00000000000E+00 -0.00000000000E+00 -0.10000000000E+04  0.10000000000E+04  0.00000000000E+00 0.  1.
    9000005    2    1    2  501    0  0.14192011938E+02  0.46695528244E+02 -0.89204366909E+03  0.11000750241E+04  0.64190440534E+03 0.  0.
         13    1    3    3    0    0 -0.16448479931E+02 -0.11362247267E+03  0.63155264876E+02  0.13103131789E+03  0.00000000000E+00 0.  1.
          1    1    3    3  501    0  0.30640491869E+02  0.16031800091E+03 -0.95519893397E+03  0.96904370624E+03  0.00000000000E+00 0.  1.
         -3    1    1    2    0  502 -0.14192011938E+02 -0.46695528244E+02  0.14716915798E+03  0.15505046476E+03  0.00000000000E+00 0. -1.
<mgrwt>
<rscale>  1 0.64375706E+03</rscale>
<asrwt>0</asrwt>
<pdfrwt beam="1">  1       21 0.39250074E-01 0.64375706E+03</pdfrwt>
<pdfrwt beam="2">0</pdfrwt>
<totfact> 0.58765355E+02</totfact>
</mgrwt>
</event>
<event>
 6    1  0.1347953E-004  0.6517964E+03  0.7818608E-02  0.9803414E-01
         21   -1    0    0  501  502  0.00000000000E+00  0.00000000000E+00  0.13664479710E+03  0.13664479710E+03  0.00000000000E+00 0.  1.
         13   -1    0    0    0    0 -0.00000000000E+00 -0.00000000000E+00 -0.10000000000E+04  0.10000000000E+04  0.00000000000E+00 0.  1.
    9000005    2    1    2  501    0  0.59058311613E+01  0.82780828844E+02 -0.80186075419E+03  0.10333534050E+04  0.64649133482E+03 0.  0.
         13    1    3    3    0    0  0.28120312839E+03  0.17391360967E+03 -0.26717926115E+03  0.42509516656E+03  0.00000000000E+00 0.  1.
          3    1    3    3  501    0 -0.27529729722E+03 -0.91132780828E+02 -0.53468149304E+03  0.60825823842E+03  0.00000000000E+00 0.  1.
         -1    1    1    2    0  502 -0.59058311613E+01 -0.82780828844E+02 -0.61494448703E+02  0.10329139212E+03  0.00000000000E+00 0. -1.
<mgrwt>
<rscale>  1 0.65179643E+03</rscale>
<asrwt>0</asrwt>
<pdfrwt beam="1">  1       21 0.21022276E-01 0.65179643E+03</pdfrwt>
<pdfrwt beam="2">0</pdfrwt>
<totfact> 0.20390375E+03</totfact>
</mgrwt>
</event>
<event>
 6    1  0.1347953E-004  0.6661530E+03  0.7818608E-02  0.9776933E-01
         21   -1    0    0  501  502  0.00000000000E+00  0.00000000000E+00  0.17877015468E+03  0.17877015468E+03  0.00000000000E+00 0.  1.
         13   -1    0    0    0    0 -0.00000000000E+00 -0.00000000000E+00 -0.10000000000E+04  0.10000000000E+04  0.00000000000E+00 0.  1.
    9000005    2    1    2  501    0 -0.91670405904E+02 -0.12672747301E+02 -0.85176096631E+03  0.10813216493E+04  0.65969364388E+03 0.  0.
         13    1    3    3    0    0 -0.16226017164E+03 -0.10708453420E+03  0.25589131360E+02  0.19608738972E+03  0.00000000000E+00 0.  1.
          1    1    3    3  501    0  0.70589765735E+02  0.94411786896E+02 -0.87735009767E+03  0.88523425962E+03  0.00000000000E+00 0.  1.
         -1    1    1    2    0  502  0.91670405904E+02  0.12672747301E+02  0.30531120987E+02  0.97448505333E+02  0.00000000000E+00 0. -1.
<mgrwt>
<rscale>  1 0.66615296E+03</rscale>
<asrwt>0</asrwt>
<pdfrwt beam="1">  1       21 0.27503100E-01 0.66615296E+03</pdfrwt>
<pdfrwt beam="2">0</pdfrwt>
<totfact> 0.12054703E+03</totfact>
</mgrwt>
</event>
<event>
 6    1  0.1347953E-004  0.6526514E+03  0.7818608E-02  0.9801817E-01
         21   -1    0    0  501  502  0.00000000000E+00  0.00000000000E+00  0.20024890885E+03  0.20024890885E+03  0.00000000000E+00 0.  1.
         13   -1    0    0    0    0 -0.00000000000E+00 -0.00000000000E+00 -0.10000000000E+04  0.10000000000E+04  0.00000000000E+00 0.  1.
    9000005    2    1    2  501    0  0.82565783621E+02  0.31322153835E+02 -0.86987136323E+03  0.10874879293E+04  0.64664953563E+03 0.  0.
         13    1    3    3    0    0  0.13438328187E+03  0.30447022922E+03 -0.65994953863E+03  0.73911729818E+03  0.00000000000E+00 0.  1.
          1    1    3    3  501    0 -0.51817498248E+02 -0.27314807538E+03 -0.20992182460E+03  0.34837063116E+03  0.00000000000E+00 0.  1.
         -1    1    1    2    0  502 -0.82565783621E+02 -0.31322153835E+02  0.70120272076E+02  0.11276097952E+03  0.00000000000E+00 0. -1.
<mgrwt>
<rscale>  1 0.65265137E+03</rscale>
<asrwt>0</asrwt>
<pdfrwt beam="1">  1       21 0.30807524E-01 0.65265137E+03</pdfrwt>
<pdfrwt beam="2">0</pdfrwt>
<totfact> 0.96200040E+02</totfact>
</mgrwt>
</event>
<event>
 6    1  0.1347953E-004  0.7519068E+03  0.7818608E-02  0.9632364E-01
         21   -1    0    0  501  502  0.00000000000E+00  0.00000000000E+00  0.50200145266E+03  0.50200145266E+03  0.00000000000E+00 0. -1.
         13   -1    0    0    0    0 -0.00000000000E+00 -0.00000000000E+00 -0.10000000000E+04  0.10000000000E+04  0.00000000000E+00 0.  1.
    9000005    2    1    2  501    0  0.38696697988E+03  0.18287213303E+03 -0.70127642089E+03  0.10281791712E+04  0.61820557179E+03 0.  0.
         13    1    3    3    0    0  0.49145300362E+03  0.27547059894E+03 -0.38476002042E+03  0.68223923880E+03  0.00000000000E+00 0.  1.
          1    1    3    3  501    0 -0.10448602374E+03 -0.92598465903E+02 -0.31651640047E+03  0.34593993237E+03  0.00000000000E+00 0.  1.
         -3    1    1    2    0  502 -0.38696697988E+03 -0.18287213303E+03  0.20327787354E+03  0.47382228148E+03  0.00000000000E+00 0. -1.
<mgrwt>
<rscale>  1 0.75190677E+03</rscale>
<asrwt>0</asrwt>
<pdfrwt beam="1">  1       21 0.77230991E-01 0.75190677E+03</pdfrwt>
<pdfrwt beam="2">0</pdfrwt>
<totfact> 0.13248742E+02</totfact>
</mgrwt>
</event>
<event>
 6    1  0.1347953E-004  0.6499355E+03  0.7818608E-02  0.9806900E-01
         21   -1    0    0  501  502  0.00000000000E+00  0.00000000000E+00  0.25352500056E+03  0.25352500056E+03  0.00000000000E+00 0. -1.
         13   -1    0    0    0    0 -0.00000000000E+00 -0.00000000000E+00 -0.10000000000E+04  0.10000000000E+04  0.00000000000E+00 0.  1.
    9000005    2    1    2  501    0 -0.21432375725E+02 -0.72543620412E+01 -0.89343864022E+03  0.11048297276E+04  0.64954149258E+03 0.  0.
         13    1    3    3    0    0 -0.23207352369E+03  0.16329696017E+02 -0.85918105487E+03  0.89012182561E+03  0.00000000000E+00 0.  1.
          1    1    3    3  501    0  0.21064114797E+03 -0.23584058058E+02 -0.34257585351E+02  0.21470790197E+03  0.00000000000E+00 0.  1.
         -3    1    1    2    0  502  0.21432375725E+02  0.72543620412E+01  0.14696364078E+03  0.14869527299E+03  0.00000000000E+00 0. -1.
<mgrwt>
<rscale>  1 0.64993548E+03</rscale>
<asrwt>0</asrwt>
<pdfrwt beam="1">  1       21 0.39003845E-01 0.64993548E+03</pdfrwt>
<pdfrwt beam="2">0</pdfrwt>
<totfact> 0.59505833E+02</totfact>
</mgrwt>
</event>
<event>
 6    1  0.1347953E-004  0.6603244E+03  0.7818608E-02  0.9787597E-01
         21   -1    0    0  501  502  0.00000000000E+00  0.00000000000E+00  0.14287477267E+03  0.14287477267E+03  0.00000000000E+00 0.  1.
         13   -1    0    0    0    0 -0.00000000000E+00 -0.00000000000E+00 -0.10000000000E+04  0.10000000000E+04  0.00000000000E+00 0.  1.
    9000005    2    1    2  501    0 -0.31469713951E+02 -0.34006406982E+02 -0.87236694602E+03  0.10940988708E+04  0.65869679826E+03 0.  0.
         13    1    3    3    0    0  0.10865425088E+02 -0.33142874850E+02  0.10765423165E+03  0.11316333862E+03  0.00000000000E+00 0.  1.
          3    1    3    3  501    0 -0.42335139039E+02 -0.86353213258E+00 -0.98002117766E+03  0.98093553221E+03  0.00000000000E+00 0.  1.
         -3    1    1    2    0  502  0.31469713951E+02  0.34006406982E+02  0.15241718687E+02  0.48775901842E+02  0.00000000000E+00 0. -1.
<mgrwt>
<rscale>  1 0.66032435E+03</rscale>
<asrwt>0</asrwt>
<pdfrwt beam="1">  1       21 0.21980734E-01 0.66032435E+03</pdfrwt>
<pdfrwt beam="2">0</pdfrwt>
<totfact> 0.18701372E+03</totfact>
</mgrwt>
</event>
<event>
 6    1  0.1347953E-004  0.6544288E+03  0.7818608E-02  0.9798504E-01
         21   -1    0    0  501  502  0.00000000000E+00  0.00000000000E+00  0.15363770285E+03  0.15363770285E+03  0.00000000000E+00 0.  1.
         13   -1    0    0    0    0 -0.00000000000E+00 -0.00000000000E+00 -0.10000000000E+04  0.10000000000E+04  0.00000000000E+00 0.  1.
    9000005    2    1    2  501    0  0.12458236347E+02 -0.27492966071E+02 -0.88745075983E+03  0.11026540525E+04  0.65373238987E+03 0.  0.
         13    1    3    3    0    0  0.21802632816E+03  0.21020396277E+03 -0.25295298475E+03  0.39459650052E+03  0.00000000000E+00 0.  1.
          1    1    3    3  501    0 -0.20556809181E+03 -0.23769692884E+03 -0.63449777508E+03  0.70805755199E+03  0.00000000000E+00 0.  1.
         -1    1    1    2    0  502 -0.12458236347E+02  0.27492966071E+02  0.41088462674E+02  0.50983650332E+02  0.00000000000E+00 0. -1.
<mgrwt>
<rscale>  1 0.65442884E+03</rscale>
<asrwt>0</asrwt>
<pdfrwt beam="1">  1       21 0.23636569E-01 0.65442884E+03</pdfrwt>
<pdfrwt beam="2">0</pdfrwt>
<totfact> 0.16245171E+03</totfact>
</mgrwt>
</event>
<event>
 6    1  0.1347953E-004  0.6240451E+03  0.7818608E-02  0.9856739E-01
         21   -1    0    0  501  502  0.00000000000E+00  0.00000000000E+00  0.31240673958E+03  0.31240673958E+03  0.00000000000E+00 0. -1.
         13   -1    0    0    0    0 -0.00000000000E+00 -0.00000000000E+00 -0.10000000000E+04  0.10000000000E+04  0.00000000000E+00 0.  1.
    9000005    2    1    2  501    0 -0.82089213892E+01  0.23367502839E+02 -0.90185908028E+03  0.10967142081E+04  0.62355338743E+03 0.  0.
         13    1    3    3    0    0 -0.92743826417E+02  0.29934707173E+03 -0.61246297383E+03  0.68798327088E+03  0.00000000000E+00 0.  1.
          1    1    3    3  501    0  0.84534905028E+02 -0.27597956889E+03 -0.28939610644E+03  0.40873093722E+03  0.00000000000E+00 0.  1.
         -1    1    1    2    0  502  0.82089213892E+01 -0.23367502839E+02  0.21426581986E+03  0.21569253149E+03  0.00000000000E+00 0. -1.
<mgrwt>
<rscale>  1 0.62404507E+03</rscale>
<asrwt>0</asrwt>
<pdfrwt beam="1">  1       21 0.48062574E-01 0.62404507E+03</pdfrwt>
<pdfrwt beam="2">0</pdfrwt>
<totfact> 0.38474980E+02</totfact>
</mgrwt>
</event>
<event>
 6    1  0.1347953E-004  0.6749600E+03  0.7818608E-02  0.9761039E-01
         21   -1    0    0  501  502  0.00000000000E+00  0.00000000000E+00  0.36986607193E+03  0.36986607193E+03  0.00000000000E+00 0. -1.
         13   -1    0    0    0    0 -0.00000000000E+00 -0.00000000000E+00 -0.10000000000E+04  0.10000000000E+04  0.00000000000E+00 0.  1.
    9000005    2    1    2  501    0  0.61153915459E+02 -0.32807951127E+02 -0.88085415101E+03  0.11097184346E+04  0.67138275642E+03 0.  0.
         13    1    3    3    0    0 -0.74489492966E+02  0.20639312634E+03 -0.79031884472E+03  0.82021380352E+03  0.00000000000E+00 0.  1.
          1    1    3    3  501    0  0.13564340843E+03 -0.23920107747E+03 -0.90535306292E+02  0.28950463104E+03  0.00000000000E+00 0.  1.
         -3    1    1    2    0  502 -0.61153915459E+02  0.32807951127E+02  0.25072022295E+03  0.26014763737E+03  0.00000000000E+00 0. -1.
<mgrwt>
<rscale>  1 0.67495998E+03</rscale>
<asrwt>0</asrwt>
<pdfrwt beam="1">  1       21 0.56902471E-01 0.67495998E+03</pdfrwt>
<pdfrwt beam="2">0</pdfrwt>
<totfact> 0.26588767E+02</totfact>
</mgrwt>
</event>
<event>
 6    1  0.1347953E-004  0.6640331E+03  0.7818608E-02  0.9780798E-01
         21   -1    0    0  501  502  0.00000000000E+00  0.00000000000E+00  0.15697729541E+03  0.15697729541E+03  0.00000000000E+00 0.  1.
         13   -1    0    0    0    0 -0.00000000000E+00 -0.00000000000E+00 -0.10000000000E+04  0.10000000000E+04  0.00000000000E+00 0.  1.
    9000005    2    1    2  501    0 -0.33394578861E+02 -0.11418755705E+03 -0.77250607827E+03  0.10186783776E+04  0.65328860386E+03 0.  0.
         13    1    3    3    0    0 -0.34001514671E+03 -0.53214455337E+02 -0.32939319481E+03  0.47638425145E+03  0.00000000000E+00 0.  1.
          3    1    3    3  501    0  0.30662056784E+03 -0.60973101710E+02 -0.44311288346E+03  0.54229412614E+03  0.00000000000E+00 0.  1.
         -3    1    1    2    0  502  0.33394578861E+02  0.11418755705E+03 -0.70516626323E+02  0.13829891782E+03  0.00000000000E+00 0. -1.
<mgrwt>
<rscale>  1 0.66403313E+03</rscale>
<asrwt>0</asrwt>
<pdfrwt beam="1">  1       21 0.24150352E-01 0.66403313E+03</pdfrwt>
<pdfrwt beam="2">0</pdfrwt>
<totfact> 0.15570201E+03</totfact>
</mgrwt>
</event>
<event>
 6    1  0.1347953E-004  0.6525688E+03  0.7818608E-02  0.9801971E-01
         21   -1    0    0  501  502  0.00000000000E+00  0.00000000000E+00  0.16201575751E+03  0.16201575751E+03  0.00000000000E+00 0.  1.
         13   -1    0    0    0    0 -0.00000000000E+00 -0.00000000000E+00 -0.10000000000E+04  0.10000000000E+04  0.00000000000E+00 0.  1.
    9000005    2    1    2  501    0  0.23479393432E+02 -0.16493715013E+02 -0.88940786204E+03  0.11031284652E+04  0.65193768189E+03 0.  0.
         13    1    3    3    0    0 -0.31324787465E+03 -0.29455216831E+02 -0.39956937089E+03  0.50857400929E+03  0.00000000000E+00 0.  1.
          1    1    3    3  501    0  0.33672726808E+03  0.12961501817E+02 -0.48983849115E+03  0.59455445589E+03  0.00000000000E+00 0.  1.
         -3    1    1    2    0  502 -0.23479393432E+02  0.16493715013E+02  0.51423619554E+02  0.58887292338E+02  0.00000000000E+00 0. -1.
<mgrwt>
<rscale>  1 0.65256882E+03</rscale>
<asrwt>0</asrwt>
<pdfrwt beam="1">  1       21 0.24925500E-01 0.65256882E+03</pdfrwt>
<pdfrwt beam="2">0</pdfrwt>
<totfact> 0.14645204E+03</totfact>
</mgrwt>
</event>
<event>
 6    1  0.1347953E-004  0.8386281E+03  0.7818608E-02  0.9505728E-01
         21   -1    0    0  501  502  0.00000000000E+00  0.00000000000E+00  0.55615157268E+03  0.55615157268E+03  0.00000000000E+00 0. -1.
         13   -1    0    0    0    0 -0.00000000000E+00 -0.00000000000E+00 -0.10000000000E+04  0.10000000000E+04  0.00000000000E+00 0.  1.
    9000005    2    1    2  501    0  0.55120824858E+03 -0.16175031148E+03 -0.50422000737E+03  0.97853714744E+03  0.61098562710E+03 0.  0.
         13    1    3    3    0    0  0.44052343938E+03 -0.29912533875E+03 -0.10591782687E+03  0.54291385594E+03  0.00000000000E+00 0.  1.
          1    1    3    3  501    0  0.11068480920E+03  0.13737502727E+03 -0.39830218051E+03  0.43562329150E+03  0.00000000000E+00 0.  1.
         -3    1    1    2    0  502 -0.55120824858E+03  0.16175031148E+03  0.60371580053E+02  0.57761442524E+03  0.00000000000E+00 0. -1.
<mgrwt>
<rscale>  1 0.83862813E+03</rscale>
<asrwt>0</asrwt>
<pdfrwt beam="1">  1       21 0.85561778E-01 0.83862813E+03</pdfrwt>
<pdfrwt beam="2">0</pdfrwt>
<totfact> 0.10319695E+02</totfact>
</mgrwt>
</event>
<event>
 6    1  0.1347953E-004  0.6592406E+03  0.7818608E-02  0.9789593E-01
         21   -1    0    0  501  502  0.00000000000E+00  0.00000000000E+00  0.18397932976E+03  0.18397932976E+03  0.00000000000E+00 0.  1.
         13   -1    0    0    0    0 -0.00000000000E+00 -0.00000000000E+00 -0.10000000000E+04  0.10000000000E+04  0.00000000000E+00 0.  1.
    9000005    2    1    2  501    0 -0.65396156077E+02 -0.17891552193E+02 -0.87401464045E+03  0.10947601309E+04  0.65574491043E+03 0.  0.
         13    1    3    3    0    0  0.16220816609E+03 -0.85132806884E+02 -0.83424535151E+03  0.85412199976E+03  0.00000000000E+00 0.  1.
          3    1    3    3  501    0 -0.22760432217E+03  0.67241254690E+02 -0.39769288934E+02  0.24063813111E+03  0.00000000000E+00 0.  1.
         -3    1    1    2    0  502  0.65396156077E+02  0.17891552193E+02  0.57993970204E+02  0.89219198885E+02  0.00000000000E+00 0. -1.
<mgrwt>
<rscale>  1 0.65924059E+03</rscale>
<asrwt>0</asrwt>
<pdfrwt beam="1">  1       21 0.28304511E-01 0.65924059E+03</pdfrwt>
<pdfrwt beam="2">0</pdfrwt>
<totfact> 0.11390764E+03</totfact>
</mgrwt>
</event>
<event>
 6    1  0.1347953E-004  0.6511292E+03  0.7818608E-02  0.9804663E-01
         21   -1    0    0  501  502  0.00000000000E+00  0.00000000000E+00  0.12491352004E+03  0.12491352004E+03  0.00000000000E+00 0.  1.
         13   -1    0    0    0    0 -0.00000000000E+00 -0.00000000000E+00 -0.10000000000E+04  0.10000000000E+04  0.00000000000E+00 0.  1.
    9000005    2    1    2  501    0  0.40964029751E+02  0.17761351823E+02 -0.85802765233E+03  0.10771168575E+04  0.64959660955E+03 0.  0.
         13    1    3    3    0    0 -0.16367913799E+02 -0.30814075461E+02  0.10526543326E+03  0.11089737277E+03  0.00000000000E+00 0.  1.
          3    1    3    3  501    0  0.57331943550E+02  0.48575427284E+02 -0.96329308558E+03  0.96621948470E+03  0.00000000000E+00 0.  1.
         -1    1    1    2    0  502 -0.40964029751E+02 -0.17761351823E+02 -0.17058827635E+02  0.47796662565E+02  0.00000000000E+00 0. -1.
<mgrwt>
<rscale>  1 0.65112923E+03</rscale>
<asrwt>0</asrwt>
<pdfrwt beam="1">  1       21 0.19217464E-01 0.65112923E+03</pdfrwt>
<pdfrwt beam="2">0</pdfrwt>
<totfact> 0.24223183E+03</totfact>
</mgrwt>
</event>
<event>
 6    1  0.1347953E-004  0.6518063E+03  0.7818608E-02  0.9803396E-01
         21   -1    0    0  501  502  0.00000000000E+00  0.00000000000E+00  0.17165236187E+03  0.17165236187E+03  0.00000000000E+00 0.  1.
         13   -1    0    0    0    0 -0.00000000000E+00 -0.00000000000E+00 -0.10000000000E+04  0.10000000000E+04  0.00000000000E+00 0.  1.
    9000005    2    1    2  501    0  0.43006252999E+02  0.86994445758E+01 -0.88554477992E+03  0.10995640052E+04  0.65032778370E+03 0.  0.
         13    1    3    3    0    0  0.25048177263E+03 -0.12134653716E+03 -0.78848337451E+03  0.83616513464E+03  0.00000000000E+00 0.  1.
          1    1    3    3  501    0 -0.20747551964E+03  0.13004598174E+03 -0.97061405406E+02  0.26339887060E+03  0.00000000000E+00 0.  1.
         -3    1    1    2    0  502 -0.43006252999E+02 -0.86994445758E+01  0.57197141787E+02  0.72088356629E+02  0.00000000000E+00 0. -1.
<mgrwt>
<rscale>  1 0.65180629E+03</rscale>
<asrwt>0</asrwt>
<pdfrwt beam="1">  1       21 0.26408055E-01 0.65180629E+03</pdfrwt>
<pdfrwt beam="2">0</pdfrwt>
<totfact> 0.13073412E+03</totfact>
</mgrwt>
</event>
<event>
 6    1  0.1347953E-004  0.6486147E+03  0.7818608E-02  0.9809382E-01
         21   -1    0    0  501  502  0.00000000000E+00  0.00000000000E+00  0.11512480313E+03  0.11512480313E+03  0.00000000000E+00 0.  1.
         13   -1    0    0    0    0 -0.00000000000E+00 -0.00000000000E+00 -0.10000000000E+04  0.10000000000E+04  0.00000000000E+00 0.  1.
    9000005    2    1    2  501    0  0.15803889980E+02 -0.25426431252E+02 -0.84851707193E+03  0.10680272491E+04  0.64792338833E+03 0.  0.
         13    1    3    3    0    0 -0.65351365506E+02  0.30224950359E+03 -0.36600185606E+03  0.47914812118E+03  0.00000000000E+00 0.  1.
          1    1    3    3  501    0  0.81155255486E+02 -0.32767593484E+03 -0.48251521587E+03  0.58887912793E+03  0.00000000000E+00 0.  1.
         -3    1    1    2    0  502 -0.15803889980E+02  0.25426431252E+02 -0.36358124944E+02  0.47097554015E+02  0.00000000000E+00 0. -1.
<mgrwt>
<rscale>  1 0.64861466E+03</rscale>
<asrwt>0</asrwt>
<pdfrwt beam="1">  1       21 0.17711508E-01 0.64861466E+03</pdfrwt>
<pdfrwt beam="2">0</pdfrwt>
<totfact> 0.28293449E+03</totfact>
</mgrwt>
</event>
<event>
 6    1  0.1347953E-004  0.8196222E+03  0.7818608E-02  0.9532041E-01
         21   -1    0    0  501  502  0.00000000000E+00  0.00000000000E+00  0.78604808525E+03  0.78604808525E+03  0.00000000000E+00 0. -1.
         13   -1    0    0    0    0 -0.00000000000E+00 -0.00000000000E+00 -0.10000000000E+04  0.10000000000E+04  0.00000000000E+00 0.  1.
    9000005    2    1    2  501    0 -0.15726265526E+03 -0.48627906230E+03 -0.70215932573E+03  0.10792628666E+04  0.64076653108E+03 0.  0.
         13    1    3    3    0    0 -0.19849937966E+03 -0.35517514175E+03 -0.80875248266E+03  0.90533527670E+03  0.00000000000E+00 0.  1.
          3    1    3    3  501    0  0.41236724399E+02 -0.13110392055E+03  0.10659315693E+03  0.17392758990E+03  0.00000000000E+00 0.  1.
         -1    1    1    2    0  502  0.15726265526E+03  0.48627906230E+03  0.48820741097E+03  0.70678521864E+03  0.00000000000E+00 0. -1.
<mgrwt>
<rscale>  1 0.81962224E+03</rscale>
<asrwt>0</asrwt>
<pdfrwt beam="1">  1       21 0.12093047E+00 0.81962224E+03</pdfrwt>
<pdfrwt beam="2">0</pdfrwt>
<totfact> 0.43896503E+01</totfact>
</mgrwt>
</event>
<event>
 6    1  0.1347953E-004  0.6631761E+03  0.7818608E-02  0.9782365E-01
         21   -1    0    0  501  502  0.00000000000E+00  0.00000000000E+00  0.15363955625E+03  0.15363955625E+03  0.00000000000E+00 0.  1.
         13   -1    0    0    0    0 -0.00000000000E+00 -0.00000000000E+00 -0.10000000000E+04  0.10000000000E+04  0.00000000000E+00 0.  1.
    9000005    2    1    2  501    0 -0.18823169320E+02  0.33716801687E+02 -0.88035550242E+03  0.11021925113E+04  0.66205089452E+03 0.  0.
         13    1    3    3    0    0  0.22538178900E+03 -0.17444066606E+03 -0.19467873167E+03  0.34514678813E+03  0.00000000000E+00 0.  1.
          3    1    3    3  501    0 -0.24420495832E+03  0.20815746775E+03 -0.68567677074E+03  0.75704572318E+03  0.00000000000E+00 0.  1.
         -3    1    1    2    0  502  0.18823169320E+02 -0.33716801687E+02  0.33995058671E+02  0.51447044943E+02  0.00000000000E+00 0. -1.
<mgrwt>
<rscale>  1 0.66317609E+03</rscale>
<asrwt>0</asrwt>
<pdfrwt beam="1">  1       21 0.23636854E-01 0.66317609E+03</pdfrwt>
<pdfrwt beam="2">0</pdfrwt>
<totfact> 0.16237943E+03</totfact>
</mgrwt>
</event>
<event>
 6    1  0.1347953E-004  0.6919415E+03  0.7818608E-02  0.9731113E-01
         21   -1    0    0  501  502  0.00000000000E+00  0.00000000000E+00  0.22790428753E+03  0.22790428753E+03  0.00000000000E+00 0.  1.
         13   -1    0    0    0    0 -0.00000000000E+00 -0.00000000000E+00 -0.10000000000E+04  0.10000000000E+04  0.00000000000E+00 0.  1.
    9000005    2    1    2  501    0 -0.52727830811E+02 -0.23984117903E+03 -0.46048749140E+03  0.83116293762E+03  0.64689959331E+03 0.  0.
         13    1    3    3    0    0  0.23652815304E+02  0.22025509803E+03 -0.10736383373E+03  0.24616814715E+03  0.00000000000E+00 0.  1.
          1    1    3    3  501    0 -0.76380646115E+02 -0.46009627706E+03 -0.35312365767E+03  0.58499479046E+03  0.00000000000E+00 0.  1.
         -3    1    1    2    0  502  0.52727830811E+02  0.23984117903E+03 -0.31160822106E+03  0.39674134992E+03  0.00000000000E+00 0. -1.
<mgrwt>
<rscale>  1 0.69194154E+03</rscale>
<asrwt>0</asrwt>
<pdfrwt beam="1">  1       21 0.35062197E-01 0.69194154E+03</pdfrwt>
<pdfrwt beam="2">0</pdfrwt>
<totfact> 0.73837546E+02</totfact>
</mgrwt>
</event>
<event>
 6    1  0.1347953E-004  0.6405087E+03  0.7818608E-02  0.9824754E-01
         21   -1    0    0  501  502  0.00000000000E+00  0.00000000000E+00  0.13180759167E+03  0.13180759167E+03  0.00000000000E+00 0.  1.
         13   -1    0    0    0    0 -0.00000000000E+00 -0.00000000000E+00 -0.10000000000E+04  0.10000000000E+04  0.00000000000E+00 0.  1.
    9000005    2    1    2  501    0 -0.19842174027E+02  0.18257629974E+02 -0.89042297076E+03  0.10968611923E+04  0.63994089995E+03 0.  0.
         13    1    3    3    0    0 -0.21081746181E+03 -0.20211705463E+03 -0.21961980969E+03  0.36541506097E+03  0.00000000000E+00 0.  1.
          1    1    3    3  501    0  0.19097528778E+03  0.22037468461E+03 -0.67080316106E+03  0.73144613134E+03  0.00000000000E+00 0.  1.
         -3    1    1    2    0  502  0.19842174027E+02 -0.18257629974E+02  0.22230562430E+02  0.34946399361E+02  0.00000000000E+00 0. -1.
<mgrwt>
<rscale>  1 0.64050871E+03</rscale>
<asrwt>0</asrwt>
<pdfrwt beam="1">  1       21 0.20278090E-01 0.64050871E+03</pdfrwt>
<pdfrwt beam="2">0</pdfrwt>
<totfact> 0.21864035E+03</totfact>
</mgrwt>
</event>
<event>
 6    1  0.1347953E-004  0.6773505E+03  0.7818608E-02  0.9756769E-01
         21   -1    0    0  501  502  0.00000000000E+00  0.00000000000E+00  0.20124603286E+03  0.20124603286E+03  0.00000000000E+00 0.  1.
         13   -1    0    0    0    0 -0.00000000000E+00 -0.00000000000E+00 -0.10000000000E+04  0.10000000000E+04  0.00000000000E+00 0.  1.
    9000005    2    1    2  501    0  0.15630533105E+03 -0.15411380783E+03 -0.61759872651E+03  0.91664166978E+03  0.64079742627E+03 0.  0.
         13    1    3    3    0    0  0.19140032965E+03 -0.13552184055E+03  0.56615826907E+02  0.24125838289E+03  0.00000000000E+00 0.  1.
          1    1    3    3  501    0 -0.35094998604E+02 -0.18591967281E+02 -0.67421455342E+03  0.67538328690E+03  0.00000000000E+00 0.  1.
         -3    1    1    2    0  502 -0.15630533105E+03  0.15411380783E+03 -0.18115524062E+03  0.28460436308E+03  0.00000000000E+00 0. -1.
<mgrwt>
<rscale>  1 0.67735055E+03</rscale>
<asrwt>0</asrwt>
<pdfrwt beam="1">  1       21 0.30960927E-01 0.67735055E+03</pdfrwt>
<pdfrwt beam="2">0</pdfrwt>
<totfact> 0.95095716E+02</totfact>
</mgrwt>
</event>
<event>
 6    1  0.1347953E-004  0.6514493E+03  0.7818608E-02  0.9804063E-01
         21   -1    0    0  501  502  0.00000000000E+00  0.00000000000E+00  0.17796618278E+03  0.17796618278E+03  0.00000000000E+00 0. -1.
         13   -1    0    0    0    0 -0.00000000000E+00 -0.00000000000E+00 -0.10000000000E+04  0.10000000000E+04  0.00000000000E+00 0.  1.
    9000005    2    1    2  501    0 -0.20218496704E+02 -0.10772819825E+02 -0.89187824956E+03  0.11044604960E+04  0.65104633783E+03 0.  0.
         13    1    3    3    0    0  0.93668614084E+02 -0.17733770243E+03 -0.87974809126E+03  0.90231877629E+03  0.00000000000E+00 0.  1.
          3    1    3    3  501    0 -0.11388711079E+03  0.16656488261E+03 -0.12130158298E+02  0.20214171974E+03  0.00000000000E+00 0.  1.
         -1    1    1    2    0  502  0.20218496704E+02  0.10772819825E+02  0.69844432334E+02  0.73505686747E+02  0.00000000000E+00 0. -1.
<mgrwt>
<rscale>  1 0.65144929E+03</rscale>
<asrwt>0</asrwt>
<pdfrwt beam="1">  1       21 0.27379412E-01 0.65144929E+03</pdfrwt>
<pdfrwt beam="2">0</pdfrwt>
<totfact> 0.12173064E+03</totfact>
</mgrwt>
</event>
<event>
 6    1  0.1347953E-004  0.6692165E+03  0.7818608E-02  0.9771374E-01
         21   -1    0    0  501  502  0.00000000000E+00  0.00000000000E+00  0.18978482581E+03  0.18978482581E+03  0.00000000000E+00 0.  1.
         13   -1    0    0    0    0 -0.00000000000E+00 -0.00000000000E+00 -0.10000000000E+04  0.10000000000E+04  0.00000000000E+00 0.  1.
    9000005    2    1    2  501    0 -0.14543514147E+03  0.15812357539E+02 -0.80019419838E+03  0.10431497994E+04  0.65303088577E+03 0.  0.
         13    1    3    3    0    0  0.15772479831E+03  0.20184011532E+03 -0.13674870080E+03  0.29037346870E+03  0.00000000000E+00 0.  1.
          3    1    3    3  501    0 -0.30315993978E+03 -0.18602775778E+03 -0.66344549757E+03  0.75277633066E+03  0.00000000000E+00 0.  1.
         -3    1    1    2    0  502  0.14543514147E+03 -0.15812357539E+02 -0.10020975816E+02  0.14663502644E+03  0.00000000000E+00 0. -1.
<mgrwt>
<rscale>  1 0.66921652E+03</rscale>
<asrwt>0</asrwt>
<pdfrwt beam="1">  1       21 0.29197665E-01 0.66921652E+03</pdfrwt>
<pdfrwt beam="2">0</pdfrwt>
<totfact> 0.10700541E+03</totfact>
</mgrwt>
</event>
<event>
 6    1  0.1347953E-004  0.6176832E+03  0.7818608E-02  0.9869383E-01
         21   -1    0    0  501  502  0.00000000000E+00  0.00000000000E+00  0.22450145768E+03  0.22450145768E+03  0.00000000000E+00 0. -1.
         13   -1    0    0    0    0 -0.00000000000E+00 -0.00000000000E+00 -0.10000000000E+04  0.10000000000E+04  0.00000000000E+00 0.  1.
    9000005    2    1    2  501    0 -0.21355853372E+01 -0.31920934318E+02 -0.90244255380E+03  0.10935881703E+04  0.61685412900E+03 0.  0.
         13    1    3    3    0    0 -0.65043906227E+02 -0.29557115355E+03 -0.27026874180E+03  0.40575634233E+03  0.00000000000E+00 0.  1.
          1    1    3    3  501    0  0.62908320889E+02  0.26365021923E+03 -0.63217381200E+03  0.68783182793E+03  0.00000000000E+00 0.  1.
         -1    1    1    2    0  502  0.21355853372E+01  0.31920934318E+02  0.12694401148E+03  0.13091328742E+03  0.00000000000E+00 0. -1.
<mgrwt>
<rscale>  1 0.61768319E+03</rscale>
<asrwt>0</asrwt>
<pdfrwt beam="1">  1       21 0.34538685E-01 0.61768319E+03</pdfrwt>
<pdfrwt beam="2">0</pdfrwt>
<totfact> 0.76542280E+02</totfact>
</mgrwt>
</event>
<event>
 6    1  0.1347953E-004  0.7267714E+03  0.7818608E-02  0.9672514E-01
         21   -1    0    0  501  502  0.00000000000E+00  0.00000000000E+00  0.21170912087E+03  0.21170912087E+03  0.00000000000E+00 0.  1.
         13   -1    0    0    0    0 -0.00000000000E+00 -0.00000000000E+00 -0.10000000000E+04  0.10000000000E+04  0.00000000000E+00 0.  1.
    9000005    2    1    2  501    0 -0.14840169563E+03  0.77412050608E+02 -0.74067783786E+03  0.10376898962E+04  0.70723473641E+03 0.  0.
         13    1    3    3    0    0  0.19868235342E+03  0.25112999500E+03 -0.22104417747E+03  0.38910343143E+03  0.00000000000E+00 0.  1.
          1    1    3    3  501    0 -0.34708404906E+03 -0.17371794440E+03 -0.51963366038E+03  0.64858646480E+03  0.00000000000E+00 0.  1.
         -3    1    1    2    0  502  0.14840169563E+03 -0.77412050608E+02 -0.47613041275E+02  0.17401922464E+03  0.00000000000E+00 0. -1.
<mgrwt>
<rscale>  1 0.72677140E+03</rscale>
<asrwt>0</asrwt>
<pdfrwt beam="1">  1       21 0.32570633E-01 0.72677140E+03</pdfrwt>
<pdfrwt beam="2">0</pdfrwt>
<totfact> 0.85587491E+02</totfact>
</mgrwt>
</event>
<event>
 6    1  0.1347953E-004  0.6363458E+03  0.7818608E-02  0.9832743E-01
         21   -1    0    0  501  502  0.00000000000E+00  0.00000000000E+00  0.12644287681E+03  0.12644287681E+03  0.00000000000E+00 0.  1.
         13   -1    0    0    0    0 -0.00000000000E+00 -0.00000000000E+00 -0.10000000000E+04  0.10000000000E+04  0.00000000000E+00 0.  1.
    9000005    2    1    2  501    0  0.80292680600E+01  0.45675374882E+02 -0.87269219113E+03  0.10800590744E+04  0.63465363371E+03 0.  0.
         13    1    3    3    0    0 -0.26224254102E+03  0.19568583956E+03 -0.45378568545E+03  0.55945111176E+03  0.00000000000E+00 0.  1.
          1    1    3    3  501    0  0.27027180908E+03 -0.15001046468E+03 -0.41890650567E+03  0.52060796267E+03  0.00000000000E+00 0.  1.
         -3    1    1    2    0  502 -0.80292680600E+01 -0.45675374882E+02 -0.86493206333E+00  0.46383802385E+02  0.00000000000E+00 0. -1.
<mgrwt>
<rscale>  1 0.63634577E+03</rscale>
<asrwt>0</asrwt>
<pdfrwt beam="1">  1       21 0.19452750E-01 0.63634577E+03</pdfrwt>
<pdfrwt beam="2">0</pdfrwt>
<totfact> 0.23679493E+03</totfact>
</mgrwt>
</event>
<event>
 6    1  0.1347953E-004  0.6471247E+03  0.7818608E-02  0.9812190E-01
         21   -1    0    0  501  502  0.00000000000E+00  0.00000000000E+00  0.13756191789E+03  0.13756191789E+03  0.00000000000E+00 0.  1.
         13   -1    0    0    0    0 -0.00000000000E+00 -0.00000000000E+00 -0.10000000000E+04  0.10000000000E+04  0.00000000000E+00 0.  1.
    9000005    2    1    2  501    0  0.31978361127E+02 -0.29206749102E+02 -0.87872106674E+03  0.10912932961E+04  0.64567383037E+03 0.  0.
         13    1    3    3    0    0 -0.99836506278E+02  0.24034792023E+03 -0.68843055027E+03  0.73598306590E+03  0.00000000000E+00 0.  1.
          1    1    3    3  501    0  0.13181486741E+03 -0.26955466934E+03 -0.19029051647E+03  0.35531023020E+03  0.00000000000E+00 0.  1.
         -1    1    1    2    0  502 -0.31978361127E+02  0.29206749102E+02  0.16282984629E+02  0.46268621785E+02  0.00000000000E+00 0. -1.
<mgrwt>
<rscale>  1 0.64712467E+03</rscale>
<asrwt>0</asrwt>
<pdfrwt beam="1">  1       21 0.21163371E-01 0.64712467E+03</pdfrwt>
<pdfrwt beam="2">0</pdfrwt>
<totfact> 0.20133161E+03</totfact>
</mgrwt>
</event>
<event>
 6    1  0.1347953E-004  0.6653466E+03  0.7818608E-02  0.9778401E-01
         21   -1    0    0  501  502  0.00000000000E+00  0.00000000000E+00  0.45984957557E+03  0.45984957557E+03  0.00000000000E+00 0. -1.
         13   -1    0    0    0    0 -0.00000000000E+00 -0.00000000000E+00 -0.10000000000E+04  0.10000000000E+04  0.00000000000E+00 0.  1.
    9000005    2    1    2  501    0  0.18313024502E+02 -0.93464359748E+02 -0.88209549003E+03  0.11048884773E+04  0.65849460155E+03 0.  0.
         13    1    3    3    0    0 -0.27790473436E+03  0.35322556971E+02 -0.64803933572E+03  0.70599837468E+03  0.00000000000E+00 0.  1.
          1    1    3    3  501    0  0.29621775886E+03 -0.12878691672E+03 -0.23405615432E+03  0.39889010260E+03  0.00000000000E+00 0.  1.
         -1    1    1    2    0  502 -0.18313024502E+02  0.93464359748E+02  0.34194506560E+03  0.35496109829E+03  0.00000000000E+00 0. -1.
<mgrwt>
<rscale>  1 0.66534660E+03</rscale>
<asrwt>0</asrwt>
<pdfrwt beam="1">  1       21 0.70746087E-01 0.66534660E+03</pdfrwt>
<pdfrwt beam="2">0</pdfrwt>
<totfact> 0.16367692E+02</totfact>
</mgrwt>
</event>
<event>
 6    1  0.1347953E-004  0.6562852E+03  0.7818608E-02  0.9795056E-01
         21   -1    0    0  501  502  0.00000000000E+00  0.00000000000E+00  0.46989294280E+03  0.46989294280E+03  0.00000000000E+00 0. -1.
         13   -1    0    0    0    0 -0.00000000000E+00 -0.00000000000E+00 -0.10000000000E+04  0.10000000000E+04  0.00000000000E+00 0.  1.
    9000005    2    1    2  501    0  0.96640895301E+02  0.19597922435E+02 -0.88486873782E+03  0.11016818739E+04  0.64883489962E+03 0.  0.
         13    1    3    3    0    0  0.10248194429E+03 -0.11746490901E+03  0.44601904338E+02  0.16214155428E+03  0.00000000000E+00 0.  1.
          3    1    3    3  501    0 -0.58410489887E+01  0.13706283144E+03 -0.92947064215E+03  0.93954031965E+03  0.00000000000E+00 0.  1.
         -1    1    1    2    0  502 -0.96640895301E+02 -0.19597922435E+02  0.35476168061E+03  0.36821106887E+03  0.00000000000E+00 0. -1.
<mgrwt>
<rscale>  1 0.65628520E+03</rscale>
<asrwt>0</asrwt>
<pdfrwt beam="1">  1       21 0.72291220E-01 0.65628520E+03</pdfrwt>
<pdfrwt beam="2">0</pdfrwt>
<totfact> 0.15597637E+02</totfact>
</mgrwt>
</event>
<event>
 6    1  0.1347953E-004  0.6522880E+03  0.7818608E-02  0.9802495E-01
         21   -1    0    0  501  502  0.00000000000E+00  0.00000000000E+00  0.26258440194E+03  0.26258440194E+03  0.00000000000E+00 0. -1.
         13   -1    0    0    0    0 -0.00000000000E+00 -0.00000000000E+00 -0.10000000000E+04  0.10000000000E+04  0.00000000000E+00 0.  1.
    9000005    2    1    2  501    0 -0.71197287157E+02 -0.58082130179E+01 -0.88453666324E+03  0.10990380878E+04  0.64836472827E+03 0.  0.
         13    1    3    3    0    0  0.14598306641E+03 -0.26822797682E+03 -0.34267636862E+03  0.45900370024E+03  0.00000000000E+00 0.  1.
          1    1    3    3  501    0 -0.21718035357E+03  0.26241976380E+03 -0.54186029462E+03  0.64003438759E+03  0.00000000000E+00 0.  1.
         -1    1    1    2    0  502  0.71197287157E+02  0.58082130179E+01  0.14712106518E+03  0.16354631410E+03  0.00000000000E+00 0. -1.
<mgrwt>
<rscale>  1 0.65228798E+03</rscale>
<asrwt>0</asrwt>
<pdfrwt beam="1">  1       21 0.40397599E-01 0.65228798E+03</pdfrwt>
<pdfrwt beam="2">0</pdfrwt>
<totfact> 0.55316420E+02</totfact>
</mgrwt>
</event>
<event>
 6    1  0.1347953E-004  0.6569199E+03  0.7818608E-02  0.9793880E-01
         21   -1    0    0  501  502  0.00000000000E+00  0.00000000000E+00  0.16469128711E+03  0.16469128711E+03  0.00000000000E+00 0.  1.
         13   -1    0    0    0    0 -0.00000000000E+00 -0.00000000000E+00 -0.10000000000E+04  0.10000000000E+04  0.00000000000E+00 0.  1.
    9000005    2    1    2  501    0 -0.10548000836E+02 -0.29690535649E+02 -0.88723029691E+03  0.11039571195E+04  0.65616380097E+03 0.  0.
         13    1    3    3    0    0  0.18832624288E+03 -0.81538898146E+02 -0.12712259798E+02  0.20561363578E+03  0.00000000000E+00 0.  1.
          1    1    3    3  501    0 -0.19887424372E+03  0.51848362496E+02 -0.87451803711E+03  0.89834348372E+03  0.00000000000E+00 0.  1.
         -3    1    1    2    0  502  0.10548000836E+02  0.29690535649E+02  0.51921584015E+02  0.60734167611E+02  0.00000000000E+00 0. -1.
<mgrwt>
<rscale>  1 0.65691987E+03</rscale>
<asrwt>0</asrwt>
<pdfrwt beam="1">  1       21 0.25337120E-01 0.65691987E+03</pdfrwt>
<pdfrwt beam="2">0</pdfrwt>
<totfact> 0.14178941E+03</totfact>
</mgrwt>
</event>
<event>
 6    1  0.1347953E-004  0.6945987E+03  0.7818608E-02  0.9726514E-01
         21   -1    0    0  501  502  0.00000000000E+00  0.00000000000E+00  0.19904071665E+03  0.19904071665E+03  0.00000000000E+00 0.  1.
         13   -1    0    0    0    0 -0.00000000000E+00 -0.00000000000E+00 -0.10000000000E+04  0.10000000000E+04  0.00000000000E+00 0.  1.
    9000005    2    1    2  501    0  0.10555286058E+03 -0.16594297046E+03 -0.64740356985E+03  0.94952552078E+03  0.66617479428E+03 0.  0.
         13    1    3    3    0    0  0.12702205589E+03 -0.41077139266E+03 -0.51318076335E+03  0.66949401460E+03  0.00000000000E+00 0.  1.
          3    1    3    3  501    0 -0.21469195311E+02  0.24482842220E+03 -0.13422280650E+03  0.28003150617E+03  0.00000000000E+00 0.  1.
         -3    1    1    2    0  502 -0.10555286058E+03  0.16594297046E+03 -0.15355571350E+03  0.24951519587E+03  0.00000000000E+00 0. -1.
<mgrwt>
<rscale>  1 0.69459868E+03</rscale>
<asrwt>0</asrwt>
<pdfrwt beam="1">  1       21 0.30621648E-01 0.69459868E+03</pdfrwt>
<pdfrwt beam="2">0</pdfrwt>
<totfact> 0.97122740E+02</totfact>
</mgrwt>
</event>
<event>
 6    1  0.1347953E-004  0.6504960E+03  0.7818608E-02  0.9805849E-01
         21   -1    0    0  501  502  0.00000000000E+00  0.00000000000E+00  0.18685230391E+03  0.18685230391E+03  0.00000000000E+00 0.  1.
         13   -1    0    0    0    0 -0.00000000000E+00 -0.00000000000E+00 -0.10000000000E+04  0.10000000000E+04  0.00000000000E+00 0.  1.
    9000005    2    1    2  501    0  0.21880125383E+02  0.18205992719E+01 -0.89256643122E+03  0.11044545493E+04  0.65012534403E+03 0.  0.
         13    1    3    3    0    0  0.17363512055E+03  0.22530211229E+03 -0.16610868828E+03  0.32939686278E+03  0.00000000000E+00 0.  1.
          1    1    3    3  501    0 -0.15175499517E+03 -0.22348151302E+03 -0.72645774294E+03  0.77505768656E+03  0.00000000000E+00 0.  1.
         -1    1    1    2    0  502 -0.21880125383E+02 -0.18205992719E+01  0.79418735126E+02  0.82397754565E+02  0.00000000000E+00 0. -1.
<mgrwt>
<rscale>  1 0.65049598E+03</rscale>
<asrwt>0</asrwt>
<pdfrwt beam="1">  1       21 0.28746507E-01 0.65049598E+03</pdfrwt>
<pdfrwt beam="2">0</pdfrwt>
<totfact> 0.11050510E+03</totfact>
</mgrwt>
</event>
<event>
 6    1  0.1347953E-004  0.6917999E+03  0.7818608E-02  0.9731359E-01
         21   -1    0    0  501  502  0.00000000000E+00  0.00000000000E+00  0.10302632961E+04  0.10302632961E+04  0.00000000000E+00 0. -1.
         13   -1    0    0    0    0 -0.00000000000E+00 -0.00000000000E+00 -0.10000000000E+04  0.10000000000E+04  0.00000000000E+00 0.  1.
    9000005    2    1    2  501    0  0.23334378942E+03  0.19396508281E+02 -0.86343895611E+03  0.11063968208E+04  0.65096969632E+03 0.  0.
         13    1    3    3    0    0  0.41320552451E+03  0.13712533420E+03 -0.73983756989E+03  0.85842984138E+03  0.00000000000E+00 0.  1.
          3    1    3    3  501    0 -0.17986173509E+03 -0.11772882591E+03 -0.12360138622E+03  0.24796697940E+03  0.00000000000E+00 0.  1.
         -3    1    1    2    0  502 -0.23334378942E+03 -0.19396508281E+02  0.89370225221E+03  0.92386647531E+03  0.00000000000E+00 0. -1.
<mgrwt>
<rscale>  1 0.69179989E+03</rscale>
<asrwt>0</asrwt>
<pdfrwt beam="1">  1       21 0.15850204E+00 0.69179989E+03</pdfrwt>
<pdfrwt beam="2">0</pdfrwt>
<totfact> 0.21612408E+01</totfact>
</mgrwt>
</event>
<event>
 6    1  0.1347953E-004  0.6452331E+03  0.7818608E-02  0.9815765E-01
         21   -1    0    0  501  502  0.00000000000E+00  0.00000000000E+00  0.14359809649E+03  0.14359809649E+03  0.00000000000E+00 0.  1.
         13   -1    0    0    0    0 -0.00000000000E+00 -0.00000000000E+00 -0.10000000000E+04  0.10000000000E+04  0.00000000000E+00 0.  1.
    9000005    2    1    2  501    0 -0.35025722357E+02 -0.82420903530E+01 -0.88666177062E+03  0.10965832814E+04  0.64422904644E+03 0.  0.
         13    1    3    3    0    0 -0.45294451171E+02  0.38985986224E+02 -0.98510472806E+03  0.98691581185E+03  0.00000000000E+00 0.  1.
          3    1    3    3  501    0  0.10268728814E+02 -0.47228076577E+02  0.98442957437E+02  0.10966746955E+03  0.00000000000E+00 0.  1.
         -3    1    1    2    0  502  0.35025722357E+02  0.82420903530E+01  0.30259867111E+02  0.47014815086E+02  0.00000000000E+00 0. -1.
<mgrwt>
<rscale>  1 0.64523313E+03</rscale>
<asrwt>0</asrwt>
<pdfrwt beam="1">  1       21 0.22092014E-01 0.64523313E+03</pdfrwt>
<pdfrwt beam="2">0</pdfrwt>
<totfact> 0.18531922E+03</totfact>
</mgrwt>
</event>
<event>
 6    1  0.1347953E-004  0.6529346E+03  0.7818608E-02  0.9801288E-01
         21   -1    0    0  501  502  0.00000000000E+00  0.00000000000E+00  0.21314147138E+03  0.21314147138E+03  0.00000000000E+00 0. -1.
         13   -1    0    0    0    0 -0.00000000000E+00 -0.00000000000E+00 -0.10000000000E+04  0.10000000000E+04  0.00000000000E+00 0.  1.
    9000005    2    1    2  501    0  0.16866355383E+02 -0.51037303025E+02 -0.88586123984E+03  0.11004879447E+04  0.65071829539E+03 0.  0.
         13    1    3    3    0    0  0.24219411175E+03  0.13662413858E+03 -0.16760473790E+03  0.32467751874E+03  0.00000000000E+00 0.  1.
          3    1    3    3  501    0 -0.22532775637E+03 -0.18766144160E+03 -0.71825650194E+03  0.77581042596E+03  0.00000000000E+00 0.  1.
         -1    1    1    2    0  502 -0.16866355383E+02  0.51037303025E+02  0.99002711219E+02  0.11265352668E+03  0.00000000000E+00 0. -1.
<mgrwt>
<rscale>  1 0.65293459E+03</rscale>
<asrwt>0</asrwt>
<pdfrwt beam="1">  1       21 0.32790995E-01 0.65293459E+03</pdfrwt>
<pdfrwt beam="2">0</pdfrwt>
<totfact> 0.84829668E+02</totfact>
</mgrwt>
</event>
<event>
 6    1  0.1347953E-004  0.6414171E+03  0.7818608E-02  0.9823019E-01
         21   -1    0    0  501  502  0.00000000000E+00  0.00000000000E+00  0.29324410292E+03  0.29324410292E+03  0.00000000000E+00 0. -1.
         13   -1    0    0    0    0 -0.00000000000E+00 -0.00000000000E+00 -0.10000000000E+04  0.10000000000E+04  0.00000000000E+00 0.  1.
    9000005    2    1    2  501    0  0.32574353124E+02 -0.12159681400E+02 -0.89539352409E+03  0.11014288255E+04  0.64047400283E+03 0.  0.
         13    1    3    3    0    0 -0.71555697483E+02 -0.31089152415E+03 -0.52491469885E+03  0.61425499485E+03  0.00000000000E+00 0.  1.
          1    1    3    3  501    0  0.10413005061E+03  0.29873184275E+03 -0.37047882524E+03  0.48717383064E+03  0.00000000000E+00 0.  1.
         -3    1    1    2    0  502 -0.32574353124E+02  0.12159681400E+02  0.18863762700E+03  0.19181527743E+03  0.00000000000E+00 0. -1.
<mgrwt>
<rscale>  1 0.64141710E+03</rscale>
<asrwt>0</asrwt>
<pdfrwt beam="1">  1       21 0.45114476E-01 0.64141710E+03</pdfrwt>
<pdfrwt beam="2">0</pdfrwt>
<totfact> 0.43930508E+02</totfact>
</mgrwt>
</event>
<event>
 6    1  0.1347953E-004  0.6397855E+03  0.7818608E-02  0.9826137E-01
         21   -1    0    0  501  502  0.00000000000E+00  0.00000000000E+00  0.18973369574E+03  0.18973369574E+03  0.00000000000E+00 0.  1.
         13   -1    0    0    0    0 -0.00000000000E+00 -0.00000000000E+00 -0.10000000000E+04  0.10000000000E+04  0.00000000000E+00 0.  1.
    9000005    2    1    2  501    0  0.57236334093E+02  0.19164451678E+02 -0.88602447106E+03  0.10928700081E+04  0.63693187792E+03 0.  0.
         13    1    3    3    0    0  0.11285325015E+03 -0.23618813121E+03 -0.12864153112E+03  0.29166647548E+03  0.00000000000E+00 0.  1.
          3    1    3    3  501    0 -0.55616916054E+02  0.25535258289E+03 -0.75738293994E+03  0.80120353260E+03  0.00000000000E+00 0.  1.
         -3    1    1    2    0  502 -0.57236334093E+02 -0.19164451678E+02  0.75758166799E+02  0.96863687650E+02  0.00000000000E+00 0. -1.
<mgrwt>
<rscale>  1 0.63978550E+03</rscale>
<asrwt>0</asrwt>
<pdfrwt beam="1">  1       21 0.29189799E-01 0.63978550E+03</pdfrwt>
<pdfrwt beam="2">0</pdfrwt>
<totfact> 0.10725507E+03</totfact>
</mgrwt>
</event>
<event>
 6    1  0.1347953E-004  0.6476291E+03  0.7818608E-02  0.9811238E-01
         21   -1    0    0  501  502  0.00000000000E+00  0.00000000000E+00  0.12420987509E+03  0.12420987509E+03  0.00000000000E+00 0.  1.
         13   -1    0    0    0    0 -0.00000000000E+00 -0.00000000000E+00 -0.10000000000E+04  0.10000000000E+04  0.00000000000E+00 0.  1.
    9000005    2    1    2  501    0  0.48414614328E+02 -0.18170963345E+02 -0.84272349046E+03  0.10628294132E+04  0.64556124526E+03 0.  0.
         13    1    3    3    0    0 -0.14710100104E+03 -0.26186113825E+03 -0.58587422710E+03  0.65837570597E+03  0.00000000000E+00 0.  1.
          3    1    3    3  501    0  0.19551561536E+03  0.24369017491E+03 -0.25684926335E+03  0.40445370722E+03  0.00000000000E+00 0.  1.
         -3    1    1    2    0  502 -0.48414614328E+02  0.18170963345E+02 -0.33066634451E+02  0.61380461902E+02  0.00000000000E+00 0. -1.
<mgrwt>
<rscale>  1 0.64762912E+03</rscale>
<asrwt>0</asrwt>
<pdfrwt beam="1">  1       21 0.19109211E-01 0.64762912E+03</pdfrwt>
<pdfrwt beam="2">0</pdfrwt>
<totfact> 0.24489100E+03</totfact>
</mgrwt>
</event>
<event>
 6    1  0.1347953E-004  0.6476835E+03  0.7818608E-02  0.9811136E-01
         21   -1    0    0  501  502  0.00000000000E+00  0.00000000000E+00  0.21792359141E+03  0.21792359141E+03  0.00000000000E+00 0. -1.
         13   -1    0    0    0    0 -0.00000000000E+00 -0.00000000000E+00 -0.10000000000E+04  0.10000000000E+04  0.00000000000E+00 0.  1.
    9000005    2    1    2  501    0  0.23910678956E+02  0.15701775981E+02 -0.89312350206E+03  0.11032513484E+04  0.64705152931E+03 0.  0.
         13    1    3    3    0    0 -0.53292859794E+02  0.13456692220E+03 -0.94220510831E+03  0.95325697038E+03  0.00000000000E+00 0.  1.
          3    1    3    3  501    0  0.77203538750E+02 -0.11886514622E+03  0.49081606245E+02  0.14999437807E+03  0.00000000000E+00 0.  1.
         -1    1    1    2    0  502 -0.23910678956E+02 -0.15701775981E+02  0.11104709347E+03  0.11467224296E+03  0.00000000000E+00 0. -1.
<mgrwt>
<rscale>  1 0.64768352E+03</rscale>
<asrwt>0</asrwt>
<pdfrwt beam="1">  1       21 0.33526705E-01 0.64768352E+03</pdfrwt>
<pdfrwt beam="2">0</pdfrwt>
<totfact> 0.81130745E+02</totfact>
</mgrwt>
</event>
<event>
 6    1  0.1347953E-004  0.6492320E+03  0.7818608E-02  0.9808221E-01
         21   -1    0    0  501  502  0.00000000000E+00  0.00000000000E+00  0.44823185200E+03  0.44823185200E+03  0.00000000000E+00 0. -1.
         13   -1    0    0    0    0 -0.00000000000E+00 -0.00000000000E+00 -0.10000000000E+04  0.10000000000E+04  0.00000000000E+00 0.  1.
    9000005    2    1    2  501    0 -0.15110476215E+00 -0.32605740757E+02 -0.89376729078E+03  0.11046818981E+04  0.64841265314E+03 0.  0.
         13    1    3    3    0    0  0.89785507549E+02 -0.24643604616E+03 -0.10501502173E+03  0.28252489625E+03  0.00000000000E+00 0.  1.
          1    1    3    3  501    0 -0.89936612311E+02  0.21383030541E+03 -0.78875226905E+03  0.82215700184E+03  0.00000000000E+00 0.  1.
         -3    1    1    2    0  502  0.15110476215E+00  0.32605740757E+02  0.34199914278E+03  0.34354995390E+03  0.00000000000E+00 0. -1.
<mgrwt>
<rscale>  1 0.64923195E+03</rscale>
<asrwt>0</asrwt>
<pdfrwt beam="1">  1       21 0.68958744E-01 0.64923195E+03</pdfrwt>
<pdfrwt beam="2">0</pdfrwt>
<totfact> 0.17379829E+02</totfact>
</mgrwt>
</event>
<event>
 6    1  0.1347953E-004  0.8003768E+03  0.7818608E-02  0.9559472E-01
         21   -1    0    0  501  502  0.00000000000E+00  0.00000000000E+00  0.41520715259E+03  0.41520715259E+03  0.00000000000E+00 0.  1.
         13   -1    0    0    0    0 -0.00000000000E+00 -0.00000000000E+00 -0.10000000000E+04  0.10000000000E+04  0.00000000000E+00 0.  1.
    9000005    2    1    2  501    0  0.70633594355E+01  0.19982024073E+02 -0.83933827973E+03  0.11597809412E+04  0.80009618890E+03 0.  0.
         13    1    3    3    0    0  0.32361623614E+03  0.89550294892E+02 -0.75284457828E+03  0.82433105161E+03  0.00000000000E+00 0.  1.
          3    1    3    3  501    0 -0.31655287670E+03 -0.69568270819E+02 -0.86493701453E+02  0.33544988962E+03  0.00000000000E+00 0.  1.
         -1    1    1    2    0  502 -0.70633594355E+01 -0.19982024073E+02  0.25454543232E+03  0.25542621136E+03  0.00000000000E+00 0. -1.
<mgrwt>
<rscale>  1 0.80037684E+03</rscale>
<asrwt>0</asrwt>
<pdfrwt beam="1">  1       21 0.63878022E-01 0.80037684E+03</pdfrwt>
<pdfrwt beam="2">0</pdfrwt>
<totfact> 0.20330908E+02</totfact>
</mgrwt>
</event>
<event>
 6    1  0.1347953E-004  0.6617852E+03  0.7818608E-02  0.9784913E-01
         21   -1    0    0  501  502  0.00000000000E+00  0.00000000000E+00  0.21624754855E+03  0.21624754855E+03  0.00000000000E+00 0.  1.
         13   -1    0    0    0    0 -0.00000000000E+00 -0.00000000000E+00 -0.10000000000E+04  0.10000000000E+04  0.00000000000E+00 0.  1.
    9000005    2    1    2  501    0 -0.80631547772E+01 -0.37362999339E+02 -0.88669942860E+03  0.11064336683E+04  0.66068038985E+03 0.  0.
         13    1    3    3    0    0  0.11508702924E+03  0.32626166128E+02  0.70472397564E+02  0.13883749434E+03  0.00000000000E+00 0.  1.
          1    1    3    3  501    0 -0.12315018402E+03 -0.69989165467E+02 -0.95717182617E+03  0.96759617399E+03  0.00000000000E+00 0.  1.
         -1    1    1    2    0  502  0.80631547772E+01  0.37362999339E+02  0.10294697715E+03  0.10981388022E+03  0.00000000000E+00 0. -1.
<mgrwt>
<rscale>  1 0.66178515E+03</rscale>
<asrwt>0</asrwt>
<pdfrwt beam="1">  1       21 0.33268853E-01 0.66178515E+03</pdfrwt>
<pdfrwt beam="2">0</pdfrwt>
<totfact> 0.82330653E+02</totfact>
</mgrwt>
</event>
<event>
 6    1  0.1347953E-004  0.6603100E+03  0.7818608E-02  0.9787623E-01
         21   -1    0    0  501  502  0.00000000000E+00  0.00000000000E+00  0.16779229599E+03  0.16779229599E+03  0.00000000000E+00 0.  1.
         13   -1    0    0    0    0 -0.00000000000E+00 -0.00000000000E+00 -0.10000000000E+04  0.10000000000E+04  0.00000000000E+00 0.  1.
    9000005    2    1    2  501    0  0.12309870040E+02  0.17458913748E+02 -0.88883734708E+03  0.11072673999E+04  0.65996433145E+03 0.  0.
         13    1    3    3    0    0  0.32829072566E+03 -0.22252695719E+02 -0.55986451903E+03  0.64939838520E+03  0.00000000000E+00 0.  1.
          1    1    3    3  501    0 -0.31598085562E+03  0.39711609467E+02 -0.32897282805E+03  0.45786901472E+03  0.00000000000E+00 0.  1.
         -3    1    1    2    0  502 -0.12309870040E+02 -0.17458913748E+02  0.56629643072E+02  0.60524896069E+02  0.00000000000E+00 0. -1.
<mgrwt>
<rscale>  1 0.66030998E+03</rscale>
<asrwt>0</asrwt>
<pdfrwt beam="1">  1       21 0.25814199E-01 0.66030998E+03</pdfrwt>
<pdfrwt beam="2">0</pdfrwt>
<totfact> 0.13666074E+03</totfact>
</mgrwt>
</event>
<event>
 6    1  0.1347953E-004  0.6739379E+03  0.7818608E-02  0.9762870E-01
         21   -1    0    0  501  502  0.00000000000E+00  0.00000000000E+00  0.77533013256E+03  0.77533013256E+03  0.00000000000E+00 0.  1.
         13   -1    0    0    0    0 -0.00000000000E+00 -0.00000000000E+00 -0.10000000000E+04  0.10000000000E+04  0.00000000000E+00 0.  1.
    9000005    2    1    2  501    0  0.18427213167E+03  0.85156574220E+02 -0.86904192204E+03  0.10997391280E+04  0.64263864405E+03 0.  0.
         13    1    3    3    0    0 -0.12822048192E+03  0.21613540435E+03 -0.64840727594E+03  0.69540419936E+03  0.00000000000E+00 0.  1.
          3    1    3    3  501    0  0.31249261359E+03 -0.13097883013E+03 -0.22063464611E+03  0.40433492868E+03  0.00000000000E+00 0.  1.
         -1    1    1    2    0  502 -0.18427213167E+03 -0.85156574220E+02  0.64437205460E+03  0.67559100452E+03  0.00000000000E+00 0. -1.
<mgrwt>
<rscale>  1 0.67393790E+03</rscale>
<asrwt>0</asrwt>
<pdfrwt beam="1">  1       21 0.11928156E+00 0.67393790E+03</pdfrwt>
<pdfrwt beam="2">0</pdfrwt>
<totfact> 0.46456865E+01</totfact>
</mgrwt>
</event>
<event>
 6    1  0.1347953E-004  0.6563906E+03  0.7818608E-02  0.9794861E-01
         21   -1    0    0  501  502  0.00000000000E+00  0.00000000000E+00  0.22255885444E+03  0.22255885444E+03  0.00000000000E+00 0. -1.
         13   -1    0    0    0    0 -0.00000000000E+00 -0.00000000000E+00 -0.10000000000E+04  0.10000000000E+04  0.00000000000E+00 0.  1.
    9000005    2    1    2  501    0 -0.40535883592E+02  0.19113197108E+02 -0.88742265016E+03  0.11037968929E+04  0.65485887679E+03 0.  0.
         13    1    3    3    0    0 -0.16621053381E+03  0.29853074951E+03 -0.55478853561E+03  0.65156493859E+03  0.00000000000E+00 0.  1.
          3    1    3    3  501    0  0.12567465022E+03 -0.27941755241E+03 -0.33263411455E+03  0.45223195427E+03  0.00000000000E+00 0.  1.
         -3    1    1    2    0  502  0.40535883592E+02 -0.19113197108E+02  0.10998150460E+03  0.11876196157E+03  0.00000000000E+00 0. -1.
<mgrwt>
<rscale>  1 0.65639060E+03</rscale>
<asrwt>0</asrwt>
<pdfrwt beam="1">  1       21 0.34239823E-01 0.65639060E+03</pdfrwt>
<pdfrwt beam="2">0</pdfrwt>
<totfact> 0.77688153E+02</totfact>
</mgrwt>
</event>
<event>
 6    1  0.1347953E-004  0.6970378E+03  0.7818608E-02  0.9722311E-01
         21   -1    0    0  501  502  0.00000000000E+00  0.00000000000E+00  0.32896065880E+03  0.32896065880E+03  0.00000000000E+00 0. -1.
         13   -1    0    0    0    0 -0.00000000000E+00 -0.00000000000E+00 -0.10000000000E+04  0.10000000000E+04  0.00000000000E+00 0.  1.
    9000005    2    1    2  501    0  0.10336074186E+03  0.22816240044E+03 -0.78839925181E+03  0.10523474405E+04  0.65047692604E+03 0.  0.
         13    1    3    3    0    0 -0.15237010765E+03 -0.13045180934E+03 -0.46344988457E+03  0.50499516807E+03  0.00000000000E+00 0.  1.
          3    1    3    3  501    0  0.25573084951E+03  0.35861420978E+03 -0.32494936724E+03  0.54735227241E+03  0.00000000000E+00 0.  1.
         -3    1    1    2    0  502 -0.10336074186E+03 -0.22816240044E+03  0.11735991062E+03  0.27661321832E+03  0.00000000000E+00 0. -1.
<mgrwt>
<rscale>  1 0.69703784E+03</rscale>
<asrwt>0</asrwt>
<pdfrwt beam="1">  1       21 0.50609331E-01 0.69703784E+03</pdfrwt>
<pdfrwt beam="2">0</pdfrwt>
<totfact> 0.34216051E+02</totfact>
</mgrwt>
</event>
<event>
 6    1  0.1347953E-004  0.7160754E+03  0.7818608E-02  0.9690129E-01
         21   -1    0    0  501  502  0.00000000000E+00  0.00000000000E+00  0.12065269346E+04  0.12065269346E+04  0.00000000000E+00 0. -1.
         13   -1    0    0    0    0 -0.00000000000E+00 -0.00000000000E+00 -0.10000000000E+04  0.10000000000E+04  0.00000000000E+00 0.  1.
    9000005    2    1    2  501    0 -0.14605925313E+03  0.26033261196E+03 -0.84838760932E+03  0.11101916441E+04  0.65088983450E+03 0.  0.
         13    1    3    3    0    0 -0.18794774715E+03 -0.64940955360E+02  0.18876805134E+01  0.19885986694E+03  0.00000000000E+00 0.  1.
          3    1    3    3  501    0  0.41888494013E+02  0.32527356732E+03 -0.85027528983E+03  0.91133177714E+03  0.00000000000E+00 0.  1.
         -1    1    1    2    0  502  0.14605925313E+03 -0.26033261196E+03  0.10549145439E+04  0.10963352905E+04  0.00000000000E+00 0. -1.
<mgrwt>
<rscale>  1 0.71607538E+03</rscale>
<asrwt>0</asrwt>
<pdfrwt beam="1">  1       21 0.18561952E+00 0.71607538E+03</pdfrwt>
<pdfrwt beam="2">0</pdfrwt>
<totfact> 0.13582717E+01</totfact>
</mgrwt>
</event>
<event>
 6    1  0.1347953E-004  0.6518638E+03  0.7818608E-02  0.9803288E-01
         21   -1    0    0  501  502  0.00000000000E+00  0.00000000000E+00  0.24045091728E+03  0.24045091728E+03  0.00000000000E+00 0.  1.
         13   -1    0    0    0    0 -0.00000000000E+00 -0.00000000000E+00 -0.10000000000E+04  0.10000000000E+04  0.00000000000E+00 0.  1.
    9000005    2    1    2  501    0  0.38794969911E+02  0.27482001059E+02 -0.88909345882E+03  0.11024579629E+04  0.65012773470E+03 0.  0.
         13    1    3    3    0    0 -0.30216796111E+03  0.80030177998E+01 -0.50443110297E+03  0.58806484562E+03  0.00000000000E+00 0.  1.
          3    1    3    3  501    0  0.34096293102E+03  0.19478983260E+02 -0.38466235585E+03  0.51439311730E+03  0.00000000000E+00 0.  1.
         -1    1    1    2    0  502 -0.38794969911E+02 -0.27482001059E+02  0.12954437610E+03  0.13799295435E+03  0.00000000000E+00 0. -1.
<mgrwt>
<rscale>  1 0.65186378E+03</rscale>
<asrwt>0</asrwt>
<pdfrwt beam="1">  1       21 0.36992448E-01 0.65186378E+03</pdfrwt>
<pdfrwt beam="2">0</pdfrwt>
<totfact> 0.66354696E+02</totfact>
</mgrwt>
</event>
<event>
 6    1  0.1347953E-004  0.6505145E+03  0.7818608E-02  0.9805814E-01
         21   -1    0    0  501  502  0.00000000000E+00  0.00000000000E+00  0.31042752519E+03  0.31042752519E+03  0.00000000000E+00 0. -1.
         13   -1    0    0    0    0 -0.00000000000E+00 -0.00000000000E+00 -0.10000000000E+04  0.10000000000E+04  0.00000000000E+00 0.  1.
    9000005    2    1    2  501    0  0.28508603111E+02 -0.28927929512E+02 -0.89197652460E+03  0.11039887572E+04  0.64924532347E+03 0.  0.
         13    1    3    3    0    0 -0.24266745326E+03 -0.20892135879E+03 -0.50952746743E+03  0.60179221256E+03  0.00000000000E+00 0.  1.
          3    1    3    3  501    0  0.27117605637E+03  0.17999342928E+03 -0.38244905716E+03  0.50219654465E+03  0.00000000000E+00 0.  1.
         -1    1    1    2    0  502 -0.28508603111E+02  0.28927929512E+02  0.20240404979E+03  0.20643876799E+03  0.00000000000E+00 0. -1.
<mgrwt>
<rscale>  1 0.65051445E+03</rscale>
<asrwt>0</asrwt>
<pdfrwt beam="1">  1       21 0.47758079E-01 0.65051445E+03</pdfrwt>
<pdfrwt beam="2">0</pdfrwt>
<totfact> 0.38901855E+02</totfact>
</mgrwt>
</event>
<event>
 6    1  0.1347953E-004  0.6312386E+03  0.7818608E-02  0.9842635E-01
         21   -1    0    0  501  502  0.00000000000E+00  0.00000000000E+00  0.13708570578E+03  0.13708570578E+03  0.00000000000E+00 0. -1.
         13   -1    0    0    0    0 -0.00000000000E+00 -0.00000000000E+00 -0.10000000000E+04  0.10000000000E+04  0.00000000000E+00 0.  1.
    9000005    2    1    2  501    0 -0.38579485086E+02  0.57158176399E+02 -0.86162959085E+03  0.10681140865E+04  0.62746052961E+03 0.  0.
         13    1    3    3    0    0 -0.25215423645E+03  0.19149289511E+03 -0.24022789478E+03  0.39744273709E+03  0.00000000000E+00 0.  1.
          3    1    3    3  501    0  0.21357475137E+03 -0.13433471871E+03 -0.62140169608E+03  0.67067134944E+03  0.00000000000E+00 0.  1.
         -1    1    1    2    0  502  0.38579485086E+02 -0.57158176399E+02 -0.12847033657E+01  0.68971619246E+02  0.00000000000E+00 0. -1.
<mgrwt>
<rscale>  1 0.63123858E+03</rscale>
<asrwt>0</asrwt>
<pdfrwt beam="1">  1       21 0.21090108E-01 0.63123858E+03</pdfrwt>
<pdfrwt beam="2">0</pdfrwt>
<totfact> 0.20282011E+03</totfact>
</mgrwt>
</event>
<event>
 6    1  0.1347953E-004  0.6582898E+03  0.7818608E-02  0.9791347E-01
         21   -1    0    0  501  502  0.00000000000E+00  0.00000000000E+00  0.12788516382E+03  0.12788516382E+03  0.00000000000E+00 0.  1.
         13   -1    0    0    0    0 -0.00000000000E+00 -0.00000000000E+00 -0.10000000000E+04  0.10000000000E+04  0.00000000000E+00 0.  1.
    9000005    2    1    2  501    0 -0.11394499985E+01 -0.20237417789E+02 -0.88565576433E+03  0.11035087785E+04  0.65797768957E+03 0.  0.
         13    1    3    3    0    0 -0.26164620228E+03 -0.17437987174E+03 -0.64224986018E+03  0.71508877612E+03  0.00000000000E+00 0.  1.
          1    1    3    3  501    0  0.26050675228E+03  0.15414245395E+03 -0.24340590414E+03  0.38842000240E+03  0.00000000000E+00 0.  1.
         -1    1    1    2    0  502  0.11394499985E+01  0.20237417789E+02  0.13540928151E+02  0.24376385299E+02  0.00000000000E+00 0. -1.
<mgrwt>
<rscale>  1 0.65828982E+03</rscale>
<asrwt>0</asrwt>
<pdfrwt beam="1">  1       21 0.19674640E-01 0.65828982E+03</pdfrwt>
<pdfrwt beam="2">0</pdfrwt>
<totfact> 0.23151749E+03</totfact>
</mgrwt>
</event>
<event>
 6    1  0.1347953E-004  0.6614557E+03  0.7818608E-02  0.9785518E-01
         21   -1    0    0  501  502  0.00000000000E+00  0.00000000000E+00  0.27158065630E+03  0.27158065630E+03  0.00000000000E+00 0. -1.
         13   -1    0    0    0    0 -0.00000000000E+00 -0.00000000000E+00 -0.10000000000E+04  0.10000000000E+04  0.00000000000E+00 0.  1.
    9000005    2    1    2  501    0  0.42258682389E+02  0.85346656970E+02 -0.87493724613E+03  0.10968312820E+04  0.65456384591E+03 0.  0.
         13    1    3    3    0    0  0.24358833960E+03  0.23362436654E+03 -0.23917494046E+03  0.41366686594E+03  0.00000000000E+00 0.  1.
          3    1    3    3  501    0 -0.20132965721E+03 -0.14827770957E+03 -0.63576230567E+03  0.68316441604E+03  0.00000000000E+00 0.  1.
         -1    1    1    2    0  502 -0.42258682389E+02 -0.85346656970E+02  0.14651790243E+03  0.17474937432E+03  0.00000000000E+00 0. -1.
<mgrwt>
<rscale>  1 0.66145573E+03</rscale>
<asrwt>0</asrwt>
<pdfrwt beam="1">  1       21 0.41781638E-01 0.66145573E+03</pdfrwt>
<pdfrwt beam="2">0</pdfrwt>
<totfact> 0.51526257E+02</totfact>
</mgrwt>
</event>
<event>
 6    1  0.1347953E-004  0.6494356E+03  0.7818608E-02  0.9807839E-01
         21   -1    0    0  501  502  0.00000000000E+00  0.00000000000E+00  0.12067273221E+03  0.12067273221E+03  0.00000000000E+00 0.  1.
         13   -1    0    0    0    0 -0.00000000000E+00 -0.00000000000E+00 -0.10000000000E+04  0.10000000000E+04  0.00000000000E+00 0.  1.
    9000005    2    1    2  501    0  0.39519943015E+02  0.10819498255E+02 -0.85252315612E+03  0.10717100133E+04  0.64814175416E+03 0.  0.
         13    1    3    3    0    0 -0.59094144879E+02  0.21591042538E+03 -0.39336286326E+02  0.22728126444E+03  0.00000000000E+00 0.  1.
          3    1    3    3  501    0  0.98614087894E+02 -0.20509092712E+03 -0.81318686979E+03  0.84442874887E+03  0.00000000000E+00 0.  1.
         -1    1    1    2    0  502 -0.39519943015E+02 -0.10819498255E+02 -0.26804111678E+02  0.48962718892E+02  0.00000000000E+00 0. -1.
<mgrwt>
<rscale>  1 0.64943562E+03</rscale>
<asrwt>0</asrwt>
<pdfrwt beam="1">  1       21 0.18565035E-01 0.64943562E+03</pdfrwt>
<pdfrwt beam="2">0</pdfrwt>
<totfact> 0.25873975E+03</totfact>
</mgrwt>
</event>
<event>
 6    1  0.1347953E-004  0.6466382E+03  0.7818608E-02  0.9813108E-01
         21   -1    0    0  501  502  0.00000000000E+00  0.00000000000E+00  0.15725517221E+03  0.15725517221E+03  0.00000000000E+00 0.  1.
         13   -1    0    0    0    0 -0.00000000000E+00 -0.00000000000E+00 -0.10000000000E+04  0.10000000000E+04  0.00000000000E+00 0.  1.
    9000005    2    1    2  501    0 -0.17649411940E+02  0.24744960004E+02 -0.89058103085E+03  0.11005796298E+04  0.64592347393E+03 0.  0.
         13    1    3    3    0    0 -0.17714850623E+03  0.10509196500E+03 -0.14505435096E+02  0.20648564603E+03  0.00000000000E+00 0.  1.
          3    1    3    3  501    0  0.15949909429E+03 -0.80347004994E+02 -0.87607559575E+03  0.89409398374E+03  0.00000000000E+00 0.  1.
         -3    1    1    2    0  502  0.17649411940E+02 -0.24744960004E+02  0.47836203056E+02  0.56675542435E+02  0.00000000000E+00 0. -1.
<mgrwt>
<rscale>  1 0.64663819E+03</rscale>
<asrwt>0</asrwt>
<pdfrwt beam="1">  1       21 0.24193103E-01 0.64663819E+03</pdfrwt>
<pdfrwt beam="2">0</pdfrwt>
<totfact> 0.15529920E+03</totfact>
</mgrwt>
</event>
<event>
 6    1  0.1347953E-004  0.6577829E+03  0.7818608E-02  0.9792284E-01
         21   -1    0    0  501  502  0.00000000000E+00  0.00000000000E+00  0.32019679670E+03  0.32019679670E+03  0.00000000000E+00 0. -1.
         13   -1    0    0    0    0 -0.00000000000E+00 -0.00000000000E+00 -0.10000000000E+04  0.10000000000E+04  0.00000000000E+00 0.  1.
    9000005    2    1    2  501    0 -0.40163102967E+02 -0.40226994718E+02 -0.88759845353E+03  0.11047666411E+04  0.65532208152E+03 0.  0.
         13    1    3    3    0    0  0.75870886152E+02 -0.75028008461E+02  0.77637267284E+02  0.13195885226E+03  0.00000000000E+00 0.  1.
          1    1    3    3  501    0 -0.11603398912E+03  0.34801013743E+02 -0.96523572082E+03  0.97280778879E+03  0.00000000000E+00 0.  1.
         -1    1    1    2    0  502  0.40163102967E+02  0.40226994718E+02  0.20779525023E+03  0.21543015564E+03  0.00000000000E+00 0. -1.
<mgrwt>
<rscale>  1 0.65778288E+03</rscale>
<asrwt>0</asrwt>
<pdfrwt beam="1">  1       21 0.49261044E-01 0.65778288E+03</pdfrwt>
<pdfrwt beam="2">0</pdfrwt>
<totfact> 0.36387620E+02</totfact>
</mgrwt>
</event>
<event>
 6    1  0.1347953E-004  0.6454999E+03  0.7818608E-02  0.9815260E-01
         21   -1    0    0  501  502  0.00000000000E+00  0.00000000000E+00  0.12549235870E+03  0.12549235870E+03  0.00000000000E+00 0.  1.
         13   -1    0    0    0    0 -0.00000000000E+00 -0.00000000000E+00 -0.10000000000E+04  0.10000000000E+04  0.00000000000E+00 0.  1.
    9000005    2    1    2  501    0  0.82548662600E+01 -0.28778863483E+02 -0.88354195086E+03  0.10942196142E+04  0.64480525690E+03 0.  0.
         13    1    3    3    0    0  0.32490970826E+02  0.13830207948E+03 -0.91200812759E+03  0.92300701685E+03  0.00000000000E+00 0.  1.
          3    1    3    3  501    0 -0.24236104566E+02 -0.16708094296E+03  0.28466176724E+02  0.17121259733E+03  0.00000000000E+00 0.  1.
         -3    1    1    2    0  502 -0.82548662600E+01  0.28778863483E+02  0.90343095625E+01  0.31272744517E+02  0.00000000000E+00 0. -1.
<mgrwt>
<rscale>  1 0.64549995E+03</rscale>
<asrwt>0</asrwt>
<pdfrwt beam="1">  1       21 0.19306516E-01 0.64549995E+03</pdfrwt>
<pdfrwt beam="2">0</pdfrwt>
<totfact> 0.24015163E+03</totfact>
</mgrwt>
</event>
<event>
 6    1  0.1347953E-004  0.6471301E+03  0.7818608E-02  0.9812179E-01
         21   -1    0    0  501  502  0.00000000000E+00  0.00000000000E+00  0.11538478476E+03  0.11538478476E+03  0.00000000000E+00 0.  1.
         13   -1    0    0    0    0 -0.00000000000E+00 -0.00000000000E+00 -0.10000000000E+04  0.10000000000E+04  0.00000000000E+00 0.  1.
    9000005    2    1    2  501    0  0.22141150572E+02  0.15376778537E+02 -0.87126871152E+03  0.10853048076E+04  0.64656838910E+03 0.  0.
         13    1    3    3    0    0 -0.13484121582E+03 -0.22342737919E+03 -0.71160418034E+03  0.75794620966E+03  0.00000000000E+00 0.  1.
          1    1    3    3  501    0  0.15698236639E+03  0.23880415773E+03 -0.15966453118E+03  0.32735859791E+03  0.00000000000E+00 0.  1.
         -3    1    1    2    0  502 -0.22141150572E+02 -0.15376778537E+02 -0.13346503715E+02  0.30079977198E+02  0.00000000000E+00 0. -1.
<mgrwt>
<rscale>  1 0.64713009E+03</rscale>
<asrwt>0</asrwt>
<pdfrwt beam="1">  1       21 0.17751505E-01 0.64713009E+03</pdfrwt>
<pdfrwt beam="2">0</pdfrwt>
<totfact> 0.28174131E+03</totfact>
</mgrwt>
</event>
<event>
 6    1  0.1347953E-004  0.6532392E+03  0.7818608E-02  0.9800720E-01
         21   -1    0    0  501  502  0.00000000000E+00  0.00000000000E+00  0.12149787702E+03  0.12149787702E+03  0.00000000000E+00 0.  1.
         13   -1    0    0    0    0 -0.00000000000E+00 -0.00000000000E+00 -0.10000000000E+04  0.10000000000E+04  0.00000000000E+00 0.  1.
    9000005    2    1    2  501    0 -0.23829057250E+02 -0.29366193505E+02 -0.85833637810E+03  0.10786393358E+04  0.65214360492E+03 0.  0.
         13    1    3    3    0    0  0.20966467374E+03  0.10856329405E+03 -0.75055695485E+03  0.78681700967E+03  0.00000000000E+00 0.  1.
          3    1    3    3  501    0 -0.23349373099E+03 -0.13792948755E+03 -0.10777942326E+03  0.29182232612E+03  0.00000000000E+00 0.  1.
         -3    1    1    2    0  502  0.23829057250E+02  0.29366193505E+02 -0.20165744874E+02  0.42858541234E+02  0.00000000000E+00 0. -1.
<mgrwt>
<rscale>  1 0.65323922E+03</rscale>
<asrwt>0</asrwt>
<pdfrwt beam="1">  1       21 0.18691981E-01 0.65323922E+03</pdfrwt>
<pdfrwt beam="2">0</pdfrwt>
<totfact> 0.25537114E+03</totfact>
</mgrwt>
</event>
<event>
 6    1  0.1347953E-004  0.6395586E+03  0.7818608E-02  0.9826571E-01
         21   -1    0    0  501  502  0.00000000000E+00  0.00000000000E+00  0.68516676716E+03  0.68516676716E+03  0.00000000000E+00 0. -1.
         13   -1    0    0    0    0 -0.00000000000E+00 -0.00000000000E+00 -0.10000000000E+04  0.10000000000E+04  0.00000000000E+00 0.  1.
    9000005    2    1    2  501    0  0.28912018910E+02 -0.17076920964E+02 -0.89720809716E+03  0.11018246646E+04  0.63867651887E+03 0.  0.
         13    1    3    3    0    0 -0.18772871094E+03  0.11721667713E+03 -0.79831297107E+03  0.82842345337E+03  0.00000000000E+00 0.  1.
          1    1    3    3  501    0  0.21664072985E+03 -0.13429359809E+03 -0.98895126088E+02  0.27340121119E+03  0.00000000000E+00 0.  1.
         -3    1    1    2    0  502 -0.28912018910E+02  0.17076920964E+02  0.58237486432E+03  0.58334210259E+03  0.00000000000E+00 0. -1.
<mgrwt>
<rscale>  1 0.63955861E+03</rscale>
<asrwt>0</asrwt>
<pdfrwt beam="1">  1       21 0.10541027E+00 0.63955861E+03</pdfrwt>
<pdfrwt beam="2">0</pdfrwt>
<totfact> 0.63765318E+01</totfact>
</mgrwt>
</event>
<event>
 6    1  0.1347953E-004  0.6695089E+03  0.7818608E-02  0.9770845E-01
         21   -1    0    0  501  502  0.00000000000E+00  0.00000000000E+00  0.16784654959E+03  0.16784654959E+03  0.00000000000E+00 0. -1.
         13   -1    0    0    0    0 -0.00000000000E+00 -0.00000000000E+00 -0.10000000000E+04  0.10000000000E+04  0.00000000000E+00 0.  1.
    9000005    2    1    2  501    0  0.45567930060E+02 -0.82232366351E+00 -0.87737461269E+03  0.11036432320E+04  0.66795588191E+03 0.  0.
         13    1    3    3    0    0  0.38806493339E+02  0.18512774395E+03  0.17190693705E+02  0.18993089653E+03  0.00000000000E+00 0.  1.
          3    1    3    3  501    0  0.67614367206E+01 -0.18595006761E+03 -0.89456530639E+03  0.91371233552E+03  0.00000000000E+00 0.  1.
         -3    1    1    2    0  502 -0.45567930060E+02  0.82232366351E+00  0.45221162283E+02  0.64203317549E+02  0.00000000000E+00 0. -1.
<mgrwt>
<rscale>  1 0.66950890E+03</rscale>
<asrwt>0</asrwt>
<pdfrwt beam="1">  1       21 0.25822545E-01 0.66950890E+03</pdfrwt>
<pdfrwt beam="2">0</pdfrwt>
<totfact> 0.13650750E+03</totfact>
</mgrwt>
</event>
<event>
 6    1  0.1347953E-004  0.6506064E+03  0.7818608E-02  0.9805642E-01
         21   -1    0    0  501  502  0.00000000000E+00  0.00000000000E+00  0.23472834688E+03  0.23472834688E+03  0.00000000000E+00 0.  1.
         13   -1    0    0    0    0 -0.00000000000E+00 -0.00000000000E+00 -0.10000000000E+04  0.10000000000E+04  0.00000000000E+00 0.  1.
    9000005    2    1    2  501    0  0.29640109494E+02 -0.81882546259E+02 -0.87768632526E+03  0.10925300839E+04  0.64475220921E+03 0.  0.
         13    1    3    3    0    0  0.26726803396E+02  0.21837492885E+03 -0.72103474396E+03  0.75385212978E+03  0.00000000000E+00 0.  1.
          1    1    3    3  501    0  0.29133060982E+01 -0.30025747511E+03 -0.15665158130E+03  0.33867795416E+03  0.00000000000E+00 0.  1.
         -3    1    1    2    0  502 -0.29640109494E+02  0.81882546259E+02  0.11241467214E+03  0.14219826295E+03  0.00000000000E+00 0. -1.
<mgrwt>
<rscale>  1 0.65060641E+03</rscale>
<asrwt>0</asrwt>
<pdfrwt beam="1">  1       21 0.36112052E-01 0.65060641E+03</pdfrwt>
<pdfrwt beam="2">0</pdfrwt>
<totfact> 0.69720382E+02</totfact>
</mgrwt>
</event>
<event>
 6    1  0.1347953E-004  0.7723785E+03  0.7818608E-02  0.9600882E-01
         21   -1    0    0  501  502  0.00000000000E+00  0.00000000000E+00  0.34807431675E+03  0.34807431675E+03  0.00000000000E+00 0. -1.
         13   -1    0    0    0    0 -0.00000000000E+00 -0.00000000000E+00 -0.10000000000E+04  0.10000000000E+04  0.00000000000E+00 0.  1.
    9000005    2    1    2  501    0  0.41362600521E+02 -0.40355092356E+03 -0.46356756132E+03  0.90081265426E+03  0.65727037172E+03 0.  0.
         13    1    3    3    0    0 -0.42001679544E+02 -0.88974519164E+02 -0.55430123030E+03  0.56296577166E+03  0.00000000000E+00 0.  1.
          3    1    3    3  501    0  0.83364280065E+02 -0.31457640440E+03  0.90733668987E+02  0.33784688260E+03  0.00000000000E+00 0.  1.
         -3    1    1    2    0  502 -0.41362600521E+02  0.40355092356E+03 -0.18835812194E+03  0.44726166249E+03  0.00000000000E+00 0. -1.
<mgrwt>
<rscale>  1 0.77237850E+03</rscale>
<asrwt>0</asrwt>
<pdfrwt beam="1">  1       21 0.53549893E-01 0.77237850E+03</pdfrwt>
<pdfrwt beam="2">0</pdfrwt>
<totfact> 0.30085508E+02</totfact>
</mgrwt>
</event>
<event>
 6    1  0.1347953E-004  0.6499401E+03  0.7818608E-02  0.9806892E-01
         21   -1    0    0  501  502  0.00000000000E+00  0.00000000000E+00  0.15622199052E+03  0.15622199052E+03  0.00000000000E+00 0.  1.
         13   -1    0    0    0    0 -0.00000000000E+00 -0.00000000000E+00 -0.10000000000E+04  0.10000000000E+04  0.00000000000E+00 0.  1.
    9000005    2    1    2  501    0 -0.39905170443E+01 -0.22219621229E+02 -0.89159602189E+03  0.11033429010E+04  0.64954788526E+03 0.  0.
         13    1    3    3    0    0 -0.17821879046E+03 -0.25430284190E+03 -0.24823354839E+03  0.39755725024E+03  0.00000000000E+00 0.  1.
          3    1    3    3  501    0  0.17422827342E+03  0.23208322067E+03 -0.64336247349E+03  0.70578565080E+03  0.00000000000E+00 0.  1.
         -1    1    1    2    0  502  0.39905170443E+01  0.22219621229E+02  0.47818012409E+02  0.52879089483E+02  0.00000000000E+00 0. -1.
<mgrwt>
<rscale>  1 0.64994007E+03</rscale>
<asrwt>0</asrwt>
<pdfrwt beam="1">  1       21 0.24034152E-01 0.64994007E+03</pdfrwt>
<pdfrwt beam="2">0</pdfrwt>
<totfact> 0.15728523E+03</totfact>
</mgrwt>
</event>
<event>
 6    1  0.1347953E-004  0.6504509E+03  0.7818608E-02  0.9805933E-01
         21   -1    0    0  501  502  0.00000000000E+00  0.00000000000E+00  0.17736697220E+03  0.17736697220E+03  0.00000000000E+00 0.  1.
         13   -1    0    0    0    0 -0.00000000000E+00 -0.00000000000E+00 -0.10000000000E+04  0.10000000000E+04  0.00000000000E+00 0.  1.
    9000005    2    1    2  501    0  0.21389277801E+02 -0.27597150840E+02 -0.88948914945E+03  0.11019425402E+04  0.64951313379E+03 0.  0.
         13    1    3    3    0    0  0.37443258002E+02  0.11725819472E+03  0.63062949616E+02  0.13830552199E+03  0.00000000000E+00 0.  1.
          3    1    3    3  501    0 -0.16053980201E+02 -0.14485534556E+03 -0.95255209907E+03  0.96363701821E+03  0.00000000000E+00 0.  1.
         -1    1    1    2    0  502 -0.21389277801E+02  0.27597150840E+02  0.66856121651E+02  0.75424431994E+02  0.00000000000E+00 0. -1.
<mgrwt>
<rscale>  1 0.65045093E+03</rscale>
<asrwt>0</asrwt>
<pdfrwt beam="1">  1       21 0.27287226E-01 0.65045093E+03</pdfrwt>
<pdfrwt beam="2">0</pdfrwt>
<totfact> 0.12255367E+03</totfact>
</mgrwt>
</event>
<event>
 6    1  0.1347953E-004  0.6380684E+03  0.7818608E-02  0.9829429E-01
         21   -1    0    0  501  502  0.00000000000E+00  0.00000000000E+00  0.27565020015E+03  0.27565020015E+03  0.00000000000E+00 0.  1.
         13   -1    0    0    0    0 -0.00000000000E+00 -0.00000000000E+00 -0.10000000000E+04  0.10000000000E+04  0.00000000000E+00 0.  1.
    9000005    2    1    2  501    0  0.23556099582E+02  0.24306607439E+01 -0.89732824891E+03  0.11010582708E+04  0.63762883525E+03 0.  0.
         13    1    3    3    0    0  0.31779406271E+03  0.27423731942E+02 -0.61353423043E+03  0.69149792427E+03  0.00000000000E+00 0.  1.
          1    1    3    3  501    0 -0.29423796313E+03 -0.24993071198E+02 -0.28379401849E+03  0.40956034657E+03  0.00000000000E+00 0.  1.
         -3    1    1    2    0  502 -0.23556099582E+02 -0.24306607439E+01  0.17297844906E+03  0.17459192930E+03  0.00000000000E+00 0. -1.
<mgrwt>
<rscale>  1 0.63806844E+03</rscale>
<asrwt>0</asrwt>
<pdfrwt beam="1">  1       21 0.42407722E-01 0.63806844E+03</pdfrwt>
<pdfrwt beam="2">0</pdfrwt>
<totfact> 0.50046636E+02</totfact>
</mgrwt>
</event>
<event>
 6    1  0.1347953E-004  0.6502879E+03  0.7818608E-02  0.9806239E-01
         21   -1    0    0  501  502  0.00000000000E+00  0.00000000000E+00  0.13230142246E+03  0.13230142246E+03  0.00000000000E+00 0.  1.
         13   -1    0    0    0    0 -0.00000000000E+00 -0.00000000000E+00 -0.10000000000E+04  0.10000000000E+04  0.00000000000E+00 0.  1.
    9000005    2    1    2  501    0  0.46256880398E+02 -0.16622375275E+02 -0.86619071800E+03  0.10831254529E+04  0.64842762463E+03 0.  0.
         13    1    3    3    0    0 -0.12604512821E+03 -0.29486360667E+03 -0.47464618029E+03  0.57281839823E+03  0.00000000000E+00 0.  1.
          3    1    3    3  501    0  0.17230200861E+03  0.27824123140E+03 -0.39154453770E+03  0.51030705465E+03  0.00000000000E+00 0.  1.
         -3    1    1    2    0  502 -0.46256880398E+02  0.16622375275E+02 -0.15078595442E+01  0.49175969582E+02  0.00000000000E+00 0. -1.
<mgrwt>
<rscale>  1 0.65028793E+03</rscale>
<asrwt>0</asrwt>
<pdfrwt beam="1">  1       21 0.20354064E-01 0.65028793E+03</pdfrwt>
<pdfrwt beam="2">0</pdfrwt>
<totfact> 0.21699028E+03</totfact>
</mgrwt>
</event>
<event>
 6    1  0.1347953E-004  0.6586441E+03  0.7818608E-02  0.9790693E-01
         21   -1    0    0  501  502  0.00000000000E+00  0.00000000000E+00  0.15408293829E+03  0.15408293829E+03  0.00000000000E+00 0.  1.
         13   -1    0    0    0    0 -0.00000000000E+00 -0.00000000000E+00 -0.10000000000E+04  0.10000000000E+04  0.00000000000E+00 0.  1.
    9000005    2    1    2  501    0 -0.67394765192E+02 -0.10646452423E+03 -0.72364619195E+03  0.97850698640E+03  0.64647920462E+03 0.  0.
         13    1    3    3    0    0 -0.33177673219E+03 -0.11064413203E+03 -0.23025641145E+03  0.41873134465E+03  0.00000000000E+00 0.  1.
          1    1    3    3  501    0  0.26438196700E+03  0.41796077974E+01 -0.49338978050E+03  0.55977564175E+03  0.00000000000E+00 0.  1.
         -1    1    1    2    0  502  0.67394765192E+02  0.10646452423E+03 -0.12227086975E+03  0.17557595190E+03  0.00000000000E+00 0. -1.
<mgrwt>
<rscale>  1 0.65864415E+03</rscale>
<asrwt>0</asrwt>
<pdfrwt beam="1">  1       21 0.23705067E-01 0.65864415E+03</pdfrwt>
<pdfrwt beam="2">0</pdfrwt>
<totfact> 0.16150478E+03</totfact>
</mgrwt>
</event>
<event>
 6    1  0.1347953E-004  0.6641451E+03  0.7818608E-02  0.9780593E-01
         21   -1    0    0  501  502  0.00000000000E+00  0.00000000000E+00  0.20311515635E+03  0.20311515635E+03  0.00000000000E+00 0.  1.
         13   -1    0    0    0    0 -0.00000000000E+00 -0.00000000000E+00 -0.10000000000E+04  0.10000000000E+04  0.00000000000E+00 0.  1.
    9000005    2    1    2  501    0 -0.15761946647E+03 -0.70209315758E+02 -0.78770182235E+03  0.10303217187E+04  0.64133878628E+03 0.  0.
         13    1    3    3    0    0  0.20611855058E+03 -0.12660710438E+03 -0.52518038550E+03  0.57821159888E+03  0.00000000000E+00 0.  1.
          3    1    3    3  501    0 -0.36373801704E+03  0.56397788620E+02 -0.26252143685E+03  0.45211011978E+03  0.00000000000E+00 0.  1.
         -1    1    1    2    0  502  0.15761946647E+03  0.70209315758E+02 -0.91830212999E+01  0.17279343769E+03  0.00000000000E+00 0. -1.
<mgrwt>
<rscale>  1 0.66414508E+03</rscale>
<asrwt>0</asrwt>
<pdfrwt beam="1">  1       21 0.31248485E-01 0.66414508E+03</pdfrwt>
<pdfrwt beam="2">0</pdfrwt>
<totfact> 0.93421547E+02</totfact>
</mgrwt>
</event>
<event>
 6    1  0.1347953E-004  0.7119842E+03  0.7818608E-02  0.9696954E-01
         21   -1    0    0  501  502  0.00000000000E+00  0.00000000000E+00  0.31087250223E+03  0.31087250223E+03  0.00000000000E+00 0. -1.
         13   -1    0    0    0    0 -0.00000000000E+00 -0.00000000000E+00 -0.10000000000E+04  0.10000000000E+04  0.00000000000E+00 0.  1.
    9000005    2    1    2  501    0  0.29264586211E+03 -0.53073548089E+02 -0.71910577217E+03  0.10119459242E+04  0.64688719250E+03 0.  0.
         13    1    3    3    0    0  0.85937566771E+02  0.27376324966E+03 -0.47403863549E+03  0.55411570108E+03  0.00000000000E+00 0.  1.
          3    1    3    3  501    0  0.20670829534E+03 -0.32683679775E+03 -0.24506713668E+03  0.45783022312E+03  0.00000000000E+00 0.  1.
         -1    1    1    2    0  502 -0.29264586211E+03  0.53073548089E+02  0.29978274407E+02  0.29892657803E+03  0.00000000000E+00 0. -1.
<mgrwt>
<rscale>  1 0.71198416E+03</rscale>
<asrwt>0</asrwt>
<pdfrwt beam="1">  1       21 0.47826537E-01 0.71198416E+03</pdfrwt>
<pdfrwt beam="2">0</pdfrwt>
<totfact> 0.38572625E+02</totfact>
</mgrwt>
</event>
<event>
 6    1  0.1347953E-004  0.6578681E+03  0.7818608E-02  0.9792126E-01
         21   -1    0    0  501  502  0.00000000000E+00  0.00000000000E+00  0.26217471290E+03  0.26217471290E+03  0.00000000000E+00 0.  1.
         13   -1    0    0    0    0 -0.00000000000E+00 -0.00000000000E+00 -0.10000000000E+04  0.10000000000E+04  0.00000000000E+00 0.  1.
    9000005    2    1    2  501    0  0.64733493695E+02  0.92503205070E+02 -0.86846631845E+03  0.10895063973E+04  0.64810737941E+03 0.  0.
         13    1    3    3    0    0 -0.89662924762E+02 -0.19824828823E+03 -0.74477046888E+02  0.22997533427E+03  0.00000000000E+00 0.  1.
          1    1    3    3  501    0  0.15439641846E+03  0.29075149330E+03 -0.79398927156E+03  0.85953106299E+03  0.00000000000E+00 0.  1.
         -1    1    1    2    0  502 -0.64733493695E+02 -0.92503205070E+02  0.13064103135E+03  0.17266831564E+03  0.00000000000E+00 0. -1.
<mgrwt>
<rscale>  1 0.65786810E+03</rscale>
<asrwt>0</asrwt>
<pdfrwt beam="1">  1       21 0.40334570E-01 0.65786810E+03</pdfrwt>
<pdfrwt beam="2">0</pdfrwt>
<totfact> 0.55471312E+02</totfact>
</mgrwt>
</event>
<event>
 6    1  0.1347953E-004  0.6452394E+03  0.7818608E-02  0.9815753E-01
         21   -1    0    0  501  502  0.00000000000E+00  0.00000000000E+00  0.26385556968E+03  0.26385556968E+03  0.00000000000E+00 0. -1.
         13   -1    0    0    0    0 -0.00000000000E+00 -0.00000000000E+00 -0.10000000000E+04  0.10000000000E+04  0.00000000000E+00 0.  1.
    9000005    2    1    2  501    0  0.48327504379E+02 -0.76517038260E+02 -0.88162750499E+03  0.10925204307E+04  0.63886104060E+03 0.  0.
         13    1    3    3    0    0 -0.24597823163E+03  0.13563098951E+03 -0.42249872920E+03  0.50735217741E+03  0.00000000000E+00 0.  1.
          1    1    3    3  501    0  0.29430573601E+03 -0.21214802777E+03 -0.45912877579E+03  0.58516825332E+03  0.00000000000E+00 0.  1.
         -3    1    1    2    0  502 -0.48327504379E+02  0.76517038260E+02  0.14548307467E+03  0.17133513895E+03  0.00000000000E+00 0. -1.
<mgrwt>
<rscale>  1 0.64523936E+03</rscale>
<asrwt>0</asrwt>
<pdfrwt beam="1">  1       21 0.40593163E-01 0.64523936E+03</pdfrwt>
<pdfrwt beam="2">0</pdfrwt>
<totfact> 0.54795093E+02</totfact>
</mgrwt>
</event>
<event>
 6    1  0.1347953E-004  0.6480571E+03  0.7818608E-02  0.9810432E-01
         21   -1    0    0  501  502  0.00000000000E+00  0.00000000000E+00  0.12170735516E+03  0.12170735516E+03  0.00000000000E+00 0.  1.
         13   -1    0    0    0    0 -0.00000000000E+00 -0.00000000000E+00 -0.10000000000E+04  0.10000000000E+04  0.00000000000E+00 0.  1.
    9000005    2    1    2  501    0 -0.45373955814E+02  0.16000679945E+02 -0.83505025817E+03  0.10570179308E+04  0.64626863968E+03 0.  0.
         13    1    3    3    0    0  0.26001391604E+03  0.89715247271E+02 -0.17497397788E+03  0.32599379605E+03  0.00000000000E+00 0.  1.
          3    1    3    3  501    0 -0.30538787186E+03 -0.73714567326E+02 -0.66007628029E+03  0.73102413470E+03  0.00000000000E+00 0.  1.
         -3    1    1    2    0  502  0.45373955814E+02 -0.16000679945E+02 -0.43242386672E+02  0.64689424406E+02  0.00000000000E+00 0. -1.
<mgrwt>
<rscale>  1 0.64805707E+03</rscale>
<asrwt>0</asrwt>
<pdfrwt beam="1">  1       21 0.18724208E-01 0.64805707E+03</pdfrwt>
<pdfrwt beam="2">0</pdfrwt>
<totfact> 0.25458153E+03</totfact>
</mgrwt>
</event>
<event>
 6    1  0.1347953E-004  0.6487519E+03  0.7818608E-02  0.9809124E-01
         21   -1    0    0  501  502  0.00000000000E+00  0.00000000000E+00  0.30660417062E+03  0.30660417062E+03  0.00000000000E+00 0. -1.
         13   -1    0    0    0    0 -0.00000000000E+00 -0.00000000000E+00 -0.10000000000E+04  0.10000000000E+04  0.00000000000E+00 0.  1.
    9000005    2    1    2  501    0  0.19240308692E+02 -0.72504402578E+02 -0.88702592553E+03  0.10989513546E+04  0.64440050380E+03 0.  0.
         13    1    3    3    0    0  0.70094332912E+02  0.22424258718E+03 -0.98230734459E+02  0.25465119399E+03  0.00000000000E+00 0.  1.
          3    1    3    3  501    0 -0.50854024220E+02 -0.29674698975E+03 -0.78879519108E+03  0.84430016059E+03  0.00000000000E+00 0.  1.
         -1    1    1    2    0  502 -0.19240308692E+02  0.72504402578E+02  0.19363009615E+03  0.20765281603E+03  0.00000000000E+00 0. -1.
<mgrwt>
<rscale>  1 0.64875195E+03</rscale>
<asrwt>0</asrwt>
<pdfrwt beam="1">  1       21 0.47169871E-01 0.64875195E+03</pdfrwt>
<pdfrwt beam="2">0</pdfrwt>
<totfact> 0.39947597E+02</totfact>
</mgrwt>
</event>
<event>
 6    1  0.1347953E-004  0.6687141E+03  0.7818608E-02  0.9772284E-01
         21   -1    0    0  501  502  0.00000000000E+00  0.00000000000E+00  0.15728487047E+03  0.15728487047E+03  0.00000000000E+00 0.  1.
         13   -1    0    0    0    0 -0.00000000000E+00 -0.00000000000E+00 -0.10000000000E+04  0.10000000000E+04  0.00000000000E+00 0.  1.
    9000005    2    1    2  501    0 -0.11951187830E+03 -0.32646688618E+02 -0.69451323563E+03  0.96411992363E+03  0.65713750262E+03 0.  0.
         13    1    3    3    0    0  0.22501608365E+03 -0.12891414760E+03 -0.48387629766E+03  0.54898758346E+03  0.00000000000E+00 0.  1.
          1    1    3    3  501    0 -0.34452796195E+03  0.96267458985E+02 -0.21063693797E+03  0.41513234018E+03  0.00000000000E+00 0.  1.
         -3    1    1    2    0  502  0.11951187830E+03  0.32646688618E+02 -0.14820189390E+03  0.19316494684E+03  0.00000000000E+00 0. -1.
<mgrwt>
<rscale>  1 0.66871413E+03</rscale>
<asrwt>0</asrwt>
<pdfrwt beam="1">  1       21 0.24197672E-01 0.66871413E+03</pdfrwt>
<pdfrwt beam="2">0</pdfrwt>
<totfact> 0.15507196E+03</totfact>
</mgrwt>
</event>
<event>
 6    1  0.1347953E-004  0.6369254E+03  0.7818608E-02  0.9831627E-01
         21   -1    0    0  501  502  0.00000000000E+00  0.00000000000E+00  0.12208604407E+03  0.12208604407E+03  0.00000000000E+00 0.  1.
         13   -1    0    0    0    0 -0.00000000000E+00 -0.00000000000E+00 -0.10000000000E+04  0.10000000000E+04  0.00000000000E+00 0.  1.
    9000005    2    1    2  501    0 -0.54088525228E+02  0.13950030133E+02 -0.84166325008E+03  0.10554956125E+04  0.63447126773E+03 0.  0.
         13    1    3    3    0    0 -0.27036303201E+03 -0.15080509781E+03 -0.65859391994E+03  0.72772542761E+03  0.00000000000E+00 0.  1.
          1    1    3    3  501    0  0.21627450679E+03  0.16475512794E+03 -0.18306933014E+03  0.32777018490E+03  0.00000000000E+00 0.  1.
         -1    1    1    2    0  502  0.54088525228E+02 -0.13950030133E+02 -0.36250705847E+02  0.66590431569E+02  0.00000000000E+00 0. -1.
<mgrwt>
<rscale>  1 0.63692540E+03</rscale>
<asrwt>0</asrwt>
<pdfrwt beam="1">  1       21 0.18782468E-01 0.63692540E+03</pdfrwt>
<pdfrwt beam="2">0</pdfrwt>
<totfact> 0.25318041E+03</totfact>
</mgrwt>
</event>
<event>
 6    1  0.1347953E-004  0.6576047E+03  0.7818608E-02  0.9792613E-01
         21   -1    0    0  501  502  0.00000000000E+00  0.00000000000E+00  0.24015693493E+03  0.24015693493E+03  0.00000000000E+00 0.  1.
         13   -1    0    0    0    0 -0.00000000000E+00 -0.00000000000E+00 -0.10000000000E+04  0.10000000000E+04  0.00000000000E+00 0.  1.
    9000005    2    1    2  501    0  0.11506995066E+03  0.62944839615E+02 -0.85461681050E+03  0.10783384897E+04  0.64439185228E+03 0.  0.
         13    1    3    3    0    0  0.19282390677E+02  0.31163191721E+03 -0.19803785417E+03  0.36973673620E+03  0.00000000000E+00 0.  1.
          1    1    3    3  501    0  0.95787559983E+02 -0.24868707760E+03 -0.65657895634E+03  0.70860175354E+03  0.00000000000E+00 0.  1.
         -3    1    1    2    0  502 -0.11506995066E+03 -0.62944839615E+02  0.94773745436E+02  0.16181844519E+03  0.00000000000E+00 0. -1.
<mgrwt>
<rscale>  1 0.65760475E+03</rscale>
<asrwt>0</asrwt>
<pdfrwt beam="1">  1       21 0.36947220E-01 0.65760475E+03</pdfrwt>
<pdfrwt beam="2">0</pdfrwt>
<totfact> 0.66492836E+02</totfact>
</mgrwt>
</event>
<event>
 6    1  0.1347953E-004  0.7030987E+03  0.7818608E-02  0.9711948E-01
         21   -1    0    0  501  502  0.00000000000E+00  0.00000000000E+00  0.38958204674E+03  0.38958204674E+03  0.00000000000E+00 0. -1.
         13   -1    0    0    0    0 -0.00000000000E+00 -0.00000000000E+00 -0.10000000000E+04  0.10000000000E+04  0.00000000000E+00 0.  1.
    9000005    2    1    2  501    0 -0.13007283659E+03  0.23138603295E+03 -0.79874855520E+03  0.10641179862E+04  0.65106788824E+03 0.  0.
         13    1    3    3    0    0 -0.23521039518E+03  0.39258598008E+03 -0.72632804269E+03  0.85848710378E+03  0.00000000000E+00 0.  1.
          3    1    3    3  501    0  0.10513755859E+03 -0.16119994713E+03 -0.72420512509E+02  0.20563088244E+03  0.00000000000E+00 0.  1.
         -3    1    1    2    0  502  0.13007283659E+03 -0.23138603295E+03  0.18833060194E+03  0.32546406052E+03  0.00000000000E+00 0. -1.
<mgrwt>
<rscale>  1 0.70309874E+03</rscale>
<asrwt>0</asrwt>
<pdfrwt beam="1">  1       21 0.59935698E-01 0.70309874E+03</pdfrwt>
<pdfrwt beam="2">0</pdfrwt>
<totfact> 0.23648438E+02</totfact>
</mgrwt>
</event>
<event>
 6    1  0.1347953E-004  0.6612663E+03  0.7818608E-02  0.9785865E-01
         21   -1    0    0  501  502  0.00000000000E+00  0.00000000000E+00  0.21326725489E+03  0.21326725489E+03  0.00000000000E+00 0. -1.
         13   -1    0    0    0    0 -0.00000000000E+00 -0.00000000000E+00 -0.10000000000E+04  0.10000000000E+04  0.00000000000E+00 0.  1.
    9000005    2    1    2  501    0  0.96902530860E+02  0.93405800004E+02 -0.83953678646E+03  0.10686885194E+04  0.64742442942E+03 0.  0.
         13    1    3    3    0    0 -0.25060818323E+03  0.22909253092E+02 -0.14906274031E+03  0.29248759962E+03  0.00000000000E+00 0.  1.
          1    1    3    3  501    0  0.34751071409E+03  0.70496546912E+02 -0.69047404615E+03  0.77620091983E+03  0.00000000000E+00 0.  1.
         -1    1    1    2    0  502 -0.96902530860E+02 -0.93405800004E+02  0.52804041346E+02  0.14457873545E+03  0.00000000000E+00 0. -1.
<mgrwt>
<rscale>  1 0.66126631E+03</rscale>
<asrwt>0</asrwt>
<pdfrwt beam="1">  1       21 0.32810346E-01 0.66126631E+03</pdfrwt>
<pdfrwt beam="2">0</pdfrwt>
<totfact> 0.84680680E+02</totfact>
</mgrwt>
</event>
<event>
 6    1  0.1347953E-004  0.6777975E+03  0.7818608E-02  0.9755973E-01
         21   -1    0    0  501  502  0.00000000000E+00  0.00000000000E+00  0.20936449937E+03  0.20936449937E+03  0.00000000000E+00 0. -1.
         13   -1    0    0    0    0 -0.00000000000E+00 -0.00000000000E+00 -0.10000000000E+04  0.10000000000E+04  0.00000000000E+00 0.  1.
    9000005    2    1    2  501    0 -0.69118755364E+02  0.39744727530E+02 -0.86595956874E+03  0.10996796739E+04  0.67309164658E+03 0.  0.
         13    1    3    3    0    0 -0.23663841950E+03  0.29118998768E+03 -0.45993841468E+03  0.59357619208E+03  0.00000000000E+00 0.  1.
          1    1    3    3  501    0  0.16751966413E+03 -0.25144526015E+03 -0.40602115406E+03  0.50610348178E+03  0.00000000000E+00 0.  1.
         -1    1    1    2    0  502  0.69118755364E+02 -0.39744727530E+02  0.75324068118E+02  0.10968482551E+03  0.00000000000E+00 0. -1.
<mgrwt>
<rscale>  1 0.67779747E+03</rscale>
<asrwt>0</asrwt>
<pdfrwt beam="1">  1       21 0.32209922E-01 0.67779747E+03</pdfrwt>
<pdfrwt beam="2">0</pdfrwt>
<totfact> 0.87807107E+02</totfact>
</mgrwt>
</event>
<event>
 6    1  0.1347953E-004  0.6593572E+03  0.7818608E-02  0.9789378E-01
         21   -1    0    0  501  502  0.00000000000E+00  0.00000000000E+00  0.15071070252E+03  0.15071070252E+03  0.00000000000E+00 0.  1.
         13   -1    0    0    0    0 -0.00000000000E+00 -0.00000000000E+00 -0.10000000000E+04  0.10000000000E+04  0.00000000000E+00 0.  1.
    9000005    2    1    2  501    0  0.39994014844E+02 -0.65464223902E+02 -0.84775187719E+03  0.10739809854E+04  0.65487924521E+03 0.  0.
         13    1    3    3    0    0  0.34160334731E+03 -0.69841873849E+01 -0.54079239857E+03  0.63968589489E+03  0.00000000000E+00 0.  1.
          1    1    3    3  501    0 -0.30160933246E+03 -0.58480036517E+02 -0.30695947861E+03  0.43429509047E+03  0.00000000000E+00 0.  1.
         -3    1    1    2    0  502 -0.39994014844E+02  0.65464223902E+02 -0.15374202916E+01  0.76729717161E+02  0.00000000000E+00 0. -1.
<mgrwt>
<rscale>  1 0.65935720E+03</rscale>
<asrwt>0</asrwt>
<pdfrwt beam="1">  1       21 0.23186261E-01 0.65935720E+03</pdfrwt>
<pdfrwt beam="2">0</pdfrwt>
<totfact> 0.16861301E+03</totfact>
</mgrwt>
</event>
<event>
 6    1  0.1347953E-004  0.6552784E+03  0.7818608E-02  0.9796925E-01
         21   -1    0    0  501  502  0.00000000000E+00  0.00000000000E+00  0.12191327558E+03  0.12191327558E+03  0.00000000000E+00 0. -1.
         13   -1    0    0    0    0 -0.00000000000E+00 -0.00000000000E+00 -0.10000000000E+04  0.10000000000E+04  0.00000000000E+00 0.  1.
    9000005    2    1    2  501    0  0.10670670691E+02  0.39838458954E+02 -0.84327226603E+03  0.10679409444E+04  0.65397918924E+03 0.  0.
         13    1    3    3    0    0  0.19345923036E+02 -0.21713082978E+03 -0.77047326315E+03  0.80071787242E+03  0.00000000000E+00 0.  1.
          1    1    3    3  501    0 -0.86752523453E+01  0.25696928874E+03 -0.72799002880E+02  0.26722307194E+03  0.00000000000E+00 0.  1.
         -3    1    1    2    0  502 -0.10670670691E+02 -0.39838458954E+02 -0.34814458387E+02  0.53972331223E+02  0.00000000000E+00 0. -1.
<mgrwt>
<rscale>  1 0.65527837E+03</rscale>
<asrwt>0</asrwt>
<pdfrwt beam="1">  1       21 0.18755888E-01 0.65527837E+03</pdfrwt>
<pdfrwt beam="2">0</pdfrwt>
<totfact> 0.25369791E+03</totfact>
</mgrwt>
</event>
<event>
 6    1  0.1347953E-004  0.6440741E+03  0.7818608E-02  0.9817963E-01
         21   -1    0    0  501  502  0.00000000000E+00  0.00000000000E+00  0.12484822638E+03  0.12484822638E+03  0.00000000000E+00 0.  1.
         13   -1    0    0    0    0 -0.00000000000E+00 -0.00000000000E+00 -0.10000000000E+04  0.10000000000E+04  0.00000000000E+00 0.  1.
    9000005    2    1    2  501    0  0.10776312703E+02  0.19369333361E+02 -0.88968066611E+03  0.10983456094E+04  0.64369254308E+03 0.  0.
         13    1    3    3    0    0 -0.19148539239E+03 -0.36592264596E+02 -0.11337683693E+02  0.19527977980E+03  0.00000000000E+00 0.  1.
          1    1    3    3  501    0  0.20226170510E+03  0.55961597957E+02 -0.87834298242E+03  0.90306582958E+03  0.00000000000E+00 0.  1.
         -1    1    1    2    0  502 -0.10776312703E+02 -0.19369333361E+02  0.14528892491E+02  0.26502616990E+02  0.00000000000E+00 0. -1.
<mgrwt>
<rscale>  1 0.64407406E+03</rscale>
<asrwt>0</asrwt>
<pdfrwt beam="1">  1       21 0.19207419E-01 0.64407406E+03</pdfrwt>
<pdfrwt beam="2">0</pdfrwt>
<totfact> 0.24253729E+03</totfact>
</mgrwt>
</event>
<event>
 6    1  0.1347953E-004  0.7121085E+03  0.7818608E-02  0.9696746E-01
         21   -1    0    0  501  502  0.00000000000E+00  0.00000000000E+00  0.34200582698E+03  0.34200582698E+03  0.00000000000E+00 0. -1.
         13   -1    0    0    0    0 -0.00000000000E+00 -0.00000000000E+00 -0.10000000000E+04  0.10000000000E+04  0.00000000000E+00 0.  1.
    9000005    2    1    2  501    0 -0.15403239411E+03  0.23582168036E+03 -0.76088248120E+03  0.10421327750E+04  0.65403419414E+03 0.  0.
         13    1    3    3    0    0  0.15233327231E+03 -0.93391416698E+02 -0.25994113641E+02  0.18056322025E+03  0.00000000000E+00 0.  1.
          3    1    3    3  501    0 -0.30636566642E+03  0.32921309706E+03 -0.73488836756E+03  0.86156955471E+03  0.00000000000E+00 0.  1.
         -1    1    1    2    0  502  0.15403239411E+03 -0.23582168036E+03  0.10288830818E+03  0.29987305202E+03  0.00000000000E+00 0. -1.
<mgrwt>
<rscale>  1 0.71210854E+03</rscale>
<asrwt>0</asrwt>
<pdfrwt beam="1">  1       21 0.52616280E-01 0.71210854E+03</pdfrwt>
<pdfrwt beam="2">0</pdfrwt>
<totfact> 0.31419018E+02</totfact>
</mgrwt>
</event>
<event>
 6    1  0.1347953E-004  0.4612851E+03  0.7818608E-02  0.1024409E+00
         21   -1    0    0  501  502  0.00000000000E+00  0.00000000000E+00  0.71855932656E+02  0.71855932656E+02  0.00000000000E+00 0.  1.
         13   -1    0    0    0    0 -0.00000000000E+00 -0.00000000000E+00 -0.10000000000E+04  0.10000000000E+04  0.00000000000E+00 0.  1.
    9000005    2    1    2  501    0 -0.27844534463E+02  0.23879296397E+02 -0.92668319617E+03  0.10351452661E+04  0.45982435442E+03 0.  0.
         13    1    3    3    0    0 -0.18248946362E+03 -0.67711625947E+02 -0.77771346258E+03  0.80170162685E+03  0.00000000000E+00 0.  1.
          1    1    3    3  501    0  0.15464492915E+03  0.91590922344E+02 -0.14896973359E+03  0.23344363923E+03  0.00000000000E+00 0.  1.
         -3    1    1    2    0  502  0.27844534463E+02 -0.23879296397E+02 -0.14608711695E+01  0.36710666576E+02  0.00000000000E+00 0. -1.
<mgrwt>
<rscale>  1 0.46128514E+03</rscale>
<asrwt>0</asrwt>
<pdfrwt beam="1">  1       21 0.11054759E-01 0.46128514E+03</pdfrwt>
<pdfrwt beam="2">0</pdfrwt>
<totfact> 0.68014099E+03</totfact>
</mgrwt>
</event>
<event>
 6    1  0.1347953E-004  0.6664104E+03  0.7818608E-02  0.9776464E-01
         21   -1    0    0  501  502  0.00000000000E+00  0.00000000000E+00  0.56963716116E+03  0.56963716116E+03  0.00000000000E+00 0. -1.
         13   -1    0    0    0    0 -0.00000000000E+00 -0.00000000000E+00 -0.10000000000E+04  0.10000000000E+04  0.00000000000E+00 0.  1.
    9000005    2    1    2  501    0  0.66674134786E+02  0.10073733368E+03 -0.88011146963E+03  0.11039470480E+04  0.65536969343E+03 0.  0.
         13    1    3    3    0    0  0.33900312282E+03  0.30410042684E+01 -0.28761446151E+03  0.44458344937E+03  0.00000000000E+00 0.  1.
          1    1    3    3  501    0 -0.27232898803E+03  0.97696329415E+02 -0.59249700812E+03  0.65936359858E+03  0.00000000000E+00 0.  1.
         -3    1    1    2    0  502 -0.66674134786E+02 -0.10073733368E+03  0.44974863078E+03  0.46569011321E+03  0.00000000000E+00 0. -1.
<mgrwt>
<rscale>  1 0.66641045E+03</rscale>
<asrwt>0</asrwt>
<pdfrwt beam="1">  1       21 0.87636484E-01 0.66641045E+03</pdfrwt>
<pdfrwt beam="2">0</pdfrwt>
<totfact> 0.99480164E+01</totfact>
</mgrwt>
</event>
<event>
 6    1  0.1347953E-004  0.6515970E+03  0.7818608E-02  0.9803787E-01
         21   -1    0    0  501  502  0.00000000000E+00  0.00000000000E+00  0.11928696204E+03  0.11928696204E+03  0.00000000000E+00 0.  1.
         13   -1    0    0    0    0 -0.00000000000E+00 -0.00000000000E+00 -0.10000000000E+04  0.10000000000E+04  0.00000000000E+00 0.  1.
    9000005    2    1    2  501    0 -0.47065575413E+00 -0.28635222986E+02 -0.87348501927E+03  0.10897498368E+04  0.65096730366E+03 0.  0.
         13    1    3    3    0    0 -0.29113346798E+03 -0.76752751641E+02 -0.66149121016E+03  0.72678765962E+03  0.00000000000E+00 0.  1.
          3    1    3    3  501    0  0.29066281222E+03  0.48117528654E+02 -0.21199380912E+03  0.36296217720E+03  0.00000000000E+00 0.  1.
         -3    1    1    2    0  502  0.47065575413E+00  0.28635222986E+02 -0.72280186878E+01  0.29537125223E+02  0.00000000000E+00 0. -1.
<mgrwt>
<rscale>  1 0.65159698E+03</rscale>
<asrwt>0</asrwt>
<pdfrwt beam="1">  1       21 0.18351840E-01 0.65159698E+03</pdfrwt>
<pdfrwt beam="2">0</pdfrwt>
<totfact> 0.26446642E+03</totfact>
</mgrwt>
</event>
<event>
 6    1  0.1347953E-004  0.7121989E+03  0.7818608E-02  0.9696595E-01
         21   -1    0    0  501  502  0.00000000000E+00  0.00000000000E+00  0.24712925002E+03  0.24712925002E+03  0.00000000000E+00 0. -1.
         13   -1    0    0    0    0 -0.00000000000E+00 -0.00000000000E+00 -0.10000000000E+04  0.10000000000E+04  0.00000000000E+00 0.  1.
    9000005    2    1    2  501    0  0.19213571129E+03 -0.17932638620E+03 -0.65213951015E+03  0.96566723302E+03  0.66193140119E+03 0.  0.
         13    1    3    3    0    0 -0.15826878482E+02 -0.38833921630E+03 -0.50177161535E+03  0.63469094130E+03  0.00000000000E+00 0.  1.
          1    1    3    3  501    0  0.20796258977E+03  0.20901283010E+03 -0.15036789481E+03  0.33097629172E+03  0.00000000000E+00 0.  1.
         -3    1    1    2    0  502 -0.19213571129E+03  0.17932638620E+03 -0.10073123983E+03  0.28146201701E+03  0.00000000000E+00 0. -1.
<mgrwt>
<rscale>  1 0.71219889E+03</rscale>
<asrwt>0</asrwt>
<pdfrwt beam="1">  1       21 0.38019884E-01 0.71219889E+03</pdfrwt>
<pdfrwt beam="2">0</pdfrwt>
<totfact> 0.62438713E+02</totfact>
</mgrwt>
</event>
<event>
 6    1  0.1347953E-004  0.6220448E+03  0.7818608E-02  0.9860697E-01
         21   -1    0    0  501  502  0.00000000000E+00  0.00000000000E+00  0.14646293437E+03  0.14646293437E+03  0.00000000000E+00 0.  1.
         13   -1    0    0    0    0 -0.00000000000E+00 -0.00000000000E+00 -0.10000000000E+04  0.10000000000E+04  0.00000000000E+00 0.  1.
    9000005    2    1    2  501    0  0.29338276945E+02 -0.52604432877E+01 -0.89832119971E+03  0.10926667875E+04  0.62133028561E+03 0.  0.
         13    1    3    3    0    0  0.26564337672E+03  0.14241516311E+03 -0.26731518112E+03  0.40287204958E+03  0.00000000000E+00 0.  1.
          3    1    3    3  501    0 -0.23630509978E+03 -0.14767560640E+03 -0.63100601859E+03  0.68979473788E+03  0.00000000000E+00 0.  1.
         -1    1    1    2    0  502 -0.29338276945E+02  0.52604432877E+01  0.44784134076E+02  0.53796146912E+02  0.00000000000E+00 0. -1.
<mgrwt>
<rscale>  1 0.62204480E+03</rscale>
<asrwt>0</asrwt>
<pdfrwt beam="1">  1       21 0.22532758E-01 0.62204480E+03</pdfrwt>
<pdfrwt beam="2">0</pdfrwt>
<totfact> 0.17855550E+03</totfact>
</mgrwt>
</event>
<event>
 6    1  0.1347953E-004  0.4971537E+03  0.7818608E-02  0.1014525E+00
         21   -1    0    0  501  502  0.00000000000E+00  0.00000000000E+00  0.13154397995E+03  0.13154397995E+03  0.00000000000E+00 0.  1.
         13   -1    0    0    0    0 -0.00000000000E+00 -0.00000000000E+00 -0.10000000000E+04  0.10000000000E+04  0.00000000000E+00 0.  1.
    9000005    2    1    2  501    0  0.55636785830E+00 -0.33768887958E+02 -0.93385186794E+03  0.10579419130E+04  0.49600517404E+03 0.  0.
         13    1    3    3    0    0 -0.18627842121E+03  0.82909883196E+02 -0.72955406406E+03  0.75751094469E+03  0.00000000000E+00 0.  1.
          1    1    3    3  501    0  0.18683478907E+03 -0.11667877115E+03 -0.20429780388E+03  0.30043096831E+03  0.00000000000E+00 0.  1.
         -3    1    1    2    0  502 -0.55636785830E+00  0.33768887958E+02  0.65395847886E+02  0.73602066953E+02  0.00000000000E+00 0. -1.
<mgrwt>
<rscale>  1 0.49715368E+03</rscale>
<asrwt>0</asrwt>
<pdfrwt beam="1">  1       21 0.20237535E-01 0.49715368E+03</pdfrwt>
<pdfrwt beam="2">0</pdfrwt>
<totfact> 0.22090573E+03</totfact>
</mgrwt>
</event>
<event>
 6    1  0.1347953E-004  0.6592495E+03  0.7818608E-02  0.9789576E-01
         21   -1    0    0  501  502  0.00000000000E+00  0.00000000000E+00  0.36914475356E+03  0.36914475356E+03  0.00000000000E+00 0. -1.
         13   -1    0    0    0    0 -0.00000000000E+00 -0.00000000000E+00 -0.10000000000E+04  0.10000000000E+04  0.00000000000E+00 0.  1.
    9000005    2    1    2  501    0  0.24556234946E+02 -0.12084399914E+02 -0.89055024211E+03  0.11080115841E+04  0.65868117891E+03 0.  0.
         13    1    3    3    0    0  0.18640828043E+03  0.24894971425E+03 -0.25516293142E+03  0.40228364223E+03  0.00000000000E+00 0.  1.
          3    1    3    3  501    0 -0.16185204548E+03 -0.26103411417E+03 -0.63538731069E+03  0.70572794190E+03  0.00000000000E+00 0.  1.
         -3    1    1    2    0  502 -0.24556234946E+02  0.12084399914E+02  0.25969499568E+03  0.26113316943E+03  0.00000000000E+00 0. -1.
<mgrwt>
<rscale>  1 0.65924953E+03</rscale>
<asrwt>0</asrwt>
<pdfrwt beam="1">  1       21 0.56791499E-01 0.65924953E+03</pdfrwt>
<pdfrwt beam="2">0</pdfrwt>
<totfact> 0.26745392E+02</totfact>
</mgrwt>
</event>
<event>
 6    1  0.1347953E-004  0.6757705E+03  0.7818608E-02  0.9759589E-01
         21   -1    0    0  501  502  0.00000000000E+00  0.00000000000E+00  0.21222380645E+03  0.21222380645E+03  0.00000000000E+00 0.  1.
         13   -1    0    0    0    0 -0.00000000000E+00 -0.00000000000E+00 -0.10000000000E+04  0.10000000000E+04  0.00000000000E+00 0.  1.
    9000005    2    1    2  501    0  0.95446858020E+02 -0.16593710588E+03 -0.76294398849E+03  0.10191904823E+04  0.64808987331E+03 0.  0.
         13    1    3    3    0    0  0.23747883259E+03  0.15239920853E+03 -0.16449052111E+03  0.32661727790E+03  0.00000000000E+00 0.  1.
          1    1    3    3  501    0 -0.14203197457E+03 -0.31833631441E+03 -0.59845346738E+03  0.69257320443E+03  0.00000000000E+00 0.  1.
         -3    1    1    2    0  502 -0.95446858020E+02  0.16593710588E+03 -0.24832205061E+02  0.19303332412E+03  0.00000000000E+00 0. -1.
<mgrwt>
<rscale>  1 0.67577046E+03</rscale>
<asrwt>0</asrwt>
<pdfrwt beam="1">  1       21 0.32649815E-01 0.67577046E+03</pdfrwt>
<pdfrwt beam="2">0</pdfrwt>
<totfact> 0.85442916E+02</totfact>
</mgrwt>
</event>
<event>
 6    1  0.1347953E-004  0.6414058E+03  0.7818608E-02  0.9823041E-01
         21   -1    0    0  501  502  0.00000000000E+00  0.00000000000E+00  0.12842417643E+03  0.12842417643E+03  0.00000000000E+00 0.  1.
         13   -1    0    0    0    0 -0.00000000000E+00 -0.00000000000E+00 -0.10000000000E+04  0.10000000000E+04  0.00000000000E+00 0.  1.
    9000005    2    1    2  501    0 -0.44482386365E+02  0.14116762873E+02 -0.87108433243E+03  0.10817529085E+04  0.63970577226E+03 0.  0.
         13    1    3    3    0    0  0.10915111707E+03  0.29859154544E+03 -0.41907978565E+03  0.52602161943E+03  0.00000000000E+00 0.  1.
          1    1    3    3  501    0 -0.15363350343E+03 -0.28447478257E+03 -0.45200454678E+03  0.55573128903E+03  0.00000000000E+00 0.  1.
         -1    1    1    2    0  502  0.44482386365E+02 -0.14116762873E+02 -0.49149113652E+00  0.46671267974E+02  0.00000000000E+00 0. -1.
<mgrwt>
<rscale>  1 0.64140583E+03</rscale>
<asrwt>0</asrwt>
<pdfrwt beam="1">  1       21 0.19757565E-01 0.64140583E+03</pdfrwt>
<pdfrwt beam="2">0</pdfrwt>
<totfact> 0.22980918E+03</totfact>
</mgrwt>
</event>
<event>
 6    1  0.1347953E-004  0.6512688E+03  0.7818608E-02  0.9804401E-01
         21   -1    0    0  501  502  0.00000000000E+00  0.00000000000E+00  0.15296473417E+03  0.15296473417E+03  0.00000000000E+00 0.  1.
         13   -1    0    0    0    0 -0.00000000000E+00 -0.00000000000E+00 -0.10000000000E+04  0.10000000000E+04  0.00000000000E+00 0.  1.
    9000005    2    1    2  501    0 -0.93685910466E+02 -0.35527528534E+02 -0.82374295077E+03  0.10500969207E+04  0.64351522039E+03 0.  0.
         13    1    3    3    0    0  0.23589063629E+03 -0.26135621771E+02 -0.10536916913E+03  0.25967311147E+03  0.00000000000E+00 0.  1.
          1    1    3    3  501    0 -0.32957654676E+03 -0.93919067623E+01 -0.71837378164E+03  0.79042380926E+03  0.00000000000E+00 0.  1.
         -1    1    1    2    0  502  0.93685910466E+02  0.35527528534E+02 -0.23292315058E+02  0.10286781345E+03  0.00000000000E+00 0. -1.
<mgrwt>
<rscale>  1 0.65126883E+03</rscale>
<asrwt>0</asrwt>
<pdfrwt beam="1">  1       21 0.23533035E-01 0.65126883E+03</pdfrwt>
<pdfrwt beam="2">0</pdfrwt>
<totfact> 0.16387250E+03</totfact>
</mgrwt>
</event>
<event>
 6    1  0.1347953E-004  0.6706789E+03  0.7818608E-02  0.9768732E-01
         21   -1    0    0  501  502  0.00000000000E+00  0.00000000000E+00  0.25166108715E+03  0.25166108715E+03  0.00000000000E+00 0. -1.
         13   -1    0    0    0    0 -0.00000000000E+00 -0.00000000000E+00 -0.10000000000E+04  0.10000000000E+04  0.00000000000E+00 0.  1.
    9000005    2    1    2  501    0 -0.35502592221E+02  0.11991687057E+03 -0.85543852938E+03  0.10870074575E+04  0.65891550685E+03 0.  0.
         13    1    3    3    0    0  0.14111967013E+03  0.34930130575E+03 -0.42104685081E+03  0.56498372903E+03  0.00000000000E+00 0.  1.
          3    1    3    3  501    0 -0.17662226235E+03 -0.22938443517E+03 -0.43439167856E+03  0.52202372845E+03  0.00000000000E+00 0.  1.
         -3    1    1    2    0  502  0.35502592221E+02 -0.11991687057E+03  0.10709961652E+03  0.16465362967E+03  0.00000000000E+00 0. -1.
<mgrwt>
<rscale>  1 0.67067886E+03</rscale>
<asrwt>0</asrwt>
<pdfrwt beam="1">  1       21 0.38717089E-01 0.67067886E+03</pdfrwt>
<pdfrwt beam="2">0</pdfrwt>
<totfact> 0.60322994E+02</totfact>
</mgrwt>
</event>
<event>
 6    1  0.1347953E-004  0.6546912E+03  0.7818608E-02  0.9798016E-01
         21   -1    0    0  501  502  0.00000000000E+00  0.00000000000E+00  0.18169732822E+03  0.18169732822E+03  0.00000000000E+00 0.  1.
         13   -1    0    0    0    0 -0.00000000000E+00 -0.00000000000E+00 -0.10000000000E+04  0.10000000000E+04  0.00000000000E+00 0.  1.
    9000005    2    1    2  501    0  0.51075039322E+02 -0.49868723036E+02 -0.87339221646E+03  0.10915285581E+04  0.65078804546E+03 0.  0.
         13    1    3    3    0    0 -0.20980102276E+03 -0.24115092077E+03 -0.53628558775E+03  0.62431760136E+03  0.00000000000E+00 0.  1.
          1    1    3    3  501    0  0.26087606208E+03  0.19128219774E+03 -0.33710662871E+03  0.46721095670E+03  0.00000000000E+00 0.  1.
         -3    1    1    2    0  502 -0.51075039322E+02  0.49868723036E+02  0.55089544675E+02  0.90168770156E+02  0.00000000000E+00 0. -1.
<mgrwt>
<rscale>  1 0.65469125E+03</rscale>
<asrwt>0</asrwt>
<pdfrwt beam="1">  1       21 0.27953434E-01 0.65469125E+03</pdfrwt>
<pdfrwt beam="2">0</pdfrwt>
<totfact> 0.11679995E+03</totfact>
</mgrwt>
</event>
<event>
 6    1  0.1347953E-004  0.6456957E+03  0.7818608E-02  0.9814890E-01
         21   -1    0    0  501  502  0.00000000000E+00  0.00000000000E+00  0.19296221023E+03  0.19296221023E+03  0.00000000000E+00 0. -1.
         13   -1    0    0    0    0 -0.00000000000E+00 -0.00000000000E+00 -0.10000000000E+04  0.10000000000E+04  0.00000000000E+00 0.  1.
    9000005    2    1    2  501    0 -0.10030882010E+03  0.17909273864E+03 -0.72776654288E+03  0.97291676264E+03  0.61219834830E+03 0.  0.
         13    1    3    3    0    0 -0.17329894780E+03  0.27492591472E+03 -0.77742513125E+03  0.84261890472E+03  0.00000000000E+00 0.  1.
          1    1    3    3  501    0  0.72990127699E+02 -0.95833176078E+02  0.49658588370E+02  0.13029785792E+03  0.00000000000E+00 0.  1.
         -1    1    1    2    0  502  0.10030882010E+03 -0.17909273864E+03 -0.79271246882E+02  0.22004544759E+03  0.00000000000E+00 0. -1.
<mgrwt>
<rscale>  1 0.64569566E+03</rscale>
<asrwt>0</asrwt>
<pdfrwt beam="1">  1       21 0.29686493E-01 0.64569566E+03</pdfrwt>
<pdfrwt beam="2">0</pdfrwt>
<totfact> 0.10366280E+03</totfact>
</mgrwt>
</event>
<event>
 6    1  0.1347953E-004  0.6333888E+03  0.7818608E-02  0.9838458E-01
         21   -1    0    0  501  502  0.00000000000E+00  0.00000000000E+00  0.13453709153E+03  0.13453709153E+03  0.00000000000E+00 0.  1.
         13   -1    0    0    0    0 -0.00000000000E+00 -0.00000000000E+00 -0.10000000000E+04  0.10000000000E+04  0.00000000000E+00 0.  1.
    9000005    2    1    2  501    0 -0.55423473624E+01 -0.94534042143E+02 -0.79518216572E+03  0.10166100567E+04  0.62626985238E+03 0.  0.
         13    1    3    3    0    0  0.91883029074E+02  0.16177350021E+02  0.83761510315E+02  0.12538017505E+03  0.00000000000E+00 0.  1.
          1    1    3    3  501    0 -0.97425376436E+02 -0.11071139216E+03 -0.87894367604E+03  0.89122988167E+03  0.00000000000E+00 0.  1.
         -1    1    1    2    0  502  0.55423473624E+01  0.94534042143E+02 -0.70280742746E+02  0.11792703481E+03  0.00000000000E+00 0. -1.
<mgrwt>
<rscale>  1 0.63338877E+03</rscale>
<asrwt>0</asrwt>
<pdfrwt beam="1">  1       21 0.20698013E-01 0.63338877E+03</pdfrwt>
<pdfrwt beam="2">0</pdfrwt>
<totfact> 0.21025984E+03</totfact>
</mgrwt>
</event>
<event>
 6    1  0.1347953E-004  0.6479321E+03  0.7818608E-02  0.9810667E-01
         21   -1    0    0  501  502  0.00000000000E+00  0.00000000000E+00  0.18996943961E+03  0.18996943961E+03  0.00000000000E+00 0. -1.
         13   -1    0    0    0    0 -0.00000000000E+00 -0.00000000000E+00 -0.10000000000E+04  0.10000000000E+04  0.00000000000E+00 0.  1.
    9000005    2    1    2  501    0 -0.34848589117E+02 -0.30861151420E+02 -0.88794436275E+03  0.10992093414E+04  0.64625780463E+03 0.  0.
         13    1    3    3    0    0  0.89673665832E+02  0.19111486206E+03 -0.41265045759E+02  0.21510244268E+03  0.00000000000E+00 0.  1.
          1    1    3    3  501    0 -0.12452225495E+03 -0.22197601348E+03 -0.84667931699E+03  0.88410689871E+03  0.00000000000E+00 0.  1.
         -1    1    1    2    0  502  0.34848589117E+02  0.30861151420E+02  0.77913802356E+02  0.90760098215E+02  0.00000000000E+00 0. -1.
<mgrwt>
<rscale>  1 0.64793208E+03</rscale>
<asrwt>0</asrwt>
<pdfrwt beam="1">  1       21 0.29226067E-01 0.64793208E+03</pdfrwt>
<pdfrwt beam="2">0</pdfrwt>
<totfact> 0.10693571E+03</totfact>
</mgrwt>
</event>
<event>
 6    1  0.1347953E-004  0.6830440E+03  0.7818608E-02  0.9746677E-01
         21   -1    0    0  501  502  0.00000000000E+00  0.00000000000E+00  0.38825308965E+03  0.38825308965E+03  0.00000000000E+00 0. -1.
         13   -1    0    0    0    0 -0.00000000000E+00 -0.00000000000E+00 -0.10000000000E+04  0.10000000000E+04  0.00000000000E+00 0.  1.
    9000005    2    1    2  501    0 -0.14255181764E+03 -0.15054534214E+03 -0.83817564973E+03  0.10812434892E+04  0.65081805628E+03 0.  0.
         13    1    3    3    0    0  0.25735960141E+03 -0.10966992821E+03 -0.37698383701E+03  0.46944464099E+03  0.00000000000E+00 0.  1.
          3    1    3    3  501    0 -0.39991141905E+03 -0.40875413931E+02 -0.46119181272E+03  0.61179884820E+03  0.00000000000E+00 0.  1.
         -1    1    1    2    0  502  0.14255181764E+03  0.15054534214E+03  0.22642873938E+03  0.30700960046E+03  0.00000000000E+00 0. -1.
<mgrwt>
<rscale>  1 0.68304397E+03</rscale>
<asrwt>0</asrwt>
<pdfrwt beam="1">  1       21 0.59731243E-01 0.68304397E+03</pdfrwt>
<pdfrwt beam="2">0</pdfrwt>
<totfact> 0.23876526E+02</totfact>
</mgrwt>
</event>
<event>
 6    1  0.1347953E-004  0.6722522E+03  0.7818608E-02  0.9765898E-01
         21   -1    0    0  501  502  0.00000000000E+00  0.00000000000E+00  0.19940529310E+03  0.19940529310E+03  0.00000000000E+00 0.  1.
         13   -1    0    0    0    0 -0.00000000000E+00 -0.00000000000E+00 -0.10000000000E+04  0.10000000000E+04  0.00000000000E+00 0.  1.
    9000005    2    1    2  501    0 -0.23825866163E+01  0.47960549955E+02 -0.87952388175E+03  0.11070164100E+04  0.67053499718E+03 0.  0.
         13    1    3    3    0    0  0.18049052863E+03  0.98377400842E+02 -0.89346730285E+03  0.91680901238E+03  0.00000000000E+00 0.  1.
          3    1    3    3  501    0 -0.18287311524E+03 -0.50416850887E+02  0.13943421092E+02  0.19020739766E+03  0.00000000000E+00 0.  1.
         -3    1    1    2    0  502  0.23825866163E+01 -0.47960549955E+02  0.78929174850E+02  0.92388883062E+02  0.00000000000E+00 0. -1.
<mgrwt>
<rscale>  1 0.67225224E+03</rscale>
<asrwt>0</asrwt>
<pdfrwt beam="1">  1       21 0.30677737E-01 0.67225224E+03</pdfrwt>
<pdfrwt beam="2">0</pdfrwt>
<totfact> 0.96898884E+02</totfact>
</mgrwt>
</event>
<event>
 6    1  0.1347953E-004  0.6553249E+03  0.7818608E-02  0.9796838E-01
         21   -1    0    0  501  502  0.00000000000E+00  0.00000000000E+00  0.53228540376E+03  0.53228540376E+03  0.00000000000E+00 0. -1.
         13   -1    0    0    0    0 -0.00000000000E+00 -0.00000000000E+00 -0.10000000000E+04  0.10000000000E+04  0.00000000000E+00 0.  1.
    9000005    2    1    2  501    0  0.29576578514E+02 -0.21156812298E+02 -0.89177553386E+03  0.11066681302E+04  0.65431518627E+03 0.  0.
         13    1    3    3    0    0  0.11775449138E+03 -0.31922182239E+03 -0.40297434520E+03  0.52740593002E+03  0.00000000000E+00 0.  1.
          1    1    3    3  501    0 -0.88177912870E+02  0.29806501009E+03 -0.48880118866E+03  0.57926220022E+03  0.00000000000E+00 0.  1.
         -3    1    1    2    0  502 -0.29576578514E+02  0.21156812298E+02  0.42406093763E+03  0.42561727353E+03  0.00000000000E+00 0. -1.
<mgrwt>
<rscale>  1 0.65532492E+03</rscale>
<asrwt>0</asrwt>
<pdfrwt beam="1">  1       21 0.81890060E-01 0.65532492E+03</pdfrwt>
<pdfrwt beam="2">0</pdfrwt>
<totfact> 0.11691937E+02</totfact>
</mgrwt>
</event>
<event>
 6    1  0.1347953E-004  0.6319639E+03  0.7818608E-02  0.9841224E-01
         21   -1    0    0  501  502  0.00000000000E+00  0.00000000000E+00  0.25726915815E+03  0.25726915815E+03  0.00000000000E+00 0. -1.
         13   -1    0    0    0    0 -0.00000000000E+00 -0.00000000000E+00 -0.10000000000E+04  0.10000000000E+04  0.00000000000E+00 0.  1.
    9000005    2    1    2  501    0  0.31557682646E+02  0.25919382279E+02 -0.89723692249E+03  0.10974572979E+04  0.63064310351E+03 0.  0.
         13    1    3    3    0    0 -0.18413474931E+03  0.69175002835E+02 -0.25445763005E+02  0.19833878535E+03  0.00000000000E+00 0.  1.
          3    1    3    3  501    0  0.21569243196E+03 -0.43255620557E+02 -0.87179115948E+03  0.89911851258E+03  0.00000000000E+00 0.  1.
         -1    1    1    2    0  502 -0.31557682646E+02 -0.25919382279E+02  0.15450608064E+03  0.15981186022E+03  0.00000000000E+00 0. -1.
<mgrwt>
<rscale>  1 0.63196394E+03</rscale>
<asrwt>0</asrwt>
<pdfrwt beam="1">  1       21 0.39579869E-01 0.63196394E+03</pdfrwt>
<pdfrwt beam="2">0</pdfrwt>
<totfact> 0.57811474E+02</totfact>
</mgrwt>
</event>
<event>
 6    1  0.1347953E-004  0.6577207E+03  0.7818608E-02  0.9792399E-01
         21   -1    0    0  501  502  0.00000000000E+00  0.00000000000E+00  0.12868766554E+03  0.12868766554E+03  0.00000000000E+00 0.  1.
         13   -1    0    0    0    0 -0.00000000000E+00 -0.00000000000E+00 -0.10000000000E+04  0.10000000000E+04  0.00000000000E+00 0.  1.
    9000005    2    1    2  501    0 -0.16245123615E+02 -0.57487574093E+02 -0.79807544755E+03  0.10341764661E+04  0.65500215100E+03 0.  0.
         13    1    3    3    0    0 -0.26927721245E+03  0.16878174081E+03 -0.40554304795E+03  0.51523068320E+03  0.00000000000E+00 0.  1.
          3    1    3    3  501    0  0.25303208883E+03 -0.22626931490E+03 -0.39253239961E+03  0.51894578289E+03  0.00000000000E+00 0.  1.
         -1    1    1    2    0  502  0.16245123615E+02  0.57487574093E+02 -0.73236886908E+02  0.94511199444E+02  0.00000000000E+00 0. -1.
<mgrwt>
<rscale>  1 0.65772072E+03</rscale>
<asrwt>0</asrwt>
<pdfrwt beam="1">  1       21 0.19798102E-01 0.65772072E+03</pdfrwt>
<pdfrwt beam="2">0</pdfrwt>
<totfact> 0.22876458E+03</totfact>
</mgrwt>
</event>
<event>
 6    1  0.1347953E-004  0.6547095E+03  0.7818608E-02  0.9797982E-01
         21   -1    0    0  501  502  0.00000000000E+00  0.00000000000E+00  0.19270541462E+03  0.19270541462E+03  0.00000000000E+00 0.  1.
         13   -1    0    0    0    0 -0.00000000000E+00 -0.00000000000E+00 -0.10000000000E+04  0.10000000000E+04  0.00000000000E+00 0.  1.
    9000005    2    1    2  501    0  0.12113245312E+03  0.16520133210E+03 -0.71043920145E+03  0.96610992322E+03  0.62183596991E+03 0.  0.
         13    1    3    3    0    0 -0.14815008972E+03  0.28069756933E+03 -0.19299265758E+03  0.37146431914E+03  0.00000000000E+00 0.  1.
          1    1    3    3  501    0  0.26928254284E+03 -0.11549623723E+03 -0.51744654387E+03  0.59464560408E+03  0.00000000000E+00 0.  1.
         -3    1    1    2    0  502 -0.12113245312E+03 -0.16520133210E+03 -0.96855383927E+02  0.22659549140E+03  0.00000000000E+00 0. -1.
<mgrwt>
<rscale>  1 0.65470950E+03</rscale>
<asrwt>0</asrwt>
<pdfrwt beam="1">  1       21 0.29646986E-01 0.65470950E+03</pdfrwt>
<pdfrwt beam="2">0</pdfrwt>
<totfact> 0.10388086E+03</totfact>
</mgrwt>
</event>
<event>
 6    1  0.1347953E-004  0.6288631E+03  0.7818608E-02  0.9847270E-01
         21   -1    0    0  501  502  0.00000000000E+00  0.00000000000E+00  0.12270611938E+03  0.12270611938E+03  0.00000000000E+00 0.  1.
         13   -1    0    0    0    0 -0.00000000000E+00 -0.00000000000E+00 -0.10000000000E+04  0.10000000000E+04  0.00000000000E+00 0.  1.
    9000005    2    1    2  501    0 -0.32183362255E+00  0.38400217105E+02 -0.88282904286E+03  0.10839076881E+04  0.62768947506E+03 0.  0.
         13    1    3    3    0    0 -0.13135645243E+03  0.28522447455E+03 -0.28532971521E+03  0.42428830393E+03  0.00000000000E+00 0.  1.
          1    1    3    3  501    0  0.13103461880E+03 -0.24682425744E+03 -0.59749932765E+03  0.65961938414E+03  0.00000000000E+00 0.  1.
         -3    1    1    2    0  502  0.32183362255E+00 -0.38400217105E+02  0.55351622374E+01  0.38798431303E+02  0.00000000000E+00 0. -1.
<mgrwt>
<rscale>  1 0.62886307E+03</rscale>
<asrwt>0</asrwt>
<pdfrwt beam="1">  1       21 0.18877864E-01 0.62886307E+03</pdfrwt>
<pdfrwt beam="2">0</pdfrwt>
<totfact> 0.25082186E+03</totfact>
</mgrwt>
</event>
<event>
 6    1  0.1347953E-004  0.6509582E+03  0.7818608E-02  0.9804983E-01
         21   -1    0    0  501  502  0.00000000000E+00  0.00000000000E+00  0.16435043318E+03  0.16435043318E+03  0.00000000000E+00 0. -1.
         13   -1    0    0    0    0 -0.00000000000E+00 -0.00000000000E+00 -0.10000000000E+04  0.10000000000E+04  0.00000000000E+00 0.  1.
    9000005    2    1    2  501    0 -0.82853742021E+02 -0.35032142645E+02 -0.85271971755E+03  0.10727896139E+04  0.64471283946E+03 0.  0.
         13    1    3    3    0    0  0.10880857956E+03  0.85195183725E+02 -0.83443610402E+03  0.84580206787E+03  0.00000000000E+00 0.  1.
          1    1    3    3  501    0 -0.19166232158E+03 -0.12022732637E+03 -0.18283613527E+02  0.22698754601E+03  0.00000000000E+00 0.  1.
         -1    1    1    2    0  502  0.82853742021E+02  0.35032142645E+02  0.17070150725E+02  0.91560819300E+02  0.00000000000E+00 0. -1.
<mgrwt>
<rscale>  1 0.65095825E+03</rscale>
<asrwt>0</asrwt>
<pdfrwt beam="1">  1       21 0.25284681E-01 0.65095825E+03</pdfrwt>
<pdfrwt beam="2">0</pdfrwt>
<totfact> 0.14241180E+03</totfact>
</mgrwt>
</event>
<event>
 6    1  0.1347953E-004  0.6507869E+03  0.7818608E-02  0.9805304E-01
         21   -1    0    0  501  502  0.00000000000E+00  0.00000000000E+00  0.14036889892E+03  0.14036889892E+03  0.00000000000E+00 0.  1.
         13   -1    0    0    0    0 -0.00000000000E+00 -0.00000000000E+00 -0.10000000000E+04  0.10000000000E+04  0.00000000000E+00 0.  1.
    9000005    2    1    2  501    0 -0.59820270359E+01 -0.49559997367E+02 -0.87282366806E+03  0.10887353651E+04  0.64886944897E+03 0.  0.
         13    1    3    3    0    0 -0.27588875474E+03 -0.11653317627E+03 -0.69984617447E+03  0.76123534737E+03  0.00000000000E+00 0.  1.
          3    1    3    3  501    0  0.26990672771E+03  0.66973178904E+02 -0.17297749359E+03  0.32750001778E+03  0.00000000000E+00 0.  1.
         -1    1    1    2    0  502  0.59820270359E+01  0.49559997367E+02  0.13192566987E+02  0.51633533776E+02  0.00000000000E+00 0. -1.
<mgrwt>
<rscale>  1 0.65078686E+03</rscale>
<asrwt>0</asrwt>
<pdfrwt beam="1">  1       21 0.21595215E-01 0.65078686E+03</pdfrwt>
<pdfrwt beam="2">0</pdfrwt>
<totfact> 0.19360399E+03</totfact>
</mgrwt>
</event>
<event>
 6    1  0.1347953E-004  0.6550434E+03  0.7818608E-02  0.9797361E-01
         21   -1    0    0  501  502  0.00000000000E+00  0.00000000000E+00  0.25805920886E+03  0.25805920886E+03  0.00000000000E+00 0. -1.
         13   -1    0    0    0    0 -0.00000000000E+00 -0.00000000000E+00 -0.10000000000E+04  0.10000000000E+04  0.00000000000E+00 0.  1.
    9000005    2    1    2  501    0  0.10070451961E+03  0.65394150140E+02 -0.86571811786E+03  0.10856103128E+04  0.64394417191E+03 0.  0.
         13    1    3    3    0    0  0.25675667115E+02 -0.12269887313E+03  0.59307420470E+02  0.13867812903E+03  0.00000000000E+00 0.  1.
          1    1    3    3  501    0  0.75028852492E+02  0.18809302327E+03 -0.92502553833E+03  0.94693218377E+03  0.00000000000E+00 0.  1.
         -3    1    1    2    0  502 -0.10070451961E+03 -0.65394150140E+02  0.12377732671E+03  0.17244889605E+03  0.00000000000E+00 0. -1.
<mgrwt>
<rscale>  1 0.65504343E+03</rscale>
<asrwt>0</asrwt>
<pdfrwt beam="1">  1       21 0.39701416E-01 0.65504343E+03</pdfrwt>
<pdfrwt beam="2">0</pdfrwt>
<totfact> 0.57337717E+02</totfact>
</mgrwt>
</event>
<event>
 6    1  0.1347953E-004  0.6482723E+03  0.7818608E-02  0.9810026E-01
         21   -1    0    0  501  502  0.00000000000E+00  0.00000000000E+00  0.20583169364E+03  0.20583169364E+03  0.00000000000E+00 0. -1.
         13   -1    0    0    0    0 -0.00000000000E+00 -0.00000000000E+00 -0.10000000000E+04  0.10000000000E+04  0.00000000000E+00 0.  1.
    9000005    2    1    2  501    0 -0.14000829383E+02 -0.31107080264E+02 -0.89173482961E+03  0.11024735777E+04  0.64737416506E+03 0.  0.
         13    1    3    3    0    0  0.23943792316E+03  0.88577719011E+02 -0.12131487988E+03  0.28265496888E+03  0.00000000000E+00 0.  1.
          3    1    3    3  501    0 -0.25343875255E+03 -0.11968479927E+03 -0.77041994973E+03  0.81981860884E+03  0.00000000000E+00 0.  1.
         -3    1    1    2    0  502  0.14000829383E+02  0.31107080264E+02  0.97566523245E+02  0.10335811591E+03  0.00000000000E+00 0. -1.
<mgrwt>
<rscale>  1 0.64827231E+03</rscale>
<asrwt>0</asrwt>
<pdfrwt beam="1">  1       21 0.31666413E-01 0.64827231E+03</pdfrwt>
<pdfrwt beam="2">0</pdfrwt>
<totfact> 0.91049989E+02</totfact>
</mgrwt>
</event>
<event>
 6    1  0.1347953E-004  0.6581603E+03  0.7818608E-02  0.9791586E-01
         21   -1    0    0  501  502  0.00000000000E+00  0.00000000000E+00  0.13313263235E+03  0.13313263235E+03  0.00000000000E+00 0.  1.
         13   -1    0    0    0    0 -0.00000000000E+00 -0.00000000000E+00 -0.10000000000E+04  0.10000000000E+04  0.00000000000E+00 0.  1.
    9000005    2    1    2  501    0  0.55631011558E+01 -0.32998400396E+02 -0.87850716352E+03  0.10977020330E+04  0.65730896415E+03 0.  0.
         13    1    3    3    0    0 -0.22328813993E+02 -0.10853369087E+03  0.79462674395E+02  0.13635415142E+03  0.00000000000E+00 0.  1.
          1    1    3    3  501    0  0.27891915149E+02  0.75535290475E+02 -0.95796983792E+03  0.96134788157E+03  0.00000000000E+00 0.  1.
         -3    1    1    2    0  502 -0.55631011558E+01  0.32998400396E+02  0.11639795876E+02  0.35430599363E+02  0.00000000000E+00 0. -1.
<mgrwt>
<rscale>  1 0.65816025E+03</rscale>
<asrwt>0</asrwt>
<pdfrwt beam="1">  1       21 0.20481943E-01 0.65816025E+03</pdfrwt>
<pdfrwt beam="2">0</pdfrwt>
<totfact> 0.21432672E+03</totfact>
</mgrwt>
</event>
<event>
 6    1  0.1347953E-004  0.6651867E+03  0.7818608E-02  0.9778693E-01
         21   -1    0    0  501  502  0.00000000000E+00  0.00000000000E+00  0.24384810524E+03  0.24384810524E+03  0.00000000000E+00 0.  1.
         13   -1    0    0    0    0 -0.00000000000E+00 -0.00000000000E+00 -0.10000000000E+04  0.10000000000E+04  0.00000000000E+00 0.  1.
    9000005    2    1    2  501    0 -0.54428833894E+02 -0.12835084902E+03 -0.84735044715E+03  0.10772539446E+04  0.65041282463E+03 0.  0.
         13    1    3    3    0    0 -0.25454222566E+03  0.15455018827E+03 -0.26008763868E+03  0.39537714291E+03  0.00000000000E+00 0.  1.
          3    1    3    3  501    0  0.20011339177E+03 -0.28290103729E+03 -0.58726280847E+03  0.68187680168E+03  0.00000000000E+00 0.  1.
         -1    1    1    2    0  502  0.54428833894E+02  0.12835084902E+03  0.91198552388E+02  0.16659416065E+03  0.00000000000E+00 0. -1.
<mgrwt>
<rscale>  1 0.66518665E+03</rscale>
<asrwt>0</asrwt>
<pdfrwt beam="1">  1       21 0.37515092E-01 0.66518665E+03</pdfrwt>
<pdfrwt beam="2">0</pdfrwt>
<totfact> 0.64403645E+02</totfact>
</mgrwt>
</event>
<event>
 6    1  0.1347953E-004  0.6642744E+03  0.7818608E-02  0.9780357E-01
         21   -1    0    0  501  502  0.00000000000E+00  0.00000000000E+00  0.16440875280E+03  0.16440875280E+03  0.00000000000E+00 0. -1.
         13   -1    0    0    0    0 -0.00000000000E+00 -0.00000000000E+00 -0.10000000000E+04  0.10000000000E+04  0.00000000000E+00 0.  1.
    9000005    2    1    2  501    0  0.27964537591E+02  0.10393668897E+01 -0.88563477959E+03  0.11070724573E+04  0.66368468966E+03 0.  0.
         13    1    3    3    0    0 -0.93496391824E+02 -0.29217350619E+03 -0.24671613190E+03  0.39366963655E+03  0.00000000000E+00 0.  1.
          1    1    3    3  501    0  0.12146092942E+03  0.29321287308E+03 -0.63891864769E+03  0.71340282076E+03  0.00000000000E+00 0.  1.
         -1    1    1    2    0  502 -0.27964537591E+02 -0.10393668897E+01  0.50043532382E+02  0.57336295481E+02  0.00000000000E+00 0. -1.
<mgrwt>
<rscale>  1 0.66427439E+03</rscale>
<asrwt>0</asrwt>
<pdfrwt beam="1">  1       21 0.25293654E-01 0.66427439E+03</pdfrwt>
<pdfrwt beam="2">0</pdfrwt>
<totfact> 0.14221382E+03</totfact>
</mgrwt>
</event>
<event>
 6    1  0.1347953E-004  0.8415344E+03  0.7818608E-02  0.9501770E-01
         21   -1    0    0  501  502  0.00000000000E+00  0.00000000000E+00  0.84796237284E+03  0.84796237284E+03  0.00000000000E+00 0. -1.
         13   -1    0    0    0    0 -0.00000000000E+00 -0.00000000000E+00 -0.10000000000E+04  0.10000000000E+04  0.00000000000E+00 0.  1.
    9000005    2    1    2  501    0  0.52062072708E+03  0.95228869063E+02 -0.69374446973E+03  0.10906244151E+04  0.65426733567E+03 0.  0.
         13    1    3    3    0    0  0.61920350635E+03  0.23032873009E+02 -0.31994102661E+03  0.69735626191E+03  0.00000000000E+00 0.  1.
          3    1    3    3  501    0 -0.98582779262E+02  0.72195996054E+02 -0.37380344312E+03  0.39326815318E+03  0.00000000000E+00 0.  1.
         -3    1    1    2    0  502 -0.52062072708E+03 -0.95228869063E+02  0.54170684257E+03  0.75733795776E+03  0.00000000000E+00 0. -1.
<mgrwt>
<rscale>  1 0.84153445E+03</rscale>
<asrwt>0</asrwt>
<pdfrwt beam="1">  1       21 0.13045575E+00 0.84153445E+03</pdfrwt>
<pdfrwt beam="2">0</pdfrwt>
<totfact> 0.35881766E+01</totfact>
</mgrwt>
</event>
<event>
 6    1  0.1347953E-004  0.6469146E+03  0.7818608E-02  0.9812586E-01
         21   -1    0    0  501  502  0.00000000000E+00  0.00000000000E+00  0.13351141983E+03  0.13351141983E+03  0.00000000000E+00 0.  1.
         13   -1    0    0    0    0 -0.00000000000E+00 -0.00000000000E+00 -0.10000000000E+04  0.10000000000E+04  0.00000000000E+00 0.  1.
    9000005    2    1    2  501    0 -0.43887782992E+00 -0.26938671471E+02 -0.88826494900E+03  0.10988690343E+04  0.64635334789E+03 0.  0.
         13    1    3    3    0    0  0.22603254360E+03 -0.23119687062E+03 -0.58714736231E+03  0.67028704957E+03  0.00000000000E+00 0.  1.
          3    1    3    3  501    0 -0.22647142143E+03  0.20425819915E+03 -0.30111758669E+03  0.42858198475E+03  0.00000000000E+00 0.  1.
         -3    1    1    2    0  502  0.43887782992E+00  0.26938671471E+02  0.21776368833E+02  0.34642385512E+02  0.00000000000E+00 0. -1.
<mgrwt>
<rscale>  1 0.64691463E+03</rscale>
<asrwt>0</asrwt>
<pdfrwt beam="1">  1       21 0.20540218E-01 0.64691463E+03</pdfrwt>
<pdfrwt beam="2">0</pdfrwt>
<totfact> 0.21325643E+03</totfact>
</mgrwt>
</event>
<event>
 6    1  0.1347953E-004  0.6105521E+03  0.7818608E-02  0.9883753E-01
         21   -1    0    0  501  502  0.00000000000E+00  0.00000000000E+00  0.18910623897E+03  0.18910623897E+03  0.00000000000E+00 0.  1.
         13   -1    0    0    0    0 -0.00000000000E+00 -0.00000000000E+00 -0.10000000000E+04  0.10000000000E+04  0.00000000000E+00 0.  1.
    9000005    2    1    2  501    0 -0.97503440810E+01 -0.20510388375E+03 -0.76487626033E+03  0.97867743221E+03  0.57498795671E+03 0.  0.
         13    1    3    3    0    0  0.68224391436E+02 -0.24269030367E+02 -0.77795132524E+03  0.78131416080E+03  0.00000000000E+00 0.  1.
          1    1    3    3  501    0 -0.77974735517E+02 -0.18083485339E+03  0.13075064914E+02  0.19736327141E+03  0.00000000000E+00 0.  1.
         -1    1    1    2    0  502  0.97503440810E+01  0.20510388375E+03 -0.46017500705E+02  0.21042880675E+03  0.00000000000E+00 0. -1.
<mgrwt>
<rscale>  1 0.61055206E+03</rscale>
<asrwt>0</asrwt>
<pdfrwt beam="1">  1       21 0.29093267E-01 0.61055206E+03</pdfrwt>
<pdfrwt beam="2">0</pdfrwt>
<totfact> 0.10816648E+03</totfact>
</mgrwt>
</event>
<event>
 6    1  0.1347953E-004  0.6630766E+03  0.7818608E-02  0.9782547E-01
         21   -1    0    0  501  502  0.00000000000E+00  0.00000000000E+00  0.17284995248E+03  0.17284995248E+03  0.00000000000E+00 0.  1.
         13   -1    0    0    0    0 -0.00000000000E+00 -0.00000000000E+00 -0.10000000000E+04  0.10000000000E+04  0.00000000000E+00 0.  1.
    9000005    2    1    2  501    0 -0.97824942887E+02 -0.69347620153E+02 -0.81742211586E+03  0.10525443228E+04  0.65214402102E+03 0.  0.
         13    1    3    3    0    0  0.63800214070E+02  0.27433919724E+03 -0.38476104415E+03  0.47683699894E+03  0.00000000000E+00 0.  1.
          1    1    3    3  501    0 -0.16162515696E+03 -0.34368681739E+03 -0.43266107171E+03  0.57570732389E+03  0.00000000000E+00 0.  1.
         -1    1    1    2    0  502  0.97824942887E+02  0.69347620153E+02 -0.97279316569E+01  0.12030562965E+03  0.00000000000E+00 0. -1.
<mgrwt>
<rscale>  1 0.66307664E+03</rscale>
<asrwt>0</asrwt>
<pdfrwt beam="1">  1       21 0.26592300E-01 0.66307664E+03</pdfrwt>
<pdfrwt beam="2">0</pdfrwt>
<totfact> 0.12887346E+03</totfact>
</mgrwt>
</event>
<event>
 6    1  0.1347953E-004  0.5525999E+03  0.7818608E-02  0.1000894E+00
         21   -1    0    0  501  502  0.00000000000E+00  0.00000000000E+00  0.10145190678E+03  0.10145190678E+03  0.00000000000E+00 0.  1.
         13   -1    0    0    0    0 -0.00000000000E+00 -0.00000000000E+00 -0.10000000000E+04  0.10000000000E+04  0.00000000000E+00 0.  1.
    9000005    2    1    2  501    0 -0.64802112737E+01  0.31815776437E+02 -0.91196180037E+03  0.10663212320E+04  0.55164518287E+03 0.  0.
         13    1    3    3    0    0  0.13668080779E+03  0.23186947300E+03 -0.28104735090E+03  0.38914355857E+03  0.00000000000E+00 0.  1.
          1    1    3    3  501    0 -0.14316101906E+03 -0.20005369656E+03 -0.63091444947E+03  0.67717767346E+03  0.00000000000E+00 0.  1.
         -1    1    1    2    0  502  0.64802112737E+01 -0.31815776437E+02  0.13413707151E+02  0.35130674744E+02  0.00000000000E+00 0. -1.
<mgrwt>
<rscale>  1 0.55259990E+03</rscale>
<asrwt>0</asrwt>
<pdfrwt beam="1">  1       21 0.15607985E-01 0.55259990E+03</pdfrwt>
<pdfrwt beam="2">0</pdfrwt>
<totfact> 0.35998507E+03</totfact>
</mgrwt>
</event>
<event>
 6    1  0.1347953E-004  0.6565905E+03  0.7818608E-02  0.9794491E-01
         21   -1    0    0  501  502  0.00000000000E+00  0.00000000000E+00  0.26482909586E+03  0.26482909586E+03  0.00000000000E+00 0.  1.
         13   -1    0    0    0    0 -0.00000000000E+00 -0.00000000000E+00 -0.10000000000E+04  0.10000000000E+04  0.00000000000E+00 0.  1.
    9000005    2    1    2  501    0 -0.11453151269E+02  0.10257299190E+03 -0.87317766394E+03  0.10924972674E+04  0.64842783189E+03 0.  0.
         13    1    3    3    0    0  0.22241377706E+03 -0.15790941332E+03 -0.21614223881E+03  0.34802404865E+03  0.00000000000E+00 0.  1.
          1    1    3    3  501    0 -0.23386692833E+03  0.26048240522E+03 -0.65703542513E+03  0.74447321878E+03  0.00000000000E+00 0.  1.
         -3    1    1    2    0  502  0.11453151269E+02 -0.10257299190E+03  0.13800675981E+03  0.17233182844E+03  0.00000000000E+00 0. -1.
<mgrwt>
<rscale>  1 0.65659047E+03</rscale>
<asrwt>0</asrwt>
<pdfrwt beam="1">  1       21 0.40742937E-01 0.65659047E+03</pdfrwt>
<pdfrwt beam="2">0</pdfrwt>
<totfact> 0.54326192E+02</totfact>
</mgrwt>
</event>
<event>
 6    1  0.1347953E-004  0.6555822E+03  0.7818608E-02  0.9796361E-01
         21   -1    0    0  501  502  0.00000000000E+00  0.00000000000E+00  0.19136481523E+03  0.19136481523E+03  0.00000000000E+00 0.  1.
         13   -1    0    0    0    0 -0.00000000000E+00 -0.00000000000E+00 -0.10000000000E+04  0.10000000000E+04  0.00000000000E+00 0.  1.
    9000005    2    1    2  501    0 -0.28730364394E+02 -0.19907827903E+02 -0.88850168705E+03  0.11041844640E+04  0.65464977450E+03 0.  0.
         13    1    3    3    0    0  0.15756663854E+03 -0.25372495977E+03 -0.67102316483E+03  0.73449008743E+03  0.00000000000E+00 0.  1.
          1    1    3    3  501    0 -0.18629700293E+03  0.23381713187E+03 -0.21747852222E+03  0.36969437659E+03  0.00000000000E+00 0.  1.
         -1    1    1    2    0  502  0.28730364394E+02  0.19907827903E+02  0.79866502281E+02  0.87180351207E+02  0.00000000000E+00 0. -1.
<mgrwt>
<rscale>  1 0.65558225E+03</rscale>
<asrwt>0</asrwt>
<pdfrwt beam="1">  1       21 0.29440740E-01 0.65558225E+03</pdfrwt>
<pdfrwt beam="2">0</pdfrwt>
<totfact> 0.10533481E+03</totfact>
</mgrwt>
</event>
<event>
 6    1  0.1347953E-004  0.6665178E+03  0.7818608E-02  0.9776269E-01
         21   -1    0    0  501  502  0.00000000000E+00  0.00000000000E+00  0.49288374753E+03  0.49288374753E+03  0.00000000000E+00 0. -1.
         13   -1    0    0    0    0 -0.00000000000E+00 -0.00000000000E+00 -0.10000000000E+04  0.10000000000E+04  0.00000000000E+00 0.  1.
    9000005    2    1    2  501    0 -0.81247362327E+02 -0.89825800214E+02 -0.87822592693E+03  0.11025093135E+04  0.65542062781E+03 0.  0.
         13    1    3    3    0    0 -0.20167539071E+03  0.13468781729E+03 -0.80007027935E+03  0.83601807591E+03  0.00000000000E+00 0.  1.
          3    1    3    3  501    0  0.12042802838E+03 -0.22451361751E+03 -0.78155647574E+02  0.26649123759E+03  0.00000000000E+00 0.  1.
         -3    1    1    2    0  502  0.81247362327E+02  0.89825800214E+02  0.37110967446E+03  0.39037443403E+03  0.00000000000E+00 0. -1.
<mgrwt>
<rscale>  1 0.66651782E+03</rscale>
<asrwt>0</asrwt>
<pdfrwt beam="1">  1       21 0.75828267E-01 0.66651782E+03</pdfrwt>
<pdfrwt beam="2">0</pdfrwt>
<totfact> 0.13960173E+02</totfact>
</mgrwt>
</event>
<event>
 6    1  0.1347953E-004  0.7273366E+03  0.7818608E-02  0.9671592E-01
         21   -1    0    0  501  502  0.00000000000E+00  0.00000000000E+00  0.24462048465E+03  0.24462048465E+03  0.00000000000E+00 0. -1.
         13   -1    0    0    0    0 -0.00000000000E+00 -0.00000000000E+00 -0.10000000000E+04  0.10000000000E+04  0.00000000000E+00 0.  1.
    9000005    2    1    2  501    0  0.25593584979E+03  0.30290874104E+00 -0.61631919447E+03  0.95334565943E+03  0.68081961336E+03 0.  0.
         13    1    3    3    0    0  0.38686041844E+03 -0.12291705647E+03 -0.65392294199E+03  0.76966538196E+03  0.00000000000E+00 0.  1.
          1    1    3    3  501    0 -0.13092456865E+03  0.12321996521E+03  0.37603747525E+02  0.18368027747E+03  0.00000000000E+00 0.  1.
         -3    1    1    2    0  502 -0.25593584979E+03 -0.30290874104E+00 -0.13906032088E+03  0.29127482522E+03  0.00000000000E+00 0. -1.
<mgrwt>
<rscale>  1 0.72733665E+03</rscale>
<asrwt>0</asrwt>
<pdfrwt beam="1">  1       21 0.37633920E-01 0.72733665E+03</pdfrwt>
<pdfrwt beam="2">0</pdfrwt>
<totfact> 0.63699959E+02</totfact>
</mgrwt>
</event>
<event>
 6    1  0.1347953E-004  0.6587693E+03  0.7818608E-02  0.9790462E-01
         21   -1    0    0  501  502  0.00000000000E+00  0.00000000000E+00  0.35652274403E+03  0.35652274403E+03  0.00000000000E+00 0. -1.
         13   -1    0    0    0    0 -0.00000000000E+00 -0.00000000000E+00 -0.10000000000E+04  0.10000000000E+04  0.00000000000E+00 0.  1.
    9000005    2    1    2  501    0  0.65165690707E+02  0.26486907420E+02 -0.88596230221E+03  0.11040408216E+04  0.65500290938E+03 0.  0.
         13    1    3    3    0    0  0.35853916481E+03  0.17778344966E+02 -0.41088472239E+03  0.54561218585E+03  0.00000000000E+00 0.  1.
          1    1    3    3  501    0 -0.29337347411E+03  0.87085624546E+01 -0.47507757982E+03  0.55842863574E+03  0.00000000000E+00 0.  1.
         -1    1    1    2    0  502 -0.65165690707E+02 -0.26486907420E+02  0.24248504624E+03  0.25248192244E+03  0.00000000000E+00 0. -1.
<mgrwt>
<rscale>  1 0.65876926E+03</rscale>
<asrwt>0</asrwt>
<pdfrwt beam="1">  1       21 0.54849651E-01 0.65876926E+03</pdfrwt>
<pdfrwt beam="2">0</pdfrwt>
<totfact> 0.28855682E+02</totfact>
</mgrwt>
</event>
<event>
 6    1  0.1347953E-004  0.6627410E+03  0.7818608E-02  0.9783161E-01
         21   -1    0    0  501  502  0.00000000000E+00  0.00000000000E+00  0.14084028205E+03  0.14084028205E+03  0.00000000000E+00 0.  1.
         13   -1    0    0    0    0 -0.00000000000E+00 -0.00000000000E+00 -0.10000000000E+04  0.10000000000E+04  0.00000000000E+00 0.  1.
    9000005    2    1    2  501    0 -0.47894305458E+02 -0.12466903142E+02 -0.86641007532E+03  0.10908217270E+04  0.66089056074E+03 0.  0.
         13    1    3    3    0    0 -0.24213690300E+03 -0.22632912782E+03 -0.65076444040E+03  0.73030781920E+03  0.00000000000E+00 0.  1.
          3    1    3    3  501    0  0.19424259754E+03  0.21386222468E+03 -0.21564563492E+03  0.36051390778E+03  0.00000000000E+00 0.  1.
         -1    1    1    2    0  502  0.47894305458E+02  0.12466903142E+02  0.72503573719E+01  0.50018555070E+02  0.00000000000E+00 0. -1.
<mgrwt>
<rscale>  1 0.66274099E+03</rscale>
<asrwt>0</asrwt>
<pdfrwt beam="1">  1       21 0.21667735E-01 0.66274099E+03</pdfrwt>
<pdfrwt beam="2">0</pdfrwt>
<totfact> 0.19225435E+03</totfact>
</mgrwt>
</event>
<event>
 6    1  0.1347953E-004  0.6468994E+03  0.7818608E-02  0.9812615E-01
         21   -1    0    0  501  502  0.00000000000E+00  0.00000000000E+00  0.35971172248E+03  0.35971172248E+03  0.00000000000E+00 0. -1.
         13   -1    0    0    0    0 -0.00000000000E+00 -0.00000000000E+00 -0.10000000000E+04  0.10000000000E+04  0.00000000000E+00 0.  1.
    9000005    2    1    2  501    0  0.44249647171E+00 -0.22624057151E+02 -0.89482581483E+03  0.11041703331E+04  0.64650355138E+03 0.  0.
         13    1    3    3    0    0  0.17894870544E+03 -0.24927238722E+03 -0.24322832732E+03  0.39156018876E+03  0.00000000000E+00 0.  1.
          3    1    3    3  501    0 -0.17850620896E+03  0.22664833007E+03 -0.65159748750E+03  0.71261014439E+03  0.00000000000E+00 0.  1.
         -3    1    1    2    0  502 -0.44249647171E+00  0.22624057151E+02  0.25453753731E+03  0.25554138934E+03  0.00000000000E+00 0. -1.
<mgrwt>
<rscale>  1 0.64689944E+03</rscale>
<asrwt>0</asrwt>
<pdfrwt beam="1">  1       21 0.55340263E-01 0.64689944E+03</pdfrwt>
<pdfrwt beam="2">0</pdfrwt>
<totfact> 0.28336016E+02</totfact>
</mgrwt>
</event>
<event>
 6    1  0.1347953E-004  0.6851300E+03  0.7818608E-02  0.9743005E-01
         21   -1    0    0  501  502  0.00000000000E+00  0.00000000000E+00  0.31229840428E+03  0.31229840428E+03  0.00000000000E+00 0. -1.
         13   -1    0    0    0    0 -0.00000000000E+00 -0.00000000000E+00 -0.10000000000E+04  0.10000000000E+04  0.00000000000E+00 0.  1.
    9000005    2    1    2  501    0  0.23819708725E+03  0.11754029154E+03 -0.77337463950E+03  0.10332044363E+04  0.63154532832E+03 0.  0.
         13    1    3    3    0    0 -0.15664072258E+03  0.22575050565E+03 -0.33762338879E+03  0.43530352564E+03  0.00000000000E+00 0.  1.
          1    1    3    3  501    0  0.39483780984E+03 -0.10821021411E+03 -0.43575125071E+03  0.59790091069E+03  0.00000000000E+00 0.  1.
         -1    1    1    2    0  502 -0.23819708725E+03 -0.11754029154E+03  0.85673043780E+02  0.27909396794E+03  0.00000000000E+00 0. -1.
<mgrwt>
<rscale>  1 0.68512997E+03</rscale>
<asrwt>0</asrwt>
<pdfrwt beam="1">  1       21 0.48045907E-01 0.68512997E+03</pdfrwt>
<pdfrwt beam="2">0</pdfrwt>
<totfact> 0.38286842E+02</totfact>
</mgrwt>
</event>
<event>
 6    1  0.1347953E-004  0.7532802E+03  0.7818608E-02  0.9630218E-01
         21   -1    0    0  501  502  0.00000000000E+00  0.00000000000E+00  0.48408927721E+03  0.48408927721E+03  0.00000000000E+00 0. -1.
         13   -1    0    0    0    0 -0.00000000000E+00 -0.00000000000E+00 -0.10000000000E+04  0.10000000000E+04  0.00000000000E+00 0.  1.
    9000005    2    1    2  501    0  0.31957840084E+03  0.91565129474E+02 -0.76123021864E+03  0.10709353322E+04  0.67595599917E+03 0.  0.
         13    1    3    3    0    0  0.25526419796E+03  0.21407614878E+03 -0.84560990910E+03  0.90886991732E+03  0.00000000000E+00 0.  1.
          1    1    3    3  501    0  0.64314202883E+02 -0.12251101931E+03  0.84379690465E+02  0.16206541490E+03  0.00000000000E+00 0.  1.
         -1    1    1    2    0  502 -0.31957840084E+03 -0.91565129474E+02  0.24531949585E+03  0.41315394499E+03  0.00000000000E+00 0. -1.
<mgrwt>
<rscale>  1 0.75328019E+03</rscale>
<asrwt>0</asrwt>
<pdfrwt beam="1">  1       21 0.74475271E-01 0.75328019E+03</pdfrwt>
<pdfrwt beam="2">0</pdfrwt>
<totfact> 0.14408168E+02</totfact>
</mgrwt>
</event>
<event>
 6    1  0.1347953E-004  0.6489852E+03  0.7818608E-02  0.9808685E-01
         21   -1    0    0  501  502  0.00000000000E+00  0.00000000000E+00  0.12462131135E+03  0.12462131135E+03  0.00000000000E+00 0.  1.
         13   -1    0    0    0    0 -0.00000000000E+00 -0.00000000000E+00 -0.10000000000E+04  0.10000000000E+04  0.00000000000E+00 0.  1.
    9000005    2    1    2  501    0 -0.21559081517E+02 -0.87516966521E+01 -0.88663519610E+03  0.10987737747E+04  0.64856800018E+03 0.  0.
         13    1    3    3    0    0 -0.26270228953E+03  0.19715656520E+03 -0.39458856166E+03  0.51340367852E+03  0.00000000000E+00 0.  1.
          1    1    3    3  501    0  0.24114320801E+03 -0.20590826185E+03 -0.49204663443E+03  0.58537009620E+03  0.00000000000E+00 0.  1.
         -3    1    1    2    0  502  0.21559081517E+02  0.87516966521E+01  0.11256507447E+02  0.25847536634E+02  0.00000000000E+00 0. -1.
<mgrwt>
<rscale>  1 0.64898524E+03</rscale>
<asrwt>0</asrwt>
<pdfrwt beam="1">  1       21 0.19172509E-01 0.64898524E+03</pdfrwt>
<pdfrwt beam="2">0</pdfrwt>
<totfact> 0.24333721E+03</totfact>
</mgrwt>
</event>
<event>
 6    1  0.1347953E-004  0.7654569E+03  0.7818608E-02  0.9611408E-01
         21   -1    0    0  501  502  0.00000000000E+00  0.00000000000E+00  0.34766310074E+03  0.34766310074E+03  0.00000000000E+00 0.  1.
         13   -1    0    0    0    0 -0.00000000000E+00 -0.00000000000E+00 -0.10000000000E+04  0.10000000000E+04  0.00000000000E+00 0.  1.
    9000005    2    1    2  501    0  0.30721992414E+03  0.27076482842E+03 -0.47902781678E+03  0.90299051089E+03  0.64670436785E+03 0.  0.
         13    1    3    3    0    0  0.21388878126E+03  0.10832146077E+03 -0.62246371736E+03  0.66704050030E+03  0.00000000000E+00 0.  1.
          1    1    3    3  501    0  0.93331142877E+02  0.16244336764E+03  0.14343590057E+03  0.23595001059E+03  0.00000000000E+00 0.  1.
         -3    1    1    2    0  502 -0.30721992414E+03 -0.27076482842E+03 -0.17330908248E+03  0.44467258985E+03  0.00000000000E+00 0. -1.
<mgrwt>
<rscale>  1 0.76545687E+03</rscale>
<asrwt>0</asrwt>
<pdfrwt beam="1">  1       21 0.53486629E-01 0.76545687E+03</pdfrwt>
<pdfrwt beam="2">0</pdfrwt>
<totfact> 0.30180433E+02</totfact>
</mgrwt>
</event>
<event>
 6    1  0.1347953E-004  0.6505767E+03  0.7818608E-02  0.9805698E-01
         21   -1    0    0  501  502  0.00000000000E+00  0.00000000000E+00  0.13850156271E+03  0.13850156271E+03  0.00000000000E+00 0.  1.
         13   -1    0    0    0    0 -0.00000000000E+00 -0.00000000000E+00 -0.10000000000E+04  0.10000000000E+04  0.00000000000E+00 0.  1.
    9000005    2    1    2  501    0 -0.17450225831E+02 -0.61433833718E+02 -0.85490737280E+03  0.10742982261E+04  0.64743450335E+03 0.  0.
         13    1    3    3    0    0  0.30763268888E+03 -0.78563676112E+02 -0.34072162236E+03  0.46572668639E+03  0.00000000000E+00 0.  1.
          3    1    3    3  501    0 -0.32508291471E+03  0.17129842394E+02 -0.51418575045E+03  0.60857153967E+03  0.00000000000E+00 0.  1.
         -3    1    1    2    0  502  0.17450225831E+02  0.61433833718E+02 -0.65910644839E+01  0.64203336657E+02  0.00000000000E+00 0. -1.
<mgrwt>
<rscale>  1 0.65057672E+03</rscale>
<asrwt>0</asrwt>
<pdfrwt beam="1">  1       21 0.21307932E-01 0.65057672E+03</pdfrwt>
<pdfrwt beam="2">0</pdfrwt>
<totfact> 0.19867646E+03</totfact>
</mgrwt>
</event>
<event>
 6    1  0.1347953E-004  0.7501060E+03  0.7818608E-02  0.9635184E-01
         21   -1    0    0  501  502  0.00000000000E+00  0.00000000000E+00  0.54134379820E+03  0.54134379820E+03  0.00000000000E+00 0.  1.
         13   -1    0    0    0    0 -0.00000000000E+00 -0.00000000000E+00 -0.10000000000E+04  0.10000000000E+04  0.00000000000E+00 0.  1.
    9000005    2    1    2  501    0 -0.11911252235E+03  0.34204601410E+03 -0.76174093458E+03  0.10690688529E+04  0.65686809332E+03 0.  0.
         13    1    3    3    0    0  0.19464419785E+03 -0.55600187803E+02 -0.75310566050E+02  0.21598478187E+03  0.00000000000E+00 0.  1.
          3    1    3    3  501    0 -0.31375672020E+03  0.39764620190E+03 -0.68643036853E+03  0.85308407100E+03  0.00000000000E+00 0.  1.
         -3    1    1    2    0  502  0.11911252235E+03 -0.34204601410E+03  0.30308473278E+03  0.47227494533E+03  0.00000000000E+00 0. -1.
<mgrwt>
<rscale>  1 0.75010597E+03</rscale>
<asrwt>0</asrwt>
<pdfrwt beam="1">  1       21 0.83283659E-01 0.75010597E+03</pdfrwt>
<pdfrwt beam="2">0</pdfrwt>
<totfact> 0.11107437E+02</totfact>
</mgrwt>
</event>
<event>
 6    1  0.1347953E-004  0.6556956E+03  0.7818608E-02  0.9796150E-01
         21   -1    0    0  501  502  0.00000000000E+00  0.00000000000E+00  0.16444214969E+03  0.16444214969E+03  0.00000000000E+00 0.  1.
         13   -1    0    0    0    0 -0.00000000000E+00 -0.00000000000E+00 -0.10000000000E+04  0.10000000000E+04  0.00000000000E+00 0.  1.
    9000005    2    1    2  501    0 -0.22806435819E+02  0.17540661118E+02 -0.88846232801E+03  0.11042201266E+04  0.65506409711E+03 0.  0.
         13    1    3    3    0    0  0.55356392956E+02 -0.28135601702E+03 -0.66115804340E+03  0.72066323404E+03  0.00000000000E+00 0.  1.
          1    1    3    3  501    0 -0.78162828774E+02  0.29889667814E+03 -0.22730428461E+03  0.38355689253E+03  0.00000000000E+00 0.  1.
         -1    1    1    2    0  502  0.22806435819E+02 -0.17540661118E+02  0.52904477700E+02  0.60222023114E+02  0.00000000000E+00 0. -1.
<mgrwt>
<rscale>  1 0.65569565E+03</rscale>
<asrwt>0</asrwt>
<pdfrwt beam="1">  1       21 0.25298792E-01 0.65569565E+03</pdfrwt>
<pdfrwt beam="2">0</pdfrwt>
<totfact> 0.14222056E+03</totfact>
</mgrwt>
</event>
<event>
 6    1  0.1347953E-004  0.7247812E+03  0.7818608E-02  0.9675767E-01
         21   -1    0    0  501  502  0.00000000000E+00  0.00000000000E+00  0.28649715630E+03  0.28649715630E+03  0.00000000000E+00 0.  1.
         13   -1    0    0    0    0 -0.00000000000E+00 -0.00000000000E+00 -0.10000000000E+04  0.10000000000E+04  0.00000000000E+00 0.  1.
    9000005    2    1    2  501    0 -0.68526198152E+02 -0.79081612735E+00 -0.86004907986E+03  0.11247187135E+04  0.72153399053E+03 0.  0.
         13    1    3    3    0    0 -0.15180307847E+03 -0.32388453585E+03 -0.27489413713E+03  0.45112321357E+03  0.00000000000E+00 0.  1.
          1    1    3    3  501    0  0.83276880315E+02  0.32309371972E+03 -0.58515494273E+03  0.67359549992E+03  0.00000000000E+00 0.  1.
         -3    1    1    2    0  502  0.68526198152E+02  0.79081612735E+00  0.14654623617E+03  0.16177844281E+03  0.00000000000E+00 0. -1.
<mgrwt>
<rscale>  1 0.72478118E+03</rscale>
<asrwt>0</asrwt>
<pdfrwt beam="1">  1       21 0.44076484E-01 0.72478118E+03</pdfrwt>
<pdfrwt beam="2">0</pdfrwt>
<totfact> 0.45820725E+02</totfact>
</mgrwt>
</event>
<event>
 6    1  0.1347953E-004  0.6532004E+03  0.7818608E-02  0.9800792E-01
         21   -1    0    0  501  502  0.00000000000E+00  0.00000000000E+00  0.18010781338E+03  0.18010781338E+03  0.00000000000E+00 0.  1.
         13   -1    0    0    0    0 -0.00000000000E+00 -0.00000000000E+00 -0.10000000000E+04  0.10000000000E+04  0.00000000000E+00 0.  1.
    9000005    2    1    2  501    0  0.30714368730E+02 -0.14008779543E+02 -0.88901288101E+03  0.11031838981E+04  0.65232751901E+03 0.  0.
         13    1    3    3    0    0  0.33863276994E+03 -0.43489013853E+02 -0.41848990908E+03  0.54009003990E+03  0.00000000000E+00 0.  1.
          3    1    3    3  501    0 -0.30791840121E+03  0.29480234311E+02 -0.47052297193E+03  0.56309385819E+03  0.00000000000E+00 0.  1.
         -1    1    1    2    0  502 -0.30714368730E+02  0.14008779543E+02  0.69120694386E+02  0.76923915287E+02  0.00000000000E+00 0. -1.
<mgrwt>
<rscale>  1 0.65320044E+03</rscale>
<asrwt>0</asrwt>
<pdfrwt beam="1">  1       21 0.27708894E-01 0.65320044E+03</pdfrwt>
<pdfrwt beam="2">0</pdfrwt>
<totfact> 0.11886543E+03</totfact>
</mgrwt>
</event>
<event>
 6    1  0.1347953E-004  0.6389009E+03  0.7818608E-02  0.9827832E-01
         21   -1    0    0  501  502  0.00000000000E+00  0.00000000000E+00  0.13753331662E+03  0.13753331662E+03  0.00000000000E+00 0. -1.
         13   -1    0    0    0    0 -0.00000000000E+00 -0.00000000000E+00 -0.10000000000E+04  0.10000000000E+04  0.00000000000E+00 0.  1.
    9000005    2    1    2  501    0  0.74400522719E+02  0.13160270286E+02 -0.84609878429E+03  0.10602252406E+04  0.63441766808E+03 0.  0.
         13    1    3    3    0    0 -0.21048240791E+03  0.58413030906E+02 -0.65517536006E+02  0.22805147170E+03  0.00000000000E+00 0.  1.
          1    1    3    3  501    0  0.28488293063E+03 -0.45252760620E+02 -0.78058124829E+03  0.83217376892E+03  0.00000000000E+00 0.  1.
         -3    1    1    2    0  502 -0.74400522719E+02 -0.13160270286E+02 -0.16367899085E+02  0.77308076003E+02  0.00000000000E+00 0. -1.
<mgrwt>
<rscale>  1 0.63890094E+03</rscale>
<asrwt>0</asrwt>
<pdfrwt beam="1">  1       21 0.21158971E-01 0.63890094E+03</pdfrwt>
<pdfrwt beam="2">0</pdfrwt>
<totfact> 0.20148336E+03</totfact>
</mgrwt>
</event>
<event>
 6    1  0.1347953E-004  0.6457807E+03  0.7818608E-02  0.9814729E-01
         21   -1    0    0  501  502  0.00000000000E+00  0.00000000000E+00  0.11733513897E+03  0.11733513897E+03  0.00000000000E+00 0.  1.
         13   -1    0    0    0    0 -0.00000000000E+00 -0.00000000000E+00 -0.10000000000E+04  0.10000000000E+04  0.00000000000E+00 0.  1.
    9000005    2    1    2  501    0 -0.33604617102E+02 -0.17956889839E+02 -0.84738871263E+03  0.10654108977E+04  0.64465574573E+03 0.  0.
         13    1    3    3    0    0 -0.18876568020E+03  0.14500306383E+03 -0.80106162315E+03  0.83567822433E+03  0.00000000000E+00 0.  1.
          3    1    3    3  501    0  0.15516106310E+03 -0.16295995367E+03 -0.46327089480E+02  0.22973267339E+03  0.00000000000E+00 0.  1.
         -1    1    1    2    0  502  0.33604617102E+02  0.17956889839E+02 -0.35276148404E+02  0.51924241251E+02  0.00000000000E+00 0. -1.
<mgrwt>
<rscale>  1 0.64578073E+03</rscale>
<asrwt>0</asrwt>
<pdfrwt beam="1">  1       21 0.18051559E-01 0.64578073E+03</pdfrwt>
<pdfrwt beam="2">0</pdfrwt>
<totfact> 0.27293854E+03</totfact>
</mgrwt>
</event>
<event>
 6    1  0.1347953E-004  0.6601554E+03  0.7818608E-02  0.9787908E-01
         21   -1    0    0  501  502  0.00000000000E+00  0.00000000000E+00  0.15239752651E+03  0.15239752651E+03  0.00000000000E+00 0.  1.
         13   -1    0    0    0    0 -0.00000000000E+00 -0.00000000000E+00 -0.10000000000E+04  0.10000000000E+04  0.00000000000E+00 0.  1.
    9000005    2    1    2  501    0  0.61691540392E+01 -0.46434882864E+02 -0.87654737856E+03  0.10973333427E+04  0.65849138290E+03 0.  0.
         13    1    3    3    0    0  0.30783370864E+03  0.36086023767E+02 -0.61872297469E+03  0.69201294257E+03  0.00000000000E+00 0.  1.
          3    1    3    3  501    0 -0.30166455460E+03 -0.82520906631E+02 -0.25782440388E+03  0.40532040014E+03  0.00000000000E+00 0.  1.
         -1    1    1    2    0  502 -0.61691540392E+01  0.46434882864E+02  0.28944905077E+02  0.55064183805E+02  0.00000000000E+00 0. -1.
<mgrwt>
<rscale>  1 0.66015540E+03</rscale>
<asrwt>0</asrwt>
<pdfrwt beam="1">  1       21 0.23445773E-01 0.66015540E+03</pdfrwt>
<pdfrwt beam="2">0</pdfrwt>
<totfact> 0.16499232E+03</totfact>
</mgrwt>
</event>
<event>
 6    1  0.1347953E-004  0.7443582E+03  0.7818608E-02  0.9644243E-01
         21   -1    0    0  501  502  0.00000000000E+00  0.00000000000E+00  0.30505890479E+03  0.30505890479E+03  0.00000000000E+00 0.  1.
         13   -1    0    0    0    0 -0.00000000000E+00 -0.00000000000E+00 -0.10000000000E+04  0.10000000000E+04  0.00000000000E+00 0.  1.
    9000005    2    1    2  501    0  0.30247828613E+03  0.17710073874E+03 -0.55118010498E+03  0.92621196002E+03  0.65666681165E+03 0.  0.
         13    1    3    3    0    0 -0.15717556358E+02 -0.19001618921E+03 -0.35363993352E+03  0.40176410532E+03  0.00000000000E+00 0.  1.
          3    1    3    3  501    0  0.31819584249E+03  0.36711692796E+03 -0.19754017146E+03  0.52444785471E+03  0.00000000000E+00 0.  1.
         -3    1    1    2    0  502 -0.30247828613E+03 -0.17710073874E+03 -0.14376099024E+03  0.37884694476E+03  0.00000000000E+00 0. -1.
<mgrwt>
<rscale>  1 0.74435817E+03</rscale>
<asrwt>0</asrwt>
<pdfrwt beam="1">  1       21 0.46932138E-01 0.74435817E+03</pdfrwt>
<pdfrwt beam="2">0</pdfrwt>
<totfact> 0.40050750E+02</totfact>
</mgrwt>
</event>
<event>
 6    1  0.1347953E-004  0.6544910E+03  0.7818608E-02  0.9798388E-01
         21   -1    0    0  501  502  0.00000000000E+00  0.00000000000E+00  0.13221627662E+03  0.13221627662E+03  0.00000000000E+00 0.  1.
         13   -1    0    0    0    0 -0.00000000000E+00 -0.00000000000E+00 -0.10000000000E+04  0.10000000000E+04  0.00000000000E+00 0.  1.
    9000005    2    1    2  501    0 -0.24414789569E+02 -0.45145235629E+01 -0.88592699161E+03  0.11014649993E+04  0.65401991363E+03 0.  0.
         13    1    3    3    0    0 -0.88484235212E+02  0.28094641746E+03 -0.20079144157E+03  0.35647938562E+03  0.00000000000E+00 0.  1.
          3    1    3    3  501    0  0.64069445643E+02 -0.28546094102E+03 -0.68513555004E+03  0.74498561372E+03  0.00000000000E+00 0.  1.
         -1    1    1    2    0  502  0.24414789569E+02  0.45145235629E+01  0.18143268223E+02  0.30751277283E+02  0.00000000000E+00 0. -1.
<mgrwt>
<rscale>  1 0.65449103E+03</rscale>
<asrwt>0</asrwt>
<pdfrwt beam="1">  1       21 0.20340965E-01 0.65449103E+03</pdfrwt>
<pdfrwt beam="2">0</pdfrwt>
<totfact> 0.21722222E+03</totfact>
</mgrwt>
</event>
<event>
 6    1  0.1347953E-004  0.6433138E+03  0.7818608E-02  0.9819407E-01
         21   -1    0    0  501  502  0.00000000000E+00  0.00000000000E+00  0.27369167408E+03  0.27369167408E+03  0.00000000000E+00 0.  1.
         13   -1    0    0    0    0 -0.00000000000E+00 -0.00000000000E+00 -0.10000000000E+04  0.10000000000E+04  0.00000000000E+00 0.  1.
    9000005    2    1    2  501    0 -0.27534083700E+00 -0.21601916807E+02 -0.89578011662E+03  0.11028484522E+04  0.64295098767E+03 0.  0.
         13    1    3    3    0    0  0.15687042487E+03 -0.23229391081E+03 -0.16276060609E+03  0.32412930459E+03  0.00000000000E+00 0.  1.
          3    1    3    3  501    0 -0.15714576571E+03  0.21069199400E+03 -0.73301951053E+03  0.77871914760E+03  0.00000000000E+00 0.  1.
         -3    1    1    2    0  502  0.27534083700E+00  0.21601916807E+02  0.16947179070E+03  0.17084322189E+03  0.00000000000E+00 0. -1.
<mgrwt>
<rscale>  1 0.64331384E+03</rscale>
<asrwt>0</asrwt>
<pdfrwt beam="1">  1       21 0.42106410E-01 0.64331384E+03</pdfrwt>
<pdfrwt beam="2">0</pdfrwt>
<totfact> 0.50775924E+02</totfact>
</mgrwt>
</event>
<event>
 6    1  0.1347953E-004  0.6365996E+03  0.7818608E-02  0.9832254E-01
         21   -1    0    0  501  502  0.00000000000E+00  0.00000000000E+00  0.64114395836E+03  0.64114395836E+03  0.00000000000E+00 0. -1.
         13   -1    0    0    0    0 -0.00000000000E+00 -0.00000000000E+00 -0.10000000000E+04  0.10000000000E+04  0.00000000000E+00 0.  1.
    9000005    2    1    2  501    0 -0.23052888170E+02  0.25918582562E+01 -0.89841073349E+03  0.11010907953E+04  0.63617681517E+03 0.  0.
         13    1    3    3    0    0  0.47393360885E+02  0.20089725113E+03 -0.31255651968E+02  0.20876482449E+03  0.00000000000E+00 0.  1.
          1    1    3    3  501    0 -0.70446249055E+02 -0.19830539287E+03 -0.86715508152E+03  0.89232597085E+03  0.00000000000E+00 0.  1.
         -1    1    1    2    0  502  0.23052888170E+02 -0.25918582562E+01  0.53955469185E+03  0.54005316301E+03  0.00000000000E+00 0. -1.
<mgrwt>
<rscale>  1 0.63659963E+03</rscale>
<asrwt>0</asrwt>
<pdfrwt beam="1">  1       21 0.98637529E-01 0.63659963E+03</pdfrwt>
<pdfrwt beam="2">0</pdfrwt>
<totfact> 0.75149238E+01</totfact>
</mgrwt>
</event>
<event>
 6    1  0.1347953E-004  0.7732473E+03  0.7818608E-02  0.9599569E-01
         21   -1    0    0  501  502  0.00000000000E+00  0.00000000000E+00  0.12891943429E+04  0.12891943429E+04  0.00000000000E+00 0. -1.
         13   -1    0    0    0    0 -0.00000000000E+00 -0.00000000000E+00 -0.10000000000E+04  0.10000000000E+04  0.00000000000E+00 0.  1.
    9000005    2    1    2  501    0  0.18203982967E+03 -0.40463505265E+03 -0.80029125250E+03  0.11128241257E+04  0.63327989106E+03 0.  0.
         13    1    3    3    0    0 -0.20349024438E+03 -0.32262311519E+02 -0.94749274836E+02  0.22677425203E+03  0.00000000000E+00 0.  1.
          3    1    3    3  501    0  0.38553007405E+03 -0.37237274113E+03 -0.70554197766E+03  0.88604987364E+03  0.00000000000E+00 0.  1.
         -1    1    1    2    0  502 -0.18203982967E+03  0.40463505265E+03  0.10894855954E+04  0.11763702173E+04  0.00000000000E+00 0. -1.
<mgrwt>
<rscale>  1 0.77324734E+03</rscale>
<asrwt>0</asrwt>
<pdfrwt beam="1">  1       21 0.19833759E+00 0.77324734E+03</pdfrwt>
<pdfrwt beam="2">0</pdfrwt>
<totfact> 0.10958595E+01</totfact>
</mgrwt>
</event>
<event>
 6    1  0.1347953E-004  0.6492406E+03  0.7818608E-02  0.9808205E-01
         21   -1    0    0  501  502  0.00000000000E+00  0.00000000000E+00  0.17980464955E+03  0.17980464955E+03  0.00000000000E+00 0. -1.
         13   -1    0    0    0    0 -0.00000000000E+00 -0.00000000000E+00 -0.10000000000E+04  0.10000000000E+04  0.00000000000E+00 0.  1.
    9000005    2    1    2  501    0 -0.39144459242E+02 -0.61687010519E+02 -0.87422594214E+03  0.10889372693E+04  0.64511689065E+03 0.  0.
         13    1    3    3    0    0 -0.29109787398E+03  0.12469646953E+01 -0.16714347655E+03  0.33567315786E+03  0.00000000000E+00 0.  1.
          1    1    3    3  501    0  0.25195341474E+03 -0.62933975214E+02 -0.70708246559E+03  0.75326411144E+03  0.00000000000E+00 0.  1.
         -3    1    1    2    0  502  0.39144459242E+02  0.61687010519E+02  0.54030591685E+02  0.90867380252E+02  0.00000000000E+00 0. -1.
<mgrwt>
<rscale>  1 0.64924062E+03</rscale>
<asrwt>0</asrwt>
<pdfrwt beam="1">  1       21 0.27662253E-01 0.64924062E+03</pdfrwt>
<pdfrwt beam="2">0</pdfrwt>
<totfact> 0.11929075E+03</totfact>
</mgrwt>
</event>
<event>
 6    1  0.1347953E-004  0.6580764E+03  0.7818608E-02  0.9791741E-01
         21   -1    0    0  501  502  0.00000000000E+00  0.00000000000E+00  0.18026320275E+03  0.18026320275E+03  0.00000000000E+00 0.  1.
         13   -1    0    0    0    0 -0.00000000000E+00 -0.00000000000E+00 -0.10000000000E+04  0.10000000000E+04  0.00000000000E+00 0.  1.
    9000005    2    1    2  501    0 -0.12236303946E+03  0.13654290878E+02 -0.82705644365E+03  0.10569233053E+04  0.64645599941E+03 0.  0.
         13    1    3    3    0    0  0.16067035209E+03  0.15992842927E+02  0.21051911707E+02  0.16283094317E+03  0.00000000000E+00 0.  1.
          3    1    3    3  501    0 -0.28303339155E+03 -0.23385520489E+01 -0.84810835535E+03  0.89409236211E+03  0.00000000000E+00 0.  1.
         -3    1    1    2    0  502  0.12236303946E+03 -0.13654290878E+02  0.73196463941E+01  0.12333989747E+03  0.00000000000E+00 0. -1.
<mgrwt>
<rscale>  1 0.65807637E+03</rscale>
<asrwt>0</asrwt>
<pdfrwt beam="1">  1       21 0.27732800E-01 0.65807637E+03</pdfrwt>
<pdfrwt beam="2">0</pdfrwt>
<totfact> 0.11862881E+03</totfact>
</mgrwt>
</event>
<event>
 6    1  0.1347953E-004  0.6509113E+03  0.7818608E-02  0.9805071E-01
         21   -1    0    0  501  502  0.00000000000E+00  0.00000000000E+00  0.17687746756E+03  0.17687746756E+03  0.00000000000E+00 0. -1.
         13   -1    0    0    0    0 -0.00000000000E+00 -0.00000000000E+00 -0.10000000000E+04  0.10000000000E+04  0.00000000000E+00 0.  1.
    9000005    2    1    2  501    0 -0.14217180324E+02  0.33196602847E+02 -0.88895923207E+03  0.11017867646E+04  0.64990877487E+03 0.  0.
         13    1    3    3    0    0 -0.34453418597E+02  0.23492263835E+03 -0.86575643623E+03  0.89772484144E+03  0.00000000000E+00 0.  1.
          3    1    3    3  501    0  0.20236238273E+02 -0.20172603551E+03 -0.23202795840E+02  0.20406192314E+03  0.00000000000E+00 0.  1.
         -1    1    1    2    0  502  0.14217180324E+02 -0.33196602847E+02  0.65836699624E+02  0.75090702982E+02  0.00000000000E+00 0. -1.
<mgrwt>
<rscale>  1 0.65091133E+03</rscale>
<asrwt>0</asrwt>
<pdfrwt beam="1">  1       21 0.27211917E-01 0.65091133E+03</pdfrwt>
<pdfrwt beam="2">0</pdfrwt>
<totfact> 0.12322298E+03</totfact>
</mgrwt>
</event>
<event>
 6    1  0.1347953E-004  0.6529796E+03  0.7818608E-02  0.9801204E-01
         21   -1    0    0  501  502  0.00000000000E+00  0.00000000000E+00  0.41223483945E+03  0.41223483945E+03  0.00000000000E+00 0. -1.
         13   -1    0    0    0    0 -0.00000000000E+00 -0.00000000000E+00 -0.10000000000E+04  0.10000000000E+04  0.00000000000E+00 0.  1.
    9000005    2    1    2  501    0  0.35439408937E+02 -0.51539143884E+02 -0.88985818677E+03  0.11037345452E+04  0.64997701394E+03 0.  0.
         13    1    3    3    0    0 -0.96328499044E+01 -0.17243929330E+03 -0.94699948271E+03  0.96261940658E+03  0.00000000000E+00 0.  1.
          1    1    3    3  501    0  0.45072258841E+02  0.12090014942E+03  0.57141295942E+02  0.14111513862E+03  0.00000000000E+00 0.  1.
         -1    1    1    2    0  502 -0.35439408937E+02  0.51539143884E+02  0.30209302622E+03  0.30850029425E+03  0.00000000000E+00 0. -1.
<mgrwt>
<rscale>  1 0.65297960E+03</rscale>
<asrwt>0</asrwt>
<pdfrwt beam="1">  1       21 0.63420743E-01 0.65297960E+03</pdfrwt>
<pdfrwt beam="2">0</pdfrwt>
<totfact> 0.20968764E+02</totfact>
</mgrwt>
</event>
<event>
 6    1  0.1347953E-004  0.6701395E+03  0.7818608E-02  0.9769706E-01
         21   -1    0    0  501  502  0.00000000000E+00  0.00000000000E+00  0.19501611402E+03  0.19501611402E+03  0.00000000000E+00 0.  1.
         13   -1    0    0    0    0 -0.00000000000E+00 -0.00000000000E+00 -0.10000000000E+04  0.10000000000E+04  0.00000000000E+00 0.  1.
    9000005    2    1    2  501    0 -0.99727395184E+02  0.11510361004E+03 -0.79868953733E+03  0.10425890389E+04  0.65260442281E+03 0.  0.
         13    1    3    3    0    0 -0.36828113550E+03 -0.21364602875E+02 -0.43897934525E+03  0.57340239499E+03  0.00000000000E+00 0.  1.
          3    1    3    3  501    0  0.26855374031E+03  0.13646821292E+03 -0.35971019208E+03  0.46918664395E+03  0.00000000000E+00 0.  1.
         -3    1    1    2    0  502  0.99727395184E+02 -0.11510361004E+03 -0.62943486418E+01  0.15242707509E+03  0.00000000000E+00 0. -1.
<mgrwt>
<rscale>  1 0.67013948E+03</rscale>
<asrwt>0</asrwt>
<pdfrwt beam="1">  1       21 0.30002478E-01 0.67013948E+03</pdfrwt>
<pdfrwt beam="2">0</pdfrwt>
<totfact> 0.10133598E+03</totfact>
</mgrwt>
</event>
<event>
 6    1  0.1347953E-004  0.6823668E+03  0.7818608E-02  0.9747872E-01
         21   -1    0    0  501  502  0.00000000000E+00  0.00000000000E+00  0.37954820319E+03  0.37954820319E+03  0.00000000000E+00 0. -1.
         13   -1    0    0    0    0 -0.00000000000E+00 -0.00000000000E+00 -0.10000000000E+04  0.10000000000E+04  0.00000000000E+00 0.  1.
    9000005    2    1    2  501    0  0.19988954682E+03  0.86906681126E+02 -0.83184293789E+03  0.10759122095E+04  0.64661874936E+03 0.  0.
         13    1    3    3    0    0  0.34362352786E+03 -0.13244065658E+03 -0.67884034081E+03  0.77229648758E+03  0.00000000000E+00 0.  1.
          1    1    3    3  501    0 -0.14373398105E+03  0.21934733771E+03 -0.15300259708E+03  0.30361572189E+03  0.00000000000E+00 0.  1.
         -1    1    1    2    0  502 -0.19988954682E+03 -0.86906681126E+02  0.21139114108E+03  0.30363599371E+03  0.00000000000E+00 0. -1.
<mgrwt>
<rscale>  1 0.68236677E+03</rscale>
<asrwt>0</asrwt>
<pdfrwt beam="1">  1       21 0.58392030E-01 0.68236677E+03</pdfrwt>
<pdfrwt beam="2">0</pdfrwt>
<totfact> 0.25102998E+02</totfact>
</mgrwt>
</event>
<event>
 6    1  0.1347953E-004  0.6492326E+03  0.7818608E-02  0.9808220E-01
         21   -1    0    0  501  502  0.00000000000E+00  0.00000000000E+00  0.13606279576E+03  0.13606279576E+03  0.00000000000E+00 0. -1.
         13   -1    0    0    0    0 -0.00000000000E+00 -0.00000000000E+00 -0.10000000000E+04  0.10000000000E+04  0.00000000000E+00 0.  1.
    9000005    2    1    2  501    0 -0.55789402351E+02  0.51744528898E+02 -0.82724039979E+03  0.10515843420E+04  0.64475809084E+03 0.  0.
         13    1    3    3    0    0  0.25489705532E+03 -0.13323868628E+03 -0.37120496566E+03  0.46959363588E+03  0.00000000000E+00 0.  1.
          3    1    3    3  501    0 -0.31068645767E+03  0.18498321518E+03 -0.45603543413E+03  0.58199070617E+03  0.00000000000E+00 0.  1.
         -3    1    1    2    0  502  0.55789402351E+02 -0.51744528898E+02 -0.36696804449E+02  0.84478453716E+02  0.00000000000E+00 0. -1.
<mgrwt>
<rscale>  1 0.64923258E+03</rscale>
<asrwt>0</asrwt>
<pdfrwt beam="1">  1       21 0.20932737E-01 0.64923258E+03</pdfrwt>
<pdfrwt beam="2">0</pdfrwt>
<totfact> 0.20560929E+03</totfact>
</mgrwt>
</event>
<event>
 6    1  0.1347953E-004  0.5923029E+03  0.7818608E-02  0.9921505E-01
         21   -1    0    0  501  502  0.00000000000E+00  0.00000000000E+00  0.97134738305E+02  0.97134738305E+02  0.00000000000E+00 0.  1.
         13   -1    0    0    0    0 -0.00000000000E+00 -0.00000000000E+00 -0.10000000000E+04  0.10000000000E+04  0.00000000000E+00 0.  1.
    9000005    2    1    2  501    0  0.10972306880E+02  0.28791216687E+02 -0.86419514760E+03  0.10476907963E+04  0.59150099395E+03 0.  0.
         13    1    3    3    0    0  0.76905764702E+02 -0.14797819328E+03 -0.37573231480E+01  0.16681174961E+03  0.00000000000E+00 0.  1.
          1    1    3    3  501    0 -0.65933457822E+02  0.17676940996E+03 -0.86043782446E+03  0.88087904670E+03  0.00000000000E+00 0.  1.
         -3    1    1    2    0  502 -0.10972306880E+02 -0.28791216687E+02 -0.38670114092E+02  0.49443942000E+02  0.00000000000E+00 0. -1.
<mgrwt>
<rscale>  1 0.59230292E+03</rscale>
<asrwt>0</asrwt>
<pdfrwt beam="1">  1       21 0.14943805E-01 0.59230292E+03</pdfrwt>
<pdfrwt beam="2">0</pdfrwt>
<totfact> 0.39002305E+03</totfact>
</mgrwt>
</event>
<event>
 6    1  0.1347953E-004  0.6598945E+03  0.7818608E-02  0.9788388E-01
         21   -1    0    0  501  502  0.00000000000E+00  0.00000000000E+00  0.17776908094E+03  0.17776908094E+03  0.00000000000E+00 0.  1.
         13   -1    0    0    0    0 -0.00000000000E+00 -0.00000000000E+00 -0.10000000000E+04  0.10000000000E+04  0.00000000000E+00 0.  1.
    9000005    2    1    2  501    0  0.10410492340E+01 -0.39099611268E+02 -0.88492111959E+03  0.11038777782E+04  0.65873431505E+03 0.  0.
         13    1    3    3    0    0 -0.11338799362E+03  0.26208780218E+03 -0.20514568982E+03  0.35161286552E+03  0.00000000000E+00 0.  1.
          1    1    3    3  501    0  0.11442904286E+03 -0.30118741344E+03 -0.67977542977E+03  0.75226491264E+03  0.00000000000E+00 0.  1.
         -3    1    1    2    0  502 -0.10410492340E+01  0.39099611268E+02  0.62690200528E+02  0.73891302784E+02  0.00000000000E+00 0. -1.
<mgrwt>
<rscale>  1 0.65989451E+03</rscale>
<asrwt>0</asrwt>
<pdfrwt beam="1">  1       21 0.27349089E-01 0.65989451E+03</pdfrwt>
<pdfrwt beam="2">0</pdfrwt>
<totfact> 0.12193958E+03</totfact>
</mgrwt>
</event>
<event>
 6    1  0.1347953E-004  0.6589755E+03  0.7818608E-02  0.9790082E-01
         21   -1    0    0  501  502  0.00000000000E+00  0.00000000000E+00  0.15567991391E+03  0.15567991391E+03  0.00000000000E+00 0.  1.
         13   -1    0    0    0    0 -0.00000000000E+00 -0.00000000000E+00 -0.10000000000E+04  0.10000000000E+04  0.00000000000E+00 0.  1.
    9000005    2    1    2  501    0  0.90260135059E+02  0.24771021414E+02 -0.83187873562E+03  0.10612591393E+04  0.65229459175E+03 0.  0.
         13    1    3    3    0    0 -0.18342084852E+03  0.23709635731E+03 -0.49100676111E+03  0.57527865403E+03  0.00000000000E+00 0.  1.
          1    1    3    3  501    0  0.27368098358E+03 -0.21232533589E+03 -0.34087197450E+03  0.48598048524E+03  0.00000000000E+00 0.  1.
         -1    1    1    2    0  502 -0.90260135059E+02 -0.24771021414E+02 -0.12441350472E+02  0.94420774644E+02  0.00000000000E+00 0. -1.
<mgrwt>
<rscale>  1 0.65897552E+03</rscale>
<asrwt>0</asrwt>
<pdfrwt beam="1">  1       21 0.23950755E-01 0.65897552E+03</pdfrwt>
<pdfrwt beam="2">0</pdfrwt>
<totfact> 0.15828556E+03</totfact>
</mgrwt>
</event>
<event>
 6    1  0.1347953E-004  0.6484182E+03  0.7818608E-02  0.9809752E-01
         21   -1    0    0  501  502  0.00000000000E+00  0.00000000000E+00  0.13740534356E+03  0.13740534356E+03  0.00000000000E+00 0.  1.
         13   -1    0    0    0    0 -0.00000000000E+00 -0.00000000000E+00 -0.10000000000E+04  0.10000000000E+04  0.00000000000E+00 0.  1.
    9000005    2    1    2  501    0  0.23377202121E+02  0.42176560672E+02 -0.87359908661E+03  0.10879437086E+04  0.64662260486E+03 0.  0.
         13    1    3    3    0    0 -0.25683301542E+03  0.43177498675E+02 -0.72586393058E+03  0.77117179663E+03  0.00000000000E+00 0.  1.
          1    1    3    3  501    0  0.28021021754E+03 -0.10009380033E+01 -0.14773515603E+03  0.31677191198E+03  0.00000000000E+00 0.  1.
         -3    1    1    2    0  502 -0.23377202121E+02 -0.42176560672E+02  0.11004430172E+02  0.49461634956E+02  0.00000000000E+00 0. -1.
<mgrwt>
<rscale>  1 0.64841819E+03</rscale>
<asrwt>0</asrwt>
<pdfrwt beam="1">  1       21 0.21139283E-01 0.64841819E+03</pdfrwt>
<pdfrwt beam="2">0</pdfrwt>
<totfact> 0.20176299E+03</totfact>
</mgrwt>
</event>
<event>
 6    1  0.1347953E-004  0.6432896E+03  0.7818608E-02  0.9819453E-01
         21   -1    0    0  501  502  0.00000000000E+00  0.00000000000E+00  0.12038834598E+03  0.12038834598E+03  0.00000000000E+00 0.  1.
         13   -1    0    0    0    0 -0.00000000000E+00 -0.00000000000E+00 -0.10000000000E+04  0.10000000000E+04  0.00000000000E+00 0.  1.
    9000005    2    1    2  501    0  0.29659359056E+02 -0.29103350792E+01 -0.88063565978E+03  0.10905689527E+04  0.64259888547E+03 0.  0.
         13    1    3    3    0    0  0.28811414493E+03  0.33565358902E+02 -0.73836739576E+03  0.79329868584E+03  0.00000000000E+00 0.  1.
          1    1    3    3  501    0 -0.25845478588E+03 -0.36475693981E+02 -0.14226826402E+03  0.29727026683E+03  0.00000000000E+00 0.  1.
         -3    1    1    2    0  502 -0.29659359056E+02  0.29103350792E+01  0.10240057552E+01  0.29819393315E+02  0.00000000000E+00 0. -1.
<mgrwt>
<rscale>  1 0.64328957E+03</rscale>
<asrwt>0</asrwt>
<pdfrwt beam="1">  1       21 0.18521283E-01 0.64328957E+03</pdfrwt>
<pdfrwt beam="2">0</pdfrwt>
<totfact> 0.25995984E+03</totfact>
</mgrwt>
</event>
<event>
 6    1  0.1347953E-004  0.6602804E+03  0.7818608E-02  0.9787678E-01
         21   -1    0    0  501  502  0.00000000000E+00  0.00000000000E+00  0.42582696816E+03  0.42582696816E+03  0.00000000000E+00 0. -1.
         13   -1    0    0    0    0 -0.00000000000E+00 -0.00000000000E+00 -0.10000000000E+04  0.10000000000E+04  0.00000000000E+00 0.  1.
    9000005    2    1    2  501    0 -0.10066721437E+03  0.62960440825E+02 -0.87860912477E+03  0.10990560395E+04  0.64951695790E+03 0.  0.
         13    1    3    3    0    0  0.20184845777E+03  0.12056636011E+03 -0.71010861560E+03  0.74801958065E+03  0.00000000000E+00 0.  1.
          3    1    3    3  501    0 -0.30251567214E+03 -0.57605919283E+02 -0.16850050918E+03  0.35103645882E+03  0.00000000000E+00 0.  1.
         -3    1    1    2    0  502  0.10066721437E+03 -0.62960440825E+02  0.30443609294E+03  0.32677092870E+03  0.00000000000E+00 0. -1.
<mgrwt>
<rscale>  1 0.66028038E+03</rscale>
<asrwt>0</asrwt>
<pdfrwt beam="1">  1       21 0.65511839E-01 0.66028038E+03</pdfrwt>
<pdfrwt beam="2">0</pdfrwt>
<totfact> 0.19484600E+02</totfact>
</mgrwt>
</event>
<event>
 6    1  0.1347953E-004  0.6502750E+03  0.7818608E-02  0.9806263E-01
         21   -1    0    0  501  502  0.00000000000E+00  0.00000000000E+00  0.16979383422E+03  0.16979383422E+03  0.00000000000E+00 0.  1.
         13   -1    0    0    0    0 -0.00000000000E+00 -0.00000000000E+00 -0.10000000000E+04  0.10000000000E+04  0.00000000000E+00 0.  1.
    9000005    2    1    2  501    0 -0.37721804556E+02 -0.39339839921E+02 -0.88119809507E+03  0.10951564817E+04  0.64798694356E+03 0.  0.
         13    1    3    3    0    0  0.18265565010E+03 -0.38001560562E+02  0.25905219006E+00  0.18656707166E+03  0.00000000000E+00 0.  1.
          3    1    3    3  501    0 -0.22037745466E+03 -0.13382793589E+01 -0.88145714726E+03  0.90858941000E+03  0.00000000000E+00 0.  1.
         -1    1    1    2    0  502  0.37721804556E+02  0.39339839921E+02  0.50991929296E+02  0.74637352561E+02  0.00000000000E+00 0. -1.
<mgrwt>
<rscale>  1 0.65027505E+03</rscale>
<asrwt>0</asrwt>
<pdfrwt beam="1">  1       21 0.26122128E-01 0.65027505E+03</pdfrwt>
<pdfrwt beam="2">0</pdfrwt>
<totfact> 0.13358010E+03</totfact>
</mgrwt>
</event>
<event>
 6    1  0.1347953E-004  0.6558969E+03  0.7818608E-02  0.9795777E-01
         21   -1    0    0  501  502  0.00000000000E+00  0.00000000000E+00  0.18258893673E+03  0.18258893673E+03  0.00000000000E+00 0.  1.
         13   -1    0    0    0    0 -0.00000000000E+00 -0.00000000000E+00 -0.10000000000E+04  0.10000000000E+04  0.00000000000E+00 0.  1.
    9000005    2    1    2  501    0  0.23078827349E+02 -0.35041591125E+01 -0.89043352066E+03  0.11059260990E+04  0.65548132724E+03 0.  0.
         13    1    3    3    0    0  0.99764733351E+02 -0.10648304583E+03 -0.95229210612E+03  0.96340640254E+03  0.00000000000E+00 0.  1.
          3    1    3    3  501    0 -0.76685906002E+02  0.10297888672E+03  0.61858585460E+02  0.14251969648E+03  0.00000000000E+00 0.  1.
         -3    1    1    2    0  502 -0.23078827349E+02  0.35041591125E+01  0.73022457394E+02  0.76662837716E+02  0.00000000000E+00 0. -1.
<mgrwt>
<rscale>  1 0.65589685E+03</rscale>
<asrwt>0</asrwt>
<pdfrwt beam="1">  1       21 0.28090605E-01 0.65589685E+03</pdfrwt>
<pdfrwt beam="2">0</pdfrwt>
<totfact> 0.11566139E+03</totfact>
</mgrwt>
</event>
<event>
 6    1  0.1347953E-004  0.6583675E+03  0.7818608E-02  0.9791204E-01
         21   -1    0    0  501  502  0.00000000000E+00  0.00000000000E+00  0.13837726288E+03  0.13837726288E+03  0.00000000000E+00 0.  1.
         13   -1    0    0    0    0 -0.00000000000E+00 -0.00000000000E+00 -0.10000000000E+04  0.10000000000E+04  0.00000000000E+00 0.  1.
    9000005    2    1    2  501    0 -0.10883047625E+02  0.33743248033E+02 -0.87953942452E+03  0.10986525200E+04  0.65741213314E+03 0.  0.
         13    1    3    3    0    0 -0.16022852336E+03 -0.27063448038E+03 -0.35722983517E+03  0.47595100253E+03  0.00000000000E+00 0.  1.
          1    1    3    3  501    0  0.14934547574E+03  0.30437772841E+03 -0.52230958935E+03  0.62270151743E+03  0.00000000000E+00 0.  1.
         -3    1    1    2    0  502  0.10883047625E+02 -0.33743248033E+02  0.17916687397E+02  0.39724742928E+02  0.00000000000E+00 0. -1.
<mgrwt>
<rscale>  1 0.65836750E+03</rscale>
<asrwt>0</asrwt>
<pdfrwt beam="1">  1       21 0.21288809E-01 0.65836750E+03</pdfrwt>
<pdfrwt beam="2">0</pdfrwt>
<totfact> 0.19895502E+03</totfact>
</mgrwt>
</event>
<event>
 6    1  0.1347953E-004  0.6601561E+03  0.7818608E-02  0.9787906E-01
         21   -1    0    0  501  502  0.00000000000E+00  0.00000000000E+00  0.14183797847E+03  0.14183797847E+03  0.00000000000E+00 0.  1.
         13   -1    0    0    0    0 -0.00000000000E+00 -0.00000000000E+00 -0.10000000000E+04  0.10000000000E+04  0.00000000000E+00 0.  1.
    9000005    2    1    2  501    0 -0.23694168730E+01  0.54333120022E+02 -0.86378162761E+03  0.10871636514E+04  0.65791215422E+03 0.  0.
         13    1    3    3    0    0  0.53837537007E+02  0.34359765893E+03 -0.59030339213E+03  0.68513934814E+03  0.00000000000E+00 0.  1.
          1    1    3    3  501    0 -0.56206953880E+02 -0.28926453891E+03 -0.27347823548E+03  0.40202430326E+03  0.00000000000E+00 0.  1.
         -3    1    1    2    0  502  0.23694168730E+01 -0.54333120022E+02  0.56196060727E+01  0.54674327065E+02  0.00000000000E+00 0. -1.
<mgrwt>
<rscale>  1 0.66015612E+03</rscale>
<asrwt>0</asrwt>
<pdfrwt beam="1">  1       21 0.21821227E-01 0.66015612E+03</pdfrwt>
<pdfrwt beam="2">0</pdfrwt>
<totfact> 0.18966922E+03</totfact>
</mgrwt>
</event>
<event>
 6    1  0.1347953E-004  0.6197290E+03  0.7818608E-02  0.9865299E-01
         21   -1    0    0  501  502  0.00000000000E+00  0.00000000000E+00  0.13507819545E+03  0.13507819545E+03  0.00000000000E+00 0.  1.
         13   -1    0    0    0    0 -0.00000000000E+00 -0.00000000000E+00 -0.10000000000E+04  0.10000000000E+04  0.00000000000E+00 0.  1.
    9000005    2    1    2  501    0  0.49573365567E+01  0.10411360215E+03 -0.80120791814E+03  0.10129156944E+04  0.61090085821E+03 0.  0.
         13    1    3    3    0    0 -0.23537934019E+03 -0.77992896638E+02 -0.60319933646E+03  0.65217770984E+03  0.00000000000E+00 0.  1.
          1    1    3    3  501    0  0.24033667675E+03  0.18210649879E+03 -0.19800858168E+03  0.36073798457E+03  0.00000000000E+00 0.  1.
         -1    1    1    2    0  502 -0.49573365567E+01 -0.10411360215E+03 -0.63713886407E+02  0.12216250104E+03  0.00000000000E+00 0. -1.
<mgrwt>
<rscale>  1 0.61972903E+03</rscale>
<asrwt>0</asrwt>
<pdfrwt beam="1">  1       21 0.20781260E-01 0.61972903E+03</pdfrwt>
<pdfrwt beam="2">0</pdfrwt>
<totfact> 0.20876524E+03</totfact>
</mgrwt>
</event>
<event>
 6    1  0.1347953E-004  0.6437207E+03  0.7818608E-02  0.9818634E-01
         21   -1    0    0  501  502  0.00000000000E+00  0.00000000000E+00  0.17668964888E+03  0.17668964888E+03  0.00000000000E+00 0. -1.
         13   -1    0    0    0    0 -0.00000000000E+00 -0.00000000000E+00 -0.10000000000E+04  0.10000000000E+04  0.00000000000E+00 0.  1.
    9000005    2    1    2  501    0  0.33417436808E+02  0.15512594152E+02 -0.89124596628E+03  0.10994069635E+04  0.64266549092E+03 0.  0.
         13    1    3    3    0    0  0.12054116822E+03 -0.28597463267E+03 -0.30882168341E+03  0.43781559578E+03  0.00000000000E+00 0.  1.
          1    1    3    3  501    0 -0.87123731408E+02  0.30148722682E+03 -0.58242428286E+03  0.66159136767E+03  0.00000000000E+00 0.  1.
         -3    1    1    2    0  502 -0.33417436808E+02 -0.15512594152E+02  0.67935615159E+02  0.77282685429E+02  0.00000000000E+00 0. -1.
<mgrwt>
<rscale>  1 0.64372067E+03</rscale>
<asrwt>0</asrwt>
<pdfrwt beam="1">  1       21 0.27183022E-01 0.64372067E+03</pdfrwt>
<pdfrwt beam="2">0</pdfrwt>
<totfact> 0.12353326E+03</totfact>
</mgrwt>
</event>
<event>
 6    1  0.1347953E-004  0.6101070E+03  0.7818608E-02  0.9884656E-01
         21   -1    0    0  501  502  0.00000000000E+00  0.00000000000E+00  0.11601599735E+03  0.11601599735E+03  0.00000000000E+00 0.  1.
         13   -1    0    0    0    0 -0.00000000000E+00 -0.00000000000E+00 -0.10000000000E+04  0.10000000000E+04  0.00000000000E+00 0.  1.
    9000005    2    1    2  501    0  0.36335418222E+01 -0.52720329913E+02 -0.86769100561E+03  0.10607159290E+04  0.60781408745E+03 0.  0.
         13    1    3    3    0    0 -0.28365603359E+03 -0.12933668272E+03 -0.41335275906E+03  0.51773470649E+03  0.00000000000E+00 0.  1.
          3    1    3    3  501    0  0.28728957541E+03  0.76616352811E+02 -0.45433824656E+03  0.54298122246E+03  0.00000000000E+00 0.  1.
         -3    1    1    2    0  502 -0.36335418222E+01  0.52720329913E+02 -0.16292997036E+02  0.55300068397E+02  0.00000000000E+00 0. -1.
<mgrwt>
<rscale>  1 0.61010704E+03</rscale>
<asrwt>0</asrwt>
<pdfrwt beam="1">  1       21 0.17848614E-01 0.61010704E+03</pdfrwt>
<pdfrwt beam="2">0</pdfrwt>
<totfact> 0.27919296E+03</totfact>
</mgrwt>
</event>
<event>
 6    1  0.1347953E-004  0.6535201E+03  0.7818608E-02  0.9800196E-01
         21   -1    0    0  501  502  0.00000000000E+00  0.00000000000E+00  0.19271156647E+03  0.19271156647E+03  0.00000000000E+00 0. -1.
         13   -1    0    0    0    0 -0.00000000000E+00 -0.00000000000E+00 -0.10000000000E+04  0.10000000000E+04  0.00000000000E+00 0.  1.
    9000005    2    1    2  501    0  0.18069841727E+02 -0.89428058754E+02 -0.86547723829E+03  0.10844995807E+04  0.64712023116E+03 0.  0.
         13    1    3    3    0    0 -0.21723662962E+03  0.16716976722E+03 -0.22143882227E+03  0.35238137909E+03  0.00000000000E+00 0.  1.
          1    1    3    3  501    0  0.23530647135E+03 -0.25659782598E+03 -0.64403841602E+03  0.73211820157E+03  0.00000000000E+00 0.  1.
         -3    1    1    2    0  502 -0.18069841727E+02  0.89428058754E+02  0.58188804760E+02  0.10821198581E+03  0.00000000000E+00 0. -1.
<mgrwt>
<rscale>  1 0.65352008E+03</rscale>
<asrwt>0</asrwt>
<pdfrwt beam="1">  1       21 0.29647932E-01 0.65352008E+03</pdfrwt>
<pdfrwt beam="2">0</pdfrwt>
<totfact> 0.10388187E+03</totfact>
</mgrwt>
</event>
<event>
 6    1  0.1347953E-004  0.5999536E+03  0.7818608E-02  0.9905502E-01
         21   -1    0    0  501  502  0.00000000000E+00  0.00000000000E+00  0.19095323754E+03  0.19095323754E+03  0.00000000000E+00 0. -1.
         13   -1    0    0    0    0 -0.00000000000E+00 -0.00000000000E+00 -0.10000000000E+04  0.10000000000E+04  0.00000000000E+00 0.  1.
    9000005    2    1    2  501    0  0.51287479668E+02  0.17685553487E+03 -0.80853138575E+03  0.10068104902E+04  0.57099568795E+03 0.  0.
         13    1    3    3    0    0 -0.10033182105E+03  0.16751521391E+03 -0.11683726891E+02  0.19561270583E+03  0.00000000000E+00 0.  1.
          3    1    3    3  501    0  0.15161930072E+03  0.93403209541E+01 -0.79684765886E+03  0.81119778437E+03  0.00000000000E+00 0.  1.
         -1    1    1    2    0  502 -0.51287479668E+02 -0.17685553487E+03 -0.51537671235E+00  0.18414274734E+03  0.00000000000E+00 0. -1.
<mgrwt>
<rscale>  1 0.59995363E+03</rscale>
<asrwt>0</asrwt>
<pdfrwt beam="1">  1       21 0.29377420E-01 0.59995363E+03</pdfrwt>
<pdfrwt beam="2">0</pdfrwt>
<totfact> 0.10616507E+03</totfact>
</mgrwt>
</event>
<event>
 6    1  0.1347953E-004  0.6616893E+03  0.7818608E-02  0.9785089E-01
         21   -1    0    0  501  502  0.00000000000E+00  0.00000000000E+00  0.15019503528E+03  0.15019503528E+03  0.00000000000E+00 0.  1.
         13   -1    0    0    0    0 -0.00000000000E+00 -0.00000000000E+00 -0.10000000000E+04  0.10000000000E+04  0.00000000000E+00 0.  1.
    9000005    2    1    2  501    0 -0.72679729680E+02  0.64333687677E+02 -0.80839010679E+03  0.10446660964E+04  0.65453152852E+03 0.  0.
         13    1    3    3    0    0  0.17243930609E+03 -0.19559088706E+03 -0.16451885855E+03  0.30831406748E+03  0.00000000000E+00 0.  1.
          1    1    3    3  501    0 -0.24511903577E+03  0.25992457474E+03 -0.64387124824E+03  0.73635202896E+03  0.00000000000E+00 0.  1.
         -3    1    1    2    0  502  0.72679729680E+02 -0.64333687677E+02 -0.41414857930E+02  0.10552893885E+03  0.00000000000E+00 0. -1.
<mgrwt>
<rscale>  1 0.66168927E+03</rscale>
<asrwt>0</asrwt>
<pdfrwt beam="1">  1       21 0.23106928E-01 0.66168927E+03</pdfrwt>
<pdfrwt beam="2">0</pdfrwt>
<totfact> 0.16972256E+03</totfact>
</mgrwt>
</event>
<event>
 6    1  0.1347953E-004  0.6470789E+03  0.7818608E-02  0.9812276E-01
         21   -1    0    0  501  502  0.00000000000E+00  0.00000000000E+00  0.14940074826E+03  0.14940074826E+03  0.00000000000E+00 0. -1.
         13   -1    0    0    0    0 -0.00000000000E+00 -0.00000000000E+00 -0.10000000000E+04  0.10000000000E+04  0.00000000000E+00 0.  1.
    9000005    2    1    2  501    0 -0.33362107952E+02 -0.55262158802E+02 -0.86789904487E+03  0.10825709698E+04  0.64385108231E+03 0.  0.
         13    1    3    3    0    0  0.46766590738E+02 -0.31727217209E+03 -0.67554250731E+03  0.74780105935E+03  0.00000000000E+00 0.  1.
          1    1    3    3  501    0 -0.80128698690E+02  0.26201001329E+03 -0.19235653756E+03  0.33476991047E+03  0.00000000000E+00 0.  1.
         -1    1    1    2    0  502  0.33362107952E+02  0.55262158802E+02  0.17299793125E+02  0.66829778427E+02  0.00000000000E+00 0. -1.
<mgrwt>
<rscale>  1 0.64707894E+03</rscale>
<asrwt>0</asrwt>
<pdfrwt beam="1">  1       21 0.22984730E-01 0.64707894E+03</pdfrwt>
<pdfrwt beam="2">0</pdfrwt>
<totfact> 0.17159927E+03</totfact>
</mgrwt>
</event>
<event>
 6    1  0.1347953E-004  0.6387180E+03  0.7818608E-02  0.9828182E-01
         21   -1    0    0  501  502  0.00000000000E+00  0.00000000000E+00  0.12851121869E+03  0.12851121869E+03  0.00000000000E+00 0.  1.
         13   -1    0    0    0    0 -0.00000000000E+00 -0.00000000000E+00 -0.10000000000E+04  0.10000000000E+04  0.00000000000E+00 0.  1.
    9000005    2    1    2  501    0  0.15839212866E+02  0.35630963735E+02 -0.88119215245E+03  0.10883291126E+04  0.63752662806E+03 0.  0.
         13    1    3    3    0    0 -0.25218992446E+01  0.71217760606E+02  0.90848862764E+02  0.11546361014E+03  0.00000000000E+00 0.  1.
          3    1    3    3  501    0  0.18361112110E+02 -0.35586796871E+02 -0.97204101521E+03  0.97286550243E+03  0.00000000000E+00 0.  1.
         -1    1    1    2    0  502 -0.15839212866E+02 -0.35630963735E+02  0.97033711399E+01  0.40182106122E+02  0.00000000000E+00 0. -1.
<mgrwt>
<rscale>  1 0.63871797E+03</rscale>
<asrwt>0</asrwt>
<pdfrwt beam="1">  1       21 0.19770956E-01 0.63871797E+03</pdfrwt>
<pdfrwt beam="2">0</pdfrwt>
<totfact> 0.22953534E+03</totfact>
</mgrwt>
</event>
<event>
 6    1  0.1347953E-004  0.6661890E+03  0.7818608E-02  0.9776867E-01
         21   -1    0    0  501  502  0.00000000000E+00  0.00000000000E+00  0.14819364702E+03  0.14819364702E+03  0.00000000000E+00 0.  1.
         13   -1    0    0    0    0 -0.00000000000E+00 -0.00000000000E+00 -0.10000000000E+04  0.10000000000E+04  0.00000000000E+00 0.  1.
    9000005    2    1    2  501    0  0.52583366184E+02 -0.87384577853E+02 -0.76357936465E+03  0.10133415936E+04  0.65833628513E+03 0.  0.
         13    1    3    3    0    0 -0.13869542775E+03  0.13969656828E+03 -0.67556919781E+03  0.70366561227E+03  0.00000000000E+00 0.  1.
          3    1    3    3  501    0  0.19127879393E+03 -0.22708114613E+03 -0.88010166846E+02  0.30967598132E+03  0.00000000000E+00 0.  1.
         -1    1    1    2    0  502 -0.52583366184E+02  0.87384577853E+02 -0.88226988330E+02  0.13485205343E+03  0.00000000000E+00 0. -1.
<mgrwt>
<rscale>  1 0.66618897E+03</rscale>
<asrwt>0</asrwt>
<pdfrwt beam="1">  1       21 0.22799022E-01 0.66618897E+03</pdfrwt>
<pdfrwt beam="2">0</pdfrwt>
<totfact> 0.17417090E+03</totfact>
</mgrwt>
</event>
<event>
 6    1  0.1347953E-004  0.5910795E+03  0.7818608E-02  0.9924088E-01
         21   -1    0    0  501  502  0.00000000000E+00  0.00000000000E+00  0.70786739007E+03  0.70786739007E+03  0.00000000000E+00 0. -1.
         13   -1    0    0    0    0 -0.00000000000E+00 -0.00000000000E+00 -0.10000000000E+04  0.10000000000E+04  0.00000000000E+00 0.  1.
    9000005    2    1    2  501    0 -0.33661874455E+02  0.28219808307E+02 -0.91181085786E+03  0.10866342532E+04  0.58944506138E+03 0.  0.
         13    1    3    3    0    0 -0.13979758763E+03  0.27766220523E+03 -0.39122578154E+03  0.49969718617E+03  0.00000000000E+00 0.  1.
          3    1    3    3  501    0  0.10613571318E+03 -0.24944239692E+03 -0.52058507632E+03  0.58693706705E+03  0.00000000000E+00 0.  1.
         -3    1    1    2    0  502  0.33661874455E+02 -0.28219808307E+02  0.61967824793E+03  0.62123313685E+03  0.00000000000E+00 0. -1.
<mgrwt>
<rscale>  1 0.59107949E+03</rscale>
<asrwt>0</asrwt>
<pdfrwt beam="1">  1       21 0.10890267E+00 0.59107949E+03</pdfrwt>
<pdfrwt beam="2">0</pdfrwt>
<totfact> 0.59265388E+01</totfact>
</mgrwt>
</event>
<event>
 6    1  0.1347953E-004  0.6451712E+03  0.7818608E-02  0.9815883E-01
         21   -1    0    0  501  502  0.00000000000E+00  0.00000000000E+00  0.11896334576E+03  0.11896334576E+03  0.00000000000E+00 0.  1.
         13   -1    0    0    0    0 -0.00000000000E+00 -0.00000000000E+00 -0.10000000000E+04  0.10000000000E+04  0.00000000000E+00 0.  1.
    9000005    2    1    2  501    0 -0.32405767830E+02 -0.62206829012E+01 -0.87204661074E+03  0.10847631767E+04  0.64432680175E+03 0.  0.
         13    1    3    3    0    0  0.23031622131E+03 -0.20978179448E+03 -0.45612635842E+03  0.55236330250E+03  0.00000000000E+00 0.  1.
          1    1    3    3  501    0 -0.26272198914E+03  0.20356111158E+03 -0.41592025231E+03  0.53239987417E+03  0.00000000000E+00 0.  1.
         -3    1    1    2    0  502  0.32405767830E+02  0.62206829012E+01 -0.89900434983E+01  0.34200169101E+02  0.00000000000E+00 0. -1.
<mgrwt>
<rscale>  1 0.64517119E+03</rscale>
<asrwt>0</asrwt>
<pdfrwt beam="1">  1       21 0.18302053E-01 0.64517119E+03</pdfrwt>
<pdfrwt beam="2">0</pdfrwt>
<totfact> 0.26589405E+03</totfact>
</mgrwt>
</event>
<event>
 6    1  0.1347953E-004  0.6523680E+03  0.7818608E-02  0.9802346E-01
         21   -1    0    0  501  502  0.00000000000E+00  0.00000000000E+00  0.19962571560E+03  0.19962571560E+03  0.00000000000E+00 0.  1.
         13   -1    0    0    0    0 -0.00000000000E+00 -0.00000000000E+00 -0.10000000000E+04  0.10000000000E+04  0.00000000000E+00 0.  1.
    9000005    2    1    2  501    0  0.14304396499E+02  0.22783374223E+02 -0.89145169172E+03  0.11046583948E+04  0.65181312703E+03 0.  0.
         13    1    3    3    0    0  0.81216429928E+01  0.10274584093E+03  0.79646192502E+02  0.13025430854E+03  0.00000000000E+00 0.  1.
          3    1    3    3  501    0  0.61827535063E+01 -0.79962466708E+02 -0.97109788422E+03  0.97440408623E+03  0.00000000000E+00 0.  1.
         -3    1    1    2    0  502 -0.14304396499E+02 -0.22783374223E+02  0.91077407323E+02  0.94967320826E+02  0.00000000000E+00 0. -1.
<mgrwt>
<rscale>  1 0.65236803E+03</rscale>
<asrwt>0</asrwt>
<pdfrwt beam="1">  1       21 0.30711648E-01 0.65236803E+03</pdfrwt>
<pdfrwt beam="2">0</pdfrwt>
<totfact> 0.96805751E+02</totfact>
</mgrwt>
</event>
<event>
 6    1  0.1347953E-004  0.6167395E+03  0.7818608E-02  0.9871273E-01
         21   -1    0    0  501  502  0.00000000000E+00  0.00000000000E+00  0.27686319279E+03  0.27686319279E+03  0.00000000000E+00 0. -1.
         13   -1    0    0    0    0 -0.00000000000E+00 -0.00000000000E+00 -0.10000000000E+04  0.10000000000E+04  0.00000000000E+00 0.  1.
    9000005    2    1    2  501    0  0.44273966468E+02 -0.62527565110E+02 -0.89602296271E+03  0.10877613597E+04  0.61196220921E+03 0.  0.
         13    1    3    3    0    0 -0.10085595983E+03  0.23808060883E+03 -0.24526624615E+03  0.35638438860E+03  0.00000000000E+00 0.  1.
          3    1    3    3  501    0  0.14512992630E+03 -0.30060817394E+03 -0.65075671656E+03  0.73137697113E+03  0.00000000000E+00 0.  1.
         -3    1    1    2    0  502 -0.44273966468E+02  0.62527565110E+02  0.17288615550E+03  0.18910183307E+03  0.00000000000E+00 0. -1.
<mgrwt>
<rscale>  1 0.61673951E+03</rscale>
<asrwt>0</asrwt>
<pdfrwt beam="1">  1       21 0.42594336E-01 0.61673951E+03</pdfrwt>
<pdfrwt beam="2">0</pdfrwt>
<totfact> 0.49681700E+02</totfact>
</mgrwt>
</event>
<event>
 6    1  0.1347953E-004  0.6520650E+03  0.7818608E-02  0.9802912E-01
         21   -1    0    0  501  502  0.00000000000E+00  0.00000000000E+00  0.15985865070E+03  0.15985865070E+03  0.00000000000E+00 0.  1.
         13   -1    0    0    0    0 -0.00000000000E+00 -0.00000000000E+00 -0.10000000000E+04  0.10000000000E+04  0.00000000000E+00 0.  1.
    9000005    2    1    2  501    0 -0.27149010291E+02  0.50207666503E+01 -0.88973698628E+03  0.11030959511E+04  0.65148023434E+03 0.  0.
         13    1    3    3    0    0  0.70910538123E+02 -0.35906889886E+02 -0.96791763973E+03  0.97117566200E+03  0.00000000000E+00 0.  1.
          3    1    3    3  501    0 -0.98059548415E+02  0.40927656536E+02  0.78180653449E+02  0.13192028911E+03  0.00000000000E+00 0.  1.
         -3    1    1    2    0  502  0.27149010291E+02 -0.50207666503E+01  0.49595636985E+02  0.56762699596E+02  0.00000000000E+00 0. -1.
<mgrwt>
<rscale>  1 0.65206501E+03</rscale>
<asrwt>0</asrwt>
<pdfrwt beam="1">  1       21 0.24593638E-01 0.65206501E+03</pdfrwt>
<pdfrwt beam="2">0</pdfrwt>
<totfact> 0.15035112E+03</totfact>
</mgrwt>
</event>
<event>
 6    1  0.1347953E-004  0.6509679E+03  0.7818608E-02  0.9804965E-01
         21   -1    0    0  501  502  0.00000000000E+00  0.00000000000E+00  0.12537987051E+03  0.12537987051E+03  0.00000000000E+00 0. -1.
         13   -1    0    0    0    0 -0.00000000000E+00 -0.00000000000E+00 -0.10000000000E+04  0.10000000000E+04  0.00000000000E+00 0.  1.
    9000005    2    1    2  501    0  0.31666707191E+02  0.38589397295E+02 -0.84723935503E+03  0.10684445674E+04  0.64905111278E+03 0.  0.
         13    1    3    3    0    0  0.12074324410E+03  0.29954860615E+03 -0.66104836330E+03  0.73572633300E+03  0.00000000000E+00 0.  1.
          1    1    3    3  501    0 -0.89076536909E+02 -0.26095920885E+03 -0.18619099173E+03  0.33271823442E+03  0.00000000000E+00 0.  1.
         -3    1    1    2    0  502 -0.31666707191E+02 -0.38589397295E+02 -0.27380774458E+02  0.56935303089E+02  0.00000000000E+00 0. -1.
<mgrwt>
<rscale>  1 0.65096795E+03</rscale>
<asrwt>0</asrwt>
<pdfrwt beam="1">  1       21 0.19289210E-01 0.65096795E+03</pdfrwt>
<pdfrwt beam="2">0</pdfrwt>
<totfact> 0.24051454E+03</totfact>
</mgrwt>
</event>
<event>
 6    1  0.1347953E-004  0.6760998E+03  0.7818608E-02  0.9759001E-01
         21   -1    0    0  501  502  0.00000000000E+00  0.00000000000E+00  0.15896206306E+03  0.15896206306E+03  0.00000000000E+00 0.  1.
         13   -1    0    0    0    0 -0.00000000000E+00 -0.00000000000E+00 -0.10000000000E+04  0.10000000000E+04  0.00000000000E+00 0.  1.
    9000005    2    1    2  501    0 -0.19120124867E+02 -0.11105119672E+03 -0.77455078779E+03  0.10281244214E+04  0.66664304961E+03 0.  0.
         13    1    3    3    0    0  0.10284244150E+03 -0.32222695224E+02 -0.85523298342E+03  0.86199670869E+03  0.00000000000E+00 0.  1.
          3    1    3    3  501    0 -0.12196256637E+03 -0.78828501500E+02  0.80682195635E+02  0.16612771273E+03  0.00000000000E+00 0.  1.
         -1    1    1    2    0  502  0.19120124867E+02  0.11105119672E+03 -0.66487149150E+02  0.13083764164E+03  0.00000000000E+00 0. -1.
<mgrwt>
<rscale>  1 0.67609977E+03</rscale>
<asrwt>0</asrwt>
<pdfrwt beam="1">  1       21 0.24455701E-01 0.67609977E+03</pdfrwt>
<pdfrwt beam="2">0</pdfrwt>
<totfact> 0.15183300E+03</totfact>
</mgrwt>
</event>
<event>
 6    1  0.1347953E-004  0.6464691E+03  0.7818608E-02  0.9813427E-01
         21   -1    0    0  501  502  0.00000000000E+00  0.00000000000E+00  0.17673618725E+03  0.17673618725E+03  0.00000000000E+00 0.  1.
         13   -1    0    0    0    0 -0.00000000000E+00 -0.00000000000E+00 -0.10000000000E+04  0.10000000000E+04  0.00000000000E+00 0.  1.
    9000005    2    1    2  501    0  0.17550513718E+03 -0.35036431936E+02 -0.72938226265E+03  0.97463880926E+03  0.62120263900E+03 0.  0.
         13    1    3    3    0    0  0.38433308620E+03  0.64781501493E+02 -0.58127951356E+03  0.69985315386E+03  0.00000000000E+00 0.  1.
          1    1    3    3  501    0 -0.20882794902E+03 -0.99817933428E+02 -0.14810274909E+03  0.27478565540E+03  0.00000000000E+00 0.  1.
         -3    1    1    2    0  502 -0.17550513718E+03  0.35036431936E+02 -0.93881550107E+02  0.20209737799E+03  0.00000000000E+00 0. -1.
<mgrwt>
<rscale>  1 0.64646912E+03</rscale>
<asrwt>0</asrwt>
<pdfrwt beam="1">  1       21 0.27190182E-01 0.64646912E+03</pdfrwt>
<pdfrwt beam="2">0</pdfrwt>
<totfact> 0.12344941E+03</totfact>
</mgrwt>
</event>
<event>
 6    1  0.1347953E-004  0.6457521E+03  0.7818608E-02  0.9814783E-01
         21   -1    0    0  501  502  0.00000000000E+00  0.00000000000E+00  0.11375966028E+03  0.11375966028E+03  0.00000000000E+00 0.  1.
         13   -1    0    0    0    0 -0.00000000000E+00 -0.00000000000E+00 -0.10000000000E+04  0.10000000000E+04  0.00000000000E+00 0.  1.
    9000005    2    1    2  501    0 -0.18244128613E+02 -0.12603984971E+02 -0.87843944657E+03  0.10902530102E+04  0.64537125455E+03 0.  0.
         13    1    3    3    0    0  0.28134968101E+03 -0.12168143781E+03 -0.29526044246E+03  0.42560867496E+03  0.00000000000E+00 0.  1.
          1    1    3    3  501    0 -0.29959380963E+03  0.10907745284E+03 -0.58317900411E+03  0.66464433521E+03  0.00000000000E+00 0.  1.
         -3    1    1    2    0  502  0.18244128613E+02  0.12603984971E+02 -0.78008931446E+01  0.23506650120E+02  0.00000000000E+00 0. -1.
<mgrwt>
<rscale>  1 0.64575209E+03</rscale>
<asrwt>0</asrwt>
<pdfrwt beam="1">  1       21 0.17501486E-01 0.64575209E+03</pdfrwt>
<pdfrwt beam="2">0</pdfrwt>
<totfact> 0.28942525E+03</totfact>
</mgrwt>
</event>
<event>
 6    1  0.1347953E-004  0.6548662E+03  0.7818608E-02  0.9797691E-01
         21   -1    0    0  501  502  0.00000000000E+00  0.00000000000E+00  0.31259073853E+03  0.31259073853E+03  0.00000000000E+00 0. -1.
         13   -1    0    0    0    0 -0.00000000000E+00 -0.00000000000E+00 -0.10000000000E+04  0.10000000000E+04  0.00000000000E+00 0.  1.
    9000005    2    1    2  501    0 -0.54429268179E+02  0.77613820162E+01 -0.88870420749E+03  0.11039224861E+04  0.65255413768E+03 0.  0.
         13    1    3    3    0    0 -0.25671372904E+03 -0.10593325701E+03 -0.12282204399E+03  0.30365942783E+03  0.00000000000E+00 0.  1.
          3    1    3    3  501    0  0.20228446086E+03  0.11369463903E+03 -0.76588216350E+03  0.80026305826E+03  0.00000000000E+00 0.  1.
         -1    1    1    2    0  502  0.54429268179E+02 -0.77613820162E+01  0.20129494602E+03  0.20866825245E+03  0.00000000000E+00 0. -1.
<mgrwt>
<rscale>  1 0.65486616E+03</rscale>
<asrwt>0</asrwt>
<pdfrwt beam="1">  1       21 0.48090881E-01 0.65486616E+03</pdfrwt>
<pdfrwt beam="2">0</pdfrwt>
<totfact> 0.38315116E+02</totfact>
</mgrwt>
</event>
<event>
 6    1  0.1347953E-004  0.6614071E+03  0.7818608E-02  0.9785607E-01
         21   -1    0    0  501  502  0.00000000000E+00  0.00000000000E+00  0.33052747160E+03  0.33052747160E+03  0.00000000000E+00 0. -1.
         13   -1    0    0    0    0 -0.00000000000E+00 -0.00000000000E+00 -0.10000000000E+04  0.10000000000E+04  0.00000000000E+00 0.  1.
    9000005    2    1    2  501    0 -0.82437957420E+02 -0.19125451417E+02 -0.88161031764E+03  0.11021325475E+04  0.65597073139E+03 0.  0.
         13    1    3    3    0    0  0.25500206838E+03  0.12549548694E+03 -0.29133785385E+03  0.40700481227E+03  0.00000000000E+00 0.  1.
          3    1    3    3  501    0 -0.33744002580E+03 -0.14462093836E+03 -0.59027246379E+03  0.69512773527E+03  0.00000000000E+00 0.  1.
         -3    1    1    2    0  502  0.82437957420E+02  0.19125451417E+02  0.21213778924E+03  0.22839492407E+03  0.00000000000E+00 0. -1.
<mgrwt>
<rscale>  1 0.66140714E+03</rscale>
<asrwt>0</asrwt>
<pdfrwt beam="1">  1       21 0.50850379E-01 0.66140714E+03</pdfrwt>
<pdfrwt beam="2">0</pdfrwt>
<totfact> 0.33980222E+02</totfact>
</mgrwt>
</event>
<event>
 6    1  0.1347953E-004  0.6725858E+03  0.7818608E-02  0.9765298E-01
         21   -1    0    0  501  502  0.00000000000E+00  0.00000000000E+00  0.20535368038E+03  0.20535368038E+03  0.00000000000E+00 0.  1.
         13   -1    0    0    0    0 -0.00000000000E+00 -0.00000000000E+00 -0.10000000000E+04  0.10000000000E+04  0.00000000000E+00 0.  1.
    9000005    2    1    2  501    0  0.41545598780E+02  0.18161632591E+03 -0.76171136657E+03  0.10161573862E+04  0.64626705073E+03 0.  0.
         13    1    3    3    0    0  0.29951305748E+03  0.74445917046E+02 -0.64182952705E+03  0.71217652864E+03  0.00000000000E+00 0.  1.
          3    1    3    3  501    0 -0.25796745870E+03  0.10717040887E+03 -0.11988183952E+03  0.30398085751E+03  0.00000000000E+00 0.  1.
         -3    1    1    2    0  502 -0.41545598780E+02 -0.18161632591E+03 -0.32934953056E+02  0.18919629422E+03  0.00000000000E+00 0. -1.
<mgrwt>
<rscale>  1 0.67258578E+03</rscale>
<asrwt>0</asrwt>
<pdfrwt beam="1">  1       21 0.31592873E-01 0.67258578E+03</pdfrwt>
<pdfrwt beam="2">0</pdfrwt>
<totfact> 0.91332671E+02</totfact>
</mgrwt>
</event>
<event>
 6    1  0.1347953E-004  0.6561907E+03  0.7818608E-02  0.9795232E-01
         21   -1    0    0  501  502  0.00000000000E+00  0.00000000000E+00  0.13423470162E+03  0.13423470162E+03  0.00000000000E+00 0.  1.
         13   -1    0    0    0    0 -0.00000000000E+00 -0.00000000000E+00 -0.10000000000E+04  0.10000000000E+04  0.00000000000E+00 0.  1.
    9000005    2    1    2  501    0  0.65868259251E+02  0.15661527001E+02 -0.82873290058E+03  0.10570640499E+04  0.65268849692E+03 0.  0.
         13    1    3    3    0    0 -0.15949789104E+02 -0.11387660244E+03 -0.88605023688E+03  0.89348044110E+03  0.00000000000E+00 0.  1.
          3    1    3    3  501    0  0.81818048355E+02  0.12953812944E+03  0.57317336303E+02  0.16358360876E+03  0.00000000000E+00 0.  1.
         -3    1    1    2    0  502 -0.65868259251E+02 -0.15661527001E+02 -0.37032397803E+02  0.77170651751E+02  0.00000000000E+00 0. -1.
<mgrwt>
<rscale>  1 0.65619066E+03</rscale>
<asrwt>0</asrwt>
<pdfrwt beam="1">  1       21 0.20651492E-01 0.65619066E+03</pdfrwt>
<pdfrwt beam="2">0</pdfrwt>
<totfact> 0.21097241E+03</totfact>
</mgrwt>
</event>
<event>
 6    1  0.1347953E-004  0.6499320E+03  0.7818608E-02  0.9806907E-01
         21   -1    0    0  501  502  0.00000000000E+00  0.00000000000E+00  0.29400997453E+03  0.29400997453E+03  0.00000000000E+00 0. -1.
         13   -1    0    0    0    0 -0.00000000000E+00 -0.00000000000E+00 -0.10000000000E+04  0.10000000000E+04  0.00000000000E+00 0.  1.
    9000005    2    1    2  501    0  0.40477312053E+02 -0.57024916115E+01 -0.89194220366E+03  0.11036178955E+04  0.64864522915E+03 0.  0.
         13    1    3    3    0    0 -0.45604133366E+02 -0.12821145683E+01  0.98962029915E+02  0.10897185032E+03  0.00000000000E+00 0.  1.
          3    1    3    3  501    0  0.86081445419E+02 -0.44203770433E+01 -0.99090423357E+03  0.99464604513E+03  0.00000000000E+00 0.  1.
         -1    1    1    2    0  502 -0.40477312053E+02  0.57024916115E+01  0.18595217819E+03  0.19039207908E+03  0.00000000000E+00 0. -1.
<mgrwt>
<rscale>  1 0.64993197E+03</rscale>
<asrwt>0</asrwt>
<pdfrwt beam="1">  1       21 0.45232302E-01 0.64993197E+03</pdfrwt>
<pdfrwt beam="2">0</pdfrwt>
<totfact> 0.43655955E+02</totfact>
</mgrwt>
</event>
<event>
 6    1  0.1347953E-004  0.6109439E+03  0.7818608E-02  0.9882958E-01
         21   -1    0    0  501  502  0.00000000000E+00  0.00000000000E+00  0.25619874079E+03  0.25619874079E+03  0.00000000000E+00 0. -1.
         13   -1    0    0    0    0 -0.00000000000E+00 -0.00000000000E+00 -0.10000000000E+04  0.10000000000E+04  0.00000000000E+00 0.  1.
    9000005    2    1    2  501    0 -0.16274676830E+02 -0.19224606954E+02 -0.90562158608E+03  0.10924297913E+04  0.61042439434E+03 0.  0.
         13    1    3    3    0    0  0.17396892272E+03  0.16189371681E+03 -0.12440866453E+03  0.26823921679E+03  0.00000000000E+00 0.  1.
          3    1    3    3  501    0 -0.19024359955E+03 -0.18111832376E+03 -0.78121292155E+03  0.82419057454E+03  0.00000000000E+00 0.  1.
         -3    1    1    2    0  502  0.16274676830E+02  0.19224606954E+02  0.16182032686E+03  0.16376894945E+03  0.00000000000E+00 0. -1.
<mgrwt>
<rscale>  1 0.61094385E+03</rscale>
<asrwt>0</asrwt>
<pdfrwt beam="1">  1       21 0.39415190E-01 0.61094385E+03</pdfrwt>
<pdfrwt beam="2">0</pdfrwt>
<totfact> 0.58415252E+02</totfact>
</mgrwt>
</event>
<event>
 6    1  0.1347953E-004  0.6499934E+03  0.7818608E-02  0.9806792E-01
         21   -1    0    0  501  502  0.00000000000E+00  0.00000000000E+00  0.22231294466E+03  0.22231294466E+03  0.00000000000E+00 0. -1.
         13   -1    0    0    0    0 -0.00000000000E+00 -0.00000000000E+00 -0.10000000000E+04  0.10000000000E+04  0.00000000000E+00 0.  1.
    9000005    2    1    2  501    0  0.16212593212E+02  0.18300857738E+02 -0.89295939372E+03  0.11044762714E+04  0.64953335991E+03 0.  0.
         13    1    3    3    0    0 -0.88176456431E+02 -0.18269276462E+03 -0.21416687279E+02  0.20398629416E+03  0.00000000000E+00 0.  1.
          1    1    3    3  501    0  0.10438904964E+03  0.20099362236E+03 -0.87154270645E+03  0.90048997722E+03  0.00000000000E+00 0.  1.
         -1    1    1    2    0  502 -0.16212593212E+02 -0.18300857738E+02  0.11527233838E+03  0.11783667327E+03  0.00000000000E+00 0. -1.
<mgrwt>
<rscale>  1 0.64999335E+03</rscale>
<asrwt>0</asrwt>
<pdfrwt beam="1">  1       21 0.34201991E-01 0.64999335E+03</pdfrwt>
<pdfrwt beam="2">0</pdfrwt>
<totfact> 0.77898232E+02</totfact>
</mgrwt>
</event>
<event>
 6    1  0.1347953E-004  0.6382557E+03  0.7818608E-02  0.9829069E-01
         21   -1    0    0  501  502  0.00000000000E+00  0.00000000000E+00  0.12829928501E+03  0.12829928501E+03  0.00000000000E+00 0. -1.
         13   -1    0    0    0    0 -0.00000000000E+00 -0.00000000000E+00 -0.10000000000E+04  0.10000000000E+04  0.00000000000E+00 0.  1.
    9000005    2    1    2  501    0 -0.31338197029E+02  0.22792460354E+02 -0.88152084393E+03  0.10883241205E+04  0.63707834230E+03 0.  0.
         13    1    3    3    0    0  0.16642866138E+03  0.20952870302E+03 -0.72883435183E+03  0.77640214395E+03  0.00000000000E+00 0.  1.
          3    1    3    3  501    0 -0.19776685841E+03 -0.18673624267E+03 -0.15268649210E+03  0.31192197659E+03  0.00000000000E+00 0.  1.
         -1    1    1    2    0  502  0.31338197029E+02 -0.22792460354E+02  0.98201289427E+01  0.39975164470E+02  0.00000000000E+00 0. -1.
<mgrwt>
<rscale>  1 0.63825574E+03</rscale>
<asrwt>0</asrwt>
<pdfrwt beam="1">  1       21 0.19738351E-01 0.63825574E+03</pdfrwt>
<pdfrwt beam="2">0</pdfrwt>
<totfact> 0.23026605E+03</totfact>
</mgrwt>
</event>
<event>
 6    1  0.1347953E-004  0.6423237E+03  0.7818608E-02  0.9821291E-01
         21   -1    0    0  501  502  0.00000000000E+00  0.00000000000E+00  0.33250995453E+03  0.33250995453E+03  0.00000000000E+00 0. -1.
         13   -1    0    0    0    0 -0.00000000000E+00 -0.00000000000E+00 -0.10000000000E+04  0.10000000000E+04  0.00000000000E+00 0.  1.
    9000005    2    1    2  501    0  0.98145512255E+01 -0.32314438645E+02 -0.89548275507E+03  0.11020295346E+04  0.64143525165E+03 0.  0.
         13    1    3    3    0    0  0.29847773140E+03  0.86358271351E+02 -0.31206891313E+03  0.44037905685E+03  0.00000000000E+00 0.  1.
          3    1    3    3  501    0 -0.28866318017E+03 -0.11867271000E+03 -0.58341384194E+03  0.66165047771E+03  0.00000000000E+00 0.  1.
         -3    1    1    2    0  502 -0.98145512255E+01  0.32314438645E+02  0.22799270960E+03  0.23048041997E+03  0.00000000000E+00 0. -1.
<mgrwt>
<rscale>  1 0.64232370E+03</rscale>
<asrwt>0</asrwt>
<pdfrwt beam="1">  1       21 0.51155376E-01 0.64232370E+03</pdfrwt>
<pdfrwt beam="2">0</pdfrwt>
<totfact> 0.33607983E+02</totfact>
</mgrwt>
</event>
<event>
 6    1  0.1347953E-004  0.5805764E+03  0.7818608E-02  0.9946544E-01
         21   -1    0    0  501  502  0.00000000000E+00  0.00000000000E+00  0.19381694515E+03  0.19381694515E+03  0.00000000000E+00 0.  1.
         13   -1    0    0    0    0 -0.00000000000E+00 -0.00000000000E+00 -0.10000000000E+04  0.10000000000E+04  0.00000000000E+00 0.  1.
    9000005    2    1    2  501    0 -0.93771983145E+01 -0.23295768751E+02 -0.91417044506E+03  0.10829480986E+04  0.58003306539E+03 0.  0.
         13    1    3    3    0    0  0.29399857032E+02 -0.29693192298E+03 -0.55068171283E+03  0.62632520891E+03  0.00000000000E+00 0.  1.
          1    1    3    3  501    0 -0.38777055346E+02  0.27363615423E+03 -0.36348873224E+03  0.45662288969E+03  0.00000000000E+00 0.  1.
         -1    1    1    2    0  502  0.93771983145E+01  0.23295768751E+02  0.10798739021E+03  0.11086884655E+03  0.00000000000E+00 0. -1.
<mgrwt>
<rscale>  1 0.58057642E+03</rscale>
<asrwt>0</asrwt>
<pdfrwt beam="1">  1       21 0.29817991E-01 0.58057642E+03</pdfrwt>
<pdfrwt beam="2">0</pdfrwt>
<totfact> 0.10319537E+03</totfact>
</mgrwt>
</event>
<event>
 6    1  0.1347953E-004  0.6444163E+03  0.7818608E-02  0.9817313E-01
         21   -1    0    0  501  502  0.00000000000E+00  0.00000000000E+00  0.25601450509E+03  0.25601450509E+03  0.00000000000E+00 0.  1.
         13   -1    0    0    0    0 -0.00000000000E+00 -0.00000000000E+00 -0.10000000000E+04  0.10000000000E+04  0.00000000000E+00 0.  1.
    9000005    2    1    2  501    0 -0.21668891449E+02 -0.76392589945E+01 -0.89522411182E+03  0.11030405910E+04  0.64400654962E+03 0.  0.
         13    1    3    3    0    0 -0.21847035764E+03  0.18336462790E+03 -0.72787520190E+03  0.78176351506E+03  0.00000000000E+00 0.  1.
          3    1    3    3  501    0  0.19680146619E+03 -0.19100388689E+03 -0.16734890992E+03  0.32127707598E+03  0.00000000000E+00 0.  1.
         -3    1    1    2    0  502  0.21668891449E+02  0.76392589945E+01  0.15123861691E+03  0.15297391405E+03  0.00000000000E+00 0. -1.
<mgrwt>
<rscale>  1 0.64441627E+03</rscale>
<asrwt>0</asrwt>
<pdfrwt beam="1">  1       21 0.39386846E-01 0.64441627E+03</pdfrwt>
<pdfrwt beam="2">0</pdfrwt>
<totfact> 0.58340781E+02</totfact>
</mgrwt>
</event>
<event>
 6    1  0.1347953E-004  0.6532899E+03  0.7818608E-02  0.9800625E-01
         21   -1    0    0  501  502  0.00000000000E+00  0.00000000000E+00  0.15181677258E+03  0.15181677258E+03  0.00000000000E+00 0.  1.
         13   -1    0    0    0    0 -0.00000000000E+00 -0.00000000000E+00 -0.10000000000E+04  0.10000000000E+04  0.00000000000E+00 0.  1.
    9000005    2    1    2  501    0 -0.19724424196E+02  0.28083798104E+02 -0.88596058871E+03  0.11007787314E+04  0.65238784327E+03 0.  0.
         13    1    3    3    0    0 -0.31915202261E+03  0.89277831523E+02 -0.58200132782E+03  0.66974180870E+03  0.00000000000E+00 0.  1.
          3    1    3    3  501    0  0.29942759841E+03 -0.61194033419E+02 -0.30395926089E+03  0.43103692266E+03  0.00000000000E+00 0.  1.
         -1    1    1    2    0  502  0.19724424196E+02 -0.28083798104E+02  0.37777361290E+02  0.51038041223E+02  0.00000000000E+00 0. -1.
<mgrwt>
<rscale>  1 0.65328987E+03</rscale>
<asrwt>0</asrwt>
<pdfrwt beam="1">  1       21 0.23356426E-01 0.65328987E+03</pdfrwt>
<pdfrwt beam="2">0</pdfrwt>
<totfact> 0.16627819E+03</totfact>
</mgrwt>
</event>
<event>
 6    1  0.1347953E-004  0.6728112E+03  0.7818608E-02  0.9764893E-01
         21   -1    0    0  501  502  0.00000000000E+00  0.00000000000E+00  0.35760009601E+03  0.35760009601E+03  0.00000000000E+00 0. -1.
         13   -1    0    0    0    0 -0.00000000000E+00 -0.00000000000E+00 -0.10000000000E+04  0.10000000000E+04  0.00000000000E+00 0.  1.
    9000005    2    1    2  501    0  0.12061316496E+02 -0.23342438378E+02 -0.88604499397E+03  0.11125423994E+04  0.67229793574E+03 0.  0.
         13    1    3    3    0    0 -0.32085575185E+03  0.33313858197E+00 -0.30628052834E+03  0.44357218862E+03  0.00000000000E+00 0.  1.
          3    1    3    3  501    0  0.33291706835E+03 -0.23675576960E+02 -0.57976446563E+03  0.66897021081E+03  0.00000000000E+00 0.  1.
         -1    1    1    2    0  502 -0.12061316496E+02  0.23342438378E+02  0.24364508998E+03  0.24505769658E+03  0.00000000000E+00 0. -1.
<mgrwt>
<rscale>  1 0.67281116E+03</rscale>
<asrwt>0</asrwt>
<pdfrwt beam="1">  1       21 0.55015398E-01 0.67281116E+03</pdfrwt>
<pdfrwt beam="2">0</pdfrwt>
<totfact> 0.28626684E+02</totfact>
</mgrwt>
</event>
<event>
 6    1  0.1347953E-004  0.5942607E+03  0.7818608E-02  0.9917385E-01
         21   -1    0    0  501  502  0.00000000000E+00  0.00000000000E+00  0.10870012739E+03  0.10870012739E+03  0.00000000000E+00 0.  1.
         13   -1    0    0    0    0 -0.00000000000E+00 -0.00000000000E+00 -0.10000000000E+04  0.10000000000E+04  0.00000000000E+00 0.  1.
    9000005    2    1    2  501    0  0.24068979107E+02  0.50689755476E+00 -0.90372936713E+03  0.10816064928E+04  0.59377290574E+03 0.  0.
         13    1    3    3    0    0  0.23919166573E+02 -0.29039890661E+03 -0.34421036666E+03  0.45098162713E+03  0.00000000000E+00 0.  1.
          3    1    3    3  501    0  0.14981253417E+00  0.29090580417E+03 -0.55951900047E+03  0.63062486569E+03  0.00000000000E+00 0.  1.
         -3    1    1    2    0  502 -0.24068979107E+02 -0.50689755476E+00  0.12429494524E+02  0.27093634575E+02  0.00000000000E+00 0. -1.
<mgrwt>
<rscale>  1 0.59426075E+03</rscale>
<asrwt>0</asrwt>
<pdfrwt beam="1">  1       21 0.16723096E-01 0.59426075E+03</pdfrwt>
<pdfrwt beam="2">0</pdfrwt>
<totfact> 0.31589385E+03</totfact>
</mgrwt>
</event>
<event>
 6    1  0.1347953E-004  0.6492767E+03  0.7818608E-02  0.9808137E-01
         21   -1    0    0  501  502  0.00000000000E+00  0.00000000000E+00  0.20226881756E+03  0.20226881756E+03  0.00000000000E+00 0.  1.
         13   -1    0    0    0    0 -0.00000000000E+00 -0.00000000000E+00 -0.10000000000E+04  0.10000000000E+04  0.00000000000E+00 0.  1.
    9000005    2    1    2  501    0  0.27289570322E+02  0.57495195113E+02 -0.88290826964E+03  0.10959412374E+04  0.64614995567E+03 0.  0.
         13    1    3    3    0    0  0.32295960349E+03 -0.64584507325E+02 -0.45405728207E+03  0.56092965644E+03  0.00000000000E+00 0.  1.
          1    1    3    3  501    0 -0.29567003317E+03  0.12207970244E+03 -0.42885098758E+03  0.53501158100E+03  0.00000000000E+00 0.  1.
         -1    1    1    2    0  502 -0.27289570322E+02 -0.57495195113E+02  0.85177087202E+02  0.10632758012E+03  0.00000000000E+00 0. -1.
<mgrwt>
<rscale>  1 0.64927666E+03</rscale>
<asrwt>0</asrwt>
<pdfrwt beam="1">  1       21 0.31118279E-01 0.64927666E+03</pdfrwt>
<pdfrwt beam="2">0</pdfrwt>
<totfact> 0.94300071E+02</totfact>
</mgrwt>
</event>
<event>
 6    1  0.1347953E-004  0.6450288E+03  0.7818608E-02  0.9816152E-01
         21   -1    0    0  501  502  0.00000000000E+00  0.00000000000E+00  0.14555788088E+03  0.14555788088E+03  0.00000000000E+00 0. -1.
         13   -1    0    0    0    0 -0.00000000000E+00 -0.00000000000E+00 -0.10000000000E+04  0.10000000000E+04  0.00000000000E+00 0.  1.
    9000005    2    1    2  501    0  0.23862106761E+02  0.47877724657E+02 -0.87601978107E+03  0.10878753692E+04  0.64280672479E+03 0.  0.
         13    1    3    3    0    0  0.11525726054E+02 -0.20767724377E+02  0.10334043958E+03  0.10603483951E+03  0.00000000000E+00 0.  1.
          3    1    3    3  501    0  0.12336380707E+02  0.68645449034E+02 -0.97936022065E+03  0.98184052970E+03  0.00000000000E+00 0.  1.
         -3    1    1    2    0  502 -0.23862106761E+02 -0.47877724657E+02  0.21577661952E+02  0.57682511671E+02  0.00000000000E+00 0. -1.
<mgrwt>
<rscale>  1 0.64502881E+03</rscale>
<asrwt>0</asrwt>
<pdfrwt beam="1">  1       21 0.22393519E-01 0.64502881E+03</pdfrwt>
<pdfrwt beam="2">0</pdfrwt>
<totfact> 0.18051837E+03</totfact>
</mgrwt>
</event>
<event>
 6    1  0.1347953E-004  0.6380352E+03  0.7818608E-02  0.9829493E-01
         21   -1    0    0  501  502  0.00000000000E+00  0.00000000000E+00  0.13522320813E+03  0.13522320813E+03  0.00000000000E+00 0.  1.
         13   -1    0    0    0    0 -0.00000000000E+00 -0.00000000000E+00 -0.10000000000E+04  0.10000000000E+04  0.00000000000E+00 0.  1.
    9000005    2    1    2  501    0  0.67942879251E+02  0.20595275540E+02 -0.84980614072E+03  0.10626661918E+04  0.63407299129E+03 0.  0.
         13    1    3    3    0    0  0.33178047869E+03 -0.92411077220E+02 -0.38677986991E+03  0.51789647710E+03  0.00000000000E+00 0.  1.
          3    1    3    3  501    0 -0.26383759944E+03  0.11300635276E+03 -0.46302627081E+03  0.54476971474E+03  0.00000000000E+00 0.  1.
         -1    1    1    2    0  502 -0.67942879251E+02 -0.20595275540E+02 -0.14970651156E+02  0.72557016280E+02  0.00000000000E+00 0. -1.
<mgrwt>
<rscale>  1 0.63803523E+03</rscale>
<asrwt>0</asrwt>
<pdfrwt beam="1">  1       21 0.20803570E-01 0.63803523E+03</pdfrwt>
<pdfrwt beam="2">0</pdfrwt>
<totfact> 0.20817175E+03</totfact>
</mgrwt>
</event>
<event>
 6    1  0.1347953E-004  0.6666255E+03  0.7818608E-02  0.9776073E-01
         21   -1    0    0  501  502  0.00000000000E+00  0.00000000000E+00  0.16206166727E+03  0.16206166727E+03  0.00000000000E+00 0.  1.
         13   -1    0    0    0    0 -0.00000000000E+00 -0.00000000000E+00 -0.10000000000E+04  0.10000000000E+04  0.00000000000E+00 0.  1.
    9000005    2    1    2  501    0  0.12814326230E+03  0.52403300190E+02 -0.69949253537E+03  0.96627085963E+03  0.65209107155E+03 0.  0.
         13    1    3    3    0    0  0.28800310210E+03 -0.11816958990E+03 -0.10675590678E+03  0.32909977579E+03  0.00000000000E+00 0.  1.
          3    1    3    3  501    0 -0.15985983980E+03  0.17057289009E+03 -0.59273662859E+03  0.63717108384E+03  0.00000000000E+00 0.  1.
         -3    1    1    2    0  502 -0.12814326230E+03 -0.52403300190E+02 -0.13844579737E+03  0.19579080763E+03  0.00000000000E+00 0. -1.
<mgrwt>
<rscale>  1 0.66662551E+03</rscale>
<asrwt>0</asrwt>
<pdfrwt beam="1">  1       21 0.24932563E-01 0.66662551E+03</pdfrwt>
<pdfrwt beam="2">0</pdfrwt>
<totfact> 0.14626544E+03</totfact>
</mgrwt>
</event>
<event>
 6    1  0.1347953E-004  0.7028289E+03  0.7818608E-02  0.9712407E-01
         21   -1    0    0  501  502  0.00000000000E+00  0.00000000000E+00  0.32256006136E+03  0.32256006136E+03  0.00000000000E+00 0. -1.
         13   -1    0    0    0    0 -0.00000000000E+00 -0.00000000000E+00 -0.10000000000E+04  0.10000000000E+04  0.00000000000E+00 0.  1.
    9000005    2    1    2  501    0  0.26929753764E+03  0.98915781284E+01 -0.76535396974E+03  0.10391030382E+04  0.64911433352E+03 0.  0.
         13    1    3    3    0    0  0.52514472016E+02  0.31998575720E+03 -0.34067881484E+03  0.47033042583E+03  0.00000000000E+00 0.  1.
          3    1    3    3  501    0  0.21678306563E+03 -0.31009417907E+03 -0.42467515490E+03  0.56877261241E+03  0.00000000000E+00 0.  1.
         -3    1    1    2    0  502 -0.26929753764E+03 -0.98915781284E+01  0.87914031099E+02  0.28345702313E+03  0.00000000000E+00 0. -1.
<mgrwt>
<rscale>  1 0.70282887E+03</rscale>
<asrwt>0</asrwt>
<pdfrwt beam="1">  1       21 0.49624623E-01 0.70282887E+03</pdfrwt>
<pdfrwt beam="2">0</pdfrwt>
<totfact> 0.35672551E+02</totfact>
</mgrwt>
</event>
<event>
 6    1  0.1347953E-004  0.6667056E+03  0.7818608E-02  0.9775928E-01
         21   -1    0    0  501  502  0.00000000000E+00  0.00000000000E+00  0.18813354538E+03  0.18813354538E+03  0.00000000000E+00 0.  1.
         13   -1    0    0    0    0 -0.00000000000E+00 -0.00000000000E+00 -0.10000000000E+04  0.10000000000E+04  0.00000000000E+00 0.  1.
    9000005    2    1    2  501    0 -0.86503226478E+02 -0.87761229177E+02 -0.82887981408E+03  0.10637378222E+04  0.65521871671E+03 0.  0.
         13    1    3    3    0    0 -0.60975251528E+02 -0.43892475540E+02 -0.93925337839E+03  0.94225338393E+03  0.00000000000E+00 0.  1.
          3    1    3    3  501    0 -0.25527974950E+02 -0.43868753636E+02  0.11037356431E+03  0.12148443830E+03  0.00000000000E+00 0.  1.
         -1    1    1    2    0  502  0.86503226478E+02  0.87761229177E+02  0.17013359461E+02  0.12439572315E+03  0.00000000000E+00 0. -1.
<mgrwt>
<rscale>  1 0.66670564E+03</rscale>
<asrwt>0</asrwt>
<pdfrwt beam="1">  1       21 0.28943622E-01 0.66670564E+03</pdfrwt>
<pdfrwt beam="2">0</pdfrwt>
<totfact> 0.10890431E+03</totfact>
</mgrwt>
</event>
<event>
 6    1  0.1347953E-004  0.6384147E+03  0.7818608E-02  0.9828764E-01
         21   -1    0    0  501  502  0.00000000000E+00  0.00000000000E+00  0.15793757977E+03  0.15793757977E+03  0.00000000000E+00 0.  1.
         13   -1    0    0    0    0 -0.00000000000E+00 -0.00000000000E+00 -0.10000000000E+04  0.10000000000E+04  0.00000000000E+00 0.  1.
    9000005    2    1    2  501    0 -0.30455395198E+02  0.13586140208E+02 -0.89258728148E+03  0.10973993612E+04  0.63754308765E+03 0.  0.
         13    1    3    3    0    0 -0.21706401952E+03  0.54893970555E+02 -0.87757307051E+03  0.90568461986E+03  0.00000000000E+00 0.  1.
          3    1    3    3  501    0  0.18660862432E+03 -0.41307830347E+02 -0.15014210971E+02  0.19171474135E+03  0.00000000000E+00 0.  1.
         -3    1    1    2    0  502  0.30455395198E+02 -0.13586140208E+02  0.50524861245E+02  0.60538218558E+02  0.00000000000E+00 0. -1.
<mgrwt>
<rscale>  1 0.63841468E+03</rscale>
<asrwt>0</asrwt>
<pdfrwt beam="1">  1       21 0.24298088E-01 0.63841468E+03</pdfrwt>
<pdfrwt beam="2">0</pdfrwt>
<totfact> 0.15405544E+03</totfact>
</mgrwt>
</event>
<event>
 6    1  0.1347953E-004  0.6461980E+03  0.7818608E-02  0.9813940E-01
         21   -1    0    0  501  502  0.00000000000E+00  0.00000000000E+00  0.20337698145E+03  0.20337698145E+03  0.00000000000E+00 0. -1.
         13   -1    0    0    0    0 -0.00000000000E+00 -0.00000000000E+00 -0.10000000000E+04  0.10000000000E+04  0.00000000000E+00 0.  1.
    9000005    2    1    2  501    0  0.22676163076E+02 -0.23616168072E+02 -0.89260768538E+03  0.11019620514E+04  0.64536807406E+03 0.  0.
         13    1    3    3    0    0  0.91169631381E+02  0.19831990693E+03 -0.83445223932E+03  0.86252723255E+03  0.00000000000E+00 0.  1.
          1    1    3    3  501    0 -0.68493468305E+02 -0.22193607500E+03 -0.58155446051E+02  0.23943481888E+03  0.00000000000E+00 0.  1.
         -3    1    1    2    0  502 -0.22676163076E+02  0.23616168072E+02  0.95984666828E+02  0.10141493003E+03  0.00000000000E+00 0. -1.
<mgrwt>
<rscale>  1 0.64619802E+03</rscale>
<asrwt>0</asrwt>
<pdfrwt beam="1">  1       21 0.31288765E-01 0.64619802E+03</pdfrwt>
<pdfrwt beam="2">0</pdfrwt>
<totfact> 0.93288476E+02</totfact>
</mgrwt>
</event>
<event>
 6    1  0.1347953E-004  0.6565340E+03  0.7818608E-02  0.9794595E-01
         21   -1    0    0  501  502  0.00000000000E+00  0.00000000000E+00  0.26211749713E+03  0.26211749713E+03  0.00000000000E+00 0. -1.
         13   -1    0    0    0    0 -0.00000000000E+00 -0.00000000000E+00 -0.10000000000E+04  0.10000000000E+04  0.00000000000E+00 0.  1.
    9000005    2    1    2  501    0 -0.14906692334E+02 -0.47643989532E+02 -0.88775502405E+03  0.11041493617E+04  0.65463323393E+03 0.  0.
         13    1    3    3    0    0 -0.22160153328E+03  0.44817423084E+02 -0.84370389032E+03  0.87347129060E+03  0.00000000000E+00 0.  1.
          1    1    3    3  501    0  0.20669484094E+03 -0.92461412616E+02 -0.44051133729E+02  0.23067807108E+03  0.00000000000E+00 0.  1.
         -1    1    1    2    0  502  0.14906692334E+02  0.47643989532E+02  0.14987252118E+03  0.15796813545E+03  0.00000000000E+00 0. -1.
<mgrwt>
<rscale>  1 0.65653395E+03</rscale>
<asrwt>0</asrwt>
<pdfrwt beam="1">  1       21 0.40325768E-01 0.65653395E+03</pdfrwt>
<pdfrwt beam="2">0</pdfrwt>
<totfact> 0.55502456E+02</totfact>
</mgrwt>
</event>
<event>
 6    1  0.1347953E-004  0.6544514E+03  0.7818608E-02  0.9798462E-01
         21   -1    0    0  501  502  0.00000000000E+00  0.00000000000E+00  0.15834280664E+03  0.15834280664E+03  0.00000000000E+00 0.  1.
         13   -1    0    0    0    0 -0.00000000000E+00 -0.00000000000E+00 -0.10000000000E+04  0.10000000000E+04  0.00000000000E+00 0.  1.
    9000005    2    1    2  501    0 -0.22272543142E+02 -0.75397949782E+01 -0.88992050795E+03  0.11046561023E+04  0.65402880612E+03 0.  0.
         13    1    3    3    0    0  0.15613185063E+03  0.23173888288E+03 -0.17441468113E+03  0.32939421005E+03  0.00000000000E+00 0.  1.
          1    1    3    3  501    0 -0.17840439377E+03 -0.23927867786E+03 -0.71550582681E+03  0.77526189226E+03  0.00000000000E+00 0.  1.
         -3    1    1    2    0  502  0.22272543142E+02  0.75397949782E+01  0.48263314585E+02  0.53686704323E+02  0.00000000000E+00 0. -1.
<mgrwt>
<rscale>  1 0.65445137E+03</rscale>
<asrwt>0</asrwt>
<pdfrwt beam="1">  1       21 0.24360431E-01 0.65445137E+03</pdfrwt>
<pdfrwt beam="2">0</pdfrwt>
<totfact> 0.15316105E+03</totfact>
</mgrwt>
</event>
<event>
 6    1  0.1347953E-004  0.6583266E+03  0.7818608E-02  0.9791279E-01
         21   -1    0    0  501  502  0.00000000000E+00  0.00000000000E+00  0.14494795267E+04  0.14494795267E+04  0.00000000000E+00 0. -1.
         13   -1    0    0    0    0 -0.00000000000E+00 -0.00000000000E+00 -0.10000000000E+04  0.10000000000E+04  0.00000000000E+00 0.  1.
    9000005    2    1    2  501    0 -0.42481425542E+02 -0.10715363353E+03 -0.88890520001E+03  0.11061403106E+04  0.64815689423E+03 0.  0.
         13    1    3    3    0    0  0.63844297287E+02  0.25218792134E+03 -0.22580106489E+03  0.34447200594E+03  0.00000000000E+00 0.  1.
          1    1    3    3  501    0 -0.10632572283E+03 -0.35934155487E+03 -0.66310413512E+03  0.76166830471E+03  0.00000000000E+00 0.  1.
         -1    1    1    2    0  502  0.42481425542E+02  0.10715363353E+03  0.13383847267E+04  0.13433392160E+04  0.00000000000E+00 0. -1.
<mgrwt>
<rscale>  1 0.65832662E+03</rscale>
<asrwt>0</asrwt>
<pdfrwt beam="1">  1       21 0.22299684E+00 0.65832662E+03</pdfrwt>
<pdfrwt beam="2">0</pdfrwt>
<totfact> 0.77139793E+00</totfact>
</mgrwt>
</event>
<event>
 6    1  0.1347953E-004  0.6570493E+03  0.7818608E-02  0.9793641E-01
         21   -1    0    0  501  502  0.00000000000E+00  0.00000000000E+00  0.11996713412E+03  0.11996713412E+03  0.00000000000E+00 0.  1.
         13   -1    0    0    0    0 -0.00000000000E+00 -0.00000000000E+00 -0.10000000000E+04  0.10000000000E+04  0.00000000000E+00 0.  1.
    9000005    2    1    2  501    0  0.20359743265E+02 -0.17345530307E+02 -0.87240157113E+03  0.10921530509E+04  0.65650468288E+03 0.  0.
         13    1    3    3    0    0  0.13820908198E+01 -0.38902948338E+02 -0.98000744096E+03  0.98078026790E+03  0.00000000000E+00 0.  1.
          1    1    3    3  501    0  0.18977652445E+02  0.21557418031E+02  0.10760586983E+03  0.11137278297E+03  0.00000000000E+00 0.  1.
         -3    1    1    2    0  502 -0.20359743265E+02  0.17345530307E+02 -0.76312947551E+01  0.27814083251E+02  0.00000000000E+00 0. -1.
<mgrwt>
<rscale>  1 0.65704930E+03</rscale>
<asrwt>0</asrwt>
<pdfrwt beam="1">  1       21 0.18456482E-01 0.65704930E+03</pdfrwt>
<pdfrwt beam="2">0</pdfrwt>
<totfact> 0.26157358E+03</totfact>
</mgrwt>
</event>
<event>
 6    1  0.1347953E-004  0.8968942E+03  0.7818608E-02  0.9429472E-01
         21   -1    0    0  501  502  0.00000000000E+00  0.00000000000E+00  0.67742270818E+03  0.67742270818E+03  0.00000000000E+00 0. -1.
         13   -1    0    0    0    0 -0.00000000000E+00 -0.00000000000E+00 -0.10000000000E+04  0.10000000000E+04  0.00000000000E+00 0.  1.
    9000005    2    1    2  501    0  0.28380650996E+03 -0.55065758086E+03 -0.50801041636E+03  0.10307733827E+04  0.64857480440E+03 0.  0.
         13    1    3    3    0    0  0.38277403657E+03 -0.60622606579E+03 -0.55626061056E+03  0.90744249006E+03  0.00000000000E+00 0.  1.
          3    1    3    3  501    0 -0.98967526611E+02  0.55568484926E+02  0.48250194195E+02  0.12333089264E+03  0.00000000000E+00 0.  1.
         -3    1    1    2    0  502 -0.28380650996E+03  0.55065758086E+03  0.18543312454E+03  0.64664932547E+03  0.00000000000E+00 0. -1.
<mgrwt>
<rscale>  1 0.89689419E+03</rscale>
<asrwt>0</asrwt>
<pdfrwt beam="1">  1       21 0.10421888E+00 0.89689419E+03</pdfrwt>
<pdfrwt beam="2">0</pdfrwt>
<totfact> 0.63430571E+01</totfact>
</mgrwt>
</event>
<event>
 6    1  0.1347953E-004  0.6524412E+03  0.7818608E-02  0.9802209E-01
         21   -1    0    0  501  502  0.00000000000E+00  0.00000000000E+00  0.42204395352E+03  0.42204395352E+03  0.00000000000E+00 0. -1.
         13   -1    0    0    0    0 -0.00000000000E+00 -0.00000000000E+00 -0.10000000000E+04  0.10000000000E+04  0.00000000000E+00 0.  1.
    9000005    2    1    2  501    0 -0.41420065600E+02 -0.57733159768E+02 -0.88914782719E+03  0.11028432894E+04  0.64856050055E+03 0.  0.
         13    1    3    3    0    0  0.69845734759E+02  0.21123633926E+03 -0.69563303343E+02  0.23310570748E+03  0.00000000000E+00 0.  1.
          3    1    3    3  501    0 -0.11126580036E+03 -0.26896949902E+03 -0.81958452385E+03  0.86973758196E+03  0.00000000000E+00 0.  1.
         -1    1    1    2    0  502  0.41420065600E+02  0.57733159768E+02  0.31119178071E+03  0.31920066409E+03  0.00000000000E+00 0. -1.
<mgrwt>
<rscale>  1 0.65244116E+03</rscale>
<asrwt>0</asrwt>
<pdfrwt beam="1">  1       21 0.64929837E-01 0.65244116E+03</pdfrwt>
<pdfrwt beam="2">0</pdfrwt>
<totfact> 0.19896064E+02</totfact>
</mgrwt>
</event>
<event>
 6    1  0.1347953E-004  0.6621758E+03  0.7818608E-02  0.9784197E-01
         21   -1    0    0  501  502  0.00000000000E+00  0.00000000000E+00  0.14037015475E+03  0.14037015475E+03  0.00000000000E+00 0.  1.
         13   -1    0    0    0    0 -0.00000000000E+00 -0.00000000000E+00 -0.10000000000E+04  0.10000000000E+04  0.00000000000E+00 0.  1.
    9000005    2    1    2  501    0 -0.20898217575E+02  0.96238142008E+01 -0.88552743837E+03  0.11057285811E+04  0.66177601770E+03 0.  0.
         13    1    3    3    0    0  0.10792438053E+03 -0.32557630117E+02  0.75184700955E+02  0.13550059206E+03  0.00000000000E+00 0.  1.
          1    1    3    3  501    0 -0.12882259810E+03  0.42181444317E+02 -0.96071213932E+03  0.97022798901E+03  0.00000000000E+00 0.  1.
         -3    1    1    2    0  502  0.20898217575E+02 -0.96238142008E+01  0.25897593120E+02  0.34641573679E+02  0.00000000000E+00 0. -1.
<mgrwt>
<rscale>  1 0.66217585E+03</rscale>
<asrwt>0</asrwt>
<pdfrwt beam="1">  1       21 0.21595408E-01 0.66217585E+03</pdfrwt>
<pdfrwt beam="2">0</pdfrwt>
<totfact> 0.19350546E+03</totfact>
</mgrwt>
</event>
<event>
 6    1  0.1347953E-004  0.6532212E+03  0.7818608E-02  0.9800754E-01
         21   -1    0    0  501  502  0.00000000000E+00  0.00000000000E+00  0.21594342809E+03  0.21594342809E+03  0.00000000000E+00 0. -1.
         13   -1    0    0    0    0 -0.00000000000E+00 -0.00000000000E+00 -0.10000000000E+04  0.10000000000E+04  0.00000000000E+00 0.  1.
    9000005    2    1    2  501    0  0.19068585582E+03 -0.58888719642E+01 -0.78998720260E+03  0.10250745024E+04  0.62474169120E+03 0.  0.
         13    1    3    3    0    0  0.38945496163E+03 -0.13927830271E+03 -0.51349315089E+03  0.65935485799E+03  0.00000000000E+00 0.  1.
          1    1    3    3  501    0 -0.19876910581E+03  0.13338943075E+03 -0.27649405171E+03  0.36571964439E+03  0.00000000000E+00 0.  1.
         -1    1    1    2    0  502 -0.19068585582E+03  0.58888719642E+01  0.59306306854E+01  0.19086892571E+03  0.00000000000E+00 0. -1.
<mgrwt>
<rscale>  1 0.65322121E+03</rscale>
<asrwt>0</asrwt>
<pdfrwt beam="1">  1       21 0.33222065E-01 0.65322121E+03</pdfrwt>
<pdfrwt beam="2">0</pdfrwt>
<totfact> 0.82614262E+02</totfact>
</mgrwt>
</event>
<event>
 6    1  0.1347953E-004  0.7218058E+03  0.7818608E-02  0.9680651E-01
         21   -1    0    0  501  502  0.00000000000E+00  0.00000000000E+00  0.28580126313E+03  0.28580126313E+03  0.00000000000E+00 0.  1.
         13   -1    0    0    0    0 -0.00000000000E+00 -0.00000000000E+00 -0.10000000000E+04  0.10000000000E+04  0.00000000000E+00 0.  1.
    9000005    2    1    2  501    0  0.36979577802E+02 -0.28816041730E+03 -0.68279444243E+03  0.99358534128E+03  0.66075688761E+03 0.  0.
         13    1    3    3    0    0 -0.28077831134E+03  0.16075704283E+02 -0.28693561337E+03  0.40177970906E+03  0.00000000000E+00 0.  1.
          1    1    3    3  501    0  0.31775788914E+03 -0.30423612158E+03 -0.39585882906E+03  0.59180563223E+03  0.00000000000E+00 0.  1.
         -1    1    1    2    0  502 -0.36979577802E+02  0.28816041730E+03 -0.31404294433E+02  0.29221592185E+03  0.00000000000E+00 0. -1.
<mgrwt>
<rscale>  1 0.72180578E+03</rscale>
<asrwt>0</asrwt>
<pdfrwt beam="1">  1       21 0.43969424E-01 0.72180578E+03</pdfrwt>
<pdfrwt beam="2">0</pdfrwt>
<totfact> 0.46066959E+02</totfact>
</mgrwt>
</event>
<event>
 6    1  0.1347953E-004  0.6540131E+03  0.7818608E-02  0.9799278E-01
         21   -1    0    0  501  502  0.00000000000E+00  0.00000000000E+00  0.13405293494E+03  0.13405293494E+03  0.00000000000E+00 0.  1.
         13   -1    0    0    0    0 -0.00000000000E+00 -0.00000000000E+00 -0.10000000000E+04  0.10000000000E+04  0.00000000000E+00 0.  1.
    9000005    2    1    2  501    0 -0.74223944386E+02  0.10003438270E+02 -0.80701381515E+03  0.10387513576E+04  0.64971056816E+03 0.  0.
         13    1    3    3    0    0  0.59850575043E+02 -0.30392134114E+03 -0.43287549679E+03  0.53228889586E+03  0.00000000000E+00 0.  1.
          1    1    3    3  501    0 -0.13407451943E+03  0.31392477941E+03 -0.37413831836E+03  0.50646246174E+03  0.00000000000E+00 0.  1.
         -1    1    1    2    0  502  0.74223944386E+02 -0.10003438270E+02 -0.58933249917E+02  0.95301577338E+02  0.00000000000E+00 0. -1.
<mgrwt>
<rscale>  1 0.65401306E+03</rscale>
<asrwt>0</asrwt>
<pdfrwt beam="1">  1       21 0.20623528E-01 0.65401306E+03</pdfrwt>
<pdfrwt beam="2">0</pdfrwt>
<totfact> 0.21154176E+03</totfact>
</mgrwt>
</event>
<event>
 6    1  0.1347953E-004  0.6529202E+03  0.7818608E-02  0.9801315E-01
         21   -1    0    0  501  502  0.00000000000E+00  0.00000000000E+00  0.13442311940E+03  0.13442311940E+03  0.00000000000E+00 0.  1.
         13   -1    0    0    0    0 -0.00000000000E+00 -0.00000000000E+00 -0.10000000000E+04  0.10000000000E+04  0.00000000000E+00 0.  1.
    9000005    2    1    2  501    0 -0.23513517607E+02 -0.36183321671E+02 -0.87349588497E+03  0.10905502473E+04  0.65149264196E+03 0.  0.
         13    1    3    3    0    0 -0.11392983673E+02 -0.33907751919E+03 -0.36321353322E+03  0.49701854574E+03  0.00000000000E+00 0.  1.
          3    1    3    3  501    0 -0.12120533934E+02  0.30289419752E+03 -0.51028235175E+03  0.59353170154E+03  0.00000000000E+00 0.  1.
         -3    1    1    2    0  502  0.23513517607E+02  0.36183321671E+02  0.79190043718E+01  0.43872872115E+02  0.00000000000E+00 0. -1.
<mgrwt>
<rscale>  1 0.65292019E+03</rscale>
<asrwt>0</asrwt>
<pdfrwt beam="1">  1       21 0.20680479E-01 0.65292019E+03</pdfrwt>
<pdfrwt beam="2">0</pdfrwt>
<totfact> 0.21043194E+03</totfact>
</mgrwt>
</event>
<event>
 6    1  0.1347953E-004  0.7205644E+03  0.7818608E-02  0.9682697E-01
         21   -1    0    0  501  502  0.00000000000E+00  0.00000000000E+00  0.17013489213E+03  0.17013489213E+03  0.00000000000E+00 0.  1.
         13   -1    0    0    0    0 -0.00000000000E+00 -0.00000000000E+00 -0.10000000000E+04  0.10000000000E+04  0.00000000000E+00 0.  1.
    9000005    2    1    2  501    0  0.15201920326E+02 -0.25254243402E+02 -0.86399798256E+03  0.11250357976E+04  0.71996121900E+03 0.  0.
         13    1    3    3    0    0  0.36591828661E+03 -0.42244998000E+02 -0.41141767385E+03  0.55221855699E+03  0.00000000000E+00 0.  1.
          3    1    3    3  501    0 -0.35071636629E+03  0.16990754598E+02 -0.45258030871E+03  0.57281724062E+03  0.00000000000E+00 0.  1.
         -3    1    1    2    0  502 -0.15201920326E+02  0.25254243402E+02  0.34132874682E+02  0.45099094508E+02  0.00000000000E+00 0. -1.
<mgrwt>
<rscale>  1 0.72056438E+03</rscale>
<asrwt>0</asrwt>
<pdfrwt beam="1">  1       21 0.26174598E-01 0.72056438E+03</pdfrwt>
<pdfrwt beam="2">0</pdfrwt>
<totfact> 0.13256693E+03</totfact>
</mgrwt>
</event>
<event>
 6    1  0.1347953E-004  0.7025784E+03  0.7818608E-02  0.9712833E-01
         21   -1    0    0  501  502  0.00000000000E+00  0.00000000000E+00  0.18041143125E+03  0.18041143125E+03  0.00000000000E+00 0.  1.
         13   -1    0    0    0    0 -0.00000000000E+00 -0.00000000000E+00 -0.10000000000E+04  0.10000000000E+04  0.00000000000E+00 0.  1.
    9000005    2    1    2  501    0  0.26204046365E+02  0.51501258816E+02 -0.85955061361E+03  0.11101547822E+04  0.70019808012E+03 0.  0.
         13    1    3    3    0    0 -0.25255121693E+03  0.22385396568E+03 -0.61400793233E+03  0.70064146044E+03  0.00000000000E+00 0.  1.
          3    1    3    3  501    0  0.27875526329E+03 -0.17235270687E+03 -0.24554268128E+03  0.40951332177E+03  0.00000000000E+00 0.  1.
         -3    1    1    2    0  502 -0.26204046365E+02 -0.51501258816E+02  0.39962044858E+02  0.70256649043E+02  0.00000000000E+00 0. -1.
<mgrwt>
<rscale>  1 0.70257838E+03</rscale>
<asrwt>0</asrwt>
<pdfrwt beam="1">  1       21 0.27755604E-01 0.70257838E+03</pdfrwt>
<pdfrwt beam="2">0</pdfrwt>
<totfact> 0.11814182E+03</totfact>
</mgrwt>
</event>
<event>
 6    1  0.1347953E-004  0.6299936E+03  0.7818608E-02  0.9845061E-01
         21   -1    0    0  501  502  0.00000000000E+00  0.00000000000E+00  0.11421985154E+03  0.11421985154E+03  0.00000000000E+00 0.  1.
         13   -1    0    0    0    0 -0.00000000000E+00 -0.00000000000E+00 -0.10000000000E+04  0.10000000000E+04  0.00000000000E+00 0.  1.
    9000005    2    1    2  501    0 -0.51497010433E+01  0.45596519089E+02 -0.82222813320E+03  0.10358334968E+04  0.62832027502E+03 0.  0.
         13    1    3    3    0    0 -0.30267638216E+03  0.39446270081E+02 -0.56632903186E+03  0.64334871794E+03  0.00000000000E+00 0.  1.
          3    1    3    3  501    0  0.29752668112E+03  0.61502490081E+01 -0.25589910133E+03  0.39248477882E+03  0.00000000000E+00 0.  1.
         -1    1    1    2    0  502  0.51497010433E+01 -0.45596519089E+02 -0.63552015260E+02  0.78386354791E+02  0.00000000000E+00 0. -1.
<mgrwt>
<rscale>  1 0.62999360E+03</rscale>
<asrwt>0</asrwt>
<pdfrwt beam="1">  1       21 0.17572284E-01 0.62999360E+03</pdfrwt>
<pdfrwt beam="2">0</pdfrwt>
<totfact> 0.28736910E+03</totfact>
</mgrwt>
</event>
<event>
 6    1  0.1347953E-004  0.6511450E+03  0.7818608E-02  0.9804633E-01
         21   -1    0    0  501  502  0.00000000000E+00  0.00000000000E+00  0.12178685456E+03  0.12178685456E+03  0.00000000000E+00 0.  1.
         13   -1    0    0    0    0 -0.00000000000E+00 -0.00000000000E+00 -0.10000000000E+04  0.10000000000E+04  0.00000000000E+00 0.  1.
    9000005    2    1    2  501    0  0.30760904673E+02  0.46712137956E+01 -0.87473125283E+03  0.10904790748E+04  0.65040125653E+03 0.  0.
         13    1    3    3    0    0  0.95463712986E+01  0.24368256665E+03 -0.74422087211E+02  0.25497249569E+03  0.00000000000E+00 0.  1.
          1    1    3    3  501    0  0.21214533375E+02 -0.23901135286E+03 -0.80030916562E+03  0.83550657915E+03  0.00000000000E+00 0.  1.
         -1    1    1    2    0  502 -0.30760904673E+02 -0.46712137956E+01 -0.34818926071E+01  0.31307779716E+02  0.00000000000E+00 0. -1.
<mgrwt>
<rscale>  1 0.65114503E+03</rscale>
<asrwt>0</asrwt>
<pdfrwt beam="1">  1       21 0.18736439E-01 0.65114503E+03</pdfrwt>
<pdfrwt beam="2">0</pdfrwt>
<totfact> 0.25423729E+03</totfact>
</mgrwt>
</event>
<event>
 6    1  0.1347953E-004  0.6471061E+03  0.7818608E-02  0.9812225E-01
         21   -1    0    0  501  502  0.00000000000E+00  0.00000000000E+00  0.17329436458E+03  0.17329436458E+03  0.00000000000E+00 0. -1.
         13   -1    0    0    0    0 -0.00000000000E+00 -0.00000000000E+00 -0.10000000000E+04  0.10000000000E+04  0.00000000000E+00 0.  1.
    9000005    2    1    2  501    0 -0.39487829073E+02 -0.24543862191E+02 -0.88649704800E+03  0.10975533398E+04  0.64543367420E+03 0.  0.
         13    1    3    3    0    0  0.91206975348E+02 -0.25370243941E+03 -0.75720020911E+03  0.80376352044E+03  0.00000000000E+00 0.  1.
          1    1    3    3  501    0 -0.13069480442E+03  0.22915857722E+03 -0.12929683889E+03  0.29378981937E+03  0.00000000000E+00 0.  1.
         -1    1    1    2    0  502  0.39487829073E+02  0.24543862191E+02  0.59791412577E+02  0.75741024776E+02  0.00000000000E+00 0. -1.
<mgrwt>
<rscale>  1 0.64710611E+03</rscale>
<asrwt>0</asrwt>
<pdfrwt beam="1">  1       21 0.26660671E-01 0.64710611E+03</pdfrwt>
<pdfrwt beam="2">0</pdfrwt>
<totfact> 0.12833544E+03</totfact>
</mgrwt>
</event>
<event>
 6    1  0.1347953E-004  0.6577941E+03  0.7818608E-02  0.9792263E-01
         21   -1    0    0  501  502  0.00000000000E+00  0.00000000000E+00  0.13982951108E+03  0.13982951108E+03  0.00000000000E+00 0.  1.
         13   -1    0    0    0    0 -0.00000000000E+00 -0.00000000000E+00 -0.10000000000E+04  0.10000000000E+04  0.00000000000E+00 0.  1.
    9000005    2    1    2  501    0 -0.46698575620E+02  0.67256174767E+01 -0.87094089527E+03  0.10914353735E+04  0.65609994716E+03 0.  0.
         13    1    3    3    0    0 -0.18547270706E+03 -0.12675187034E+03 -0.87036307230E+03  0.89888711156E+03  0.00000000000E+00 0.  1.
          3    1    3    3  501    0  0.13877413144E+03  0.13347748782E+03 -0.57782296568E+00  0.19254826198E+03  0.00000000000E+00 0.  1.
         -3    1    1    2    0  502  0.46698575620E+02 -0.67256174767E+01  0.10770406344E+02  0.48394137540E+02  0.00000000000E+00 0. -1.
<mgrwt>
<rscale>  1 0.65779414E+03</rscale>
<asrwt>0</asrwt>
<pdfrwt beam="1">  1       21 0.21512232E-01 0.65779414E+03</pdfrwt>
<pdfrwt beam="2">0</pdfrwt>
<totfact> 0.19499009E+03</totfact>
</mgrwt>
</event>
<event>
 6    1  0.1347953E-004  0.6467521E+03  0.7818608E-02  0.9812893E-01
         21   -1    0    0  501  502  0.00000000000E+00  0.00000000000E+00  0.14997561924E+03  0.14997561924E+03  0.00000000000E+00 0.  1.
         13   -1    0    0    0    0 -0.00000000000E+00 -0.00000000000E+00 -0.10000000000E+04  0.10000000000E+04  0.00000000000E+00 0.  1.
    9000005    2    1    2  501    0  0.50520884950E+02 -0.32337064485E+02 -0.87237081284E+03  0.10859646156E+04  0.64396449107E+03 0.  0.
         13    1    3    3    0    0  0.13936244393E+03  0.17438764960E+02  0.56602689896E+02  0.15142610675E+03  0.00000000000E+00 0.  1.
          3    1    3    3  501    0 -0.88841558983E+02 -0.49775829445E+02 -0.92897350274E+03  0.93453850889E+03  0.00000000000E+00 0.  1.
         -3    1    1    2    0  502 -0.50520884950E+02  0.32337064485E+02  0.22346432088E+02  0.64011003606E+02  0.00000000000E+00 0. -1.
<mgrwt>
<rscale>  1 0.64675213E+03</rscale>
<asrwt>0</asrwt>
<pdfrwt beam="1">  1       21 0.23073172E-01 0.64675213E+03</pdfrwt>
<pdfrwt beam="2">0</pdfrwt>
<totfact> 0.17032572E+03</totfact>
</mgrwt>
</event>
<event>
 6    1  0.1347953E-004  0.6696746E+03  0.7818608E-02  0.9770546E-01
         21   -1    0    0  501  502  0.00000000000E+00  0.00000000000E+00  0.16539832921E+03  0.16539832921E+03  0.00000000000E+00 0.  1.
         13   -1    0    0    0    0 -0.00000000000E+00 -0.00000000000E+00 -0.10000000000E+04  0.10000000000E+04  0.00000000000E+00 0.  1.
    9000005    2    1    2  501    0 -0.80199206362E+02 -0.11378460962E+03 -0.73435455124E+03  0.99385144038E+03  0.65504597437E+03 0.  0.
         13    1    3    3    0    0  0.25556281321E+03  0.11028841364E+02 -0.11967225892E+03  0.28241005009E+03  0.00000000000E+00 0.  1.
          3    1    3    3  501    0 -0.33576201957E+03 -0.12481345098E+03 -0.61468229232E+03  0.71144139029E+03  0.00000000000E+00 0.  1.
         -3    1    1    2    0  502  0.80199206362E+02  0.11378460962E+03 -0.10024711955E+03  0.17154688883E+03  0.00000000000E+00 0. -1.
<mgrwt>
<rscale>  1 0.66967461E+03</rscale>
<asrwt>0</asrwt>
<pdfrwt beam="1">  1       21 0.25445896E-01 0.66967461E+03</pdfrwt>
<pdfrwt beam="2">0</pdfrwt>
<totfact> 0.14050817E+03</totfact>
</mgrwt>
</event>
<event>
 6    1  0.1347953E-004  0.6730310E+03  0.7818608E-02  0.9764498E-01
         21   -1    0    0  501  502  0.00000000000E+00  0.00000000000E+00  0.18452186860E+03  0.18452186860E+03  0.00000000000E+00 0.  1.
         13   -1    0    0    0    0 -0.00000000000E+00 -0.00000000000E+00 -0.10000000000E+04  0.10000000000E+04  0.00000000000E+00 0.  1.
    9000005    2    1    2  501    0 -0.24157638514E+02  0.18171903173E+03 -0.67846257330E+03  0.95565802009E+03  0.64758427252E+03 0.  0.
         13    1    3    3    0    0  0.23948442642E+03  0.20586408877E+03 -0.60246888387E+03  0.68022170620E+03  0.00000000000E+00 0.  1.
          1    1    3    3  501    0 -0.26364206493E+03 -0.24145057042E+02 -0.75993689421E+02  0.27543631390E+03  0.00000000000E+00 0.  1.
         -1    1    1    2    0  502  0.24157638514E+02 -0.18171903173E+03 -0.13701555810E+03  0.22886384851E+03  0.00000000000E+00 0. -1.
<mgrwt>
<rscale>  1 0.67303105E+03</rscale>
<asrwt>0</asrwt>
<pdfrwt beam="1">  1       21 0.28387979E-01 0.67303105E+03</pdfrwt>
<pdfrwt beam="2">0</pdfrwt>
<totfact> 0.11315137E+03</totfact>
</mgrwt>
</event>
<event>
 6    1  0.1347953E-004  0.6333407E+03  0.7818608E-02  0.9838551E-01
         21   -1    0    0  501  502  0.00000000000E+00  0.00000000000E+00  0.19901846823E+03  0.19901846823E+03  0.00000000000E+00 0.  1.
         13   -1    0    0    0    0 -0.00000000000E+00 -0.00000000000E+00 -0.10000000000E+04  0.10000000000E+04  0.00000000000E+00 0.  1.
    9000005    2    1    2  501    0 -0.53059923820E+02 -0.10196837571E+03 -0.86138971430E+03  0.10691644976E+04  0.62282226835E+03 0.  0.
         13    1    3    3    0    0 -0.21080010730E+03  0.38406535233E+02 -0.82813431783E+03  0.85540528147E+03  0.00000000000E+00 0.  1.
          1    1    3    3  501    0  0.15774018348E+03 -0.14037491094E+03 -0.33255396471E+02  0.21375921618E+03  0.00000000000E+00 0.  1.
         -3    1    1    2    0  502  0.53059923820E+02  0.10196837571E+03  0.60408182538E+02  0.12985397059E+03  0.00000000000E+00 0. -1.
<mgrwt>
<rscale>  1 0.63334073E+03</rscale>
<asrwt>0</asrwt>
<pdfrwt beam="1">  1       21 0.30618225E-01 0.63334073E+03</pdfrwt>
<pdfrwt beam="2">0</pdfrwt>
<totfact> 0.97519841E+02</totfact>
</mgrwt>
</event>
<event>
 6    1  0.1347953E-004  0.6503815E+03  0.7818608E-02  0.9806064E-01
         21   -1    0    0  501  502  0.00000000000E+00  0.00000000000E+00  0.23686641222E+03  0.23686641222E+03  0.00000000000E+00 0. -1.
         13   -1    0    0    0    0 -0.00000000000E+00 -0.00000000000E+00 -0.10000000000E+04  0.10000000000E+04  0.00000000000E+00 0.  1.
    9000005    2    1    2  501    0 -0.35262433036E+02 -0.26995331485E+01 -0.89160833310E+03  0.11036129438E+04  0.64941926626E+03 0.  0.
         13    1    3    3    0    0 -0.10017533158E+03  0.30522708948E+03 -0.33456223141E+03  0.46382168976E+03  0.00000000000E+00 0.  1.
          3    1    3    3  501    0  0.64912898548E+02 -0.30792662263E+03 -0.55704610169E+03  0.63979125403E+03  0.00000000000E+00 0.  1.
         -3    1    1    2    0  502  0.35262433036E+02  0.26995331485E+01  0.12847474532E+03  0.13325346842E+03  0.00000000000E+00 0. -1.
<mgrwt>
<rscale>  1 0.65038151E+03</rscale>
<asrwt>0</asrwt>
<pdfrwt beam="1">  1       21 0.36440985E-01 0.65038151E+03</pdfrwt>
<pdfrwt beam="2">0</pdfrwt>
<totfact> 0.68438623E+02</totfact>
</mgrwt>
</event>
<event>
 6    1  0.1347953E-004  0.6589804E+03  0.7818608E-02  0.9790072E-01
         21   -1    0    0  501  502  0.00000000000E+00  0.00000000000E+00  0.20453289744E+03  0.20453289744E+03  0.00000000000E+00 0. -1.
         13   -1    0    0    0    0 -0.00000000000E+00 -0.00000000000E+00 -0.10000000000E+04  0.10000000000E+04  0.00000000000E+00 0.  1.
    9000005    2    1    2  501    0 -0.11829109768E+03 -0.11782094129E+03 -0.80130953697E+03  0.10374739497E+04  0.63747993236E+03 0.  0.
         13    1    3    3    0    0  0.23092313724E+03 -0.19011386423E+03 -0.41711166296E+03  0.51327469844E+03  0.00000000000E+00 0.  1.
          1    1    3    3  501    0 -0.34921423491E+03  0.72292922937E+02 -0.38419787401E+03  0.52419925121E+03  0.00000000000E+00 0.  1.
         -1    1    1    2    0  502  0.11829109768E+03  0.11782094129E+03  0.58424344129E+01  0.16705894779E+03  0.00000000000E+00 0. -1.
<mgrwt>
<rscale>  1 0.65898044E+03</rscale>
<asrwt>0</asrwt>
<pdfrwt beam="1">  1       21 0.31466599E-01 0.65898044E+03</pdfrwt>
<pdfrwt beam="2">0</pdfrwt>
<totfact> 0.92153336E+02</totfact>
</mgrwt>
</event>
<event>
 6    1  0.1347953E-004  0.6400072E+03  0.7818608E-02  0.9825713E-01
         21   -1    0    0  501  502  0.00000000000E+00  0.00000000000E+00  0.15701948794E+03  0.15701948794E+03  0.00000000000E+00 0. -1.
         13   -1    0    0    0    0 -0.00000000000E+00 -0.00000000000E+00 -0.10000000000E+04  0.10000000000E+04  0.00000000000E+00 0.  1.
    9000005    2    1    2  501    0  0.12853400889E+03 -0.35985552085E+02 -0.78133052311E+03  0.10099933932E+04  0.62593395542E+03 0.  0.
         13    1    3    3    0    0 -0.90495924068E+01  0.28607336974E+03 -0.29878426499E+03  0.41375343503E+03  0.00000000000E+00 0.  1.
          1    1    3    3  501    0  0.13758360130E+03 -0.32205892183E+03 -0.48254625812E+03  0.59623995816E+03  0.00000000000E+00 0.  1.
         -1    1    1    2    0  502 -0.12853400889E+03  0.35985552085E+02 -0.61649988949E+02  0.14702609475E+03  0.00000000000E+00 0. -1.
<mgrwt>
<rscale>  1 0.64000724E+03</rscale>
<asrwt>0</asrwt>
<pdfrwt beam="1">  1       21 0.24156844E-01 0.64000724E+03</pdfrwt>
<pdfrwt beam="2">0</pdfrwt>
<totfact> 0.15580709E+03</totfact>
</mgrwt>
</event>
<event>
 6    1  0.1347953E-004  0.6465384E+03  0.7818608E-02  0.9813296E-01
         21   -1    0    0  501  502  0.00000000000E+00  0.00000000000E+00  0.16293797722E+03  0.16293797722E+03  0.00000000000E+00 0.  1.
         13   -1    0    0    0    0 -0.00000000000E+00 -0.00000000000E+00 -0.10000000000E+04  0.10000000000E+04  0.00000000000E+00 0.  1.
    9000005    2    1    2  501    0 -0.18861084198E+02  0.47365665736E+02 -0.88294350978E+03  0.10943496572E+04  0.64452516170E+03 0.  0.
         13    1    3    3    0    0  0.23260033653E+03 -0.18951780682E+03 -0.44143701326E+03  0.53374764855E+03  0.00000000000E+00 0.  1.
          3    1    3    3  501    0 -0.25146142073E+03  0.23688347256E+03 -0.44150649652E+03  0.56060200870E+03  0.00000000000E+00 0.  1.
         -3    1    1    2    0  502  0.18861084198E+02 -0.47365665736E+02  0.45881487003E+02  0.68588319978E+02  0.00000000000E+00 0. -1.
<mgrwt>
<rscale>  1 0.64653842E+03</rscale>
<asrwt>0</asrwt>
<pdfrwt beam="1">  1       21 0.25067380E-01 0.64653842E+03</pdfrwt>
<pdfrwt beam="2">0</pdfrwt>
<totfact> 0.14487718E+03</totfact>
</mgrwt>
</event>
<event>
 6    1  0.1347953E-004  0.6585329E+03  0.7818608E-02  0.9790898E-01
         21   -1    0    0  501  502  0.00000000000E+00  0.00000000000E+00  0.16457455488E+03  0.16457455488E+03  0.00000000000E+00 0.  1.
         13   -1    0    0    0    0 -0.00000000000E+00 -0.00000000000E+00 -0.10000000000E+04  0.10000000000E+04  0.00000000000E+00 0.  1.
    9000005    2    1    2  501    0 -0.40730321359E+02 -0.83547570421E+02 -0.84481178736E+03  0.10711547549E+04  0.65194048605E+03 0.  0.
         13    1    3    3    0    0 -0.29529925303E+02 -0.16506451923E+03  0.48109657054E+02  0.17445013929E+03  0.00000000000E+00 0.  1.
          1    1    3    3  501    0 -0.11200396056E+02  0.81516948809E+02 -0.89292144442E+03  0.89670461564E+03  0.00000000000E+00 0.  1.
         -1    1    1    2    0  502  0.40730321359E+02  0.83547570421E+02  0.93863422439E+01  0.93419799946E+02  0.00000000000E+00 0. -1.
<mgrwt>
<rscale>  1 0.65853288E+03</rscale>
<asrwt>0</asrwt>
<pdfrwt beam="1">  1       21 0.25319162E-01 0.65853288E+03</pdfrwt>
<pdfrwt beam="2">0</pdfrwt>
<totfact> 0.14197497E+03</totfact>
</mgrwt>
</event>
<event>
 6    1  0.1347953E-004  0.5989085E+03  0.7818608E-02  0.9907673E-01
         21   -1    0    0  501  502  0.00000000000E+00  0.00000000000E+00  0.12634341719E+03  0.12634341719E+03  0.00000000000E+00 0.  1.
         13   -1    0    0    0    0 -0.00000000000E+00 -0.00000000000E+00 -0.10000000000E+04  0.10000000000E+04  0.00000000000E+00 0.  1.
    9000005    2    1    2  501    0  0.48689456380E+02  0.43892667699E+02 -0.87551607036E+03  0.10607637928E+04  0.59531017565E+03 0.  0.
         13    1    3    3    0    0  0.22146322458E+03  0.18857731414E+03 -0.74632537136E+03  0.80100494579E+03  0.00000000000E+00 0.  1.
          1    1    3    3  501    0 -0.17277376820E+03 -0.14468464644E+03 -0.12919069900E+03  0.25975884702E+03  0.00000000000E+00 0.  1.
         -3    1    1    2    0  502 -0.48689456380E+02 -0.43892667699E+02  0.18594875566E+01  0.65579624383E+02  0.00000000000E+00 0. -1.
<mgrwt>
<rscale>  1 0.59890854E+03</rscale>
<asrwt>0</asrwt>
<pdfrwt beam="1">  1       21 0.19437448E-01 0.59890854E+03</pdfrwt>
<pdfrwt beam="2">0</pdfrwt>
<totfact> 0.23750251E+03</totfact>
</mgrwt>
</event>
<event>
 6    1  0.1347953E-004  0.6352401E+03  0.7818608E-02  0.9834876E-01
         21   -1    0    0  501  502  0.00000000000E+00  0.00000000000E+00  0.32949038827E+03  0.32949038827E+03  0.00000000000E+00 0.  1.
         13   -1    0    0    0    0 -0.00000000000E+00 -0.00000000000E+00 -0.10000000000E+04  0.10000000000E+04  0.00000000000E+00 0.  1.
    9000005    2    1    2  501    0 -0.31122424314E+02  0.38735937405E+02 -0.89614068083E+03  0.10984526046E+04  0.63329371272E+03 0.  0.
         13    1    3    3    0    0 -0.81810370532E+02 -0.24133349572E+03 -0.14050650042E+03  0.29099290291E+03  0.00000000000E+00 0.  1.
          1    1    3    3  501    0  0.50687946218E+02  0.28006943312E+03 -0.75563418040E+03  0.80745970169E+03  0.00000000000E+00 0.  1.
         -1    1    1    2    0  502  0.31122424314E+02 -0.38735937405E+02  0.22563106910E+03  0.23103778367E+03  0.00000000000E+00 0. -1.
<mgrwt>
<rscale>  1 0.63524012E+03</rscale>
<asrwt>0</asrwt>
<pdfrwt beam="1">  1       21 0.50690828E-01 0.63524012E+03</pdfrwt>
<pdfrwt beam="2">0</pdfrwt>
<totfact> 0.34297270E+02</totfact>
</mgrwt>
</event>
<event>
 6    1  0.1347953E-004  0.1198647E+04  0.7818608E-02  0.9114041E-01
         21   -1    0    0  501  502  0.00000000000E+00  0.00000000000E+00  0.12405596398E+04  0.12405596398E+04  0.00000000000E+00 0. -1.
         13   -1    0    0    0    0 -0.00000000000E+00 -0.00000000000E+00 -0.10000000000E+04  0.10000000000E+04  0.00000000000E+00 0.  1.
    9000005    2    1    2  501    0  0.36673262444E+03  0.93750010596E+03 -0.26931874806E+02  0.11989498391E+04  0.65065822385E+03 0.  0.
         13    1    3    3    0    0  0.45095931789E+03  0.99519370388E+03 -0.51961148207E+02  0.10938348941E+04  0.00000000000E+00 0.  1.
          3    1    3    3  501    0 -0.84226693455E+02 -0.57693597921E+02  0.25029273401E+02  0.10511494498E+03  0.00000000000E+00 0.  1.
         -1    1    1    2    0  502 -0.36673262444E+03 -0.93750010596E+03  0.26749151457E+03  0.10416098007E+04  0.00000000000E+00 0. -1.
<mgrwt>
<rscale>  1 0.11986473E+04</rscale>
<asrwt>0</asrwt>
<pdfrwt beam="1">  1       21 0.19085532E+00 0.11986473E+04</pdfrwt>
<pdfrwt beam="2">0</pdfrwt>
<totfact> 0.11579855E+01</totfact>
</mgrwt>
</event>
<event>
 6    1  0.1347953E-004  0.6479861E+03  0.7818608E-02  0.9810565E-01
         21   -1    0    0  501  502  0.00000000000E+00  0.00000000000E+00  0.12062360106E+03  0.12062360106E+03  0.00000000000E+00 0.  1.
         13   -1    0    0    0    0 -0.00000000000E+00 -0.00000000000E+00 -0.10000000000E+04  0.10000000000E+04  0.00000000000E+00 0.  1.
    9000005    2    1    2  501    0 -0.33683760737E+01  0.24666828798E+02 -0.88322458580E+03  0.10954321949E+04  0.64750770369E+03 0.  0.
         13    1    3    3    0    0  0.15749905652E+01  0.23513409378E+03 -0.55833057166E+02  0.24167716675E+03  0.00000000000E+00 0.  1.
          3    1    3    3  501    0 -0.49433666389E+01 -0.21046726499E+03 -0.82739152863E+03  0.85375502819E+03  0.00000000000E+00 0.  1.
         -3    1    1    2    0  502  0.33683760737E+01 -0.24666828798E+02  0.38481868582E+01  0.25191406122E+02  0.00000000000E+00 0. -1.
<mgrwt>
<rscale>  1 0.64798613E+03</rscale>
<asrwt>0</asrwt>
<pdfrwt beam="1">  1       21 0.18557477E-01 0.64798613E+03</pdfrwt>
<pdfrwt beam="2">0</pdfrwt>
<totfact> 0.25895346E+03</totfact>
</mgrwt>
</event>
<event>
 6    1  0.1347953E-004  0.6262079E+03  0.7818608E-02  0.9852477E-01
         21   -1    0    0  501  502  0.00000000000E+00  0.00000000000E+00  0.13025560457E+03  0.13025560457E+03  0.00000000000E+00 0.  1.
         13   -1    0    0    0    0 -0.00000000000E+00 -0.00000000000E+00 -0.10000000000E+04  0.10000000000E+04  0.00000000000E+00 0.  1.
    9000005    2    1    2  501    0  0.47669238188E+02 -0.10447424489E+02 -0.88031834962E+03  0.10803225148E+04  0.62430347936E+03 0.  0.
         13    1    3    3    0    0  0.19816934746E+03 -0.14533873923E+03 -0.85484073967E+02  0.26019601514E+03  0.00000000000E+00 0.  1.
          3    1    3    3  501    0 -0.15050010927E+03  0.13489131474E+03 -0.79483427565E+03  0.82012649965E+03  0.00000000000E+00 0.  1.
         -1    1    1    2    0  502 -0.47669238188E+02  0.10447424489E+02  0.10573954193E+02  0.49933089782E+02  0.00000000000E+00 0. -1.
<mgrwt>
<rscale>  1 0.62620790E+03</rscale>
<asrwt>0</asrwt>
<pdfrwt beam="1">  1       21 0.20039323E-01 0.62620790E+03</pdfrwt>
<pdfrwt beam="2">0</pdfrwt>
<totfact> 0.22379453E+03</totfact>
</mgrwt>
</event>
<event>
 6    1  0.1347953E-004  0.6471470E+03  0.7818608E-02  0.9812147E-01
         21   -1    0    0  501  502  0.00000000000E+00  0.00000000000E+00  0.26240013658E+03  0.26240013658E+03  0.00000000000E+00 0. -1.
         13   -1    0    0    0    0 -0.00000000000E+00 -0.00000000000E+00 -0.10000000000E+04  0.10000000000E+04  0.00000000000E+00 0.  1.
    9000005    2    1    2  501    0 -0.54478391335E+01 -0.31106293786E+02 -0.89355159315E+03  0.11032831278E+04  0.64637599745E+03 0.  0.
         13    1    3    3    0    0  0.23880512292E+03  0.18435407621E+03 -0.56587710351E+03  0.64127311531E+03  0.00000000000E+00 0.  1.
          3    1    3    3  501    0 -0.24425296205E+03 -0.21546037000E+03 -0.32767448965E+03  0.46201001253E+03  0.00000000000E+00 0.  1.
         -1    1    1    2    0  502  0.54478391335E+01  0.31106293786E+02  0.15595172974E+03  0.15911700875E+03  0.00000000000E+00 0. -1.
<mgrwt>
<rscale>  1 0.64714698E+03</rscale>
<asrwt>0</asrwt>
<pdfrwt beam="1">  1       21 0.40369251E-01 0.64714698E+03</pdfrwt>
<pdfrwt beam="2">0</pdfrwt>
<totfact> 0.55420436E+02</totfact>
</mgrwt>
</event>
<event>
 6    1  0.1347953E-004  0.6632458E+03  0.7818608E-02  0.9782237E-01
         21   -1    0    0  501  502  0.00000000000E+00  0.00000000000E+00  0.13665358694E+03  0.13665358694E+03  0.00000000000E+00 0.  1.
         13   -1    0    0    0    0 -0.00000000000E+00 -0.00000000000E+00 -0.10000000000E+04  0.10000000000E+04  0.00000000000E+00 0.  1.
    9000005    2    1    2  501    0 -0.50224228816E+02  0.52314572731E+02 -0.74138402159E+03  0.99475886323E+03  0.65926902008E+03 0.  0.
         13    1    3    3    0    0  0.27845446828E+03 -0.10660329667E+03 -0.33235466644E+03  0.44649835170E+03  0.00000000000E+00 0.  1.
          3    1    3    3  501    0 -0.32867869709E+03  0.15891786940E+03 -0.40902935515E+03  0.54826051153E+03  0.00000000000E+00 0.  1.
         -3    1    1    2    0  502  0.50224228816E+02 -0.52314572731E+02 -0.12196239148E+03  0.14189472371E+03  0.00000000000E+00 0. -1.
<mgrwt>
<rscale>  1 0.66324575E+03</rscale>
<asrwt>0</asrwt>
<pdfrwt beam="1">  1       21 0.21023628E-01 0.66324575E+03</pdfrwt>
<pdfrwt beam="2">0</pdfrwt>
<totfact> 0.20378142E+03</totfact>
</mgrwt>
</event>
<event>
 6    1  0.1347953E-004  0.6504206E+03  0.7818608E-02  0.9805990E-01
         21   -1    0    0  501  502  0.00000000000E+00  0.00000000000E+00  0.14212848561E+03  0.14212848561E+03  0.00000000000E+00 0.  1.
         13   -1    0    0    0    0 -0.00000000000E+00 -0.00000000000E+00 -0.10000000000E+04  0.10000000000E+04  0.00000000000E+00 0.  1.
    9000005    2    1    2  501    0  0.34344815889E+02 -0.51191719052E+02 -0.86256116374E+03  0.10803049360E+04  0.64749272970E+03 0.  0.
         13    1    3    3    0    0 -0.23575907809E+03 -0.66316446158E+02 -0.74701163793E+03  0.78613395877E+03  0.00000000000E+00 0.  1.
          1    1    3    3  501    0  0.27010389398E+03  0.15124727106E+02 -0.11554952582E+03  0.29417097721E+03  0.00000000000E+00 0.  1.
         -3    1    1    2    0  502 -0.34344815889E+02  0.51191719052E+02  0.46896493491E+01  0.61823549631E+02  0.00000000000E+00 0. -1.
<mgrwt>
<rscale>  1 0.65042063E+03</rscale>
<asrwt>0</asrwt>
<pdfrwt beam="1">  1       21 0.21865920E-01 0.65042063E+03</pdfrwt>
<pdfrwt beam="2">0</pdfrwt>
<totfact> 0.18900088E+03</totfact>
</mgrwt>
</event>
<event>
 6    1  0.1347953E-004  0.6540638E+03  0.7818608E-02  0.9799183E-01
         21   -1    0    0  501  502  0.00000000000E+00  0.00000000000E+00  0.23390472350E+03  0.23390472350E+03  0.00000000000E+00 0.  1.
         13   -1    0    0    0    0 -0.00000000000E+00 -0.00000000000E+00 -0.10000000000E+04  0.10000000000E+04  0.00000000000E+00 0.  1.
    9000005    2    1    2  501    0  0.47293085383E+01 -0.20797233744E+02 -0.89205772437E+03  0.11061493731E+04  0.65371596326E+03 0.  0.
         13    1    3    3    0    0  0.23832315739E+03 -0.15474173053E+03 -0.15991817930E+03  0.32606250104E+03  0.00000000000E+00 0.  1.
          3    1    3    3  501    0 -0.23359384885E+03  0.13394449678E+03 -0.73213954507E+03  0.78008687202E+03  0.00000000000E+00 0.  1.
         -1    1    1    2    0  502 -0.47293085383E+01  0.20797233744E+02  0.12596244788E+03  0.12775535044E+03  0.00000000000E+00 0. -1.
<mgrwt>
<rscale>  1 0.65406380E+03</rscale>
<asrwt>0</asrwt>
<pdfrwt beam="1">  1       21 0.35985341E-01 0.65406380E+03</pdfrwt>
<pdfrwt beam="2">0</pdfrwt>
<totfact> 0.70205807E+02</totfact>
</mgrwt>
</event>
<event>
 6    1  0.1347953E-004  0.6476187E+03  0.7818608E-02  0.9811258E-01
         21   -1    0    0  501  502  0.00000000000E+00  0.00000000000E+00  0.14376881712E+03  0.14376881712E+03  0.00000000000E+00 0.  1.
         13   -1    0    0    0    0 -0.00000000000E+00 -0.00000000000E+00 -0.10000000000E+04  0.10000000000E+04  0.00000000000E+00 0.  1.
    9000005    2    1    2  501    0  0.22232441789E+02  0.47697337959E+01 -0.89144307827E+03  0.11018533140E+04  0.64721938464E+03 0.  0.
         13    1    3    3    0    0 -0.29740909063E+03  0.91809188698E+02 -0.50089372282E+03  0.58972503413E+03  0.00000000000E+00 0.  1.
          1    1    3    3  501    0  0.31964153242E+03 -0.87039454902E+02 -0.39054935545E+03  0.51212827983E+03  0.00000000000E+00 0.  1.
         -1    1    1    2    0  502 -0.22232441789E+02 -0.47697337959E+01  0.35211895391E+02  0.41915503163E+02  0.00000000000E+00 0. -1.
<mgrwt>
<rscale>  1 0.64761869E+03</rscale>
<asrwt>0</asrwt>
<pdfrwt beam="1">  1       21 0.22118279E-01 0.64761869E+03</pdfrwt>
<pdfrwt beam="2">0</pdfrwt>
<totfact> 0.18487351E+03</totfact>
</mgrwt>
</event>
<event>
 6    1  0.1347953E-004  0.6939045E+03  0.7818608E-02  0.9727713E-01
         21   -1    0    0  501  502  0.00000000000E+00  0.00000000000E+00  0.45924371195E+03  0.45924371195E+03  0.00000000000E+00 0. -1.
         13   -1    0    0    0    0 -0.00000000000E+00 -0.00000000000E+00 -0.10000000000E+04  0.10000000000E+04  0.00000000000E+00 0.  1.
    9000005    2    1    2  501    0 -0.96124732816E+00  0.22831579978E+03 -0.83571510968E+03  0.10862427269E+04  0.65526673093E+03 0.  0.
         13    1    3    3    0    0  0.28557119174E+01  0.28120949307E+03 -0.93353416926E+03  0.97497332233E+03  0.00000000000E+00 0.  1.
          3    1    3    3  501    0 -0.38169592456E+01 -0.52893693289E+02  0.97819059572E+02  0.11126940452E+03  0.00000000000E+00 0.  1.
         -1    1    1    2    0  502  0.96124732816E+00 -0.22831579978E+03  0.29495882163E+03  0.37300098509E+03  0.00000000000E+00 0. -1.
<mgrwt>
<rscale>  1 0.69390454E+03</rscale>
<asrwt>0</asrwt>
<pdfrwt beam="1">  1       21 0.70652877E-01 0.69390454E+03</pdfrwt>
<pdfrwt beam="2">0</pdfrwt>
<totfact> 0.16362791E+02</totfact>
</mgrwt>
</event>
<event>
 6    1  0.1347953E-004  0.6553763E+03  0.7818608E-02  0.9796743E-01
         21   -1    0    0  501  502  0.00000000000E+00  0.00000000000E+00  0.18811464886E+03  0.18811464886E+03  0.00000000000E+00 0.  1.
         13   -1    0    0    0    0 -0.00000000000E+00 -0.00000000000E+00 -0.10000000000E+04  0.10000000000E+04  0.00000000000E+00 0.  1.
    9000005    2    1    2  501    0  0.54715366226E+02 -0.19406964997E+02 -0.88088416602E+03  0.10979412712E+04  0.65279990761E+03 0.  0.
         13    1    3    3    0    0  0.71277295467E+02 -0.30702132253E+03 -0.67152006164E+03  0.74180977247E+03  0.00000000000E+00 0.  1.
          1    1    3    3  501    0 -0.16561929241E+02  0.28761435753E+03 -0.20936410437E+03  0.35613149869E+03  0.00000000000E+00 0.  1.
         -3    1    1    2    0  502 -0.54715366226E+02  0.19406964997E+02  0.68998814882E+02  0.90173377705E+02  0.00000000000E+00 0. -1.
<mgrwt>
<rscale>  1 0.65537632E+03</rscale>
<asrwt>0</asrwt>
<pdfrwt beam="1">  1       21 0.28940714E-01 0.65537632E+03</pdfrwt>
<pdfrwt beam="2">0</pdfrwt>
<totfact> 0.10899996E+03</totfact>
</mgrwt>
</event>
<event>
 6    1  0.1347953E-004  0.6690703E+03  0.7818608E-02  0.9771639E-01
         21   -1    0    0  501  502  0.00000000000E+00  0.00000000000E+00  0.20028199480E+03  0.20028199480E+03  0.00000000000E+00 0.  1.
         13   -1    0    0    0    0 -0.00000000000E+00 -0.00000000000E+00 -0.10000000000E+04  0.10000000000E+04  0.00000000000E+00 0.  1.
    9000005    2    1    2  501    0 -0.14353306223E+03  0.12517350922E+03 -0.74667502030E+03  0.10025860019E+04  0.64139298241E+03 0.  0.
         13    1    3    3    0    0 -0.38267236358E+03  0.61243029689E+02 -0.60174680365E+03  0.71574301410E+03  0.00000000000E+00 0.  1.
          1    1    3    3  501    0  0.23913930135E+03  0.63930479531E+02 -0.14492821665E+03  0.28684298779E+03  0.00000000000E+00 0.  1.
         -3    1    1    2    0  502  0.14353306223E+03 -0.12517350922E+03 -0.53042984904E+02  0.19769599290E+03  0.00000000000E+00 0. -1.
<mgrwt>
<rscale>  1 0.66907033E+03</rscale>
<asrwt>0</asrwt>
<pdfrwt beam="1">  1       21 0.30812614E-01 0.66907033E+03</pdfrwt>
<pdfrwt beam="2">0</pdfrwt>
<totfact> 0.96067809E+02</totfact>
</mgrwt>
</event>
<event>
 6    1  0.1347953E-004  0.6592451E+03  0.7818608E-02  0.9789584E-01
         21   -1    0    0  501  502  0.00000000000E+00  0.00000000000E+00  0.38459907310E+03  0.38459907310E+03  0.00000000000E+00 0. -1.
         13   -1    0    0    0    0 -0.00000000000E+00 -0.00000000000E+00 -0.10000000000E+04  0.10000000000E+04  0.00000000000E+00 0.  1.
    9000005    2    1    2  501    0 -0.13168781398E+02 -0.23528028001E+02 -0.89061854822E+03  0.11080638602E+04  0.65869350602E+03 0.  0.
         13    1    3    3    0    0 -0.29229447728E+03  0.78099193758E+01 -0.72559312397E+03  0.78229306391E+03  0.00000000000E+00 0.  1.
          3    1    3    3  501    0  0.27912569588E+03 -0.31337947377E+02 -0.16502542425E+03  0.32577079626E+03  0.00000000000E+00 0.  1.
         -1    1    1    2    0  502  0.13168781398E+02  0.23528028001E+02  0.27521762132E+03  0.27653521293E+03  0.00000000000E+00 0. -1.
<mgrwt>
<rscale>  1 0.65924511E+03</rscale>
<asrwt>0</asrwt>
<pdfrwt beam="1">  1       21 0.59169086E-01 0.65924511E+03</pdfrwt>
<pdfrwt beam="2">0</pdfrwt>
<totfact> 0.24440873E+02</totfact>
</mgrwt>
</event>
<event>
 6    1  0.1347953E-004  0.6516045E+03  0.7818608E-02  0.9803773E-01
         21   -1    0    0  501  502  0.00000000000E+00  0.00000000000E+00  0.14976290895E+03  0.14976290895E+03  0.00000000000E+00 0. -1.
         13   -1    0    0    0    0 -0.00000000000E+00 -0.00000000000E+00 -0.10000000000E+04  0.10000000000E+04  0.00000000000E+00 0.  1.
    9000005    2    1    2  501    0  0.93764852773E+00 -0.41333806498E+02 -0.88272977877E+03  0.10971783342E+04  0.65029152848E+03 0.  0.
         13    1    3    3    0    0  0.15239301340E+03  0.19413240456E+03 -0.10071958356E+03  0.26656229205E+03  0.00000000000E+00 0.  1.
          3    1    3    3  501    0 -0.15145536487E+03 -0.23546621106E+03 -0.78201019521E+03  0.83061604217E+03  0.00000000000E+00 0.  1.
         -1    1    1    2    0  502 -0.93764852773E+00  0.41333806498E+02  0.32492687721E+02  0.52584574732E+02  0.00000000000E+00 0. -1.
<mgrwt>
<rscale>  1 0.65160451E+03</rscale>
<asrwt>0</asrwt>
<pdfrwt beam="1">  1       21 0.23040447E-01 0.65160451E+03</pdfrwt>
<pdfrwt beam="2">0</pdfrwt>
<totfact> 0.17075704E+03</totfact>
</mgrwt>
</event>
<event>
 6    1  0.1347953E-004  0.6521676E+03  0.7818608E-02  0.9802720E-01
         21   -1    0    0  501  502  0.00000000000E+00  0.00000000000E+00  0.11926355228E+03  0.11926355228E+03  0.00000000000E+00 0.  1.
         13   -1    0    0    0    0 -0.00000000000E+00 -0.00000000000E+00 -0.10000000000E+04  0.10000000000E+04  0.00000000000E+00 0.  1.
    9000005    2    1    2  501    0  0.35457355112E+02 -0.56161181775E+01 -0.85380009165E+03  0.10743822411E+04  0.65117880699E+03 0.  0.
         13    1    3    3    0    0 -0.26148859060E+03 -0.38518675186E+02 -0.13677223966E+03  0.29760143967E+03  0.00000000000E+00 0.  1.
          1    1    3    3  501    0  0.29694594571E+03  0.32902557009E+02 -0.71702785199E+03  0.77678080143E+03  0.00000000000E+00 0.  1.
         -1    1    1    2    0  502 -0.35457355112E+02  0.56161181775E+01 -0.26936356069E+02  0.44881311180E+02  0.00000000000E+00 0. -1.
<mgrwt>
<rscale>  1 0.65216762E+03</rscale>
<asrwt>0</asrwt>
<pdfrwt beam="1">  1       21 0.18348238E-01 0.65216762E+03</pdfrwt>
<pdfrwt beam="2">0</pdfrwt>
<totfact> 0.26455994E+03</totfact>
</mgrwt>
</event>
<event>
 6    1  0.1347953E-004  0.6648314E+03  0.7818608E-02  0.9779340E-01
         21   -1    0    0  501  502  0.00000000000E+00  0.00000000000E+00  0.21069034958E+03  0.21069034958E+03  0.00000000000E+00 0.  1.
         13   -1    0    0    0    0 -0.00000000000E+00 -0.00000000000E+00 -0.10000000000E+04  0.10000000000E+04  0.00000000000E+00 0.  1.
    9000005    2    1    2  501    0  0.41659539949E+02  0.81367002398E+02 -0.86572236812E+03  0.10915475371E+04  0.65851704659E+03 0.  0.
         13    1    3    3    0    0  0.21889298573E+03  0.82528092043E+02 -0.28375214495E+02  0.23564842027E+03  0.00000000000E+00 0.  1.
          1    1    3    3  501    0 -0.17723344578E+03 -0.11610896453E+01 -0.83734715363E+03  0.85589911679E+03  0.00000000000E+00 0.  1.
         -3    1    1    2    0  502 -0.41659539949E+02 -0.81367002398E+02  0.76412717704E+02  0.11914281252E+03  0.00000000000E+00 0. -1.
<mgrwt>
<rscale>  1 0.66483141E+03</rscale>
<asrwt>0</asrwt>
<pdfrwt beam="1">  1       21 0.32413899E-01 0.66483141E+03</pdfrwt>
<pdfrwt beam="2">0</pdfrwt>
<totfact> 0.86767742E+02</totfact>
</mgrwt>
</event>
<event>
 6    1  0.1347953E-004  0.9149766E+03  0.7818608E-02  0.9407051E-01
         21   -1    0    0  501  502  0.00000000000E+00  0.00000000000E+00  0.64362818092E+03  0.64362818092E+03  0.00000000000E+00 0. -1.
         13   -1    0    0    0    0 -0.00000000000E+00 -0.00000000000E+00 -0.10000000000E+04  0.10000000000E+04  0.00000000000E+00 0.  1.
    9000005    2    1    2  501    0  0.63414600196E+03  0.12758226195E+03 -0.39285033917E+03  0.99574773841E+03  0.64711960578E+03 0.  0.
         13    1    3    3    0    0  0.25148198461E+03 -0.19066261326E+03 -0.38521624075E+03  0.49798290414E+03  0.00000000000E+00 0.  1.
          1    1    3    3  501    0  0.38266401735E+03  0.31824487521E+03 -0.76340984132E+01  0.49776483426E+03  0.00000000000E+00 0.  1.
         -1    1    1    2    0  502 -0.63414600196E+03 -0.12758226195E+03  0.36478520090E+02  0.64788044252E+03  0.00000000000E+00 0. -1.
<mgrwt>
<rscale>  1 0.91497660E+03</rscale>
<asrwt>0</asrwt>
<pdfrwt beam="1">  1       21 0.99019717E-01 0.91497660E+03</pdfrwt>
<pdfrwt beam="2">0</pdfrwt>
<totfact> 0.71901477E+01</totfact>
</mgrwt>
</event>
<event>
 6    1  0.1347953E-004  0.6955950E+03  0.7818608E-02  0.9724795E-01
         21   -1    0    0  501  502  0.00000000000E+00  0.00000000000E+00  0.40470460083E+03  0.40470460083E+03  0.00000000000E+00 0. -1.
         13   -1    0    0    0    0 -0.00000000000E+00 -0.00000000000E+00 -0.10000000000E+04  0.10000000000E+04  0.00000000000E+00 0.  1.
    9000005    2    1    2  501    0  0.13523233536E+03  0.19342100053E+03 -0.82243526609E+03  0.10771500449E+04  0.65433400061E+03 0.  0.
         13    1    3    3    0    0 -0.25247889789E+03  0.78994043380E+02 -0.47686155553E+03  0.54532797095E+03  0.00000000000E+00 0.  1.
          1    1    3    3  501    0  0.38771123324E+03  0.11442695715E+03 -0.34557371056E+03  0.53182207394E+03  0.00000000000E+00 0.  1.
         -3    1    1    2    0  502 -0.13523233536E+03 -0.19342100053E+03  0.22713986692E+03  0.32755455594E+03  0.00000000000E+00 0. -1.
<mgrwt>
<rscale>  1 0.69559503E+03</rscale>
<asrwt>0</asrwt>
<pdfrwt beam="1">  1       21 0.62262244E-01 0.69559503E+03</pdfrwt>
<pdfrwt beam="2">0</pdfrwt>
<totfact> 0.21748113E+02</totfact>
</mgrwt>
</event>
<event>
 6    1  0.1347953E-004  0.6691165E+03  0.7818608E-02  0.9771555E-01
         21   -1    0    0  501  502  0.00000000000E+00  0.00000000000E+00  0.17434827362E+03  0.17434827362E+03  0.00000000000E+00 0. -1.
         13   -1    0    0    0    0 -0.00000000000E+00 -0.00000000000E+00 -0.10000000000E+04  0.10000000000E+04  0.00000000000E+00 0.  1.
    9000005    2    1    2  501    0 -0.99312719966E+02  0.12254157219E+03 -0.72822347420E+03  0.98895216367E+03  0.65025956386E+03 0.  0.
         13    1    3    3    0    0 -0.17532405720E+03 -0.23347259895E+03 -0.22884291631E+03  0.37096773423E+03  0.00000000000E+00 0.  1.
          3    1    3    3  501    0  0.76011337230E+02  0.35601417114E+03 -0.49938055788E+03  0.61798442944E+03  0.00000000000E+00 0.  1.
         -3    1    1    2    0  502  0.99312719966E+02 -0.12254157219E+03 -0.97428252183E+02  0.18539610995E+03  0.00000000000E+00 0. -1.
<mgrwt>
<rscale>  1 0.66911655E+03</rscale>
<asrwt>0</asrwt>
<pdfrwt beam="1">  1       21 0.26822811E-01 0.66911655E+03</pdfrwt>
<pdfrwt beam="2">0</pdfrwt>
<totfact> 0.12665352E+03</totfact>
</mgrwt>
</event>
<event>
 6    1  0.1347953E-004  0.6259822E+03  0.7818608E-02  0.9852921E-01
         21   -1    0    0  501  502  0.00000000000E+00  0.00000000000E+00  0.17366685522E+03  0.17366685522E+03  0.00000000000E+00 0. -1.
         13   -1    0    0    0    0 -0.00000000000E+00 -0.00000000000E+00 -0.10000000000E+04  0.10000000000E+04  0.00000000000E+00 0.  1.
    9000005    2    1    2  501    0 -0.20300134515E+02  0.27612628232E+02 -0.89775461809E+03  0.10944482996E+04  0.62504333734E+03 0.  0.
         13    1    3    3    0    0 -0.23685118588E+02 -0.11784853083E+03 -0.93625518085E+03  0.94394015951E+03  0.00000000000E+00 0.  1.
          3    1    3    3  501    0  0.33849840738E+01  0.14546115906E+03  0.38500562755E+02  0.15050814013E+03  0.00000000000E+00 0.  1.
         -3    1    1    2    0  502  0.20300134515E+02 -0.27612628232E+02  0.71421473316E+02  0.79218555590E+02  0.00000000000E+00 0. -1.
<mgrwt>
<rscale>  1 0.62598221E+03</rscale>
<asrwt>0</asrwt>
<pdfrwt beam="1">  1       21 0.26717977E-01 0.62598221E+03</pdfrwt>
<pdfrwt beam="2">0</pdfrwt>
<totfact> 0.12794706E+03</totfact>
</mgrwt>
</event>
<event>
 6    1  0.1347953E-004  0.7072618E+03  0.7818608E-02  0.9704894E-01
         21   -1    0    0  501  502  0.00000000000E+00  0.00000000000E+00  0.24252187769E+03  0.24252187769E+03  0.00000000000E+00 0.  1.
         13   -1    0    0    0    0 -0.00000000000E+00 -0.00000000000E+00 -0.10000000000E+04  0.10000000000E+04  0.00000000000E+00 0.  1.
    9000005    2    1    2  501    0  0.24765886342E+03  0.12449137386E+03 -0.52657603055E+03  0.88176047348E+03  0.65068133663E+03 0.  0.
         13    1    3    3    0    0 -0.22376138327E+03  0.22241893297E+02 -0.16465618869E+03  0.27870328116E+03  0.00000000000E+00 0.  1.
          3    1    3    3  501    0  0.47142024669E+03  0.10224948056E+03 -0.36191984187E+03  0.60305719231E+03  0.00000000000E+00 0.  1.
         -3    1    1    2    0  502 -0.24765886342E+03 -0.12449137386E+03 -0.23090209175E+03  0.36076140422E+03  0.00000000000E+00 0. -1.
<mgrwt>
<rscale>  1 0.70726177E+03</rscale>
<asrwt>0</asrwt>
<pdfrwt beam="1">  1       21 0.37311057E-01 0.70726177E+03</pdfrwt>
<pdfrwt beam="2">0</pdfrwt>
<totfact> 0.64931606E+02</totfact>
</mgrwt>
</event>
<event>
 6    1  0.1347953E-004  0.7632772E+03  0.7818608E-02  0.9614748E-01
         21   -1    0    0  501  502  0.00000000000E+00  0.00000000000E+00  0.42648103493E+03  0.42648103493E+03  0.00000000000E+00 0. -1.
         13   -1    0    0    0    0 -0.00000000000E+00 -0.00000000000E+00 -0.10000000000E+04  0.10000000000E+04  0.00000000000E+00 0.  1.
    9000005    2    1    2  501    0 -0.63894915696E+02 -0.43386134241E+03 -0.62287305760E+03  0.98517156173E+03  0.62471908525E+03 0.  0.
         13    1    3    3    0    0  0.70708378414E+02  0.41959404438E+02  0.87220012886E+02  0.11986491166E+03  0.00000000000E+00 0.  1.
          1    1    3    3  501    0 -0.13460329411E+03 -0.47582074685E+03 -0.71009307048E+03  0.86530665008E+03  0.00000000000E+00 0.  1.
         -3    1    1    2    0  502  0.63894915696E+02  0.43386134241E+03  0.49354092533E+02  0.44130947320E+03  0.00000000000E+00 0. -1.
<mgrwt>
<rscale>  1 0.76327725E+03</rscale>
<asrwt>0</asrwt>
<pdfrwt beam="1">  1       21 0.65612465E-01 0.76327725E+03</pdfrwt>
<pdfrwt beam="2">0</pdfrwt>
<totfact> 0.19209395E+02</totfact>
</mgrwt>
</event>
<event>
 6    1  0.1347953E-004  0.7004702E+03  0.7818608E-02  0.9716428E-01
         21   -1    0    0  501  502  0.00000000000E+00  0.00000000000E+00  0.38666106741E+03  0.38666106741E+03  0.00000000000E+00 0. -1.
         13   -1    0    0    0    0 -0.00000000000E+00 -0.00000000000E+00 -0.10000000000E+04  0.10000000000E+04  0.00000000000E+00 0.  1.
    9000005    2    1    2  501    0  0.66335515670E+02  0.57974991547E+02 -0.86904847397E+03  0.11162005900E+04  0.69490791241E+03 0.  0.
         13    1    3    3    0    0  0.31685355554E+03  0.23357776098E+03 -0.51681819149E+03  0.64965820947E+03  0.00000000000E+00 0.  1.
          3    1    3    3  501    0 -0.25051803987E+03 -0.17560276943E+03 -0.35223028249E+03  0.46654238053E+03  0.00000000000E+00 0.  1.
         -1    1    1    2    0  502 -0.66335515670E+02 -0.57974991547E+02  0.25570954138E+03  0.27046047740E+03  0.00000000000E+00 0. -1.
<mgrwt>
<rscale>  1 0.70047020E+03</rscale>
<asrwt>0</asrwt>
<pdfrwt beam="1">  1       21 0.59486316E-01 0.70047020E+03</pdfrwt>
<pdfrwt beam="2">0</pdfrwt>
<totfact> 0.24051658E+02</totfact>
</mgrwt>
</event>
<event>
 6    1  0.1347953E-004  0.6513820E+03  0.7818608E-02  0.9804189E-01
         21   -1    0    0  501  502  0.00000000000E+00  0.00000000000E+00  0.14577660673E+03  0.14577660673E+03  0.00000000000E+00 0.  1.
         13   -1    0    0    0    0 -0.00000000000E+00 -0.00000000000E+00 -0.10000000000E+04  0.10000000000E+04  0.00000000000E+00 0.  1.
    9000005    2    1    2  501    0  0.76928460046E+01  0.51075658815E+02 -0.87437342868E+03  0.10903336024E+04  0.64933086243E+03 0.  0.
         13    1    3    3    0    0 -0.21182294289E+03  0.19824994784E+03 -0.73790908726E+03  0.79289458443E+03  0.00000000000E+00 0.  1.
          1    1    3    3  501    0  0.21951578890E+03 -0.14717428902E+03 -0.13646434142E+03  0.29743901796E+03  0.00000000000E+00 0.  1.
         -1    1    1    2    0  502 -0.76928460046E+01 -0.51075658815E+02  0.20150035411E+02  0.55443004338E+02  0.00000000000E+00 0. -1.
<mgrwt>
<rscale>  1 0.65138197E+03</rscale>
<asrwt>0</asrwt>
<pdfrwt beam="1">  1       21 0.22427170E-01 0.65138197E+03</pdfrwt>
<pdfrwt beam="2">0</pdfrwt>
<totfact> 0.17994124E+03</totfact>
</mgrwt>
</event>
<event>
 6    1  0.1347953E-004  0.6540738E+03  0.7818608E-02  0.9799165E-01
         21   -1    0    0  501  502  0.00000000000E+00  0.00000000000E+00  0.13132909239E+03  0.13132909239E+03  0.00000000000E+00 0.  1.
         13   -1    0    0    0    0 -0.00000000000E+00 -0.00000000000E+00 -0.10000000000E+04  0.10000000000E+04  0.00000000000E+00 0.  1.
    9000005    2    1    2  501    0 -0.35918709207E+02 -0.21327114529E+02 -0.87128709179E+03  0.10894740580E+04  0.65273848302E+03 0.  0.
         13    1    3    3    0    0  0.26586073249E+03  0.14609657761E+03 -0.47908747902E+03  0.56705462843E+03  0.00000000000E+00 0.  1.
          1    1    3    3  501    0 -0.30177944170E+03 -0.16742369214E+03 -0.39219961277E+03  0.52241942955E+03  0.00000000000E+00 0.  1.
         -3    1    1    2    0  502  0.35918709207E+02  0.21327114529E+02  0.26161841760E+01  0.41855034403E+02  0.00000000000E+00 0. -1.
<mgrwt>
<rscale>  1 0.65407379E+03</rscale>
<asrwt>0</asrwt>
<pdfrwt beam="1">  1       21 0.20204475E-01 0.65407379E+03</pdfrwt>
<pdfrwt beam="2">0</pdfrwt>
<totfact> 0.22005253E+03</totfact>
</mgrwt>
</event>
<event>
 6    1  0.1347953E-004  0.6477095E+03  0.7818608E-02  0.9811087E-01
         21   -1    0    0  501  502  0.00000000000E+00  0.00000000000E+00  0.12619609994E+03  0.12619609994E+03  0.00000000000E+00 0.  1.
         13   -1    0    0    0    0 -0.00000000000E+00 -0.00000000000E+00 -0.10000000000E+04  0.10000000000E+04  0.00000000000E+00 0.  1.
    9000005    2    1    2  501    0  0.25862199452E+02  0.14980945111E+02 -0.88285251467E+03  0.10949685560E+04  0.64701954668E+03 0.  0.
         13    1    3    3    0    0 -0.11180285320E+03 -0.20989599204E+03 -0.77400486290E+03  0.80971583488E+03  0.00000000000E+00 0.  1.
          1    1    3    3  501    0  0.13766505265E+03  0.22487693715E+03 -0.10884765177E+03  0.28525272107E+03  0.00000000000E+00 0.  1.
         -1    1    1    2    0  502 -0.25862199452E+02 -0.14980945111E+02  0.90486146068E+01  0.31227543983E+02  0.00000000000E+00 0. -1.
<mgrwt>
<rscale>  1 0.64770948E+03</rscale>
<asrwt>0</asrwt>
<pdfrwt beam="1">  1       21 0.19414784E-01 0.64770948E+03</pdfrwt>
<pdfrwt beam="2">0</pdfrwt>
<totfact> 0.23757839E+03</totfact>
</mgrwt>
</event>
<event>
 6    1  0.1347953E-004  0.6519341E+03  0.7818608E-02  0.9803157E-01
         21   -1    0    0  501  502  0.00000000000E+00  0.00000000000E+00  0.19017043319E+03  0.19017043319E+03  0.00000000000E+00 0.  1.
         13   -1    0    0    0    0 -0.00000000000E+00 -0.00000000000E+00 -0.10000000000E+04  0.10000000000E+04  0.00000000000E+00 0.  1.
    9000005    2    1    2  501    0  0.45739481857E+02  0.23261540674E+02 -0.88497177949E+03  0.10991783918E+04  0.64991144549E+03 0.  0.
         13    1    3    3    0    0  0.38917525796E+02 -0.25929548216E+03 -0.12923629700E+03  0.29231958769E+03  0.00000000000E+00 0.  1.
          1    1    3    3  501    0  0.68219560609E+01  0.28255702284E+03 -0.75573548249E+03  0.80685880409E+03  0.00000000000E+00 0.  1.
         -1    1    1    2    0  502 -0.45739481857E+02 -0.23261540674E+02  0.75142212679E+02  0.90992041418E+02  0.00000000000E+00 0. -1.
<mgrwt>
<rscale>  1 0.65193411E+03</rscale>
<asrwt>0</asrwt>
<pdfrwt beam="1">  1       21 0.29256989E-01 0.65193411E+03</pdfrwt>
<pdfrwt beam="2">0</pdfrwt>
<totfact> 0.10668401E+03</totfact>
</mgrwt>
</event>
<event>
 6    1  0.1347953E-004  0.6470432E+03  0.7818608E-02  0.9812343E-01
         21   -1    0    0  501  502  0.00000000000E+00  0.00000000000E+00  0.12632456252E+03  0.12632456252E+03  0.00000000000E+00 0.  1.
         13   -1    0    0    0    0 -0.00000000000E+00 -0.00000000000E+00 -0.10000000000E+04  0.10000000000E+04  0.00000000000E+00 0.  1.
    9000005    2    1    2  501    0 -0.42230301347E+02 -0.11848314209E+02 -0.86719843214E+03  0.10819879806E+04  0.64555486868E+03 0.  0.
         13    1    3    3    0    0  0.17598840157E+03 -0.14589187328E+02  0.11140489410E+02  0.17694313317E+03  0.00000000000E+00 0.  1.
          3    1    3    3  501    0 -0.21821870291E+03  0.27408731193E+01 -0.87833892155E+03  0.90504484739E+03  0.00000000000E+00 0.  1.
         -3    1    1    2    0  502  0.42230301347E+02  0.11848314209E+02 -0.64770053436E+01  0.44336581958E+02  0.00000000000E+00 0. -1.
<mgrwt>
<rscale>  1 0.64704317E+03</rscale>
<asrwt>0</asrwt>
<pdfrwt beam="1">  1       21 0.19434548E-01 0.64704317E+03</pdfrwt>
<pdfrwt beam="2">0</pdfrwt>
<totfact> 0.23712256E+03</totfact>
</mgrwt>
</event>
<event>
 6    1  0.1347953E-004  0.6586733E+03  0.7818608E-02  0.9790639E-01
         21   -1    0    0  501  502  0.00000000000E+00  0.00000000000E+00  0.17819675224E+03  0.17819675224E+03  0.00000000000E+00 0.  1.
         13   -1    0    0    0    0 -0.00000000000E+00 -0.00000000000E+00 -0.10000000000E+04  0.10000000000E+04  0.00000000000E+00 0.  1.
    9000005    2    1    2  501    0 -0.59902268897E+01 -0.31152927956E+02 -0.88751387256E+03  0.11052291296E+04  0.65790893539E+03 0.  0.
         13    1    3    3    0    0 -0.18937707792E+03  0.25535117491E+03 -0.40536464573E+03  0.51515861264E+03  0.00000000000E+00 0.  1.
          1    1    3    3  501    0  0.18338685103E+03 -0.28650410287E+03 -0.48214922683E+03  0.59007051699E+03  0.00000000000E+00 0.  1.
         -1    1    1    2    0  502  0.59902268897E+01  0.31152927956E+02  0.65710624796E+02  0.72967622611E+02  0.00000000000E+00 0. -1.
<mgrwt>
<rscale>  1 0.65867333E+03</rscale>
<asrwt>0</asrwt>
<pdfrwt beam="1">  1       21 0.27414884E-01 0.65867333E+03</pdfrwt>
<pdfrwt beam="2">0</pdfrwt>
<totfact> 0.12136866E+03</totfact>
</mgrwt>
</event>
<event>
 6    1  0.1347953E-004  0.6970114E+03  0.7818608E-02  0.9722357E-01
         21   -1    0    0  501  502  0.00000000000E+00  0.00000000000E+00  0.59321079172E+03  0.59321079172E+03  0.00000000000E+00 0. -1.
         13   -1    0    0    0    0 -0.00000000000E+00 -0.00000000000E+00 -0.10000000000E+04  0.10000000000E+04  0.00000000000E+00 0.  1.
    9000005    2    1    2  501    0  0.23150127344E+03 -0.20063562716E+02 -0.84610313256E+03  0.10962277837E+04  0.65713731958E+03 0.  0.
         13    1    3    3    0    0  0.45911844880E+03 -0.68275791624E+02 -0.57517136431E+03  0.73910312682E+03  0.00000000000E+00 0.  1.
          1    1    3    3  501    0 -0.22761717537E+03  0.48212228907E+02 -0.27093176825E+03  0.35712465693E+03  0.00000000000E+00 0.  1.
         -1    1    1    2    0  502 -0.23150127344E+03  0.20063562716E+02  0.43931392428E+03  0.49698300798E+03  0.00000000000E+00 0. -1.
<mgrwt>
<rscale>  1 0.69701136E+03</rscale>
<asrwt>0</asrwt>
<pdfrwt beam="1">  1       21 0.91263196E-01 0.69701136E+03</pdfrwt>
<pdfrwt beam="2">0</pdfrwt>
<totfact> 0.89924312E+01</totfact>
</mgrwt>
</event>
<event>
 6    1  0.1347953E-004  0.6540539E+03  0.7818608E-02  0.9799202E-01
         21   -1    0    0  501  502  0.00000000000E+00  0.00000000000E+00  0.16773055206E+03  0.16773055206E+03  0.00000000000E+00 0.  1.
         13   -1    0    0    0    0 -0.00000000000E+00 -0.00000000000E+00 -0.10000000000E+04  0.10000000000E+04  0.00000000000E+00 0.  1.
    9000005    2    1    2  501    0  0.10368892593E+02 -0.35177622797E+02 -0.88686547171E+03  0.11019604609E+04  0.65302489492E+03 0.  0.
         13    1    3    3    0    0 -0.28081044157E+03 -0.15781961453E+03 -0.32646648291E+03  0.45863046049E+03  0.00000000000E+00 0.  1.
          1    1    3    3  501    0  0.29117933416E+03  0.12264199173E+03 -0.56039898880E+03  0.64333000041E+03  0.00000000000E+00 0.  1.
         -3    1    1    2    0  502 -0.10368892593E+02  0.35177622797E+02  0.54596023776E+02  0.65770091162E+02  0.00000000000E+00 0. -1.
<mgrwt>
<rscale>  1 0.65405389E+03</rscale>
<asrwt>0</asrwt>
<pdfrwt beam="1">  1       21 0.25804700E-01 0.65405389E+03</pdfrwt>
<pdfrwt beam="2">0</pdfrwt>
<totfact> 0.13680540E+03</totfact>
</mgrwt>
</event>
<event>
 6    1  0.1347953E-004  0.6465027E+03  0.7818608E-02  0.9813364E-01
         21   -1    0    0  501  502  0.00000000000E+00  0.00000000000E+00  0.12631361968E+03  0.12631361968E+03  0.00000000000E+00 0.  1.
         13   -1    0    0    0    0 -0.00000000000E+00 -0.00000000000E+00 -0.10000000000E+04  0.10000000000E+04  0.00000000000E+00 0.  1.
    9000005    2    1    2  501    0  0.20798871407E+02  0.93566828160E+01 -0.88872244319E+03  0.10989965234E+04  0.64610033025E+03 0.  0.
         13    1    3    3    0    0 -0.16059273940E+03  0.25905504436E+03 -0.61537485699E+03  0.68672101946E+03  0.00000000000E+00 0.  1.
          3    1    3    3  501    0  0.18139161081E+03 -0.24969836154E+03 -0.27334758620E+03  0.41227550389E+03  0.00000000000E+00 0.  1.
         -1    1    1    2    0  502 -0.20798871407E+02 -0.93566828160E+01  0.15036062865E+02  0.27317096324E+02  0.00000000000E+00 0. -1.
<mgrwt>
<rscale>  1 0.64650273E+03</rscale>
<asrwt>0</asrwt>
<pdfrwt beam="1">  1       21 0.19432864E-01 0.64650273E+03</pdfrwt>
<pdfrwt beam="2">0</pdfrwt>
<totfact> 0.23716669E+03</totfact>
</mgrwt>
</event>
<event>
 6    1  0.1347953E-004  0.6483564E+03  0.7818608E-02  0.9809868E-01
         21   -1    0    0  501  502  0.00000000000E+00  0.00000000000E+00  0.16691090946E+03  0.16691090946E+03  0.00000000000E+00 0. -1.
         13   -1    0    0    0    0 -0.00000000000E+00 -0.00000000000E+00 -0.10000000000E+04  0.10000000000E+04  0.00000000000E+00 0.  1.
    9000005    2    1    2  501    0 -0.46803935985E+02  0.25681131353E+01 -0.88492606342E+03  0.10970233184E+04  0.64665974030E+03 0.  0.
         13    1    3    3    0    0  0.62808510336E+02 -0.20231546308E+03 -0.83221974495E+03  0.85875849891E+03  0.00000000000E+00 0.  1.
          1    1    3    3  501    0 -0.10961244632E+03  0.20488357622E+03 -0.52706318475E+02  0.23826481947E+03  0.00000000000E+00 0.  1.
         -3    1    1    2    0  502  0.46803935985E+02 -0.25681131353E+01  0.51836972883E+02  0.69887591076E+02  0.00000000000E+00 0. -1.
<mgrwt>
<rscale>  1 0.64835640E+03</rscale>
<asrwt>0</asrwt>
<pdfrwt beam="1">  1       21 0.25678601E-01 0.64835640E+03</pdfrwt>
<pdfrwt beam="2">0</pdfrwt>
<totfact> 0.13817178E+03</totfact>
</mgrwt>
</event>
<event>
 6    1  0.1347953E-004  0.6652216E+03  0.7818608E-02  0.9778629E-01
         21   -1    0    0  501  502  0.00000000000E+00  0.00000000000E+00  0.17681525040E+03  0.17681525040E+03  0.00000000000E+00 0.  1.
         13   -1    0    0    0    0 -0.00000000000E+00 -0.00000000000E+00 -0.10000000000E+04  0.10000000000E+04  0.00000000000E+00 0.  1.
    9000005    2    1    2  501    0 -0.12103386720E+03  0.61498505791E+02 -0.79771292783E+03  0.10386845987E+04  0.65122078989E+03 0.  0.
         13    1    3    3    0    0  0.16378395788E+03  0.13996678345E+03 -0.69224155929E+03  0.72499259426E+03  0.00000000000E+00 0.  1.
          1    1    3    3  501    0 -0.28481782509E+03 -0.78468277661E+02 -0.10547136855E+03  0.31369200447E+03  0.00000000000E+00 0.  1.
         -1    1    1    2    0  502  0.12103386720E+03 -0.61498505791E+02 -0.25471821769E+02  0.13813065166E+03  0.00000000000E+00 0. -1.
<mgrwt>
<rscale>  1 0.66522160E+03</rscale>
<asrwt>0</asrwt>
<pdfrwt beam="1">  1       21 0.27202345E-01 0.66522160E+03</pdfrwt>
<pdfrwt beam="2">0</pdfrwt>
<totfact> 0.12320939E+03</totfact>
</mgrwt>
</event>
<event>
 6    1  0.1347953E-004  0.6445525E+03  0.7818608E-02  0.9817055E-01
         21   -1    0    0  501  502  0.00000000000E+00  0.00000000000E+00  0.37713529956E+03  0.37713529956E+03  0.00000000000E+00 0. -1.
         13   -1    0    0    0    0 -0.00000000000E+00 -0.00000000000E+00 -0.10000000000E+04  0.10000000000E+04  0.00000000000E+00 0.  1.
    9000005    2    1    2  501    0  0.23969247670E+02 -0.98615118739E+02 -0.88568983370E+03  0.10953969153E+04  0.63651272894E+03 0.  0.
         13    1    3    3    0    0 -0.33811354905E+02 -0.42209524180E+02  0.96110409335E+02  0.11028174117E+03  0.00000000000E+00 0.  1.
          3    1    3    3  501    0  0.57780602575E+02 -0.56405594559E+02 -0.98180024304E+03  0.98511517416E+03  0.00000000000E+00 0.  1.
         -3    1    1    2    0  502 -0.23969247670E+02  0.98615118739E+02  0.26282513326E+03  0.28173838423E+03  0.00000000000E+00 0. -1.
<mgrwt>
<rscale>  1 0.64455250E+03</rscale>
<asrwt>0</asrwt>
<pdfrwt beam="1">  1       21 0.58020814E-01 0.64455250E+03</pdfrwt>
<pdfrwt beam="2">0</pdfrwt>
<totfact> 0.25557980E+02</totfact>
</mgrwt>
</event>
<event>
 6    1  0.1347953E-004  0.6472643E+03  0.7818608E-02  0.9811926E-01
         21   -1    0    0  501  502  0.00000000000E+00  0.00000000000E+00  0.13609042894E+03  0.13609042894E+03  0.00000000000E+00 0.  1.
         13   -1    0    0    0    0 -0.00000000000E+00 -0.00000000000E+00 -0.10000000000E+04  0.10000000000E+04  0.00000000000E+00 0.  1.
    9000005    2    1    2  501    0 -0.50149943353E+02 -0.40485480216E+02 -0.85291409202E+03  0.10707070099E+04  0.64404732882E+03 0.  0.
         13    1    3    3    0    0  0.16779000220E+02 -0.92875587057E+02  0.86161009430E+02  0.12779330603E+03  0.00000000000E+00 0.  1.
          3    1    3    3  501    0 -0.66928943573E+02  0.52390106842E+02 -0.93907510145E+03  0.94291370387E+03  0.00000000000E+00 0.  1.
         -1    1    1    2    0  502  0.50149943353E+02  0.40485480216E+02 -0.10995479036E+02  0.65383419043E+02  0.00000000000E+00 0. -1.
<mgrwt>
<rscale>  1 0.64726428E+03</rscale>
<asrwt>0</asrwt>
<pdfrwt beam="1">  1       21 0.20936988E-01 0.64726428E+03</pdfrwt>
<pdfrwt beam="2">0</pdfrwt>
<totfact> 0.20554586E+03</totfact>
</mgrwt>
</event>
<event>
 6    1  0.1347953E-004  0.6486278E+03  0.7818608E-02  0.9809357E-01
         21   -1    0    0  501  502  0.00000000000E+00  0.00000000000E+00  0.11367887733E+03  0.11367887733E+03  0.00000000000E+00 0.  1.
         13   -1    0    0    0    0 -0.00000000000E+00 -0.00000000000E+00 -0.10000000000E+04  0.10000000000E+04  0.00000000000E+00 0.  1.
    9000005    2    1    2  501    0 -0.53478705057E+01  0.23779691103E+02 -0.86579988172E+03  0.10818167563E+04  0.64816971970E+03 0.  0.
         13    1    3    3    0    0 -0.32572432883E+03 -0.79454579793E+01 -0.40758851800E+03  0.52181210095E+03  0.00000000000E+00 0.  1.
          3    1    3    3  501    0  0.32037645833E+03  0.31725149082E+02 -0.45821136372E+03  0.56000465532E+03  0.00000000000E+00 0.  1.
         -3    1    1    2    0  502  0.53478705057E+01 -0.23779691103E+02 -0.20521240957E+02  0.31862121057E+02  0.00000000000E+00 0. -1.
<mgrwt>
<rscale>  1 0.64862783E+03</rscale>
<asrwt>0</asrwt>
<pdfrwt beam="1">  1       21 0.17489058E-01 0.64862783E+03</pdfrwt>
<pdfrwt beam="2">0</pdfrwt>
<totfact> 0.28978812E+03</totfact>
</mgrwt>
</event>
<event>
 6    1  0.1347953E-004  0.6519990E+03  0.7818608E-02  0.9803035E-01
         21   -1    0    0  501  502  0.00000000000E+00  0.00000000000E+00  0.25985640313E+03  0.25985640313E+03  0.00000000000E+00 0. -1.
         13   -1    0    0    0    0 -0.00000000000E+00 -0.00000000000E+00 -0.10000000000E+04  0.10000000000E+04  0.00000000000E+00 0.  1.
    9000005    2    1    2  501    0  0.28681056275E+02 -0.59119036085E+02 -0.88590526485E+03  0.10999685447E+04  0.64867942594E+03 0.  0.
         13    1    3    3    0    0  0.18105242730E+03 -0.21571933942E+03 -0.82704788163E+03  0.87368358880E+03  0.00000000000E+00 0.  1.
          1    1    3    3  501    0 -0.15237137102E+03  0.15660030334E+03 -0.58857383229E+02  0.22628495591E+03  0.00000000000E+00 0.  1.
         -3    1    1    2    0  502 -0.28681056275E+02  0.59119036085E+02  0.14576166799E+03  0.15988785842E+03  0.00000000000E+00 0. -1.
<mgrwt>
<rscale>  1 0.65199897E+03</rscale>
<asrwt>0</asrwt>
<pdfrwt beam="1">  1       21 0.39977907E-01 0.65199897E+03</pdfrwt>
<pdfrwt beam="2">0</pdfrwt>
<totfact> 0.56531405E+02</totfact>
</mgrwt>
</event>
<event>
 6    1  0.1347953E-004  0.6596878E+03  0.7818608E-02  0.9788769E-01
         21   -1    0    0  501  502  0.00000000000E+00  0.00000000000E+00  0.16805974825E+03  0.16805974825E+03  0.00000000000E+00 0.  1.
         13   -1    0    0    0    0 -0.00000000000E+00 -0.00000000000E+00 -0.10000000000E+04  0.10000000000E+04  0.00000000000E+00 0.  1.
    9000005    2    1    2  501    0 -0.11300213819E+03 -0.34464382344E+02 -0.81528518230E+03  0.10487506194E+04  0.64902284733E+03 0.  0.
         13    1    3    3    0    0  0.16392792901E+03 -0.47551337054E+02 -0.74284714594E+03  0.76220428876E+03  0.00000000000E+00 0.  1.
          3    1    3    3  501    0 -0.27693006719E+03  0.13086954710E+02 -0.72438036354E+02  0.28654633065E+03  0.00000000000E+00 0.  1.
         -1    1    1    2    0  502  0.11300213819E+03  0.34464382344E+02 -0.16655069454E+02  0.11930912884E+03  0.00000000000E+00 0. -1.
<mgrwt>
<rscale>  1 0.65968775E+03</rscale>
<asrwt>0</asrwt>
<pdfrwt beam="1">  1       21 0.25855345E-01 0.65968775E+03</pdfrwt>
<pdfrwt beam="2">0</pdfrwt>
<totfact> 0.13623767E+03</totfact>
</mgrwt>
</event>
<event>
 6    1  0.1347953E-004  0.6469497E+03  0.7818608E-02  0.9812520E-01
         21   -1    0    0  501  502  0.00000000000E+00  0.00000000000E+00  0.19302330008E+03  0.19302330008E+03  0.00000000000E+00 0. -1.
         13   -1    0    0    0    0 -0.00000000000E+00 -0.00000000000E+00 -0.10000000000E+04  0.10000000000E+04  0.00000000000E+00 0.  1.
    9000005    2    1    2  501    0  0.18216481412E+02  0.12064447511E+02 -0.89386986356E+03  0.11034252366E+04  0.64658064364E+03 0.  0.
         13    1    3    3    0    0  0.10566412669E+03  0.13618804519E+03  0.23150774449E+02  0.17391966445E+03  0.00000000000E+00 0.  1.
          3    1    3    3  501    0 -0.87447645280E+02 -0.12412359768E+03 -0.91702063801E+03  0.92950557217E+03  0.00000000000E+00 0.  1.
         -3    1    1    2    0  502 -0.18216481412E+02 -0.12064447511E+02  0.86893163642E+02  0.89598063464E+02  0.00000000000E+00 0. -1.
<mgrwt>
<rscale>  1 0.64694970E+03</rscale>
<asrwt>0</asrwt>
<pdfrwt beam="1">  1       21 0.29695891E-01 0.64694970E+03</pdfrwt>
<pdfrwt beam="2">0</pdfrwt>
<totfact> 0.10358907E+03</totfact>
</mgrwt>
</event>
<event>
 6    1  0.1347953E-004  0.7132111E+03  0.7818608E-02  0.9694902E-01
         21   -1    0    0  501  502  0.00000000000E+00  0.00000000000E+00  0.35128616054E+03  0.35128616054E+03  0.00000000000E+00 0. -1.
         13   -1    0    0    0    0 -0.00000000000E+00 -0.00000000000E+00 -0.10000000000E+04  0.10000000000E+04  0.00000000000E+00 0.  1.
    9000005    2    1    2  501    0 -0.10215033836E+03 -0.34811590594E+03 -0.68220239966E+03  0.98694997065E+03  0.61404458703E+03 0.  0.
         13    1    3    3    0    0 -0.26739251754E+03  0.57837737104E+02 -0.23306339707E+03  0.35939186040E+03  0.00000000000E+00 0.  1.
          3    1    3    3  501    0  0.16524217918E+03 -0.40595364305E+03 -0.44913900259E+03  0.62755811024E+03  0.00000000000E+00 0.  1.
         -3    1    1    2    0  502  0.10215033836E+03  0.34811590594E+03  0.33488560196E+02  0.36433618989E+03  0.00000000000E+00 0. -1.
<mgrwt>
<rscale>  1 0.71321114E+03</rscale>
<asrwt>0</asrwt>
<pdfrwt beam="1">  1       21 0.54044023E-01 0.71321114E+03</pdfrwt>
<pdfrwt beam="2">0</pdfrwt>
<totfact> 0.29643199E+02</totfact>
</mgrwt>
</event>
<event>
 6    1  0.1347953E-004  0.6562616E+03  0.7818608E-02  0.9795100E-01
         21   -1    0    0  501  502  0.00000000000E+00  0.00000000000E+00  0.19496205927E+03  0.19496205927E+03  0.00000000000E+00 0. -1.
         13   -1    0    0    0    0 -0.00000000000E+00 -0.00000000000E+00 -0.10000000000E+04  0.10000000000E+04  0.00000000000E+00 0.  1.
    9000005    2    1    2  501    0  0.98747176567E+02 -0.47759749980E+01 -0.86004227940E+03  0.10818281029E+04  0.64877230752E+03 0.  0.
         13    1    3    3    0    0  0.19557951731E+03  0.16254903161E+03 -0.63440576591E+02  0.26210349487E+03  0.00000000000E+00 0.  1.
          3    1    3    3  501    0 -0.96832340742E+02 -0.16732500660E+03 -0.79660170281E+03  0.81972460800E+03  0.00000000000E+00 0.  1.
         -3    1    1    2    0  502 -0.98747176567E+02  0.47759749980E+01  0.55004338670E+02  0.11313395640E+03  0.00000000000E+00 0. -1.
<mgrwt>
<rscale>  1 0.65626163E+03</rscale>
<asrwt>0</asrwt>
<pdfrwt beam="1">  1       21 0.29994162E-01 0.65626163E+03</pdfrwt>
<pdfrwt beam="2">0</pdfrwt>
<totfact> 0.10147918E+03</totfact>
</mgrwt>
</event>
<event>
 6    1  0.1347953E-004  0.4594393E+03  0.7818608E-02  0.1024944E+00
         21   -1    0    0  501  502  0.00000000000E+00  0.00000000000E+00  0.85598345797E+02  0.85598345797E+02  0.00000000000E+00 0.  1.
         13   -1    0    0    0    0 -0.00000000000E+00 -0.00000000000E+00 -0.10000000000E+04  0.10000000000E+04  0.00000000000E+00 0.  1.
    9000005    2    1    2  501    0  0.10366948660E+02 -0.17345660685E+02 -0.94393787254E+03  0.10498110050E+04  0.45899465507E+03 0.  0.
         13    1    3    3    0    0 -0.19348579637E+03 -0.41674996869E+02 -0.71688353641E+03  0.74370394885E+03  0.00000000000E+00 0.  1.
          1    1    3    3  501    0  0.20385274503E+03  0.24329336184E+02 -0.22705433613E+03  0.30610705613E+03  0.00000000000E+00 0.  1.
         -1    1    1    2    0  502 -0.10366948660E+02  0.17345660685E+02  0.29536218339E+02  0.35787340819E+02  0.00000000000E+00 0. -1.
<mgrwt>
<rscale>  1 0.45943927E+03</rscale>
<asrwt>0</asrwt>
<pdfrwt beam="1">  1       21 0.13168976E-01 0.45943927E+03</pdfrwt>
<pdfrwt beam="2">0</pdfrwt>
<totfact> 0.49428684E+03</totfact>
</mgrwt>
</event>
<event>
 6    1  0.1347953E-004  0.6667257E+03  0.7818608E-02  0.9775891E-01
         21   -1    0    0  501  502  0.00000000000E+00  0.00000000000E+00  0.16927292491E+03  0.16927292491E+03  0.00000000000E+00 0.  1.
         13   -1    0    0    0    0 -0.00000000000E+00 -0.00000000000E+00 -0.10000000000E+04  0.10000000000E+04  0.00000000000E+00 0.  1.
    9000005    2    1    2  501    0 -0.69209593944E+02 -0.13992374970E+03 -0.66948981319E+03  0.94484904416E+03  0.64819324485E+03 0.  0.
         13    1    3    3    0    0 -0.21832791851E+03 -0.16168393114E+03 -0.13760351089E+02  0.27202595621E+03  0.00000000000E+00 0.  1.
          3    1    3    3  501    0  0.14911832457E+03  0.21760181447E+02 -0.65572946210E+03  0.67282308795E+03  0.00000000000E+00 0.  1.
         -3    1    1    2    0  502  0.69209593944E+02  0.13992374970E+03 -0.16123726190E+03  0.22442388075E+03  0.00000000000E+00 0. -1.
<mgrwt>
<rscale>  1 0.66672566E+03</rscale>
<asrwt>0</asrwt>
<pdfrwt beam="1">  1       21 0.26041988E-01 0.66672566E+03</pdfrwt>
<pdfrwt beam="2">0</pdfrwt>
<totfact> 0.13427179E+03</totfact>
</mgrwt>
</event>
<event>
 6    1  0.1347953E-004  0.6488533E+03  0.7818608E-02  0.9808933E-01
         21   -1    0    0  501  502  0.00000000000E+00  0.00000000000E+00  0.12024856583E+03  0.12024856583E+03  0.00000000000E+00 0.  1.
         13   -1    0    0    0    0 -0.00000000000E+00 -0.00000000000E+00 -0.10000000000E+04  0.10000000000E+04  0.00000000000E+00 0.  1.
    9000005    2    1    2  501    0 -0.24323006020E+02  0.65714189369E+01 -0.88199400357E+03  0.10949538769E+04  0.64836392413E+03 0.  0.
         13    1    3    3    0    0 -0.93907492772E+02 -0.20162199921E+03 -0.41487276768E+02  0.22625481629E+03  0.00000000000E+00 0.  1.
          3    1    3    3  501    0  0.69584486753E+02  0.20819341814E+03 -0.84050672681E+03  0.86869906064E+03  0.00000000000E+00 0.  1.
         -3    1    1    2    0  502  0.24323006020E+02 -0.65714189369E+01  0.22425694025E+01  0.25294688893E+02  0.00000000000E+00 0. -1.
<mgrwt>
<rscale>  1 0.64885327E+03</rscale>
<asrwt>0</asrwt>
<pdfrwt beam="1">  1       21 0.18499779E-01 0.64885327E+03</pdfrwt>
<pdfrwt beam="2">0</pdfrwt>
<totfact> 0.26048414E+03</totfact>
</mgrwt>
</event>
<event>
 6    1  0.1347953E-004  0.8175686E+03  0.7818608E-02  0.9534930E-01
         21   -1    0    0  501  502  0.00000000000E+00  0.00000000000E+00  0.59621444074E+03  0.59621444074E+03  0.00000000000E+00 0. -1.
         13   -1    0    0    0    0 -0.00000000000E+00 -0.00000000000E+00 -0.10000000000E+04  0.10000000000E+04  0.00000000000E+00 0.  1.
    9000005    2    1    2  501    0  0.45318938884E+03 -0.20232506440E+03 -0.64786251185E+03  0.10431415589E+04  0.64969410018E+03 0.  0.
         13    1    3    3    0    0  0.60023222038E+03 -0.94547747895E+02 -0.60156548392E+03  0.85504328923E+03  0.00000000000E+00 0.  1.
          1    1    3    3  501    0 -0.14704283154E+03 -0.10777731650E+03 -0.46297027933E+02  0.18809826968E+03  0.00000000000E+00 0.  1.
         -3    1    1    2    0  502 -0.45318938884E+03  0.20232506440E+03  0.24407695259E+03  0.55307288184E+03  0.00000000000E+00 0. -1.
<mgrwt>
<rscale>  1 0.81756864E+03</rscale>
<asrwt>0</asrwt>
<pdfrwt beam="1">  1       21 0.91725296E-01 0.81756864E+03</pdfrwt>
<pdfrwt beam="2">0</pdfrwt>
<totfact> 0.87555971E+01</totfact>
</mgrwt>
</event>
<event>
 6    1  0.1347953E-004  0.6568832E+03  0.7818608E-02  0.9793948E-01
         21   -1    0    0  501  502  0.00000000000E+00  0.00000000000E+00  0.16745059735E+03  0.16745059735E+03  0.00000000000E+00 0.  1.
         13   -1    0    0    0    0 -0.00000000000E+00 -0.00000000000E+00 -0.10000000000E+04  0.10000000000E+04  0.00000000000E+00 0.  1.
    9000005    2    1    2  501    0 -0.75572224845E+02  0.11260496850E+02 -0.86354961335E+03  0.10849947120E+04  0.65242442512E+03 0.  0.
         13    1    3    3    0    0 -0.20600662692E+03 -0.27196528262E+03 -0.39209848589E+03  0.51975481520E+03  0.00000000000E+00 0.  1.
          3    1    3    3  501    0  0.13043440207E+03  0.28322577947E+03 -0.47145112747E+03  0.56523989685E+03  0.00000000000E+00 0.  1.
         -1    1    1    2    0  502  0.75572224845E+02 -0.11260496850E+02  0.31000210706E+02  0.82455885303E+02  0.00000000000E+00 0. -1.
<mgrwt>
<rscale>  1 0.65688324E+03</rscale>
<asrwt>0</asrwt>
<pdfrwt beam="1">  1       21 0.25761630E-01 0.65688324E+03</pdfrwt>
<pdfrwt beam="2">0</pdfrwt>
<totfact> 0.13723488E+03</totfact>
</mgrwt>
</event>
<event>
 6    1  0.1347953E-004  0.6591711E+03  0.7818608E-02  0.9789721E-01
         21   -1    0    0  501  502  0.00000000000E+00  0.00000000000E+00  0.15015775477E+03  0.15015775477E+03  0.00000000000E+00 0.  1.
         13   -1    0    0    0    0 -0.00000000000E+00 -0.00000000000E+00 -0.10000000000E+04  0.10000000000E+04  0.00000000000E+00 0.  1.
    9000005    2    1    2  501    0  0.10737754852E+03  0.10728946208E+02 -0.78172051414E+03  0.10225426363E+04  0.65027796568E+03 0.  0.
         13    1    3    3    0    0  0.18219267414E+03 -0.29292240607E+03 -0.44410938028E+03  0.56234406563E+03  0.00000000000E+00 0.  1.
          3    1    3    3  501    0 -0.74815125625E+02  0.30365135228E+03 -0.33761113385E+03  0.46019857069E+03  0.00000000000E+00 0.  1.
         -3    1    1    2    0  502 -0.10737754852E+03 -0.10728946208E+02 -0.68121731089E+02  0.12761511846E+03  0.00000000000E+00 0. -1.
<mgrwt>
<rscale>  1 0.65917106E+03</rscale>
<asrwt>0</asrwt>
<pdfrwt beam="1">  1       21 0.23101192E-01 0.65917106E+03</pdfrwt>
<pdfrwt beam="2">0</pdfrwt>
<totfact> 0.16982453E+03</totfact>
</mgrwt>
</event>
<event>
 6    1  0.1347953E-004  0.6519760E+03  0.7818608E-02  0.9803078E-01
         21   -1    0    0  501  502  0.00000000000E+00  0.00000000000E+00  0.12184389987E+03  0.12184389987E+03  0.00000000000E+00 0.  1.
         13   -1    0    0    0    0 -0.00000000000E+00 -0.00000000000E+00 -0.10000000000E+04  0.10000000000E+04  0.00000000000E+00 0.  1.
    9000005    2    1    2  501    0  0.96068379375E+01  0.28367158912E+02 -0.87575720076E+03  0.10917982387E+04  0.65128774916E+03 0.  0.
         13    1    3    3    0    0 -0.29788217461E+03 -0.55967997934E+02 -0.26404870946E+03  0.40198000909E+03  0.00000000000E+00 0.  1.
          3    1    3    3  501    0  0.30748901254E+03  0.84335156846E+02 -0.61170849129E+03  0.68981822956E+03  0.00000000000E+00 0.  1.
         -3    1    1    2    0  502 -0.96068379375E+01 -0.28367158912E+02 -0.23988993706E+01  0.30045661219E+02  0.00000000000E+00 0. -1.
<mgrwt>
<rscale>  1 0.65197601E+03</rscale>
<asrwt>0</asrwt>
<pdfrwt beam="1">  1       21 0.18745215E-01 0.65197601E+03</pdfrwt>
<pdfrwt beam="2">0</pdfrwt>
<totfact> 0.25400301E+03</totfact>
</mgrwt>
</event>
<event>
 6    1  0.1347953E-004  0.6532057E+03  0.7818608E-02  0.9800782E-01
         21   -1    0    0  501  502  0.00000000000E+00  0.00000000000E+00  0.11870021428E+03  0.11870021428E+03  0.00000000000E+00 0.  1.
         13   -1    0    0    0    0 -0.00000000000E+00 -0.00000000000E+00 -0.10000000000E+04  0.10000000000E+04  0.00000000000E+00 0.  1.
    9000005    2    1    2  501    0 -0.32382757151E+02 -0.12131819684E+02 -0.82056876261E+03  0.10488140127E+04  0.65228974770E+03 0.  0.
         13    1    3    3    0    0  0.28200692267E+03 -0.89990971303E+02 -0.55882421404E+03  0.63238499472E+03  0.00000000000E+00 0.  1.
          1    1    3    3  501    0 -0.31438967982E+03  0.77859151619E+02 -0.26174454857E+03  0.41642901793E+03  0.00000000000E+00 0.  1.
         -3    1    1    2    0  502  0.32382757151E+02  0.12131819684E+02 -0.60731023113E+02  0.69886201627E+02  0.00000000000E+00 0. -1.
<mgrwt>
<rscale>  1 0.65320574E+03</rscale>
<asrwt>0</asrwt>
<pdfrwt beam="1">  1       21 0.18261571E-01 0.65320574E+03</pdfrwt>
<pdfrwt beam="2">0</pdfrwt>
<totfact> 0.26694184E+03</totfact>
</mgrwt>
</event>
<event>
 6    1  0.1347953E-004  0.6584970E+03  0.7818608E-02  0.9790965E-01
         21   -1    0    0  501  502  0.00000000000E+00  0.00000000000E+00  0.14882971843E+03  0.14882971843E+03  0.00000000000E+00 0.  1.
         13   -1    0    0    0    0 -0.00000000000E+00 -0.00000000000E+00 -0.10000000000E+04  0.10000000000E+04  0.00000000000E+00 0.  1.
    9000005    2    1    2  501    0  0.29135123345E+02 -0.92245223091E+01 -0.88508678900E+03  0.11031758391E+04  0.65778747376E+03 0.  0.
         13    1    3    3    0    0 -0.29109082700E+03  0.33073092975E+02 -0.61846150203E+03  0.68434079853E+03  0.00000000000E+00 0.  1.
          3    1    3    3  501    0  0.32022595035E+03 -0.42297615284E+02 -0.26662528697E+03  0.41883504054E+03  0.00000000000E+00 0.  1.
         -1    1    1    2    0  502 -0.29135123345E+02  0.92245223091E+01  0.33916507435E+02  0.45653879361E+02  0.00000000000E+00 0. -1.
<mgrwt>
<rscale>  1 0.65849701E+03</rscale>
<asrwt>0</asrwt>
<pdfrwt beam="1">  1       21 0.22896879E-01 0.65849701E+03</pdfrwt>
<pdfrwt beam="2">0</pdfrwt>
<totfact> 0.17278854E+03</totfact>
</mgrwt>
</event>
<event>
 6    1  0.1347953E-004  0.5324317E+03  0.7818608E-02  0.1005644E+00
         21   -1    0    0  501  502  0.00000000000E+00  0.00000000000E+00  0.22769764072E+03  0.22769764072E+03  0.00000000000E+00 0. -1.
         13   -1    0    0    0    0 -0.00000000000E+00 -0.00000000000E+00 -0.10000000000E+04  0.10000000000E+04  0.00000000000E+00 0.  1.
    9000005    2    1    2  501    0 -0.21786099539E+02 -0.64791648747E+01 -0.92824683282E+03  0.10701054692E+04  0.53194634953E+03 0.  0.
         13    1    3    3    0    0 -0.25851077833E+03 -0.32008571049E+02 -0.66996535188E+03  0.71882260945E+03  0.00000000000E+00 0.  1.
          3    1    3    3  501    0  0.23672467880E+03  0.25529406175E+02 -0.25828148093E+03  0.35128285971E+03  0.00000000000E+00 0.  1.
         -1    1    1    2    0  502  0.21786099539E+02  0.64791648747E+01  0.15594447354E+03  0.15759217156E+03  0.00000000000E+00 0. -1.
<mgrwt>
<rscale>  1 0.53243172E+03</rscale>
<asrwt>0</asrwt>
<pdfrwt beam="1">  1       21 0.35030405E-01 0.53243172E+03</pdfrwt>
<pdfrwt beam="2">0</pdfrwt>
<totfact> 0.74894425E+02</totfact>
</mgrwt>
</event>
<event>
 6    1  0.1347953E-004  0.6689511E+03  0.7818608E-02  0.9771854E-01
         21   -1    0    0  501  502  0.00000000000E+00  0.00000000000E+00  0.30502551985E+03  0.30502551985E+03  0.00000000000E+00 0.  1.
         13   -1    0    0    0    0 -0.00000000000E+00 -0.00000000000E+00 -0.10000000000E+04  0.10000000000E+04  0.00000000000E+00 0.  1.
    9000005    2    1    2  501    0 -0.23961804972E+02 -0.24507106104E+02 -0.88643370713E+03  0.11105225586E+04  0.66807250328E+03 0.  0.
         13    1    3    3    0    0  0.48157809140E+02  0.29525574423E+03 -0.61890237022E+03  0.68741201106E+03  0.00000000000E+00 0.  1.
          3    1    3    3  501    0 -0.72119614112E+02 -0.31976285034E+03 -0.26753133691E+03  0.42311054752E+03  0.00000000000E+00 0.  1.
         -3    1    1    2    0  502  0.23961804972E+02  0.24507106104E+02  0.19145922698E+03  0.19450296127E+03  0.00000000000E+00 0. -1.
<mgrwt>
<rscale>  1 0.66895115E+03</rscale>
<asrwt>0</asrwt>
<pdfrwt beam="1">  1       21 0.46927002E-01 0.66895115E+03</pdfrwt>
<pdfrwt beam="2">0</pdfrwt>
<totfact> 0.40314639E+02</totfact>
</mgrwt>
</event>
<event>
 6    1  0.1347953E-004  0.6508202E+03  0.7818608E-02  0.9805241E-01
         21   -1    0    0  501  502  0.00000000000E+00  0.00000000000E+00  0.20491437790E+03  0.20491437790E+03  0.00000000000E+00 0. -1.
         13   -1    0    0    0    0 -0.00000000000E+00 -0.00000000000E+00 -0.10000000000E+04  0.10000000000E+04  0.00000000000E+00 0.  1.
    9000005    2    1    2  501    0 -0.22513192239E+02 -0.16401025866E+02 -0.89193712627E+03  0.11041371417E+04  0.65022392528E+03 0.  0.
         13    1    3    3    0    0 -0.23130219917E+03 -0.24029235607E+03 -0.36273336464E+03  0.49276426164E+03  0.00000000000E+00 0.  1.
          1    1    3    3  501    0  0.20878900693E+03  0.22389133020E+03 -0.52920376163E+03  0.61137288007E+03  0.00000000000E+00 0.  1.
         -1    1    1    2    0  502  0.22513192239E+02  0.16401025866E+02  0.96851504171E+02  0.10077723619E+03  0.00000000000E+00 0. -1.
<mgrwt>
<rscale>  1 0.65082024E+03</rscale>
<asrwt>0</asrwt>
<pdfrwt beam="1">  1       21 0.31525288E-01 0.65082024E+03</pdfrwt>
<pdfrwt beam="2">0</pdfrwt>
<totfact> 0.91857261E+02</totfact>
</mgrwt>
</event>
<event>
 6    1  0.1347953E-004  0.6554088E+03  0.7818608E-02  0.9796683E-01
         21   -1    0    0  501  502  0.00000000000E+00  0.00000000000E+00  0.14644968710E+03  0.14644968710E+03  0.00000000000E+00 0.  1.
         13   -1    0    0    0    0 -0.00000000000E+00 -0.00000000000E+00 -0.10000000000E+04  0.10000000000E+04  0.00000000000E+00 0.  1.
    9000005    2    1    2  501    0  0.14099405075E+02 -0.62232658591E+02 -0.86114631426E+03  0.10821893085E+04  0.65229519996E+03 0.  0.
         13    1    3    3    0    0  0.16792582396E+02  0.54728583817E+02  0.99312910508E+02  0.11463098579E+03  0.00000000000E+00 0.  1.
          1    1    3    3  501    0 -0.26931773219E+01 -0.11696124241E+03 -0.96045922477E+03  0.96755832272E+03  0.00000000000E+00 0.  1.
         -3    1    1    2    0  502 -0.14099405075E+02  0.62232658591E+02  0.75960013601E+01  0.64260378582E+02  0.00000000000E+00 0. -1.
<mgrwt>
<rscale>  1 0.65540882E+03</rscale>
<asrwt>0</asrwt>
<pdfrwt beam="1">  1       21 0.22530720E-01 0.65540882E+03</pdfrwt>
<pdfrwt beam="2">0</pdfrwt>
<totfact> 0.17830794E+03</totfact>
</mgrwt>
</event>
<event>
 6    1  0.1347953E-004  0.6583225E+03  0.7818608E-02  0.9791287E-01
         21   -1    0    0  501  502  0.00000000000E+00  0.00000000000E+00  0.14525921391E+03  0.14525921391E+03  0.00000000000E+00 0.  1.
         13   -1    0    0    0    0 -0.00000000000E+00 -0.00000000000E+00 -0.10000000000E+04  0.10000000000E+04  0.00000000000E+00 0.  1.
    9000005    2    1    2  501    0  0.25154455242E+02  0.69955908111E+02 -0.84362855461E+03  0.10700923503E+04  0.65411155341E+03 0.  0.
         13    1    3    3    0    0 -0.23336684781E+03  0.25021558315E+03 -0.46866884788E+03  0.58027442876E+03  0.00000000000E+00 0.  1.
          3    1    3    3  501    0  0.25852130305E+03 -0.18025967504E+03 -0.37495970673E+03  0.48981792153E+03  0.00000000000E+00 0.  1.
         -1    1    1    2    0  502 -0.25154455242E+02 -0.69955908111E+02 -0.11112231475E+02  0.75166863621E+02  0.00000000000E+00 0. -1.
<mgrwt>
<rscale>  1 0.65832249E+03</rscale>
<asrwt>0</asrwt>
<pdfrwt beam="1">  1       21 0.22347571E-01 0.65832249E+03</pdfrwt>
<pdfrwt beam="2">0</pdfrwt>
<totfact> 0.18112892E+03</totfact>
</mgrwt>
</event>
<event>
 6    1  0.1347953E-004  0.6749952E+03  0.7818608E-02  0.9760976E-01
         21   -1    0    0  501  502  0.00000000000E+00  0.00000000000E+00  0.17750535005E+03  0.17750535005E+03  0.00000000000E+00 0.  1.
         13   -1    0    0    0    0 -0.00000000000E+00 -0.00000000000E+00 -0.10000000000E+04  0.10000000000E+04  0.00000000000E+00 0.  1.
    9000005    2    1    2  501    0 -0.16828421499E+02  0.27642219135E+02 -0.88147336927E+03  0.11102314518E+04  0.67421902070E+03 0.  0.
         13    1    3    3    0    0  0.12818864016E+02  0.12041645877E+03 -0.97065108121E+03  0.97817583709E+03  0.00000000000E+00 0.  1.
          3    1    3    3  501    0 -0.29647285516E+02 -0.92774239637E+02  0.89177711942E+02  0.13205561475E+03  0.00000000000E+00 0.  1.
         -3    1    1    2    0  502  0.16828421499E+02 -0.27642219135E+02  0.58978719316E+02  0.67273898215E+02  0.00000000000E+00 0. -1.
<mgrwt>
<rscale>  1 0.67499524E+03</rscale>
<asrwt>0</asrwt>
<pdfrwt beam="1">  1       21 0.27308515E-01 0.67499524E+03</pdfrwt>
<pdfrwt beam="2">0</pdfrwt>
<totfact> 0.12219574E+03</totfact>
</mgrwt>
</event>
<event>
 6    1  0.1347953E-004  0.6865142E+03  0.7818608E-02  0.9740577E-01
         21   -1    0    0  501  502  0.00000000000E+00  0.00000000000E+00  0.28638884596E+03  0.28638884596E+03  0.00000000000E+00 0.  1.
         13   -1    0    0    0    0 -0.00000000000E+00 -0.00000000000E+00 -0.10000000000E+04  0.10000000000E+04  0.00000000000E+00 0.  1.
    9000005    2    1    2  501    0  0.88433327890E+02 -0.98187115952E+02 -0.85258264493E+03  0.10946227423E+04  0.67367693918E+03 0.  0.
         13    1    3    3    0    0  0.35352744733E+03  0.85619743727E+02 -0.43921763445E+03  0.57028460171E+03  0.00000000000E+00 0.  1.
          1    1    3    3  501    0 -0.26509411944E+03 -0.18380685968E+03 -0.41336501048E+03  0.52433814063E+03  0.00000000000E+00 0.  1.
         -1    1    1    2    0  502 -0.88433327890E+02  0.98187115952E+02  0.13897149089E+03  0.19176610363E+03  0.00000000000E+00 0. -1.
<mgrwt>
<rscale>  1 0.68651423E+03</rscale>
<asrwt>0</asrwt>
<pdfrwt beam="1">  1       21 0.44059821E-01 0.68651423E+03</pdfrwt>
<pdfrwt beam="2">0</pdfrwt>
<totfact> 0.45998732E+02</totfact>
</mgrwt>
</event>
<event>
 6    1  0.1347953E-004  0.6574789E+03  0.7818608E-02  0.9792846E-01
         21   -1    0    0  501  502  0.00000000000E+00  0.00000000000E+00  0.61319378983E+03  0.61319378983E+03  0.00000000000E+00 0.  1.
         13   -1    0    0    0    0 -0.00000000000E+00 -0.00000000000E+00 -0.10000000000E+04  0.10000000000E+04  0.00000000000E+00 0.  1.
    9000005    2    1    2  501    0 -0.34011387678E+02 -0.13040957969E+02 -0.89120255699E+03  0.11074838772E+04  0.65646911543E+03 0.  0.
         13    1    3    3    0    0 -0.10016333141E+03  0.19617114172E+03 -0.85768591842E+03  0.88551733154E+03  0.00000000000E+00 0.  1.
          1    1    3    3  501    0  0.66151943734E+02 -0.20921209969E+03 -0.33516638572E+02  0.22196654563E+03  0.00000000000E+00 0.  1.
         -1    1    1    2    0  502  0.34011387678E+02  0.13040957969E+02  0.50439634682E+03  0.50570991266E+03  0.00000000000E+00 0. -1.
<mgrwt>
<rscale>  1 0.65747893E+03</rscale>
<asrwt>0</asrwt>
<pdfrwt beam="1">  1       21 0.94337503E-01 0.65747893E+03</pdfrwt>
<pdfrwt beam="2">0</pdfrwt>
<totfact> 0.83479987E+01</totfact>
</mgrwt>
</event>
<event>
 6    1  0.1347953E-004  0.6486760E+03  0.7818608E-02  0.9809267E-01
         21   -1    0    0  501  502  0.00000000000E+00  0.00000000000E+00  0.12162476138E+03  0.12162476138E+03  0.00000000000E+00 0.  1.
         13   -1    0    0    0    0 -0.00000000000E+00 -0.00000000000E+00 -0.10000000000E+04  0.10000000000E+04  0.00000000000E+00 0.  1.
    9000005    2    1    2  501    0 -0.40971427443E+02 -0.71822117310E+01 -0.85712241589E+03  0.10749136866E+04  0.64734098882E+03 0.  0.
         13    1    3    3    0    0 -0.69715562006E+02  0.23891673922E+03 -0.83392973843E+02  0.26248020107E+03  0.00000000000E+00 0.  1.
          1    1    3    3  501    0  0.28744134563E+02 -0.24609895096E+03 -0.77372944204E+03  0.81243348553E+03  0.00000000000E+00 0.  1.
         -1    1    1    2    0  502  0.40971427443E+02  0.71822117310E+01 -0.21252822737E+02  0.46711074772E+02  0.00000000000E+00 0. -1.
<mgrwt>
<rscale>  1 0.64867603E+03</rscale>
<asrwt>0</asrwt>
<pdfrwt beam="1">  1       21 0.18711501E-01 0.64867603E+03</pdfrwt>
<pdfrwt beam="2">0</pdfrwt>
<totfact> 0.25490522E+03</totfact>
</mgrwt>
</event>
<event>
 6    1  0.1347953E-004  0.6485634E+03  0.7818608E-02  0.9809479E-01
         21   -1    0    0  501  502  0.00000000000E+00  0.00000000000E+00  0.15141809015E+03  0.15141809015E+03  0.00000000000E+00 0.  1.
         13   -1    0    0    0    0 -0.00000000000E+00 -0.00000000000E+00 -0.10000000000E+04  0.10000000000E+04  0.00000000000E+00 0.  1.
    9000005    2    1    2  501    0  0.13648696141E+02  0.16106325653E+02 -0.89216399087E+03  0.11029918739E+04  0.64821970558E+03 0.  0.
         13    1    3    3    0    0 -0.20234989579E+03 -0.17872405305E+03 -0.71043924221E+03  0.76000768703E+03  0.00000000000E+00 0.  1.
          3    1    3    3  501    0  0.21599859193E+03  0.19483037870E+03 -0.18172474865E+03  0.34298418689E+03  0.00000000000E+00 0.  1.
         -1    1    1    2    0  502 -0.13648696141E+02 -0.16106325653E+02  0.43582081022E+02  0.48426216233E+02  0.00000000000E+00 0. -1.
<mgrwt>
<rscale>  1 0.64856340E+03</rscale>
<asrwt>0</asrwt>
<pdfrwt beam="1">  1       21 0.23295090E-01 0.64856340E+03</pdfrwt>
<pdfrwt beam="2">0</pdfrwt>
<totfact> 0.16716934E+03</totfact>
</mgrwt>
</event>
<event>
 6    1  0.1347953E-004  0.6413160E+03  0.7818608E-02  0.9823212E-01
         21   -1    0    0  501  502  0.00000000000E+00  0.00000000000E+00  0.24122409462E+03  0.24122409462E+03  0.00000000000E+00 0.  1.
         13   -1    0    0    0    0 -0.00000000000E+00 -0.00000000000E+00 -0.10000000000E+04  0.10000000000E+04  0.00000000000E+00 0.  1.
    9000005    2    1    2  501    0  0.30786824953E+02  0.45085406861E+02 -0.89121400625E+03  0.10979747558E+04  0.63898797874E+03 0.  0.
         13    1    3    3    0    0 -0.29667229703E+03 -0.27117735590E+02 -0.33320325446E+03  0.44696110814E+03  0.00000000000E+00 0.  1.
          3    1    3    3  501    0  0.32745912198E+03  0.72203142451E+02 -0.55801075179E+03  0.65101364768E+03  0.00000000000E+00 0.  1.
         -1    1    1    2    0  502 -0.30786824953E+02 -0.45085406861E+02  0.13243810088E+03  0.14324933880E+03  0.00000000000E+00 0. -1.
<mgrwt>
<rscale>  1 0.64131596E+03</rscale>
<asrwt>0</asrwt>
<pdfrwt beam="1">  1       21 0.37111398E-01 0.64131596E+03</pdfrwt>
<pdfrwt beam="2">0</pdfrwt>
<totfact> 0.65971814E+02</totfact>
</mgrwt>
</event>
<event>
 6    1  0.1347953E-004  0.6509206E+03  0.7818608E-02  0.9805053E-01
         21   -1    0    0  501  502  0.00000000000E+00  0.00000000000E+00  0.15867594485E+03  0.15867594485E+03  0.00000000000E+00 0.  1.
         13   -1    0    0    0    0 -0.00000000000E+00 -0.00000000000E+00 -0.10000000000E+04  0.10000000000E+04  0.00000000000E+00 0.  1.
    9000005    2    1    2  501    0 -0.35723937966E+02 -0.91419855333E+01 -0.88684886910E+03  0.11000902441E+04  0.64987525955E+03 0.  0.
         13    1    3    3    0    0  0.95505157959E+02  0.26293392705E+03 -0.67632773086E+03  0.73189800159E+03  0.00000000000E+00 0.  1.
          3    1    3    3  501    0 -0.13122909592E+03 -0.27207591259E+03 -0.21052113824E+03  0.36819224255E+03  0.00000000000E+00 0.  1.
         -3    1    1    2    0  502  0.35723937966E+02  0.91419855332E+01  0.45524813952E+02  0.58585700718E+02  0.00000000000E+00 0. -1.
<mgrwt>
<rscale>  1 0.65092060E+03</rscale>
<asrwt>0</asrwt>
<pdfrwt beam="1">  1       21 0.24411683E-01 0.65092060E+03</pdfrwt>
<pdfrwt beam="2">0</pdfrwt>
<totfact> 0.15256008E+03</totfact>
</mgrwt>
</event>
<event>
 6    1  0.1347953E-004  0.6593776E+03  0.7818608E-02  0.9789340E-01
         21   -1    0    0  501  502  0.00000000000E+00  0.00000000000E+00  0.18643532685E+03  0.18643532685E+03  0.00000000000E+00 0.  1.
         13   -1    0    0    0    0 -0.00000000000E+00 -0.00000000000E+00 -0.10000000000E+04  0.10000000000E+04  0.00000000000E+00 0.  1.
    9000005    2    1    2  501    0  0.72761419365E+02  0.36851965459E+02 -0.86675966492E+03  0.10890597721E+04  0.65431382305E+03 0.  0.
         13    1    3    3    0    0  0.12126446070E+03  0.26048441876E+03 -0.80098760789E+03  0.85096318947E+03  0.00000000000E+00 0.  1.
          3    1    3    3  501    0 -0.48503041338E+02 -0.22363245330E+03 -0.65772057035E+02  0.23809658266E+03  0.00000000000E+00 0.  1.
         -3    1    1    2    0  502 -0.72761419365E+02 -0.36851965459E+02  0.53194991768E+02  0.97375554712E+02  0.00000000000E+00 0. -1.
<mgrwt>
<rscale>  1 0.65937764E+03</rscale>
<asrwt>0</asrwt>
<pdfrwt beam="1">  1       21 0.28682357E-01 0.65937764E+03</pdfrwt>
<pdfrwt beam="2">0</pdfrwt>
<totfact> 0.11093903E+03</totfact>
</mgrwt>
</event>
<event>
 6    1  0.1347953E-004  0.6691066E+03  0.7818608E-02  0.9771573E-01
         21   -1    0    0  501  502  0.00000000000E+00  0.00000000000E+00  0.15949251898E+03  0.15949251898E+03  0.00000000000E+00 0.  1.
         13   -1    0    0    0    0 -0.00000000000E+00 -0.00000000000E+00 -0.10000000000E+04  0.10000000000E+04  0.00000000000E+00 0.  1.
    9000005    2    1    2  501    0  0.10799990611E+03  0.67719662967E+02 -0.73569864421E+03  0.99446274971E+03  0.65685137817E+03 0.  0.
         13    1    3    3    0    0  0.24420928963E+03  0.16002969580E+03 -0.77251732590E+03  0.82585149966E+03  0.00000000000E+00 0.  1.
          3    1    3    3  501    0 -0.13620938352E+03 -0.92310032837E+02  0.36818681691E+02  0.16861125005E+03  0.00000000000E+00 0.  1.
         -1    1    1    2    0  502 -0.10799990611E+03 -0.67719662967E+02 -0.10480883681E+03  0.16502976927E+03  0.00000000000E+00 0. -1.
<mgrwt>
<rscale>  1 0.66910662E+03</rscale>
<asrwt>0</asrwt>
<pdfrwt beam="1">  1       21 0.24537310E-01 0.66910662E+03</pdfrwt>
<pdfrwt beam="2">0</pdfrwt>
<totfact> 0.15089808E+03</totfact>
</mgrwt>
</event>
<event>
 6    1  0.1347953E-004  0.6820573E+03  0.7818608E-02  0.9748418E-01
         21   -1    0    0  501  502  0.00000000000E+00  0.00000000000E+00  0.44575526643E+03  0.44575526643E+03  0.00000000000E+00 0.  1.
         13   -1    0    0    0    0 -0.00000000000E+00 -0.00000000000E+00 -0.10000000000E+04  0.10000000000E+04  0.00000000000E+00 0.  1.
    9000005    2    1    2  501    0 -0.19306832281E+03 -0.11277856568E+03 -0.84056413917E+03  0.10824741299E+04  0.64436619065E+03 0.  0.
         13    1    3    3    0    0 -0.37324282037E+03 -0.66234095362E+02 -0.22820571635E+03  0.44246469613E+03  0.00000000000E+00 0.  1.
          1    1    3    3  501    0  0.18017449756E+03 -0.46544470314E+02 -0.61235842282E+03  0.64000943374E+03  0.00000000000E+00 0.  1.
         -3    1    1    2    0  502  0.19306832281E+03  0.11277856568E+03  0.28631940560E+03  0.36328113655E+03  0.00000000000E+00 0. -1.
<mgrwt>
<rscale>  1 0.68205731E+03</rscale>
<asrwt>0</asrwt>
<pdfrwt beam="1">  1       21 0.68577731E-01 0.68205731E+03</pdfrwt>
<pdfrwt beam="2">0</pdfrwt>
<totfact> 0.17532493E+02</totfact>
</mgrwt>
</event>
<event>
 6    1  0.1347953E-004  0.6456570E+03  0.7818608E-02  0.9814963E-01
         21   -1    0    0  501  502  0.00000000000E+00  0.00000000000E+00  0.18602860348E+03  0.18602860348E+03  0.00000000000E+00 0. -1.
         13   -1    0    0    0    0 -0.00000000000E+00 -0.00000000000E+00 -0.10000000000E+04  0.10000000000E+04  0.00000000000E+00 0.  1.
    9000005    2    1    2  501    0 -0.17433827886E+02  0.17258470157E+02 -0.89374596606E+03  0.11025673844E+04  0.64519081838E+03 0.  0.
         13    1    3    3    0    0  0.38546406772E+02  0.89973860568E+02  0.78825261993E+02  0.12567634220E+03  0.00000000000E+00 0.  1.
          3    1    3    3  501    0 -0.55980234658E+02 -0.72715390411E+02 -0.97257122805E+03  0.97689104219E+03  0.00000000000E+00 0.  1.
         -3    1    1    2    0  502  0.17433827886E+02 -0.17258470157E+02  0.79774569535E+02  0.83461219087E+02  0.00000000000E+00 0. -1.
<mgrwt>
<rscale>  1 0.64565702E+03</rscale>
<asrwt>0</asrwt>
<pdfrwt beam="1">  1       21 0.28619784E-01 0.64565702E+03</pdfrwt>
<pdfrwt beam="2">0</pdfrwt>
<totfact> 0.11151430E+03</totfact>
</mgrwt>
</event>
<event>
 6    1  0.1347953E-004  0.6546199E+03  0.7818608E-02  0.9798149E-01
         21   -1    0    0  501  502  0.00000000000E+00  0.00000000000E+00  0.44833115520E+03  0.44833115520E+03  0.00000000000E+00 0. -1.
         13   -1    0    0    0    0 -0.00000000000E+00 -0.00000000000E+00 -0.10000000000E+04  0.10000000000E+04  0.00000000000E+00 0.  1.
    9000005    2    1    2  501    0  0.13995969513E+02 -0.24882559474E+02 -0.89220686508E+03  0.11065985519E+04  0.65399712228E+03 0.  0.
         13    1    3    3    0    0 -0.12446954980E+03 -0.30529980523E+03 -0.35123563894E+03  0.48173344700E+03  0.00000000000E+00 0.  1.
          3    1    3    3  501    0  0.13846551932E+03  0.28041724575E+03 -0.54097122614E+03  0.62486510486E+03  0.00000000000E+00 0.  1.
         -3    1    1    2    0  502 -0.13995969513E+02  0.24882559474E+02  0.34053802028E+03  0.34173260334E+03  0.00000000000E+00 0. -1.
<mgrwt>
<rscale>  1 0.65461994E+03</rscale>
<asrwt>0</asrwt>
<pdfrwt beam="1">  1       21 0.68974022E-01 0.65461994E+03</pdfrwt>
<pdfrwt beam="2">0</pdfrwt>
<totfact> 0.17360051E+02</totfact>
</mgrwt>
</event>
<event>
 6    1  0.1347953E-004  0.6544987E+03  0.7818608E-02  0.9798374E-01
         21   -1    0    0  501  502  0.00000000000E+00  0.00000000000E+00  0.15022088160E+03  0.15022088160E+03  0.00000000000E+00 0.  1.
         13   -1    0    0    0    0 -0.00000000000E+00 -0.00000000000E+00 -0.10000000000E+04  0.10000000000E+04  0.00000000000E+00 0.  1.
    9000005    2    1    2  501    0 -0.22275811906E+02 -0.15709209105E+02 -0.88808544370E+03  0.11032063561E+04  0.65393082040E+03 0.  0.
         13    1    3    3    0    0 -0.32170920867E+03 -0.94343165965E+02 -0.55552664644E+03  0.64885075542E+03  0.00000000000E+00 0.  1.
          3    1    3    3  501    0  0.29943339676E+03  0.78633956861E+02 -0.33255879726E+03  0.45435560072E+03  0.00000000000E+00 0.  1.
         -3    1    1    2    0  502  0.22275811906E+02  0.15709209105E+02  0.38306325293E+02  0.47014525460E+02  0.00000000000E+00 0. -1.
<mgrwt>
<rscale>  1 0.65449867E+03</rscale>
<asrwt>0</asrwt>
<pdfrwt beam="1">  1       21 0.23110904E-01 0.65449867E+03</pdfrwt>
<pdfrwt beam="2">0</pdfrwt>
<totfact> 0.16972304E+03</totfact>
</mgrwt>
</event>
<event>
 6    1  0.1347953E-004  0.6290059E+03  0.7818608E-02  0.9846991E-01
         21   -1    0    0  501  502  0.00000000000E+00  0.00000000000E+00  0.29862280516E+03  0.29862280516E+03  0.00000000000E+00 0. -1.
         13   -1    0    0    0    0 -0.00000000000E+00 -0.00000000000E+00 -0.10000000000E+04  0.10000000000E+04  0.00000000000E+00 0.  1.
    9000005    2    1    2  501    0 -0.22825391735E+02 -0.13588866561E+02 -0.90011668465E+03  0.10981158461E+04  0.62844467518E+03 0.  0.
         13    1    3    3    0    0 -0.51354787162E+02 -0.27468795732E+03 -0.73878950171E+03  0.78987386075E+03  0.00000000000E+00 0.  1.
          3    1    3    3  501    0  0.28529395426E+02  0.26109909076E+03 -0.16132718294E+03  0.30824198539E+03  0.00000000000E+00 0.  1.
         -1    1    1    2    0  502  0.22825391735E+02  0.13588866561E+02  0.19873948981E+03  0.20050695902E+03  0.00000000000E+00 0. -1.
<mgrwt>
<rscale>  1 0.62900585E+03</rscale>
<asrwt>0</asrwt>
<pdfrwt beam="1">  1       21 0.45941969E-01 0.62900585E+03</pdfrwt>
<pdfrwt beam="2">0</pdfrwt>
<totfact> 0.42322770E+02</totfact>
</mgrwt>
</event>
<event>
 6    1  0.1347953E-004  0.5774473E+03  0.7818608E-02  0.9953333E-01
         21   -1    0    0  501  502  0.00000000000E+00  0.00000000000E+00  0.10879961456E+03  0.10879961456E+03  0.00000000000E+00 0.  1.
         13   -1    0    0    0    0 -0.00000000000E+00 -0.00000000000E+00 -0.10000000000E+04  0.10000000000E+04  0.00000000000E+00 0.  1.
    9000005    2    1    2  501    0  0.10721728622E+02 -0.22435075041E+02 -0.90991506455E+03  0.10776784438E+04  0.57691170505E+03 0.  0.
         13    1    3    3    0    0  0.15243730868E+03 -0.25315820818E+03 -0.57943343534E+03  0.65043778906E+03  0.00000000000E+00 0.  1.
          1    1    3    3  501    0 -0.14171558006E+03  0.23072313314E+03 -0.33048162922E+03  0.42724065472E+03  0.00000000000E+00 0.  1.
         -3    1    1    2    0  502 -0.10721728622E+02  0.22435075041E+02  0.18714679112E+02  0.31121170785E+02  0.00000000000E+00 0. -1.
<mgrwt>
<rscale>  1 0.57744732E+03</rscale>
<asrwt>0</asrwt>
<pdfrwt beam="1">  1       21 0.16738402E-01 0.57744732E+03</pdfrwt>
<pdfrwt beam="2">0</pdfrwt>
<totfact> 0.31551580E+03</totfact>
</mgrwt>
</event>
<event>
 6    1  0.1347953E-004  0.6631080E+03  0.7818608E-02  0.9782489E-01
         21   -1    0    0  501  502  0.00000000000E+00  0.00000000000E+00  0.27580209107E+03  0.27580209107E+03  0.00000000000E+00 0. -1.
         13   -1    0    0    0    0 -0.00000000000E+00 -0.00000000000E+00 -0.10000000000E+04  0.10000000000E+04  0.00000000000E+00 0.  1.
    9000005    2    1    2  501    0  0.22880895921E+02 -0.36607847883E+02 -0.88694758178E+03  0.11074241651E+04  0.66170129122E+03 0.  0.
         13    1    3    3    0    0  0.24578033944E+03 -0.16909894493E+03 -0.16631668070E+03  0.34156063402E+03  0.00000000000E+00 0.  1.
          1    1    3    3  501    0 -0.22289944352E+03  0.13249109705E+03 -0.72063090108E+03  0.76586353113E+03  0.00000000000E+00 0.  1.
         -3    1    1    2    0  502 -0.22880895921E+02  0.36607847883E+02  0.16274967285E+03  0.16837792593E+03  0.00000000000E+00 0. -1.
<mgrwt>
<rscale>  1 0.66310804E+03</rscale>
<asrwt>0</asrwt>
<pdfrwt beam="1">  1       21 0.42431090E-01 0.66310804E+03</pdfrwt>
<pdfrwt beam="2">0</pdfrwt>
<totfact> 0.49883191E+02</totfact>
</mgrwt>
</event>
<event>
 6    1  0.1347953E-004  0.6509652E+03  0.7818608E-02  0.9804970E-01
         21   -1    0    0  501  502  0.00000000000E+00  0.00000000000E+00  0.17054900877E+03  0.17054900877E+03  0.00000000000E+00 0.  1.
         13   -1    0    0    0    0 -0.00000000000E+00 -0.00000000000E+00 -0.10000000000E+04  0.10000000000E+04  0.00000000000E+00 0.  1.
    9000005    2    1    2  501    0 -0.18849296628E+02 -0.11234659389E+02 -0.89199383751E+03  0.11042683843E+04  0.65059522358E+03 0.  0.
         13    1    3    3    0    0 -0.21074357028E+03 -0.21396586232E+03 -0.71034443010E+03  0.77122205105E+03  0.00000000000E+00 0.  1.
          1    1    3    3  501    0  0.19189427366E+03  0.20273120293E+03 -0.18164940741E+03  0.33304633328E+03  0.00000000000E+00 0.  1.
         -1    1    1    2    0  502  0.18849296628E+02  0.11234659389E+02  0.62542846278E+02  0.66280624435E+02  0.00000000000E+00 0. -1.
<mgrwt>
<rscale>  1 0.65096517E+03</rscale>
<asrwt>0</asrwt>
<pdfrwt beam="1">  1       21 0.26238308E-01 0.65096517E+03</pdfrwt>
<pdfrwt beam="2">0</pdfrwt>
<totfact> 0.13241250E+03</totfact>
</mgrwt>
</event>
<event>
 6    1  0.1347953E-004  0.6338378E+03  0.7818608E-02  0.9837588E-01
         21   -1    0    0  501  502  0.00000000000E+00  0.00000000000E+00  0.17711867419E+03  0.17711867419E+03  0.00000000000E+00 0.  1.
         13   -1    0    0    0    0 -0.00000000000E+00 -0.00000000000E+00 -0.10000000000E+04  0.10000000000E+04  0.00000000000E+00 0.  1.
    9000005    2    1    2  501    0  0.53646905744E+02 -0.22874343331E+02 -0.88716222312E+03  0.10903243205E+04  0.63114902171E+03 0.  0.
         13    1    3    3    0    0 -0.27785716570E+03 -0.95528117417E+02 -0.43626774110E+03  0.52598456981E+03  0.00000000000E+00 0.  1.
          1    1    3    3  501    0  0.33150407144E+03  0.72653774086E+02 -0.45089448201E+03  0.56433975066E+03  0.00000000000E+00 0.  1.
         -3    1    1    2    0  502 -0.53646905744E+02  0.22874343331E+02  0.64280897303E+02  0.86794353715E+02  0.00000000000E+00 0. -1.
<mgrwt>
<rscale>  1 0.63383777E+03</rscale>
<asrwt>0</asrwt>
<pdfrwt beam="1">  1       21 0.27249026E-01 0.63383777E+03</pdfrwt>
<pdfrwt beam="2">0</pdfrwt>
<totfact> 0.12301228E+03</totfact>
</mgrwt>
</event>
<event>
 6    1  0.1347953E-004  0.6821506E+03  0.7818608E-02  0.9748253E-01
         21   -1    0    0  501  502  0.00000000000E+00  0.00000000000E+00  0.22737533713E+03  0.22737533713E+03  0.00000000000E+00 0. -1.
         13   -1    0    0    0    0 -0.00000000000E+00 -0.00000000000E+00 -0.10000000000E+04  0.10000000000E+04  0.00000000000E+00 0.  1.
    9000005    2    1    2  501    0  0.20017918405E+03 -0.15299515061E+03 -0.66740257243E+03  0.95433521159E+03  0.63391661956E+03 0.  0.
         13    1    3    3    0    0 -0.86222666759E+01  0.11013285889E+03 -0.60208467689E+03  0.61213523689E+03  0.00000000000E+00 0.  1.
          1    1    3    3  501    0  0.20880145072E+03 -0.26312800950E+03 -0.65317895540E+02  0.34219997470E+03  0.00000000000E+00 0.  1.
         -3    1    1    2    0  502 -0.20017918405E+03  0.15299515061E+03 -0.10522209044E+03  0.27304012554E+03  0.00000000000E+00 0. -1.
<mgrwt>
<rscale>  1 0.68215064E+03</rscale>
<asrwt>0</asrwt>
<pdfrwt beam="1">  1       21 0.34980820E-01 0.68215064E+03</pdfrwt>
<pdfrwt beam="2">0</pdfrwt>
<totfact> 0.74238577E+02</totfact>
</mgrwt>
</event>
<event>
 6    1  0.1347953E-004  0.6631589E+03  0.7818608E-02  0.9782396E-01
         21   -1    0    0  501  502  0.00000000000E+00  0.00000000000E+00  0.18366991201E+03  0.18366991201E+03  0.00000000000E+00 0.  1.
         13   -1    0    0    0    0 -0.00000000000E+00 -0.00000000000E+00 -0.10000000000E+04  0.10000000000E+04  0.00000000000E+00 0.  1.
    9000005    2    1    2  501    0  0.13060482372E+02 -0.45793315816E+02 -0.88141257167E+03  0.11030266627E+04  0.66144696931E+03 0.  0.
         13    1    3    3    0    0 -0.16599543133E+02 -0.23878017195E+03 -0.44270613059E+02  0.24341610984E+03  0.00000000000E+00 0.  1.
          3    1    3    3  501    0  0.29660025505E+02  0.19298685614E+03 -0.83714195861E+03  0.85961055288E+03  0.00000000000E+00 0.  1.
         -3    1    1    2    0  502 -0.13060482372E+02  0.45793315816E+02  0.65082483679E+02  0.80643249284E+02  0.00000000000E+00 0. -1.
<mgrwt>
<rscale>  1 0.66315888E+03</rscale>
<asrwt>0</asrwt>
<pdfrwt beam="1">  1       21 0.28256909E-01 0.66315888E+03</pdfrwt>
<pdfrwt beam="2">0</pdfrwt>
<totfact> 0.11426350E+03</totfact>
</mgrwt>
</event>
<event>
 6    1  0.1347953E-004  0.6508613E+03  0.7818608E-02  0.9805164E-01
         21   -1    0    0  501  502  0.00000000000E+00  0.00000000000E+00  0.15672143121E+03  0.15672143121E+03  0.00000000000E+00 0.  1.
         13   -1    0    0    0    0 -0.00000000000E+00 -0.00000000000E+00 -0.10000000000E+04  0.10000000000E+04  0.00000000000E+00 0.  1.
    9000005    2    1    2  501    0  0.59998662441E+01 -0.31477538532E+02 -0.88844503044E+03  0.11013423459E+04  0.65007196297E+03 0.  0.
         13    1    3    3    0    0 -0.28464291077E+03  0.61617921630E+02 -0.65590744297E+03  0.71765794684E+03  0.00000000000E+00 0.  1.
          1    1    3    3  501    0  0.29064277701E+03 -0.93095460162E+02 -0.23253758747E+03  0.38368439911E+03  0.00000000000E+00 0.  1.
         -3    1    1    2    0  502 -0.59998662441E+01  0.31477538532E+02  0.45166461650E+02  0.55379085266E+02  0.00000000000E+00 0. -1.
<mgrwt>
<rscale>  1 0.65086127E+03</rscale>
<asrwt>0</asrwt>
<pdfrwt beam="1">  1       21 0.24110989E-01 0.65086127E+03</pdfrwt>
<pdfrwt beam="2">0</pdfrwt>
<totfact> 0.15630080E+03</totfact>
</mgrwt>
</event>
<event>
 6    1  0.1347953E-004  0.6919171E+03  0.7818608E-02  0.9731156E-01
         21   -1    0    0  501  502  0.00000000000E+00  0.00000000000E+00  0.24333797219E+03  0.24333797219E+03  0.00000000000E+00 0.  1.
         13   -1    0    0    0    0 -0.00000000000E+00 -0.00000000000E+00 -0.10000000000E+04  0.10000000000E+04  0.00000000000E+00 0.  1.
    9000005    2    1    2  501    0  0.21106382894E+03  0.72724223381E+02 -0.74940442158E+03  0.10199785636E+04  0.65491413986E+03 0.  0.
         13    1    3    3    0    0 -0.15657723333E+03 -0.13004258832E+03 -0.47935802165E+03  0.52077981691E+03  0.00000000000E+00 0.  1.
          3    1    3    3  501    0  0.36764106227E+03  0.20276681170E+03 -0.27004639992E+03  0.49919874670E+03  0.00000000000E+00 0.  1.
         -1    1    1    2    0  502 -0.21106382894E+03 -0.72724223381E+02 -0.72576062310E+01  0.22335940858E+03  0.00000000000E+00 0. -1.
<mgrwt>
<rscale>  1 0.69191711E+03</rscale>
<asrwt>0</asrwt>
<pdfrwt beam="1">  1       21 0.37436610E-01 0.69191711E+03</pdfrwt>
<pdfrwt beam="2">0</pdfrwt>
<totfact> 0.64554683E+02</totfact>
</mgrwt>
</event>
<event>
 6    1  0.1347953E-004  0.6707234E+03  0.7818608E-02  0.9768652E-01
         21   -1    0    0  501  502  0.00000000000E+00  0.00000000000E+00  0.14067303115E+03  0.14067303115E+03  0.00000000000E+00 0.  1.
         13   -1    0    0    0    0 -0.00000000000E+00 -0.00000000000E+00 -0.10000000000E+04  0.10000000000E+04  0.00000000000E+00 0.  1.
    9000005    2    1    2  501    0  0.69871726526E+02  0.29548072045E+02 -0.80250817679E+03  0.10458915886E+04  0.66641930829E+03 0.  0.
         13    1    3    3    0    0  0.15741226103E+03 -0.12200545152E+02 -0.89681922717E+03  0.91061089355E+03  0.00000000000E+00 0.  1.
          1    1    3    3  501    0 -0.87540534500E+02  0.41748617197E+02  0.94311050379E+02  0.13528069501E+03  0.00000000000E+00 0.  1.
         -1    1    1    2    0  502 -0.69871726526E+02 -0.29548072045E+02 -0.56818792055E+02  0.94781442592E+02  0.00000000000E+00 0. -1.
<mgrwt>
<rscale>  1 0.67072337E+03</rscale>
<asrwt>0</asrwt>
<pdfrwt beam="1">  1       21 0.21642004E-01 0.67072337E+03</pdfrwt>
<pdfrwt beam="2">0</pdfrwt>
<totfact> 0.19263083E+03</totfact>
</mgrwt>
</event>
<event>
 6    1  0.1347953E-004  0.6246010E+03  0.7818608E-02  0.9855642E-01
         21   -1    0    0  501  502  0.00000000000E+00  0.00000000000E+00  0.13454565616E+03  0.13454565616E+03  0.00000000000E+00 0.  1.
         13   -1    0    0    0    0 -0.00000000000E+00 -0.00000000000E+00 -0.10000000000E+04  0.10000000000E+04  0.00000000000E+00 0.  1.
    9000005    2    1    2  501    0 -0.46646225598E+02 -0.77468904965E+02 -0.82678816833E+03  0.10361974242E+04  0.61802032738E+03 0.  0.
         13    1    3    3    0    0  0.88676891637E+02  0.21710503466E+03 -0.13106117347E+03  0.26865445907E+03  0.00000000000E+00 0.  1.
          1    1    3    3  501    0 -0.13532311723E+03 -0.29457393963E+03 -0.69572699486E+03  0.76754296514E+03  0.00000000000E+00 0.  1.
         -1    1    1    2    0  502  0.46646225598E+02  0.77468904965E+02 -0.38666175508E+02  0.98348231949E+02  0.00000000000E+00 0. -1.
<mgrwt>
<rscale>  1 0.62460101E+03</rscale>
<asrwt>0</asrwt>
<pdfrwt beam="1">  1       21 0.20699331E-01 0.62460101E+03</pdfrwt>
<pdfrwt beam="2">0</pdfrwt>
<totfact> 0.21031264E+03</totfact>
</mgrwt>
</event>
<event>
 6    1  0.1347953E-004  0.6353412E+03  0.7818608E-02  0.9834681E-01
         21   -1    0    0  501  502  0.00000000000E+00  0.00000000000E+00  0.12561478283E+03  0.12561478283E+03  0.00000000000E+00 0.  1.
         13   -1    0    0    0    0 -0.00000000000E+00 -0.00000000000E+00 -0.10000000000E+04  0.10000000000E+04  0.00000000000E+00 0.  1.
    9000005    2    1    2  501    0  0.24855266283E+02 -0.89576432674E+01 -0.89106174532E+03  0.10943717000E+04  0.63479158793E+03 0.  0.
         13    1    3    3    0    0 -0.20382509371E+03 -0.19568900955E+03 -0.20992904233E+03  0.35200718757E+03  0.00000000000E+00 0.  1.
          3    1    3    3  501    0  0.22868036000E+03  0.18673136628E+03 -0.68113270299E+03  0.74236451241E+03  0.00000000000E+00 0.  1.
         -3    1    1    2    0  502 -0.24855266283E+02  0.89576432674E+01  0.16676528157E+02  0.31243082855E+02  0.00000000000E+00 0. -1.
<mgrwt>
<rscale>  1 0.63534116E+03</rscale>
<asrwt>0</asrwt>
<pdfrwt beam="1">  1       21 0.19325351E-01 0.63534116E+03</pdfrwt>
<pdfrwt beam="2">0</pdfrwt>
<totfact> 0.23979659E+03</totfact>
</mgrwt>
</event>
<event>
 6    1  0.1347953E-004  0.6552924E+03  0.7818608E-02  0.9796899E-01
         21   -1    0    0  501  502  0.00000000000E+00  0.00000000000E+00  0.15436461089E+03  0.15436461089E+03  0.00000000000E+00 0.  1.
         13   -1    0    0    0    0 -0.00000000000E+00 -0.00000000000E+00 -0.10000000000E+04  0.10000000000E+04  0.00000000000E+00 0.  1.
    9000005    2    1    2  501    0 -0.37883260276E+02 -0.39567104451E+02 -0.87423977651E+03  0.10925672959E+04  0.65299878409E+03 0.  0.
         13    1    3    3    0    0 -0.73966524953E+02 -0.17512092205E+03  0.16531863249E+02  0.19081846519E+03  0.00000000000E+00 0.  1.
          1    1    3    3  501    0  0.36083264677E+02  0.13555381760E+03 -0.89077163976E+03  0.90174883069E+03  0.00000000000E+00 0.  1.
         -3    1    1    2    0  502  0.37883260276E+02  0.39567104451E+02  0.28604387400E+02  0.61797315009E+02  0.00000000000E+00 0. -1.
<mgrwt>
<rscale>  1 0.65529238E+03</rscale>
<asrwt>0</asrwt>
<pdfrwt beam="1">  1       21 0.23748401E-01 0.65529238E+03</pdfrwt>
<pdfrwt beam="2">0</pdfrwt>
<totfact> 0.16095675E+03</totfact>
</mgrwt>
</event>
<event>
 6    1  0.1347953E-004  0.6503636E+03  0.7818608E-02  0.9806097E-01
         21   -1    0    0  501  502  0.00000000000E+00  0.00000000000E+00  0.18390197683E+03  0.18390197683E+03  0.00000000000E+00 0.  1.
         13   -1    0    0    0    0 -0.00000000000E+00 -0.00000000000E+00 -0.10000000000E+04  0.10000000000E+04  0.00000000000E+00 0.  1.
    9000005    2    1    2  501    0 -0.16751332297E+02  0.17924601226E+02 -0.89212199778E+03  0.11040174153E+04  0.64990068150E+03 0.  0.
         13    1    3    3    0    0  0.19092223958E+03  0.16069334893E+03 -0.79615731980E+03  0.83435012544E+03  0.00000000000E+00 0.  1.
          3    1    3    3  501    0 -0.20767357188E+03 -0.14276874770E+03 -0.95964677981E+02  0.26966728982E+03  0.00000000000E+00 0.  1.
         -3    1    1    2    0  502  0.16751332297E+02 -0.17924601226E+02  0.76023974606E+02  0.79884561573E+02  0.00000000000E+00 0. -1.
<mgrwt>
<rscale>  1 0.65036359E+03</rscale>
<asrwt>0</asrwt>
<pdfrwt beam="1">  1       21 0.28292611E-01 0.65036359E+03</pdfrwt>
<pdfrwt beam="2">0</pdfrwt>
<totfact> 0.11406268E+03</totfact>
</mgrwt>
</event>
<event>
 6    1  0.1347953E-004  0.6560168E+03  0.7818608E-02  0.9795554E-01
         21   -1    0    0  501  502  0.00000000000E+00  0.00000000000E+00  0.13993044880E+03  0.13993044880E+03  0.00000000000E+00 0.  1.
         13   -1    0    0    0    0 -0.00000000000E+00 -0.00000000000E+00 -0.10000000000E+04  0.10000000000E+04  0.00000000000E+00 0.  1.
    9000005    2    1    2  501    0  0.32063001379E+01 -0.26017933888E+02 -0.88641508724E+03  0.11027645974E+04  0.65549281997E+03 0.  0.
         13    1    3    3    0    0  0.29011403711E+03  0.87381408357E+02 -0.63939428716E+03  0.70754980002E+03  0.00000000000E+00 0.  1.
          1    1    3    3  501    0 -0.28690773697E+03 -0.11339934225E+03 -0.24702080009E+03  0.39521479734E+03  0.00000000000E+00 0.  1.
         -3    1    1    2    0  502 -0.32063001379E+01  0.26017933888E+02  0.26345536040E+02  0.37165851445E+02  0.00000000000E+00 0. -1.
<mgrwt>
<rscale>  1 0.65601681E+03</rscale>
<asrwt>0</asrwt>
<pdfrwt beam="1">  1       21 0.21527761E-01 0.65601681E+03</pdfrwt>
<pdfrwt beam="2">0</pdfrwt>
<totfact> 0.19473338E+03</totfact>
</mgrwt>
</event>
<event>
 6    1  0.1347953E-004  0.6527373E+03  0.7818608E-02  0.9801656E-01
         21   -1    0    0  501  502  0.00000000000E+00  0.00000000000E+00  0.22884573125E+03  0.22884573125E+03  0.00000000000E+00 0. -1.
         13   -1    0    0    0    0 -0.00000000000E+00 -0.00000000000E+00 -0.10000000000E+04  0.10000000000E+04  0.00000000000E+00 0.  1.
    9000005    2    1    2  501    0  0.46874374776E+02 -0.88223787559E+02 -0.87044188994E+03  0.10879958984E+04  0.64504677924E+03 0.  0.
         13    1    3    3    0    0 -0.11901011327E+03 -0.26123575179E+03 -0.14029920066E+03  0.31951743423E+03  0.00000000000E+00 0.  1.
          1    1    3    3  501    0  0.16588448804E+03  0.17301196423E+03 -0.73014268928E+03  0.76847846414E+03  0.00000000000E+00 0.  1.
         -3    1    1    2    0  502 -0.46874374776E+02  0.88223787559E+02  0.99287621191E+02  0.14084983289E+03  0.00000000000E+00 0. -1.
<mgrwt>
<rscale>  1 0.65273731E+03</rscale>
<asrwt>0</asrwt>
<pdfrwt beam="1">  1       21 0.35207035E-01 0.65273731E+03</pdfrwt>
<pdfrwt beam="2">0</pdfrwt>
<totfact> 0.73421099E+02</totfact>
</mgrwt>
</event>
<event>
 6    1  0.1347953E-004  0.6466380E+03  0.7818608E-02  0.9813108E-01
         21   -1    0    0  501  502  0.00000000000E+00  0.00000000000E+00  0.12851281136E+03  0.12851281136E+03  0.00000000000E+00 0.  1.
         13   -1    0    0    0    0 -0.00000000000E+00 -0.00000000000E+00 -0.10000000000E+04  0.10000000000E+04  0.00000000000E+00 0.  1.
    9000005    2    1    2  501    0  0.52922961635E+01 -0.53326596127E+02 -0.85588826009E+03  0.10727000814E+04  0.64441369992E+03 0.  0.
         13    1    3    3    0    0 -0.20103182402E+02  0.62747891343E+02 -0.93021636483E+03  0.93254700750E+03  0.00000000000E+00 0.  1.
          3    1    3    3  501    0  0.25395478566E+02 -0.11607448747E+03  0.74328104732E+02  0.14015307391E+03  0.00000000000E+00 0.  1.
         -1    1    1    2    0  502 -0.52922961635E+01  0.53326596127E+02 -0.15598928541E+02  0.55812729953E+02  0.00000000000E+00 0. -1.
<mgrwt>
<rscale>  1 0.64663804E+03</rscale>
<asrwt>0</asrwt>
<pdfrwt beam="1">  1       21 0.19771201E-01 0.64663804E+03</pdfrwt>
<pdfrwt beam="2">0</pdfrwt>
<totfact> 0.22945905E+03</totfact>
</mgrwt>
</event>
<event>
 6    1  0.1347953E-004  0.7117793E+03  0.7818608E-02  0.9697297E-01
         21   -1    0    0  501  502  0.00000000000E+00  0.00000000000E+00  0.27817681739E+03  0.27817681739E+03  0.00000000000E+00 0.  1.
         13   -1    0    0    0    0 -0.00000000000E+00 -0.00000000000E+00 -0.10000000000E+04  0.10000000000E+04  0.00000000000E+00 0.  1.
    9000005    2    1    2  501    0 -0.27364468166E+03  0.18278701122E+03 -0.58679202321E+03  0.92247199977E+03  0.63113961100E+03 0.  0.
         13    1    3    3    0    0  0.17050219781E+03  0.11706963800E+03 -0.37001733229E+03  0.42389754162E+03  0.00000000000E+00 0.  1.
          1    1    3    3  501    0 -0.44414687947E+03  0.65717373224E+02 -0.21677469093E+03  0.49857445815E+03  0.00000000000E+00 0.  1.
         -1    1    1    2    0  502  0.27364468166E+03 -0.18278701122E+03 -0.13503115940E+03  0.35570481762E+03  0.00000000000E+00 0. -1.
<mgrwt>
<rscale>  1 0.71177926E+03</rscale>
<asrwt>0</asrwt>
<pdfrwt beam="1">  1       21 0.42796432E-01 0.71177926E+03</pdfrwt>
<pdfrwt beam="2">0</pdfrwt>
<totfact> 0.48802462E+02</totfact>
</mgrwt>
</event>
<event>
 6    1  0.1347953E-004  0.5488332E+03  0.7818608E-02  0.1001764E+00
         21   -1    0    0  501  502  0.00000000000E+00  0.00000000000E+00  0.84491178218E+02  0.84491178218E+02  0.00000000000E+00 0.  1.
         13   -1    0    0    0    0 -0.00000000000E+00 -0.00000000000E+00 -0.10000000000E+04  0.10000000000E+04  0.00000000000E+00 0.  1.
    9000005    2    1    2  501    0 -0.19198266562E+02  0.15474759273E+02 -0.90333340523E+03  0.10569905895E+04  0.54827896513E+03 0.  0.
         13    1    3    3    0    0  0.41973768288E+02  0.10652406467E+03  0.29093525472E+02  0.11813385121E+03  0.00000000000E+00 0.  1.
          1    1    3    3  501    0 -0.61172034850E+02 -0.91049305397E+02 -0.93242693070E+03  0.93885673825E+03  0.00000000000E+00 0.  1.
         -1    1    1    2    0  502  0.19198266562E+02 -0.15474759273E+02 -0.12175416553E+02  0.27500588753E+02  0.00000000000E+00 0. -1.
<mgrwt>
<rscale>  1 0.54883319E+03</rscale>
<asrwt>0</asrwt>
<pdfrwt beam="1">  1       21 0.12998642E-01 0.54883319E+03</pdfrwt>
<pdfrwt beam="2">0</pdfrwt>
<totfact> 0.50547320E+03</totfact>
</mgrwt>
</event>
<event>
 6    1  0.1347953E-004  0.6546690E+03  0.7818608E-02  0.9798057E-01
         21   -1    0    0  501  502  0.00000000000E+00  0.00000000000E+00  0.14994838904E+03  0.14994838904E+03  0.00000000000E+00 0.  1.
         13   -1    0    0    0    0 -0.00000000000E+00 -0.00000000000E+00 -0.10000000000E+04  0.10000000000E+04  0.00000000000E+00 0.  1.
    9000005    2    1    2  501    0  0.46886633842E+02 -0.90290484676E+01 -0.87755240471E+03  0.10948469026E+04  0.65292544521E+03 0.  0.
         13    1    3    3    0    0  0.24766780888E+02  0.30361991171E+03 -0.25272590744E+03  0.39581413380E+03  0.00000000000E+00 0.  1.
          3    1    3    3  501    0  0.22119852954E+02 -0.31264896017E+03 -0.62482649727E+03  0.69903276882E+03  0.00000000000E+00 0.  1.
         -3    1    1    2    0  502 -0.46886633842E+02  0.90290484676E+01  0.27500793751E+02  0.55101486425E+02  0.00000000000E+00 0. -1.
<mgrwt>
<rscale>  1 0.65466901E+03</rscale>
<asrwt>0</asrwt>
<pdfrwt beam="1">  1       21 0.23068982E-01 0.65466901E+03</pdfrwt>
<pdfrwt beam="2">0</pdfrwt>
<totfact> 0.17032199E+03</totfact>
</mgrwt>
</event>
<event>
 6    1  0.1347953E-004  0.6577759E+03  0.7818608E-02  0.9792297E-01
         21   -1    0    0  501  502  0.00000000000E+00  0.00000000000E+00  0.11863010618E+03  0.11863010618E+03  0.00000000000E+00 0.  1.
         13   -1    0    0    0    0 -0.00000000000E+00 -0.00000000000E+00 -0.10000000000E+04  0.10000000000E+04  0.00000000000E+00 0.  1.
    9000005    2    1    2  501    0  0.30925789161E+02 -0.29865922027E+01 -0.84042900637E+03  0.10672347714E+04  0.65704171743E+03 0.  0.
         13    1    3    3    0    0 -0.27699357747E+03  0.14619274614E+03 -0.35612997902E+03  0.47426398023E+03  0.00000000000E+00 0.  1.
          3    1    3    3  501    0  0.30791936663E+03 -0.14917933834E+03 -0.48429902735E+03  0.59297079121E+03  0.00000000000E+00 0.  1.
         -3    1    1    2    0  502 -0.30925789161E+02  0.29865922027E+01 -0.40940887448E+02  0.51395334742E+02  0.00000000000E+00 0. -1.
<mgrwt>
<rscale>  1 0.65777591E+03</rscale>
<asrwt>0</asrwt>
<pdfrwt beam="1">  1       21 0.18250785E-01 0.65777591E+03</pdfrwt>
<pdfrwt beam="2">0</pdfrwt>
<totfact> 0.26720045E+03</totfact>
</mgrwt>
</event>
<event>
 6    1  0.1347953E-004  0.6374606E+03  0.7818608E-02  0.9830597E-01
         21   -1    0    0  501  502  0.00000000000E+00  0.00000000000E+00  0.11799013185E+03  0.11799013185E+03  0.00000000000E+00 0.  1.
         13   -1    0    0    0    0 -0.00000000000E+00 -0.00000000000E+00 -0.10000000000E+04  0.10000000000E+04  0.00000000000E+00 0.  1.
    9000005    2    1    2  501    0 -0.13255001056E+01  0.26027245038E+02 -0.88613953578E+03  0.10916039880E+04  0.63692763734E+03 0.  0.
         13    1    3    3    0    0  0.25877654445E+03 -0.37894291660E+02 -0.74347981937E+03  0.78813927646E+03  0.00000000000E+00 0.  1.
          3    1    3    3  501    0 -0.26010204455E+03  0.63921536698E+02 -0.14265971641E+03  0.30346471149E+03  0.00000000000E+00 0.  1.
         -1    1    1    2    0  502  0.13255001056E+01 -0.26027245038E+02  0.41296676264E+01  0.26386143892E+02  0.00000000000E+00 0. -1.
<mgrwt>
<rscale>  1 0.63746058E+03</rscale>
<asrwt>0</asrwt>
<pdfrwt beam="1">  1       21 0.18152327E-01 0.63746058E+03</pdfrwt>
<pdfrwt beam="2">0</pdfrwt>
<totfact> 0.27014636E+03</totfact>
</mgrwt>
</event>
<event>
 6    1  0.1347953E-004  0.6556992E+03  0.7818608E-02  0.9796143E-01
         21   -1    0    0  501  502  0.00000000000E+00  0.00000000000E+00  0.44535695327E+03  0.44535695327E+03  0.00000000000E+00 0. -1.
         13   -1    0    0    0    0 -0.00000000000E+00 -0.00000000000E+00 -0.10000000000E+04  0.10000000000E+04  0.00000000000E+00 0.  1.
    9000005    2    1    2  501    0  0.65702883173E+02 -0.65947755449E+02 -0.88539413594E+03  0.11017550640E+04  0.64905737017E+03 0.  0.
         13    1    3    3    0    0 -0.27279240898E+03 -0.19065999332E+02 -0.20985091671E+03  0.34469786476E+03  0.00000000000E+00 0.  1.
          1    1    3    3  501    0  0.33849529215E+03 -0.46881756117E+02 -0.67554321922E+03  0.75705719923E+03  0.00000000000E+00 0.  1.
         -1    1    1    2    0  502 -0.65702883173E+02  0.65947755449E+02  0.33075108921E+03  0.34360188929E+03  0.00000000000E+00 0. -1.
<mgrwt>
<rscale>  1 0.65569920E+03</rscale>
<asrwt>0</asrwt>
<pdfrwt beam="1">  1       21 0.68516452E-01 0.65569920E+03</pdfrwt>
<pdfrwt beam="2">0</pdfrwt>
<totfact> 0.17621346E+02</totfact>
</mgrwt>
</event>
<event>
 6    1  0.1347953E-004  0.5742128E+03  0.7818608E-02  0.9960399E-01
         21   -1    0    0  501  502  0.00000000000E+00  0.00000000000E+00  0.19037067456E+03  0.19037067456E+03  0.00000000000E+00 0. -1.
         13   -1    0    0    0    0 -0.00000000000E+00 -0.00000000000E+00 -0.10000000000E+04  0.10000000000E+04  0.00000000000E+00 0.  1.
    9000005    2    1    2  501    0  0.25055105639E+03 -0.56508621555E+02 -0.71411628802E+03  0.91634185037E+03  0.51356718913E+03 0.  0.
         13    1    3    3    0    0  0.33663365025E+03 -0.21102775481E+03 -0.49795761843E+03  0.63703745379E+03  0.00000000000E+00 0.  1.
          1    1    3    3  501    0 -0.86082593859E+02  0.15451913326E+03 -0.21615866959E+03  0.27930439658E+03  0.00000000000E+00 0.  1.
         -1    1    1    2    0  502 -0.25055105639E+03  0.56508621555E+02 -0.95513037421E+02  0.27402882419E+03  0.00000000000E+00 0. -1.
<mgrwt>
<rscale>  1 0.57421278E+03</rscale>
<asrwt>0</asrwt>
<pdfrwt beam="1">  1       21 0.29287795E-01 0.57421278E+03</pdfrwt>
<pdfrwt beam="2">0</pdfrwt>
<totfact> 0.10700101E+03</totfact>
</mgrwt>
</event>
<event>
 6    1  0.1347953E-004  0.6516706E+03  0.7818608E-02  0.9803650E-01
         21   -1    0    0  501  502  0.00000000000E+00  0.00000000000E+00  0.12728724423E+03  0.12728724423E+03  0.00000000000E+00 0.  1.
         13   -1    0    0    0    0 -0.00000000000E+00 -0.00000000000E+00 -0.10000000000E+04  0.10000000000E+04  0.00000000000E+00 0.  1.
    9000005    2    1    2  501    0  0.40071739523E+02 -0.41959024810E+02 -0.82989878918E+03  0.10551807965E+04  0.64908259021E+03 0.  0.
         13    1    3    3    0    0 -0.25815075450E+03  0.82617753914E+02 -0.16881208886E+03  0.31931963086E+03  0.00000000000E+00 0.  1.
          3    1    3    3  501    0  0.29822249402E+03 -0.12457677872E+03 -0.66108670031E+03  0.73586116562E+03  0.00000000000E+00 0.  1.
         -3    1    1    2    0  502 -0.40071739523E+02  0.41959024810E+02 -0.42813966589E+02  0.72106447746E+02  0.00000000000E+00 0. -1.
<mgrwt>
<rscale>  1 0.65167056E+03</rscale>
<asrwt>0</asrwt>
<pdfrwt beam="1">  1       21 0.19582652E-01 0.65167056E+03</pdfrwt>
<pdfrwt beam="2">0</pdfrwt>
<totfact> 0.23366261E+03</totfact>
</mgrwt>
</event>
<event>
 6    1  0.1347953E-004  0.6461259E+03  0.7818608E-02  0.9814076E-01
         21   -1    0    0  501  502  0.00000000000E+00  0.00000000000E+00  0.12648582097E+03  0.12648582097E+03  0.00000000000E+00 0.  1.
         13   -1    0    0    0    0 -0.00000000000E+00 -0.00000000000E+00 -0.10000000000E+04  0.10000000000E+04  0.00000000000E+00 0.  1.
    9000005    2    1    2  501    0 -0.73032706309E+01 -0.26121979184E+02 -0.88604258380E+03  0.10966084636E+04  0.64555632328E+03 0.  0.
         13    1    3    3    0    0  0.50742966926E+02 -0.45400629930E+02 -0.98116171262E+03  0.98352141421E+03  0.00000000000E+00 0.  1.
          1    1    3    3  501    0 -0.58046237557E+02  0.19278650747E+02  0.95119128816E+02  0.11308704937E+03  0.00000000000E+00 0.  1.
         -1    1    1    2    0  502  0.73032706309E+01  0.26121979184E+02  0.12528404769E+02  0.29877357387E+02  0.00000000000E+00 0. -1.
<mgrwt>
<rscale>  1 0.64612589E+03</rscale>
<asrwt>0</asrwt>
<pdfrwt beam="1">  1       21 0.19459357E-01 0.64612589E+03</pdfrwt>
<pdfrwt beam="2">0</pdfrwt>
<totfact> 0.23655297E+03</totfact>
</mgrwt>
</event>
<event>
 6    1  0.1347953E-004  0.6578890E+03  0.7818608E-02  0.9792088E-01
         21   -1    0    0  501  502  0.00000000000E+00  0.00000000000E+00  0.16488005953E+03  0.16488005953E+03  0.00000000000E+00 0.  1.
         13   -1    0    0    0    0 -0.00000000000E+00 -0.00000000000E+00 -0.10000000000E+04  0.10000000000E+04  0.00000000000E+00 0.  1.
    9000005    2    1    2  501    0 -0.54286640715E+02  0.10589252320E+03 -0.80955682671E+03  0.10431683567E+04  0.64703763325E+03 0.  0.
         13    1    3    3    0    0 -0.27211077207E+03  0.21841144548E+03 -0.68368306030E+03  0.76757433434E+03  0.00000000000E+00 0.  1.
          1    1    3    3  501    0  0.21782413136E+03 -0.11251892228E+03 -0.12587376641E+03  0.27559402233E+03  0.00000000000E+00 0.  1.
         -1    1    1    2    0  502  0.54286640715E+02 -0.10589252320E+03 -0.25563113759E+02  0.12171170287E+03  0.00000000000E+00 0. -1.
<mgrwt>
<rscale>  1 0.65788902E+03</rscale>
<asrwt>0</asrwt>
<pdfrwt beam="1">  1       21 0.25366162E-01 0.65788902E+03</pdfrwt>
<pdfrwt beam="2">0</pdfrwt>
<totfact> 0.14146367E+03</totfact>
</mgrwt>
</event>
<event>
 6    1  0.1347953E-004  0.7106599E+03  0.7818608E-02  0.9699174E-01
         21   -1    0    0  501  502  0.00000000000E+00  0.00000000000E+00  0.26178207002E+03  0.26178207002E+03  0.00000000000E+00 0.  1.
         13   -1    0    0    0    0 -0.00000000000E+00 -0.00000000000E+00 -0.10000000000E+04  0.10000000000E+04  0.00000000000E+00 0.  1.
    9000005    2    1    2  501    0 -0.28334766452E+03 -0.13141134890E+02 -0.65425410411E+03  0.96596369252E+03  0.65159714097E+03 0.  0.
         13    1    3    3    0    0  0.68947394860E+02  0.25729280567E+03 -0.23524829948E+03  0.35538020980E+03  0.00000000000E+00 0.  1.
          3    1    3    3  501    0 -0.35229505938E+03 -0.27043394056E+03 -0.41900580463E+03  0.61058348272E+03  0.00000000000E+00 0.  1.
         -3    1    1    2    0  502  0.28334766452E+03  0.13141134890E+02 -0.83963825870E+02  0.29581837750E+03  0.00000000000E+00 0. -1.
<mgrwt>
<rscale>  1 0.71065985E+03</rscale>
<asrwt>0</asrwt>
<pdfrwt beam="1">  1       21 0.40274163E-01 0.71065985E+03</pdfrwt>
<pdfrwt beam="2">0</pdfrwt>
<totfact> 0.55417405E+02</totfact>
</mgrwt>
</event>
<event>
 6    1  0.1347953E-004  0.6335900E+03  0.7818608E-02  0.9838068E-01
         21   -1    0    0  501  502  0.00000000000E+00  0.00000000000E+00  0.12541903978E+03  0.12541903978E+03  0.00000000000E+00 0.  1.
         13   -1    0    0    0    0 -0.00000000000E+00 -0.00000000000E+00 -0.10000000000E+04  0.10000000000E+04  0.00000000000E+00 0.  1.
    9000005    2    1    2  501    0 -0.10263013634E+02 -0.42640780446E+02 -0.87649673860E+03  0.10815187458E+04  0.63207016945E+03 0.  0.
         13    1    3    3    0    0 -0.89471508316E+01 -0.20500938963E+03 -0.89488111868E+03  0.91810735642E+03  0.00000000000E+00 0.  1.
          1    1    3    3  501    0 -0.13158628029E+01  0.16236860919E+03  0.18384380077E+02  0.16341138937E+03  0.00000000000E+00 0.  1.
         -1    1    1    2    0  502  0.10263013634E+02  0.42640780446E+02  0.19157783787E+01  0.43900293994E+02  0.00000000000E+00 0. -1.
<mgrwt>
<rscale>  1 0.63358998E+03</rscale>
<asrwt>0</asrwt>
<pdfrwt beam="1">  1       21 0.19295236E-01 0.63358998E+03</pdfrwt>
<pdfrwt beam="2">0</pdfrwt>
<totfact> 0.24052813E+03</totfact>
</mgrwt>
</event>
<event>
 6    1  0.1347953E-004  0.6933124E+03  0.7818608E-02  0.9728738E-01
         21   -1    0    0  501  502  0.00000000000E+00  0.00000000000E+00  0.39383195667E+03  0.39383195667E+03  0.00000000000E+00 0. -1.
         13   -1    0    0    0    0 -0.00000000000E+00 -0.00000000000E+00 -0.10000000000E+04  0.10000000000E+04  0.00000000000E+00 0.  1.
    9000005    2    1    2  501    0  0.38915181481E+02  0.21275500033E+03 -0.83074262127E+03  0.10820422478E+04  0.65871317100E+03 0.  0.
         13    1    3    3    0    0  0.33424281438E+03  0.16430785798E+03 -0.59106459795E+03  0.69862199372E+03  0.00000000000E+00 0.  1.
          1    1    3    3  501    0 -0.29532763290E+03  0.48447142357E+02 -0.23967802332E+03  0.38342025405E+03  0.00000000000E+00 0.  1.
         -1    1    1    2    0  502 -0.38915181481E+02 -0.21275500033E+03  0.22457457794E+03  0.31178970889E+03  0.00000000000E+00 0. -1.
<mgrwt>
<rscale>  1 0.69331243E+03</rscale>
<asrwt>0</asrwt>
<pdfrwt beam="1">  1       21 0.60589530E-01 0.69331243E+03</pdfrwt>
<pdfrwt beam="2">0</pdfrwt>
<totfact> 0.23109953E+02</totfact>
</mgrwt>
</event>
<event>
 6    1  0.1347953E-004  0.6414864E+03  0.7818608E-02  0.9822887E-01
         21   -1    0    0  501  502  0.00000000000E+00  0.00000000000E+00  0.11617288333E+03  0.11617288333E+03  0.00000000000E+00 0.  1.
         13   -1    0    0    0    0 -0.00000000000E+00 -0.00000000000E+00 -0.10000000000E+04  0.10000000000E+04  0.00000000000E+00 0.  1.
    9000005    2    1    2  501    0 -0.19833643981E+02  0.75217676134E+01 -0.88707078868E+03  0.10947142760E+04  0.64113556402E+03 0.  0.
         13    1    3    3    0    0  0.42536449064E+02  0.80487437439E+02 -0.96609864376E+03  0.97037836258E+03  0.00000000000E+00 0.  1.
          3    1    3    3  501    0 -0.62370093045E+02 -0.72965669826E+02  0.79027855078E+02  0.12433591339E+03  0.00000000000E+00 0.  1.
         -1    1    1    2    0  502  0.19833643981E+02 -0.75217676134E+01  0.32436720098E+01  0.21458607357E+02  0.00000000000E+00 0. -1.
<mgrwt>
<rscale>  1 0.64148637E+03</rscale>
<asrwt>0</asrwt>
<pdfrwt beam="1">  1       21 0.17872751E-01 0.64148637E+03</pdfrwt>
<pdfrwt beam="2">0</pdfrwt>
<totfact> 0.27818128E+03</totfact>
</mgrwt>
</event>
<event>
 6    1  0.1347953E-004  0.6543516E+03  0.7818608E-02  0.9798648E-01
         21   -1    0    0  501  502  0.00000000000E+00  0.00000000000E+00  0.19063442613E+03  0.19063442613E+03  0.00000000000E+00 0. -1.
         13   -1    0    0    0    0 -0.00000000000E+00 -0.00000000000E+00 -0.10000000000E+04  0.10000000000E+04  0.00000000000E+00 0.  1.
    9000005    2    1    2  501    0 -0.21089400362E+02  0.17090421846E+02 -0.89050891050E+03  0.11050710788E+04  0.65378828697E+03 0.  0.
         13    1    3    3    0    0  0.13208114964E+03 -0.59237569516E+02  0.46903131253E+02  0.15216577622E+03  0.00000000000E+00 0.  1.
          3    1    3    3  501    0 -0.15317055000E+03  0.76327991362E+02 -0.93741204176E+03  0.95290530258E+03  0.00000000000E+00 0.  1.
         -1    1    1    2    0  502  0.21089400362E+02 -0.17090421846E+02  0.81143336633E+02  0.85563347330E+02  0.00000000000E+00 0. -1.
<mgrwt>
<rscale>  1 0.65435156E+03</rscale>
<asrwt>0</asrwt>
<pdfrwt beam="1">  1       21 0.29328372E-01 0.65435156E+03</pdfrwt>
<pdfrwt beam="2">0</pdfrwt>
<totfact> 0.10615048E+03</totfact>
</mgrwt>
</event>
<event>
 6    1  0.1347953E-004  0.7118746E+03  0.7818608E-02  0.9697138E-01
         21   -1    0    0  501  502  0.00000000000E+00  0.00000000000E+00  0.27628808756E+03  0.27628808756E+03  0.00000000000E+00 0. -1.
         13   -1    0    0    0    0 -0.00000000000E+00 -0.00000000000E+00 -0.10000000000E+04  0.10000000000E+04  0.00000000000E+00 0.  1.
    9000005    2    1    2  501    0 -0.24816512175E+03 -0.19250007423E+02 -0.74002817819E+03  0.10268432821E+04  0.66693997559E+03 0.  0.
         13    1    3    3    0    0 -0.58326072308E+01  0.24266468521E+03 -0.46849598501E+02  0.24721459025E+03  0.00000000000E+00 0.  1.
          1    1    3    3  501    0 -0.24233251452E+03 -0.26191469263E+03 -0.69317857969E+03  0.77962869185E+03  0.00000000000E+00 0.  1.
         -3    1    1    2    0  502  0.24816512175E+03  0.19250007423E+02  0.16316265754E+02  0.24944480546E+03  0.00000000000E+00 0. -1.
<mgrwt>
<rscale>  1 0.71187458E+03</rscale>
<asrwt>0</asrwt>
<pdfrwt beam="1">  1       21 0.42505858E-01 0.71187458E+03</pdfrwt>
<pdfrwt beam="2">0</pdfrwt>
<totfact> 0.49505000E+02</totfact>
</mgrwt>
</event>
<event>
 6    1  0.1347953E-004  0.6564074E+03  0.7818608E-02  0.9794830E-01
         21   -1    0    0  501  502  0.00000000000E+00  0.00000000000E+00  0.28333433097E+03  0.28333433097E+03  0.00000000000E+00 0. -1.
         13   -1    0    0    0    0 -0.00000000000E+00 -0.00000000000E+00 -0.10000000000E+04  0.10000000000E+04  0.00000000000E+00 0.  1.
    9000005    2    1    2  501    0 -0.37883780424E+02 -0.28411749455E+02 -0.88873819494E+03  0.11048648308E+04  0.65469711074E+03 0.  0.
         13    1    3    3    0    0 -0.26612346703E+02  0.41059742744E+02  0.10121050966E+03  0.11241746633E+03  0.00000000000E+00 0.  1.
          1    1    3    3  501    0 -0.11271433721E+02 -0.69471492199E+02 -0.98994870460E+03  0.99244736444E+03  0.00000000000E+00 0.  1.
         -3    1    1    2    0  502  0.37883780424E+02  0.28411749455E+02  0.17207252591E+03  0.17846950020E+03  0.00000000000E+00 0. -1.
<mgrwt>
<rscale>  1 0.65640743E+03</rscale>
<asrwt>0</asrwt>
<pdfrwt beam="1">  1       21 0.43589896E-01 0.65640743E+03</pdfrwt>
<pdfrwt beam="2">0</pdfrwt>
<totfact> 0.47167951E+02</totfact>
</mgrwt>
</event>
<event>
 6    1  0.1347953E-004  0.6558698E+03  0.7818608E-02  0.9795827E-01
         21   -1    0    0  501  502  0.00000000000E+00  0.00000000000E+00  0.25118537868E+03  0.25118537868E+03  0.00000000000E+00 0. -1.
         13   -1    0    0    0    0 -0.00000000000E+00 -0.00000000000E+00 -0.10000000000E+04  0.10000000000E+04  0.00000000000E+00 0.  1.
    9000005    2    1    2  501    0  0.46044512072E+02 -0.68473038490E+02 -0.87919890025E+03  0.10968846519E+04  0.65065857352E+03 0.  0.
         13    1    3    3    0    0 -0.28378900728E+03 -0.10810472949E+03 -0.55528116149E+03  0.63289809725E+03  0.00000000000E+00 0.  1.
          3    1    3    3  501    0  0.32983351935E+03  0.39631691004E+02 -0.32391773875E+03  0.46398655465E+03  0.00000000000E+00 0.  1.
         -1    1    1    2    0  502 -0.46044512072E+02  0.68473038490E+02  0.13038427893E+03  0.15430072677E+03  0.00000000000E+00 0. -1.
<mgrwt>
<rscale>  1 0.65586983E+03</rscale>
<asrwt>0</asrwt>
<pdfrwt beam="1">  1       21 0.38643903E-01 0.65586983E+03</pdfrwt>
<pdfrwt beam="2">0</pdfrwt>
<totfact> 0.60628537E+02</totfact>
</mgrwt>
</event>
<event>
 6    1  0.1347953E-004  0.6516253E+03  0.7818608E-02  0.9803734E-01
         21   -1    0    0  501  502  0.00000000000E+00  0.00000000000E+00  0.36305082439E+03  0.36305082439E+03  0.00000000000E+00 0. -1.
         13   -1    0    0    0    0 -0.00000000000E+00 -0.00000000000E+00 -0.10000000000E+04  0.10000000000E+04  0.00000000000E+00 0.  1.
    9000005    2    1    2  501    0  0.14818054625E+02 -0.32933857025E+02 -0.89244127206E+03  0.11050189949E+04  0.65062380938E+03 0.  0.
         13    1    3    3    0    0  0.50157676844E+02 -0.33211920728E+03 -0.35375757781E+03  0.48781490778E+03  0.00000000000E+00 0.  1.
          1    1    3    3  501    0 -0.35339622220E+02  0.29918535026E+03 -0.53868369425E+03  0.61720408712E+03  0.00000000000E+00 0.  1.
         -3    1    1    2    0  502 -0.14818054625E+02  0.32933857025E+02  0.25549209645E+03  0.25803182949E+03  0.00000000000E+00 0. -1.
<mgrwt>
<rscale>  1 0.65162532E+03</rscale>
<asrwt>0</asrwt>
<pdfrwt beam="1">  1       21 0.55853971E-01 0.65162532E+03</pdfrwt>
<pdfrwt beam="2">0</pdfrwt>
<totfact> 0.27757587E+02</totfact>
</mgrwt>
</event>
<event>
 6    1  0.1347953E-004  0.6476642E+03  0.7818608E-02  0.9811172E-01
         21   -1    0    0  501  502  0.00000000000E+00  0.00000000000E+00  0.12313534575E+03  0.12313534575E+03  0.00000000000E+00 0.  1.
         13   -1    0    0    0    0 -0.00000000000E+00 -0.00000000000E+00 -0.10000000000E+04  0.10000000000E+04  0.00000000000E+00 0.  1.
    9000005    2    1    2  501    0  0.15444584339E+01  0.22022166023E+02 -0.88745032231E+03  0.10986523411E+04  0.64728782693E+03 0.  0.
         13    1    3    3    0    0 -0.12308690395E+03  0.87458093843E+02  0.43487700822E+02  0.15713205983E+03  0.00000000000E+00 0.  1.
          3    1    3    3  501    0  0.12463136238E+03 -0.65435927820E+02 -0.93093802313E+03  0.94152028128E+03  0.00000000000E+00 0.  1.
         -3    1    1    2    0  502 -0.15444584339E+01 -0.22022166023E+02  0.10585668057E+02  0.24483004644E+02  0.00000000000E+00 0. -1.
<mgrwt>
<rscale>  1 0.64766418E+03</rscale>
<asrwt>0</asrwt>
<pdfrwt beam="1">  1       21 0.18943899E-01 0.64766418E+03</pdfrwt>
<pdfrwt beam="2">0</pdfrwt>
<totfact> 0.24898547E+03</totfact>
</mgrwt>
</event>
<event>
 6    1  0.1347953E-004  0.6517774E+03  0.7818608E-02  0.9803450E-01
         21   -1    0    0  501  502  0.00000000000E+00  0.00000000000E+00  0.12406417280E+03  0.12406417280E+03  0.00000000000E+00 0.  1.
         13   -1    0    0    0    0 -0.00000000000E+00 -0.00000000000E+00 -0.10000000000E+04  0.10000000000E+04  0.00000000000E+00 0.  1.
    9000005    2    1    2  501    0 -0.76895608632E+01 -0.23365775048E+02 -0.88388727482E+03  0.10982123971E+04  0.65131303202E+03 0.  0.
         13    1    3    3    0    0  0.97076355876E+02  0.15789324159E+03 -0.86875646515E+03  0.88830844325E+03  0.00000000000E+00 0.  1.
          1    1    3    3  501    0 -0.10476591674E+03 -0.18125901664E+03 -0.15130809670E+02  0.20990395381E+03  0.00000000000E+00 0.  1.
         -3    1    1    2    0  502  0.76895608632E+01  0.23365775048E+02  0.79514476175E+01  0.25851775743E+02  0.00000000000E+00 0. -1.
<mgrwt>
<rscale>  1 0.65177738E+03</rscale>
<asrwt>0</asrwt>
<pdfrwt beam="1">  1       21 0.19086795E-01 0.65177738E+03</pdfrwt>
<pdfrwt beam="2">0</pdfrwt>
<totfact> 0.24540316E+03</totfact>
</mgrwt>
</event>
<event>
 6    1  0.1347953E-004  0.6471258E+03  0.7818608E-02  0.9812187E-01
         21   -1    0    0  501  502  0.00000000000E+00  0.00000000000E+00  0.24788530108E+03  0.24788530108E+03  0.00000000000E+00 0.  1.
         13   -1    0    0    0    0 -0.00000000000E+00 -0.00000000000E+00 -0.10000000000E+04  0.10000000000E+04  0.00000000000E+00 0.  1.
    9000005    2    1    2  501    0 -0.32743298041E+02 -0.45057525516E+01 -0.89319676040E+03  0.11029833568E+04  0.64628121380E+03 0.  0.
         13    1    3    3    0    0 -0.27009159443E+03 -0.20109102520E+03 -0.42075811679E+03  0.53891044028E+03  0.00000000000E+00 0.  1.
          1    1    3    3  501    0  0.23734829639E+03  0.19658527265E+03 -0.47243864361E+03  0.56407291656E+03  0.00000000000E+00 0.  1.
         -3    1    1    2    0  502  0.32743298041E+02  0.45057525516E+01  0.14108206148E+03  0.14490194424E+03  0.00000000000E+00 0. -1.
<mgrwt>
<rscale>  1 0.64712582E+03</rscale>
<asrwt>0</asrwt>
<pdfrwt beam="1">  1       21 0.38136199E-01 0.64712582E+03</pdfrwt>
<pdfrwt beam="2">0</pdfrwt>
<totfact> 0.62348186E+02</totfact>
</mgrwt>
</event>
<event>
 6    1  0.1347953E-004  0.6827562E+03  0.7818608E-02  0.9747184E-01
         21   -1    0    0  501  502  0.00000000000E+00  0.00000000000E+00  0.92383977929E+03  0.92383977929E+03  0.00000000000E+00 0. -1.
         13   -1    0    0    0    0 -0.00000000000E+00 -0.00000000000E+00 -0.10000000000E+04  0.10000000000E+04  0.00000000000E+00 0.  1.
    9000005    2    1    2  501    0  0.67422097299E+02  0.23471028541E+03 -0.86274450227E+03  0.11002200313E+04  0.63759029463E+03 0.  0.
         13    1    3    3    0    0 -0.10950015429E+03  0.33540026307E+03 -0.81933847791E+03  0.89207576004E+03  0.00000000000E+00 0.  1.
          3    1    3    3  501    0  0.17692225159E+03 -0.10068997766E+03 -0.43406024356E+02  0.20814427126E+03  0.00000000000E+00 0.  1.
         -3    1    1    2    0  502 -0.67422097299E+02 -0.23471028541E+03  0.78658428156E+03  0.82361974799E+03  0.00000000000E+00 0. -1.
<mgrwt>
<rscale>  1 0.68275621E+03</rscale>
<asrwt>0</asrwt>
<pdfrwt beam="1">  1       21 0.14212919E+00 0.68275621E+03</pdfrwt>
<pdfrwt beam="2">0</pdfrwt>
<totfact> 0.29241697E+01</totfact>
</mgrwt>
</event>
<event>
 6    1  0.1347953E-004  0.6720942E+03  0.7818608E-02  0.9766182E-01
         21   -1    0    0  501  502  0.00000000000E+00  0.00000000000E+00  0.21452287083E+03  0.21452287083E+03  0.00000000000E+00 0.  1.
         13   -1    0    0    0    0 -0.00000000000E+00 -0.00000000000E+00 -0.10000000000E+04  0.10000000000E+04  0.00000000000E+00 0.  1.
    9000005    2    1    2  501    0 -0.27435665396E+02 -0.14478041466E+03 -0.82290276765E+03  0.10624874716E+04  0.65574124324E+03 0.  0.
         13    1    3    3    0    0  0.27183875691E+03  0.22009310509E+02 -0.58478050766E+03  0.64525108419E+03  0.00000000000E+00 0.  1.
          3    1    3    3  501    0 -0.29927442231E+03 -0.16678972517E+03 -0.23812225999E+03  0.41723638740E+03  0.00000000000E+00 0.  1.
         -3    1    1    2    0  502  0.27435665396E+02  0.14478041466E+03  0.37425638472E+02  0.15203539924E+03  0.00000000000E+00 0. -1.
<mgrwt>
<rscale>  1 0.67209424E+03</rscale>
<asrwt>0</asrwt>
<pdfrwt beam="1">  1       21 0.33003518E-01 0.67209424E+03</pdfrwt>
<pdfrwt beam="2">0</pdfrwt>
<totfact> 0.83619454E+02</totfact>
</mgrwt>
</event>
<event>
 6    1  0.1347953E-004  0.6647853E+03  0.7818608E-02  0.9779424E-01
         21   -1    0    0  501  502  0.00000000000E+00  0.00000000000E+00  0.14544015006E+03  0.14544015006E+03  0.00000000000E+00 0.  1.
         13   -1    0    0    0    0 -0.00000000000E+00 -0.00000000000E+00 -0.10000000000E+04  0.10000000000E+04  0.00000000000E+00 0.  1.
    9000005    2    1    2  501    0 -0.32251645139E+02  0.40342617874E+02 -0.86678585106E+03  0.10923631255E+04  0.66277582255E+03 0.  0.
         13    1    3    3    0    0 -0.11837377289E+03  0.24487256288E+03 -0.93096354019E+02  0.28747496116E+03  0.00000000000E+00 0.  1.
          1    1    3    3  501    0  0.86122127755E+02 -0.20452994501E+03 -0.77368949704E+03  0.80488816436E+03  0.00000000000E+00 0.  1.
         -3    1    1    2    0  502  0.32251645139E+02 -0.40342617874E+02  0.12226001121E+02  0.53077024545E+02  0.00000000000E+00 0. -1.
<mgrwt>
<rscale>  1 0.66478529E+03</rscale>
<asrwt>0</asrwt>
<pdfrwt beam="1">  1       21 0.22375407E-01 0.66478529E+03</pdfrwt>
<pdfrwt beam="2">0</pdfrwt>
<totfact> 0.18063991E+03</totfact>
</mgrwt>
</event>
<event>
 6    1  0.1347953E-004  0.6899271E+03  0.7818608E-02  0.9734615E-01
         21   -1    0    0  501  502  0.00000000000E+00  0.00000000000E+00  0.20899337282E+03  0.20899337282E+03  0.00000000000E+00 0. -1.
         13   -1    0    0    0    0 -0.00000000000E+00 -0.00000000000E+00 -0.10000000000E+04  0.10000000000E+04  0.00000000000E+00 0.  1.
    9000005    2    1    2  501    0 -0.11162786443E+03 -0.34124789548E+02 -0.83597236096E+03  0.10839046100E+04  0.67998098050E+03 0.  0.
         13    1    3    3    0    0  0.27036991275E+03  0.91168786841E+02 -0.39369401070E+03  0.48621663020E+03  0.00000000000E+00 0.  1.
          3    1    3    3  501    0 -0.38199777718E+03 -0.12529357639E+03 -0.44227835026E+03  0.59768797977E+03  0.00000000000E+00 0.  1.
         -3    1    1    2    0  502  0.11162786443E+03  0.34124789548E+02  0.44965733781E+02  0.12508876286E+03  0.00000000000E+00 0. -1.
<mgrwt>
<rscale>  1 0.68992711E+03</rscale>
<asrwt>0</asrwt>
<pdfrwt beam="1">  1       21 0.32152826E-01 0.68992711E+03</pdfrwt>
<pdfrwt beam="2">0</pdfrwt>
<totfact> 0.88053993E+02</totfact>
</mgrwt>
</event>
<event>
 6    1  0.1347953E-004  0.6429062E+03  0.7818608E-02  0.9820182E-01
         21   -1    0    0  501  502  0.00000000000E+00  0.00000000000E+00  0.12774037824E+03  0.12774037824E+03  0.00000000000E+00 0.  1.
         13   -1    0    0    0    0 -0.00000000000E+00 -0.00000000000E+00 -0.10000000000E+04  0.10000000000E+04  0.00000000000E+00 0.  1.
    9000005    2    1    2  501    0  0.19432781980E+02  0.14403849196E+02 -0.88987383401E+03  0.10978177386E+04  0.64245096539E+03 0.  0.
         13    1    3    3    0    0  0.27441663049E+03  0.31771573256E+02 -0.14851234476E+03  0.31363966028E+03  0.00000000000E+00 0.  1.
          3    1    3    3  501    0 -0.25498384851E+03 -0.17367724060E+02 -0.74136148925E+03  0.78417807836E+03  0.00000000000E+00 0.  1.
         -1    1    1    2    0  502 -0.19432781980E+02 -0.14403849196E+02  0.17614212251E+02  0.29922639596E+02  0.00000000000E+00 0. -1.
<mgrwt>
<rscale>  1 0.64290617E+03</rscale>
<asrwt>0</asrwt>
<pdfrwt beam="1">  1       21 0.19652365E-01 0.64290617E+03</pdfrwt>
<pdfrwt beam="2">0</pdfrwt>
<totfact> 0.23215657E+03</totfact>
</mgrwt>
</event>
<event>
 6    1  0.1347953E-004  0.6485945E+03  0.7818608E-02  0.9809420E-01
         21   -1    0    0  501  502  0.00000000000E+00  0.00000000000E+00  0.19294915201E+03  0.19294915201E+03  0.00000000000E+00 0.  1.
         13   -1    0    0    0    0 -0.00000000000E+00 -0.00000000000E+00 -0.10000000000E+04  0.10000000000E+04  0.00000000000E+00 0.  1.
    9000005    2    1    2  501    0  0.21299068179E+02  0.14059852621E+01 -0.89339478061E+03  0.11040059016E+04  0.64824314078E+03 0.  0.
         13    1    3    3    0    0  0.70508499083E+02 -0.27298812825E+03 -0.17114887678E+03  0.32982708293E+03  0.00000000000E+00 0.  1.
          1    1    3    3  501    0 -0.49209430904E+02  0.27439411351E+03 -0.72224590383E+03  0.77417881864E+03  0.00000000000E+00 0.  1.
         -1    1    1    2    0  502 -0.21299068179E+02 -0.14059852621E+01  0.86343932625E+02  0.88943250452E+02  0.00000000000E+00 0. -1.
<mgrwt>
<rscale>  1 0.64859448E+03</rscale>
<asrwt>0</asrwt>
<pdfrwt beam="1">  1       21 0.29684484E-01 0.64859448E+03</pdfrwt>
<pdfrwt beam="2">0</pdfrwt>
<totfact> 0.10365802E+03</totfact>
</mgrwt>
</event>
<event>
 6    1  0.1347953E-004  0.6451110E+03  0.7818608E-02  0.9815997E-01
         21   -1    0    0  501  502  0.00000000000E+00  0.00000000000E+00  0.35301828579E+03  0.35301828579E+03  0.00000000000E+00 0. -1.
         13   -1    0    0    0    0 -0.00000000000E+00 -0.00000000000E+00 -0.10000000000E+04  0.10000000000E+04  0.00000000000E+00 0.  1.
    9000005    2    1    2  501    0  0.57250941603E+00 -0.31485733328E+02 -0.89485804283E+03  0.11031496134E+04  0.64434189175E+03 0.  0.
         13    1    3    3    0    0 -0.20488199208E+03  0.19207153136E+02 -0.24264117518E+02  0.20720591886E+03  0.00000000000E+00 0.  1.
          3    1    3    3  501    0  0.20545450150E+03 -0.50692886464E+02 -0.87059392531E+03  0.89594369450E+03  0.00000000000E+00 0.  1.
         -3    1    1    2    0  502 -0.57250941603E+00  0.31485733328E+02  0.24787632863E+03  0.24986867243E+03  0.00000000000E+00 0. -1.
<mgrwt>
<rscale>  1 0.64511096E+03</rscale>
<asrwt>0</asrwt>
<pdfrwt beam="1">  1       21 0.54310504E-01 0.64511096E+03</pdfrwt>
<pdfrwt beam="2">0</pdfrwt>
<totfact> 0.29522654E+02</totfact>
</mgrwt>
</event>
<event>
 6    1  0.1347953E-004  0.6532911E+03  0.7818608E-02  0.9800623E-01
         21   -1    0    0  501  502  0.00000000000E+00  0.00000000000E+00  0.19415504774E+03  0.19415504774E+03  0.00000000000E+00 0.  1.
         13   -1    0    0    0    0 -0.00000000000E+00 -0.00000000000E+00 -0.10000000000E+04  0.10000000000E+04  0.00000000000E+00 0.  1.
    9000005    2    1    2  501    0 -0.32551659191E+02  0.50286860976E+02 -0.88179183962E+03  0.10974270342E+04  0.65053890588E+03 0.  0.
         13    1    3    3    0    0 -0.19108919413E+03 -0.14641848929E+03 -0.75218977496E+02  0.25221290351E+03  0.00000000000E+00 0.  1.
          3    1    3    3  501    0  0.15853753494E+03  0.19670535027E+03 -0.80657286213E+03  0.84521413070E+03  0.00000000000E+00 0.  1.
         -1    1    1    2    0  502  0.32551659191E+02 -0.50286860976E+02  0.75946887362E+02  0.96728013538E+02  0.00000000000E+00 0. -1.
<mgrwt>
<rscale>  1 0.65329109E+03</rscale>
<asrwt>0</asrwt>
<pdfrwt beam="1">  1       21 0.29870006E-01 0.65329109E+03</pdfrwt>
<pdfrwt beam="2">0</pdfrwt>
<totfact> 0.10234421E+03</totfact>
</mgrwt>
</event>
<event>
 6    1  0.1347953E-004  0.6512727E+03  0.7818608E-02  0.9804394E-01
         21   -1    0    0  501  502  0.00000000000E+00  0.00000000000E+00  0.15343480313E+03  0.15343480313E+03  0.00000000000E+00 0.  1.
         13   -1    0    0    0    0 -0.00000000000E+00 -0.00000000000E+00 -0.10000000000E+04  0.10000000000E+04  0.00000000000E+00 0.  1.
    9000005    2    1    2  501    0  0.89473672235E+01  0.58200068371E+02 -0.87277042170E+03  0.10889831379E+04  0.64860524386E+03 0.  0.
         13    1    3    3    0    0  0.15642201870E+03 -0.23724807538E+03 -0.22708746530E+03  0.36376257930E+03  0.00000000000E+00 0.  1.
          1    1    3    3  501    0 -0.14747465147E+03  0.29544814375E+03 -0.64568295640E+03  0.72522055862E+03  0.00000000000E+00 0.  1.
         -1    1    1    2    0  502 -0.89473672235E+01 -0.58200068371E+02  0.26205224826E+02  0.64451665198E+02  0.00000000000E+00 0. -1.
<mgrwt>
<rscale>  1 0.65127265E+03</rscale>
<asrwt>0</asrwt>
<pdfrwt beam="1">  1       21 0.23605354E-01 0.65127265E+03</pdfrwt>
<pdfrwt beam="2">0</pdfrwt>
<totfact> 0.16289564E+03</totfact>
</mgrwt>
</event>
<event>
 6    1  0.1347953E-004  0.6492334E+03  0.7818608E-02  0.9808219E-01
         21   -1    0    0  501  502  0.00000000000E+00  0.00000000000E+00  0.19107064412E+03  0.19107064412E+03  0.00000000000E+00 0.  1.
         13   -1    0    0    0    0 -0.00000000000E+00 -0.00000000000E+00 -0.10000000000E+04  0.10000000000E+04  0.00000000000E+00 0.  1.
    9000005    2    1    2  501    0 -0.32109782108E+02 -0.49558337733E+02 -0.88322191860E+03  0.10961683163E+04  0.64654230587E+03 0.  0.
         13    1    3    3    0    0 -0.25435970100E+03  0.53520820705E+02 -0.79395612333E+03  0.83542184644E+03  0.00000000000E+00 0.  1.
          1    1    3    3  501    0  0.22224991889E+03 -0.10307915844E+03 -0.89265795267E+02  0.26074646988E+03  0.00000000000E+00 0.  1.
         -1    1    1    2    0  502  0.32109782108E+02  0.49558337733E+02  0.74292562719E+02  0.94902327797E+02  0.00000000000E+00 0. -1.
<mgrwt>
<rscale>  1 0.64923341E+03</rscale>
<asrwt>0</asrwt>
<pdfrwt beam="1">  1       21 0.29395483E-01 0.64923341E+03</pdfrwt>
<pdfrwt beam="2">0</pdfrwt>
<totfact> 0.10570030E+03</totfact>
</mgrwt>
</event>
<event>
 6    1  0.1347953E-004  0.7182757E+03  0.7818608E-02  0.9686479E-01
         21   -1    0    0  501  502  0.00000000000E+00  0.00000000000E+00  0.45276739125E+03  0.45276739125E+03  0.00000000000E+00 0. -1.
         13   -1    0    0    0    0 -0.00000000000E+00 -0.00000000000E+00 -0.10000000000E+04  0.10000000000E+04  0.00000000000E+00 0.  1.
    9000005    2    1    2  501    0 -0.14726460496E+03  0.29243724280E+03 -0.77288567707E+03  0.10551171529E+04  0.63930707143E+03 0.  0.
         13    1    3    3    0    0 -0.19104739130E+03  0.48855021725E+02  0.43591556879E+02  0.20195579393E+03  0.00000000000E+00 0.  1.
          1    1    3    3  501    0  0.43782786346E+02  0.24358222107E+03 -0.81647723395E+03  0.85316135893E+03  0.00000000000E+00 0.  1.
         -1    1    1    2    0  502  0.14726460496E+03 -0.29243724280E+03  0.22565306832E+03  0.39765023839E+03  0.00000000000E+00 0. -1.
<mgrwt>
<rscale>  1 0.71827567E+03</rscale>
<asrwt>0</asrwt>
<pdfrwt beam="1">  1       21 0.69656520E-01 0.71827567E+03</pdfrwt>
<pdfrwt beam="2">0</pdfrwt>
<totfact> 0.16854613E+02</totfact>
</mgrwt>
</event>
<event>
 6    1  0.1347953E-004  0.6703430E+03  0.7818608E-02  0.9769338E-01
         21   -1    0    0  501  502  0.00000000000E+00  0.00000000000E+00  0.14126727038E+03  0.14126727038E+03  0.00000000000E+00 0.  1.
         13   -1    0    0    0    0 -0.00000000000E+00 -0.00000000000E+00 -0.10000000000E+04  0.10000000000E+04  0.00000000000E+00 0.  1.
    9000005    2    1    2  501    0  0.60431589700E+02 -0.22452418967E+02 -0.83887303668E+03  0.10738099094E+04  0.66723583659E+03 0.  0.
         13    1    3    3    0    0 -0.23852867283E+03 -0.20628283212E+03 -0.45600505081E+03  0.55442685807E+03  0.00000000000E+00 0.  1.
          1    1    3    3  501    0  0.29896026253E+03  0.18383041315E+03 -0.38286798588E+03  0.51938305130E+03  0.00000000000E+00 0.  1.
         -1    1    1    2    0  502 -0.60431589700E+02  0.22452418967E+02 -0.19859692933E+02  0.67457361011E+02  0.00000000000E+00 0. -1.
<mgrwt>
<rscale>  1 0.67034301E+03</rscale>
<asrwt>0</asrwt>
<pdfrwt beam="1">  1       21 0.21733426E-01 0.67034301E+03</pdfrwt>
<pdfrwt beam="2">0</pdfrwt>
<totfact> 0.19107015E+03</totfact>
</mgrwt>
</event>
<event>
 6    1  0.1347953E-004  0.6532225E+03  0.7818608E-02  0.9800751E-01
         21   -1    0    0  501  502  0.00000000000E+00  0.00000000000E+00  0.18920776488E+03  0.18920776488E+03  0.00000000000E+00 0.  1.
         13   -1    0    0    0    0 -0.00000000000E+00 -0.00000000000E+00 -0.10000000000E+04  0.10000000000E+04  0.00000000000E+00 0.  1.
    9000005    2    1    2  501    0  0.48268643687E+02 -0.54351753614E+02 -0.87519393124E+03  0.10920915791E+04  0.64916532926E+03 0.  0.
         13    1    3    3    0    0 -0.21407863608E+03  0.82086415665E+02 -0.78586241438E+02  0.24237087161E+03  0.00000000000E+00 0.  1.
          1    1    3    3  501    0  0.26234727976E+03 -0.13643816928E+03 -0.79660768980E+03  0.84972070746E+03  0.00000000000E+00 0.  1.
         -1    1    1    2    0  502 -0.48268643687E+02  0.54351753614E+02  0.64401696111E+02  0.97116185810E+02  0.00000000000E+00 0. -1.
<mgrwt>
<rscale>  1 0.65322247E+03</rscale>
<asrwt>0</asrwt>
<pdfrwt beam="1">  1       21 0.29108886E-01 0.65322247E+03</pdfrwt>
<pdfrwt beam="2">0</pdfrwt>
<totfact> 0.10776156E+03</totfact>
</mgrwt>
</event>
<event>
 6    1  0.1347953E-004  0.6634190E+03  0.7818608E-02  0.9781920E-01
         21   -1    0    0  501  502  0.00000000000E+00  0.00000000000E+00  0.16950341971E+03  0.16950341971E+03  0.00000000000E+00 0.  1.
         13   -1    0    0    0    0 -0.00000000000E+00 -0.00000000000E+00 -0.10000000000E+04  0.10000000000E+04  0.00000000000E+00 0.  1.
    9000005    2    1    2  501    0  0.50901316212E+01 -0.95211862906E+02 -0.84365053986E+03  0.10732525240E+04  0.65653144518E+03 0.  0.
         13    1    3    3    0    0 -0.62967194330E+02  0.27188269096E+03 -0.26659274765E+03  0.38594916544E+03  0.00000000000E+00 0.  1.
          1    1    3    3  501    0  0.68057325952E+02 -0.36709455386E+03 -0.57705779221E+03  0.68730335853E+03  0.00000000000E+00 0.  1.
         -3    1    1    2    0  502 -0.50901316212E+01  0.95211862906E+02  0.13153959572E+02  0.96250895738E+02  0.00000000000E+00 0. -1.
<mgrwt>
<rscale>  1 0.66341898E+03</rscale>
<asrwt>0</asrwt>
<pdfrwt beam="1">  1       21 0.26077448E-01 0.66341898E+03</pdfrwt>
<pdfrwt beam="2">0</pdfrwt>
<totfact> 0.13393601E+03</totfact>
</mgrwt>
</event>
<event>
 6    1  0.1347953E-004  0.6126043E+03  0.7818608E-02  0.9879596E-01
         21   -1    0    0  501  502  0.00000000000E+00  0.00000000000E+00  0.13555396647E+03  0.13555396647E+03  0.00000000000E+00 0.  1.
         13   -1    0    0    0    0 -0.00000000000E+00 -0.00000000000E+00 -0.10000000000E+04  0.10000000000E+04  0.00000000000E+00 0.  1.
    9000005    2    1    2  501    0  0.40416941567E+02  0.17313379379E+02 -0.89314506400E+03  0.10830476181E+04  0.61102434929E+03 0.  0.
         13    1    3    3    0    0  0.19878122769E+03  0.21180357125E+03 -0.72517527305E+03  0.78118749729E+03  0.00000000000E+00 0.  1.
          3    1    3    3  501    0 -0.15836428613E+03 -0.19449019187E+03 -0.16796979095E+03  0.30186012079E+03  0.00000000000E+00 0.  1.
         -3    1    1    2    0  502 -0.40416941567E+02 -0.17313379379E+02  0.28699030463E+02  0.52506348385E+02  0.00000000000E+00 0. -1.
<mgrwt>
<rscale>  1 0.61260431E+03</rscale>
<asrwt>0</asrwt>
<pdfrwt beam="1">  1       21 0.20854456E-01 0.61260431E+03</pdfrwt>
<pdfrwt beam="2">0</pdfrwt>
<totfact> 0.20742312E+03</totfact>
</mgrwt>
</event>
<event>
 6    1  0.1347953E-004  0.6809633E+03  0.7818608E-02  0.9750353E-01
         21   -1    0    0  501  502  0.00000000000E+00  0.00000000000E+00  0.47800271470E+03  0.47800271470E+03  0.00000000000E+00 0. -1.
         13   -1    0    0    0    0 -0.00000000000E+00 -0.00000000000E+00 -0.10000000000E+04  0.10000000000E+04  0.00000000000E+00 0.  1.
    9000005    2    1    2  501    0 -0.10115708420E+03 -0.14636315558E+03 -0.85944732593E+03  0.10965221006E+04  0.65730973073E+03 0.  0.
         13    1    3    3    0    0  0.27238865581E+03 -0.40658861414E+01 -0.26405098634E+03  0.37938771017E+03  0.00000000000E+00 0.  1.
          3    1    3    3  501    0 -0.37354574001E+03 -0.14229726944E+03 -0.59539633959E+03  0.71713439045E+03  0.00000000000E+00 0.  1.
         -1    1    1    2    0  502  0.10115708420E+03  0.14636315558E+03  0.33745004063E+03  0.38148061408E+03  0.00000000000E+00 0. -1.
<mgrwt>
<rscale>  1 0.68096330E+03</rscale>
<asrwt>0</asrwt>
<pdfrwt beam="1">  1       21 0.73538877E-01 0.68096330E+03</pdfrwt>
<pdfrwt beam="2">0</pdfrwt>
<totfact> 0.14954153E+02</totfact>
</mgrwt>
</event>
<event>
 6    1  0.1347953E-004  0.6621439E+03  0.7818608E-02  0.9784255E-01
         21   -1    0    0  501  502  0.00000000000E+00  0.00000000000E+00  0.13741924254E+03  0.13741924254E+03  0.00000000000E+00 0.  1.
         13   -1    0    0    0    0 -0.00000000000E+00 -0.00000000000E+00 -0.10000000000E+04  0.10000000000E+04  0.00000000000E+00 0.  1.
    9000005    2    1    2  501    0 -0.59907537720E+02 -0.14143156879E+01 -0.84773986724E+03  0.10756846057E+04  0.65942670180E+03 0.  0.
         13    1    3    3    0    0 -0.35058752644E+03 -0.51564922095E+02 -0.56600826755E+03  0.66778433181E+03  0.00000000000E+00 0.  1.
          1    1    3    3  501    0  0.29067998872E+03  0.50150606407E+02 -0.28173159969E+03  0.40790027387E+03  0.00000000000E+00 0.  1.
         -3    1    1    2    0  502  0.59907537720E+02  0.14143156879E+01 -0.14840890220E+02  0.61734636851E+02  0.00000000000E+00 0. -1.
<mgrwt>
<rscale>  1 0.66214386E+03</rscale>
<asrwt>0</asrwt>
<pdfrwt beam="1">  1       21 0.21141421E-01 0.66214386E+03</pdfrwt>
<pdfrwt beam="2">0</pdfrwt>
<totfact> 0.20160728E+03</totfact>
</mgrwt>
</event>
<event>
 6    1  0.1347953E-004  0.6760743E+03  0.7818608E-02  0.9759046E-01
         21   -1    0    0  501  502  0.00000000000E+00  0.00000000000E+00  0.19033538546E+03  0.19033538546E+03  0.00000000000E+00 0.  1.
         13   -1    0    0    0    0 -0.00000000000E+00 -0.00000000000E+00 -0.10000000000E+04  0.10000000000E+04  0.00000000000E+00 0.  1.
    9000005    2    1    2  501    0  0.11432673551E+03 -0.13856546522E+03 -0.72639378314E+03  0.99233280475E+03  0.65177103080E+03 0.  0.
         13    1    3    3    0    0 -0.83849338710E+01  0.22715622736E+03 -0.48933749057E+03  0.53955670548E+03  0.00000000000E+00 0.  1.
          1    1    3    3  501    0  0.12271166939E+03 -0.36572169258E+03 -0.23705629257E+03  0.45277609927E+03  0.00000000000E+00 0.  1.
         -3    1    1    2    0  502 -0.11432673551E+03  0.13856546522E+03 -0.83270831403E+02  0.19800258071E+03  0.00000000000E+00 0. -1.
<mgrwt>
<rscale>  1 0.67607431E+03</rscale>
<asrwt>0</asrwt>
<pdfrwt beam="1">  1       21 0.29282366E-01 0.67607431E+03</pdfrwt>
<pdfrwt beam="2">0</pdfrwt>
<totfact> 0.10634473E+03</totfact>
</mgrwt>
</event>
<event>
 6    1  0.1347953E-004  0.7275663E+03  0.7818608E-02  0.9671218E-01
         21   -1    0    0  501  502  0.00000000000E+00  0.00000000000E+00  0.20950569861E+03  0.20950569861E+03  0.00000000000E+00 0.  1.
         13   -1    0    0    0    0 -0.00000000000E+00 -0.00000000000E+00 -0.10000000000E+04  0.10000000000E+04  0.00000000000E+00 0.  1.
    9000005    2    1    2  501    0  0.83691305564E+02  0.49921339055E+02 -0.83053823524E+03  0.11041496767E+04  0.72101066120E+03 0.  0.
         13    1    3    3    0    0  0.36979180570E+03 -0.12671965420E+03 -0.42757827359E+03  0.57933326365E+03  0.00000000000E+00 0.  1.
          1    1    3    3  501    0 -0.28610050014E+03  0.17664099326E+03 -0.40295996166E+03  0.52481641302E+03  0.00000000000E+00 0.  1.
         -3    1    1    2    0  502 -0.83691305564E+02 -0.49921339055E+02  0.40043933849E+02  0.10535602194E+03  0.00000000000E+00 0. -1.
<mgrwt>
<rscale>  1 0.72756632E+03</rscale>
<asrwt>0</asrwt>
<pdfrwt beam="1">  1       21 0.32231645E-01 0.72756632E+03</pdfrwt>
<pdfrwt beam="2">0</pdfrwt>
<totfact> 0.87415491E+02</totfact>
</mgrwt>
</event>
<event>
 6    1  0.1347953E-004  0.5769160E+03  0.7818608E-02  0.9954490E-01
         21   -1    0    0  501  502  0.00000000000E+00  0.00000000000E+00  0.12990811369E+03  0.12990811369E+03  0.00000000000E+00 0.  1.
         13   -1    0    0    0    0 -0.00000000000E+00 -0.00000000000E+00 -0.10000000000E+04  0.10000000000E+04  0.00000000000E+00 0.  1.
    9000005    2    1    2  501    0 -0.16021589813E+02 -0.38608922611E+02 -0.90647550479E+03  0.10744905358E+04  0.57539962679E+03 0.  0.
         13    1    3    3    0    0  0.76051541513E+02 -0.26850533176E+02 -0.96263168023E+03  0.96600442022E+03  0.00000000000E+00 0.  1.
          3    1    3    3  501    0 -0.92073131326E+02 -0.11758389435E+02  0.56156175446E+02  0.10848611559E+03  0.00000000000E+00 0.  1.
         -3    1    1    2    0  502  0.16021589813E+02  0.38608922611E+02  0.36383618480E+02  0.55417577889E+02  0.00000000000E+00 0. -1.
<mgrwt>
<rscale>  1 0.57691600E+03</rscale>
<asrwt>0</asrwt>
<pdfrwt beam="1">  1       21 0.19985863E-01 0.57691600E+03</pdfrwt>
<pdfrwt beam="2">0</pdfrwt>
<totfact> 0.22540879E+03</totfact>
</mgrwt>
</event>
<event>
 6    1  0.1347953E-004  0.6726844E+03  0.7818608E-02  0.9765121E-01
         21   -1    0    0  501  502  0.00000000000E+00  0.00000000000E+00  0.26386551775E+03  0.26386551775E+03  0.00000000000E+00 0. -1.
         13   -1    0    0    0    0 -0.00000000000E+00 -0.00000000000E+00 -0.10000000000E+04  0.10000000000E+04  0.00000000000E+00 0.  1.
    9000005    2    1    2  501    0  0.19279115322E+02  0.60518063122E+01 -0.88611971425E+03  0.11125252440E+04  0.67238081609E+03 0.  0.
         13    1    3    3    0    0 -0.16356050490E+03 -0.27857310204E+03 -0.33144868115E+03  0.46283176229E+03  0.00000000000E+00 0.  1.
          1    1    3    3  501    0  0.18283962023E+03  0.28462490836E+03 -0.55467103310E+03  0.64969348168E+03  0.00000000000E+00 0.  1.
         -3    1    1    2    0  502 -0.19279115322E+02 -0.60518063122E+01  0.14998523200E+03  0.15134027377E+03  0.00000000000E+00 0. -1.
<mgrwt>
<rscale>  1 0.67268438E+03</rscale>
<asrwt>0</asrwt>
<pdfrwt beam="1">  1       21 0.40594694E-01 0.67268438E+03</pdfrwt>
<pdfrwt beam="2">0</pdfrwt>
<totfact> 0.54669512E+02</totfact>
</mgrwt>
</event>
<event>
 6    1  0.1347953E-004  0.6476746E+03  0.7818608E-02  0.9811153E-01
         21   -1    0    0  501  502  0.00000000000E+00  0.00000000000E+00  0.31309196217E+03  0.31309196217E+03  0.00000000000E+00 0. -1.
         13   -1    0    0    0    0 -0.00000000000E+00 -0.00000000000E+00 -0.10000000000E+04  0.10000000000E+04  0.00000000000E+00 0.  1.
    9000005    2    1    2  501    0  0.19722543206E+02 -0.16242749823E+02 -0.89426302614E+03  0.11041687782E+04  0.64717039887E+03 0.  0.
         13    1    3    3    0    0 -0.58326316781E+02 -0.26987846975E+03 -0.15045896057E+03  0.31444275549E+03  0.00000000000E+00 0.  1.
          1    1    3    3  501    0  0.78048859987E+02  0.25363571993E+03 -0.74380406556E+03  0.78972602269E+03  0.00000000000E+00 0.  1.
         -3    1    1    2    0  502 -0.19722543206E+02  0.16242749823E+02  0.20735498830E+03  0.20892318398E+03  0.00000000000E+00 0. -1.
<mgrwt>
<rscale>  1 0.64767456E+03</rscale>
<asrwt>0</asrwt>
<pdfrwt beam="1">  1       21 0.48167993E-01 0.64767456E+03</pdfrwt>
<pdfrwt beam="2">0</pdfrwt>
<totfact> 0.38209973E+02</totfact>
</mgrwt>
</event>
<event>
 6    1  0.1347953E-004  0.6857927E+03  0.7818608E-02  0.9741842E-01
         21   -1    0    0  501  502  0.00000000000E+00  0.00000000000E+00  0.27715161740E+03  0.27715161740E+03  0.00000000000E+00 0. -1.
         13   -1    0    0    0    0 -0.00000000000E+00 -0.00000000000E+00 -0.10000000000E+04  0.10000000000E+04  0.00000000000E+00 0.  1.
    9000005    2    1    2  501    0 -0.95586146809E+02 -0.11383280691E+03 -0.84250164743E+03  0.10863335806E+04  0.66949010672E+03 0.  0.
         13    1    3    3    0    0  0.23644223331E+03 -0.15981883360E+03 -0.16301243266E+03  0.32866402673E+03  0.00000000000E+00 0.  1.
          1    1    3    3  501    0 -0.33202838012E+03  0.45986026687E+02 -0.67948921477E+03  0.75766955386E+03  0.00000000000E+00 0.  1.
         -3    1    1    2    0  502  0.95586146809E+02  0.11383280691E+03  0.11965326483E+03  0.19081803682E+03  0.00000000000E+00 0. -1.
<mgrwt>
<rscale>  1 0.68579270E+03</rscale>
<asrwt>0</asrwt>
<pdfrwt beam="1">  1       21 0.42638709E-01 0.68579270E+03</pdfrwt>
<pdfrwt beam="2">0</pdfrwt>
<totfact> 0.49283789E+02</totfact>
</mgrwt>
</event>
<event>
 6    1  0.1347953E-004  0.6498274E+03  0.7818608E-02  0.9807103E-01
         21   -1    0    0  501  502  0.00000000000E+00  0.00000000000E+00  0.11838336496E+03  0.11838336496E+03  0.00000000000E+00 0.  1.
         13   -1    0    0    0    0 -0.00000000000E+00 -0.00000000000E+00 -0.10000000000E+04  0.10000000000E+04  0.00000000000E+00 0.  1.
    9000005    2    1    2  501    0  0.25467540961E+02 -0.28393212326E+02 -0.82687294355E+03  0.10516627392E+04  0.64870708492E+03 0.  0.
         13    1    3    3    0    0  0.29498155975E+03  0.86246547073E+02 -0.22046050756E+03  0.37822668186E+03  0.00000000000E+00 0.  1.
          1    1    3    3  501    0 -0.26951401879E+03 -0.11463975940E+03 -0.60641243599E+03  0.67343605731E+03  0.00000000000E+00 0.  1.
         -3    1    1    2    0  502 -0.25467540961E+02  0.28393212326E+02 -0.54743691489E+02  0.66720625797E+02  0.00000000000E+00 0. -1.
<mgrwt>
<rscale>  1 0.64982740E+03</rscale>
<asrwt>0</asrwt>
<pdfrwt beam="1">  1       21 0.18212825E-01 0.64982740E+03</pdfrwt>
<pdfrwt beam="2">0</pdfrwt>
<totfact> 0.26833158E+03</totfact>
</mgrwt>
</event>
<event>
 6    1  0.1347953E-004  0.7115421E+03  0.7818608E-02  0.9697695E-01
         21   -1    0    0  501  502  0.00000000000E+00  0.00000000000E+00  0.23624070498E+03  0.23624070498E+03  0.00000000000E+00 0. -1.
         13   -1    0    0    0    0 -0.00000000000E+00 -0.00000000000E+00 -0.10000000000E+04  0.10000000000E+04  0.00000000000E+00 0.  1.
    9000005    2    1    2  501    0  0.20186655170E+03 -0.16106342524E+03 -0.59714728835E+03  0.92891174050E+03  0.66302383518E+03 0.  0.
         13    1    3    3    0    0  0.32523327058E+03 -0.28615617171E+03 -0.61506615064E+03  0.75230871626E+03  0.00000000000E+00 0.  1.
          3    1    3    3  501    0 -0.12336671888E+03  0.12509274647E+03  0.17918862288E+02  0.17660302425E+03  0.00000000000E+00 0.  1.
         -1    1    1    2    0  502 -0.20186655170E+03  0.16106342524E+03 -0.16661200667E+03  0.30732896448E+03  0.00000000000E+00 0. -1.
<mgrwt>
<rscale>  1 0.71154208E+03</rscale>
<asrwt>0</asrwt>
<pdfrwt beam="1">  1       21 0.36344723E-01 0.71154208E+03</pdfrwt>
<pdfrwt beam="2">0</pdfrwt>
<totfact> 0.68509960E+02</totfact>
</mgrwt>
</event>
<event>
 6    1  0.1347953E-004  0.6391417E+03  0.7818608E-02  0.9827370E-01
         21   -1    0    0  501  502  0.00000000000E+00  0.00000000000E+00  0.13101226192E+03  0.13101226192E+03  0.00000000000E+00 0.  1.
         13   -1    0    0    0    0 -0.00000000000E+00 -0.00000000000E+00 -0.10000000000E+04  0.10000000000E+04  0.00000000000E+00 0.  1.
    9000005    2    1    2  501    0 -0.28638468759E+02 -0.91056398829E+01 -0.88899966435E+03  0.10949075287E+04  0.63843481934E+03 0.  0.
         13    1    3    3    0    0  0.24291713885E+03 -0.19105938325E+03 -0.48696014173E+03  0.57675176975E+03  0.00000000000E+00 0.  1.
          3    1    3    3  501    0 -0.27155560761E+03  0.18195374337E+03 -0.40203952262E+03  0.51815575892E+03  0.00000000000E+00 0.  1.
         -3    1    1    2    0  502  0.28638468759E+02  0.91056398829E+01  0.20011926268E+02  0.36104733256E+02  0.00000000000E+00 0. -1.
<mgrwt>
<rscale>  1 0.63914168E+03</rscale>
<asrwt>0</asrwt>
<pdfrwt beam="1">  1       21 0.20155732E-01 0.63914168E+03</pdfrwt>
<pdfrwt beam="2">0</pdfrwt>
<totfact> 0.22120671E+03</totfact>
</mgrwt>
</event>
<event>
 6    1  0.1347953E-004  0.6388977E+03  0.7818608E-02  0.9827838E-01
         21   -1    0    0  501  502  0.00000000000E+00  0.00000000000E+00  0.15415260001E+03  0.15415260001E+03  0.00000000000E+00 0.  1.
         13   -1    0    0    0    0 -0.00000000000E+00 -0.00000000000E+00 -0.10000000000E+04  0.10000000000E+04  0.00000000000E+00 0.  1.
    9000005    2    1    2  501    0 -0.59755656887E+02 -0.36021839949E+02 -0.87081164523E+03  0.10800477754E+04  0.63507634524E+03 0.  0.
         13    1    3    3    0    0 -0.94363076833E+02  0.29136422157E+03 -0.47564788625E+03  0.56571937529E+03  0.00000000000E+00 0.  1.
          1    1    3    3  501    0  0.34607419946E+02 -0.32738606152E+03 -0.39516375898E+03  0.51432840015E+03  0.00000000000E+00 0.  1.
         -3    1    1    2    0  502  0.59755656887E+02  0.36021839949E+02  0.24964245234E+02  0.74104824563E+02  0.00000000000E+00 0. -1.
<mgrwt>
<rscale>  1 0.63889770E+03</rscale>
<asrwt>0</asrwt>
<pdfrwt beam="1">  1       21 0.23715784E-01 0.63889770E+03</pdfrwt>
<pdfrwt beam="2">0</pdfrwt>
<totfact> 0.16151903E+03</totfact>
</mgrwt>
</event>
<event>
 6    1  0.1347953E-004  0.6387673E+03  0.7818608E-02  0.9828088E-01
         21   -1    0    0  501  502  0.00000000000E+00  0.00000000000E+00  0.28727642448E+03  0.28727642448E+03  0.00000000000E+00 0. -1.
         13   -1    0    0    0    0 -0.00000000000E+00 -0.00000000000E+00 -0.10000000000E+04  0.10000000000E+04  0.00000000000E+00 0.  1.
    9000005    2    1    2  501    0  0.23394202952E+02  0.91784302574E+01 -0.89705444985E+03  0.11012403969E+04  0.63827282060E+03 0.  0.
         13    1    3    3    0    0 -0.28785132328E+03  0.46056275912E+02 -0.25724090137E+03  0.38878328950E+03  0.00000000000E+00 0.  1.
          1    1    3    3  501    0  0.31124552623E+03 -0.36877845654E+02 -0.63981354849E+03  0.71245710743E+03  0.00000000000E+00 0.  1.
         -3    1    1    2    0  502 -0.23394202952E+02 -0.91784302574E+01  0.18433087433E+03  0.18603602755E+03  0.00000000000E+00 0. -1.
<mgrwt>
<rscale>  1 0.63876735E+03</rscale>
<asrwt>0</asrwt>
<pdfrwt beam="1">  1       21 0.44196372E-01 0.63876735E+03</pdfrwt>
<pdfrwt beam="2">0</pdfrwt>
<totfact> 0.45887318E+02</totfact>
</mgrwt>
</event>
<event>
 6    1  0.1347953E-004  0.6735590E+03  0.7818608E-02  0.9763550E-01
         21   -1    0    0  501  502  0.00000000000E+00  0.00000000000E+00  0.47154163746E+03  0.47154163746E+03  0.00000000000E+00 0. -1.
         13   -1    0    0    0    0 -0.00000000000E+00 -0.00000000000E+00 -0.10000000000E+04  0.10000000000E+04  0.00000000000E+00 0.  1.
    9000005    2    1    2  501    0 -0.68373409189E+02  0.47601207252E+02 -0.88117371301E+03  0.11091207268E+04  0.66838677135E+03 0.  0.
         13    1    3    3    0    0 -0.27595900053E+03  0.23558119592E+02 -0.85472749325E+03  0.89848063011E+03  0.00000000000E+00 0.  1.
          1    1    3    3  501    0  0.20758559134E+03  0.24043087660E+02 -0.26446219769E+02  0.21064009670E+03  0.00000000000E+00 0.  1.
         -1    1    1    2    0  502  0.68373409189E+02 -0.47601207252E+02  0.35271535048E+03  0.36242091065E+03  0.00000000000E+00 0. -1.
<mgrwt>
<rscale>  1 0.67355896E+03</rscale>
<asrwt>0</asrwt>
<pdfrwt beam="1">  1       21 0.72544865E-01 0.67355896E+03</pdfrwt>
<pdfrwt beam="2">0</pdfrwt>
<totfact> 0.15441256E+02</totfact>
</mgrwt>
</event>
<event>
 6    1  0.1347953E-004  0.6439664E+03  0.7818608E-02  0.9818167E-01
         21   -1    0    0  501  502  0.00000000000E+00  0.00000000000E+00  0.15101693722E+03  0.15101693722E+03  0.00000000000E+00 0.  1.
         13   -1    0    0    0    0 -0.00000000000E+00 -0.00000000000E+00 -0.10000000000E+04  0.10000000000E+04  0.00000000000E+00 0.  1.
    9000005    2    1    2  501    0  0.73455969640E+00  0.89434768060E+02 -0.84376202035E+03  0.10614268898E+04  0.63772531553E+03 0.  0.
         13    1    3    3    0    0  0.14274907713E+03 -0.96163007810E+02  0.13725052050E+02  0.17266441482E+03  0.00000000000E+00 0.  1.
          3    1    3    3  501    0 -0.14201451744E+03  0.18559777587E+03 -0.85748707240E+03  0.88876247496E+03  0.00000000000E+00 0.  1.
         -3    1    1    2    0  502 -0.73455969640E+00 -0.89434768060E+02 -0.52210424277E+01  0.89590047438E+02  0.00000000000E+00 0. -1.
<mgrwt>
<rscale>  1 0.64396638E+03</rscale>
<asrwt>0</asrwt>
<pdfrwt beam="1">  1       21 0.23233374E-01 0.64396638E+03</pdfrwt>
<pdfrwt beam="2">0</pdfrwt>
<totfact> 0.16807163E+03</totfact>
</mgrwt>
</event>
<event>
 6    1  0.1347953E-004  0.6584203E+03  0.7818608E-02  0.9791106E-01
         21   -1    0    0  501  502  0.00000000000E+00  0.00000000000E+00  0.47841088810E+03  0.47841088810E+03  0.00000000000E+00 0. -1.
         13   -1    0    0    0    0 -0.00000000000E+00 -0.00000000000E+00 -0.10000000000E+04  0.10000000000E+04  0.00000000000E+00 0.  1.
    9000005    2    1    2  501    0  0.40563197088E+02  0.74296326962E+02 -0.88624478242E+03  0.11040593485E+04  0.65295628757E+03 0.  0.
         13    1    3    3    0    0 -0.15329663090E+03 -0.23623779483E+03 -0.48561806898E+03  0.56136713626E+03  0.00000000000E+00 0.  1.
          1    1    3    3  501    0  0.19385982798E+03  0.31053412179E+03 -0.40062671344E+03  0.54269221224E+03  0.00000000000E+00 0.  1.
         -3    1    1    2    0  502 -0.40563197088E+02 -0.74296326962E+02  0.36465567053E+03  0.37435153961E+03  0.00000000000E+00 0. -1.
<mgrwt>
<rscale>  1 0.65842025E+03</rscale>
<asrwt>0</asrwt>
<pdfrwt beam="1">  1       21 0.73601673E-01 0.65842025E+03</pdfrwt>
<pdfrwt beam="2">0</pdfrwt>
<totfact> 0.14965398E+02</totfact>
</mgrwt>
</event>
<event>
 6    1  0.1347953E-004  0.6654765E+03  0.7818608E-02  0.9778164E-01
         21   -1    0    0  501  502  0.00000000000E+00  0.00000000000E+00  0.15998505169E+03  0.15998505169E+03  0.00000000000E+00 0.  1.
         13   -1    0    0    0    0 -0.00000000000E+00 -0.00000000000E+00 -0.10000000000E+04  0.10000000000E+04  0.00000000000E+00 0.  1.
    9000005    2    1    2  501    0 -0.13187423098E+03 -0.26347603744E+02 -0.69716702304E+03  0.96379499389E+03  0.65174682448E+03 0.  0.
         13    1    3    3    0    0 -0.21513984184E+03 -0.23451915576E+03 -0.11239692086E+03  0.33751659780E+03  0.00000000000E+00 0.  1.
          3    1    3    3  501    0  0.83265610858E+02  0.20817155202E+03 -0.58477010218E+03  0.62627839610E+03  0.00000000000E+00 0.  1.
         -3    1    1    2    0  502  0.13187423098E+03  0.26347603744E+02 -0.14284792528E+03  0.19619005779E+03  0.00000000000E+00 0. -1.
<mgrwt>
<rscale>  1 0.66547647E+03</rscale>
<asrwt>0</asrwt>
<pdfrwt beam="1">  1       21 0.24613084E-01 0.66547647E+03</pdfrwt>
<pdfrwt beam="2">0</pdfrwt>
<totfact> 0.15001706E+03</totfact>
</mgrwt>
</event>
<event>
 6    1  0.1347953E-004  0.6601631E+03  0.7818608E-02  0.9787894E-01
         21   -1    0    0  501  502  0.00000000000E+00  0.00000000000E+00  0.14023175583E+03  0.14023175583E+03  0.00000000000E+00 0.  1.
         13   -1    0    0    0    0 -0.00000000000E+00 -0.00000000000E+00 -0.10000000000E+04  0.10000000000E+04  0.00000000000E+00 0.  1.
    9000005    2    1    2  501    0  0.53954395547E+02  0.10847374024E+02 -0.86127467639E+03  0.10851771315E+04  0.65786518088E+03 0.  0.
         13    1    3    3    0    0 -0.65715568466E+02  0.20572655692E+03 -0.82602011394E+03  0.85378637890E+03  0.00000000000E+00 0.  1.
          3    1    3    3  501    0  0.11966996401E+03 -0.19487918290E+03 -0.35254562446E+02  0.23139075260E+03  0.00000000000E+00 0.  1.
         -1    1    1    2    0  502 -0.53954395547E+02 -0.10847374024E+02  0.15064322127E+01  0.55054624329E+02  0.00000000000E+00 0. -1.
<mgrwt>
<rscale>  1 0.66016312E+03</rscale>
<asrwt>0</asrwt>
<pdfrwt beam="1">  1       21 0.21574116E-01 0.66016312E+03</pdfrwt>
<pdfrwt beam="2">0</pdfrwt>
<totfact> 0.19389137E+03</totfact>
</mgrwt>
</event>
<event>
 6    1  0.1347953E-004  0.6558150E+03  0.7818608E-02  0.9795928E-01
         21   -1    0    0  501  502  0.00000000000E+00  0.00000000000E+00  0.14631757072E+03  0.14631757072E+03  0.00000000000E+00 0. -1.
         13   -1    0    0    0    0 -0.00000000000E+00 -0.00000000000E+00 -0.10000000000E+04  0.10000000000E+04  0.00000000000E+00 0.  1.
    9000005    2    1    2  501    0  0.65615901885E+02  0.40747957847E+01 -0.85857801655E+03  0.10803932405E+04  0.65251152715E+03 0.  0.
         13    1    3    3    0    0  0.79385066431E+02 -0.12142309547E+03  0.57209736242E+02  0.15594393482E+03  0.00000000000E+00 0.  1.
          3    1    3    3  501    0 -0.13769164546E+02  0.12549789126E+03 -0.91578775279E+03  0.92444930567E+03  0.00000000000E+00 0.  1.
         -3    1    1    2    0  502 -0.65615901885E+02 -0.40747957847E+01  0.48955872641E+01  0.65924330224E+02  0.00000000000E+00 0. -1.
<mgrwt>
<rscale>  1 0.65581502E+03</rscale>
<asrwt>0</asrwt>
<pdfrwt beam="1">  1       21 0.22510395E-01 0.65581502E+03</pdfrwt>
<pdfrwt beam="2">0</pdfrwt>
<totfact> 0.17861710E+03</totfact>
</mgrwt>
</event>
<event>
 6    1  0.1347953E-004  0.7673333E+03  0.7818608E-02  0.9608543E-01
         21   -1    0    0  501  502  0.00000000000E+00  0.00000000000E+00  0.20664775468E+03  0.20664775468E+03  0.00000000000E+00 0.  1.
         13   -1    0    0    0    0 -0.00000000000E+00 -0.00000000000E+00 -0.10000000000E+04  0.10000000000E+04  0.00000000000E+00 0.  1.
    9000005    2    1    2  501    0 -0.10851372664E+03 -0.86089473225E+02 -0.70724302153E+03  0.10435483228E+04  0.75472762251E+03 0.  0.
         13    1    3    3    0    0  0.23330206750E+03 -0.31169264351E+02  0.21898859067E+02  0.23639149259E+03  0.00000000000E+00 0.  1.
          1    1    3    3  501    0 -0.34181579414E+03 -0.54920208874E+02 -0.72914188060E+03  0.80715683018E+03  0.00000000000E+00 0.  1.
         -3    1    1    2    0  502  0.10851372664E+03  0.86089473225E+02 -0.86109223784E+02  0.16309943191E+03  0.00000000000E+00 0. -1.
<mgrwt>
<rscale>  1 0.76733331E+03</rscale>
<asrwt>0</asrwt>
<pdfrwt beam="1">  1       21 0.31791961E-01 0.76733331E+03</pdfrwt>
<pdfrwt beam="2">0</pdfrwt>
<totfact> 0.89670742E+02</totfact>
</mgrwt>
</event>
<event>
 6    1  0.1347953E-004  0.6557832E+03  0.7818608E-02  0.9795988E-01
         21   -1    0    0  501  502  0.00000000000E+00  0.00000000000E+00  0.11852205440E+03  0.11852205440E+03  0.00000000000E+00 0.  1.
         13   -1    0    0    0    0 -0.00000000000E+00 -0.00000000000E+00 -0.10000000000E+04  0.10000000000E+04  0.00000000000E+00 0.  1.
    9000005    2    1    2  501    0  0.32032033579E+02 -0.60420548230E+01 -0.84468698601E+03  0.10693678856E+04  0.65497252831E+03 0.  0.
         13    1    3    3    0    0  0.26667452335E+03  0.26297175897E+02 -0.96875829687E+02  0.28494169446E+03  0.00000000000E+00 0.  1.
          3    1    3    3  501    0 -0.23464248977E+03 -0.32339230720E+02 -0.74781115633E+03  0.78442619116E+03  0.00000000000E+00 0.  1.
         -3    1    1    2    0  502 -0.32032033579E+02  0.60420548230E+01 -0.36790959587E+02  0.49154168785E+02  0.00000000000E+00 0. -1.
<mgrwt>
<rscale>  1 0.65578317E+03</rscale>
<asrwt>0</asrwt>
<pdfrwt beam="1">  1       21 0.18234162E-01 0.65578317E+03</pdfrwt>
<pdfrwt beam="2">0</pdfrwt>
<totfact> 0.26768147E+03</totfact>
</mgrwt>
</event>
<event>
 6    1  0.1347953E-004  0.1070762E+04  0.7818608E-02  0.9234168E-01
         21   -1    0    0  501  502  0.00000000000E+00  0.00000000000E+00  0.14765191645E+04  0.14765191645E+04  0.00000000000E+00 0. -1.
         13   -1    0    0    0    0 -0.00000000000E+00 -0.00000000000E+00 -0.10000000000E+04  0.10000000000E+04  0.00000000000E+00 0.  1.
    9000005    2    1    2  501    0 -0.81485902825E+03 -0.24284608257E+03 -0.49995762940E+03  0.11817310024E+04  0.65081569976E+03 0.  0.
         13    1    3    3    0    0 -0.41094294611E+03 -0.45441135328E+03 -0.32327723506E+03  0.69272790738E+03  0.00000000000E+00 0.  1.
          1    1    3    3  501    0 -0.40391608214E+03  0.21156527071E+03 -0.17668039433E+03  0.48900309500E+03  0.00000000000E+00 0.  1.
         -1    1    1    2    0  502  0.81485902825E+03  0.24284608257E+03  0.97647679388E+03  0.12947881621E+04  0.00000000000E+00 0. -1.
<mgrwt>
<rscale>  1 0.10707617E+04</rscale>
<asrwt>0</asrwt>
<pdfrwt beam="1">  1       21 0.22715679E+00 0.10707617E+04</pdfrwt>
<pdfrwt beam="2">0</pdfrwt>
<totfact> 0.66800041E+00</totfact>
</mgrwt>
</event>
<event>
 6    1  0.1347953E-004  0.7075531E+03  0.7818608E-02  0.9704402E-01
         21   -1    0    0  501  502  0.00000000000E+00  0.00000000000E+00  0.68287187135E+03  0.68287187135E+03  0.00000000000E+00 0. -1.
         13   -1    0    0    0    0 -0.00000000000E+00 -0.00000000000E+00 -0.10000000000E+04  0.10000000000E+04  0.00000000000E+00 0.  1.
    9000005    2    1    2  501    0  0.89489378831E+02 -0.22160744778E+03 -0.84577677525E+03  0.11027101686E+04  0.66596783139E+03 0.  0.
         13    1    3    3    0    0  0.19258075536E+03 -0.43011004249E+03 -0.51176645810E+03  0.69569167281E+03  0.00000000000E+00 0.  1.
          1    1    3    3  501    0 -0.10309137652E+03  0.20850259471E+03 -0.33401031715E+03  0.40701849574E+03  0.00000000000E+00 0.  1.
         -3    1    1    2    0  502 -0.89489378831E+02  0.22160744778E+03  0.52864864660E+03  0.58016170280E+03  0.00000000000E+00 0. -1.
<mgrwt>
<rscale>  1 0.70755308E+03</rscale>
<asrwt>0</asrwt>
<pdfrwt beam="1">  1       21 0.10505721E+00 0.70755308E+03</pdfrwt>
<pdfrwt beam="2">0</pdfrwt>
<totfact> 0.63647607E+01</totfact>
</mgrwt>
</event>
<event>
 6    1  0.1347953E-004  0.6541030E+03  0.7818608E-02  0.9799110E-01
         21   -1    0    0  501  502  0.00000000000E+00  0.00000000000E+00  0.32396284656E+03  0.32396284656E+03  0.00000000000E+00 0. -1.
         13   -1    0    0    0    0 -0.00000000000E+00 -0.00000000000E+00 -0.10000000000E+04  0.10000000000E+04  0.00000000000E+00 0.  1.
    9000005    2    1    2  501    0 -0.17357596326E+02  0.57383057216E+02 -0.88844246062E+03  0.11032591630E+04  0.65134988568E+03 0.  0.
         13    1    3    3    0    0 -0.16273542298E+03 -0.20093938318E+03 -0.13096237921E+03  0.28984581828E+03  0.00000000000E+00 0.  1.
          1    1    3    3  501    0  0.14537782665E+03  0.25832244039E+03 -0.75748008141E+03  0.81341334475E+03  0.00000000000E+00 0.  1.
         -3    1    1    2    0  502  0.17357596326E+02 -0.57383057216E+02  0.21240530718E+03  0.22070368353E+03  0.00000000000E+00 0. -1.
<mgrwt>
<rscale>  1 0.65410303E+03</rscale>
<asrwt>0</asrwt>
<pdfrwt beam="1">  1       21 0.49840437E-01 0.65410303E+03</pdfrwt>
<pdfrwt beam="2">0</pdfrwt>
<totfact> 0.35500109E+02</totfact>
</mgrwt>
</event>
<event>
 6    1  0.1347953E-004  0.6587122E+03  0.7818608E-02  0.9790567E-01
         21   -1    0    0  501  502  0.00000000000E+00  0.00000000000E+00  0.15258864652E+03  0.15258864652E+03  0.00000000000E+00 0. -1.
         13   -1    0    0    0    0 -0.00000000000E+00 -0.00000000000E+00 -0.10000000000E+04  0.10000000000E+04  0.00000000000E+00 0.  1.
    9000005    2    1    2  501    0 -0.42122751275E+02 -0.10234592313E+03 -0.78772189920E+03  0.10268434871E+04  0.64934793635E+03 0.  0.
         13    1    3    3    0    0 -0.19657909600E+03 -0.28487653041E+03 -0.68322729547E+03  0.76589654382E+03  0.00000000000E+00 0.  1.
          3    1    3    3  501    0  0.15445634472E+03  0.18253060728E+03 -0.10449460373E+03  0.26094694332E+03  0.00000000000E+00 0.  1.
         -1    1    1    2    0  502  0.42122751275E+02  0.10234592313E+03 -0.59689454282E+02  0.12574515939E+03  0.00000000000E+00 0. -1.
<mgrwt>
<rscale>  1 0.65871220E+03</rscale>
<asrwt>0</asrwt>
<pdfrwt beam="1">  1       21 0.23475176E-01 0.65871220E+03</pdfrwt>
<pdfrwt beam="2">0</pdfrwt>
<totfact> 0.16460131E+03</totfact>
</mgrwt>
</event>
<event>
 6    1  0.1347953E-004  0.6581211E+03  0.7818608E-02  0.9791659E-01
         21   -1    0    0  501  502  0.00000000000E+00  0.00000000000E+00  0.18858867839E+03  0.18858867839E+03  0.00000000000E+00 0. -1.
         13   -1    0    0    0    0 -0.00000000000E+00 -0.00000000000E+00 -0.10000000000E+04  0.10000000000E+04  0.00000000000E+00 0.  1.
    9000005    2    1    2  501    0 -0.13891327244E+02  0.21101717451E+02 -0.88951074905E+03  0.11065047456E+04  0.65763601479E+03 0.  0.
         13    1    3    3    0    0  0.18998883116E+03  0.26741239830E+03 -0.54797098551E+03  0.63865275987E+03  0.00000000000E+00 0.  1.
          3    1    3    3  501    0 -0.20388015840E+03 -0.24631068085E+03 -0.34153976354E+03  0.46785198575E+03  0.00000000000E+00 0.  1.
         -1    1    1    2    0  502  0.13891327244E+02 -0.21101717451E+02  0.78099427441E+02  0.82083932768E+02  0.00000000000E+00 0. -1.
<mgrwt>
<rscale>  1 0.65812110E+03</rscale>
<asrwt>0</asrwt>
<pdfrwt beam="1">  1       21 0.29013642E-01 0.65812110E+03</pdfrwt>
<pdfrwt beam="2">0</pdfrwt>
<totfact> 0.10843629E+03</totfact>
</mgrwt>
</event>
<event>
 6    1  0.1347953E-004  0.6358113E+03  0.7818608E-02  0.9833774E-01
         21   -1    0    0  501  502  0.00000000000E+00  0.00000000000E+00  0.17379011383E+03  0.17379011383E+03  0.00000000000E+00 0.  1.
         13   -1    0    0    0    0 -0.00000000000E+00 -0.00000000000E+00 -0.10000000000E+04  0.10000000000E+04  0.00000000000E+00 0.  1.
    9000005    2    1    2  501    0 -0.16181810788E+01  0.24961685963E+02 -0.89656013131E+03  0.10991251202E+04  0.63531901955E+03 0.  0.
         13    1    3    3    0    0  0.60705882236E+02 -0.26437432159E+02  0.88628052852E+02  0.11063034715E+03  0.00000000000E+00 0.  1.
          3    1    3    3  501    0 -0.62324063315E+02  0.51399118121E+02 -0.98518818417E+03  0.98849477309E+03  0.00000000000E+00 0.  1.
         -1    1    1    2    0  502  0.16181810788E+01 -0.24961685963E+02  0.70350245145E+02  0.74664993592E+02  0.00000000000E+00 0. -1.
<mgrwt>
<rscale>  1 0.63581126E+03</rscale>
<asrwt>0</asrwt>
<pdfrwt beam="1">  1       21 0.26736940E-01 0.63581126E+03</pdfrwt>
<pdfrwt beam="2">0</pdfrwt>
<totfact> 0.12769571E+03</totfact>
</mgrwt>
</event>
<event>
 6    1  0.1347953E-004  0.6303319E+03  0.7818608E-02  0.9844401E-01
         21   -1    0    0  501  502  0.00000000000E+00  0.00000000000E+00  0.25111951394E+03  0.25111951394E+03  0.00000000000E+00 0. -1.
         13   -1    0    0    0    0 -0.00000000000E+00 -0.00000000000E+00 -0.10000000000E+04  0.10000000000E+04  0.00000000000E+00 0.  1.
    9000005    2    1    2  501    0 -0.44342564241E+02 -0.30188848340E+02 -0.89544157408E+03  0.10950497152E+04  0.62804509115E+03 0.  0.
         13    1    3    3    0    0  0.11270396318E+03 -0.24721267141E+03 -0.16700210950E+03  0.31891377017E+03  0.00000000000E+00 0.  1.
          1    1    3    3  501    0 -0.15704652742E+03  0.21702382307E+03 -0.72843946458E+03  0.77613594500E+03  0.00000000000E+00 0.  1.
         -3    1    1    2    0  502  0.44342564241E+02  0.30188848340E+02  0.14656108803E+03  0.15606979878E+03  0.00000000000E+00 0. -1.
<mgrwt>
<rscale>  1 0.63033187E+03</rscale>
<asrwt>0</asrwt>
<pdfrwt beam="1">  1       21 0.38633770E-01 0.63033187E+03</pdfrwt>
<pdfrwt beam="2">0</pdfrwt>
<totfact> 0.60784555E+02</totfact>
</mgrwt>
</event>
<event>
 6    1  0.1347953E-004  0.6475249E+03  0.7818608E-02  0.9811435E-01
         21   -1    0    0  501  502  0.00000000000E+00  0.00000000000E+00  0.53891138390E+03  0.53891138390E+03  0.00000000000E+00 0. -1.
         13   -1    0    0    0    0 -0.00000000000E+00 -0.00000000000E+00 -0.10000000000E+04  0.10000000000E+04  0.00000000000E+00 0.  1.
    9000005    2    1    2  501    0  0.17052328852E+02  0.13722590512E+02 -0.89487301772E+03  0.11045751104E+04  0.64715482323E+03 0.  0.
         13    1    3    3    0    0 -0.10592695234E+03 -0.27324077564E+03 -0.23889008295E+03  0.37808664673E+03  0.00000000000E+00 0.  1.
          1    1    3    3  501    0  0.12297928119E+03  0.28696336615E+03 -0.65598293477E+03  0.72648846365E+03  0.00000000000E+00 0.  1.
         -3    1    1    2    0  502 -0.17052328852E+02 -0.13722590512E+02  0.43378440161E+03  0.43433627352E+03  0.00000000000E+00 0. -1.
<mgrwt>
<rscale>  1 0.64752487E+03</rscale>
<asrwt>0</asrwt>
<pdfrwt beam="1">  1       21 0.82909441E-01 0.64752487E+03</pdfrwt>
<pdfrwt beam="2">0</pdfrwt>
<totfact> 0.11369426E+02</totfact>
</mgrwt>
</event>
<event>
 6    1  0.1347953E-004  0.6517379E+03  0.7818608E-02  0.9803524E-01
         21   -1    0    0  501  502  0.00000000000E+00  0.00000000000E+00  0.18917669680E+03  0.18917669680E+03  0.00000000000E+00 0.  1.
         13   -1    0    0    0    0 -0.00000000000E+00 -0.00000000000E+00 -0.10000000000E+04  0.10000000000E+04  0.00000000000E+00 0.  1.
    9000005    2    1    2  501    0 -0.21418604263E+02  0.16047977740E+02 -0.89141527635E+03  0.11042569680E+04  0.65118811595E+03 0.  0.
         13    1    3    3    0    0  0.12303406807E+03 -0.28387946780E+03 -0.52344861099E+03  0.60804883233E+03  0.00000000000E+00 0.  1.
          1    1    3    3  501    0 -0.14445267234E+03  0.29992744554E+03 -0.36796666535E+03  0.49620813571E+03  0.00000000000E+00 0.  1.
         -3    1    1    2    0  502  0.21418604263E+02 -0.16047977740E+02  0.80591973146E+02  0.84919728766E+02  0.00000000000E+00 0. -1.
<mgrwt>
<rscale>  1 0.65173787E+03</rscale>
<asrwt>0</asrwt>
<pdfrwt beam="1">  1       21 0.29104106E-01 0.65173787E+03</pdfrwt>
<pdfrwt beam="2">0</pdfrwt>
<totfact> 0.10780662E+03</totfact>
</mgrwt>
</event>
<event>
 6    1  0.1347953E-004  0.6535330E+03  0.7818608E-02  0.9800172E-01
         21   -1    0    0  501  502  0.00000000000E+00  0.00000000000E+00  0.12065064988E+03  0.12065064988E+03  0.00000000000E+00 0.  1.
         13   -1    0    0    0    0 -0.00000000000E+00 -0.00000000000E+00 -0.10000000000E+04  0.10000000000E+04  0.00000000000E+00 0.  1.
    9000005    2    1    2  501    0  0.22839472320E+01  0.30229096334E+02 -0.87152888741E+03  0.10893429141E+04  0.65282950938E+03 0.  0.
         13    1    3    3    0    0  0.56125898656E+02  0.23839743499E+03 -0.83634090290E+03  0.87146403218E+03  0.00000000000E+00 0.  1.
          1    1    3    3  501    0 -0.53841951424E+02 -0.20816833866E+03 -0.35187984510E+02  0.21787888197E+03  0.00000000000E+00 0.  1.
         -1    1    1    2    0  502 -0.22839472320E+01 -0.30229096334E+02 -0.78204627073E+01  0.31307735739E+02  0.00000000000E+00 0. -1.
<mgrwt>
<rscale>  1 0.65353300E+03</rscale>
<asrwt>0</asrwt>
<pdfrwt beam="1">  1       21 0.18561638E-01 0.65353300E+03</pdfrwt>
<pdfrwt beam="2">0</pdfrwt>
<totfact> 0.25879286E+03</totfact>
</mgrwt>
</event>
<event>
 6    1  0.1347953E-004  0.6722574E+03  0.7818608E-02  0.9765888E-01
         21   -1    0    0  501  502  0.00000000000E+00  0.00000000000E+00  0.18244693379E+03  0.18244693379E+03  0.00000000000E+00 0. -1.
         13   -1    0    0    0    0 -0.00000000000E+00 -0.00000000000E+00 -0.10000000000E+04  0.10000000000E+04  0.00000000000E+00 0.  1.
    9000005    2    1    2  501    0  0.54697686374E+02  0.11397000576E+03 -0.81436254191E+03  0.10559907020E+04  0.66026435160E+03 0.  0.
         13    1    3    3    0    0  0.85899285212E+02  0.36831037954E+03 -0.30519621684E+03  0.48597937575E+03  0.00000000000E+00 0.  1.
          1    1    3    3  501    0 -0.31201598838E+02 -0.25434037378E+03 -0.50916632507E+03  0.57001132628E+03  0.00000000000E+00 0.  1.
         -1    1    1    2    0  502 -0.54697686374E+02 -0.11397000576E+03 -0.31905243007E+01  0.12645623176E+03  0.00000000000E+00 0. -1.
<mgrwt>
<rscale>  1 0.67225740E+03</rscale>
<asrwt>0</asrwt>
<pdfrwt beam="1">  1       21 0.28068758E-01 0.67225740E+03</pdfrwt>
<pdfrwt beam="2">0</pdfrwt>
<totfact> 0.11573099E+03</totfact>
</mgrwt>
</event>
<event>
 6    1  0.1347953E-004  0.6280733E+03  0.7818608E-02  0.9848816E-01
         21   -1    0    0  501  502  0.00000000000E+00  0.00000000000E+00  0.14850418899E+03  0.14850418899E+03  0.00000000000E+00 0.  1.
         13   -1    0    0    0    0 -0.00000000000E+00 -0.00000000000E+00 -0.10000000000E+04  0.10000000000E+04  0.00000000000E+00 0.  1.
    9000005    2    1    2  501    0 -0.11434675731E+02 -0.10552313408E+03 -0.82891395209E+03  0.10399877203E+04  0.61903976825E+03 0.  0.
         13    1    3    3    0    0  0.29724483139E+03  0.12449613324E+02 -0.38287871050E+03  0.48487688088E+03  0.00000000000E+00 0.  1.
          3    1    3    3  501    0 -0.30867950712E+03 -0.11797274741E+03 -0.44603524159E+03  0.55511083937E+03  0.00000000000E+00 0.  1.
         -3    1    1    2    0  502  0.11434675731E+02  0.10552313408E+03 -0.22581858918E+02  0.10851646874E+03  0.00000000000E+00 0. -1.
<mgrwt>
<rscale>  1 0.62807334E+03</rscale>
<asrwt>0</asrwt>
<pdfrwt beam="1">  1       21 0.22846798E-01 0.62807334E+03</pdfrwt>
<pdfrwt beam="2">0</pdfrwt>
<totfact> 0.17377531E+03</totfact>
</mgrwt>
</event>
<event>
 6    1  0.1347953E-004  0.6565813E+03  0.7818608E-02  0.9794508E-01
         21   -1    0    0  501  502  0.00000000000E+00  0.00000000000E+00  0.31083997242E+03  0.31083997242E+03  0.00000000000E+00 0.  1.
         13   -1    0    0    0    0 -0.00000000000E+00 -0.00000000000E+00 -0.10000000000E+04  0.10000000000E+04  0.00000000000E+00 0.  1.
    9000005    2    1    2  501    0  0.56108447828E+02 -0.38285987031E+02 -0.88590991045E+03  0.11026946118E+04  0.65305823847E+03 0.  0.
         13    1    3    3    0    0  0.26284321606E+03 -0.20264659045E+03 -0.71454447252E+03  0.78786166302E+03  0.00000000000E+00 0.  1.
          1    1    3    3  501    0 -0.20673476823E+03  0.16436060342E+03 -0.17136543793E+03  0.31483294882E+03  0.00000000000E+00 0.  1.
         -1    1    1    2    0  502 -0.56108447828E+02  0.38285987031E+02  0.19674988287E+03  0.20814536058E+03  0.00000000000E+00 0. -1.
<mgrwt>
<rscale>  1 0.65658133E+03</rscale>
<asrwt>0</asrwt>
<pdfrwt beam="1">  1       21 0.47821533E-01 0.65658133E+03</pdfrwt>
<pdfrwt beam="2">0</pdfrwt>
<totfact> 0.38770343E+02</totfact>
</mgrwt>
</event>
<event>
 6    1  0.1347953E-004  0.6652223E+03  0.7818608E-02  0.9778627E-01
         21   -1    0    0  501  502  0.00000000000E+00  0.00000000000E+00  0.62648967223E+03  0.62648967223E+03  0.00000000000E+00 0. -1.
         13   -1    0    0    0    0 -0.00000000000E+00 -0.00000000000E+00 -0.10000000000E+04  0.10000000000E+04  0.00000000000E+00 0.  1.
    9000005    2    1    2  501    0 -0.20931541325E+02  0.11342069671E+03 -0.88219526621E+03  0.11048933240E+04  0.65514760619E+03 0.  0.
         13    1    3    3    0    0  0.17408379070E+03 -0.16039121417E+03 -0.66197123696E+03  0.70301950637E+03  0.00000000000E+00 0.  1.
          3    1    3    3  501    0 -0.19501533203E+03  0.27381191088E+03 -0.22022402924E+03  0.40187381766E+03  0.00000000000E+00 0.  1.
         -3    1    1    2    0  502  0.20931541325E+02 -0.11342069671E+03  0.50868493844E+03  0.52159634820E+03  0.00000000000E+00 0. -1.
<mgrwt>
<rscale>  1 0.66522235E+03</rscale>
<asrwt>0</asrwt>
<pdfrwt beam="1">  1       21 0.96383024E-01 0.66522235E+03</pdfrwt>
<pdfrwt beam="2">0</pdfrwt>
<totfact> 0.79165190E+01</totfact>
</mgrwt>
</event>
<event>
 6    1  0.1347953E-004  0.6585495E+03  0.7818608E-02  0.9790868E-01
         21   -1    0    0  501  502  0.00000000000E+00  0.00000000000E+00  0.14008474969E+03  0.14008474969E+03  0.00000000000E+00 0.  1.
         13   -1    0    0    0    0 -0.00000000000E+00 -0.00000000000E+00 -0.10000000000E+04  0.10000000000E+04  0.00000000000E+00 0.  1.
    9000005    2    1    2  501    0  0.25388916618E+02 -0.13264522063E+02 -0.88422416476E+03  0.11025152414E+04  0.65792624154E+03 0.  0.
         13    1    3    3    0    0  0.14856351284E+03  0.86212866118E+02  0.30272622729E+02  0.17441389657E+03  0.00000000000E+00 0.  1.
          3    1    3    3  501    0 -0.12317459622E+03 -0.99477388181E+02 -0.91449678749E+03  0.92810134481E+03  0.00000000000E+00 0.  1.
         -1    1    1    2    0  502 -0.25388916618E+02  0.13264522063E+02  0.24308914446E+02  0.37569508303E+02  0.00000000000E+00 0. -1.
<mgrwt>
<rscale>  1 0.65854953E+03</rscale>
<asrwt>0</asrwt>
<pdfrwt beam="1">  1       21 0.21551499E-01 0.65854953E+03</pdfrwt>
<pdfrwt beam="2">0</pdfrwt>
<totfact> 0.19429811E+03</totfact>
</mgrwt>
</event>
<event>
 6    1  0.1347953E-004  0.6517863E+03  0.7818608E-02  0.9803433E-01
         21   -1    0    0  501  502  0.00000000000E+00  0.00000000000E+00  0.12729653696E+03  0.12729653696E+03  0.00000000000E+00 0.  1.
         13   -1    0    0    0    0 -0.00000000000E+00 -0.00000000000E+00 -0.10000000000E+04  0.10000000000E+04  0.00000000000E+00 0.  1.
    9000005    2    1    2  501    0  0.22621101249E+01 -0.20626544017E+02 -0.88799079390E+03  0.11015230245E+04  0.65145587109E+03 0.  0.
         13    1    3    3    0    0 -0.31302053856E+02 -0.70997531958E+00 -0.99093464066E+03  0.99142916272E+03  0.00000000000E+00 0.  1.
          3    1    3    3  501    0  0.33564163981E+02 -0.19916568697E+02  0.10294384676E+03  0.11009386177E+03  0.00000000000E+00 0.  1.
         -3    1    1    2    0  502 -0.22621101249E+01  0.20626544017E+02  0.15287330852E+02  0.25773512467E+02  0.00000000000E+00 0. -1.
<mgrwt>
<rscale>  1 0.65178626E+03</rscale>
<asrwt>0</asrwt>
<pdfrwt beam="1">  1       21 0.19584082E-01 0.65178626E+03</pdfrwt>
<pdfrwt beam="2">0</pdfrwt>
<totfact> 0.23362894E+03</totfact>
</mgrwt>
</event>
<event>
 6    1  0.1347953E-004  0.6544288E+03  0.7818608E-02  0.9798504E-01
         21   -1    0    0  501  502  0.00000000000E+00  0.00000000000E+00  0.23899159941E+03  0.23899159941E+03  0.00000000000E+00 0. -1.
         13   -1    0    0    0    0 -0.00000000000E+00 -0.00000000000E+00 -0.10000000000E+04  0.10000000000E+04  0.00000000000E+00 0.  1.
    9000005    2    1    2  501    0  0.20803089448E+02  0.25581711607E+02 -0.89064557421E+03  0.11052269206E+04  0.65359759391E+03 0.  0.
         13    1    3    3    0    0  0.16105094222E+03 -0.17782340174E+03 -0.81084008741E+03  0.84558867988E+03  0.00000000000E+00 0.  1.
          1    1    3    3  501    0 -0.14024785277E+03  0.20340511335E+03 -0.79805486803E+02  0.25963824077E+03  0.00000000000E+00 0.  1.
         -1    1    1    2    0  502 -0.20803089448E+02 -0.25581711607E+02  0.12963717362E+03  0.13376467876E+03  0.00000000000E+00 0. -1.
<mgrwt>
<rscale>  1 0.65442876E+03</rscale>
<asrwt>0</asrwt>
<pdfrwt beam="1">  1       21 0.36767937E-01 0.65442876E+03</pdfrwt>
<pdfrwt beam="2">0</pdfrwt>
<totfact> 0.67176074E+02</totfact>
</mgrwt>
</event>
<event>
 6    1  0.1347953E-004  0.6137229E+03  0.7818608E-02  0.9877337E-01
         21   -1    0    0  501  502  0.00000000000E+00  0.00000000000E+00  0.15160768353E+03  0.15160768353E+03  0.00000000000E+00 0.  1.
         13   -1    0    0    0    0 -0.00000000000E+00 -0.00000000000E+00 -0.10000000000E+04  0.10000000000E+04  0.00000000000E+00 0.  1.
    9000005    2    1    2  501    0 -0.90261446287E+02 -0.13443289396E+03 -0.71106242316E+03  0.93928992341E+03  0.59197673851E+03 0.  0.
         13    1    3    3    0    0  0.21453566269E+03 -0.40660045243E+01 -0.50566848063E+03  0.54931110972E+03  0.00000000000E+00 0.  1.
          3    1    3    3  501    0 -0.30479710898E+03 -0.13036688943E+03 -0.20539394252E+03  0.38997881369E+03  0.00000000000E+00 0.  1.
         -3    1    1    2    0  502  0.90261446287E+02  0.13443289396E+03 -0.13732989331E+03  0.21231776011E+03  0.00000000000E+00 0. -1.
<mgrwt>
<rscale>  1 0.61372289E+03</rscale>
<asrwt>0</asrwt>
<pdfrwt beam="1">  1       21 0.23324258E-01 0.61372289E+03</pdfrwt>
<pdfrwt beam="2">0</pdfrwt>
<totfact> 0.16705025E+03</totfact>
</mgrwt>
</event>
<event>
 6    1  0.1347953E-004  0.6316591E+03  0.7818608E-02  0.9841817E-01
         21   -1    0    0  501  502  0.00000000000E+00  0.00000000000E+00  0.16864968786E+03  0.16864968786E+03  0.00000000000E+00 0. -1.
         13   -1    0    0    0    0 -0.00000000000E+00 -0.00000000000E+00 -0.10000000000E+04  0.10000000000E+04  0.00000000000E+00 0.  1.
    9000005    2    1    2  501    0  0.38228592765E+02 -0.23600377401E+02 -0.89210425540E+03  0.10930888201E+04  0.63005933289E+03 0.  0.
         13    1    3    3    0    0 -0.72700636405E+02  0.18372705123E+03 -0.30442007323E+02  0.19991930296E+03  0.00000000000E+00 0.  1.
          3    1    3    3  501    0  0.11092922917E+03 -0.20732742863E+03 -0.86166224808E+03  0.89316951712E+03  0.00000000000E+00 0.  1.
         -1    1    1    2    0  502 -0.38228592765E+02  0.23600377401E+02  0.60753943265E+02  0.75560867785E+02  0.00000000000E+00 0. -1.
<mgrwt>
<rscale>  1 0.63165906E+03</rscale>
<asrwt>0</asrwt>
<pdfrwt beam="1">  1       21 0.25946105E-01 0.63165906E+03</pdfrwt>
<pdfrwt beam="2">0</pdfrwt>
<totfact> 0.13550866E+03</totfact>
</mgrwt>
</event>
<event>
 6    1  0.1347953E-004  0.6736989E+03  0.7818608E-02  0.9763299E-01
         21   -1    0    0  501  502  0.00000000000E+00  0.00000000000E+00  0.94928291295E+03  0.94928291295E+03  0.00000000000E+00 0. -1.
         13   -1    0    0    0    0 -0.00000000000E+00 -0.00000000000E+00 -0.10000000000E+04  0.10000000000E+04  0.00000000000E+00 0.  1.
    9000005    2    1    2  501    0  0.52141599263E+02 -0.20265911518E+03 -0.87190227025E+03  0.11018547045E+04  0.64037548177E+03 0.  0.
         13    1    3    3    0    0 -0.11751092274E+03 -0.11259825936E+03 -0.89383536818E+03  0.90853114993E+03  0.00000000000E+00 0.  1.
          3    1    3    3  501    0  0.16965252201E+03 -0.90060855821E+02  0.21933097930E+02  0.19332355459E+03  0.00000000000E+00 0.  1.
         -3    1    1    2    0  502 -0.52141599263E+02  0.20265911518E+03  0.82118518320E+03  0.84742820843E+03  0.00000000000E+00 0. -1.
<mgrwt>
<rscale>  1 0.67369891E+03</rscale>
<asrwt>0</asrwt>
<pdfrwt beam="1">  1       21 0.14604352E+00 0.67369891E+03</pdfrwt>
<pdfrwt beam="2">0</pdfrwt>
<totfact> 0.27204135E+01</totfact>
</mgrwt>
</event>
<event>
 6    1  0.1347953E-004  0.6357018E+03  0.7818608E-02  0.9833985E-01
         21   -1    0    0  501  502  0.00000000000E+00  0.00000000000E+00  0.11839718243E+03  0.11839718243E+03  0.00000000000E+00 0.  1.
         13   -1    0    0    0    0 -0.00000000000E+00 -0.00000000000E+00 -0.10000000000E+04  0.10000000000E+04  0.00000000000E+00 0.  1.
    9000005    2    1    2  501    0  0.34516606674E+02 -0.42826226498E+01 -0.87721710419E+03  0.10833404930E+04  0.63474958752E+03 0.  0.
         13    1    3    3    0    0 -0.24354635189E+03 -0.92100177416E+02 -0.15153821446E+03  0.30126582720E+03  0.00000000000E+00 0.  1.
          1    1    3    3  501    0  0.27806295856E+03  0.87817554766E+02 -0.72567888974E+03  0.78207466578E+03  0.00000000000E+00 0.  1.
         -1    1    1    2    0  502 -0.34516606674E+02  0.42826226498E+01 -0.43857133788E+01  0.35056689446E+02  0.00000000000E+00 0. -1.
<mgrwt>
<rscale>  1 0.63570180E+03</rscale>
<asrwt>0</asrwt>
<pdfrwt beam="1">  1       21 0.18214951E-01 0.63570180E+03</pdfrwt>
<pdfrwt beam="2">0</pdfrwt>
<totfact> 0.26840212E+03</totfact>
</mgrwt>
</event>
<event>
 6    1  0.1347953E-004  0.6613045E+03  0.7818608E-02  0.9785795E-01
         21   -1    0    0  501  502  0.00000000000E+00  0.00000000000E+00  0.14334437603E+03  0.14334437603E+03  0.00000000000E+00 0.  1.
         13   -1    0    0    0    0 -0.00000000000E+00 -0.00000000000E+00 -0.10000000000E+04  0.10000000000E+04  0.00000000000E+00 0.  1.
    9000005    2    1    2  501    0 -0.87048389474E+02  0.36969708386E+02 -0.77087366295E+03  0.10156622462E+04  0.65450699968E+03 0.  0.
         13    1    3    3    0    0  0.23045492155E+03  0.89794549400E+02 -0.91166369996E+02  0.26359787364E+03  0.00000000000E+00 0.  1.
          3    1    3    3  501    0 -0.31750331103E+03 -0.52824841014E+02 -0.67970729295E+03  0.75206437253E+03  0.00000000000E+00 0.  1.
         -3    1    1    2    0  502  0.87048389474E+02 -0.36969708386E+02 -0.85781961022E+02  0.12768212986E+03  0.00000000000E+00 0. -1.
<mgrwt>
<rscale>  1 0.66130446E+03</rscale>
<asrwt>0</asrwt>
<pdfrwt beam="1">  1       21 0.22052980E-01 0.66130446E+03</pdfrwt>
<pdfrwt beam="2">0</pdfrwt>
<totfact> 0.18582143E+03</totfact>
</mgrwt>
</event>
<event>
 6    1  0.1347953E-004  0.6455699E+03  0.7818608E-02  0.9815128E-01
         21   -1    0    0  501  502  0.00000000000E+00  0.00000000000E+00  0.16317995312E+03  0.16317995312E+03  0.00000000000E+00 0. -1.
         13   -1    0    0    0    0 -0.00000000000E+00 -0.00000000000E+00 -0.10000000000E+04  0.10000000000E+04  0.00000000000E+00 0.  1.
    9000005    2    1    2  501    0 -0.19568260179E+02  0.15199205791E+02 -0.89292283921E+03  0.11018492433E+04  0.64509427642E+03 0.  0.
         13    1    3    3    0    0 -0.27121159155E+03 -0.73605098773E+02 -0.74610472508E+03  0.79727391701E+03  0.00000000000E+00 0.  1.
          3    1    3    3  501    0  0.25164333137E+03  0.88804304564E+02 -0.14681811413E+03  0.30457532627E+03  0.00000000000E+00 0.  1.
         -1    1    1    2    0  502  0.19568260179E+02 -0.15199205791E+02  0.56102792323E+02  0.61330709840E+02  0.00000000000E+00 0. -1.
<mgrwt>
<rscale>  1 0.64556995E+03</rscale>
<asrwt>0</asrwt>
<pdfrwt beam="1">  1       21 0.25104607E-01 0.64556995E+03</pdfrwt>
<pdfrwt beam="2">0</pdfrwt>
<totfact> 0.14446361E+03</totfact>
</mgrwt>
</event>
<event>
 6    1  0.1347953E-004  0.6442995E+03  0.7818608E-02  0.9817535E-01
         21   -1    0    0  501  502  0.00000000000E+00  0.00000000000E+00  0.22785302698E+03  0.22785302698E+03  0.00000000000E+00 0. -1.
         13   -1    0    0    0    0 -0.00000000000E+00 -0.00000000000E+00 -0.10000000000E+04  0.10000000000E+04  0.00000000000E+00 0.  1.
    9000005    2    1    2  501    0 -0.40317671215E+02 -0.79399889365E+02 -0.87830901710E+03  0.10892881085E+04  0.63811597429E+03 0.  0.
         13    1    3    3    0    0  0.46443934099E+02  0.17112377429E+03 -0.79028935538E+03  0.80993681875E+03  0.00000000000E+00 0.  1.
          1    1    3    3  501    0 -0.86761605314E+02 -0.25052366365E+03 -0.88019661718E+02  0.27935128970E+03  0.00000000000E+00 0.  1.
         -1    1    1    2    0  502  0.40317671215E+02  0.79399889365E+02  0.10616204408E+03  0.13856491853E+03  0.00000000000E+00 0. -1.
<mgrwt>
<rscale>  1 0.64429951E+03</rscale>
<asrwt>0</asrwt>
<pdfrwt beam="1">  1       21 0.35054311E-01 0.64429951E+03</pdfrwt>
<pdfrwt beam="2">0</pdfrwt>
<totfact> 0.74120623E+02</totfact>
</mgrwt>
</event>
<event>
 6    1  0.1347953E-004  0.6534275E+03  0.7818608E-02  0.9800369E-01
         21   -1    0    0  501  502  0.00000000000E+00  0.00000000000E+00  0.18058953998E+03  0.18058953998E+03  0.00000000000E+00 0. -1.
         13   -1    0    0    0    0 -0.00000000000E+00 -0.00000000000E+00 -0.10000000000E+04  0.10000000000E+04  0.00000000000E+00 0.  1.
    9000005    2    1    2  501    0 -0.18766713998E+02  0.72829292398E+01 -0.89173660782E+03  0.11055142293E+04  0.65311737301E+03 0.  0.
         13    1    3    3    0    0 -0.38890474475E+02  0.21768350424E+03 -0.86458611959E+03  0.89241679456E+03  0.00000000000E+00 0.  1.
          1    1    3    3  501    0  0.20123760477E+02 -0.21040057500E+03 -0.27150488232E+02  0.21309743478E+03  0.00000000000E+00 0.  1.
         -1    1    1    2    0  502  0.18766713998E+02 -0.72829292398E+01  0.72326147802E+02  0.75075310645E+02  0.00000000000E+00 0. -1.
<mgrwt>
<rscale>  1 0.65342753E+03</rscale>
<asrwt>0</asrwt>
<pdfrwt beam="1">  1       21 0.27783005E-01 0.65342753E+03</pdfrwt>
<pdfrwt beam="2">0</pdfrwt>
<totfact> 0.11823549E+03</totfact>
</mgrwt>
</event>
<event>
 6    1  0.1347953E-004  0.6637076E+03  0.7818608E-02  0.9781392E-01
         21   -1    0    0  501  502  0.00000000000E+00  0.00000000000E+00  0.35710780808E+03  0.35710780808E+03  0.00000000000E+00 0. -1.
         13   -1    0    0    0    0 -0.00000000000E+00 -0.00000000000E+00 -0.10000000000E+04  0.10000000000E+04  0.00000000000E+00 0.  1.
    9000005    2    1    2  501    0 -0.11992182638E+03  0.22142287757E+02 -0.87302080385E+03  0.10966645256E+04  0.65240802603E+03 0.  0.
         13    1    3    3    0    0 -0.26077857662E+03 -0.16904978596E+03 -0.16918533589E+03  0.35384597502E+03  0.00000000000E+00 0.  1.
          3    1    3    3  501    0  0.14085675024E+03  0.19119207372E+03 -0.70383546796E+03  0.74281855059E+03  0.00000000000E+00 0.  1.
         -1    1    1    2    0  502  0.11992182638E+03 -0.22142287757E+02  0.23012861193E+03  0.26044328246E+03  0.00000000000E+00 0. -1.
<mgrwt>
<rscale>  1 0.66370758E+03</rscale>
<asrwt>0</asrwt>
<pdfrwt beam="1">  1       21 0.54939661E-01 0.66370758E+03</pdfrwt>
<pdfrwt beam="2">0</pdfrwt>
<totfact> 0.28738671E+02</totfact>
</mgrwt>
</event>
<event>
 6    1  0.1347953E-004  0.6624776E+03  0.7818608E-02  0.9783644E-01
         21   -1    0    0  501  502  0.00000000000E+00  0.00000000000E+00  0.15463341412E+03  0.15463341412E+03  0.00000000000E+00 0.  1.
         13   -1    0    0    0    0 -0.00000000000E+00 -0.00000000000E+00 -0.10000000000E+04  0.10000000000E+04  0.00000000000E+00 0.  1.
    9000005    2    1    2  501    0 -0.31675156879E+02 -0.10083701226E+03 -0.80239882984E+03  0.10405385121E+04  0.65399166239E+03 0.  0.
         13    1    3    3    0    0 -0.27335038109E+03  0.41507050365E+02 -0.68086388010E+03  0.73485977526E+03  0.00000000000E+00 0.  1.
          3    1    3    3  501    0  0.24167522421E+03 -0.14234406262E+03 -0.12153494973E+03  0.30567873686E+03  0.00000000000E+00 0.  1.
         -1    1    1    2    0  502  0.31675156879E+02  0.10083701226E+03 -0.42967756042E+02  0.11409490200E+03  0.00000000000E+00 0. -1.
<mgrwt>
<rscale>  1 0.66247756E+03</rscale>
<asrwt>0</asrwt>
<pdfrwt beam="1">  1       21 0.23789755E-01 0.66247756E+03</pdfrwt>
<pdfrwt beam="2">0</pdfrwt>
<totfact> 0.16035554E+03</totfact>
</mgrwt>
</event>
<event>
 6    1  0.1347953E-004  0.6594510E+03  0.7818608E-02  0.9789205E-01
         21   -1    0    0  501  502  0.00000000000E+00  0.00000000000E+00  0.48304632490E+03  0.48304632490E+03  0.00000000000E+00 0. -1.
         13   -1    0    0    0    0 -0.00000000000E+00 -0.00000000000E+00 -0.10000000000E+04  0.10000000000E+04  0.00000000000E+00 0.  1.
    9000005    2    1    2  501    0 -0.11169389402E+03 -0.75445198280E+02 -0.87776388126E+03  0.10978820628E+04  0.64552930896E+03 0.  0.
         13    1    3    3    0    0  0.62297894363E+02  0.20737406293E+03 -0.67485083494E+03  0.70873738369E+03  0.00000000000E+00 0.  1.
          3    1    3    3  501    0 -0.17399178838E+03 -0.28281926121E+03 -0.20291304633E+03  0.38914467914E+03  0.00000000000E+00 0.  1.
         -1    1    1    2    0  502  0.11169389402E+03  0.75445198280E+02  0.36081020616E+03  0.38516426207E+03  0.00000000000E+00 0. -1.
<mgrwt>
<rscale>  1 0.65945098E+03</rscale>
<asrwt>0</asrwt>
<pdfrwt beam="1">  1       21 0.74314817E-01 0.65945098E+03</pdfrwt>
<pdfrwt beam="2">0</pdfrwt>
<totfact> 0.14636010E+02</totfact>
</mgrwt>
</event>
<event>
 6    1  0.1347953E-004  0.6540072E+03  0.7818608E-02  0.9799289E-01
         21   -1    0    0  501  502  0.00000000000E+00  0.00000000000E+00  0.14572653786E+03  0.14572653786E+03  0.00000000000E+00 0.  1.
         13   -1    0    0    0    0 -0.00000000000E+00 -0.00000000000E+00 -0.10000000000E+04  0.10000000000E+04  0.00000000000E+00 0.  1.
    9000005    2    1    2  501    0 -0.13836145366E+02  0.31338393924E+02 -0.88450755509E+03  0.11000359017E+04  0.65310936011E+03 0.  0.
         13    1    3    3    0    0  0.24657265578E+03 -0.84011952871E+02 -0.12509658294E+03  0.28897272859E+03  0.00000000000E+00 0.  1.
          3    1    3    3  501    0 -0.26040880115E+03  0.11535034679E+03 -0.75941097215E+03  0.81106317315E+03  0.00000000000E+00 0.  1.
         -1    1    1    2    0  502  0.13836145366E+02 -0.31338393924E+02  0.30234092952E+02  0.45690636119E+02  0.00000000000E+00 0. -1.
<mgrwt>
<rscale>  1 0.65400716E+03</rscale>
<asrwt>0</asrwt>
<pdfrwt beam="1">  1       21 0.22419467E-01 0.65400716E+03</pdfrwt>
<pdfrwt beam="2">0</pdfrwt>
<totfact> 0.18003959E+03</totfact>
</mgrwt>
</event>
<event>
 6    1  0.1347953E-004  0.6701733E+03  0.7818608E-02  0.9769645E-01
         21   -1    0    0  501  502  0.00000000000E+00  0.00000000000E+00  0.17058900023E+03  0.17058900023E+03  0.00000000000E+00 0. -1.
         13   -1    0    0    0    0 -0.00000000000E+00 -0.00000000000E+00 -0.10000000000E+04  0.10000000000E+04  0.00000000000E+00 0.  1.
    9000005    2    1    2  501    0 -0.93818814129E+02 -0.55802103122E+02 -0.82284970390E+03  0.10612322665E+04  0.66122344466E+03 0.  0.
         13    1    3    3    0    0 -0.16800848771E+03 -0.30010077012E+03 -0.69556025008E+03  0.77594547853E+03  0.00000000000E+00 0.  1.
          1    1    3    3  501    0  0.74189673581E+02  0.24429866700E+03 -0.12728945382E+03  0.28528678802E+03  0.00000000000E+00 0.  1.
         -3    1    1    2    0  502  0.93818814129E+02  0.55802103122E+02 -0.65612958782E+01  0.10935673368E+03  0.00000000000E+00 0. -1.
<mgrwt>
<rscale>  1 0.67017333E+03</rscale>
<asrwt>0</asrwt>
<pdfrwt beam="1">  1       21 0.26244461E-01 0.67017333E+03</pdfrwt>
<pdfrwt beam="2">0</pdfrwt>
<totfact> 0.13221389E+03</totfact>
</mgrwt>
</event>
<event>
 6    1  0.1347953E-004  0.6576601E+03  0.7818608E-02  0.9792511E-01
         21   -1    0    0  501  502  0.00000000000E+00  0.00000000000E+00  0.25516615289E+03  0.25516615289E+03  0.00000000000E+00 0.  1.
         13   -1    0    0    0    0 -0.00000000000E+00 -0.00000000000E+00 -0.10000000000E+04  0.10000000000E+04  0.00000000000E+00 0.  1.
    9000005    2    1    2  501    0 -0.95112393120E+02 -0.31208013162E+02 -0.87271171164E+03  0.10927683215E+04  0.64999735799E+03 0.  0.
         13    1    3    3    0    0 -0.93272396410E+02  0.24584333482E+03 -0.11686446417E+03  0.28774292032E+03  0.00000000000E+00 0.  1.
          3    1    3    3  501    0 -0.18399967108E+01 -0.27705134799E+03 -0.75584724747E+03  0.80502540116E+03  0.00000000000E+00 0.  1.
         -1    1    1    2    0  502  0.95112393120E+02  0.31208013162E+02  0.12787786452E+03  0.16239783141E+03  0.00000000000E+00 0. -1.
<mgrwt>
<rscale>  1 0.65766015E+03</rscale>
<asrwt>0</asrwt>
<pdfrwt beam="1">  1       21 0.39256330E-01 0.65766015E+03</pdfrwt>
<pdfrwt beam="2">0</pdfrwt>
<totfact> 0.58681045E+02</totfact>
</mgrwt>
</event>
<event>
 6    1  0.1347953E-004  0.6340172E+03  0.7818608E-02  0.9837241E-01
         21   -1    0    0  501  502  0.00000000000E+00  0.00000000000E+00  0.15674536363E+03  0.15674536363E+03  0.00000000000E+00 0.  1.
         13   -1    0    0    0    0 -0.00000000000E+00 -0.00000000000E+00 -0.10000000000E+04  0.10000000000E+04  0.00000000000E+00 0.  1.
    9000005    2    1    2  501    0  0.90548698838E+02  0.45824843631E+02 -0.84356267215E+03  0.10552609902E+04  0.62584246623E+03 0.  0.
         13    1    3    3    0    0  0.89949221406E+02  0.32045669657E+03 -0.60931572308E+03  0.69429749186E+03  0.00000000000E+00 0.  1.
          3    1    3    3  501    0  0.59947743195E+00 -0.27463185294E+03 -0.23424694907E+03  0.36096349839E+03  0.00000000000E+00 0.  1.
         -3    1    1    2    0  502 -0.90548698838E+02 -0.45824843631E+02  0.30803577843E+00  0.10148437338E+03  0.00000000000E+00 0. -1.
<mgrwt>
<rscale>  1 0.63401717E+03</rscale>
<asrwt>0</asrwt>
<pdfrwt beam="1">  1       21 0.24114671E-01 0.63401717E+03</pdfrwt>
<pdfrwt beam="2">0</pdfrwt>
<totfact> 0.15638731E+03</totfact>
</mgrwt>
</event>
<event>
 6    1  0.1347953E-004  0.6370371E+03  0.7818608E-02  0.9831412E-01
         21   -1    0    0  501  502  0.00000000000E+00  0.00000000000E+00  0.39386575581E+03  0.39386575581E+03  0.00000000000E+00 0. -1.
         13   -1    0    0    0    0 -0.00000000000E+00 -0.00000000000E+00 -0.10000000000E+04  0.10000000000E+04  0.00000000000E+00 0.  1.
    9000005    2    1    2  501    0 -0.91241675344E+01  0.19528562291E+02 -0.89810832562E+03  0.11010971110E+04  0.63667233964E+03 0.  0.
         13    1    3    3    0    0 -0.83578925609E+02  0.22093528333E+03 -0.84842714015E+03  0.88069656997E+03  0.00000000000E+00 0.  1.
          1    1    3    3  501    0  0.74454758075E+02 -0.20140672104E+03 -0.49681185470E+02  0.22040054099E+03  0.00000000000E+00 0.  1.
         -3    1    1    2    0  502  0.91241675344E+01 -0.19528562291E+02  0.29197408143E+03  0.29276864485E+03  0.00000000000E+00 0. -1.
<mgrwt>
<rscale>  1 0.63703711E+03</rscale>
<asrwt>0</asrwt>
<pdfrwt beam="1">  1       21 0.60594730E-01 0.63703711E+03</pdfrwt>
<pdfrwt beam="2">0</pdfrwt>
<totfact> 0.23244735E+02</totfact>
</mgrwt>
</event>
<event>
 6    1  0.1347953E-004  0.6605746E+03  0.7818608E-02  0.9787137E-01
         21   -1    0    0  501  502  0.00000000000E+00  0.00000000000E+00  0.14126518113E+03  0.14126518113E+03  0.00000000000E+00 0.  1.
         13   -1    0    0    0    0 -0.00000000000E+00 -0.00000000000E+00 -0.10000000000E+04  0.10000000000E+04  0.00000000000E+00 0.  1.
    9000005    2    1    2  501    0  0.64186555629E+02  0.12826335946E+02 -0.84801700981E+03  0.10749379601E+04  0.65732361919E+03 0.  0.
         13    1    3    3    0    0 -0.58215368954E+02 -0.28540582318E+03 -0.20674715367E+03  0.35719728252E+03  0.00000000000E+00 0.  1.
          1    1    3    3  501    0  0.12240192458E+03  0.29823215913E+03 -0.64126985614E+03  0.71774067759E+03  0.00000000000E+00 0.  1.
         -1    1    1    2    0  502 -0.64186555629E+02 -0.12826335946E+02 -0.10717809056E+02  0.66327221020E+02  0.00000000000E+00 0. -1.
<mgrwt>
<rscale>  1 0.66057458E+03</rscale>
<asrwt>0</asrwt>
<pdfrwt beam="1">  1       21 0.21733104E-01 0.66057458E+03</pdfrwt>
<pdfrwt beam="2">0</pdfrwt>
<totfact> 0.19115583E+03</totfact>
</mgrwt>
</event>
<event>
 6    1  0.1347953E-004  0.6457625E+03  0.7818608E-02  0.9814763E-01
         21   -1    0    0  501  502  0.00000000000E+00  0.00000000000E+00  0.37693700327E+03  0.37693700327E+03  0.00000000000E+00 0. -1.
         13   -1    0    0    0    0 -0.00000000000E+00 -0.00000000000E+00 -0.10000000000E+04  0.10000000000E+04  0.00000000000E+00 0.  1.
    9000005    2    1    2  501    0  0.41422004430E+02 -0.61108776959E+01 -0.89397150211E+03  0.11028119523E+04  0.64440362374E+03 0.  0.
         13    1    3    3    0    0 -0.26273285437E+02 -0.31984937385E+03 -0.38663120634E+03  0.50247148894E+03  0.00000000000E+00 0.  1.
          3    1    3    3  501    0  0.67695289868E+02  0.31373849616E+03 -0.50734029577E+03  0.60034046337E+03  0.00000000000E+00 0.  1.
         -1    1    1    2    0  502 -0.41422004430E+02  0.61108776959E+01  0.27090850538E+03  0.27412505097E+03  0.00000000000E+00 0. -1.
<mgrwt>
<rscale>  1 0.64576246E+03</rscale>
<asrwt>0</asrwt>
<pdfrwt beam="1">  1       21 0.57990307E-01 0.64576246E+03</pdfrwt>
<pdfrwt beam="2">0</pdfrwt>
<totfact> 0.25584225E+02</totfact>
</mgrwt>
</event>
<event>
 6    1  0.1347953E-004  0.6491309E+03  0.7818608E-02  0.9808411E-01
         21   -1    0    0  501  502  0.00000000000E+00  0.00000000000E+00  0.57312033758E+03  0.57312033758E+03  0.00000000000E+00 0. -1.
         13   -1    0    0    0    0 -0.00000000000E+00 -0.00000000000E+00 -0.10000000000E+04  0.10000000000E+04  0.00000000000E+00 0.  1.
    9000005    2    1    2  501    0 -0.54814542361E+02 -0.70481438890E+01 -0.89285200536E+03  0.11038820881E+04  0.64677403362E+03 0.  0.
         13    1    3    3    0    0  0.21303442118E+02 -0.24904406893E+03 -0.96222206003E+02  0.26783483314E+03  0.00000000000E+00 0.  1.
          1    1    3    3  501    0 -0.76117984478E+02  0.24199592504E+03 -0.79662979936E+03  0.83604725496E+03  0.00000000000E+00 0.  1.
         -3    1    1    2    0  502  0.54814542361E+02  0.70481438890E+01  0.46597234295E+03  0.46923824948E+03  0.00000000000E+00 0. -1.
<mgrwt>
<rscale>  1 0.64913093E+03</rscale>
<asrwt>0</asrwt>
<pdfrwt beam="1">  1       21 0.88172357E-01 0.64913093E+03</pdfrwt>
<pdfrwt beam="2">0</pdfrwt>
<totfact> 0.98279873E+01</totfact>
</mgrwt>
</event>
<event>
 6    1  0.1347953E-004  0.6467156E+03  0.7818608E-02  0.9812962E-01
         21   -1    0    0  501  502  0.00000000000E+00  0.00000000000E+00  0.16340300657E+03  0.16340300657E+03  0.00000000000E+00 0.  1.
         13   -1    0    0    0    0 -0.00000000000E+00 -0.00000000000E+00 -0.10000000000E+04  0.10000000000E+04  0.00000000000E+00 0.  1.
    9000005    2    1    2  501    0  0.25319881718E+02  0.27532856321E+02 -0.88879860739E+03  0.10991833594E+04  0.64563297499E+03 0.  0.
         13    1    3    3    0    0 -0.24172512452E+03  0.66716219669E+02 -0.10796433179E+03  0.27301719127E+03  0.00000000000E+00 0.  1.
          1    1    3    3  501    0  0.26704500624E+03 -0.39183363347E+02 -0.78083427561E+03  0.82616616808E+03  0.00000000000E+00 0.  1.
         -3    1    1    2    0  502 -0.25319881718E+02 -0.27532856321E+02  0.52201613959E+02  0.64219647207E+02  0.00000000000E+00 0. -1.
<mgrwt>
<rscale>  1 0.64671562E+03</rscale>
<asrwt>0</asrwt>
<pdfrwt beam="1">  1       21 0.25138923E-01 0.64671562E+03</pdfrwt>
<pdfrwt beam="2">0</pdfrwt>
<totfact> 0.14406846E+03</totfact>
</mgrwt>
</event>
<event>
 6    1  0.1347953E-004  0.6601610E+03  0.7818608E-02  0.9787897E-01
         21   -1    0    0  501  502  0.00000000000E+00  0.00000000000E+00  0.17084456596E+03  0.17084456596E+03  0.00000000000E+00 0.  1.
         13   -1    0    0    0    0 -0.00000000000E+00 -0.00000000000E+00 -0.10000000000E+04  0.10000000000E+04  0.00000000000E+00 0.  1.
    9000005    2    1    2  501    0  0.23578552661E+02 -0.14850547890E+02 -0.88754808008E+03  0.11061438084E+04  0.65957262185E+03 0.  0.
         13    1    3    3    0    0 -0.90386116498E+01  0.27682765879E+03 -0.71242425555E+03  0.76437135548E+03  0.00000000000E+00 0.  1.
          3    1    3    3  501    0  0.32617164311E+02 -0.29167820668E+03 -0.17512382452E+03  0.34177245292E+03  0.00000000000E+00 0.  1.
         -1    1    1    2    0  502 -0.23578552661E+02  0.14850547890E+02  0.58392646039E+02  0.64700757567E+02  0.00000000000E+00 0. -1.
<mgrwt>
<rscale>  1 0.66016099E+03</rscale>
<asrwt>0</asrwt>
<pdfrwt beam="1">  1       21 0.26283779E-01 0.66016099E+03</pdfrwt>
<pdfrwt beam="2">0</pdfrwt>
<totfact> 0.13189529E+03</totfact>
</mgrwt>
</event>
<event>
 6    1  0.1347953E-004  0.6553302E+03  0.7818608E-02  0.9796829E-01
         21   -1    0    0  501  502  0.00000000000E+00  0.00000000000E+00  0.17193428060E+03  0.17193428060E+03  0.00000000000E+00 0.  1.
         13   -1    0    0    0    0 -0.00000000000E+00 -0.00000000000E+00 -0.10000000000E+04  0.10000000000E+04  0.00000000000E+00 0.  1.
    9000005    2    1    2  501    0  0.40522941432E+02 -0.56453782307E+02 -0.87118827475E+03  0.10901498499E+04  0.65163528675E+03 0.  0.
         13    1    3    3    0    0 -0.22292776848E+03  0.19010260347E+03 -0.35362968689E+03  0.45922733505E+03  0.00000000000E+00 0.  1.
          1    1    3    3  501    0  0.26345070991E+03 -0.24655638578E+03 -0.51755858786E+03  0.63092251489E+03  0.00000000000E+00 0.  1.
         -3    1    1    2    0  502 -0.40522941432E+02  0.56453782307E+02  0.43122555357E+02  0.81784430667E+02  0.00000000000E+00 0. -1.
<mgrwt>
<rscale>  1 0.65533021E+03</rscale>
<asrwt>0</asrwt>
<pdfrwt beam="1">  1       21 0.26451427E-01 0.65533021E+03</pdfrwt>
<pdfrwt beam="2">0</pdfrwt>
<totfact> 0.13028645E+03</totfact>
</mgrwt>
</event>
<event>
 6    1  0.1347953E-004  0.8090812E+03  0.7818608E-02  0.9546965E-01
         21   -1    0    0  501  502  0.00000000000E+00  0.00000000000E+00  0.37192400359E+03  0.37192400359E+03  0.00000000000E+00 0.  1.
         13   -1    0    0    0    0 -0.00000000000E+00 -0.00000000000E+00 -0.10000000000E+04  0.10000000000E+04  0.00000000000E+00 0.  1.
    9000005    2    1    2  501    0  0.11111480452E+03  0.13539771622E+02 -0.81859147044E+03  0.11509580084E+04  0.80130051563E+03 0.  0.
         13    1    3    3    0    0 -0.20167899888E+03  0.17197639468E+03 -0.50751438893E+01  0.26509631457E+03  0.00000000000E+00 0.  1.
          1    1    3    3  501    0  0.31279380340E+03 -0.15843662306E+03 -0.81351632655E+03  0.88586169380E+03  0.00000000000E+00 0.  1.
         -1    1    1    2    0  502 -0.11111480452E+03 -0.13539771622E+02  0.19051547403E+03  0.22096599522E+03  0.00000000000E+00 0. -1.
<mgrwt>
<rscale>  1 0.80908117E+03</rscale>
<asrwt>0</asrwt>
<pdfrwt beam="1">  1       21 0.57219076E-01 0.80908117E+03</pdfrwt>
<pdfrwt beam="2">0</pdfrwt>
<totfact> 0.25946867E+02</totfact>
</mgrwt>
</event>
<event>
 6    1  0.1347953E-004  0.6465072E+03  0.7818608E-02  0.9813355E-01
         21   -1    0    0  501  502  0.00000000000E+00  0.00000000000E+00  0.21816354220E+03  0.21816354220E+03  0.00000000000E+00 0. -1.
         13   -1    0    0    0    0 -0.00000000000E+00 -0.00000000000E+00 -0.10000000000E+04  0.10000000000E+04  0.00000000000E+00 0.  1.
    9000005    2    1    2  501    0 -0.84492715439E+01 -0.34377509248E+02 -0.89245430322E+03  0.11020191878E+04  0.64553729839E+03 0.  0.
         13    1    3    3    0    0 -0.31453719676E+03 -0.82217884812E+02 -0.56047125417E+03  0.64793630511E+03  0.00000000000E+00 0.  1.
          1    1    3    3  501    0  0.30608792522E+03  0.47840375564E+02 -0.33198304906E+03  0.45408288270E+03  0.00000000000E+00 0.  1.
         -1    1    1    2    0  502  0.84492715439E+01  0.34377509248E+02  0.11061784542E+03  0.11614435439E+03  0.00000000000E+00 0. -1.
<mgrwt>
<rscale>  1 0.64650724E+03</rscale>
<asrwt>0</asrwt>
<pdfrwt beam="1">  1       21 0.33563621E-01 0.64650724E+03</pdfrwt>
<pdfrwt beam="2">0</pdfrwt>
<totfact> 0.80956531E+02</totfact>
</mgrwt>
</event>
<event>
 6    1  0.1347953E-004  0.6476354E+03  0.7818608E-02  0.9811226E-01
         21   -1    0    0  501  502  0.00000000000E+00  0.00000000000E+00  0.13552397293E+03  0.13552397293E+03  0.00000000000E+00 0.  1.
         13   -1    0    0    0    0 -0.00000000000E+00 -0.00000000000E+00 -0.10000000000E+04  0.10000000000E+04  0.00000000000E+00 0.  1.
    9000005    2    1    2  501    0 -0.29004505911E+02  0.36224905419E+02 -0.87434861714E+03  0.10880795510E+04  0.64597066490E+03 0.  0.
         13    1    3    3    0    0 -0.25315505515E+03 -0.15179329195E+03 -0.21027149536E+03  0.36241245452E+03  0.00000000000E+00 0.  1.
          3    1    3    3  501    0  0.22415054924E+03  0.18801819737E+03 -0.66407712179E+03  0.72566709650E+03  0.00000000000E+00 0.  1.
         -1    1    1    2    0  502  0.29004505911E+02 -0.36224905419E+02  0.98725900741E+01  0.47444421911E+02  0.00000000000E+00 0. -1.
<mgrwt>
<rscale>  1 0.64763540E+03</rscale>
<asrwt>0</asrwt>
<pdfrwt beam="1">  1       21 0.20849841E-01 0.64763540E+03</pdfrwt>
<pdfrwt beam="2">0</pdfrwt>
<totfact> 0.20720003E+03</totfact>
</mgrwt>
</event>
<event>
 6    1  0.1347953E-004  0.6367144E+03  0.7818608E-02  0.9832033E-01
         21   -1    0    0  501  502  0.00000000000E+00  0.00000000000E+00  0.12775957984E+03  0.12775957984E+03  0.00000000000E+00 0.  1.
         13   -1    0    0    0    0 -0.00000000000E+00 -0.00000000000E+00 -0.10000000000E+04  0.10000000000E+04  0.00000000000E+00 0.  1.
    9000005    2    1    2  501    0 -0.21344789358E+01 -0.27855538749E+02 -0.89025840294E+03  0.10945160129E+04  0.63610124309E+03 0.  0.
         13    1    3    3    0    0  0.30858215463E+03 -0.85346445095E+02 -0.42516517966E+03  0.53223339978E+03  0.00000000000E+00 0.  1.
          3    1    3    3  501    0 -0.31071663356E+03  0.57490906347E+02 -0.46509322328E+03  0.56228261313E+03  0.00000000000E+00 0.  1.
         -3    1    1    2    0  502  0.21344789358E+01  0.27855538749E+02  0.18017982781E+02  0.33243566938E+02  0.00000000000E+00 0. -1.
<mgrwt>
<rscale>  1 0.63671444E+03</rscale>
<asrwt>0</asrwt>
<pdfrwt beam="1">  1       21 0.19655319E-01 0.63671444E+03</pdfrwt>
<pdfrwt beam="2">0</pdfrwt>
<totfact> 0.23214557E+03</totfact>
</mgrwt>
</event>
<event>
 6    1  0.1347953E-004  0.6809721E+03  0.7818608E-02  0.9750337E-01
         21   -1    0    0  501  502  0.00000000000E+00  0.00000000000E+00  0.13542937517E+03  0.13542937517E+03  0.00000000000E+00 0.  1.
         13   -1    0    0    0    0 -0.00000000000E+00 -0.00000000000E+00 -0.10000000000E+04  0.10000000000E+04  0.00000000000E+00 0.  1.
    9000005    2    1    2  501    0 -0.32276984296E+02  0.13905414834E+02 -0.86423335666E+03  0.11002828529E+04  0.68006462735E+03 0.  0.
         13    1    3    3    0    0  0.30147987817E+02  0.50378616146E+02 -0.97021466425E+03  0.97198940368E+03  0.00000000000E+00 0.  1.
          1    1    3    3  501    0 -0.62424972113E+02 -0.36473201312E+02  0.10598130759E+03  0.12829344923E+03  0.00000000000E+00 0.  1.
         -1    1    1    2    0  502  0.32276984296E+02 -0.13905414834E+02 -0.33726816886E+00  0.35146522258E+02  0.00000000000E+00 0. -1.
<mgrwt>
<rscale>  1 0.68097214E+03</rscale>
<asrwt>0</asrwt>
<pdfrwt beam="1">  1       21 0.20835288E-01 0.68097214E+03</pdfrwt>
<pdfrwt beam="2">0</pdfrwt>
<totfact> 0.20719756E+03</totfact>
</mgrwt>
</event>
<event>
 6    1  0.1347953E-004  0.6919773E+03  0.7818608E-02  0.9731051E-01
         21   -1    0    0  501  502  0.00000000000E+00  0.00000000000E+00  0.16141196656E+03  0.16141196656E+03  0.00000000000E+00 0.  1.
         13   -1    0    0    0    0 -0.00000000000E+00 -0.00000000000E+00 -0.10000000000E+04  0.10000000000E+04  0.00000000000E+00 0.  1.
    9000005    2    1    2  501    0  0.31579374588E+02  0.45322017317E+01 -0.87333063733E+03  0.11142436904E+04  0.69124149305E+03 0.  0.
         13    1    3    3    0    0  0.33891284855E+02  0.87656833592E+02 -0.97690652720E+03  0.98141668141E+03  0.00000000000E+00 0.  1.
          1    1    3    3  501    0 -0.23119102667E+01 -0.83124631861E+02  0.10357588987E+03  0.13282700897E+03  0.00000000000E+00 0.  1.
         -3    1    1    2    0  502 -0.31579374588E+02 -0.45322017317E+01  0.34742603895E+02  0.47168276175E+02  0.00000000000E+00 0. -1.
<mgrwt>
<rscale>  1 0.69197731E+03</rscale>
<asrwt>0</asrwt>
<pdfrwt beam="1">  1       21 0.24832610E-01 0.69197731E+03</pdfrwt>
<pdfrwt beam="2">0</pdfrwt>
<totfact> 0.14723667E+03</totfact>
</mgrwt>
</event>
<event>
 6    1  0.1347953E-004  0.6518803E+03  0.7818608E-02  0.9803257E-01
         21   -1    0    0  501  502  0.00000000000E+00  0.00000000000E+00  0.17658699046E+03  0.17658699046E+03  0.00000000000E+00 0.  1.
         13   -1    0    0    0    0 -0.00000000000E+00 -0.00000000000E+00 -0.10000000000E+04  0.10000000000E+04  0.00000000000E+00 0.  1.
    9000005    2    1    2  501    0  0.17454262993E+02  0.36300682903E+02 -0.88732461415E+03  0.11010417452E+04  0.65063473851E+03 0.  0.
         13    1    3    3    0    0  0.30253069459E+03  0.17058188155E+01 -0.68770212709E+03  0.75130682587E+03  0.00000000000E+00 0.  1.
          3    1    3    3  501    0 -0.28507643160E+03  0.34594864088E+02 -0.19962248706E+03  0.34973491935E+03  0.00000000000E+00 0.  1.
         -1    1    1    2    0  502 -0.17454262993E+02 -0.36300682903E+02  0.63911604603E+02  0.75545245243E+02  0.00000000000E+00 0. -1.
<mgrwt>
<rscale>  1 0.65188032E+03</rscale>
<asrwt>0</asrwt>
<pdfrwt beam="1">  1       21 0.27167229E-01 0.65188032E+03</pdfrwt>
<pdfrwt beam="2">0</pdfrwt>
<totfact> 0.12361763E+03</totfact>
</mgrwt>
</event>
<event>
 6    1  0.1347953E-004  0.6481008E+03  0.7818608E-02  0.9810349E-01
         21   -1    0    0  501  502  0.00000000000E+00  0.00000000000E+00  0.13411171745E+03  0.13411171745E+03  0.00000000000E+00 0.  1.
         13   -1    0    0    0    0 -0.00000000000E+00 -0.00000000000E+00 -0.10000000000E+04  0.10000000000E+04  0.00000000000E+00 0.  1.
    9000005    2    1    2  501    0 -0.63703146350E+02 -0.63286062208E+01 -0.84863835037E+03  0.10678116249E+04  0.64493137189E+03 0.  0.
         13    1    3    3    0    0 -0.17850260675E+03  0.57811571352E+02  0.20530804048E+02  0.18875082070E+03  0.00000000000E+00 0.  1.
          1    1    3    3  501    0  0.11479946041E+03 -0.64140177572E+02 -0.86916915442E+03  0.87906080420E+03  0.00000000000E+00 0.  1.
         -1    1    1    2    0  502  0.63703146350E+02  0.63286062208E+01 -0.17249932177E+02  0.66300092546E+02  0.00000000000E+00 0. -1.
<mgrwt>
<rscale>  1 0.64810078E+03</rscale>
<asrwt>0</asrwt>
<pdfrwt beam="1">  1       21 0.20632571E-01 0.64810078E+03</pdfrwt>
<pdfrwt beam="2">0</pdfrwt>
<totfact> 0.21141459E+03</totfact>
</mgrwt>
</event>
<event>
 6    1  0.1347953E-004  0.6927348E+03  0.7818608E-02  0.9729738E-01
         21   -1    0    0  501  502  0.00000000000E+00  0.00000000000E+00  0.58695927121E+03  0.58695927121E+03  0.00000000000E+00 0. -1.
         13   -1    0    0    0    0 -0.00000000000E+00 -0.00000000000E+00 -0.10000000000E+04  0.10000000000E+04  0.00000000000E+00 0.  1.
    9000005    2    1    2  501    0 -0.12813903046E+03 -0.81161110582E+02 -0.86617245681E+03  0.11091150498E+04  0.67592509329E+03 0.  0.
         13    1    3    3    0    0  0.10786081750E+03 -0.11199980672E+03  0.49370034285E+02  0.16314200239E+03  0.00000000000E+00 0.  1.
          3    1    3    3  501    0 -0.23599984795E+03  0.30838696143E+02 -0.91554249110E+03  0.94597304741E+03  0.00000000000E+00 0.  1.
         -1    1    1    2    0  502  0.12813903046E+03  0.81161110582E+02  0.45313172802E+03  0.47784422141E+03  0.00000000000E+00 0. -1.
<mgrwt>
<rscale>  1 0.69273478E+03</rscale>
<asrwt>0</asrwt>
<pdfrwt beam="1">  1       21 0.90301424E-01 0.69273478E+03</pdfrwt>
<pdfrwt beam="2">0</pdfrwt>
<totfact> 0.92291016E+01</totfact>
</mgrwt>
</event>
<event>
 6    1  0.1347953E-004  0.6448583E+03  0.7818608E-02  0.9816475E-01
         21   -1    0    0  501  502  0.00000000000E+00  0.00000000000E+00  0.13139247147E+03  0.13139247147E+03  0.00000000000E+00 0.  1.
         13   -1    0    0    0    0 -0.00000000000E+00 -0.00000000000E+00 -0.10000000000E+04  0.10000000000E+04  0.00000000000E+00 0.  1.
    9000005    2    1    2  501    0  0.35637733141E+01 -0.35267321432E+02 -0.88277274802E+03  0.10932199960E+04  0.64388333614E+03 0.  0.
         13    1    3    3    0    0 -0.22644311692E+03 -0.30854212275E+02 -0.82494274046E+03  0.85601343018E+03  0.00000000000E+00 0.  1.
          1    1    3    3  501    0  0.23000689024E+03 -0.44131091572E+01 -0.57830007557E+02  0.23720656581E+03  0.00000000000E+00 0.  1.
         -3    1    1    2    0  502 -0.35637733141E+01  0.35267321432E+02  0.14165219487E+02  0.38172475481E+02  0.00000000000E+00 0. -1.
<mgrwt>
<rscale>  1 0.64485831E+03</rscale>
<asrwt>0</asrwt>
<pdfrwt beam="1">  1       21 0.20214226E-01 0.64485831E+03</pdfrwt>
<pdfrwt beam="2">0</pdfrwt>
<totfact> 0.21992954E+03</totfact>
</mgrwt>
</event>
<event>
 6    1  0.1347953E-004  0.6382852E+03  0.7818608E-02  0.9829013E-01
         21   -1    0    0  501  502  0.00000000000E+00  0.00000000000E+00  0.11242313352E+03  0.11242313352E+03  0.00000000000E+00 0.  1.
         13   -1    0    0    0    0 -0.00000000000E+00 -0.00000000000E+00 -0.10000000000E+04  0.10000000000E+04  0.00000000000E+00 0.  1.
    9000005    2    1    2  501    0 -0.41194363340E+00 -0.20279428287E+02 -0.88614350897E+03  0.10920889401E+04  0.63796278077E+03 0.  0.
         13    1    3    3    0    0  0.24900983033E+03 -0.18776501009E+02 -0.10289606936E+03  0.27008527113E+03  0.00000000000E+00 0.  1.
          3    1    3    3  501    0 -0.24942177396E+03 -0.15029272781E+01 -0.78324743960E+03  0.82200366895E+03  0.00000000000E+00 0.  1.
         -3    1    1    2    0  502  0.41194363340E+00  0.20279428287E+02 -0.14333575120E+01  0.20334193442E+02  0.00000000000E+00 0. -1.
<mgrwt>
<rscale>  1 0.63828515E+03</rscale>
<asrwt>0</asrwt>
<pdfrwt beam="1">  1       21 0.17295866E-01 0.63828515E+03</pdfrwt>
<pdfrwt beam="2">0</pdfrwt>
<totfact> 0.29603801E+03</totfact>
</mgrwt>
</event>
<event>
 6    1  0.1347953E-004  0.6835331E+03  0.7818608E-02  0.9745815E-01
         21   -1    0    0  501  502  0.00000000000E+00  0.00000000000E+00  0.16204911035E+03  0.16204911035E+03  0.00000000000E+00 0.  1.
         13   -1    0    0    0    0 -0.00000000000E+00 -0.00000000000E+00 -0.10000000000E+04  0.10000000000E+04  0.00000000000E+00 0.  1.
    9000005    2    1    2  501    0 -0.79226895731E+02 -0.35452914874E+01 -0.83968665090E+03  0.10827239380E+04  0.67891677262E+03 0.  0.
         13    1    3    3    0    0 -0.18299461233E+03  0.18260307253E+03 -0.83006468873E+03  0.86938961215E+03  0.00000000000E+00 0.  1.
          3    1    3    3  501    0  0.10376771660E+03 -0.18614836401E+03 -0.96219621663E+01  0.21333432586E+03  0.00000000000E+00 0.  1.
         -3    1    1    2    0  502  0.79226895731E+02  0.35452914874E+01  0.17357612484E+01  0.79325172335E+02  0.00000000000E+00 0. -1.
<mgrwt>
<rscale>  1 0.68353307E+03</rscale>
<asrwt>0</asrwt>
<pdfrwt beam="1">  1       21 0.24930632E-01 0.68353307E+03</pdfrwt>
<pdfrwt beam="2">0</pdfrwt>
<totfact> 0.14616389E+03</totfact>
</mgrwt>
</event>
<event>
 6    1  0.1347953E-004  0.6591232E+03  0.7818608E-02  0.9789809E-01
         21   -1    0    0  501  502  0.00000000000E+00  0.00000000000E+00  0.13979082345E+03  0.13979082345E+03  0.00000000000E+00 0.  1.
         13   -1    0    0    0    0 -0.00000000000E+00 -0.00000000000E+00 -0.10000000000E+04  0.10000000000E+04  0.00000000000E+00 0.  1.
    9000005    2    1    2  501    0  0.99237963323E+00 -0.52148036602E+02 -0.86489636633E+03  0.10874231589E+04  0.65705631383E+03 0.  0.
         13    1    3    3    0    0 -0.18261790791E+03 -0.27396236942E+03 -0.64826646020E+03  0.72708602212E+03  0.00000000000E+00 0.  1.
          1    1    3    3  501    0  0.18361028754E+03  0.22181433281E+03 -0.21662990614E+03  0.36033713681E+03  0.00000000000E+00 0.  1.
         -1    1    1    2    0  502 -0.99237963323E+00  0.52148036602E+02  0.46871897818E+01  0.52367664516E+02  0.00000000000E+00 0. -1.
<mgrwt>
<rscale>  1 0.65912321E+03</rscale>
<asrwt>0</asrwt>
<pdfrwt beam="1">  1       21 0.21506280E-01 0.65912321E+03</pdfrwt>
<pdfrwt beam="2">0</pdfrwt>
<totfact> 0.19508323E+03</totfact>
</mgrwt>
</event>
<event>
 6    1  0.1347953E-004  0.6447672E+03  0.7818608E-02  0.9816648E-01
         21   -1    0    0  501  502  0.00000000000E+00  0.00000000000E+00  0.47868186156E+03  0.47868186156E+03  0.00000000000E+00 0. -1.
         13   -1    0    0    0    0 -0.00000000000E+00 -0.00000000000E+00 -0.10000000000E+04  0.10000000000E+04  0.00000000000E+00 0.  1.
    9000005    2    1    2  501    0  0.19261750125E+02 -0.61150421694E+01 -0.89576799818E+03  0.11036870533E+04  0.64445046071E+03 0.  0.
         13    1    3    3    0    0  0.10464516022E+03 -0.99584070547E+02 -0.95361902603E+03  0.96449823404E+03  0.00000000000E+00 0.  1.
          1    1    3    3  501    0 -0.85383410099E+02  0.93469028377E+02  0.57851027845E+02  0.13918881927E+03  0.00000000000E+00 0.  1.
         -3    1    1    2    0  502 -0.19261750125E+02  0.61150421694E+01  0.37444985974E+03  0.37499480826E+03  0.00000000000E+00 0. -1.
<mgrwt>
<rscale>  1 0.64476725E+03</rscale>
<asrwt>0</asrwt>
<pdfrwt beam="1">  1       21 0.73643361E-01 0.64476725E+03</pdfrwt>
<pdfrwt beam="2">0</pdfrwt>
<totfact> 0.14971165E+02</totfact>
</mgrwt>
</event>
<event>
 6    1  0.1347953E-004  0.6568387E+03  0.7818608E-02  0.9794031E-01
         21   -1    0    0  501  502  0.00000000000E+00  0.00000000000E+00  0.15587493533E+03  0.15587493533E+03  0.00000000000E+00 0.  1.
         13   -1    0    0    0    0 -0.00000000000E+00 -0.00000000000E+00 -0.10000000000E+04  0.10000000000E+04  0.00000000000E+00 0.  1.
    9000005    2    1    2  501    0 -0.27054474147E+02 -0.12703542207E+03 -0.73952863751E+03  0.98911056381E+03  0.64386889870E+03 0.  0.
         13    1    3    3    0    0  0.11696820773E+03 -0.27865375683E+03 -0.71785168709E+03  0.77887131316E+03  0.00000000000E+00 0.  1.
          1    1    3    3  501    0 -0.14402268188E+03  0.15161833476E+03 -0.21676950418E+02  0.21023925064E+03  0.00000000000E+00 0.  1.
         -3    1    1    2    0  502  0.27054474147E+02  0.12703542207E+03 -0.10459642717E+03  0.16676437152E+03  0.00000000000E+00 0. -1.
<mgrwt>
<rscale>  1 0.65683872E+03</rscale>
<asrwt>0</asrwt>
<pdfrwt beam="1">  1       21 0.23980759E-01 0.65683872E+03</pdfrwt>
<pdfrwt beam="2">0</pdfrwt>
<totfact> 0.15791573E+03</totfact>
</mgrwt>
</event>
<event>
 6    1  0.1347953E-004  0.6500211E+03  0.7818608E-02  0.9806740E-01
         21   -1    0    0  501  502  0.00000000000E+00  0.00000000000E+00  0.14753289769E+03  0.14753289769E+03  0.00000000000E+00 0.  1.
         13   -1    0    0    0    0 -0.00000000000E+00 -0.00000000000E+00 -0.10000000000E+04  0.10000000000E+04  0.00000000000E+00 0.  1.
    9000005    2    1    2  501    0  0.61778734180E+02  0.92029551707E+01 -0.86679648720E+03  0.10834498449E+04  0.64701322232E+03 0.  0.
         13    1    3    3    0    0 -0.18379201301E+02  0.25689292419E+03 -0.10453202847E+03  0.27795451879E+03  0.00000000000E+00 0.  1.
          1    1    3    3  501    0  0.80157935482E+02 -0.24768996902E+03 -0.76226445873E+03  0.80549532613E+03  0.00000000000E+00 0.  1.
         -3    1    1    2    0  502 -0.61778734180E+02 -0.92029551707E+01  0.14329384890E+02  0.64083052769E+02  0.00000000000E+00 0. -1.
<mgrwt>
<rscale>  1 0.65002109E+03</rscale>
<asrwt>0</asrwt>
<pdfrwt beam="1">  1       21 0.22697368E-01 0.65002109E+03</pdfrwt>
<pdfrwt beam="2">0</pdfrwt>
<totfact> 0.17581980E+03</totfact>
</mgrwt>
</event>
<event>
 6    1  0.1347953E-004  0.6377114E+03  0.7818608E-02  0.9830115E-01
         21   -1    0    0  501  502  0.00000000000E+00  0.00000000000E+00  0.34110569699E+03  0.34110569699E+03  0.00000000000E+00 0. -1.
         13   -1    0    0    0    0 -0.00000000000E+00 -0.00000000000E+00 -0.10000000000E+04  0.10000000000E+04  0.00000000000E+00 0.  1.
    9000005    2    1    2  501    0 -0.55074991319E+01  0.38578683337E+02 -0.89658275162E+03  0.11002438155E+04  0.63651957996E+03 0.  0.
         13    1    3    3    0    0 -0.22620289862E+03 -0.20751905609E+03 -0.41871637204E+03  0.51918716297E+03  0.00000000000E+00 0.  1.
          1    1    3    3  501    0  0.22069539949E+03  0.24609773942E+03 -0.47786637958E+03  0.58105665252E+03  0.00000000000E+00 0.  1.
         -1    1    1    2    0  502  0.55074991319E+01 -0.38578683337E+02  0.23768844861E+03  0.24086188150E+03  0.00000000000E+00 0. -1.
<mgrwt>
<rscale>  1 0.63771139E+03</rscale>
<asrwt>0</asrwt>
<pdfrwt beam="1">  1       21 0.52477798E-01 0.63771139E+03</pdfrwt>
<pdfrwt beam="2">0</pdfrwt>
<totfact> 0.31824136E+02</totfact>
</mgrwt>
</event>
<event>
 6    1  0.1347953E-004  0.6530771E+03  0.7818608E-02  0.9801022E-01
         21   -1    0    0  501  502  0.00000000000E+00  0.00000000000E+00  0.18240193220E+03  0.18240193220E+03  0.00000000000E+00 0.  1.
         13   -1    0    0    0    0 -0.00000000000E+00 -0.00000000000E+00 -0.10000000000E+04  0.10000000000E+04  0.00000000000E+00 0.  1.
    9000005    2    1    2  501    0 -0.28229507617E+02 -0.63749306691E+02 -0.87516896300E+03  0.10919846375E+04  0.64934494344E+03 0.  0.
         13    1    3    3    0    0 -0.24598091106E+03  0.11193886929E+03 -0.72652434307E+03  0.77516097692E+03  0.00000000000E+00 0.  1.
          1    1    3    3  501    0  0.21775140344E+03 -0.17568817598E+03 -0.14864461993E+03  0.31682366060E+03  0.00000000000E+00 0.  1.
         -3    1    1    2    0  502  0.28229507617E+02  0.63749306691E+02  0.57570895201E+02  0.90417294685E+02  0.00000000000E+00 0. -1.
<mgrwt>
<rscale>  1 0.65307713E+03</rscale>
<asrwt>0</asrwt>
<pdfrwt beam="1">  1       21 0.28061835E-01 0.65307713E+03</pdfrwt>
<pdfrwt beam="2">0</pdfrwt>
<totfact> 0.11591629E+03</totfact>
</mgrwt>
</event>
<event>
 6    1  0.1347953E-004  0.6630886E+03  0.7818608E-02  0.9782525E-01
         21   -1    0    0  501  502  0.00000000000E+00  0.00000000000E+00  0.24220023682E+03  0.24220023682E+03  0.00000000000E+00 0. -1.
         13   -1    0    0    0    0 -0.00000000000E+00 -0.00000000000E+00 -0.10000000000E+04  0.10000000000E+04  0.00000000000E+00 0.  1.
    9000005    2    1    2  501    0  0.17720111394E+02  0.29925723679E+02 -0.88753567630E+03  0.11078836018E+04  0.66217591861E+03 0.  0.
         13    1    3    3    0    0 -0.23962880344E+03 -0.19197535058E+03 -0.30069242882E+03  0.42975857807E+03  0.00000000000E+00 0.  1.
          3    1    3    3  501    0  0.25734891484E+03  0.22190107426E+03 -0.58684324748E+03  0.67812502375E+03  0.00000000000E+00 0.  1.
         -3    1    1    2    0  502 -0.17720111394E+02 -0.29925723679E+02  0.12973591312E+03  0.13431663501E+03  0.00000000000E+00 0. -1.
<mgrwt>
<rscale>  1 0.66308861E+03</rscale>
<asrwt>0</asrwt>
<pdfrwt beam="1">  1       21 0.37261574E-01 0.66308861E+03</pdfrwt>
<pdfrwt beam="2">0</pdfrwt>
<totfact> 0.65318497E+02</totfact>
</mgrwt>
</event>
<event>
 6    1  0.1347953E-004  0.6653145E+03  0.7818608E-02  0.9778460E-01
         21   -1    0    0  501  502  0.00000000000E+00  0.00000000000E+00  0.20536072141E+03  0.20536072141E+03  0.00000000000E+00 0.  1.
         13   -1    0    0    0    0 -0.00000000000E+00 -0.00000000000E+00 -0.10000000000E+04  0.10000000000E+04  0.00000000000E+00 0.  1.
    9000005    2    1    2  501    0  0.24931909476E+02 -0.94604595422E+02 -0.86029058620E+03  0.10875399941E+04  0.65808184640E+03 0.  0.
         13    1    3    3    0    0  0.25409987429E+03 -0.25707035871E+03 -0.62094618507E+03  0.71848874744E+03  0.00000000000E+00 0.  1.
          1    1    3    3  501    0 -0.22916796481E+03  0.16246576329E+03 -0.23934440113E+03  0.36905124670E+03  0.00000000000E+00 0.  1.
         -3    1    1    2    0  502 -0.24931909476E+02  0.94604595422E+02  0.65651307607E+02  0.11782072727E+03  0.00000000000E+00 0. -1.
<mgrwt>
<rscale>  1 0.66531447E+03</rscale>
<asrwt>0</asrwt>
<pdfrwt beam="1">  1       21 0.31593956E-01 0.66531447E+03</pdfrwt>
<pdfrwt beam="2">0</pdfrwt>
<totfact> 0.91369081E+02</totfact>
</mgrwt>
</event>
<event>
 6    1  0.1347953E-004  0.6552788E+03  0.7818608E-02  0.9796924E-01
         21   -1    0    0  501  502  0.00000000000E+00  0.00000000000E+00  0.14642254625E+03  0.14642254625E+03  0.00000000000E+00 0.  1.
         13   -1    0    0    0    0 -0.00000000000E+00 -0.00000000000E+00 -0.10000000000E+04  0.10000000000E+04  0.00000000000E+00 0.  1.
    9000005    2    1    2  501    0 -0.37314248540E+01 -0.21918901615E+02 -0.88911782202E+03  0.11045002424E+04  0.65490146003E+03 0.  0.
         13    1    3    3    0    0 -0.23872003522E+03  0.12758812753E+03 -0.13886753134E+03  0.30422060542E+03  0.00000000000E+00 0.  1.
          1    1    3    3  501    0  0.23498861037E+03 -0.14950702914E+03 -0.75025029069E+03  0.80027963703E+03  0.00000000000E+00 0.  1.
         -3    1    1    2    0  502  0.37314248540E+01  0.21918901615E+02  0.35540368274E+02  0.41922303808E+02  0.00000000000E+00 0. -1.
<mgrwt>
<rscale>  1 0.65527878E+03</rscale>
<asrwt>0</asrwt>
<pdfrwt beam="1">  1       21 0.22526545E-01 0.65527878E+03</pdfrwt>
<pdfrwt beam="2">0</pdfrwt>
<totfact> 0.17837313E+03</totfact>
</mgrwt>
</event>
<event>
 6    1  0.1347953E-004  0.6591968E+03  0.7818608E-02  0.9789673E-01
         21   -1    0    0  501  502  0.00000000000E+00  0.00000000000E+00  0.14491872972E+03  0.14491872972E+03  0.00000000000E+00 0.  1.
         13   -1    0    0    0    0 -0.00000000000E+00 -0.00000000000E+00 -0.10000000000E+04  0.10000000000E+04  0.00000000000E+00 0.  1.
    9000005    2    1    2  501    0 -0.13180852994E+02 -0.20572530406E+02 -0.88674515647E+03  0.11049241603E+04  0.65874385284E+03 0.  0.
         13    1    3    3    0    0 -0.11984476703E+03 -0.23496851447E+03 -0.81245865839E+03  0.85420257701E+03  0.00000000000E+00 0.  1.
          3    1    3    3  501    0  0.10666391403E+03  0.21439598407E+03 -0.74286498073E+02  0.25072158331E+03  0.00000000000E+00 0.  1.
         -1    1    1    2    0  502  0.13180852994E+02  0.20572530406E+02  0.31663886186E+02  0.39994569399E+02  0.00000000000E+00 0. -1.
<mgrwt>
<rscale>  1 0.65919680E+03</rscale>
<asrwt>0</asrwt>
<pdfrwt beam="1">  1       21 0.22295189E-01 0.65919680E+03</pdfrwt>
<pdfrwt beam="2">0</pdfrwt>
<totfact> 0.18194760E+03</totfact>
</mgrwt>
</event>
<event>
 6    1  0.1347953E-004  0.6703938E+03  0.7818608E-02  0.9769247E-01
         21   -1    0    0  501  502  0.00000000000E+00  0.00000000000E+00  0.21418066334E+03  0.21418066334E+03  0.00000000000E+00 0.  1.
         13   -1    0    0    0    0 -0.00000000000E+00 -0.00000000000E+00 -0.10000000000E+04  0.10000000000E+04  0.00000000000E+00 0.  1.
    9000005    2    1    2  501    0  0.11046811578E+03 -0.24935213570E+02 -0.85113512435E+03  0.10834476468E+04  0.66075928602E+03 0.  0.
         13    1    3    3    0    0  0.16302103946E+03  0.29782099991E+03 -0.37536581295E+03  0.50613506184E+03  0.00000000000E+00 0.  1.
          1    1    3    3  501    0 -0.52552923680E+02 -0.32275621348E+03 -0.47576931140E+03  0.57731258500E+03  0.00000000000E+00 0.  1.
         -3    1    1    2    0  502 -0.11046811578E+03  0.24935213570E+02  0.65315787692E+02  0.13073301650E+03  0.00000000000E+00 0. -1.
<mgrwt>
<rscale>  1 0.67039377E+03</rscale>
<asrwt>0</asrwt>
<pdfrwt beam="1">  1       21 0.32950870E-01 0.67039377E+03</pdfrwt>
<pdfrwt beam="2">0</pdfrwt>
<totfact> 0.83899812E+02</totfact>
</mgrwt>
</event>
<event>
 6    1  0.1347953E-004  0.6553998E+03  0.7818608E-02  0.9796699E-01
         21   -1    0    0  501  502  0.00000000000E+00  0.00000000000E+00  0.25477523332E+03  0.25477523332E+03  0.00000000000E+00 0.  1.
         13   -1    0    0    0    0 -0.00000000000E+00 -0.00000000000E+00 -0.10000000000E+04  0.10000000000E+04  0.00000000000E+00 0.  1.
    9000005    2    1    2  501    0  0.30356129199E+01  0.25457190503E+02 -0.89137701477E+03  0.11063913962E+04  0.65489820250E+03 0.  0.
         13    1    3    3    0    0  0.13343885290E+03  0.27844115643E+03 -0.22581657852E+03  0.38252912594E+03  0.00000000000E+00 0.  1.
          1    1    3    3  501    0 -0.13040323998E+03 -0.25298396593E+03 -0.66556043625E+03  0.72386227026E+03  0.00000000000E+00 0.  1.
         -1    1    1    2    0  502 -0.30356129199E+01 -0.25457190503E+02  0.14615224809E+03  0.14838383711E+03  0.00000000000E+00 0. -1.
<mgrwt>
<rscale>  1 0.65539983E+03</rscale>
<asrwt>0</asrwt>
<pdfrwt beam="1">  1       21 0.39196189E-01 0.65539983E+03</pdfrwt>
<pdfrwt beam="2">0</pdfrwt>
<totfact> 0.58878016E+02</totfact>
</mgrwt>
</event>
<event>
 6    1  0.1347953E-004  0.6526012E+03  0.7818608E-02  0.9801910E-01
         21   -1    0    0  501  502  0.00000000000E+00  0.00000000000E+00  0.18699751268E+03  0.18699751268E+03  0.00000000000E+00 0. -1.
         13   -1    0    0    0    0 -0.00000000000E+00 -0.00000000000E+00 -0.10000000000E+04  0.10000000000E+04  0.00000000000E+00 0.  1.
    9000005    2    1    2  501    0  0.90485460967E+01 -0.18033540162E+02 -0.89212700508E+03  0.11053410734E+04  0.65228920787E+03 0.  0.
         13    1    3    3    0    0  0.19732046093E+02 -0.19019426979E+03 -0.91188847677E+03  0.93172088522E+03  0.00000000000E+00 0.  1.
          1    1    3    3  501    0 -0.10683499996E+02  0.17216072962E+03  0.19761471686E+02  0.17362018823E+03  0.00000000000E+00 0.  1.
         -3    1    1    2    0  502 -0.90485460967E+01  0.18033540162E+02  0.79124517759E+02  0.81656439230E+02  0.00000000000E+00 0. -1.
<mgrwt>
<rscale>  1 0.65260118E+03</rscale>
<asrwt>0</asrwt>
<pdfrwt beam="1">  1       21 0.28768847E-01 0.65260118E+03</pdfrwt>
<pdfrwt beam="2">0</pdfrwt>
<totfact> 0.11032021E+03</totfact>
</mgrwt>
</event>
<event>
 6    1  0.1347953E-004  0.7050886E+03  0.7818608E-02  0.9708569E-01
         21   -1    0    0  501  502  0.00000000000E+00  0.00000000000E+00  0.58398942542E+03  0.58398942542E+03  0.00000000000E+00 0. -1.
         13   -1    0    0    0    0 -0.00000000000E+00 -0.00000000000E+00 -0.10000000000E+04  0.10000000000E+04  0.00000000000E+00 0.  1.
    9000005    2    1    2  501    0 -0.14046872722E+03 -0.65133200828E+02 -0.86098012473E+03  0.11128507009E+04  0.68787797620E+03 0.  0.
         13    1    3    3    0    0 -0.35751774571E+02 -0.29325966967E+03 -0.10056672638E+03  0.31207865946E+03  0.00000000000E+00 0.  1.
          1    1    3    3  501    0 -0.10471695265E+03  0.22812646884E+03 -0.76041339835E+03  0.80077204144E+03  0.00000000000E+00 0.  1.
         -1    1    1    2    0  502  0.14046872722E+03  0.65133200828E+02  0.44496955015E+03  0.47113872452E+03  0.00000000000E+00 0. -1.
<mgrwt>
<rscale>  1 0.70508858E+03</rscale>
<asrwt>0</asrwt>
<pdfrwt beam="1">  1       21 0.89844524E-01 0.70508858E+03</pdfrwt>
<pdfrwt beam="2">0</pdfrwt>
<totfact> 0.93267538E+01</totfact>
</mgrwt>
</event>
<event>
 6    1  0.1347953E-004  0.6646590E+03  0.7818608E-02  0.9779655E-01
         21   -1    0    0  501  502  0.00000000000E+00  0.00000000000E+00  0.23947294498E+03  0.23947294498E+03  0.00000000000E+00 0.  1.
         13   -1    0    0    0    0 -0.00000000000E+00 -0.00000000000E+00 -0.10000000000E+04  0.10000000000E+04  0.00000000000E+00 0.  1.
    9000005    2    1    2  501    0 -0.18243343287E+02 -0.82481766680E+01 -0.88869400956E+03  0.11097516274E+04  0.66435741883E+03 0.  0.
         13    1    3    3    0    0  0.13617323686E+03  0.24558216558E+03 -0.16087959962E+03  0.32362941162E+03  0.00000000000E+00 0.  1.
          1    1    3    3  501    0 -0.15441658014E+03 -0.25383034225E+03 -0.72781440994E+03  0.78612221581E+03  0.00000000000E+00 0.  1.
         -1    1    1    2    0  502  0.18243343287E+02  0.82481766680E+01  0.12816695454E+03  0.12972131755E+03  0.00000000000E+00 0. -1.
<mgrwt>
<rscale>  1 0.66465903E+03</rscale>
<asrwt>0</asrwt>
<pdfrwt beam="1">  1       21 0.36841990E-01 0.66465903E+03</pdfrwt>
<pdfrwt beam="2">0</pdfrwt>
<totfact> 0.66848235E+02</totfact>
</mgrwt>
</event>
<event>
 6    1  0.1347953E-004  0.6593554E+03  0.7818608E-02  0.9789381E-01
         21   -1    0    0  501  502  0.00000000000E+00  0.00000000000E+00  0.13874950763E+03  0.13874950763E+03  0.00000000000E+00 0.  1.
         13   -1    0    0    0    0 -0.00000000000E+00 -0.00000000000E+00 -0.10000000000E+04  0.10000000000E+04  0.00000000000E+00 0.  1.
    9000005    2    1    2  501    0  0.15768452257E+02  0.13265549412E+02 -0.88734474972E+03  0.11055000091E+04  0.65903334234E+03 0.  0.
         13    1    3    3    0    0  0.31036263408E+03  0.13624170054E+03 -0.42395768064E+03  0.54279543161E+03  0.00000000000E+00 0.  1.
          3    1    3    3  501    0 -0.29459418183E+03 -0.12297615112E+03 -0.46338706907E+03  0.56270457746E+03  0.00000000000E+00 0.  1.
         -3    1    1    2    0  502 -0.15768452257E+02 -0.13265549412E+02  0.26094257350E+02  0.33249498559E+02  0.00000000000E+00 0. -1.
<mgrwt>
<rscale>  1 0.65935542E+03</rscale>
<asrwt>0</asrwt>
<pdfrwt beam="1">  1       21 0.21346077E-01 0.65935542E+03</pdfrwt>
<pdfrwt beam="2">0</pdfrwt>
<totfact> 0.19791797E+03</totfact>
</mgrwt>
</event>
<event>
 6    1  0.1347953E-004  0.6581766E+03  0.7818608E-02  0.9791556E-01
         21   -1    0    0  501  502  0.00000000000E+00  0.00000000000E+00  0.11951717902E+03  0.11951717902E+03  0.00000000000E+00 0.  1.
         13   -1    0    0    0    0 -0.00000000000E+00 -0.00000000000E+00 -0.10000000000E+04  0.10000000000E+04  0.00000000000E+00 0.  1.
    9000005    2    1    2  501    0 -0.20520439456E+02 -0.26125715104E+02 -0.84027827685E+03  0.10673631112E+04  0.65733765076E+03 0.  0.
         13    1    3    3    0    0 -0.30660713542E+03 -0.13080681649E+03 -0.56896494857E+03  0.65942359028E+03  0.00000000000E+00 0.  1.
          1    1    3    3  501    0  0.28608669596E+03  0.10468110139E+03 -0.27131332829E+03  0.40793952089E+03  0.00000000000E+00 0.  1.
         -1    1    1    2    0  502  0.20520439456E+02  0.26125715104E+02 -0.40204544124E+02  0.52154067851E+02  0.00000000000E+00 0. -1.
<mgrwt>
<rscale>  1 0.65817659E+03</rscale>
<asrwt>0</asrwt>
<pdfrwt beam="1">  1       21 0.18387258E-01 0.65817659E+03</pdfrwt>
<pdfrwt beam="2">0</pdfrwt>
<totfact> 0.26343952E+03</totfact>
</mgrwt>
</event>
<event>
 6    1  0.1347953E-004  0.6686108E+03  0.7818608E-02  0.9772471E-01
         21   -1    0    0  501  502  0.00000000000E+00  0.00000000000E+00  0.29816579098E+03  0.29816579098E+03  0.00000000000E+00 0. -1.
         13   -1    0    0    0    0 -0.00000000000E+00 -0.00000000000E+00 -0.10000000000E+04  0.10000000000E+04  0.00000000000E+00 0.  1.
    9000005    2    1    2  501    0 -0.14555726942E+03 -0.21079072173E+02 -0.85528630031E+03  0.10856127616E+04  0.65223398161E+03 0.  0.
         13    1    3    3    0    0  0.16873735433E+03 -0.23341602501E+03 -0.33596537978E+03  0.44252465682E+03  0.00000000000E+00 0.  1.
          3    1    3    3  501    0 -0.31429462375E+03  0.21233695284E+03 -0.51932092052E+03  0.64308810482E+03  0.00000000000E+00 0.  1.
         -3    1    1    2    0  502  0.14555726942E+03  0.21079072173E+02  0.15345209129E+03  0.21255302935E+03  0.00000000000E+00 0. -1.
<mgrwt>
<rscale>  1 0.66861081E+03</rscale>
<asrwt>0</asrwt>
<pdfrwt beam="1">  1       21 0.45871659E-01 0.66861081E+03</pdfrwt>
<pdfrwt beam="2">0</pdfrwt>
<totfact> 0.42309093E+02</totfact>
</mgrwt>
</event>
<event>
 6    1  0.1347953E-004  0.6525706E+03  0.7818608E-02  0.9801968E-01
         21   -1    0    0  501  502  0.00000000000E+00  0.00000000000E+00  0.29157466987E+03  0.29157466987E+03  0.00000000000E+00 0.  1.
         13   -1    0    0    0    0 -0.00000000000E+00 -0.00000000000E+00 -0.10000000000E+04  0.10000000000E+04  0.00000000000E+00 0.  1.
    9000005    2    1    2  501    0 -0.23367879891E+02  0.12279082828E+02 -0.89249596093E+03  0.11056208293E+04  0.65203645934E+03 0.  0.
         13    1    3    3    0    0 -0.92830270878E+02  0.19210146971E+02 -0.98510120288E+03  0.98965189277E+03  0.00000000000E+00 0.  1.
          3    1    3    3  501    0  0.69462390987E+02 -0.69310641423E+01  0.92605241955E+02  0.11596893657E+03  0.00000000000E+00 0.  1.
         -1    1    1    2    0  502  0.23367879891E+02 -0.12279082828E+02  0.18407063080E+03  0.18595384053E+03  0.00000000000E+00 0. -1.
<mgrwt>
<rscale>  1 0.65257059E+03</rscale>
<asrwt>0</asrwt>
<pdfrwt beam="1">  1       21 0.44857640E-01 0.65257059E+03</pdfrwt>
<pdfrwt beam="2">0</pdfrwt>
<totfact> 0.44419050E+02</totfact>
</mgrwt>
</event>
<event>
 6    1  0.1347953E-004  0.6492934E+03  0.7818608E-02  0.9808106E-01
         21   -1    0    0  501  502  0.00000000000E+00  0.00000000000E+00  0.12975452550E+03  0.12975452550E+03  0.00000000000E+00 0.  1.
         13   -1    0    0    0    0 -0.00000000000E+00 -0.00000000000E+00 -0.10000000000E+04  0.10000000000E+04  0.00000000000E+00 0.  1.
    9000005    2    1    2  501    0 -0.27978283529E+02  0.52487197570E+02 -0.84370810332E+03  0.10646244838E+04  0.64656340581E+03 0.  0.
         13    1    3    3    0    0  0.24941480450E+03 -0.10253511966E+03 -0.16745294964E+03  0.31742981242E+03  0.00000000000E+00 0.  1.
          1    1    3    3  501    0 -0.27739308803E+03  0.15502231723E+03 -0.67625515367E+03  0.74719467142E+03  0.00000000000E+00 0.  1.
         -3    1    1    2    0  502  0.27978283529E+02 -0.52487197570E+02 -0.26537371180E+02  0.65130041664E+02  0.00000000000E+00 0. -1.
<mgrwt>
<rscale>  1 0.64929341E+03</rscale>
<asrwt>0</asrwt>
<pdfrwt beam="1">  1       21 0.19962234E-01 0.64929341E+03</pdfrwt>
<pdfrwt beam="2">0</pdfrwt>
<totfact> 0.22524632E+03</totfact>
</mgrwt>
</event>
<event>
 6    1  0.1347953E-004  0.9501581E+03  0.7818608E-02  0.9364966E-01
         21   -1    0    0  501  502  0.00000000000E+00  0.00000000000E+00  0.66569169278E+03  0.66569169278E+03  0.00000000000E+00 0. -1.
         13   -1    0    0    0    0 -0.00000000000E+00 -0.00000000000E+00 -0.10000000000E+04  0.10000000000E+04  0.00000000000E+00 0.  1.
    9000005    2    1    2  501    0  0.68002549008E+03 -0.37006455219E+02 -0.17227440023E+03  0.96564945699E+03  0.66256792853E+03 0.  0.
         13    1    3    3    0    0  0.76232079151E+03  0.27655094704E+02 -0.28268621146E+03  0.81351661789E+03  0.00000000000E+00 0.  1.
          1    1    3    3  501    0 -0.82295301428E+02 -0.64661549922E+02  0.11041181122E+03  0.15213283910E+03  0.00000000000E+00 0.  1.
         -3    1    1    2    0  502 -0.68002549008E+03  0.37006455219E+02 -0.16203390698E+03  0.70004223580E+03  0.00000000000E+00 0. -1.
<mgrwt>
<rscale>  1 0.95015809E+03</rscale>
<asrwt>0</asrwt>
<pdfrwt beam="1">  1       21 0.10241410E+00 0.95015809E+03</pdfrwt>
<pdfrwt beam="2">0</pdfrwt>
<totfact> 0.65893602E+01</totfact>
</mgrwt>
</event>
<event>
 6    1  0.1347953E-004  0.6469438E+03  0.7818608E-02  0.9812531E-01
         21   -1    0    0  501  502  0.00000000000E+00  0.00000000000E+00  0.21679920880E+03  0.21679920880E+03  0.00000000000E+00 0. -1.
         13   -1    0    0    0    0 -0.00000000000E+00 -0.00000000000E+00 -0.10000000000E+04  0.10000000000E+04  0.00000000000E+00 0.  1.
    9000005    2    1    2  501    0  0.47642113424E+01  0.23676216073E+02 -0.89392798739E+03  0.11034688382E+04  0.64649282237E+03 0.  0.
         13    1    3    3    0    0  0.10768213983E+03  0.47051243659E+02 -0.96763190002E+03  0.97474137940E+03  0.00000000000E+00 0.  1.
          3    1    3    3  501    0 -0.10291792849E+03 -0.23375027586E+02  0.73703912629E+02  0.12872745883E+03  0.00000000000E+00 0.  1.
         -1    1    1    2    0  502 -0.47642113424E+01 -0.23676216073E+02  0.11072719620E+03  0.11333037058E+03  0.00000000000E+00 0. -1.
<mgrwt>
<rscale>  1 0.64694376E+03</rscale>
<asrwt>0</asrwt>
<pdfrwt beam="1">  1       21 0.33353723E-01 0.64694376E+03</pdfrwt>
<pdfrwt beam="2">0</pdfrwt>
<totfact> 0.81990381E+02</totfact>
</mgrwt>
</event>
<event>
 6    1  0.1347953E-004  0.6507052E+03  0.7818608E-02  0.9805457E-01
         21   -1    0    0  501  502  0.00000000000E+00  0.00000000000E+00  0.11815595028E+03  0.11815595028E+03  0.00000000000E+00 0.  1.
         13   -1    0    0    0    0 -0.00000000000E+00 -0.00000000000E+00 -0.10000000000E+04  0.10000000000E+04  0.00000000000E+00 0.  1.
    9000005    2    1    2  501    0 -0.22374391796E+01  0.20055983700E+02 -0.88421106945E+03  0.10978372053E+04  0.65039223961E+03 0.  0.
         13    1    3    3    0    0  0.11759763956E+03 -0.29111426321E+03 -0.48402781433E+03  0.57693989645E+03  0.00000000000E+00 0.  1.
          1    1    3    3  501    0 -0.11983507874E+03  0.31117024691E+03 -0.40018325512E+03  0.52089730883E+03  0.00000000000E+00 0.  1.
         -1    1    1    2    0  502  0.22374391796E+01 -0.20055983700E+02  0.23670197330E+01  0.20318745007E+02  0.00000000000E+00 0. -1.
<mgrwt>
<rscale>  1 0.65070524E+03</rscale>
<asrwt>0</asrwt>
<pdfrwt beam="1">  1       21 0.18177838E-01 0.65070524E+03</pdfrwt>
<pdfrwt beam="2">0</pdfrwt>
<totfact> 0.26930537E+03</totfact>
</mgrwt>
</event>
<event>
 6    1  0.1347953E-004  0.6520156E+03  0.7818608E-02  0.9803004E-01
         21   -1    0    0  501  502  0.00000000000E+00  0.00000000000E+00  0.13797866057E+03  0.13797866057E+03  0.00000000000E+00 0. -1.
         13   -1    0    0    0    0 -0.00000000000E+00 -0.00000000000E+00 -0.10000000000E+04  0.10000000000E+04  0.00000000000E+00 0.  1.
    9000005    2    1    2  501    0 -0.34781184900E+02 -0.57625734982E+02 -0.84720953997E+03  0.10690595373E+04  0.64853206044E+03 0.  0.
         13    1    3    3    0    0 -0.10488829850E+03 -0.16636891439E+03  0.14955332785E+02  0.19724054557E+03  0.00000000000E+00 0.  1.
          1    1    3    3  501    0  0.70107113604E+02  0.10874317941E+03 -0.86216487276E+03  0.87181899168E+03  0.00000000000E+00 0.  1.
         -1    1    1    2    0  502  0.34781184900E+02  0.57625734982E+02 -0.14811799461E+02  0.68919123316E+02  0.00000000000E+00 0. -1.
<mgrwt>
<rscale>  1 0.65201556E+03</rscale>
<asrwt>0</asrwt>
<pdfrwt beam="1">  1       21 0.21227486E-01 0.65201556E+03</pdfrwt>
<pdfrwt beam="2">0</pdfrwt>
<totfact> 0.20011909E+03</totfact>
</mgrwt>
</event>
<event>
 6    1  0.1347953E-004  0.6341519E+03  0.7818608E-02  0.9836980E-01
         21   -1    0    0  501  502  0.00000000000E+00  0.00000000000E+00  0.19214019156E+03  0.19214019156E+03  0.00000000000E+00 0. -1.
         13   -1    0    0    0    0 -0.00000000000E+00 -0.00000000000E+00 -0.10000000000E+04  0.10000000000E+04  0.00000000000E+00 0.  1.
    9000005    2    1    2  501    0  0.23698230334E+02  0.31804768741E+02 -0.89471334015E+03  0.10966588562E+04  0.63291036992E+03 0.  0.
         13    1    3    3    0    0  0.88972678365E+02 -0.16845670117E+03 -0.13904952323E+02  0.19101608667E+03  0.00000000000E+00 0.  1.
          1    1    3    3  501    0 -0.65274448032E+02  0.20026146992E+03 -0.88080838783E+03  0.90564276951E+03  0.00000000000E+00 0.  1.
         -3    1    1    2    0  502 -0.23698230334E+02 -0.31804768741E+02  0.86853531711E+02  0.95481335382E+02  0.00000000000E+00 0. -1.
<mgrwt>
<rscale>  1 0.63415194E+03</rscale>
<asrwt>0</asrwt>
<pdfrwt beam="1">  1       21 0.29560029E-01 0.63415194E+03</pdfrwt>
<pdfrwt beam="2">0</pdfrwt>
<totfact> 0.10462718E+03</totfact>
</mgrwt>
</event>
<event>
 6    1  0.1347953E-004  0.6457537E+03  0.7818608E-02  0.9814780E-01
         21   -1    0    0  501  502  0.00000000000E+00  0.00000000000E+00  0.14962700332E+03  0.14962700332E+03  0.00000000000E+00 0.  1.
         13   -1    0    0    0    0 -0.00000000000E+00 -0.00000000000E+00 -0.10000000000E+04  0.10000000000E+04  0.00000000000E+00 0.  1.
    9000005    2    1    2  501    0 -0.12751077145E+02 -0.23070871527E+02 -0.89148370115E+03  0.11007911036E+04  0.64521547503E+03 0.  0.
         13    1    3    3    0    0 -0.54224021911E+02  0.15467847817E+03  0.25446359887E+02  0.16587101432E+03  0.00000000000E+00 0.  1.
          3    1    3    3  501    0  0.41472944766E+02 -0.17774934969E+03 -0.91693006104E+03  0.93492008926E+03  0.00000000000E+00 0.  1.
         -3    1    1    2    0  502  0.12751077145E+02  0.23070871527E+02  0.41110704476E+02  0.48835899745E+02  0.00000000000E+00 0. -1.
<mgrwt>
<rscale>  1 0.64575372E+03</rscale>
<asrwt>0</asrwt>
<pdfrwt beam="1">  1       21 0.23019538E-01 0.64575372E+03</pdfrwt>
<pdfrwt beam="2">0</pdfrwt>
<totfact> 0.17110610E+03</totfact>
</mgrwt>
</event>
<event>
 6    1  0.1347953E-004  0.6495192E+03  0.7818608E-02  0.9807682E-01
         21   -1    0    0  501  502  0.00000000000E+00  0.00000000000E+00  0.14368490401E+03  0.14368490401E+03  0.00000000000E+00 0.  1.
         13   -1    0    0    0    0 -0.00000000000E+00 -0.00000000000E+00 -0.10000000000E+04  0.10000000000E+04  0.00000000000E+00 0.  1.
    9000005    2    1    2  501    0  0.58813782646E+02 -0.34932270799E+02 -0.85693891562E+03  0.10752764709E+04  0.64590700503E+03 0.  0.
         13    1    3    3    0    0  0.63647124188E+02  0.37754042292E+01 -0.96153324591E+03  0.96364484801E+03  0.00000000000E+00 0.  1.
          3    1    3    3  501    0 -0.48333415428E+01 -0.38707675029E+02  0.10459433029E+03  0.11163162287E+03  0.00000000000E+00 0.  1.
         -3    1    1    2    0  502 -0.58813782646E+02  0.34932270799E+02  0.62381963432E+00  0.68408433129E+02  0.00000000000E+00 0. -1.
<mgrwt>
<rscale>  1 0.64951919E+03</rscale>
<asrwt>0</asrwt>
<pdfrwt beam="1">  1       21 0.22105369E-01 0.64951919E+03</pdfrwt>
<pdfrwt beam="2">0</pdfrwt>
<totfact> 0.18506676E+03</totfact>
</mgrwt>
</event>
<event>
 6    1  0.1347953E-004  0.6441496E+03  0.7818608E-02  0.9817819E-01
         21   -1    0    0  501  502  0.00000000000E+00  0.00000000000E+00  0.13005848167E+03  0.13005848167E+03  0.00000000000E+00 0.  1.
         13   -1    0    0    0    0 -0.00000000000E+00 -0.00000000000E+00 -0.10000000000E+04  0.10000000000E+04  0.00000000000E+00 0.  1.
    9000005    2    1    2  501    0 -0.50769340522E+02 -0.36560149651E+02 -0.84543115139E+03  0.10628652635E+04  0.64110417731E+03 0.  0.
         13    1    3    3    0    0 -0.28542721724E+03  0.37105733528E+02 -0.14864488517E+03  0.32394572646E+03  0.00000000000E+00 0.  1.
          3    1    3    3  501    0  0.23465787672E+03 -0.73665883179E+02 -0.69678626622E+03  0.73891953705E+03  0.00000000000E+00 0.  1.
         -3    1    1    2    0  502  0.50769340522E+02  0.36560149651E+02 -0.24510366936E+02  0.67193218162E+02  0.00000000000E+00 0. -1.
<mgrwt>
<rscale>  1 0.64414962E+03</rscale>
<asrwt>0</asrwt>
<pdfrwt beam="1">  1       21 0.20008997E-01 0.64414962E+03</pdfrwt>
<pdfrwt beam="2">0</pdfrwt>
<totfact> 0.22428351E+03</totfact>
</mgrwt>
</event>
<event>
 6    1  0.1347953E-004  0.6378077E+03  0.7818608E-02  0.9829930E-01
         21   -1    0    0  501  502  0.00000000000E+00  0.00000000000E+00  0.61709956877E+03  0.61709956877E+03  0.00000000000E+00 0. -1.
         13   -1    0    0    0    0 -0.00000000000E+00 -0.00000000000E+00 -0.10000000000E+04  0.10000000000E+04  0.00000000000E+00 0.  1.
    9000005    2    1    2  501    0 -0.10024071579E+02 -0.26256186910E+02 -0.89787817473E+03  0.11013554988E+04  0.63718823656E+03 0.  0.
         13    1    3    3    0    0  0.20462792911E+03  0.22036015567E+03 -0.33304052985E+03  0.44871726299E+03  0.00000000000E+00 0.  1.
          1    1    3    3  501    0 -0.21465200069E+03 -0.24661634258E+03 -0.56483764488E+03  0.65263823586E+03  0.00000000000E+00 0.  1.
         -1    1    1    2    0  502  0.10024071579E+02  0.26256186910E+02  0.51497774350E+03  0.51574406992E+03  0.00000000000E+00 0. -1.
<mgrwt>
<rscale>  1 0.63780774E+03</rscale>
<asrwt>0</asrwt>
<pdfrwt beam="1">  1       21 0.94938392E-01 0.63780774E+03</pdfrwt>
<pdfrwt beam="2">0</pdfrwt>
<totfact> 0.82443788E+01</totfact>
</mgrwt>
</event>
<event>
 6    1  0.1347953E-004  0.6675881E+03  0.7818608E-02  0.9774325E-01
         21   -1    0    0  501  502  0.00000000000E+00  0.00000000000E+00  0.19319375588E+03  0.19319375588E+03  0.00000000000E+00 0.  1.
         13   -1    0    0    0    0 -0.00000000000E+00 -0.00000000000E+00 -0.10000000000E+04  0.10000000000E+04  0.00000000000E+00 0.  1.
    9000005    2    1    2  501    0  0.11327475022E+02 -0.48975702072E+02 -0.87989564962E+03  0.11044864153E+04  0.66569283921E+03 0.  0.
         13    1    3    3    0    0  0.91239100195E+02 -0.29152446084E+02  0.89803759576E+02  0.13129795791E+03  0.00000000000E+00 0.  1.
          1    1    3    3  501    0 -0.79911625172E+02 -0.19823255988E+02 -0.96969940920E+03  0.97318845735E+03  0.00000000000E+00 0.  1.
         -1    1    1    2    0  502 -0.11327475022E+02  0.48975702072E+02  0.73089405505E+02  0.88707340625E+02  0.00000000000E+00 0. -1.
<mgrwt>
<rscale>  1 0.66758811E+03</rscale>
<asrwt>0</asrwt>
<pdfrwt beam="1">  1       21 0.29722115E-01 0.66758811E+03</pdfrwt>
<pdfrwt beam="2">0</pdfrwt>
<totfact> 0.10327474E+03</totfact>
</mgrwt>
</event>
<event>
 6    1  0.1347953E-004  0.6496825E+03  0.7818608E-02  0.9807375E-01
         21   -1    0    0  501  502  0.00000000000E+00  0.00000000000E+00  0.18269990192E+03  0.18269990192E+03  0.00000000000E+00 0. -1.
         13   -1    0    0    0    0 -0.00000000000E+00 -0.00000000000E+00 -0.10000000000E+04  0.10000000000E+04  0.00000000000E+00 0.  1.
    9000005    2    1    2  501    0  0.40115522551E+02  0.16446747463E+02 -0.88768527079E+03  0.11000329606E+04  0.64823423524E+03 0.  0.
         13    1    3    3    0    0 -0.22284343594E+03 -0.98150252540E+02 -0.73665617934E+03  0.77585758717E+03  0.00000000000E+00 0.  1.
          3    1    3    3  501    0  0.26295895850E+03  0.11459700000E+03 -0.15102909146E+03  0.32417537341E+03  0.00000000000E+00 0.  1.
         -3    1    1    2    0  502 -0.40115522551E+02 -0.16446747463E+02  0.70385172710E+02  0.82666941331E+02  0.00000000000E+00 0. -1.
<mgrwt>
<rscale>  1 0.64968252E+03</rscale>
<asrwt>0</asrwt>
<pdfrwt beam="1">  1       21 0.28107676E-01 0.64968252E+03</pdfrwt>
<pdfrwt beam="2">0</pdfrwt>
<totfact> 0.11556403E+03</totfact>
</mgrwt>
</event>
<event>
 6    1  0.1347953E-004  0.6786175E+03  0.7818608E-02  0.9754514E-01
         21   -1    0    0  501  502  0.00000000000E+00  0.00000000000E+00  0.30367544081E+03  0.30367544081E+03  0.00000000000E+00 0.  1.
         13   -1    0    0    0    0 -0.00000000000E+00 -0.00000000000E+00 -0.10000000000E+04  0.10000000000E+04  0.00000000000E+00 0.  1.
    9000005    2    1    2  501    0 -0.18616848579E+03 -0.27295753644E+02 -0.83055778638E+03  0.10725427461E+04  0.65201069200E+03 0.  0.
         13    1    3    3    0    0 -0.26045065030E+03  0.25996839858E+03 -0.35056893952E+03  0.50824865062E+03  0.00000000000E+00 0.  1.
          3    1    3    3  501    0  0.74282164508E+02 -0.28726415222E+03 -0.47998884686E+03  0.56429409551E+03  0.00000000000E+00 0.  1.
         -3    1    1    2    0  502  0.18616848579E+03  0.27295753644E+02  0.13423322719E+03  0.23113269468E+03  0.00000000000E+00 0. -1.
<mgrwt>
<rscale>  1 0.67861750E+03</rscale>
<asrwt>0</asrwt>
<pdfrwt beam="1">  1       21 0.46719297E-01 0.67861750E+03</pdfrwt>
<pdfrwt beam="2">0</pdfrwt>
<totfact> 0.40661753E+02</totfact>
</mgrwt>
</event>
<event>
 6    1  0.1347953E-004  0.6531218E+03  0.7818608E-02  0.9800939E-01
         21   -1    0    0  501  502  0.00000000000E+00  0.00000000000E+00  0.13332589203E+03  0.13332589203E+03  0.00000000000E+00 0. -1.
         13   -1    0    0    0    0 -0.00000000000E+00 -0.00000000000E+00 -0.10000000000E+04  0.10000000000E+04  0.00000000000E+00 0.  1.
    9000005    2    1    2  501    0 -0.17073046884E+02  0.27650104463E+02 -0.88192131126E+03  0.10974302876E+04  0.65231282354E+03 0.  0.
         13    1    3    3    0    0 -0.91979011448E+02  0.31744040311E+03 -0.60638231792E+03  0.69059978538E+03  0.00000000000E+00 0.  1.
          1    1    3    3  501    0  0.74905964565E+02 -0.28979029865E+03 -0.27553899334E+03  0.40683050226E+03  0.00000000000E+00 0.  1.
         -3    1    1    2    0  502  0.17073046884E+02 -0.27650104463E+02  0.15247203289E+02  0.35895604394E+02  0.00000000000E+00 0. -1.
<mgrwt>
<rscale>  1 0.65312176E+03</rscale>
<asrwt>0</asrwt>
<pdfrwt beam="1">  1       21 0.20511675E-01 0.65312176E+03</pdfrwt>
<pdfrwt beam="2">0</pdfrwt>
<totfact> 0.21377326E+03</totfact>
</mgrwt>
</event>
<event>
 6    1  0.1347953E-004  0.5422062E+03  0.7818608E-02  0.1003314E+00
         21   -1    0    0  501  502  0.00000000000E+00  0.00000000000E+00  0.10593043542E+03  0.10593043542E+03  0.00000000000E+00 0.  1.
         13   -1    0    0    0    0 -0.00000000000E+00 -0.00000000000E+00 -0.10000000000E+04  0.10000000000E+04  0.00000000000E+00 0.  1.
    9000005    2    1    2  501    0  0.12064241763E+02 -0.64605173743E+02 -0.88731377926E+03  0.10398621750E+04  0.53820834781E+03 0.  0.
         13    1    3    3    0    0  0.75105528600E+01 -0.30326582354E+03 -0.50841526762E+03  0.59204109019E+03  0.00000000000E+00 0.  1.
          1    1    3    3  501    0  0.45536889031E+01  0.23866064979E+03 -0.37889851164E+03  0.44782108477E+03  0.00000000000E+00 0.  1.
         -1    1    1    2    0  502 -0.12064241763E+02  0.64605173743E+02 -0.67557853183E+01  0.66068260451E+02  0.00000000000E+00 0. -1.
<mgrwt>
<rscale>  1 0.54220623E+03</rscale>
<asrwt>0</asrwt>
<pdfrwt beam="1">  1       21 0.16296990E-01 0.54220623E+03</pdfrwt>
<pdfrwt beam="2">0</pdfrwt>
<totfact> 0.33212754E+03</totfact>
</mgrwt>
</event>
<event>
 6    1  0.1347953E-004  0.6773419E+03  0.7818608E-02  0.9756785E-01
         21   -1    0    0  501  502  0.00000000000E+00  0.00000000000E+00  0.18829425610E+03  0.18829425610E+03  0.00000000000E+00 0. -1.
         13   -1    0    0    0    0 -0.00000000000E+00 -0.00000000000E+00 -0.10000000000E+04  0.10000000000E+04  0.00000000000E+00 0.  1.
    9000005    2    1    2  501    0  0.13905257784E+03 -0.99307460596E+02 -0.73941193337E+03  0.10027572351E+04  0.65543456891E+03 0.  0.
         13    1    3    3    0    0 -0.75392367137E+02 -0.32909761314E+03 -0.24599420857E+03  0.41773484251E+03  0.00000000000E+00 0.  1.
          3    1    3    3  501    0  0.21444494498E+03  0.22979015255E+03 -0.49341772481E+03  0.58502239255E+03  0.00000000000E+00 0.  1.
         -3    1    1    2    0  502 -0.13905257784E+03  0.99307460596E+02 -0.72293810528E+02  0.18553702103E+03  0.00000000000E+00 0. -1.
<mgrwt>
<rscale>  1 0.67734191E+03</rscale>
<asrwt>0</asrwt>
<pdfrwt beam="1">  1       21 0.28968346E-01 0.67734191E+03</pdfrwt>
<pdfrwt beam="2">0</pdfrwt>
<totfact> 0.10865086E+03</totfact>
</mgrwt>
</event>
<event>
 6    1  0.1347953E-004  0.7325789E+03  0.7818608E-02  0.9663085E-01
         21   -1    0    0  501  502  0.00000000000E+00  0.00000000000E+00  0.32664883340E+03  0.32664883340E+03  0.00000000000E+00 0.  1.
         13   -1    0    0    0    0 -0.00000000000E+00 -0.00000000000E+00 -0.10000000000E+04  0.10000000000E+04  0.00000000000E+00 0.  1.
    9000005    2    1    2  501    0  0.59076903711E+02  0.19730788321E+02 -0.86009356944E+03  0.11297932783E+04  0.72992637911E+03 0.  0.
         13    1    3    3    0    0 -0.26105169405E+03  0.20433257673E+03 -0.24496790034E+03  0.41220026817E+03  0.00000000000E+00 0.  1.
          3    1    3    3  501    0  0.32012859776E+03 -0.18460178841E+03 -0.61512566910E+03  0.71759301012E+03  0.00000000000E+00 0.  1.
         -1    1    1    2    0  502 -0.59076903711E+02 -0.19730788321E+02  0.18674240283E+03  0.19685555511E+03  0.00000000000E+00 0. -1.
<mgrwt>
<rscale>  1 0.73257894E+03</rscale>
<asrwt>0</asrwt>
<pdfrwt beam="1">  1       21 0.50253665E-01 0.73257894E+03</pdfrwt>
<pdfrwt beam="2">0</pdfrwt>
<totfact> 0.34631330E+02</totfact>
</mgrwt>
</event>
<event>
 6    1  0.1347953E-004  0.8571604E+03  0.7818608E-02  0.9480777E-01
         21   -1    0    0  501  502  0.00000000000E+00  0.00000000000E+00  0.86817800378E+03  0.86817800378E+03  0.00000000000E+00 0. -1.
         13   -1    0    0    0    0 -0.00000000000E+00 -0.00000000000E+00 -0.10000000000E+04  0.10000000000E+04  0.00000000000E+00 0.  1.
    9000005    2    1    2  501    0 -0.53269080671E+03  0.14293034931E+03 -0.67730504554E+03  0.10924587650E+04  0.65615200085E+03 0.  0.
         13    1    3    3    0    0 -0.71702021489E+02 -0.20361417129E+03 -0.39548863669E+03  0.45056761134E+03  0.00000000000E+00 0.  1.
          3    1    3    3  501    0 -0.46098878522E+03  0.34654452060E+03 -0.28181640885E+03  0.64189115367E+03  0.00000000000E+00 0.  1.
         -1    1    1    2    0  502  0.53269080671E+03 -0.14293034931E+03  0.54548304932E+03  0.77571923877E+03  0.00000000000E+00 0. -1.
<mgrwt>
<rscale>  1 0.85716045E+03</rscale>
<asrwt>0</asrwt>
<pdfrwt beam="1">  1       21 0.13356584E+00 0.85716045E+03</pdfrwt>
<pdfrwt beam="2">0</pdfrwt>
<totfact> 0.33636289E+01</totfact>
</mgrwt>
</event>
<event>
 6    1  0.1347953E-004  0.6667500E+03  0.7818608E-02  0.9775847E-01
         21   -1    0    0  501  502  0.00000000000E+00  0.00000000000E+00  0.33648389807E+03  0.33648389807E+03  0.00000000000E+00 0. -1.
         13   -1    0    0    0    0 -0.00000000000E+00 -0.00000000000E+00 -0.10000000000E+04  0.10000000000E+04  0.00000000000E+00 0.  1.
    9000005    2    1    2  501    0  0.21115587763E+02 -0.11852931411E+03 -0.87081678996E+03  0.10967577176E+04  0.65579001445E+03 0.  0.
         13    1    3    3    0    0 -0.74244731354E+02 -0.17216529014E+02  0.94534917334E+02  0.12143121345E+03  0.00000000000E+00 0.  1.
          1    1    3    3  501    0  0.95360319117E+02 -0.10131278510E+03 -0.96535170730E+03  0.97532650413E+03  0.00000000000E+00 0.  1.
         -1    1    1    2    0  502 -0.21115587763E+02  0.11852931411E+03  0.20730068803E+03  0.23972618049E+03  0.00000000000E+00 0. -1.
<mgrwt>
<rscale>  1 0.66675004E+03</rscale>
<asrwt>0</asrwt>
<pdfrwt beam="1">  1       21 0.51766752E-01 0.66675004E+03</pdfrwt>
<pdfrwt beam="2">0</pdfrwt>
<totfact> 0.32681558E+02</totfact>
</mgrwt>
</event>
<event>
 6    1  0.1347953E-004  0.6644219E+03  0.7818608E-02  0.9780088E-01
         21   -1    0    0  501  502  0.00000000000E+00  0.00000000000E+00  0.44940567126E+03  0.44940567126E+03  0.00000000000E+00 0. -1.
         13   -1    0    0    0    0 -0.00000000000E+00 -0.00000000000E+00 -0.10000000000E+04  0.10000000000E+04  0.00000000000E+00 0.  1.
    9000005    2    1    2  501    0 -0.66102147869E+02  0.11783302176E+03 -0.87460287215E+03  0.10983563141E+04  0.65054000165E+03 0.  0.
         13    1    3    3    0    0  0.17469257598E+03 -0.17875961839E+02  0.56821514105E+01  0.17569670731E+03  0.00000000000E+00 0.  1.
          1    1    3    3  501    0 -0.24079472385E+03  0.13570898360E+03 -0.88028502356E+03  0.92265960677E+03  0.00000000000E+00 0.  1.
         -1    1    1    2    0  502  0.66102147869E+02 -0.11783302176E+03  0.32400854341E+03  0.35104935718E+03  0.00000000000E+00 0. -1.
<mgrwt>
<rscale>  1 0.66442186E+03</rscale>
<asrwt>0</asrwt>
<pdfrwt beam="1">  1       21 0.69139332E-01 0.66442186E+03</pdfrwt>
<pdfrwt beam="2">0</pdfrwt>
<totfact> 0.17246347E+02</totfact>
</mgrwt>
</event>
<event>
 6    1  0.1347953E-004  0.6560292E+03  0.7818608E-02  0.9795531E-01
         21   -1    0    0  501  502  0.00000000000E+00  0.00000000000E+00  0.43640008212E+03  0.43640008212E+03  0.00000000000E+00 0. -1.
         13   -1    0    0    0    0 -0.00000000000E+00 -0.00000000000E+00 -0.10000000000E+04  0.10000000000E+04  0.00000000000E+00 0.  1.
    9000005    2    1    2  501    0  0.91245873343E+02 -0.93190516479E+02 -0.87800116520E+03  0.10960202559E+04  0.64293395737E+03 0.  0.
         13    1    3    3    0    0  0.25806899655E+03 -0.28935275865E+03 -0.42761676839E+03  0.57721809269E+03  0.00000000000E+00 0.  1.
          1    1    3    3  501    0 -0.16682312321E+03  0.19616224217E+03 -0.45038439681E+03  0.51880216324E+03  0.00000000000E+00 0.  1.
         -1    1    1    2    0  502 -0.91245873343E+02  0.93190516479E+02  0.31440124732E+03  0.34037982620E+03  0.00000000000E+00 0. -1.
<mgrwt>
<rscale>  1 0.65602923E+03</rscale>
<asrwt>0</asrwt>
<pdfrwt beam="1">  1       21 0.67138472E-01 0.65602923E+03</pdfrwt>
<pdfrwt beam="2">0</pdfrwt>
<totfact> 0.18447856E+02</totfact>
</mgrwt>
</event>
<event>
 6    1  0.1347953E-004  0.6567644E+03  0.7818608E-02  0.9794168E-01
         21   -1    0    0  501  502  0.00000000000E+00  0.00000000000E+00  0.45638381938E+03  0.45638381938E+03  0.00000000000E+00 0.  1.
         13   -1    0    0    0    0 -0.00000000000E+00 -0.00000000000E+00 -0.10000000000E+04  0.10000000000E+04  0.00000000000E+00 0.  1.
    9000005    2    1    2  501    0 -0.43033927231E+02 -0.27193880542E+02 -0.89010440428E+03  0.11061760023E+04  0.65478857002E+03 0.  0.
         13    1    3    3    0    0 -0.30168247646E+03 -0.71686320239E+02 -0.74347054551E+03  0.80554310695E+03  0.00000000000E+00 0.  1.
          1    1    3    3  501    0  0.25864854923E+03  0.44492439697E+02 -0.14663385877E+03  0.30063289531E+03  0.00000000000E+00 0.  1.
         -1    1    1    2    0  502  0.43033927231E+02  0.27193880542E+02  0.34648822367E+03  0.35020781712E+03  0.00000000000E+00 0. -1.
<mgrwt>
<rscale>  1 0.65676442E+03</rscale>
<asrwt>0</asrwt>
<pdfrwt beam="1">  1       21 0.70212893E-01 0.65676442E+03</pdfrwt>
<pdfrwt beam="2">0</pdfrwt>
<totfact> 0.16668678E+02</totfact>
</mgrwt>
</event>
<event>
 6    1  0.1347953E-004  0.6454033E+03  0.7818608E-02  0.9815443E-01
         21   -1    0    0  501  502  0.00000000000E+00  0.00000000000E+00  0.13690748252E+03  0.13690748252E+03  0.00000000000E+00 0.  1.
         13   -1    0    0    0    0 -0.00000000000E+00 -0.00000000000E+00 -0.10000000000E+04  0.10000000000E+04  0.00000000000E+00 0.  1.
    9000005    2    1    2  501    0 -0.36389727030E+02  0.12116690749E+02 -0.88297617362E+03  0.10937057903E+04  0.64426268413E+03 0.  0.
         13    1    3    3    0    0  0.29094964289E+03 -0.51125712865E+02 -0.29314534223E+03  0.41617271041E+03  0.00000000000E+00 0.  1.
          3    1    3    3  501    0 -0.32733936992E+03  0.63242403614E+02 -0.58983083138E+03  0.67753307991E+03  0.00000000000E+00 0.  1.
         -3    1    1    2    0  502  0.36389727030E+02 -0.12116690749E+02  0.19883656134E+02  0.43201692204E+02  0.00000000000E+00 0. -1.
<mgrwt>
<rscale>  1 0.64540331E+03</rscale>
<asrwt>0</asrwt>
<pdfrwt beam="1">  1       21 0.21062689E-01 0.64540331E+03</pdfrwt>
<pdfrwt beam="2">0</pdfrwt>
<totfact> 0.20320540E+03</totfact>
</mgrwt>
</event>
<event>
 6    1  0.1347953E-004  0.6531782E+03  0.7818608E-02  0.9800834E-01
         21   -1    0    0  501  502  0.00000000000E+00  0.00000000000E+00  0.13769780454E+03  0.13769780454E+03  0.00000000000E+00 0.  1.
         13   -1    0    0    0    0 -0.00000000000E+00 -0.00000000000E+00 -0.10000000000E+04  0.10000000000E+04  0.00000000000E+00 0.  1.
    9000005    2    1    2  501    0 -0.62140177579E+02  0.45530581334E+02 -0.82453447101E+03  0.10519024870E+04  0.64861954390E+03 0.  0.
         13    1    3    3    0    0  0.50512986245E+02  0.33696045941E+03 -0.43259275726E+03  0.55066360568E+03  0.00000000000E+00 0.  1.
          3    1    3    3  501    0 -0.11265316382E+03 -0.29142987807E+03 -0.39194171375E+03  0.50123888130E+03  0.00000000000E+00 0.  1.
         -1    1    1    2    0  502  0.62140177579E+02 -0.45530581334E+02 -0.37767724447E+02  0.85795317565E+02  0.00000000000E+00 0. -1.
<mgrwt>
<rscale>  1 0.65317819E+03</rscale>
<asrwt>0</asrwt>
<pdfrwt beam="1">  1       21 0.21184277E-01 0.65317819E+03</pdfrwt>
<pdfrwt beam="2">0</pdfrwt>
<totfact> 0.20089708E+03</totfact>
</mgrwt>
</event>
<event>
 6    1  0.1347953E-004  0.6428491E+03  0.7818608E-02  0.9820291E-01
         21   -1    0    0  501  502  0.00000000000E+00  0.00000000000E+00  0.18075672813E+03  0.18075672813E+03  0.00000000000E+00 0. -1.
         13   -1    0    0    0    0 -0.00000000000E+00 -0.00000000000E+00 -0.10000000000E+04  0.10000000000E+04  0.00000000000E+00 0.  1.
    9000005    2    1    2  501    0  0.32339955339E+02  0.14491178037E+02 -0.89218696808E+03  0.10996601822E+04  0.64187153173E+03 0.  0.
         13    1    3    3    0    0  0.28337468916E+03 -0.12072735214E+03 -0.67258332434E+03  0.73975985035E+03  0.00000000000E+00 0.  1.
          3    1    3    3  501    0 -0.25103473382E+03  0.13521853017E+03 -0.21960364374E+03  0.35990033180E+03  0.00000000000E+00 0.  1.
         -1    1    1    2    0  502 -0.32339955339E+02 -0.14491178037E+02  0.72943696207E+02  0.81096545971E+02  0.00000000000E+00 0. -1.
<mgrwt>
<rscale>  1 0.64284907E+03</rscale>
<asrwt>0</asrwt>
<pdfrwt beam="1">  1       21 0.27808727E-01 0.64284907E+03</pdfrwt>
<pdfrwt beam="2">0</pdfrwt>
<totfact> 0.11809163E+03</totfact>
</mgrwt>
</event>
<event>
 6    1  0.1347953E-004  0.6353861E+03  0.7818608E-02  0.9834594E-01
         21   -1    0    0  501  502  0.00000000000E+00  0.00000000000E+00  0.12947349224E+03  0.12947349224E+03  0.00000000000E+00 0. -1.
         13   -1    0    0    0    0 -0.00000000000E+00 -0.00000000000E+00 -0.10000000000E+04  0.10000000000E+04  0.00000000000E+00 0.  1.
    9000005    2    1    2  501    0 -0.21004476794E+02  0.39479707317E+02 -0.87835187033E+03  0.10840744654E+04  0.63381038423E+03 0.  0.
         13    1    3    3    0    0 -0.45682442883E+01  0.33238960412E+03 -0.37209715874E+03  0.49895892950E+03  0.00000000000E+00 0.  1.
          3    1    3    3  501    0 -0.16436232506E+02 -0.29290989680E+03 -0.50625471160E+03  0.58511553594E+03  0.00000000000E+00 0.  1.
         -3    1    1    2    0  502  0.21004476794E+02 -0.39479707317E+02  0.78253625710E+01  0.45399026802E+02  0.00000000000E+00 0. -1.
<mgrwt>
<rscale>  1 0.63538605E+03</rscale>
<asrwt>0</asrwt>
<pdfrwt beam="1">  1       21 0.19918998E-01 0.63538605E+03</pdfrwt>
<pdfrwt beam="2">0</pdfrwt>
<totfact> 0.22630858E+03</totfact>
</mgrwt>
</event>
<event>
 6    1  0.1347953E-004  0.6222158E+03  0.7818608E-02  0.9860358E-01
         21   -1    0    0  501  502  0.00000000000E+00  0.00000000000E+00  0.17999116810E+03  0.17999116810E+03  0.00000000000E+00 0.  1.
         13   -1    0    0    0    0 -0.00000000000E+00 -0.00000000000E+00 -0.10000000000E+04  0.10000000000E+04  0.00000000000E+00 0.  1.
    9000005    2    1    2  501    0  0.16263302930E+02  0.40398740218E+02 -0.89691631495E+03  0.10916095287E+04  0.62068988544E+03 0.  0.
         13    1    3    3    0    0  0.18800615432E+03 -0.17417339002E+03 -0.15284816456E+03  0.29840449940E+03  0.00000000000E+00 0.  1.
          1    1    3    3  501    0 -0.17174285139E+03  0.21457213024E+03 -0.74406815039E+03  0.79320502930E+03  0.00000000000E+00 0.  1.
         -3    1    1    2    0  502 -0.16263302930E+02 -0.40398740218E+02  0.76907483054E+02  0.88381639401E+02  0.00000000000E+00 0. -1.
<mgrwt>
<rscale>  1 0.62221579E+03</rscale>
<asrwt>0</asrwt>
<pdfrwt beam="1">  1       21 0.27690948E-01 0.62221579E+03</pdfrwt>
<pdfrwt beam="2">0</pdfrwt>
<totfact> 0.11923687E+03</totfact>
</mgrwt>
</event>
<event>
 6    1  0.1347953E-004  0.6098121E+03  0.7818608E-02  0.9885256E-01
         21   -1    0    0  501  502  0.00000000000E+00  0.00000000000E+00  0.38981893928E+03  0.38981893928E+03  0.00000000000E+00 0. -1.
         13   -1    0    0    0    0 -0.00000000000E+00 -0.00000000000E+00 -0.10000000000E+04  0.10000000000E+04  0.00000000000E+00 0.  1.
    9000005    2    1    2  501    0 -0.18977192565E+02 -0.64910398873E+02 -0.90281604024E+03  0.10894712658E+04  0.60605061074E+03 0.  0.
         13    1    3    3    0    0  0.15590837141E+02 -0.94666988549E+02 -0.98810505243E+03  0.99275198693E+03  0.00000000000E+00 0.  1.
          1    1    3    3  501    0 -0.34568029706E+02  0.29756589675E+02  0.85289012185E+02  0.96719278876E+02  0.00000000000E+00 0.  1.
         -3    1    1    2    0  502  0.18977192565E+02  0.64910398873E+02  0.29263497953E+03  0.30034767348E+03  0.00000000000E+00 0. -1.
<mgrwt>
<rscale>  1 0.60981213E+03</rscale>
<asrwt>0</asrwt>
<pdfrwt beam="1">  1       21 0.59972143E-01 0.60981213E+03</pdfrwt>
<pdfrwt beam="2">0</pdfrwt>
<totfact> 0.23854445E+02</totfact>
</mgrwt>
</event>
<event>
 6    1  0.1347953E-004  0.6270846E+03  0.7818608E-02  0.9850754E-01
         21   -1    0    0  501  502  0.00000000000E+00  0.00000000000E+00  0.11780533158E+03  0.11780533158E+03  0.00000000000E+00 0.  1.
         13   -1    0    0    0    0 -0.00000000000E+00 -0.00000000000E+00 -0.10000000000E+04  0.10000000000E+04  0.00000000000E+00 0.  1.
    9000005    2    1    2  501    0  0.15986782631E+02 -0.20370090577E+02 -0.89178622202E+03  0.10901916446E+04  0.62654978918E+03 0.  0.
         13    1    3    3    0    0 -0.38914223886E+02 -0.26700279690E+03 -0.15475455041E+03  0.31105269851E+03  0.00000000000E+00 0.  1.
          3    1    3    3  501    0  0.54901006517E+02  0.24663270632E+03 -0.73703167160E+03  0.77913894608E+03  0.00000000000E+00 0.  1.
         -3    1    1    2    0  502 -0.15986782631E+02  0.20370090577E+02  0.95915535958E+01  0.27613686994E+02  0.00000000000E+00 0. -1.
<mgrwt>
<rscale>  1 0.62708465E+03</rscale>
<asrwt>0</asrwt>
<pdfrwt beam="1">  1       21 0.18123897E-01 0.62708465E+03</pdfrwt>
<pdfrwt beam="2">0</pdfrwt>
<totfact> 0.27104851E+03</totfact>
</mgrwt>
</event>
<event>
 6    1  0.1347953E-004  0.6538284E+03  0.7818608E-02  0.9799622E-01
         21   -1    0    0  501  502  0.00000000000E+00  0.00000000000E+00  0.13045300468E+03  0.13045300468E+03  0.00000000000E+00 0.  1.
         13   -1    0    0    0    0 -0.00000000000E+00 -0.00000000000E+00 -0.10000000000E+04  0.10000000000E+04  0.00000000000E+00 0.  1.
    9000005    2    1    2  501    0 -0.58880657496E+02 -0.33107950103E+02 -0.80441017666E+03  0.10366133897E+04  0.65032954668E+03 0.  0.
         13    1    3    3    0    0  0.12819410460E+02  0.29636373188E+03 -0.50501220259E+03  0.58569029668E+03  0.00000000000E+00 0.  1.
          3    1    3    3  501    0 -0.71700067955E+02 -0.32947168199E+03 -0.29939797407E+03  0.45092309306E+03  0.00000000000E+00 0.  1.
         -3    1    1    2    0  502  0.58880657496E+02  0.33107950103E+02 -0.65136818663E+02  0.93839614944E+02  0.00000000000E+00 0. -1.
<mgrwt>
<rscale>  1 0.65382841E+03</rscale>
<asrwt>0</asrwt>
<pdfrwt beam="1">  1       21 0.20069692E-01 0.65382841E+03</pdfrwt>
<pdfrwt beam="2">0</pdfrwt>
<totfact> 0.22289945E+03</totfact>
</mgrwt>
</event>
<event>
 6    1  0.1347953E-004  0.6878595E+03  0.7818608E-02  0.9738222E-01
         21   -1    0    0  501  502  0.00000000000E+00  0.00000000000E+00  0.23922921489E+03  0.23922921489E+03  0.00000000000E+00 0. -1.
         13   -1    0    0    0    0 -0.00000000000E+00 -0.00000000000E+00 -0.10000000000E+04  0.10000000000E+04  0.00000000000E+00 0.  1.
    9000005    2    1    2  501    0  0.10837313456E+03  0.19057356523E+03 -0.75296659112E+03  0.10198575542E+04  0.65198751790E+03 0.  0.
         13    1    3    3    0    0 -0.14513065593E+02  0.37810631043E+03 -0.69005703497E+03  0.78699029383E+03  0.00000000000E+00 0.  1.
          1    1    3    3  501    0  0.12288620015E+03 -0.18753274520E+03 -0.62909556141E+02  0.23286726039E+03  0.00000000000E+00 0.  1.
         -3    1    1    2    0  502 -0.10837313456E+03 -0.19057356523E+03 -0.78041939984E+01  0.21937166067E+03  0.00000000000E+00 0. -1.
<mgrwt>
<rscale>  1 0.68785954E+03</rscale>
<asrwt>0</asrwt>
<pdfrwt beam="1">  1       21 0.36804494E-01 0.68785954E+03</pdfrwt>
<pdfrwt beam="2">0</pdfrwt>
<totfact> 0.66875117E+02</totfact>
</mgrwt>
</event>
<event>
 6    1  0.1347953E-004  0.6605602E+03  0.7818608E-02  0.9787163E-01
         21   -1    0    0  501  502  0.00000000000E+00  0.00000000000E+00  0.13907625261E+03  0.13907625261E+03  0.00000000000E+00 0.  1.
         13   -1    0    0    0    0 -0.00000000000E+00 -0.00000000000E+00 -0.10000000000E+04  0.10000000000E+04  0.00000000000E+00 0.  1.
    9000005    2    1    2  501    0  0.45835922009E+02 -0.58460583209E+02 -0.82410038654E+03  0.10561634584E+04  0.65636973747E+03 0.  0.
         13    1    3    3    0    0 -0.58856564051E+02 -0.29083565703E+03 -0.72380790916E+03  0.78227064619E+03  0.00000000000E+00 0.  1.
          1    1    3    3  501    0  0.10469248606E+03  0.23237507382E+03 -0.10029247738E+03  0.27389281223E+03  0.00000000000E+00 0.  1.
         -1    1    1    2    0  502 -0.45835922009E+02  0.58460583209E+02 -0.36823360855E+02  0.82912794189E+02  0.00000000000E+00 0. -1.
<mgrwt>
<rscale>  1 0.66056022E+03</rscale>
<asrwt>0</asrwt>
<pdfrwt beam="1">  1       21 0.21396346E-01 0.66056022E+03</pdfrwt>
<pdfrwt beam="2">0</pdfrwt>
<totfact> 0.19701132E+03</totfact>
</mgrwt>
</event>
<event>
 6    1  0.1347953E-004  0.6574725E+03  0.7818608E-02  0.9792858E-01
         21   -1    0    0  501  502  0.00000000000E+00  0.00000000000E+00  0.55072296023E+03  0.55072296023E+03  0.00000000000E+00 0. -1.
         13   -1    0    0    0    0 -0.00000000000E+00 -0.00000000000E+00 -0.10000000000E+04  0.10000000000E+04  0.00000000000E+00 0.  1.
    9000005    2    1    2  501    0  0.66838995932E+02 -0.11040988021E+03 -0.88147392636E+03  0.10996664873E+04  0.64468000383E+03 0.  0.
         13    1    3    3    0    0  0.49465156491E+02 -0.66902873725E+02 -0.98370238724E+03  0.98721486156E+03  0.00000000000E+00 0.  1.
          3    1    3    3  501    0  0.17373839441E+02 -0.43507006484E+02  0.10222846088E+03  0.11245162571E+03  0.00000000000E+00 0.  1.
         -1    1    1    2    0  502 -0.66838995932E+02  0.11040988021E+03  0.43219688659E+03  0.45105647296E+03  0.00000000000E+00 0. -1.
<mgrwt>
<rscale>  1 0.65747251E+03</rscale>
<asrwt>0</asrwt>
<pdfrwt beam="1">  1       21 0.84726607E-01 0.65747251E+03</pdfrwt>
<pdfrwt beam="2">0</pdfrwt>
<totfact> 0.10789367E+02</totfact>
</mgrwt>
</event>
<event>
 6    1  0.1347953E-004  0.7338035E+03  0.7818608E-02  0.9661108E-01
         21   -1    0    0  501  502  0.00000000000E+00  0.00000000000E+00  0.30052638311E+03  0.30052638311E+03  0.00000000000E+00 0.  1.
         13   -1    0    0    0    0 -0.00000000000E+00 -0.00000000000E+00 -0.10000000000E+04  0.10000000000E+04  0.00000000000E+00 0.  1.
    9000005    2    1    2  501    0  0.35207676863E+03 -0.43844522194E+02 -0.54245495961E+03  0.91253765664E+03  0.64232950924E+03 0.  0.
         13    1    3    3    0    0  0.35474283039E+03 -0.23815055126E+03 -0.57410801014E+03  0.71565226758E+03  0.00000000000E+00 0.  1.
          1    1    3    3  501    0 -0.26660617673E+01  0.19430602906E+03  0.31653050536E+02  0.19688538906E+03  0.00000000000E+00 0.  1.
         -3    1    1    2    0  502 -0.35207676863E+03  0.43844522194E+02 -0.15701865728E+03  0.38798872647E+03  0.00000000000E+00 0. -1.
<mgrwt>
<rscale>  1 0.73380351E+03</rscale>
<asrwt>0</asrwt>
<pdfrwt beam="1">  1       21 0.46234827E-01 0.73380351E+03</pdfrwt>
<pdfrwt beam="2">0</pdfrwt>
<totfact> 0.41381071E+02</totfact>
</mgrwt>
</event>
<event>
 6    1  0.1347953E-004  0.6563180E+03  0.7818608E-02  0.9794996E-01
         21   -1    0    0  501  502  0.00000000000E+00  0.00000000000E+00  0.20804055136E+03  0.20804055136E+03  0.00000000000E+00 0. -1.
         13   -1    0    0    0    0 -0.00000000000E+00 -0.00000000000E+00 -0.10000000000E+04  0.10000000000E+04  0.00000000000E+00 0.  1.
    9000005    2    1    2  501    0  0.88719697046E+02 -0.19686072947E+02 -0.86893435796E+03  0.10889445280E+04  0.64999580040E+03 0.  0.
         13    1    3    3    0    0 -0.87845382918E+02  0.25301412041E+03 -0.63333185069E+03  0.68763521545E+03  0.00000000000E+00 0.  1.
          1    1    3    3  501    0  0.17656507996E+03 -0.27270019335E+03 -0.23560250727E+03  0.40130931256E+03  0.00000000000E+00 0.  1.
         -1    1    1    2    0  502 -0.88719697046E+02  0.19686072947E+02  0.76974909319E+02  0.11909602335E+03  0.00000000000E+00 0. -1.
<mgrwt>
<rscale>  1 0.65631796E+03</rscale>
<asrwt>0</asrwt>
<pdfrwt beam="1">  1       21 0.32006238E-01 0.65631796E+03</pdfrwt>
<pdfrwt beam="2">0</pdfrwt>
<totfact> 0.89064060E+02</totfact>
</mgrwt>
</event>
<event>
 6    1  0.1347953E-004  0.6517857E+03  0.7818608E-02  0.9803434E-01
         21   -1    0    0  501  502  0.00000000000E+00  0.00000000000E+00  0.22880832761E+03  0.22880832761E+03  0.00000000000E+00 0.  1.
         13   -1    0    0    0    0 -0.00000000000E+00 -0.00000000000E+00 -0.10000000000E+04  0.10000000000E+04  0.00000000000E+00 0.  1.
    9000005    2    1    2  501    0 -0.34962467210E+02  0.11696112255E+02 -0.89071973248E+03  0.11037238350E+04  0.65074225993E+03 0.  0.
         13    1    3    3    0    0 -0.23628534151E+03  0.22294071532E+02 -0.86915019957E+03  0.90097161867E+03  0.00000000000E+00 0.  1.
          3    1    3    3  501    0  0.20132287430E+03 -0.10597959277E+02 -0.21569532905E+02  0.20275221628E+03  0.00000000000E+00 0.  1.
         -3    1    1    2    0  502  0.34962467210E+02 -0.11696112255E+02  0.11952806009E+03  0.12508449266E+03  0.00000000000E+00 0. -1.
<mgrwt>
<rscale>  1 0.65178575E+03</rscale>
<asrwt>0</asrwt>
<pdfrwt beam="1">  1       21 0.35201280E-01 0.65178575E+03</pdfrwt>
<pdfrwt beam="2">0</pdfrwt>
<totfact> 0.73450664E+02</totfact>
</mgrwt>
</event>
<event>
 6    1  0.1347953E-004  0.7676515E+03  0.7818608E-02  0.9608058E-01
         21   -1    0    0  501  502  0.00000000000E+00  0.00000000000E+00  0.41797839610E+03  0.41797839610E+03  0.00000000000E+00 0. -1.
         13   -1    0    0    0    0 -0.00000000000E+00 -0.00000000000E+00 -0.10000000000E+04  0.10000000000E+04  0.00000000000E+00 0.  1.
    9000005    2    1    2  501    0  0.96522265737E+02  0.40193199213E+03 -0.64144436012E+03  0.10003698018E+04  0.64685624302E+03 0.  0.
         13    1    3    3    0    0  0.10580484864E+03  0.47133780906E+03 -0.73742483946E+03  0.88156076938E+03  0.00000000000E+00 0.  1.
          3    1    3    3  501    0 -0.92825829043E+01 -0.69405816926E+02  0.95980479347E+02  0.11880903242E+03  0.00000000000E+00 0.  1.
         -1    1    1    2    0  502 -0.96522265737E+02 -0.40193199213E+03  0.59422756219E+02  0.41760859431E+03  0.00000000000E+00 0. -1.
<mgrwt>
<rscale>  1 0.76765153E+03</rscale>
<asrwt>0</asrwt>
<pdfrwt beam="1">  1       21 0.64304367E-01 0.76765153E+03</pdfrwt>
<pdfrwt beam="2">0</pdfrwt>
<totfact> 0.20090591E+02</totfact>
</mgrwt>
</event>
<event>
 6    1  0.1347953E-004  0.7019231E+03  0.7818608E-02  0.9713949E-01
         21   -1    0    0  501  502  0.00000000000E+00  0.00000000000E+00  0.60369361694E+03  0.60369361694E+03  0.00000000000E+00 0. -1.
         13   -1    0    0    0    0 -0.00000000000E+00 -0.00000000000E+00 -0.10000000000E+04  0.10000000000E+04  0.00000000000E+00 0.  1.
    9000005    2    1    2  501    0 -0.14529317530E+03 -0.17428899075E+03 -0.84643200288E+03  0.10996104564E+04  0.66423584764E+03 0.  0.
         13    1    3    3    0    0 -0.24984978155E+03 -0.44158659421E+02 -0.89133693609E+03  0.92674507508E+03  0.00000000000E+00 0.  1.
          1    1    3    3  501    0  0.10455660625E+03 -0.13013033133E+03  0.44904933210E+02  0.17286538135E+03  0.00000000000E+00 0.  1.
         -1    1    1    2    0  502  0.14529317530E+03  0.17428899075E+03  0.45012561982E+03  0.50408316051E+03  0.00000000000E+00 0. -1.
<mgrwt>
<rscale>  1 0.70192309E+03</rscale>
<asrwt>0</asrwt>
<pdfrwt beam="1">  1       21 0.92875938E-01 0.70192309E+03</pdfrwt>
<pdfrwt beam="2">0</pdfrwt>
<totfact> 0.86156111E+01</totfact>
</mgrwt>
</event>
<event>
 6    1  0.1347953E-004  0.7678635E+03  0.7818608E-02  0.9607735E-01
         21   -1    0    0  501  502  0.00000000000E+00  0.00000000000E+00  0.38223128812E+03  0.38223128812E+03  0.00000000000E+00 0.  1.
         13   -1    0    0    0    0 -0.00000000000E+00 -0.00000000000E+00 -0.10000000000E+04  0.10000000000E+04  0.00000000000E+00 0.  1.
    9000005    2    1    2  501    0  0.49213506006E+02  0.39934843911E+03 -0.60852855942E+03  0.97975579145E+03  0.65399790387E+03 0.  0.
         13    1    3    3    0    0  0.19393432295E+03 -0.11466712223E+03 -0.11649542725E+03  0.25363409690E+03  0.00000000000E+00 0.  1.
          1    1    3    3  501    0 -0.14472081694E+03  0.51401556134E+03 -0.49203313216E+03  0.72612169456E+03  0.00000000000E+00 0.  1.
         -3    1    1    2    0  502 -0.49213506006E+02 -0.39934843911E+03 -0.92401524673E+01  0.40247549666E+03  0.00000000000E+00 0. -1.
<mgrwt>
<rscale>  1 0.76786353E+03</rscale>
<asrwt>0</asrwt>
<pdfrwt beam="1">  1       21 0.58804812E-01 0.76786353E+03</pdfrwt>
<pdfrwt beam="2">0</pdfrwt>
<totfact> 0.24515703E+02</totfact>
</mgrwt>
</event>
<event>
 6    1  0.1347953E-004  0.6060160E+03  0.7818608E-02  0.9893003E-01
         21   -1    0    0  501  502  0.00000000000E+00  0.00000000000E+00  0.16536967198E+03  0.16536967198E+03  0.00000000000E+00 0. -1.
         13   -1    0    0    0    0 -0.00000000000E+00 -0.00000000000E+00 -0.10000000000E+04  0.10000000000E+04  0.00000000000E+00 0.  1.
    9000005    2    1    2  501    0 -0.40280507385E+02  0.32310773137E+02 -0.89816777731E+03  0.10834946892E+04  0.60381195755E+03 0.  0.
         13    1    3    3    0    0 -0.45410640345E+01 -0.23943221921E+03 -0.14020576292E+03  0.27749966633E+03  0.00000000000E+00 0.  1.
          1    1    3    3  501    0 -0.35739443350E+02  0.27174299235E+03 -0.75796201439E+03  0.80599502291E+03  0.00000000000E+00 0.  1.
         -1    1    1    2    0  502  0.40280507385E+02 -0.32310773137E+02  0.63537449286E+02  0.81874982734E+02  0.00000000000E+00 0. -1.
<mgrwt>
<rscale>  1 0.60601599E+03</rscale>
<asrwt>0</asrwt>
<pdfrwt beam="1">  1       21 0.25441487E-01 0.60601599E+03</pdfrwt>
<pdfrwt beam="2">0</pdfrwt>
<totfact> 0.14104121E+03</totfact>
</mgrwt>
</event>
<event>
 6    1  0.1347953E-004  0.7022485E+03  0.7818608E-02  0.9713395E-01
         21   -1    0    0  501  502  0.00000000000E+00  0.00000000000E+00  0.27908633592E+03  0.27908633592E+03  0.00000000000E+00 0. -1.
         13   -1    0    0    0    0 -0.00000000000E+00 -0.00000000000E+00 -0.10000000000E+04  0.10000000000E+04  0.00000000000E+00 0.  1.
    9000005    2    1    2  501    0 -0.17124540695E+03  0.18957157899E+03 -0.74338980208E+03  0.10226344891E+04  0.65413341719E+03 0.  0.
         13    1    3    3    0    0 -0.39093101948E+02 -0.19010546065E+03 -0.20091487559E+02  0.19512053880E+03  0.00000000000E+00 0.  1.
          1    1    3    3  501    0 -0.13215230500E+03  0.37967703963E+03 -0.72329831452E+03  0.82751395030E+03  0.00000000000E+00 0.  1.
         -1    1    1    2    0  502  0.17124540695E+03 -0.18957157899E+03  0.22476138002E+02  0.25645184683E+03  0.00000000000E+00 0. -1.
<mgrwt>
<rscale>  1 0.70224846E+03</rscale>
<asrwt>0</asrwt>
<pdfrwt beam="1">  1       21 0.42936358E-01 0.70224846E+03</pdfrwt>
<pdfrwt beam="2">0</pdfrwt>
<totfact> 0.48505458E+02</totfact>
</mgrwt>
</event>
<event>
 6    1  0.1347953E-004  0.8553007E+03  0.7818608E-02  0.9483250E-01
         21   -1    0    0  501  502  0.00000000000E+00  0.00000000000E+00  0.58625488067E+03  0.58625488067E+03  0.00000000000E+00 0. -1.
         13   -1    0    0    0    0 -0.00000000000E+00 -0.00000000000E+00 -0.10000000000E+04  0.10000000000E+04  0.00000000000E+00 0.  1.
    9000005    2    1    2  501    0  0.54347132453E+03 -0.19612352750E+03 -0.51687111772E+03  0.99934731540E+03  0.63064553105E+03 0.  0.
         13    1    3    3    0    0  0.11978666078E+03 -0.11460958707E+03  0.13760520993E+03  0.21545160790E+03  0.00000000000E+00 0.  1.
          1    1    3    3  501    0  0.42368466375E+03 -0.81513940430E+02 -0.65447632765E+03  0.78389570750E+03  0.00000000000E+00 0.  1.
         -3    1    1    2    0  502 -0.54347132453E+03  0.19612352750E+03  0.10312599839E+03  0.58690756527E+03  0.00000000000E+00 0. -1.
<mgrwt>
<rscale>  1 0.85530071E+03</rscale>
<asrwt>0</asrwt>
<pdfrwt beam="1">  1       21 0.90193056E-01 0.85530071E+03</pdfrwt>
<pdfrwt beam="2">0</pdfrwt>
<totfact> 0.90810108E+01</totfact>
</mgrwt>
</event>
<event>
 6    1  0.1347953E-004  0.6521593E+03  0.7818608E-02  0.9802736E-01
         21   -1    0    0  501  502  0.00000000000E+00  0.00000000000E+00  0.14769818045E+03  0.14769818045E+03  0.00000000000E+00 0.  1.
         13   -1    0    0    0    0 -0.00000000000E+00 -0.00000000000E+00 -0.10000000000E+04  0.10000000000E+04  0.00000000000E+00 0.  1.
    9000005    2    1    2  501    0  0.32060889225E+02 -0.27352216458E+01 -0.88662985186E+03  0.11006471884E+04  0.65136499520E+03 0.  0.
         13    1    3    3    0    0  0.18950654550E+02 -0.23073311778E+03 -0.54623129562E+02  0.23786673839E+03  0.00000000000E+00 0.  1.
          1    1    3    3  501    0  0.13110234675E+02  0.22799789614E+03 -0.83200672229E+03  0.86278044996E+03  0.00000000000E+00 0.  1.
         -3    1    1    2    0  502 -0.32060889225E+02  0.27352216458E+01  0.34328032309E+02  0.47050992100E+02  0.00000000000E+00 0. -1.
<mgrwt>
<rscale>  1 0.65215929E+03</rscale>
<asrwt>0</asrwt>
<pdfrwt beam="1">  1       21 0.22722796E-01 0.65215929E+03</pdfrwt>
<pdfrwt beam="2">0</pdfrwt>
<totfact> 0.17542063E+03</totfact>
</mgrwt>
</event>
<event>
 6    1  0.1347953E-004  0.6696801E+03  0.7818608E-02  0.9770536E-01
         21   -1    0    0  501  502  0.00000000000E+00  0.00000000000E+00  0.21986453856E+03  0.21986453856E+03  0.00000000000E+00 0. -1.
         13   -1    0    0    0    0 -0.00000000000E+00 -0.00000000000E+00 -0.10000000000E+04  0.10000000000E+04  0.00000000000E+00 0.  1.
    9000005    2    1    2  501    0  0.81662526250E+02 -0.14126722311E+03 -0.81311938137E+03  0.10533919117E+04  0.64949687817E+03 0.  0.
         13    1    3    3    0    0  0.73370117914E+02  0.76495797999E+02 -0.82819507584E+03  0.83495021705E+03  0.00000000000E+00 0.  1.
          3    1    3    3  501    0  0.82924083356E+01 -0.21776302111E+03  0.15075694467E+02  0.21844169465E+03  0.00000000000E+00 0.  1.
         -3    1    1    2    0  502 -0.81662526250E+02  0.14126722311E+03  0.32983919927E+02  0.16647262685E+03  0.00000000000E+00 0. -1.
<mgrwt>
<rscale>  1 0.66968007E+03</rscale>
<asrwt>0</asrwt>
<pdfrwt beam="1">  1       21 0.33825313E-01 0.66968007E+03</pdfrwt>
<pdfrwt beam="2">0</pdfrwt>
<totfact> 0.79562334E+02</totfact>
</mgrwt>
</event>
<event>
 6    1  0.1347953E-004  0.6539071E+03  0.7818608E-02  0.9799475E-01
         21   -1    0    0  501  502  0.00000000000E+00  0.00000000000E+00  0.11773983133E+03  0.11773983133E+03  0.00000000000E+00 0.  1.
         13   -1    0    0    0    0 -0.00000000000E+00 -0.00000000000E+00 -0.10000000000E+04  0.10000000000E+04  0.00000000000E+00 0.  1.
    9000005    2    1    2  501    0  0.15334177556E+02  0.19443361793E+02 -0.87418659112E+03  0.10916944100E+04  0.65343806696E+03 0.  0.
         13    1    3    3    0    0  0.27251075802E+03 -0.13620796022E+03 -0.64617591834E+03  0.71439347639E+03  0.00000000000E+00 0.  1.
          1    1    3    3  501    0 -0.25717658046E+03  0.15565132201E+03 -0.22801067277E+03  0.37730093358E+03  0.00000000000E+00 0.  1.
         -3    1    1    2    0  502 -0.15334177556E+02 -0.19443361793E+02 -0.80735775559E+01  0.26045421357E+02  0.00000000000E+00 0. -1.
<mgrwt>
<rscale>  1 0.65390709E+03</rscale>
<asrwt>0</asrwt>
<pdfrwt beam="1">  1       21 0.18113820E-01 0.65390709E+03</pdfrwt>
<pdfrwt beam="2">0</pdfrwt>
<totfact> 0.27108655E+03</totfact>
</mgrwt>
</event>
<event>
 6    1  0.1347953E-004  0.6071065E+03  0.7818608E-02  0.9890771E-01
         21   -1    0    0  501  502  0.00000000000E+00  0.00000000000E+00  0.16348861598E+03  0.16348861598E+03  0.00000000000E+00 0.  1.
         13   -1    0    0    0    0 -0.00000000000E+00 -0.00000000000E+00 -0.10000000000E+04  0.10000000000E+04  0.00000000000E+00 0.  1.
    9000005    2    1    2  501    0 -0.21030031126E+02 -0.47116225697E+02 -0.89753174655E+03  0.10835781312E+04  0.60491001764E+03 0.  0.
         13    1    3    3    0    0  0.15645196091E+03 -0.49606397564E+02 -0.89096609664E+03  0.90595728162E+03  0.00000000000E+00 0.  1.
          1    1    3    3  501    0 -0.17748199203E+03  0.24901718666E+01 -0.65656499064E+01  0.17762084959E+03  0.00000000000E+00 0.  1.
         -3    1    1    2    0  502  0.21030031126E+02  0.47116225697E+02  0.61020362526E+02  0.79910484768E+02  0.00000000000E+00 0. -1.
<mgrwt>
<rscale>  1 0.60710652E+03</rscale>
<asrwt>0</asrwt>
<pdfrwt beam="1">  1       21 0.25152094E-01 0.60710652E+03</pdfrwt>
<pdfrwt beam="2">0</pdfrwt>
<totfact> 0.14423055E+03</totfact>
</mgrwt>
</event>
<event>
 6    1  0.1347953E-004  0.6849549E+03  0.7818608E-02  0.9743313E-01
         21   -1    0    0  501  502  0.00000000000E+00  0.00000000000E+00  0.30320983554E+03  0.30320983554E+03  0.00000000000E+00 0. -1.
         13   -1    0    0    0    0 -0.00000000000E+00 -0.00000000000E+00 -0.10000000000E+04  0.10000000000E+04  0.00000000000E+00 0.  1.
    9000005    2    1    2  501    0  0.81858299260E+02  0.85904638633E+02 -0.86124694452E+03  0.11004133351E+04  0.67459826598E+03 0.  0.
         13    1    3    3    0    0  0.19469509311E+02  0.38134197568E+03 -0.44892716166E+03  0.58935249273E+03  0.00000000000E+00 0.  1.
          3    1    3    3  501    0  0.62388789949E+02 -0.29543733705E+03 -0.41231978286E+03  0.51106084234E+03  0.00000000000E+00 0.  1.
         -3    1    1    2    0  502 -0.81858299260E+02 -0.85904638633E+02  0.16445678006E+03  0.20279650047E+03  0.00000000000E+00 0. -1.
<mgrwt>
<rscale>  1 0.68495490E+03</rscale>
<asrwt>0</asrwt>
<pdfrwt beam="1">  1       21 0.46647666E-01 0.68495490E+03</pdfrwt>
<pdfrwt beam="2">0</pdfrwt>
<totfact> 0.40772032E+02</totfact>
</mgrwt>
</event>
<event>
 6    1  0.1347953E-004  0.6595748E+03  0.7818608E-02  0.9788977E-01
         21   -1    0    0  501  502  0.00000000000E+00  0.00000000000E+00  0.11804963573E+03  0.11804963573E+03  0.00000000000E+00 0.  1.
         13   -1    0    0    0    0 -0.00000000000E+00 -0.00000000000E+00 -0.10000000000E+04  0.10000000000E+04  0.00000000000E+00 0.  1.
    9000005    2    1    2  501    0  0.20304243517E+01 -0.21621180027E+02 -0.87394268254E+03  0.10949039879E+04  0.65921721171E+03 0.  0.
         13    1    3    3    0    0  0.13928837358E+03  0.28588143367E+03 -0.49068932850E+03  0.58472682702E+03  0.00000000000E+00 0.  1.
          3    1    3    3  501    0 -0.13725794923E+03 -0.30750261370E+03 -0.38325335404E+03  0.51017716084E+03  0.00000000000E+00 0.  1.
         -1    1    1    2    0  502 -0.20304243517E+01  0.21621180027E+02 -0.80076817238E+01  0.23145647871E+02  0.00000000000E+00 0. -1.
<mgrwt>
<rscale>  1 0.65957481E+03</rscale>
<asrwt>0</asrwt>
<pdfrwt beam="1">  1       21 0.18161482E-01 0.65957481E+03</pdfrwt>
<pdfrwt beam="2">0</pdfrwt>
<totfact> 0.26968601E+03</totfact>
</mgrwt>
</event>
<event>
 6    1  0.1347953E-004  0.6476568E+03  0.7818608E-02  0.9811186E-01
         21   -1    0    0  501  502  0.00000000000E+00  0.00000000000E+00  0.13072963175E+03  0.13072963175E+03  0.00000000000E+00 0.  1.
         13   -1    0    0    0    0 -0.00000000000E+00 -0.00000000000E+00 -0.10000000000E+04  0.10000000000E+04  0.00000000000E+00 0.  1.
    9000005    2    1    2  501    0  0.37803484682E+02 -0.11216327141E+02 -0.87732263729E+03  0.10904835327E+04  0.64645526978E+03 0.  0.
         13    1    3    3    0    0  0.14296469200E+03 -0.29830132143E+03 -0.55589380185E+03  0.64686977087E+03  0.00000000000E+00 0.  1.
          1    1    3    3  501    0 -0.10516120731E+03  0.28708499429E+03 -0.32142883544E+03  0.44361376187E+03  0.00000000000E+00 0.  1.
         -3    1    1    2    0  502 -0.37803484682E+02  0.11216327141E+02  0.80522690394E+01  0.40246099007E+02  0.00000000000E+00 0. -1.
<mgrwt>
<rscale>  1 0.64765680E+03</rscale>
<asrwt>0</asrwt>
<pdfrwt beam="1">  1       21 0.20112250E-01 0.64765680E+03</pdfrwt>
<pdfrwt beam="2">0</pdfrwt>
<totfact> 0.22204948E+03</totfact>
</mgrwt>
</event>
<event>
 6    1  0.1347953E-004  0.6518537E+03  0.7818608E-02  0.9803307E-01
         21   -1    0    0  501  502  0.00000000000E+00  0.00000000000E+00  0.24500468853E+03  0.24500468853E+03  0.00000000000E+00 0. -1.
         13   -1    0    0    0    0 -0.00000000000E+00 -0.00000000000E+00 -0.10000000000E+04  0.10000000000E+04  0.00000000000E+00 0.  1.
    9000005    2    1    2  501    0  0.32977913216E+02  0.17497984919E+02 -0.89098818657E+03  0.11039806327E+04  0.65078380942E+03 0.  0.
         13    1    3    3    0    0 -0.24903648513E+03  0.18250939573E+03 -0.31067437476E+03  0.43800390134E+03  0.00000000000E+00 0.  1.
          1    1    3    3  501    0  0.28201439835E+03 -0.16501141082E+03 -0.58031381181E+03  0.66597673139E+03  0.00000000000E+00 0.  1.
         -1    1    1    2    0  502 -0.32977913216E+02 -0.17497984919E+02  0.13599287510E+03  0.14102405580E+03  0.00000000000E+00 0. -1.
<mgrwt>
<rscale>  1 0.65185373E+03</rscale>
<asrwt>0</asrwt>
<pdfrwt beam="1">  1       21 0.37693028E-01 0.65185373E+03</pdfrwt>
<pdfrwt beam="2">0</pdfrwt>
<totfact> 0.63844112E+02</totfact>
</mgrwt>
</event>
<event>
 6    1  0.1347953E-004  0.6570524E+03  0.7818608E-02  0.9793635E-01
         21   -1    0    0  501  502  0.00000000000E+00  0.00000000000E+00  0.36256675728E+03  0.36256675728E+03  0.00000000000E+00 0. -1.
         13   -1    0    0    0    0 -0.00000000000E+00 -0.00000000000E+00 -0.10000000000E+04  0.10000000000E+04  0.00000000000E+00 0.  1.
    9000005    2    1    2  501    0 -0.10346654871E+03  0.95812560038E+02 -0.87021173888E+03  0.10904065074E+04  0.64174177630E+03 0.  0.
         13    1    3    3    0    0 -0.35275842424E+02  0.37098032379E+03 -0.52244828979E+03  0.64173436966E+03  0.00000000000E+00 0.  1.
          3    1    3    3  501    0 -0.68190706286E+02 -0.27516776375E+03 -0.34776344909E+03  0.44867213770E+03  0.00000000000E+00 0.  1.
         -1    1    1    2    0  502  0.10346654871E+03 -0.95812560038E+02  0.23277849616E+03  0.27216024992E+03  0.00000000000E+00 0. -1.
<mgrwt>
<rscale>  1 0.65705242E+03</rscale>
<asrwt>0</asrwt>
<pdfrwt beam="1">  1       21 0.55779500E-01 0.65705242E+03</pdfrwt>
<pdfrwt beam="2">0</pdfrwt>
<totfact> 0.27823003E+02</totfact>
</mgrwt>
</event>
<event>
 6    1  0.1347953E-004  0.6327805E+03  0.7818608E-02  0.9839638E-01
         21   -1    0    0  501  502  0.00000000000E+00  0.00000000000E+00  0.12165007501E+03  0.12165007501E+03  0.00000000000E+00 0.  1.
         13   -1    0    0    0    0 -0.00000000000E+00 -0.00000000000E+00 -0.10000000000E+04  0.10000000000E+04  0.00000000000E+00 0.  1.
    9000005    2    1    2  501    0 -0.18644926946E+01 -0.22408399262E+02 -0.89325263105E+03  0.10946740979E+04  0.63238082288E+03 0.  0.
         13    1    3    3    0    0  0.15701238915E+03  0.25526292902E+02  0.25455822852E+02  0.16109773708E+03  0.00000000000E+00 0.  1.
          1    1    3    3  501    0 -0.15887688184E+03 -0.47934692164E+02 -0.91870845390E+03  0.93357636087E+03  0.00000000000E+00 0.  1.
         -3    1    1    2    0  502  0.18644926946E+01  0.22408399262E+02  0.14902706062E+02  0.26975977062E+02  0.00000000000E+00 0. -1.
<mgrwt>
<rscale>  1 0.63278047E+03</rscale>
<asrwt>0</asrwt>
<pdfrwt beam="1">  1       21 0.18715396E-01 0.63278047E+03</pdfrwt>
<pdfrwt beam="2">0</pdfrwt>
<totfact> 0.25494985E+03</totfact>
</mgrwt>
</event>
<event>
 6    1  0.1347953E-004  0.7309931E+03  0.7818608E-02  0.9665650E-01
         21   -1    0    0  501  502  0.00000000000E+00  0.00000000000E+00  0.73258607065E+03  0.73258607065E+03  0.00000000000E+00 0. -1.
         13   -1    0    0    0    0 -0.00000000000E+00 -0.00000000000E+00 -0.10000000000E+04  0.10000000000E+04  0.00000000000E+00 0.  1.
    9000005    2    1    2  501    0 -0.10808433963E+03  0.22145725147E+03 -0.83742424807E+03  0.11115890480E+04  0.68820440398E+03 0.  0.
         13    1    3    3    0    0 -0.10610904370E+03  0.29426796658E+02 -0.90221772662E+03  0.90891247749E+03  0.00000000000E+00 0.  1.
          3    1    3    3  501    0 -0.19752959302E+01  0.19203045481E+03  0.64793478546E+02  0.20267657050E+03  0.00000000000E+00 0.  1.
         -3    1    1    2    0  502  0.10808433963E+03 -0.22145725147E+03  0.57001031872E+03  0.62099702266E+03  0.00000000000E+00 0. -1.
<mgrwt>
<rscale>  1 0.73099305E+03</rscale>
<asrwt>0</asrwt>
<pdfrwt beam="1">  1       21 0.11270555E+00 0.73099305E+03</pdfrwt>
<pdfrwt beam="2">0</pdfrwt>
<totfact> 0.53185950E+01</totfact>
</mgrwt>
</event>
<event>
 6    1  0.1347953E-004  0.6770903E+03  0.7818608E-02  0.9757233E-01
         21   -1    0    0  501  502  0.00000000000E+00  0.00000000000E+00  0.13340056094E+03  0.13340056094E+03  0.00000000000E+00 0.  1.
         13   -1    0    0    0    0 -0.00000000000E+00 -0.00000000000E+00 -0.10000000000E+04  0.10000000000E+04  0.00000000000E+00 0.  1.
    9000005    2    1    2  501    0 -0.33603157918E+02 -0.35603708167E+02 -0.83545236088E+03  0.10753752498E+04  0.67531806154E+03 0.  0.
         13    1    3    3    0    0 -0.34488593347E+03 -0.53285940218E+02 -0.32292841233E+03  0.47546656877E+03  0.00000000000E+00 0.  1.
          3    1    3    3  501    0  0.31128277556E+03  0.17682232050E+02 -0.51252394856E+03  0.59990868099E+03  0.00000000000E+00 0.  1.
         -3    1    1    2    0  502  0.33603157918E+02  0.35603708167E+02 -0.31147078179E+02  0.58025311170E+02  0.00000000000E+00 0. -1.
<mgrwt>
<rscale>  1 0.67709030E+03</rscale>
<asrwt>0</asrwt>
<pdfrwt beam="1">  1       21 0.20523163E-01 0.67709030E+03</pdfrwt>
<pdfrwt beam="2">0</pdfrwt>
<totfact> 0.21333977E+03</totfact>
</mgrwt>
</event>
<event>
 6    1  0.1347953E-004  0.6528764E+03  0.7818608E-02  0.9801397E-01
         21   -1    0    0  501  502  0.00000000000E+00  0.00000000000E+00  0.12731311222E+03  0.12731311222E+03  0.00000000000E+00 0.  1.
         13   -1    0    0    0    0 -0.00000000000E+00 -0.00000000000E+00 -0.10000000000E+04  0.10000000000E+04  0.00000000000E+00 0.  1.
    9000005    2    1    2  501    0  0.12957697423E+02 -0.31162697804E+02 -0.87695316365E+03  0.10932952233E+04  0.65200351103E+03 0.  0.
         13    1    3    3    0    0 -0.23669909671E+03  0.15377219798E+03 -0.64968826724E+03  0.70835527516E+03  0.00000000000E+00 0.  1.
          1    1    3    3  501    0  0.24965679413E+03 -0.18493489578E+03 -0.22726489641E+03  0.38493994814E+03  0.00000000000E+00 0.  1.
         -1    1    1    2    0  502 -0.12957697423E+02  0.31162697804E+02  0.42662758760E+01  0.34017888923E+02  0.00000000000E+00 0. -1.
<mgrwt>
<rscale>  1 0.65287640E+03</rscale>
<asrwt>0</asrwt>
<pdfrwt beam="1">  1       21 0.19586632E-01 0.65287640E+03</pdfrwt>
<pdfrwt beam="2">0</pdfrwt>
<totfact> 0.23356108E+03</totfact>
</mgrwt>
</event>
<event>
 6    1  0.1347953E-004  0.6526870E+03  0.7818608E-02  0.9801750E-01
         21   -1    0    0  501  502  0.00000000000E+00  0.00000000000E+00  0.22119389606E+03  0.22119389606E+03  0.00000000000E+00 0. -1.
         13   -1    0    0    0    0 -0.00000000000E+00 -0.00000000000E+00 -0.10000000000E+04  0.10000000000E+04  0.00000000000E+00 0.  1.
    9000005    2    1    2  501    0 -0.32666986960E+02 -0.22383039616E+01 -0.89090783655E+03  0.11044080215E+04  0.65186514149E+03 0.  0.
         13    1    3    3    0    0  0.67241069117E+02 -0.12392823882E+03  0.50619822033E+02  0.14980632876E+03  0.00000000000E+00 0.  1.
          1    1    3    3  501    0 -0.99908056076E+02  0.12168993486E+03 -0.94152765858E+03  0.95460169275E+03  0.00000000000E+00 0.  1.
         -3    1    1    2    0  502  0.32666986960E+02  0.22383039616E+01  0.11210173261E+03  0.11678587456E+03  0.00000000000E+00 0. -1.
<mgrwt>
<rscale>  1 0.65268699E+03</rscale>
<asrwt>0</asrwt>
<pdfrwt beam="1">  1       21 0.34029829E-01 0.65268699E+03</pdfrwt>
<pdfrwt beam="2">0</pdfrwt>
<totfact> 0.78686430E+02</totfact>
</mgrwt>
</event>
<event>
 6    1  0.1347953E-004  0.6689749E+03  0.7818608E-02  0.9771811E-01
         21   -1    0    0  501  502  0.00000000000E+00  0.00000000000E+00  0.21968360034E+03  0.21968360034E+03  0.00000000000E+00 0.  1.
         13   -1    0    0    0    0 -0.00000000000E+00 -0.00000000000E+00 -0.10000000000E+04  0.10000000000E+04  0.00000000000E+00 0.  1.
    9000005    2    1    2  501    0  0.23147125183E+03  0.46465850910E+02 -0.70497898406E+03  0.97186563911E+03  0.62593085624E+03 0.  0.
         13    1    3    3    0    0  0.42806027041E+03  0.12146479122E+03 -0.56487859878E+03  0.71908074788E+03  0.00000000000E+00 0.  1.
          1    1    3    3  501    0 -0.19658901859E+03 -0.74998940312E+02 -0.14010038528E+03  0.25278489123E+03  0.00000000000E+00 0.  1.
         -3    1    1    2    0  502 -0.23147125183E+03 -0.46465850910E+02 -0.75337415596E+02  0.24781796124E+03  0.00000000000E+00 0. -1.
<mgrwt>
<rscale>  1 0.66897493E+03</rscale>
<asrwt>0</asrwt>
<pdfrwt beam="1">  1       21 0.33797476E-01 0.66897493E+03</pdfrwt>
<pdfrwt beam="2">0</pdfrwt>
<totfact> 0.79699362E+02</totfact>
</mgrwt>
</event>
<event>
 6    1  0.1347953E-004  0.6554373E+03  0.7818608E-02  0.9796630E-01
         21   -1    0    0  501  502  0.00000000000E+00  0.00000000000E+00  0.26638672466E+03  0.26638672466E+03  0.00000000000E+00 0.  1.
         13   -1    0    0    0    0 -0.00000000000E+00 -0.00000000000E+00 -0.10000000000E+04  0.10000000000E+04  0.00000000000E+00 0.  1.
    9000005    2    1    2  501    0 -0.32547754856E+02 -0.39921481582E+02 -0.88796556084E+03  0.11036669991E+04  0.65341022850E+03 0.  0.
         13    1    3    3    0    0 -0.32397575833E+03 -0.12183864862E+03 -0.55095461960E+03  0.65065808313E+03  0.00000000000E+00 0.  1.
          3    1    3    3  501    0  0.29142800348E+03  0.81917167038E+02 -0.33701094124E+03  0.45300891600E+03  0.00000000000E+00 0.  1.
         -1    1    1    2    0  502  0.32547754856E+02  0.39921481582E+02  0.15435228549E+03  0.16271972553E+03  0.00000000000E+00 0. -1.
<mgrwt>
<rscale>  1 0.65543726E+03</rscale>
<asrwt>0</asrwt>
<pdfrwt beam="1">  1       21 0.40982572E-01 0.65543726E+03</pdfrwt>
<pdfrwt beam="2">0</pdfrwt>
<totfact> 0.53671597E+02</totfact>
</mgrwt>
</event>
<event>
 6    1  0.1347953E-004  0.6408745E+03  0.7818608E-02  0.9824055E-01
         21   -1    0    0  501  502  0.00000000000E+00  0.00000000000E+00  0.27790681313E+03  0.27790681313E+03  0.00000000000E+00 0. -1.
         13   -1    0    0    0    0 -0.00000000000E+00 -0.00000000000E+00 -0.10000000000E+04  0.10000000000E+04  0.00000000000E+00 0.  1.
    9000005    2    1    2  501    0 -0.29374908619E+02 -0.10096473126E+02 -0.89580067435E+03  0.11014440260E+04  0.64012129341E+03 0.  0.
         13    1    3    3    0    0 -0.11550318832E+03 -0.25231186815E+03 -0.15618881524E+03  0.31842928780E+03  0.00000000000E+00 0.  1.
          1    1    3    3  501    0  0.86128279702E+02  0.24221539502E+03 -0.73961185911E+03  0.78301473823E+03  0.00000000000E+00 0.  1.
         -3    1    1    2    0  502  0.29374908619E+02  0.10096473126E+02  0.17370748748E+03  0.17646278710E+03  0.00000000000E+00 0. -1.
<mgrwt>
<rscale>  1 0.64087448E+03</rscale>
<asrwt>0</asrwt>
<pdfrwt beam="1">  1       21 0.42754893E-01 0.64087448E+03</pdfrwt>
<pdfrwt beam="2">0</pdfrwt>
<totfact> 0.49187561E+02</totfact>
</mgrwt>
</event>
<event>
 6    1  0.1347953E-004  0.6645239E+03  0.7818608E-02  0.9779901E-01
         21   -1    0    0  501  502  0.00000000000E+00  0.00000000000E+00  0.12941439576E+03  0.12941439576E+03  0.00000000000E+00 0.  1.
         13   -1    0    0    0    0 -0.00000000000E+00 -0.00000000000E+00 -0.10000000000E+04  0.10000000000E+04  0.00000000000E+00 0.  1.
    9000005    2    1    2  501    0 -0.43913334801E+02  0.52067462504E+01 -0.85422806168E+03  0.10822650545E+04  0.66305096011E+03 0.  0.
         13    1    3    3    0    0 -0.11721905976E+03 -0.81283235333E+02 -0.93323628430E+03  0.94407480353E+03  0.00000000000E+00 0.  1.
          1    1    3    3  501    0  0.73305724962E+02  0.86489981584E+02  0.79008222627E+02  0.13819025099E+03  0.00000000000E+00 0.  1.
         -3    1    1    2    0  502  0.43913334801E+02 -0.52067462504E+01 -0.16357542567E+02  0.47149341233E+02  0.00000000000E+00 0. -1.
<mgrwt>
<rscale>  1 0.66452394E+03</rscale>
<asrwt>0</asrwt>
<pdfrwt beam="1">  1       21 0.19909906E-01 0.66452394E+03</pdfrwt>
<pdfrwt beam="2">0</pdfrwt>
<totfact> 0.22624966E+03</totfact>
</mgrwt>
</event>
<event>
 6    1  0.1347953E-004  0.6564684E+03  0.7818608E-02  0.9794717E-01
         21   -1    0    0  501  502  0.00000000000E+00  0.00000000000E+00  0.18253065088E+03  0.18253065088E+03  0.00000000000E+00 0.  1.
         13   -1    0    0    0    0 -0.00000000000E+00 -0.00000000000E+00 -0.10000000000E+04  0.10000000000E+04  0.00000000000E+00 0.  1.
    9000005    2    1    2  501    0 -0.84922151494E+02  0.32131903766E+02 -0.86028323507E+03  0.10821450947E+04  0.65015885017E+03 0.  0.
         13    1    3    3    0    0 -0.63707175895E+01  0.33931117741E+03 -0.45023277773E+03  0.56381044270E+03  0.00000000000E+00 0.  1.
          3    1    3    3  501    0 -0.78551433904E+02 -0.30717927365E+03 -0.41005045734E+03  0.51833465202E+03  0.00000000000E+00 0.  1.
         -3    1    1    2    0  502  0.84922151494E+02 -0.32131903766E+02  0.42813885945E+02  0.10038555615E+03  0.00000000000E+00 0. -1.
<mgrwt>
<rscale>  1 0.65646840E+03</rscale>
<asrwt>0</asrwt>
<pdfrwt beam="1">  1       21 0.28081638E-01 0.65646840E+03</pdfrwt>
<pdfrwt beam="2">0</pdfrwt>
<totfact> 0.11573094E+03</totfact>
</mgrwt>
</event>
<event>
 6    1  0.1347953E-004  0.6668904E+03  0.7818608E-02  0.9775592E-01
         21   -1    0    0  501  502  0.00000000000E+00  0.00000000000E+00  0.38571131102E+03  0.38571131102E+03  0.00000000000E+00 0. -1.
         13   -1    0    0    0    0 -0.00000000000E+00 -0.00000000000E+00 -0.10000000000E+04  0.10000000000E+04  0.00000000000E+00 0.  1.
    9000005    2    1    2  501    0  0.92349299171E+02  0.52189686512E+00 -0.88014969357E+03  0.11042672860E+04  0.66046505623E+03 0.  0.
         13    1    3    3    0    0 -0.15470479126E+03  0.93992506426E+02 -0.81136556222E+03  0.83131356254E+03  0.00000000000E+00 0.  1.
          1    1    3    3  501    0  0.24705409043E+03 -0.93470609561E+02 -0.68784131347E+02  0.27295372351E+03  0.00000000000E+00 0.  1.
         -1    1    1    2    0  502 -0.92349299171E+02 -0.52189686512E+00  0.26586100459E+03  0.28144402498E+03  0.00000000000E+00 0. -1.
<mgrwt>
<rscale>  1 0.66689036E+03</rscale>
<asrwt>0</asrwt>
<pdfrwt beam="1">  1       21 0.59340200E-01 0.66689036E+03</pdfrwt>
<pdfrwt beam="2">0</pdfrwt>
<totfact> 0.24266121E+02</totfact>
</mgrwt>
</event>
<event>
 6    1  0.1347953E-004  0.6223988E+03  0.7818608E-02  0.9859995E-01
         21   -1    0    0  501  502  0.00000000000E+00  0.00000000000E+00  0.12724404290E+03  0.12724404290E+03  0.00000000000E+00 0.  1.
         13   -1    0    0    0    0 -0.00000000000E+00 -0.00000000000E+00 -0.10000000000E+04  0.10000000000E+04  0.00000000000E+00 0.  1.
    9000005    2    1    2  501    0 -0.83226337192E+02  0.32036453994E+01 -0.81678170800E+03  0.10268946378E+04  0.61680090146E+03 0.  0.
         13    1    3    3    0    0  0.13120180244E+03  0.81830675112E+02 -0.78046569853E+03  0.79563614733E+03  0.00000000000E+00 0.  1.
          3    1    3    3  501    0 -0.21442813963E+03 -0.78627029712E+02 -0.36316009473E+02  0.23125849046E+03  0.00000000000E+00 0.  1.
         -3    1    1    2    0  502  0.83226337192E+02 -0.32036453994E+01 -0.55974249093E+02  0.10034940512E+03  0.00000000000E+00 0. -1.
<mgrwt>
<rscale>  1 0.62239878E+03</rscale>
<asrwt>0</asrwt>
<pdfrwt beam="1">  1       21 0.19576006E-01 0.62239878E+03</pdfrwt>
<pdfrwt beam="2">0</pdfrwt>
<totfact> 0.23407980E+03</totfact>
</mgrwt>
</event>
<event>
 6    1  0.1347953E-004  0.6669776E+03  0.7818608E-02  0.9775433E-01
         21   -1    0    0  501  502  0.00000000000E+00  0.00000000000E+00  0.23353450519E+03  0.23353450519E+03  0.00000000000E+00 0. -1.
         13   -1    0    0    0    0 -0.00000000000E+00 -0.00000000000E+00 -0.10000000000E+04  0.10000000000E+04  0.00000000000E+00 0.  1.
    9000005    2    1    2  501    0  0.30052604306E+02  0.49869127526E+02 -0.88103098389E+03  0.11050224816E+04  0.66443133691E+03 0.  0.
         13    1    3    3    0    0 -0.27346432802E+03  0.36001921773E+02 -0.69750757878E+03  0.75006379697E+03  0.00000000000E+00 0.  1.
          3    1    3    3  501    0  0.30351693233E+03  0.13867205753E+02 -0.18352340511E+03  0.35495868467E+03  0.00000000000E+00 0.  1.
         -1    1    1    2    0  502 -0.30052604306E+02 -0.49869127526E+02  0.11456548908E+03  0.12851202354E+03  0.00000000000E+00 0. -1.
<mgrwt>
<rscale>  1 0.66697758E+03</rscale>
<asrwt>0</asrwt>
<pdfrwt beam="1">  1       21 0.35928384E-01 0.66697758E+03</pdfrwt>
<pdfrwt beam="2">0</pdfrwt>
<totfact> 0.70367417E+02</totfact>
</mgrwt>
</event>
<event>
 6    1  0.1347953E-004  0.6483534E+03  0.7818608E-02  0.9809874E-01
         21   -1    0    0  501  502  0.00000000000E+00  0.00000000000E+00  0.15671244688E+03  0.15671244688E+03  0.00000000000E+00 0.  1.
         13   -1    0    0    0    0 -0.00000000000E+00 -0.00000000000E+00 -0.10000000000E+04  0.10000000000E+04  0.00000000000E+00 0.  1.
    9000005    2    1    2  501    0 -0.10422244302E+03 -0.16974681351E+02 -0.82542991746E+03  0.10496173836E+04  0.63969652634E+03 0.  0.
         13    1    3    3    0    0 -0.94577170480E+02  0.30736580018E+03 -0.45486982854E+03  0.55706834160E+03  0.00000000000E+00 0.  1.
          3    1    3    3  501    0 -0.96452725383E+01 -0.32434048153E+03 -0.37056008891E+03  0.49254904196E+03  0.00000000000E+00 0.  1.
         -1    1    1    2    0  502  0.10422244302E+03  0.16974681351E+02 -0.17857635665E+02  0.10709506332E+03  0.00000000000E+00 0. -1.
<mgrwt>
<rscale>  1 0.64835338E+03</rscale>
<asrwt>0</asrwt>
<pdfrwt beam="1">  1       21 0.24109607E-01 0.64835338E+03</pdfrwt>
<pdfrwt beam="2">0</pdfrwt>
<totfact> 0.15633791E+03</totfact>
</mgrwt>
</event>
<event>
 6    1  0.1347953E-004  0.7974141E+03  0.7818608E-02  0.9563768E-01
         21   -1    0    0  501  502  0.00000000000E+00  0.00000000000E+00  0.21741485444E+03  0.21741485444E+03  0.00000000000E+00 0.  1.
         13   -1    0    0    0    0 -0.00000000000E+00 -0.00000000000E+00 -0.10000000000E+04  0.10000000000E+04  0.00000000000E+00 0.  1.
    9000005    2    1    2  501    0  0.26610608454E+02 -0.31914174759E+02 -0.83228349490E+03  0.11526339548E+04  0.79633069688E+03 0.  0.
         13    1    3    3    0    0  0.21992775657E+03 -0.16599949690E+03  0.12376523808E+02  0.27582100975E+03  0.00000000000E+00 0.  1.
          1    1    3    3  501    0 -0.19331714811E+03  0.13408532214E+03 -0.84466001871E+03  0.87681294503E+03  0.00000000000E+00 0.  1.
         -3    1    1    2    0  502 -0.26610608454E+02  0.31914174759E+02  0.49698349340E+02  0.64780899654E+02  0.00000000000E+00 0. -1.
<mgrwt>
<rscale>  1 0.79741408E+03</rscale>
<asrwt>0</asrwt>
<pdfrwt beam="1">  1       21 0.33448438E-01 0.79741408E+03</pdfrwt>
<pdfrwt beam="2">0</pdfrwt>
<totfact> 0.80752743E+02</totfact>
</mgrwt>
</event>
<event>
 6    1  0.1347953E-004  0.6525536E+03  0.7818608E-02  0.9801999E-01
         21   -1    0    0  501  502  0.00000000000E+00  0.00000000000E+00  0.49336465705E+03  0.49336465705E+03  0.00000000000E+00 0. -1.
         13   -1    0    0    0    0 -0.00000000000E+00 -0.00000000000E+00 -0.10000000000E+04  0.10000000000E+04  0.00000000000E+00 0.  1.
    9000005    2    1    2  501    0  0.10343066525E+02  0.25857438225E+02 -0.89298884766E+03  0.11060087267E+04  0.65195907499E+03 0.  0.
         13    1    3    3    0    0 -0.62434673501E+02 -0.29916791204E+03 -0.54140087905E+03  0.62170285498E+03  0.00000000000E+00 0.  1.
          3    1    3    3  501    0  0.72777740026E+02  0.32502535027E+03 -0.35158796861E+03  0.48430587177E+03  0.00000000000E+00 0.  1.
         -1    1    1    2    0  502 -0.10343066525E+02 -0.25857438225E+02  0.38635350472E+03  0.38735593031E+03  0.00000000000E+00 0. -1.
<mgrwt>
<rscale>  1 0.65255362E+03</rscale>
<asrwt>0</asrwt>
<pdfrwt beam="1">  1       21 0.75902253E-01 0.65255362E+03</pdfrwt>
<pdfrwt beam="2">0</pdfrwt>
<totfact> 0.13952998E+02</totfact>
</mgrwt>
</event>
<event>
 6    1  0.1347953E-004  0.6591840E+03  0.7818608E-02  0.9789697E-01
         21   -1    0    0  501  502  0.00000000000E+00  0.00000000000E+00  0.12470186426E+03  0.12470186426E+03  0.00000000000E+00 0.  1.
         13   -1    0    0    0    0 -0.00000000000E+00 -0.00000000000E+00 -0.10000000000E+04  0.10000000000E+04  0.00000000000E+00 0.  1.
    9000005    2    1    2  501    0  0.19549184874E+02 -0.37341282336E+02 -0.84960850816E+03  0.10753409591E+04  0.65783510025E+03 0.  0.
         13    1    3    3    0    0 -0.24607840194E+03  0.84746653671E+02 -0.70025701225E+03  0.74705853748E+03  0.00000000000E+00 0.  1.
          1    1    3    3  501    0  0.26562758682E+03 -0.12208793601E+03 -0.14935149591E+03  0.32828242160E+03  0.00000000000E+00 0.  1.
         -1    1    1    2    0  502 -0.19549184874E+02  0.37341282336E+02 -0.25689627574E+02  0.49360905185E+02  0.00000000000E+00 0. -1.
<mgrwt>
<rscale>  1 0.65918401E+03</rscale>
<asrwt>0</asrwt>
<pdfrwt beam="1">  1       21 0.19184902E-01 0.65918401E+03</pdfrwt>
<pdfrwt beam="2">0</pdfrwt>
<totfact> 0.24294631E+03</totfact>
</mgrwt>
</event>
<event>
 6    1  0.1347953E-004  0.6795904E+03  0.7818608E-02  0.9752786E-01
         21   -1    0    0  501  502  0.00000000000E+00  0.00000000000E+00  0.46365752766E+03  0.46365752766E+03  0.00000000000E+00 0. -1.
         13   -1    0    0    0    0 -0.00000000000E+00 -0.00000000000E+00 -0.10000000000E+04  0.10000000000E+04  0.00000000000E+00 0.  1.
    9000005    2    1    2  501    0 -0.16090368142E+03  0.35692322014E+02 -0.86259320954E+03  0.10981394295E+04  0.65930207415E+03 0.  0.
         13    1    3    3    0    0 -0.10930748887E+03  0.23058837879E+03 -0.48882021161E+02  0.25982413196E+03  0.00000000000E+00 0.  1.
          3    1    3    3  501    0 -0.51596192549E+02 -0.19489605677E+03 -0.81371118838E+03  0.83831529756E+03  0.00000000000E+00 0.  1.
         -1    1    1    2    0  502  0.16090368142E+03 -0.35692322014E+02  0.32625073720E+03  0.36551809814E+03  0.00000000000E+00 0. -1.
<mgrwt>
<rscale>  1 0.67959044E+03</rscale>
<asrwt>0</asrwt>
<pdfrwt beam="1">  1       21 0.71331925E-01 0.67959044E+03</pdfrwt>
<pdfrwt beam="2">0</pdfrwt>
<totfact> 0.16036231E+02</totfact>
</mgrwt>
</event>
<event>
 6    1  0.1347953E-004  0.6492472E+03  0.7818608E-02  0.9808193E-01
         21   -1    0    0  501  502  0.00000000000E+00  0.00000000000E+00  0.13599459742E+03  0.13599459742E+03  0.00000000000E+00 0. -1.
         13   -1    0    0    0    0 -0.00000000000E+00 -0.00000000000E+00 -0.10000000000E+04  0.10000000000E+04  0.00000000000E+00 0.  1.
    9000005    2    1    2  501    0 -0.27132817989E+02 -0.27455362953E+01 -0.88775449338E+03  0.10998318114E+04  0.64867422099E+03 0.  0.
         13    1    3    3    0    0 -0.14428218721E+03  0.15484922726E+03 -0.87807870813E+03  0.90322635612E+03  0.00000000000E+00 0.  1.
          1    1    3    3  501    0  0.11714936922E+03 -0.15759476355E+03 -0.96757852540E+01  0.19660545524E+03  0.00000000000E+00 0.  1.
         -3    1    1    2    0  502  0.27132817989E+02  0.27455362953E+01  0.23749090799E+02  0.36162786056E+02  0.00000000000E+00 0. -1.
<mgrwt>
<rscale>  1 0.64924724E+03</rscale>
<asrwt>0</asrwt>
<pdfrwt beam="1">  1       21 0.20922245E-01 0.64924724E+03</pdfrwt>
<pdfrwt beam="2">0</pdfrwt>
<totfact> 0.20580778E+03</totfact>
</mgrwt>
</event>
<event>
 6    1  0.1347953E-004  0.6533008E+03  0.7818608E-02  0.9800605E-01
         21   -1    0    0  501  502  0.00000000000E+00  0.00000000000E+00  0.14921713407E+03  0.14921713407E+03  0.00000000000E+00 0.  1.
         13   -1    0    0    0    0 -0.00000000000E+00 -0.00000000000E+00 -0.10000000000E+04  0.10000000000E+04  0.00000000000E+00 0.  1.
    9000005    2    1    2  501    0 -0.27189777319E+02  0.65564337044E+02 -0.85739894580E+03  0.10779308184E+04  0.64943354609E+03 0.  0.
         13    1    3    3    0    0 -0.32609195248E+03 -0.42201116317E+02 -0.35860518432E+03  0.48653321974E+03  0.00000000000E+00 0.  1.
          1    1    3    3  501    0  0.29890217516E+03  0.10776545336E+03 -0.49879376148E+03  0.59139759870E+03  0.00000000000E+00 0.  1.
         -3    1    1    2    0  502  0.27189777319E+02 -0.65564337044E+02  0.66160798691E+01  0.71286315626E+02  0.00000000000E+00 0. -1.
<mgrwt>
<rscale>  1 0.65330077E+03</rscale>
<asrwt>0</asrwt>
<pdfrwt beam="1">  1       21 0.22956482E-01 0.65330077E+03</pdfrwt>
<pdfrwt beam="2">0</pdfrwt>
<totfact> 0.17195943E+03</totfact>
</mgrwt>
</event>
<event>
 6    1  0.1347953E-004  0.6444797E+03  0.7818608E-02  0.9817193E-01
         21   -1    0    0  501  502  0.00000000000E+00  0.00000000000E+00  0.12480130216E+03  0.12480130216E+03  0.00000000000E+00 0.  1.
         13   -1    0    0    0    0 -0.00000000000E+00 -0.00000000000E+00 -0.10000000000E+04  0.10000000000E+04  0.00000000000E+00 0.  1.
    9000005    2    1    2  501    0 -0.29345745047E+02 -0.12663239116E+02 -0.88175449115E+03  0.10921744911E+04  0.64368672960E+03 0.  0.
         13    1    3    3    0    0 -0.23950097328E+03 -0.20616852907E+03 -0.65570313008E+03  0.72788238980E+03  0.00000000000E+00 0.  1.
          1    1    3    3  501    0  0.21015522823E+03  0.19350528996E+03 -0.22605136107E+03  0.36429210126E+03  0.00000000000E+00 0.  1.
         -3    1    1    2    0  502  0.29345745047E+02  0.12663239116E+02  0.65557933174E+01  0.32626811111E+02  0.00000000000E+00 0. -1.
<mgrwt>
<rscale>  1 0.64447974E+03</rscale>
<asrwt>0</asrwt>
<pdfrwt beam="1">  1       21 0.19200200E-01 0.64447974E+03</pdfrwt>
<pdfrwt beam="2">0</pdfrwt>
<totfact> 0.24270783E+03</totfact>
</mgrwt>
</event>
<event>
 6    1  0.1347953E-004  0.6440548E+03  0.7818608E-02  0.9817999E-01
         21   -1    0    0  501  502  0.00000000000E+00  0.00000000000E+00  0.18449300925E+03  0.18449300925E+03  0.00000000000E+00 0.  1.
         13   -1    0    0    0    0 -0.00000000000E+00 -0.00000000000E+00 -0.10000000000E+04  0.10000000000E+04  0.00000000000E+00 0.  1.
    9000005    2    1    2  501    0  0.13587868894E+02 -0.56440312004E+02 -0.88461659176E+03  0.10942362868E+04  0.64143308137E+03 0.  0.
         13    1    3    3    0    0 -0.60070696317E+02 -0.24801648758E+03 -0.84823307049E+03  0.88578778979E+03  0.00000000000E+00 0.  1.
          3    1    3    3  501    0  0.73658565211E+02  0.19157617557E+03 -0.36383521270E+02  0.20844849699E+03  0.00000000000E+00 0.  1.
         -1    1    1    2    0  502 -0.13587868894E+02  0.56440312004E+02  0.69109601013E+02  0.90256722477E+02  0.00000000000E+00 0. -1.
<mgrwt>
<rscale>  1 0.64405476E+03</rscale>
<asrwt>0</asrwt>
<pdfrwt beam="1">  1       21 0.28383539E-01 0.64405476E+03</pdfrwt>
<pdfrwt beam="2">0</pdfrwt>
<totfact> 0.11337985E+03</totfact>
</mgrwt>
</event>
<event>
 6    1  0.1347953E-004  0.6608504E+03  0.7818608E-02  0.9786629E-01
         21   -1    0    0  501  502  0.00000000000E+00  0.00000000000E+00  0.16870900106E+03  0.16870900106E+03  0.00000000000E+00 0.  1.
         13   -1    0    0    0    0 -0.00000000000E+00 -0.00000000000E+00 -0.10000000000E+04  0.10000000000E+04  0.00000000000E+00 0.  1.
    9000005    2    1    2  501    0 -0.17336317163E+02  0.15746577362E+03 -0.70311284664E+03  0.96493055155E+03  0.64158185484E+03 0.  0.
         13    1    3    3    0    0 -0.29751233494E+03 -0.16603699779E+02 -0.48589244441E+03  0.56998310486E+03  0.00000000000E+00 0.  1.
          1    1    3    3  501    0  0.28017601778E+03  0.17406947340E+03 -0.21722040223E+03  0.39494744669E+03  0.00000000000E+00 0.  1.
         -1    1    1    2    0  502  0.17336317163E+02 -0.15746577362E+03 -0.12817815231E+03  0.20377844951E+03  0.00000000000E+00 0. -1.
<mgrwt>
<rscale>  1 0.66085043E+03</rscale>
<asrwt>0</asrwt>
<pdfrwt beam="1">  1       21 0.25955230E-01 0.66085043E+03</pdfrwt>
<pdfrwt beam="2">0</pdfrwt>
<totfact> 0.13519932E+03</totfact>
</mgrwt>
</event>
<event>
 6    1  0.1347953E-004  0.7275986E+03  0.7818608E-02  0.9671165E-01
         21   -1    0    0  501  502  0.00000000000E+00  0.00000000000E+00  0.42096345991E+03  0.42096345991E+03  0.00000000000E+00 0.  1.
         13   -1    0    0    0    0 -0.00000000000E+00 -0.00000000000E+00 -0.10000000000E+04  0.10000000000E+04  0.00000000000E+00 0.  1.
    9000005    2    1    2  501    0  0.89168757139E+02  0.23348393889E+03 -0.80424652656E+03  0.10845331477E+04  0.68332558564E+03 0.  0.
         13    1    3    3    0    0 -0.18785895501E+03  0.19044038283E+03 -0.75356570987E+03  0.79963729620E+03  0.00000000000E+00 0.  1.
          1    1    3    3  501    0  0.27702771215E+03  0.43043556060E+02 -0.50680816694E+02  0.28489585149E+03  0.00000000000E+00 0.  1.
         -1    1    1    2    0  502 -0.89168757139E+02 -0.23348393889E+03  0.22520998648E+03  0.33643031222E+03  0.00000000000E+00 0. -1.
<mgrwt>
<rscale>  1 0.72759857E+03</rscale>
<asrwt>0</asrwt>
<pdfrwt beam="1">  1       21 0.64763607E-01 0.72759857E+03</pdfrwt>
<pdfrwt beam="2">0</pdfrwt>
<totfact> 0.19849534E+02</totfact>
</mgrwt>
</event>
<event>
 6    1  0.1347953E-004  0.6036981E+03  0.7818608E-02  0.9897763E-01
         21   -1    0    0  501  502  0.00000000000E+00  0.00000000000E+00  0.11176893946E+03  0.11176893946E+03  0.00000000000E+00 0.  1.
         13   -1    0    0    0    0 -0.00000000000E+00 -0.00000000000E+00 -0.10000000000E+04  0.10000000000E+04  0.00000000000E+00 0.  1.
    9000005    2    1    2  501    0 -0.18039543554E+02  0.14471515056E+02 -0.90160439989E+03  0.10850538485E+04  0.60325492983E+03 0.  0.
         13    1    3    3    0    0 -0.30999175247E+03 -0.78718137776E+01 -0.49161012506E+03  0.58123778879E+03  0.00000000000E+00 0.  1.
          1    1    3    3  501    0  0.29195220891E+03  0.22343328834E+02 -0.40999427483E+03  0.50381605971E+03  0.00000000000E+00 0.  1.
         -1    1    1    2    0  502  0.18039543554E+02 -0.14471515056E+02  0.13373339350E+02  0.26715090961E+02  0.00000000000E+00 0. -1.
<mgrwt>
<rscale>  1 0.60369807E+03</rscale>
<asrwt>0</asrwt>
<pdfrwt beam="1">  1       21 0.17195221E-01 0.60369807E+03</pdfrwt>
<pdfrwt beam="2">0</pdfrwt>
<totfact> 0.29965399E+03</totfact>
</mgrwt>
</event>
<event>
 6    1  0.1347953E-004  0.6952183E+03  0.7818608E-02  0.9725445E-01
         21   -1    0    0  501  502  0.00000000000E+00  0.00000000000E+00  0.86654513207E+03  0.86654513207E+03  0.00000000000E+00 0. -1.
         13   -1    0    0    0    0 -0.00000000000E+00 -0.00000000000E+00 -0.10000000000E+04  0.10000000000E+04  0.00000000000E+00 0.  1.
    9000005    2    1    2  501    0  0.15506011500E+03 -0.19033260687E+03 -0.85639398122E+03  0.11030589816E+04  0.65042933913E+03 0.  0.
         13    1    3    3    0    0  0.16929945264E+03 -0.12580483788E+03  0.31015420083E+02  0.21319267854E+03  0.00000000000E+00 0.  1.
          3    1    3    3  501    0 -0.14239337642E+02 -0.64527768992E+02 -0.88740940131E+03  0.88986630301E+03  0.00000000000E+00 0.  1.
         -3    1    1    2    0  502 -0.15506011500E+03  0.19033260687E+03  0.72293911330E+03  0.76348615052E+03  0.00000000000E+00 0. -1.
<mgrwt>
<rscale>  1 0.69521829E+03</rscale>
<asrwt>0</asrwt>
<pdfrwt beam="1">  1       21 0.13331463E+00 0.69521829E+03</pdfrwt>
<pdfrwt beam="2">0</pdfrwt>
<totfact> 0.34634701E+01</totfact>
</mgrwt>
</event>
<event>
 6    1  0.1347953E-004  0.6556141E+03  0.7818608E-02  0.9796301E-01
         21   -1    0    0  501  502  0.00000000000E+00  0.00000000000E+00  0.19682770804E+03  0.19682770804E+03  0.00000000000E+00 0. -1.
         13   -1    0    0    0    0 -0.00000000000E+00 -0.00000000000E+00 -0.10000000000E+04  0.10000000000E+04  0.00000000000E+00 0.  1.
    9000005    2    1    2  501    0 -0.29066333510E+02 -0.76596276531E+02 -0.87120709708E+03  0.10903355673E+04  0.65047521252E+03 0.  0.
         13    1    3    3    0    0  0.23883926204E+03  0.76071812753E+02 -0.11919018664E+03  0.27755614635E+03  0.00000000000E+00 0.  1.
          3    1    3    3  501    0 -0.26790559555E+03 -0.15266808928E+03 -0.75201691044E+03  0.81277942100E+03  0.00000000000E+00 0.  1.
         -3    1    1    2    0  502  0.29066333510E+02  0.76596276531E+02  0.68034805119E+02  0.10649214069E+03  0.00000000000E+00 0. -1.
<mgrwt>
<rscale>  1 0.65561410E+03</rscale>
<asrwt>0</asrwt>
<pdfrwt beam="1">  1       21 0.30281185E-01 0.65561410E+03</pdfrwt>
<pdfrwt beam="2">0</pdfrwt>
<totfact> 0.99565422E+02</totfact>
</mgrwt>
</event>
<event>
 6    1  0.1347953E-004  0.6326219E+03  0.7818608E-02  0.9839946E-01
         21   -1    0    0  501  502  0.00000000000E+00  0.00000000000E+00  0.16059694425E+03  0.16059694425E+03  0.00000000000E+00 0.  1.
         13   -1    0    0    0    0 -0.00000000000E+00 -0.00000000000E+00 -0.10000000000E+04  0.10000000000E+04  0.00000000000E+00 0.  1.
    9000005    2    1    2  501    0  0.21740778505E+02 -0.29311462186E+02 -0.89383836734E+03  0.10950604932E+04  0.63156839189E+03 0.  0.
         13    1    3    3    0    0 -0.25470527638E+03 -0.16054709271E+03 -0.28961845770E+03  0.41776667870E+03  0.00000000000E+00 0.  1.
          1    1    3    3  501    0  0.27644605489E+03  0.13123563053E+03 -0.60421990964E+03  0.67729381452E+03  0.00000000000E+00 0.  1.
         -3    1    1    2    0  502 -0.21740778505E+02  0.29311462186E+02  0.54435311583E+02  0.65536451023E+02  0.00000000000E+00 0. -1.
<mgrwt>
<rscale>  1 0.63262189E+03</rscale>
<asrwt>0</asrwt>
<pdfrwt beam="1">  1       21 0.24707221E-01 0.63262189E+03</pdfrwt>
<pdfrwt beam="2">0</pdfrwt>
<totfact> 0.14915181E+03</totfact>
</mgrwt>
</event>
<event>
 6    1  0.1347953E-004  0.6648428E+03  0.7818608E-02  0.9779319E-01
         21   -1    0    0  501  502  0.00000000000E+00  0.00000000000E+00  0.17326502952E+03  0.17326502952E+03  0.00000000000E+00 0.  1.
         13   -1    0    0    0    0 -0.00000000000E+00 -0.00000000000E+00 -0.10000000000E+04  0.10000000000E+04  0.00000000000E+00 0.  1.
    9000005    2    1    2  501    0  0.21287626360E+02  0.92119204292E+02 -0.84680382366E+03  0.10766116814E+04  0.65808577398E+03 0.  0.
         13    1    3    3    0    0 -0.14531400343E+03  0.31245818733E+03 -0.27247274509E+03  0.43930362534E+03  0.00000000000E+00 0.  1.
          1    1    3    3  501    0  0.16660162979E+03 -0.22033898304E+03 -0.57433107857E+03  0.63730805605E+03  0.00000000000E+00 0.  1.
         -1    1    1    2    0  502 -0.21287626360E+02 -0.92119204292E+02  0.20068853170E+02  0.96653348121E+02  0.00000000000E+00 0. -1.
<mgrwt>
<rscale>  1 0.66484284E+03</rscale>
<asrwt>0</asrwt>
<pdfrwt beam="1">  1       21 0.26656158E-01 0.66484284E+03</pdfrwt>
<pdfrwt beam="2">0</pdfrwt>
<totfact> 0.12825231E+03</totfact>
</mgrwt>
</event>
<event>
 6    1  0.1347953E-004  0.6501567E+03  0.7818608E-02  0.9806485E-01
         21   -1    0    0  501  502  0.00000000000E+00  0.00000000000E+00  0.12825152191E+03  0.12825152191E+03  0.00000000000E+00 0.  1.
         13   -1    0    0    0    0 -0.00000000000E+00 -0.00000000000E+00 -0.10000000000E+04  0.10000000000E+04  0.00000000000E+00 0.  1.
    9000005    2    1    2  501    0 -0.21780518692E+02  0.29355518943E+02 -0.87658732755E+03  0.10913794193E+04  0.64912830515E+03 0.  0.
         13    1    3    3    0    0  0.12359087059E+03  0.17332768311E+03 -0.23582676633E+02  0.21418060525E+03  0.00000000000E+00 0.  1.
          3    1    3    3  501    0 -0.14537138929E+03 -0.14397216417E+03 -0.85300465092E+03  0.87719881405E+03  0.00000000000E+00 0.  1.
         -3    1    1    2    0  502  0.21780518692E+02 -0.29355518943E+02  0.48388494618E+01  0.36872102612E+02  0.00000000000E+00 0. -1.
<mgrwt>
<rscale>  1 0.65015667E+03</rscale>
<asrwt>0</asrwt>
<pdfrwt beam="1">  1       21 0.19731003E-01 0.65015667E+03</pdfrwt>
<pdfrwt beam="2">0</pdfrwt>
<totfact> 0.23032396E+03</totfact>
</mgrwt>
</event>
<event>
 6    1  0.1347953E-004  0.6559005E+03  0.7818608E-02  0.9795770E-01
         21   -1    0    0  501  502  0.00000000000E+00  0.00000000000E+00  0.19388124614E+03  0.19388124614E+03  0.00000000000E+00 0.  1.
         13   -1    0    0    0    0 -0.00000000000E+00 -0.00000000000E+00 -0.10000000000E+04  0.10000000000E+04  0.00000000000E+00 0.  1.
    9000005    2    1    2  501    0 -0.25617395175E+02 -0.27379745430E+02 -0.88791442598E+03  0.11039010629E+04  0.65482793728E+03 0.  0.
         13    1    3    3    0    0 -0.31220096674E+03 -0.14444772184E+03 -0.51359648764E+03  0.61815527183E+03  0.00000000000E+00 0.  1.
          3    1    3    3  501    0  0.28658357157E+03  0.11706797641E+03 -0.37431793834E+03  0.48574579108E+03  0.00000000000E+00 0.  1.
         -1    1    1    2    0  502  0.25617395175E+02  0.27379745430E+02  0.81795672117E+02  0.89980183221E+02  0.00000000000E+00 0. -1.
<mgrwt>
<rscale>  1 0.65590055E+03</rscale>
<asrwt>0</asrwt>
<pdfrwt beam="1">  1       21 0.29827883E-01 0.65590055E+03</pdfrwt>
<pdfrwt beam="2">0</pdfrwt>
<totfact> 0.10261696E+03</totfact>
</mgrwt>
</event>
<event>
 6    1  0.1347953E-004  0.6555405E+03  0.7818608E-02  0.9796438E-01
         21   -1    0    0  501  502  0.00000000000E+00  0.00000000000E+00  0.76398350792E+03  0.76398350792E+03  0.00000000000E+00 0. -1.
         13   -1    0    0    0    0 -0.00000000000E+00 -0.00000000000E+00 -0.10000000000E+04  0.10000000000E+04  0.00000000000E+00 0.  1.
    9000005    2    1    2  501    0 -0.14808613771E+01 -0.13923652421E+03 -0.88437467778E+03  0.11008414872E+04  0.64058130374E+03 0.  0.
         13    1    3    3    0    0 -0.18817437018E+02 -0.37870012045E+03 -0.70727583070E+03  0.80250045349E+03  0.00000000000E+00 0.  1.
          3    1    3    3  501    0  0.17336575641E+02  0.23946359624E+03 -0.17709884708E+03  0.29834103375E+03  0.00000000000E+00 0.  1.
         -1    1    1    2    0  502  0.14808613771E+01  0.13923652421E+03  0.64835818571E+03  0.66314202068E+03  0.00000000000E+00 0. -1.
<mgrwt>
<rscale>  1 0.65554055E+03</rscale>
<asrwt>0</asrwt>
<pdfrwt beam="1">  1       21 0.11753592E+00 0.65554055E+03</pdfrwt>
<pdfrwt beam="2">0</pdfrwt>
<totfact> 0.48385790E+01</totfact>
</mgrwt>
</event>
<event>
 6    1  0.1347953E-004  0.7402852E+03  0.7818608E-02  0.9650716E-01
         21   -1    0    0  501  502  0.00000000000E+00  0.00000000000E+00  0.38973528320E+03  0.38973528320E+03  0.00000000000E+00 0. -1.
         13   -1    0    0    0    0 -0.00000000000E+00 -0.00000000000E+00 -0.10000000000E+04  0.10000000000E+04  0.00000000000E+00 0.  1.
    9000005    2    1    2  501    0 -0.34377131271E+03  0.68354630483E+02 -0.70957554863E+03  0.10254363506E+04  0.65205151564E+03 0.  0.
         13    1    3    3    0    0 -0.50627255940E+03 -0.72931078572E+02 -0.58332579178E+03  0.77582203241E+03  0.00000000000E+00 0.  1.
          3    1    3    3  501    0  0.16250124669E+03  0.14128570906E+03 -0.12624975685E+03  0.24961431823E+03  0.00000000000E+00 0.  1.
         -3    1    1    2    0  502  0.34377131271E+03 -0.68354630483E+02  0.99310831830E+02  0.36429893257E+03  0.00000000000E+00 0. -1.
<mgrwt>
<rscale>  1 0.74028525E+03</rscale>
<asrwt>0</asrwt>
<pdfrwt beam="1">  1       21 0.59959273E-01 0.74028525E+03</pdfrwt>
<pdfrwt beam="2">0</pdfrwt>
<totfact> 0.23542822E+02</totfact>
</mgrwt>
</event>
<event>
 6    1  0.1347953E-004  0.6491190E+03  0.7818608E-02  0.9808434E-01
         21   -1    0    0  501  502  0.00000000000E+00  0.00000000000E+00  0.17538118915E+03  0.17538118915E+03  0.00000000000E+00 0.  1.
         13   -1    0    0    0    0 -0.00000000000E+00 -0.00000000000E+00 -0.10000000000E+04  0.10000000000E+04  0.00000000000E+00 0.  1.
    9000005    2    1    2  501    0 -0.81681490164E+01  0.22198851886E+02 -0.89244662169E+03  0.11035472166E+04  0.64868789036E+03 0.  0.
         13    1    3    3    0    0  0.63502953996E+02  0.29354283496E+02 -0.98432131330E+03  0.98680431036E+03  0.00000000000E+00 0.  1.
          1    1    3    3  501    0 -0.71671103012E+02 -0.71554316101E+01  0.91874691610E+02  0.11674290628E+03  0.00000000000E+00 0.  1.
         -1    1    1    2    0  502  0.81681490164E+01 -0.22198851886E+02  0.67827810839E+02  0.71833972510E+02  0.00000000000E+00 0. -1.
<mgrwt>
<rscale>  1 0.64911901E+03</rscale>
<asrwt>0</asrwt>
<pdfrwt beam="1">  1       21 0.26981721E-01 0.64911901E+03</pdfrwt>
<pdfrwt beam="2">0</pdfrwt>
<totfact> 0.12532313E+03</totfact>
</mgrwt>
</event>
<event>
 6    1  0.1347953E-004  0.6467054E+03  0.7818608E-02  0.9812981E-01
         21   -1    0    0  501  502  0.00000000000E+00  0.00000000000E+00  0.11856492831E+03  0.11856492831E+03  0.00000000000E+00 0.  1.
         13   -1    0    0    0    0 -0.00000000000E+00 -0.00000000000E+00 -0.10000000000E+04  0.10000000000E+04  0.00000000000E+00 0.  1.
    9000005    2    1    2  501    0  0.31020850844E+02 -0.22093930964E+02 -0.85574203577E+03  0.10726240199E+04  0.64558300880E+03 0.  0.
         13    1    3    3    0    0 -0.94073910435E+02 -0.23654961025E+03 -0.93878914129E+02  0.27132797359E+03  0.00000000000E+00 0.  1.
          3    1    3    3  501    0  0.12509476128E+03  0.21445567929E+03 -0.76186312164E+03  0.80129604629E+03  0.00000000000E+00 0.  1.
         -3    1    1    2    0  502 -0.31020850844E+02  0.22093930964E+02 -0.25693035926E+02  0.45940908432E+02  0.00000000000E+00 0. -1.
<mgrwt>
<rscale>  1 0.64670539E+03</rscale>
<asrwt>0</asrwt>
<pdfrwt beam="1">  1       21 0.18240758E-01 0.64670539E+03</pdfrwt>
<pdfrwt beam="2">0</pdfrwt>
<totfact> 0.26758002E+03</totfact>
</mgrwt>
</event>
<event>
 6    1  0.1347953E-004  0.6520816E+03  0.7818608E-02  0.9802881E-01
         21   -1    0    0  501  502  0.00000000000E+00  0.00000000000E+00  0.14191536649E+03  0.14191536649E+03  0.00000000000E+00 0.  1.
         13   -1    0    0    0    0 -0.00000000000E+00 -0.00000000000E+00 -0.10000000000E+04  0.10000000000E+04  0.00000000000E+00 0.  1.
    9000005    2    1    2  501    0  0.22436044224E+02 -0.92238724684E+01 -0.88906743822E+03  0.11025657783E+04  0.65163020944E+03 0.  0.
         13    1    3    3    0    0  0.12705717682E+03  0.16013330971E+03 -0.13729078650E+02  0.20487725755E+03  0.00000000000E+00 0.  1.
          1    1    3    3  501    0 -0.10462113259E+03 -0.16935718218E+03 -0.87533835957E+03  0.89768852074E+03  0.00000000000E+00 0.  1.
         -1    1    1    2    0  502 -0.22436044224E+02  0.92238724684E+01  0.30982804712E+02  0.39349588200E+02  0.00000000000E+00 0. -1.
<mgrwt>
<rscale>  1 0.65208158E+03</rscale>
<asrwt>0</asrwt>
<pdfrwt beam="1">  1       21 0.21833133E-01 0.65208158E+03</pdfrwt>
<pdfrwt beam="2">0</pdfrwt>
<totfact> 0.18953627E+03</totfact>
</mgrwt>
</event>
<event>
 6    1  0.1347953E-004  0.6779469E+03  0.7818608E-02  0.9755707E-01
         21   -1    0    0  501  502  0.00000000000E+00  0.00000000000E+00  0.18161278689E+03  0.18161278689E+03  0.00000000000E+00 0.  1.
         13   -1    0    0    0    0 -0.00000000000E+00 -0.00000000000E+00 -0.10000000000E+04  0.10000000000E+04  0.00000000000E+00 0.  1.
    9000005    2    1    2  501    0 -0.69201019949E+02  0.12295904823E+02 -0.86369534699E+03  0.10979898389E+04  0.67429375160E+03 0.  0.
         13    1    3    3    0    0 -0.45715645286E+02 -0.28663150889E+03 -0.69677050515E+03  0.75480903476E+03  0.00000000000E+00 0.  1.
          3    1    3    3  501    0 -0.23485374663E+02  0.29892741372E+03 -0.16692484184E+03  0.34318080412E+03  0.00000000000E+00 0.  1.
         -3    1    1    2    0  502  0.69201019949E+02 -0.12295904823E+02  0.45308133875E+02  0.83622948003E+02  0.00000000000E+00 0. -1.
<mgrwt>
<rscale>  1 0.67794693E+03</rscale>
<asrwt>0</asrwt>
<pdfrwt beam="1">  1       21 0.27940428E-01 0.67794693E+03</pdfrwt>
<pdfrwt beam="2">0</pdfrwt>
<totfact> 0.11675233E+03</totfact>
</mgrwt>
</event>
<event>
 6    1  0.1347953E-004  0.6425118E+03  0.7818608E-02  0.9820933E-01
         21   -1    0    0  501  502  0.00000000000E+00  0.00000000000E+00  0.61572065537E+03  0.61572065537E+03  0.00000000000E+00 0. -1.
         13   -1    0    0    0    0 -0.00000000000E+00 -0.00000000000E+00 -0.10000000000E+04  0.10000000000E+04  0.00000000000E+00 0.  1.
    9000005    2    1    2  501    0 -0.78387992755E+02  0.21881909755E+02 -0.89322690514E+03  0.11003071178E+04  0.63733660965E+03 0.  0.
         13    1    3    3    0    0  0.18619701365E+03  0.18707890634E+03 -0.66003361406E+03  0.71085316119E+03  0.00000000000E+00 0.  1.
          3    1    3    3  501    0 -0.26458500641E+03 -0.16519699659E+03 -0.23319329108E+03  0.38945395659E+03  0.00000000000E+00 0.  1.
         -1    1    1    2    0  502  0.78387992755E+02 -0.21881909755E+02  0.50894756051E+03  0.51541353759E+03  0.00000000000E+00 0. -1.
<mgrwt>
<rscale>  1 0.64251183E+03</rscale>
<asrwt>0</asrwt>
<pdfrwt beam="1">  1       21 0.94726252E-01 0.64251183E+03</pdfrwt>
<pdfrwt beam="2">0</pdfrwt>
<totfact> 0.82833568E+01</totfact>
</mgrwt>
</event>
<event>
 6    1  0.1347953E-004  0.6524558E+03  0.7818608E-02  0.9802182E-01
         21   -1    0    0  501  502  0.00000000000E+00  0.00000000000E+00  0.37418896893E+03  0.37418896893E+03  0.00000000000E+00 0. -1.
         13   -1    0    0    0    0 -0.00000000000E+00 -0.00000000000E+00 -0.10000000000E+04  0.10000000000E+04  0.00000000000E+00 0.  1.
    9000005    2    1    2  501    0 -0.45643110923E+02  0.50862800253E+02 -0.88874036356E+03  0.11025234542E+04  0.64886687012E+03 0.  0.
         13    1    3    3    0    0 -0.35693916441E+02 -0.23300349988E+03 -0.75046290268E+03  0.78661251892E+03  0.00000000000E+00 0.  1.
          3    1    3    3  501    0 -0.99491944824E+01  0.28386630013E+03 -0.13827746088E+03  0.31591093525E+03  0.00000000000E+00 0.  1.
         -1    1    1    2    0  502  0.45643110923E+02 -0.50862800253E+02  0.26292933249E+03  0.27166551476E+03  0.00000000000E+00 0. -1.
<mgrwt>
<rscale>  1 0.65245577E+03</rscale>
<asrwt>0</asrwt>
<pdfrwt beam="1">  1       21 0.57567532E-01 0.65245577E+03</pdfrwt>
<pdfrwt beam="2">0</pdfrwt>
<totfact> 0.25980169E+02</totfact>
</mgrwt>
</event>
<event>
 6    1  0.1347953E-004  0.6746532E+03  0.7818608E-02  0.9761588E-01
         21   -1    0    0  501  502  0.00000000000E+00  0.00000000000E+00  0.23774541019E+03  0.23774541019E+03  0.00000000000E+00 0.  1.
         13   -1    0    0    0    0 -0.00000000000E+00 -0.00000000000E+00 -0.10000000000E+04  0.10000000000E+04  0.00000000000E+00 0.  1.
    9000005    2    1    2  501    0  0.67563329312E+02  0.98700175815E+02 -0.85304140332E+03  0.10875829193E+04  0.66396569364E+03 0.  0.
         13    1    3    3    0    0  0.16797195177E+03  0.92498671352E+02 -0.93708063955E+03  0.95649919279E+03  0.00000000000E+00 0.  1.
          1    1    3    3  501    0 -0.10040862246E+03  0.62015044632E+01  0.84039236230E+02  0.13108372648E+03  0.00000000000E+00 0.  1.
         -3    1    1    2    0  502 -0.67563329312E+02 -0.98700175815E+02  0.90786813505E+02  0.15016249092E+03  0.00000000000E+00 0. -1.
<mgrwt>
<rscale>  1 0.67465322E+03</rscale>
<asrwt>0</asrwt>
<pdfrwt beam="1">  1       21 0.36576216E-01 0.67465322E+03</pdfrwt>
<pdfrwt beam="2">0</pdfrwt>
<totfact> 0.67799340E+02</totfact>
</mgrwt>
</event>
<event>
 6    1  0.1347953E-004  0.6513411E+03  0.7818608E-02  0.9804266E-01
         21   -1    0    0  501  502  0.00000000000E+00  0.00000000000E+00  0.21044298363E+03  0.21044298363E+03  0.00000000000E+00 0. -1.
         13   -1    0    0    0    0 -0.00000000000E+00 -0.00000000000E+00 -0.10000000000E+04  0.10000000000E+04  0.00000000000E+00 0.  1.
    9000005    2    1    2  501    0 -0.14655501139E+01  0.23256383542E+02 -0.89249814668E+03  0.11048973370E+04  0.65092409410E+03 0.  0.
         13    1    3    3    0    0  0.20692208672E+03  0.16838406187E+03 -0.12147555679E+03  0.29313180169E+03  0.00000000000E+00 0.  1.
          3    1    3    3  501    0 -0.20838763683E+03 -0.14512767833E+03 -0.77102258989E+03  0.81176553531E+03  0.00000000000E+00 0.  1.
         -3    1    1    2    0  502  0.14655501139E+01 -0.23256383542E+02  0.10294113031E+03  0.10554564663E+03  0.00000000000E+00 0. -1.
<mgrwt>
<rscale>  1 0.65134107E+03</rscale>
<asrwt>0</asrwt>
<pdfrwt beam="1">  1       21 0.32375843E-01 0.65134107E+03</pdfrwt>
<pdfrwt beam="2">0</pdfrwt>
<totfact> 0.87052413E+02</totfact>
</mgrwt>
</event>
<event>
 6    1  0.1347953E-004  0.6619354E+03  0.7818608E-02  0.9784638E-01
         21   -1    0    0  501  502  0.00000000000E+00  0.00000000000E+00  0.17406178576E+03  0.17406178576E+03  0.00000000000E+00 0.  1.
         13   -1    0    0    0    0 -0.00000000000E+00 -0.00000000000E+00 -0.10000000000E+04  0.10000000000E+04  0.00000000000E+00 0.  1.
    9000005    2    1    2  501    0  0.67969228352E+02 -0.70616528896E+02 -0.84582922478E+03  0.10740509741E+04  0.65463876087E+03 0.  0.
         13    1    3    3    0    0  0.18463459276E+03  0.23679192141E+03 -0.23862803585E+03  0.38354098397E+03  0.00000000000E+00 0.  1.
          1    1    3    3  501    0 -0.11666536441E+03 -0.30740845031E+03 -0.60720118893E+03  0.69050999009E+03  0.00000000000E+00 0.  1.
         -3    1    1    2    0  502 -0.67969228352E+02  0.70616528896E+02  0.19891010539E+02  0.10001081170E+03  0.00000000000E+00 0. -1.
<mgrwt>
<rscale>  1 0.66193536E+03</rscale>
<asrwt>0</asrwt>
<pdfrwt beam="1">  1       21 0.26778736E-01 0.66193536E+03</pdfrwt>
<pdfrwt beam="2">0</pdfrwt>
<totfact> 0.12711581E+03</totfact>
</mgrwt>
</event>
<event>
 6    1  0.1347953E-004  0.6478510E+03  0.7818608E-02  0.9810820E-01
         21   -1    0    0  501  502  0.00000000000E+00  0.00000000000E+00  0.38204502260E+03  0.38204502260E+03  0.00000000000E+00 0.  1.
         13   -1    0    0    0    0 -0.00000000000E+00 -0.00000000000E+00 -0.10000000000E+04  0.10000000000E+04  0.00000000000E+00 0.  1.
    9000005    2    1    2  501    0 -0.46151094692E+02  0.73890385565E+02 -0.88748196597E+03  0.10987880541E+04  0.64196669334E+03 0.  0.
         13    1    3    3    0    0  0.19930665756E+03  0.25851214249E+03 -0.34195808031E+03  0.47274411710E+03  0.00000000000E+00 0.  1.
          1    1    3    3  501    0 -0.24545775225E+03 -0.18462175692E+03 -0.54552388566E+03  0.62604393703E+03  0.00000000000E+00 0.  1.
         -1    1    1    2    0  502  0.46151094692E+02 -0.73890385565E+02  0.26952698857E+03  0.28325696847E+03  0.00000000000E+00 0. -1.
<mgrwt>
<rscale>  1 0.64785102E+03</rscale>
<asrwt>0</asrwt>
<pdfrwt beam="1">  1       21 0.58776156E-01 0.64785102E+03</pdfrwt>
<pdfrwt beam="2">0</pdfrwt>
<totfact> 0.24832446E+02</totfact>
</mgrwt>
</event>
<event>
 6    1  0.1347953E-004  0.6333284E+03  0.7818608E-02  0.9838575E-01
         21   -1    0    0  501  502  0.00000000000E+00  0.00000000000E+00  0.12641522119E+03  0.12641522119E+03  0.00000000000E+00 0.  1.
         13   -1    0    0    0    0 -0.00000000000E+00 -0.00000000000E+00 -0.10000000000E+04  0.10000000000E+04  0.00000000000E+00 0.  1.
    9000005    2    1    2  501    0 -0.69667855753E+01  0.45920675059E+02 -0.87475507722E+03  0.10799543334E+04  0.63162304624E+03 0.  0.
         13    1    3    3    0    0 -0.19782868485E+03 -0.10362957986E+03 -0.79334411564E+03  0.82417847836E+03  0.00000000000E+00 0.  1.
          1    1    3    3  501    0  0.19086189927E+03  0.14955025492E+03 -0.81410961579E+02  0.25577585501E+03  0.00000000000E+00 0.  1.
         -1    1    1    2    0  502  0.69667855753E+01 -0.45920675059E+02  0.11702984053E+01  0.46460887825E+02  0.00000000000E+00 0. -1.
<mgrwt>
<rscale>  1 0.63332844E+03</rscale>
<asrwt>0</asrwt>
<pdfrwt beam="1">  1       21 0.19448495E-01 0.63332844E+03</pdfrwt>
<pdfrwt beam="2">0</pdfrwt>
<totfact> 0.23692149E+03</totfact>
</mgrwt>
</event>
<event>
 6    1  0.1347953E-004  0.6470286E+03  0.7818608E-02  0.9812371E-01
         21   -1    0    0  501  502  0.00000000000E+00  0.00000000000E+00  0.16949666325E+03  0.16949666325E+03  0.00000000000E+00 0.  1.
         13   -1    0    0    0    0 -0.00000000000E+00 -0.00000000000E+00 -0.10000000000E+04  0.10000000000E+04  0.00000000000E+00 0.  1.
    9000005    2    1    2  501    0 -0.33720197200E+02  0.27899812308E+01 -0.89042456382E+03  0.11006824994E+04  0.64614334703E+03 0.  0.
         13    1    3    3    0    0 -0.31195179749E+03 -0.50592596131E+02 -0.25895406549E+03  0.40857158831E+03  0.00000000000E+00 0.  1.
          3    1    3    3  501    0  0.27823160029E+03  0.53382577361E+02 -0.63147049833E+03  0.69211091107E+03  0.00000000000E+00 0.  1.
         -1    1    1    2    0  502  0.33720197200E+02 -0.27899812308E+01  0.59921227065E+02  0.68814163858E+02  0.00000000000E+00 0. -1.
<mgrwt>
<rscale>  1 0.64702864E+03</rscale>
<asrwt>0</asrwt>
<pdfrwt beam="1">  1       21 0.26076409E-01 0.64702864E+03</pdfrwt>
<pdfrwt beam="2">0</pdfrwt>
<totfact> 0.13406545E+03</totfact>
</mgrwt>
</event>
<event>
 6    1  0.1347953E-004  0.6502328E+03  0.7818608E-02  0.9806343E-01
         21   -1    0    0  501  502  0.00000000000E+00  0.00000000000E+00  0.12946616304E+03  0.12946616304E+03  0.00000000000E+00 0.  1.
         13   -1    0    0    0    0 -0.00000000000E+00 -0.00000000000E+00 -0.10000000000E+04  0.10000000000E+04  0.00000000000E+00 0.  1.
    9000005    2    1    2  501    0 -0.70745692102E+01  0.39626088620E+02 -0.87367961584E+03  0.10890907701E+04  0.64898563774E+03 0.  0.
         13    1    3    3    0    0 -0.53876924214E+02 -0.41389013542E+02 -0.95963602531E+03  0.96203797975E+03  0.00000000000E+00 0.  1.
          1    1    3    3  501    0  0.46802355004E+02  0.81015102162E+02  0.85956409469E+02  0.12705279037E+03  0.00000000000E+00 0.  1.
         -1    1    1    2    0  502  0.70745692102E+01 -0.39626088620E+02  0.31457788754E+01  0.40375392921E+02  0.00000000000E+00 0. -1.
<mgrwt>
<rscale>  1 0.65023275E+03</rscale>
<asrwt>0</asrwt>
<pdfrwt beam="1">  1       21 0.19917871E-01 0.65023275E+03</pdfrwt>
<pdfrwt beam="2">0</pdfrwt>
<totfact> 0.22620078E+03</totfact>
</mgrwt>
</event>
<event>
 6    1  0.1347953E-004  0.7861265E+03  0.7818608E-02  0.9580318E-01
         21   -1    0    0  501  502  0.00000000000E+00  0.00000000000E+00  0.57098058722E+03  0.57098058722E+03  0.00000000000E+00 0.  1.
         13   -1    0    0    0    0 -0.00000000000E+00 -0.00000000000E+00 -0.10000000000E+04  0.10000000000E+04  0.00000000000E+00 0.  1.
    9000005    2    1    2  501    0 -0.44320828922E+03  0.54832726665E+02 -0.69660899625E+03  0.10503613399E+04  0.64695798555E+03 0.  0.
         13    1    3    3    0    0 -0.76280722760E+02 -0.26628211787E+03 -0.37517587589E+03  0.46634949642E+03  0.00000000000E+00 0.  1.
          1    1    3    3  501    0 -0.36692756646E+03  0.32111484454E+03 -0.32143312035E+03  0.58401184343E+03  0.00000000000E+00 0.  1.
         -1    1    1    2    0  502  0.44320828922E+03 -0.54832726665E+02  0.26758958347E+03  0.52061924737E+03  0.00000000000E+00 0. -1.
<mgrwt>
<rscale>  1 0.78612649E+03</rscale>
<asrwt>0</asrwt>
<pdfrwt beam="1">  1       21 0.87843165E-01 0.78612649E+03</pdfrwt>
<pdfrwt beam="2">0</pdfrwt>
<totfact> 0.97477670E+01</totfact>
</mgrwt>
</event>
<event>
 6    1  0.1347953E-004  0.6536035E+03  0.7818608E-02  0.9800041E-01
         21   -1    0    0  501  502  0.00000000000E+00  0.00000000000E+00  0.13528486280E+03  0.13528486280E+03  0.00000000000E+00 0.  1.
         13   -1    0    0    0    0 -0.00000000000E+00 -0.00000000000E+00 -0.10000000000E+04  0.10000000000E+04  0.00000000000E+00 0.  1.
    9000005    2    1    2  501    0  0.73115818048E+02  0.50930482603E+01 -0.82295676794E+03  0.10509307082E+04  0.64948106180E+03 0.  0.
         13    1    3    3    0    0  0.23816206599E+03 -0.25198458530E+03 -0.40329943083E+03  0.53185320513E+03  0.00000000000E+00 0.  1.
          1    1    3    3  501    0 -0.16504624794E+03  0.25707763356E+03 -0.41965733711E+03  0.51907750310E+03  0.00000000000E+00 0.  1.
         -1    1    1    2    0  502 -0.73115818048E+02 -0.50930482603E+01 -0.41758369259E+02  0.84354154567E+02  0.00000000000E+00 0. -1.
<mgrwt>
<rscale>  1 0.65360348E+03</rscale>
<asrwt>0</asrwt>
<pdfrwt beam="1">  1       21 0.20813055E-01 0.65360348E+03</pdfrwt>
<pdfrwt beam="2">0</pdfrwt>
<totfact> 0.20785412E+03</totfact>
</mgrwt>
</event>
<event>
 6    1  0.1347953E-004  0.6615051E+03  0.7818608E-02  0.9785427E-01
         21   -1    0    0  501  502  0.00000000000E+00  0.00000000000E+00  0.15083629218E+03  0.15083629218E+03  0.00000000000E+00 0.  1.
         13   -1    0    0    0    0 -0.00000000000E+00 -0.00000000000E+00 -0.10000000000E+04  0.10000000000E+04  0.00000000000E+00 0.  1.
    9000005    2    1    2  501    0 -0.95648713892E+02  0.36907648355E+02 -0.79714749232E+03  0.10358730909E+04  0.65351211538E+03 0.  0.
         13    1    3    3    0    0 -0.31812302054E+03 -0.10401818315E+03 -0.65749818010E+03  0.73778445054E+03  0.00000000000E+00 0.  1.
          3    1    3    3  501    0  0.22247430665E+03  0.14092583151E+03 -0.13964931222E+03  0.29808864035E+03  0.00000000000E+00 0.  1.
         -3    1    1    2    0  502  0.95648713892E+02 -0.36907648355E+02 -0.52016215495E+02  0.11496320129E+03  0.00000000000E+00 0. -1.
<mgrwt>
<rscale>  1 0.66150505E+03</rscale>
<asrwt>0</asrwt>
<pdfrwt beam="1">  1       21 0.23205583E-01 0.66150505E+03</pdfrwt>
<pdfrwt beam="2">0</pdfrwt>
<totfact> 0.16832294E+03</totfact>
</mgrwt>
</event>
<event>
 6    1  0.1347953E-004  0.6321560E+03  0.7818608E-02  0.9840850E-01
         21   -1    0    0  501  502  0.00000000000E+00  0.00000000000E+00  0.11918644505E+03  0.11918644505E+03  0.00000000000E+00 0.  1.
         13   -1    0    0    0    0 -0.00000000000E+00 -0.00000000000E+00 -0.10000000000E+04  0.10000000000E+04  0.00000000000E+00 0.  1.
    9000005    2    1    2  501    0 -0.16297820653E+02 -0.49318337759E+02 -0.84818679884E+03  0.10578478551E+04  0.63001850886E+03 0.  0.
         13    1    3    3    0    0 -0.15689072360E+03 -0.27417603459E+03 -0.24775508162E+03  0.40145955906E+03  0.00000000000E+00 0.  1.
          3    1    3    3  501    0  0.14059290295E+03  0.22485769683E+03 -0.60043171723E+03  0.65638829608E+03  0.00000000000E+00 0.  1.
         -3    1    1    2    0  502  0.16297820653E+02  0.49318337759E+02 -0.32626756111E+02  0.61338589907E+02  0.00000000000E+00 0. -1.
<mgrwt>
<rscale>  1 0.63215602E+03</rscale>
<asrwt>0</asrwt>
<pdfrwt beam="1">  1       21 0.18336376E-01 0.63215602E+03</pdfrwt>
<pdfrwt beam="2">0</pdfrwt>
<totfact> 0.26506943E+03</totfact>
</mgrwt>
</event>
<event>
 6    1  0.1347953E-004  0.6359144E+03  0.7818608E-02  0.9833575E-01
         21   -1    0    0  501  502  0.00000000000E+00  0.00000000000E+00  0.17534356613E+03  0.17534356613E+03  0.00000000000E+00 0.  1.
         13   -1    0    0    0    0 -0.00000000000E+00 -0.00000000000E+00 -0.10000000000E+04  0.10000000000E+04  0.00000000000E+00 0.  1.
    9000005    2    1    2  501    0 -0.21179152305E+02  0.29415873606E+01 -0.89720428456E+03  0.10997102397E+04  0.63555477624E+03 0.  0.
         13    1    3    3    0    0 -0.12031354895E+03  0.91015617000E+02  0.37657410845E+02  0.15549042797E+03  0.00000000000E+00 0.  1.
          1    1    3    3  501    0  0.99134396646E+02 -0.88074029639E+02 -0.93486169541E+03  0.94421981172E+03  0.00000000000E+00 0.  1.
         -3    1    1    2    0  502  0.21179152305E+02 -0.29415873606E+01  0.72547850697E+02  0.75633326446E+02  0.00000000000E+00 0. -1.
<mgrwt>
<rscale>  1 0.63591437E+03</rscale>
<asrwt>0</asrwt>
<pdfrwt beam="1">  1       21 0.26975932E-01 0.63591437E+03</pdfrwt>
<pdfrwt beam="2">0</pdfrwt>
<totfact> 0.12547101E+03</totfact>
</mgrwt>
</event>
<event>
 6    1  0.1347953E-004  0.6572589E+03  0.7818608E-02  0.9793253E-01
         21   -1    0    0  501  502  0.00000000000E+00  0.00000000000E+00  0.13297910766E+03  0.13297910766E+03  0.00000000000E+00 0.  1.
         13   -1    0    0    0    0 -0.00000000000E+00 -0.00000000000E+00 -0.10000000000E+04  0.10000000000E+04  0.00000000000E+00 0.  1.
    9000005    2    1    2  501    0 -0.32763427871E+02 -0.60713470263E+02 -0.81243062559E+03  0.10450037424E+04  0.65362813009E+03 0.  0.
         13    1    3    3    0    0 -0.16610797868E+02  0.13917279710E+03 -0.83180608490E+03  0.84353206752E+03  0.00000000000E+00 0.  1.
          1    1    3    3  501    0 -0.16152630003E+02 -0.19988626736E+03  0.19375459311E+02  0.20147167483E+03  0.00000000000E+00 0.  1.
         -3    1    1    2    0  502  0.32763427871E+02  0.60713470263E+02 -0.54590266749E+02  0.87975365307E+02  0.00000000000E+00 0. -1.
<mgrwt>
<rscale>  1 0.65725893E+03</rscale>
<asrwt>0</asrwt>
<pdfrwt beam="1">  1       21 0.20458324E-01 0.65725893E+03</pdfrwt>
<pdfrwt beam="2">0</pdfrwt>
<totfact> 0.21481038E+03</totfact>
</mgrwt>
</event>
<event>
 6    1  0.1347953E-004  0.6564897E+03  0.7818608E-02  0.9794677E-01
         21   -1    0    0  501  502  0.00000000000E+00  0.00000000000E+00  0.13457746724E+03  0.13457746724E+03  0.00000000000E+00 0.  1.
         13   -1    0    0    0    0 -0.00000000000E+00 -0.00000000000E+00 -0.10000000000E+04  0.10000000000E+04  0.00000000000E+00 0.  1.
    9000005    2    1    2  501    0 -0.90011518288E+01 -0.47877990181E+02 -0.86493319860E+03  0.10858582500E+04  0.65467959983E+03 0.  0.
         13    1    3    3    0    0  0.21409607272E+03  0.62942591110E+02 -0.43333824755E+02  0.22732513829E+03  0.00000000000E+00 0.  1.
          3    1    3    3  501    0 -0.22309722455E+03 -0.11082058129E+03 -0.82159937384E+03  0.85853311173E+03  0.00000000000E+00 0.  1.
         -1    1    1    2    0  502  0.90011518288E+01  0.47877990181E+02 -0.48933416164E+00  0.48719217214E+02  0.00000000000E+00 0. -1.
<mgrwt>
<rscale>  1 0.65648968E+03</rscale>
<asrwt>0</asrwt>
<pdfrwt beam="1">  1       21 0.20704225E-01 0.65648968E+03</pdfrwt>
<pdfrwt beam="2">0</pdfrwt>
<totfact> 0.20993721E+03</totfact>
</mgrwt>
</event>
<event>
 6    1  0.1347953E-004  0.6631110E+03  0.7818608E-02  0.9782484E-01
         21   -1    0    0  501  502  0.00000000000E+00  0.00000000000E+00  0.57469572048E+03  0.57469572048E+03  0.00000000000E+00 0. -1.
         13   -1    0    0    0    0 -0.00000000000E+00 -0.00000000000E+00 -0.10000000000E+04  0.10000000000E+04  0.00000000000E+00 0.  1.
    9000005    2    1    2  501    0  0.13961442777E+03  0.16005274236E+01 -0.87839029445E+03  0.11005842494E+04  0.64824488460E+03 0.  0.
         13    1    3    3    0    0 -0.13300547238E+03  0.24249986115E+03 -0.52499321375E+03  0.59339237678E+03  0.00000000000E+00 0.  1.
          1    1    3    3  501    0  0.27261990015E+03 -0.24089933373E+03 -0.35339708070E+03  0.50719187257E+03  0.00000000000E+00 0.  1.
         -1    1    1    2    0  502 -0.13961442777E+03 -0.16005274236E+01  0.45308601493E+03  0.47411147112E+03  0.00000000000E+00 0. -1.
<mgrwt>
<rscale>  1 0.66311099E+03</rscale>
<asrwt>0</asrwt>
<pdfrwt beam="1">  1       21 0.88414724E-01 0.66311099E+03</pdfrwt>
<pdfrwt beam="2">0</pdfrwt>
<totfact> 0.97452426E+01</totfact>
</mgrwt>
</event>
<event>
 6    1  0.1347953E-004  0.6500635E+03  0.7818608E-02  0.9806660E-01
         21   -1    0    0  501  502  0.00000000000E+00  0.00000000000E+00  0.13020587782E+03  0.13020587782E+03  0.00000000000E+00 0.  1.
         13   -1    0    0    0    0 -0.00000000000E+00 -0.00000000000E+00 -0.10000000000E+04  0.10000000000E+04  0.00000000000E+00 0.  1.
    9000005    2    1    2  501    0  0.10245452878E+02 -0.68263336815E+02 -0.81215112863E+03  0.10402749757E+04  0.64638820905E+03 0.  0.
         13    1    3    3    0    0  0.13170664165E+03  0.13840406394E+03 -0.77437990415E+03  0.79760050170E+03  0.00000000000E+00 0.  1.
          3    1    3    3  501    0 -0.12146118877E+03 -0.20666740076E+03 -0.37771224488E+02  0.24267447396E+03  0.00000000000E+00 0.  1.
         -3    1    1    2    0  502 -0.10245452878E+02  0.68263336815E+02 -0.57642993545E+02  0.89930902156E+02  0.00000000000E+00 0. -1.
<mgrwt>
<rscale>  1 0.65006351E+03</rscale>
<asrwt>0</asrwt>
<pdfrwt beam="1">  1       21 0.20031673E-01 0.65006351E+03</pdfrwt>
<pdfrwt beam="2">0</pdfrwt>
<totfact> 0.22374470E+03</totfact>
</mgrwt>
</event>
<event>
 6    1  0.1347953E-004  0.6437181E+03  0.7818608E-02  0.9818639E-01
         21   -1    0    0  501  502  0.00000000000E+00  0.00000000000E+00  0.26649654906E+03  0.26649654906E+03  0.00000000000E+00 0. -1.
         13   -1    0    0    0    0 -0.00000000000E+00 -0.00000000000E+00 -0.10000000000E+04  0.10000000000E+04  0.00000000000E+00 0.  1.
    9000005    2    1    2  501    0 -0.23974683771E+02 -0.16779448520E+02 -0.89495503451E+03  0.11024144075E+04  0.64305262352E+03 0.  0.
         13    1    3    3    0    0 -0.26931274701E+03 -0.86590838797E+02 -0.76605158847E+03  0.81661641256E+03  0.00000000000E+00 0.  1.
          1    1    3    3  501    0  0.24533806324E+03  0.69811390277E+02 -0.12890344604E+03  0.28579799490E+03  0.00000000000E+00 0.  1.
         -3    1    1    2    0  502  0.23974683771E+02  0.16779448520E+02  0.16145158357E+03  0.16408214160E+03  0.00000000000E+00 0. -1.
<mgrwt>
<rscale>  1 0.64371812E+03</rscale>
<asrwt>0</asrwt>
<pdfrwt beam="1">  1       21 0.40999468E-01 0.64371812E+03</pdfrwt>
<pdfrwt beam="2">0</pdfrwt>
<totfact> 0.53677372E+02</totfact>
</mgrwt>
</event>
<event>
 6    1  0.1347953E-004  0.6493405E+03  0.7818608E-02  0.9808017E-01
         21   -1    0    0  501  502  0.00000000000E+00  0.00000000000E+00  0.20351209560E+03  0.20351209560E+03  0.00000000000E+00 0.  1.
         13   -1    0    0    0    0 -0.00000000000E+00 -0.00000000000E+00 -0.10000000000E+04  0.10000000000E+04  0.00000000000E+00 0.  1.
    9000005    2    1    2  501    0  0.12502558734E+03 -0.64927760043E+02 -0.83471283978E+03  0.10575389570E+04  0.63387389055E+03 0.  0.
         13    1    3    3    0    0  0.19847202301E+03  0.24804328481E+03 -0.32163091286E+03  0.45206532621E+03  0.00000000000E+00 0.  1.
          1    1    3    3  501    0 -0.73446435667E+02 -0.31297104485E+03 -0.51308192692E+03  0.60547363077E+03  0.00000000000E+00 0.  1.
         -1    1    1    2    0  502 -0.12502558734E+03  0.64927760043E+02  0.38224935385E+02  0.14597313862E+03  0.00000000000E+00 0. -1.
<mgrwt>
<rscale>  1 0.64934053E+03</rscale>
<asrwt>0</asrwt>
<pdfrwt beam="1">  1       21 0.31309552E-01 0.64934053E+03</pdfrwt>
<pdfrwt beam="2">0</pdfrwt>
<totfact> 0.93144676E+02</totfact>
</mgrwt>
</event>
<event>
 6    1  0.1347953E-004  0.6444143E+03  0.7818608E-02  0.9817317E-01
         21   -1    0    0  501  502  0.00000000000E+00  0.00000000000E+00  0.50609745516E+03  0.50609745516E+03  0.00000000000E+00 0. -1.
         13   -1    0    0    0    0 -0.00000000000E+00 -0.00000000000E+00 -0.10000000000E+04  0.10000000000E+04  0.00000000000E+00 0.  1.
    9000005    2    1    2  501    0  0.24188297646E+02  0.31965712935E+02 -0.89507987031E+03  0.11029223976E+04  0.64316635516E+03 0.  0.
         13    1    3    3    0    0 -0.17902682444E+03  0.45091405940E+01 -0.87919282840E+03  0.89724632389E+03  0.00000000000E+00 0.  1.
          3    1    3    3  501    0  0.20321512208E+03  0.27456572341E+02 -0.15887041908E+02  0.20567607374E+03  0.00000000000E+00 0.  1.
         -1    1    1    2    0  502 -0.24188297646E+02 -0.31965712935E+02  0.40117732547E+03  0.40317505754E+03  0.00000000000E+00 0. -1.
<mgrwt>
<rscale>  1 0.64441434E+03</rscale>
<asrwt>0</asrwt>
<pdfrwt beam="1">  1       21 0.77861145E-01 0.64441434E+03</pdfrwt>
<pdfrwt beam="2">0</pdfrwt>
<totfact> 0.13168551E+02</totfact>
</mgrwt>
</event>
<event>
 6    1  0.1347953E-004  0.6990507E+03  0.7818608E-02  0.9718857E-01
         21   -1    0    0  501  502  0.00000000000E+00  0.00000000000E+00  0.37947806558E+03  0.37947806558E+03  0.00000000000E+00 0.  1.
         13   -1    0    0    0    0 -0.00000000000E+00 -0.00000000000E+00 -0.10000000000E+04  0.10000000000E+04  0.00000000000E+00 0.  1.
    9000005    2    1    2  501    0 -0.19046082660E+02 -0.20534575972E+02 -0.87697641487E+03  0.11214987590E+04  0.69848937869E+03 0.  0.
         13    1    3    3    0    0 -0.27447226204E+03  0.81342591721E+02 -0.10993901887E+03  0.30665653055E+03  0.00000000000E+00 0.  1.
          3    1    3    3  501    0  0.25542617938E+03 -0.10187716769E+03 -0.76703739600E+03  0.81484222846E+03  0.00000000000E+00 0.  1.
         -1    1    1    2    0  502  0.19046082660E+02  0.20534575972E+02  0.25645448045E+03  0.25797930657E+03  0.00000000000E+00 0. -1.
<mgrwt>
<rscale>  1 0.69905067E+03</rscale>
<asrwt>0</asrwt>
<pdfrwt beam="1">  1       21 0.58381239E-01 0.69905067E+03</pdfrwt>
<pdfrwt beam="2">0</pdfrwt>
<totfact> 0.25071159E+02</totfact>
</mgrwt>
</event>
<event>
 6    1  0.1347953E-004  0.6765250E+03  0.7818608E-02  0.9758242E-01
         21   -1    0    0  501  502  0.00000000000E+00  0.00000000000E+00  0.16998679628E+03  0.16998679628E+03  0.00000000000E+00 0.  1.
         13   -1    0    0    0    0 -0.00000000000E+00 -0.00000000000E+00 -0.10000000000E+04  0.10000000000E+04  0.00000000000E+00 0.  1.
    9000005    2    1    2  501    0 -0.37707002032E+02  0.39119459537E+02 -0.87031970259E+03  0.11023350116E+04  0.67433963476E+03 0.  0.
         13    1    3    3    0    0  0.25800871250E+03 -0.17380751989E+03 -0.43132609403E+03  0.53180800021E+03  0.00000000000E+00 0.  1.
          3    1    3    3  501    0 -0.29571571453E+03  0.21292697942E+03 -0.43899360856E+03  0.57052701141E+03  0.00000000000E+00 0.  1.
         -1    1    1    2    0  502  0.37707002032E+02 -0.39119459537E+02  0.40306498865E+02  0.67651784659E+02  0.00000000000E+00 0. -1.
<mgrwt>
<rscale>  1 0.67652501E+03</rscale>
<asrwt>0</asrwt>
<pdfrwt beam="1">  1       21 0.26151814E-01 0.67652501E+03</pdfrwt>
<pdfrwt beam="2">0</pdfrwt>
<totfact> 0.13309398E+03</totfact>
</mgrwt>
</event>
<event>
 6    1  0.1347953E-004  0.6502594E+03  0.7818608E-02  0.9806293E-01
         21   -1    0    0  501  502  0.00000000000E+00  0.00000000000E+00  0.17628918973E+03  0.17628918973E+03  0.00000000000E+00 0.  1.
         13   -1    0    0    0    0 -0.00000000000E+00 -0.00000000000E+00 -0.10000000000E+04  0.10000000000E+04  0.00000000000E+00 0.  1.
    9000005    2    1    2  501    0 -0.23731812697E+02  0.17574052067E+02 -0.89085826656E+03  0.11029350683E+04  0.64958853716E+03 0.  0.
         13    1    3    3    0    0 -0.15820426056E+03 -0.52099333361E+02 -0.93138094904E+03  0.94615717554E+03  0.00000000000E+00 0.  1.
          3    1    3    3  501    0  0.13447244786E+03  0.69673385428E+02  0.40522682480E+02  0.15677789278E+03  0.00000000000E+00 0.  1.
         -1    1    1    2    0  502  0.23731812697E+02 -0.17574052067E+02  0.67147456293E+02  0.73354121401E+02  0.00000000000E+00 0. -1.
<mgrwt>
<rscale>  1 0.65025942E+03</rscale>
<asrwt>0</asrwt>
<pdfrwt beam="1">  1       21 0.27121413E-01 0.65025942E+03</pdfrwt>
<pdfrwt beam="2">0</pdfrwt>
<totfact> 0.12404236E+03</totfact>
</mgrwt>
</event>
<event>
 6    1  0.1347953E-004  0.6480223E+03  0.7818608E-02  0.9810497E-01
         21   -1    0    0  501  502  0.00000000000E+00  0.00000000000E+00  0.62910712318E+03  0.62910712318E+03  0.00000000000E+00 0. -1.
         13   -1    0    0    0    0 -0.00000000000E+00 -0.00000000000E+00 -0.10000000000E+04  0.10000000000E+04  0.00000000000E+00 0.  1.
    9000005    2    1    2  501    0 -0.23463019987E+02 -0.13108474991E+02 -0.89463601935E+03  0.11046748351E+04  0.64746470081E+03 0.  0.
         13    1    3    3    0    0 -0.24104585018E+02 -0.28240285243E+03 -0.16738453978E+03  0.32916559090E+03  0.00000000000E+00 0.  1.
          1    1    3    3  501    0  0.64156503110E+00  0.26929437744E+03 -0.72725147957E+03  0.77550924421E+03  0.00000000000E+00 0.  1.
         -3    1    1    2    0  502  0.23463019987E+02  0.13108474991E+02  0.52374314253E+03  0.52443228807E+03  0.00000000000E+00 0. -1.
<mgrwt>
<rscale>  1 0.64802229E+03</rscale>
<asrwt>0</asrwt>
<pdfrwt beam="1">  1       21 0.96785708E-01 0.64802229E+03</pdfrwt>
<pdfrwt beam="2">0</pdfrwt>
<totfact> 0.78563481E+01</totfact>
</mgrwt>
</event>
<event>
 6    1  0.1347953E-004  0.6239647E+03  0.7818608E-02  0.9856897E-01
         21   -1    0    0  501  502  0.00000000000E+00  0.00000000000E+00  0.21837391042E+03  0.21837391042E+03  0.00000000000E+00 0. -1.
         13   -1    0    0    0    0 -0.00000000000E+00 -0.00000000000E+00 -0.10000000000E+04  0.10000000000E+04  0.00000000000E+00 0.  1.
    9000005    2    1    2  501    0 -0.14258313482E+02  0.18042686444E+02 -0.90146724336E+03  0.10963462899E+04  0.62354082340E+03 0.  0.
         13    1    3    3    0    0  0.16069474195E+03 -0.21755783728E+03 -0.67018652069E+03  0.72270615410E+03  0.00000000000E+00 0.  1.
          3    1    3    3  501    0 -0.17495305544E+03  0.23560052373E+03 -0.23128072266E+03  0.37364013578E+03  0.00000000000E+00 0.  1.
         -1    1    1    2    0  502  0.14258313482E+02 -0.18042686444E+02  0.11984115377E+03  0.12202762054E+03  0.00000000000E+00 0. -1.
<mgrwt>
<rscale>  1 0.62396474E+03</rscale>
<asrwt>0</asrwt>
<pdfrwt beam="1">  1       21 0.33595985E-01 0.62396474E+03</pdfrwt>
<pdfrwt beam="2">0</pdfrwt>
<totfact> 0.80928644E+02</totfact>
</mgrwt>
</event>
<event>
 6    1  0.1347953E-004  0.6563488E+03  0.7818608E-02  0.9794938E-01
         21   -1    0    0  501  502  0.00000000000E+00  0.00000000000E+00  0.24686154390E+03  0.24686154390E+03  0.00000000000E+00 0. -1.
         13   -1    0    0    0    0 -0.00000000000E+00 -0.00000000000E+00 -0.10000000000E+04  0.10000000000E+04  0.00000000000E+00 0.  1.
    9000005    2    1    2  501    0 -0.45991078603E+02  0.22370301101E+01 -0.88806840661E+03  0.11042912975E+04  0.65473169413E+03 0.  0.
         13    1    3    3    0    0 -0.31412698619E+03 -0.51581787459E+02 -0.23320286936E+03  0.39461376373E+03  0.00000000000E+00 0.  1.
          1    1    3    3  501    0  0.26813590758E+03  0.53818817569E+02 -0.65486553725E+03  0.70967753377E+03  0.00000000000E+00 0.  1.
         -1    1    1    2    0  502  0.45991078603E+02 -0.22370301101E+01  0.13492995051E+03  0.14257024640E+03  0.00000000000E+00 0. -1.
<mgrwt>
<rscale>  1 0.65634882E+03</rscale>
<asrwt>0</asrwt>
<pdfrwt beam="1">  1       21 0.37978698E-01 0.65634882E+03</pdfrwt>
<pdfrwt beam="2">0</pdfrwt>
<totfact> 0.62837319E+02</totfact>
</mgrwt>
</event>
<event>
 6    1  0.1347953E-004  0.6603025E+03  0.7818608E-02  0.9787637E-01
         21   -1    0    0  501  502  0.00000000000E+00  0.00000000000E+00  0.15722241334E+03  0.15722241334E+03  0.00000000000E+00 0.  1.
         13   -1    0    0    0    0 -0.00000000000E+00 -0.00000000000E+00 -0.10000000000E+04  0.10000000000E+04  0.00000000000E+00 0.  1.
    9000005    2    1    2  501    0 -0.46119546780E+02 -0.39458358740E+02 -0.86874936358E+03  0.10912034171E+04  0.65750700838E+03 0.  0.
         13    1    3    3    0    0  0.24518831320E+03 -0.31784653097E+02 -0.72553532347E+03  0.76650445446E+03  0.00000000000E+00 0.  1.
          1    1    3    3  501    0 -0.29130785998E+03 -0.76737056427E+01 -0.14321404011E+03  0.32469896263E+03  0.00000000000E+00 0.  1.
         -3    1    1    2    0  502  0.46119546780E+02  0.39458358740E+02  0.25971776924E+02  0.66018996253E+02  0.00000000000E+00 0. -1.
<mgrwt>
<rscale>  1 0.66030254E+03</rscale>
<asrwt>0</asrwt>
<pdfrwt beam="1">  1       21 0.24188063E-01 0.66030254E+03</pdfrwt>
<pdfrwt beam="2">0</pdfrwt>
<totfact> 0.15525651E+03</totfact>
</mgrwt>
</event>
<event>
 6    1  0.1347953E-004  0.6485388E+03  0.7818608E-02  0.9809525E-01
         21   -1    0    0  501  502  0.00000000000E+00  0.00000000000E+00  0.12267836366E+03  0.12267836366E+03  0.00000000000E+00 0.  1.
         13   -1    0    0    0    0 -0.00000000000E+00 -0.00000000000E+00 -0.10000000000E+04  0.10000000000E+04  0.00000000000E+00 0.  1.
    9000005    2    1    2  501    0 -0.68374370057E+01 -0.32402018369E+02 -0.87546024110E+03  0.10895105158E+04  0.64769274270E+03 0.  0.
         13    1    3    3    0    0  0.34675495699E+02 -0.32142540882E+03 -0.28576252173E+03  0.43148221546E+03  0.00000000000E+00 0.  1.
          1    1    3    3  501    0 -0.41512932705E+02  0.28902339045E+03 -0.58969771938E+03  0.65802830034E+03  0.00000000000E+00 0.  1.
         -1    1    1    2    0  502  0.68374370057E+01  0.32402018369E+02 -0.18613952400E+01  0.33167847856E+02  0.00000000000E+00 0. -1.
<mgrwt>
<rscale>  1 0.64853877E+03</rscale>
<asrwt>0</asrwt>
<pdfrwt beam="1">  1       21 0.18873594E-01 0.64853877E+03</pdfrwt>
<pdfrwt beam="2">0</pdfrwt>
<totfact> 0.25074970E+03</totfact>
</mgrwt>
</event>
<event>
 6    1  0.1347953E-004  0.6511701E+03  0.7818608E-02  0.9804586E-01
         21   -1    0    0  501  502  0.00000000000E+00  0.00000000000E+00  0.26344600773E+03  0.26344600773E+03  0.00000000000E+00 0. -1.
         13   -1    0    0    0    0 -0.00000000000E+00 -0.00000000000E+00 -0.10000000000E+04  0.10000000000E+04  0.00000000000E+00 0.  1.
    9000005    2    1    2  501    0  0.82824968417E+02  0.29480987367E+02 -0.88028835243E+03  0.10949566303E+04  0.64520797798E+03 0.  0.
         13    1    3    3    0    0  0.11546816907E+02 -0.27624819749E+03 -0.18667100980E+03  0.33360524801E+03  0.00000000000E+00 0.  1.
          1    1    3    3  501    0  0.71278151510E+02  0.30572918486E+03 -0.69361734263E+03  0.76135138231E+03  0.00000000000E+00 0.  1.
         -1    1    1    2    0  502 -0.82824968417E+02 -0.29480987367E+02  0.14373436016E+03  0.16848937741E+03  0.00000000000E+00 0. -1.
<mgrwt>
<rscale>  1 0.65117005E+03</rscale>
<asrwt>0</asrwt>
<pdfrwt beam="1">  1       21 0.40530154E-01 0.65117005E+03</pdfrwt>
<pdfrwt beam="2">0</pdfrwt>
<totfact> 0.54945766E+02</totfact>
</mgrwt>
</event>
<event>
 6    1  0.1347953E-004  0.6806880E+03  0.7818608E-02  0.9750840E-01
         21   -1    0    0  501  502  0.00000000000E+00  0.00000000000E+00  0.27030202698E+03  0.27030202698E+03  0.00000000000E+00 0. -1.
         13   -1    0    0    0    0 -0.00000000000E+00 -0.00000000000E+00 -0.10000000000E+04  0.10000000000E+04  0.00000000000E+00 0.  1.
    9000005    2    1    2  501    0 -0.49175384036E+02  0.15830467275E+03 -0.83241478763E+03  0.10752909201E+04  0.66019511991E+03 0.  0.
         13    1    3    3    0    0 -0.39680191431E+02 -0.25126367379E+03 -0.43857794874E+03  0.50700943628E+03  0.00000000000E+00 0.  1.
          3    1    3    3  501    0 -0.94951926044E+01  0.40956834654E+03 -0.39383683889E+03  0.56828148380E+03  0.00000000000E+00 0.  1.
         -3    1    1    2    0  502  0.49175384036E+02 -0.15830467275E+03  0.10271681461E+03  0.19501110689E+03  0.00000000000E+00 0. -1.
<mgrwt>
<rscale>  1 0.68068802E+03</rscale>
<asrwt>0</asrwt>
<pdfrwt beam="1">  1       21 0.41584926E-01 0.68068802E+03</pdfrwt>
<pdfrwt beam="2">0</pdfrwt>
<totfact> 0.51955915E+02</totfact>
</mgrwt>
</event>
<event>
 6    1  0.1347953E-004  0.6516069E+03  0.7818608E-02  0.9803769E-01
         21   -1    0    0  501  502  0.00000000000E+00  0.00000000000E+00  0.34161142536E+03  0.34161142536E+03  0.00000000000E+00 0. -1.
         13   -1    0    0    0    0 -0.00000000000E+00 -0.00000000000E+00 -0.10000000000E+04  0.10000000000E+04  0.00000000000E+00 0.  1.
    9000005    2    1    2  501    0 -0.21506387725E+02 -0.20553729514E+01 -0.89330381058E+03  0.11057048393E+04  0.65124860412E+03 0.  0.
         13    1    3    3    0    0  0.47269871418E+02  0.15421666521E+03  0.32287175765E+02  0.16449827443E+03  0.00000000000E+00 0.  1.
          1    1    3    3  501    0 -0.68776259144E+02 -0.15627203816E+03 -0.92559098635E+03  0.94120656486E+03  0.00000000000E+00 0.  1.
         -3    1    1    2    0  502  0.21506387725E+02  0.20553729514E+01  0.23491523595E+03  0.23590658607E+03  0.00000000000E+00 0. -1.
<mgrwt>
<rscale>  1 0.65160686E+03</rscale>
<asrwt>0</asrwt>
<pdfrwt beam="1">  1       21 0.52555602E-01 0.65160686E+03</pdfrwt>
<pdfrwt beam="2">0</pdfrwt>
<totfact> 0.31678563E+02</totfact>
</mgrwt>
</event>
<event>
 6    1  0.1347953E-004  0.5414240E+03  0.7818608E-02  0.1003499E+00
         21   -1    0    0  501  502  0.00000000000E+00  0.00000000000E+00  0.19893726786E+03  0.19893726786E+03  0.00000000000E+00 0. -1.
         13   -1    0    0    0    0 -0.00000000000E+00 -0.00000000000E+00 -0.10000000000E+04  0.10000000000E+04  0.00000000000E+00 0.  1.
    9000005    2    1    2  501    0  0.48917140292E+02  0.49740646276E+01 -0.92153598641E+03  0.10688164281E+04  0.53918675327E+03 0.  0.
         13    1    3    3    0    0  0.25524142583E+03 -0.13143132430E+03 -0.40878115152E+03  0.49952418191E+03  0.00000000000E+00 0.  1.
          1    1    3    3  501    0 -0.20632428554E+03  0.13640538893E+03 -0.51275483489E+03  0.56929224624E+03  0.00000000000E+00 0.  1.
         -1    1    1    2    0  502 -0.48917140292E+02 -0.49740646276E+01  0.12047325427E+03  0.13012083972E+03  0.00000000000E+00 0. -1.
<mgrwt>
<rscale>  1 0.54142403E+03</rscale>
<asrwt>0</asrwt>
<pdfrwt beam="1">  1       21 0.30605733E-01 0.54142403E+03</pdfrwt>
<pdfrwt beam="2">0</pdfrwt>
<totfact> 0.98239529E+02</totfact>
</mgrwt>
</event>
<event>
 6    1  0.1347953E-004  0.6475954E+03  0.7818608E-02  0.9811302E-01
         21   -1    0    0  501  502  0.00000000000E+00  0.00000000000E+00  0.11758614865E+03  0.11758614865E+03  0.00000000000E+00 0.  1.
         13   -1    0    0    0    0 -0.00000000000E+00 -0.00000000000E+00 -0.10000000000E+04  0.10000000000E+04  0.00000000000E+00 0.  1.
    9000005    2    1    2  501    0  0.12854511128E+01 -0.23011076798E+02 -0.88240368945E+03  0.10945391935E+04  0.64718514572E+03 0.  0.
         13    1    3    3    0    0  0.39119611858E+02 -0.27708739013E+03 -0.14811755784E+03  0.31661739804E+03  0.00000000000E+00 0.  1.
          1    1    3    3  501    0 -0.37834160745E+02  0.25407631334E+03 -0.73428613161E+03  0.77792179542E+03  0.00000000000E+00 0.  1.
         -3    1    1    2    0  502 -0.12854511128E+01  0.23011076798E+02 -0.10161901184E-01  0.23046955184E+02  0.00000000000E+00 0. -1.
<mgrwt>
<rscale>  1 0.64759538E+03</rscale>
<asrwt>0</asrwt>
<pdfrwt beam="1">  1       21 0.18090176E-01 0.64759538E+03</pdfrwt>
<pdfrwt beam="2">0</pdfrwt>
<totfact> 0.27181714E+03</totfact>
</mgrwt>
</event>
<event>
 6    1  0.1347953E-004  0.6540485E+03  0.7818608E-02  0.9799212E-01
         21   -1    0    0  501  502  0.00000000000E+00  0.00000000000E+00  0.20111597955E+03  0.20111597955E+03  0.00000000000E+00 0. -1.
         13   -1    0    0    0    0 -0.00000000000E+00 -0.00000000000E+00 -0.10000000000E+04  0.10000000000E+04  0.00000000000E+00 0.  1.
    9000005    2    1    2  501    0  0.46364176450E+02 -0.19938519713E+01 -0.88668099739E+03  0.11018087720E+04  0.65240000514E+03 0.  0.
         13    1    3    3    0    0 -0.17500995716E+03 -0.14806724272E+03 -0.78495545041E+03  0.81774534704E+03  0.00000000000E+00 0.  1.
          3    1    3    3  501    0  0.22137413361E+03  0.14607339075E+03 -0.10172554698E+03  0.28406342500E+03  0.00000000000E+00 0.  1.
         -3    1    1    2    0  502 -0.46364176450E+02  0.19938519713E+01  0.87796976934E+02  0.99307207505E+02  0.00000000000E+00 0. -1.
<mgrwt>
<rscale>  1 0.65404845E+03</rscale>
<asrwt>0</asrwt>
<pdfrwt beam="1">  1       21 0.30940919E-01 0.65404845E+03</pdfrwt>
<pdfrwt beam="2">0</pdfrwt>
<totfact> 0.95360132E+02</totfact>
</mgrwt>
</event>
<event>
 6    1  0.1347953E-004  0.6480214E+03  0.7818608E-02  0.9810499E-01
         21   -1    0    0  501  502  0.00000000000E+00  0.00000000000E+00  0.11695176538E+03  0.11695176538E+03  0.00000000000E+00 0.  1.
         13   -1    0    0    0    0 -0.00000000000E+00 -0.00000000000E+00 -0.10000000000E+04  0.10000000000E+04  0.00000000000E+00 0.  1.
    9000005    2    1    2  501    0 -0.20875725201E+02 -0.21672952410E+02 -0.86825667463E+03  0.10834211374E+04  0.64732232703E+03 0.  0.
         13    1    3    3    0    0  0.28519859112E+03  0.25873639613E+02 -0.20742815887E+03  0.35360164408E+03  0.00000000000E+00 0.  1.
          3    1    3    3  501    0 -0.30607431632E+03 -0.47546592023E+02 -0.66082851575E+03  0.72981949327E+03  0.00000000000E+00 0.  1.
         -1    1    1    2    0  502  0.20875725201E+02  0.21672952410E+02 -0.14791559994E+02  0.33530628027E+02  0.00000000000E+00 0. -1.
<mgrwt>
<rscale>  1 0.64802138E+03</rscale>
<asrwt>0</asrwt>
<pdfrwt beam="1">  1       21 0.17992579E-01 0.64802138E+03</pdfrwt>
<pdfrwt beam="2">0</pdfrwt>
<totfact> 0.27461820E+03</totfact>
</mgrwt>
</event>
<event>
 6    1  0.1347953E-004  0.6868114E+03  0.7818608E-02  0.9740056E-01
         21   -1    0    0  501  502  0.00000000000E+00  0.00000000000E+00  0.23195045469E+03  0.23195045469E+03  0.00000000000E+00 0.  1.
         13   -1    0    0    0    0 -0.00000000000E+00 -0.00000000000E+00 -0.10000000000E+04  0.10000000000E+04  0.00000000000E+00 0.  1.
    9000005    2    1    2  501    0 -0.29917569591E+02  0.22188736995E+03 -0.73445030120E+03  0.10055482128E+04  0.64929261316E+03 0.  0.
         13    1    3    3    0    0  0.15447081023E+03 -0.59265102436E+02  0.32070962125E+02  0.16852931552E+03  0.00000000000E+00 0.  1.
          1    1    3    3  501    0 -0.18438837982E+03  0.28115247238E+03 -0.76652126332E+03  0.83701889732E+03  0.00000000000E+00 0.  1.
         -1    1    1    2    0  502  0.29917569591E+02 -0.22188736995E+03 -0.33599244111E+02  0.22640224186E+03  0.00000000000E+00 0. -1.
<mgrwt>
<rscale>  1 0.68681145E+03</rscale>
<asrwt>0</asrwt>
<pdfrwt beam="1">  1       21 0.35684684E-01 0.68681145E+03</pdfrwt>
<pdfrwt beam="2">0</pdfrwt>
<totfact> 0.71253895E+02</totfact>
</mgrwt>
</event>
<event>
 6    1  0.1347953E-004  0.6381836E+03  0.7818608E-02  0.9829208E-01
         21   -1    0    0  501  502  0.00000000000E+00  0.00000000000E+00  0.20546473028E+03  0.20546473028E+03  0.00000000000E+00 0.  1.
         13   -1    0    0    0    0 -0.00000000000E+00 -0.00000000000E+00 -0.10000000000E+04  0.10000000000E+04  0.00000000000E+00 0.  1.
    9000005    2    1    2  501    0  0.49412885891E+01 -0.47896252923E+02 -0.89198102562E+03  0.10967718477E+04  0.63636457200E+03 0.  0.
         13    1    3    3    0    0  0.51281093478E+02  0.27417092368E+03 -0.59106691324E+03  0.65357443483E+03  0.00000000000E+00 0.  1.
          1    1    3    3  501    0 -0.46339804889E+02 -0.32206717660E+03 -0.30091411238E+03  0.44319741289E+03  0.00000000000E+00 0.  1.
         -3    1    1    2    0  502 -0.49412885891E+01  0.47896252923E+02  0.97445755897E+02  0.10869288256E+03  0.00000000000E+00 0. -1.
<mgrwt>
<rscale>  1 0.63818362E+03</rscale>
<asrwt>0</asrwt>
<pdfrwt beam="1">  1       21 0.31609958E-01 0.63818362E+03</pdfrwt>
<pdfrwt beam="2">0</pdfrwt>
<totfact> 0.91439447E+02</totfact>
</mgrwt>
</event>
<event>
 6    1  0.1347953E-004  0.9417811E+03  0.7818608E-02  0.9374809E-01
         21   -1    0    0  501  502  0.00000000000E+00  0.00000000000E+00  0.73819887226E+03  0.73819887226E+03  0.00000000000E+00 0. -1.
         13   -1    0    0    0    0 -0.00000000000E+00 -0.00000000000E+00 -0.10000000000E+04  0.10000000000E+04  0.00000000000E+00 0.  1.
    9000005    2    1    2  501    0 -0.56061817082E+03  0.38166297737E+03 -0.43625748744E+03  0.10379172266E+04  0.65344641117E+03 0.  0.
         13    1    3    3    0    0 -0.48610535302E+03  0.55044278652E+03 -0.24999103005E+03  0.77574557077E+03  0.00000000000E+00 0.  1.
          3    1    3    3  501    0 -0.74512817801E+02 -0.16877980915E+03 -0.18626645739E+03  0.26217165587E+03  0.00000000000E+00 0.  1.
         -1    1    1    2    0  502  0.56061817082E+03 -0.38166297737E+03  0.17445635969E+03  0.70028164561E+03  0.00000000000E+00 0. -1.
<mgrwt>
<rscale>  1 0.94178106E+03</rscale>
<asrwt>0</asrwt>
<pdfrwt beam="1">  1       21 0.11356905E+00 0.94178106E+03</pdfrwt>
<pdfrwt beam="2">0</pdfrwt>
<totfact> 0.50820232E+01</totfact>
</mgrwt>
</event>
<event>
 6    1  0.1347953E-004  0.6646976E+03  0.7818608E-02  0.9779584E-01
         21   -1    0    0  501  502  0.00000000000E+00  0.00000000000E+00  0.16602086505E+03  0.16602086505E+03  0.00000000000E+00 0.  1.
         13   -1    0    0    0    0 -0.00000000000E+00 -0.00000000000E+00 -0.10000000000E+04  0.10000000000E+04  0.00000000000E+00 0.  1.
    9000005    2    1    2  501    0 -0.23538662178E+02 -0.52391631432E+02 -0.87250989344E+03  0.10968575004E+04  0.66221137890E+03 0.  0.
         13    1    3    3    0    0  0.24612745621E+03 -0.20594832276E+03 -0.27110026497E+03  0.42010568910E+03  0.00000000000E+00 0.  1.
          1    1    3    3  501    0 -0.26966611839E+03  0.15355669133E+03 -0.60140962847E+03  0.67675181129E+03  0.00000000000E+00 0.  1.
         -1    1    1    2    0  502  0.23538662178E+02  0.52391631432E+02  0.38530758492E+02  0.69163364661E+02  0.00000000000E+00 0. -1.
<mgrwt>
<rscale>  1 0.66469757E+03</rscale>
<asrwt>0</asrwt>
<pdfrwt beam="1">  1       21 0.25541671E-01 0.66469757E+03</pdfrwt>
<pdfrwt beam="2">0</pdfrwt>
<totfact> 0.13951067E+03</totfact>
</mgrwt>
</event>
<event>
 6    1  0.1347953E-004  0.6590568E+03  0.7818608E-02  0.9789932E-01
         21   -1    0    0  501  502  0.00000000000E+00  0.00000000000E+00  0.21637301678E+03  0.21637301678E+03  0.00000000000E+00 0. -1.
         13   -1    0    0    0    0 -0.00000000000E+00 -0.00000000000E+00 -0.10000000000E+04  0.10000000000E+04  0.00000000000E+00 0.  1.
    9000005    2    1    2  501    0 -0.93691078756E+01 -0.10755514491E+03 -0.86046312388E+03  0.10838600669E+04  0.65015380307E+03 0.  0.
         13    1    3    3    0    0 -0.23125051863E+03 -0.27834368608E+03 -0.60427574578E+03  0.70434450866E+03  0.00000000000E+00 0.  1.
          3    1    3    3  501    0  0.22188141075E+03  0.17078854117E+03 -0.25618737811E+03  0.37951555822E+03  0.00000000000E+00 0.  1.
         -1    1    1    2    0  502  0.93691078756E+01  0.10755514491E+03  0.76836140664E+02  0.13251294990E+03  0.00000000000E+00 0. -1.
<mgrwt>
<rscale>  1 0.65905679E+03</rscale>
<asrwt>0</asrwt>
<pdfrwt beam="1">  1       21 0.33288155E-01 0.65905679E+03</pdfrwt>
<pdfrwt beam="2">0</pdfrwt>
<totfact> 0.82249219E+02</totfact>
</mgrwt>
</event>
<event>
 6    1  0.1347953E-004  0.6301058E+03  0.7818608E-02  0.9844842E-01
         21   -1    0    0  501  502  0.00000000000E+00  0.00000000000E+00  0.15385317021E+03  0.15385317021E+03  0.00000000000E+00 0.  1.
         13   -1    0    0    0    0 -0.00000000000E+00 -0.00000000000E+00 -0.10000000000E+04  0.10000000000E+04  0.00000000000E+00 0.  1.
    9000005    2    1    2  501    0 -0.18946196966E+02  0.99209961735E+01 -0.89843002480E+03  0.10973649677E+04  0.62974278741E+03 0.  0.
         13    1    3    3    0    0  0.27465911582E+03  0.41362874894E+02 -0.66592999744E+03  0.72153397620E+03  0.00000000000E+00 0.  1.
          1    1    3    3  501    0 -0.29360531279E+03 -0.31441878721E+02 -0.23250002736E+03  0.37583099148E+03  0.00000000000E+00 0.  1.
         -3    1    1    2    0  502  0.18946196966E+02 -0.99209961735E+01  0.52283195009E+02  0.56488202528E+02  0.00000000000E+00 0. -1.
<mgrwt>
<rscale>  1 0.63010583E+03</rscale>
<asrwt>0</asrwt>
<pdfrwt beam="1">  1       21 0.23669718E-01 0.63010583E+03</pdfrwt>
<pdfrwt beam="2">0</pdfrwt>
<totfact> 0.16220357E+03</totfact>
</mgrwt>
</event>
<event>
 6    1  0.1347953E-004  0.6748225E+03  0.7818608E-02  0.9761285E-01
         21   -1    0    0  501  502  0.00000000000E+00  0.00000000000E+00  0.19538433451E+03  0.19538433451E+03  0.00000000000E+00 0.  1.
         13   -1    0    0    0    0 -0.00000000000E+00 -0.00000000000E+00 -0.10000000000E+04  0.10000000000E+04  0.00000000000E+00 0.  1.
    9000005    2    1    2  501    0 -0.66231320386E+01  0.17171700615E+03 -0.76293814267E+03  0.10185578320E+04  0.65257555233E+03 0.  0.
         13    1    3    3    0    0 -0.18204676819E+03  0.34075960373E+03 -0.27831659454E+03  0.47614940947E+03  0.00000000000E+00 0.  1.
          1    1    3    3  501    0  0.17542363615E+03 -0.16904259758E+03 -0.48462154813E+03  0.54240842253E+03  0.00000000000E+00 0.  1.
         -3    1    1    2    0  502  0.66231320386E+01 -0.17171700615E+03 -0.41677522822E+02  0.17682650251E+03  0.00000000000E+00 0. -1.
<mgrwt>
<rscale>  1 0.67482253E+03</rscale>
<asrwt>0</asrwt>
<pdfrwt beam="1">  1       21 0.30059128E-01 0.67482253E+03</pdfrwt>
<pdfrwt beam="2">0</pdfrwt>
<totfact> 0.10092488E+03</totfact>
</mgrwt>
</event>
<event>
 6    1  0.1347953E-004  0.6828604E+03  0.7818608E-02  0.9747001E-01
         21   -1    0    0  501  502  0.00000000000E+00  0.00000000000E+00  0.60145697156E+03  0.60145697156E+03  0.00000000000E+00 0. -1.
         13   -1    0    0    0    0 -0.00000000000E+00 -0.00000000000E+00 -0.10000000000E+04  0.10000000000E+04  0.00000000000E+00 0.  1.
    9000005    2    1    2  501    0  0.13229274292E+03  0.13149836077E+03 -0.86326790320E+03  0.11006951540E+04  0.65689052407E+03 0.  0.
         13    1    3    3    0    0  0.29328868044E+02  0.37025564756E+03 -0.70348094838E+03  0.79550919026E+03  0.00000000000E+00 0.  1.
          1    1    3    3  501    0  0.10296387488E+03 -0.23875728680E+03 -0.15978695482E+03  0.30518596373E+03  0.00000000000E+00 0.  1.
         -1    1    1    2    0  502 -0.13229274292E+03 -0.13149836077E+03  0.46472487476E+03  0.50076181757E+03  0.00000000000E+00 0. -1.
<mgrwt>
<rscale>  1 0.68286042E+03</rscale>
<asrwt>0</asrwt>
<pdfrwt beam="1">  1       21 0.92531839E-01 0.68286042E+03</pdfrwt>
<pdfrwt beam="2">0</pdfrwt>
<totfact> 0.87153919E+01</totfact>
</mgrwt>
</event>
<event>
 6    1  0.1347953E-004  0.6781989E+03  0.7818608E-02  0.9755259E-01
         21   -1    0    0  501  502  0.00000000000E+00  0.00000000000E+00  0.14828881657E+03  0.14828881657E+03  0.00000000000E+00 0.  1.
         13   -1    0    0    0    0 -0.00000000000E+00 -0.00000000000E+00 -0.10000000000E+04  0.10000000000E+04  0.00000000000E+00 0.  1.
    9000005    2    1    2  501    0 -0.30244348701E+02 -0.14041009797E+02 -0.87540827394E+03  0.11073813272E+04  0.67737868823E+03 0.  0.
         13    1    3    3    0    0 -0.17041677693E+03  0.20439435964E+03 -0.79083141838E+03  0.83440593503E+03  0.00000000000E+00 0.  1.
          3    1    3    3  501    0  0.14017242823E+03 -0.21843536944E+03 -0.84576855557E+02  0.27297539221E+03  0.00000000000E+00 0.  1.
         -3    1    1    2    0  502  0.30244348701E+02  0.14041009797E+02  0.23697090506E+02  0.40907489325E+02  0.00000000000E+00 0. -1.
<mgrwt>
<rscale>  1 0.67819891E+03</rscale>
<asrwt>0</asrwt>
<pdfrwt beam="1">  1       21 0.22813663E-01 0.67819891E+03</pdfrwt>
<pdfrwt beam="2">0</pdfrwt>
<totfact> 0.17385924E+03</totfact>
</mgrwt>
</event>
<event>
 6    1  0.1347953E-004  0.6309620E+03  0.7818608E-02  0.9843173E-01
         21   -1    0    0  501  502  0.00000000000E+00  0.00000000000E+00  0.33682046053E+03  0.33682046053E+03  0.00000000000E+00 0. -1.
         13   -1    0    0    0    0 -0.00000000000E+00 -0.00000000000E+00 -0.10000000000E+04  0.10000000000E+04  0.00000000000E+00 0.  1.
    9000005    2    1    2  501    0  0.29281770218E+02  0.25918875709E+02 -0.89869883520E+03  0.10980767719E+04  0.62974899004E+03 0.  0.
         13    1    3    3    0    0  0.59593413678E+02  0.28102903787E+03 -0.19045013542E+03  0.34467368504E+03  0.00000000000E+00 0.  1.
          3    1    3    3  501    0 -0.30311643461E+02 -0.25511016216E+03 -0.70824869979E+03  0.75340308688E+03  0.00000000000E+00 0.  1.
         -1    1    1    2    0  502 -0.29281770218E+02 -0.25918875709E+02  0.23551929574E+03  0.23874368861E+03  0.00000000000E+00 0. -1.
<mgrwt>
<rscale>  1 0.63096196E+03</rscale>
<asrwt>0</asrwt>
<pdfrwt beam="1">  1       21 0.51818531E-01 0.63096196E+03</pdfrwt>
<pdfrwt beam="2">0</pdfrwt>
<totfact> 0.32725971E+02</totfact>
</mgrwt>
</event>
<event>
 6    1  0.1347953E-004  0.6933987E+03  0.7818608E-02  0.9728588E-01
         21   -1    0    0  501  502  0.00000000000E+00  0.00000000000E+00  0.18097730448E+03  0.18097730448E+03  0.00000000000E+00 0.  1.
         13   -1    0    0    0    0 -0.00000000000E+00 -0.00000000000E+00 -0.10000000000E+04  0.10000000000E+04  0.00000000000E+00 0.  1.
    9000005    2    1    2  501    0 -0.11398729866E+02  0.12018327843E+03 -0.80014303681E+03  0.10587873173E+04  0.68280872316E+03 0.  0.
         13    1    3    3    0    0 -0.14243466235E+03 -0.11513603524E+03 -0.76564281735E+03  0.78724383986E+03  0.00000000000E+00 0.  1.
          1    1    3    3  501    0  0.13103593248E+03  0.23531931367E+03 -0.34500219470E+02  0.27154347742E+03  0.00000000000E+00 0.  1.
         -3    1    1    2    0  502  0.11398729866E+02 -0.12018327843E+03 -0.18879658706E+02  0.12218998719E+03  0.00000000000E+00 0. -1.
<mgrwt>
<rscale>  1 0.69339866E+03</rscale>
<asrwt>0</asrwt>
<pdfrwt beam="1">  1       21 0.27842661E-01 0.69339866E+03</pdfrwt>
<pdfrwt beam="2">0</pdfrwt>
<totfact> 0.11746753E+03</totfact>
</mgrwt>
</event>
<event>
 6    1  0.1347953E-004  0.6576326E+03  0.7818608E-02  0.9792562E-01
         21   -1    0    0  501  502  0.00000000000E+00  0.00000000000E+00  0.14487173142E+03  0.14487173142E+03  0.00000000000E+00 0.  1.
         13   -1    0    0    0    0 -0.00000000000E+00 -0.00000000000E+00 -0.10000000000E+04  0.10000000000E+04  0.00000000000E+00 0.  1.
    9000005    2    1    2  501    0 -0.31529771002E+02  0.49106872886E+02 -0.86403878264E+03  0.10858377693E+04  0.65503819115E+03 0.  0.
         13    1    3    3    0    0 -0.25769520370E+02  0.41411527096E+01  0.10882866923E+03  0.11191468434E+03  0.00000000000E+00 0.  1.
          3    1    3    3  501    0 -0.57602506324E+01  0.44965720177E+02 -0.97286745187E+03  0.97392308494E+03  0.00000000000E+00 0.  1.
         -1    1    1    2    0  502  0.31529771002E+02 -0.49106872886E+02  0.89105140601E+01  0.59033962131E+02  0.00000000000E+00 0. -1.
<mgrwt>
<rscale>  1 0.65763261E+03</rscale>
<asrwt>0</asrwt>
<pdfrwt beam="1">  1       21 0.22287958E-01 0.65763261E+03</pdfrwt>
<pdfrwt beam="2">0</pdfrwt>
<totfact> 0.18207480E+03</totfact>
</mgrwt>
</event>
<event>
 6    1  0.1347953E-004  0.6517249E+03  0.7818608E-02  0.9803548E-01
         21   -1    0    0  501  502  0.00000000000E+00  0.00000000000E+00  0.11552646226E+03  0.11552646226E+03  0.00000000000E+00 0.  1.
         13   -1    0    0    0    0 -0.00000000000E+00 -0.00000000000E+00 -0.10000000000E+04  0.10000000000E+04  0.00000000000E+00 0.  1.
    9000005    2    1    2  501    0 -0.19274676732E+02 -0.17202194679E+02 -0.86567283302E+03  0.10835750122E+04  0.65121265690E+03 0.  0.
         13    1    3    3    0    0  0.60267318242E+02  0.10500779257E+03  0.67811788697E+02  0.13877040331E+03  0.00000000000E+00 0.  1.
          3    1    3    3  501    0 -0.79541994974E+02 -0.12220998724E+03 -0.93348462172E+03  0.94480460887E+03  0.00000000000E+00 0.  1.
         -3    1    1    2    0  502  0.19274676732E+02  0.17202194679E+02 -0.18800704715E+02  0.31951450087E+02  0.00000000000E+00 0. -1.
<mgrwt>
<rscale>  1 0.65172491E+03</rscale>
<asrwt>0</asrwt>
<pdfrwt beam="1">  1       21 0.17773301E-01 0.65172491E+03</pdfrwt>
<pdfrwt beam="2">0</pdfrwt>
<totfact> 0.28104477E+03</totfact>
</mgrwt>
</event>
<event>
 6    1  0.1347953E-004  0.6481417E+03  0.7818608E-02  0.9810272E-01
         21   -1    0    0  501  502  0.00000000000E+00  0.00000000000E+00  0.20440680864E+03  0.20440680864E+03  0.00000000000E+00 0.  1.
         13   -1    0    0    0    0 -0.00000000000E+00 -0.00000000000E+00 -0.10000000000E+04  0.10000000000E+04  0.00000000000E+00 0.  1.
    9000005    2    1    2  501    0  0.10202395101E+02  0.21085337861E+02 -0.89345050915E+03  0.11037850665E+04  0.64771828790E+03 0.  0.
         13    1    3    3    0    0  0.27556001645E+03  0.88876928350E+02 -0.72883578829E+03  0.78424105819E+03  0.00000000000E+00 0.  1.
          1    1    3    3  501    0 -0.26535762135E+03 -0.67791590489E+02 -0.16461472085E+03  0.31954400835E+03  0.00000000000E+00 0.  1.
         -1    1    1    2    0  502 -0.10202395101E+02 -0.21085337861E+02  0.97857317785E+02  0.10062174210E+03  0.00000000000E+00 0. -1.
<mgrwt>
<rscale>  1 0.64814170E+03</rscale>
<asrwt>0</asrwt>
<pdfrwt beam="1">  1       21 0.31447200E-01 0.64814170E+03</pdfrwt>
<pdfrwt beam="2">0</pdfrwt>
<totfact> 0.92333343E+02</totfact>
</mgrwt>
</event>
<event>
 6    1  0.1347953E-004  0.6510663E+03  0.7818608E-02  0.9804780E-01
         21   -1    0    0  501  502  0.00000000000E+00  0.00000000000E+00  0.13236510350E+03  0.13236510350E+03  0.00000000000E+00 0.  1.
         13   -1    0    0    0    0 -0.00000000000E+00 -0.00000000000E+00 -0.10000000000E+04  0.10000000000E+04  0.00000000000E+00 0.  1.
    9000005    2    1    2  501    0  0.34102408495E+02 -0.22665535931E+02 -0.87511504481E+03  0.10907399500E+04  0.64977734348E+03 0.  0.
         13    1    3    3    0    0  0.13006536038E+03  0.28588117829E+03 -0.31967469272E+03  0.44814836297E+03  0.00000000000E+00 0.  1.
          3    1    3    3  501    0 -0.95962951880E+02 -0.30854671422E+03 -0.55544035210E+03  0.64259158704E+03  0.00000000000E+00 0.  1.
         -3    1    1    2    0  502 -0.34102408495E+02  0.22665535931E+02  0.74801483113E+01  0.41625153488E+02  0.00000000000E+00 0. -1.
<mgrwt>
<rscale>  1 0.65106628E+03</rscale>
<asrwt>0</asrwt>
<pdfrwt beam="1">  1       21 0.20363861E-01 0.65106628E+03</pdfrwt>
<pdfrwt beam="2">0</pdfrwt>
<totfact> 0.21678302E+03</totfact>
</mgrwt>
</event>
<event>
 6    1  0.1347953E-004  0.6446821E+03  0.7818608E-02  0.9816809E-01
         21   -1    0    0  501  502  0.00000000000E+00  0.00000000000E+00  0.19144234910E+03  0.19144234910E+03  0.00000000000E+00 0. -1.
         13   -1    0    0    0    0 -0.00000000000E+00 -0.00000000000E+00 -0.10000000000E+04  0.10000000000E+04  0.00000000000E+00 0.  1.
    9000005    2    1    2  501    0  0.32772791381E+02 -0.10730573369E+02 -0.89233064162E+03  0.11008492200E+04  0.64375913992E+03 0.  0.
         13    1    3    3    0    0 -0.27543697786E+03 -0.14127102623E+03 -0.44847649590E+03  0.54493504108E+03  0.00000000000E+00 0.  1.
          1    1    3    3  501    0  0.30820976925E+03  0.13054045286E+03 -0.44385414572E+03  0.55591417895E+03  0.00000000000E+00 0.  1.
         -3    1    1    2    0  502 -0.32772791381E+02  0.10730573369E+02  0.83772990719E+02  0.90593129065E+02  0.00000000000E+00 0. -1.
<mgrwt>
<rscale>  1 0.64468212E+03</rscale>
<asrwt>0</asrwt>
<pdfrwt beam="1">  1       21 0.29452668E-01 0.64468212E+03</pdfrwt>
<pdfrwt beam="2">0</pdfrwt>
<totfact> 0.10532055E+03</totfact>
</mgrwt>
</event>
<event>
 6    1  0.1347953E-004  0.6454080E+03  0.7818608E-02  0.9815434E-01
         21   -1    0    0  501  502  0.00000000000E+00  0.00000000000E+00  0.30050130466E+03  0.30050130466E+03  0.00000000000E+00 0. -1.
         13   -1    0    0    0    0 -0.00000000000E+00 -0.00000000000E+00 -0.10000000000E+04  0.10000000000E+04  0.00000000000E+00 0.  1.
    9000005    2    1    2  501    0  0.31267968555E+02  0.13290092143E+03 -0.86925015567E+03  0.10826575555E+04  0.63080203591E+03 0.  0.
         13    1    3    3    0    0  0.25970964532E+03  0.11162197173E+03 -0.13474363944E+03  0.31315237955E+03  0.00000000000E+00 0.  1.
          1    1    3    3  501    0 -0.22844167677E+03  0.21278949704E+02 -0.73450651624E+03  0.76950517593E+03  0.00000000000E+00 0.  1.
         -1    1    1    2    0  502 -0.31267968555E+02 -0.13290092143E+03  0.16975146034E+03  0.21784374919E+03  0.00000000000E+00 0. -1.
<mgrwt>
<rscale>  1 0.64540805E+03</rscale>
<asrwt>0</asrwt>
<pdfrwt beam="1">  1       21 0.46230969E-01 0.64540805E+03</pdfrwt>
<pdfrwt beam="2">0</pdfrwt>
<totfact> 0.41701669E+02</totfact>
</mgrwt>
</event>
<event>
 6    1  0.1347953E-004  0.6307032E+03  0.7818608E-02  0.9843678E-01
         21   -1    0    0  501  502  0.00000000000E+00  0.00000000000E+00  0.16387665261E+03  0.16387665261E+03  0.00000000000E+00 0.  1.
         13   -1    0    0    0    0 -0.00000000000E+00 -0.00000000000E+00 -0.10000000000E+04  0.10000000000E+04  0.00000000000E+00 0.  1.
    9000005    2    1    2  501    0  0.70065347551E+02 -0.58895315045E+02 -0.86261182585E+03  0.10685905017E+04  0.62402619111E+03 0.  0.
         13    1    3    3    0    0 -0.18888957090E+03 -0.22524435327E+03 -0.26228885125E+03  0.39396666124E+03  0.00000000000E+00 0.  1.
          3    1    3    3  501    0  0.25895491845E+03  0.16634903822E+03 -0.60032297460E+03  0.67462384047E+03  0.00000000000E+00 0.  1.
         -3    1    1    2    0  502 -0.70065347551E+02  0.58895315045E+02  0.26488478458E+02  0.95286150897E+02  0.00000000000E+00 0. -1.
<mgrwt>
<rscale>  1 0.63070318E+03</rscale>
<asrwt>0</asrwt>
<pdfrwt beam="1">  1       21 0.25211792E-01 0.63070318E+03</pdfrwt>
<pdfrwt beam="2">0</pdfrwt>
<totfact> 0.14337559E+03</totfact>
</mgrwt>
</event>
<event>
 6    1  0.1347953E-004  0.6623730E+03  0.7818608E-02  0.9783835E-01
         21   -1    0    0  501  502  0.00000000000E+00  0.00000000000E+00  0.14881905317E+03  0.14881905317E+03  0.00000000000E+00 0.  1.
         13   -1    0    0    0    0 -0.00000000000E+00 -0.00000000000E+00 -0.10000000000E+04  0.10000000000E+04  0.00000000000E+00 0.  1.
    9000005    2    1    2  501    0  0.87796949822E+02  0.52895942634E+02 -0.78360318214E+03  0.10260467459E+04  0.65439414165E+03 0.  0.
         13    1    3    3    0    0 -0.26853422475E+03  0.21054157698E+02 -0.17861673540E+03  0.32319938983E+03  0.00000000000E+00 0.  1.
          3    1    3    3  501    0  0.35633117458E+03  0.31841784936E+02 -0.60498644674E+03  0.70284735610E+03  0.00000000000E+00 0.  1.
         -3    1    1    2    0  502 -0.87796949822E+02 -0.52895942634E+02 -0.67577764689E+02  0.12277230724E+03  0.00000000000E+00 0. -1.
<mgrwt>
<rscale>  1 0.66237299E+03</rscale>
<asrwt>0</asrwt>
<pdfrwt beam="1">  1       21 0.22895238E-01 0.66237299E+03</pdfrwt>
<pdfrwt beam="2">0</pdfrwt>
<totfact> 0.17278163E+03</totfact>
</mgrwt>
</event>
<event>
 6    1  0.1347953E-004  0.6262457E+03  0.7818608E-02  0.9852403E-01
         21   -1    0    0  501  502  0.00000000000E+00  0.00000000000E+00  0.12507486258E+03  0.12507486258E+03  0.00000000000E+00 0.  1.
         13   -1    0    0    0    0 -0.00000000000E+00 -0.00000000000E+00 -0.10000000000E+04  0.10000000000E+04  0.00000000000E+00 0.  1.
    9000005    2    1    2  501    0  0.73418330611E+01 -0.77640162782E+02 -0.80823618118E+03  0.10224624156E+04  0.62137087909E+03 0.  0.
         13    1    3    3    0    0  0.88095687186E+02  0.26188702152E+03 -0.32946842655E+03  0.42999430954E+03  0.00000000000E+00 0.  1.
          1    1    3    3  501    0 -0.80753854124E+02 -0.33952718431E+03 -0.47876775463E+03  0.59246810607E+03  0.00000000000E+00 0.  1.
         -3    1    1    2    0  502 -0.73418330611E+01  0.77640162782E+02 -0.66688956234E+02  0.10261244697E+03  0.00000000000E+00 0. -1.
<mgrwt>
<rscale>  1 0.62624569E+03</rscale>
<asrwt>0</asrwt>
<pdfrwt beam="1">  1       21 0.19242286E-01 0.62624569E+03</pdfrwt>
<pdfrwt beam="2">0</pdfrwt>
<totfact> 0.24186168E+03</totfact>
</mgrwt>
</event>
<event>
 6    1  0.1347953E-004  0.6425488E+03  0.7818608E-02  0.9820862E-01
         21   -1    0    0  501  502  0.00000000000E+00  0.00000000000E+00  0.35456086950E+03  0.35456086950E+03  0.00000000000E+00 0. -1.
         13   -1    0    0    0    0 -0.00000000000E+00 -0.00000000000E+00 -0.10000000000E+04  0.10000000000E+04  0.00000000000E+00 0.  1.
    9000005    2    1    2  501    0 -0.10775708147E+02 -0.18491434771E+02 -0.89628001324E+03  0.11028086153E+04  0.64219228489E+03 0.  0.
         13    1    3    3    0    0 -0.40877264238E+02  0.22078782218E+03 -0.59955391525E+02  0.23240667401E+03  0.00000000000E+00 0.  1.
          1    1    3    3  501    0  0.30101556091E+02 -0.23927925695E+03 -0.83632462172E+03  0.87040194127E+03  0.00000000000E+00 0.  1.
         -1    1    1    2    0  502  0.10775708147E+02  0.18491434771E+02  0.25084088275E+03  0.25175225422E+03  0.00000000000E+00 0. -1.
<mgrwt>
<rscale>  1 0.64254882E+03</rscale>
<asrwt>0</asrwt>
<pdfrwt beam="1">  1       21 0.54547825E-01 0.64254882E+03</pdfrwt>
<pdfrwt beam="2">0</pdfrwt>
<totfact> 0.29252088E+02</totfact>
</mgrwt>
</event>
<event>
 6    1  0.1347953E-004  0.5024338E+03  0.7818608E-02  0.1013146E+00
         21   -1    0    0  501  502  0.00000000000E+00  0.00000000000E+00  0.12039855756E+03  0.12039855756E+03  0.00000000000E+00 0.  1.
         13   -1    0    0    0    0 -0.00000000000E+00 -0.00000000000E+00 -0.10000000000E+04  0.10000000000E+04  0.00000000000E+00 0.  1.
    9000005    2    1    2  501    0 -0.14034862498E+03  0.44168687210E+02 -0.81992591063E+03  0.96162268231E+03  0.48040719681E+03 0.  0.
         13    1    3    3    0    0  0.14421321441E+03 -0.25900961228E+02 -0.52807877337E+03  0.54802874184E+03  0.00000000000E+00 0.  1.
          3    1    3    3  501    0 -0.28456183938E+03  0.70069648438E+02 -0.29184713726E+03  0.41359394047E+03  0.00000000000E+00 0.  1.
         -3    1    1    2    0  502  0.14034862498E+03 -0.44168687210E+02 -0.59675531809E+02  0.15877587524E+03  0.00000000000E+00 0. -1.
<mgrwt>
<rscale>  1 0.50243376E+03</rscale>
<asrwt>0</asrwt>
<pdfrwt beam="1">  1       21 0.18522854E-01 0.50243376E+03</pdfrwt>
<pdfrwt beam="2">0</pdfrwt>
<totfact> 0.26134841E+03</totfact>
</mgrwt>
</event>
<event>
 6    1  0.1347953E-004  0.6588760E+03  0.7818608E-02  0.9790265E-01
         21   -1    0    0  501  502  0.00000000000E+00  0.00000000000E+00  0.12475522961E+03  0.12475522961E+03  0.00000000000E+00 0.  1.
         13   -1    0    0    0    0 -0.00000000000E+00 -0.00000000000E+00 -0.10000000000E+04  0.10000000000E+04  0.00000000000E+00 0.  1.
    9000005    2    1    2  501    0 -0.17769306916E+02  0.23457719788E+02 -0.87499811718E+03  0.10953260991E+04  0.65821846325E+03 0.  0.
         13    1    3    3    0    0 -0.33077174061E+03  0.22056337546E+02 -0.33582785886E+03  0.47188640286E+03  0.00000000000E+00 0.  1.
          1    1    3    3  501    0  0.31300243369E+03  0.14013822419E+01 -0.53917025832E+03  0.62343969622E+03  0.00000000000E+00 0.  1.
         -3    1    1    2    0  502  0.17769306916E+02 -0.23457719788E+02 -0.24665320713E+00  0.29429130529E+02  0.00000000000E+00 0. -1.
<mgrwt>
<rscale>  1 0.65887598E+03</rscale>
<asrwt>0</asrwt>
<pdfrwt beam="1">  1       21 0.19193112E-01 0.65887598E+03</pdfrwt>
<pdfrwt beam="2">0</pdfrwt>
<totfact> 0.24275051E+03</totfact>
</mgrwt>
</event>
<event>
 6    1  0.1347953E-004  0.7021728E+03  0.7818608E-02  0.9713524E-01
         21   -1    0    0  501  502  0.00000000000E+00  0.00000000000E+00  0.24447880664E+03  0.24447880664E+03  0.00000000000E+00 0. -1.
         13   -1    0    0    0    0 -0.00000000000E+00 -0.00000000000E+00 -0.10000000000E+04  0.10000000000E+04  0.00000000000E+00 0.  1.
    9000005    2    1    2  501    0 -0.24631686865E+03 -0.23929765673E+02 -0.69868589567E+03  0.99055975551E+03  0.65711643942E+03 0.  0.
         13    1    3    3    0    0 -0.34317461073E+03 -0.11107158896E+02 -0.78713817768E+03  0.85876579647E+03  0.00000000000E+00 0.  1.
          3    1    3    3  501    0  0.96857742079E+02 -0.12822606777E+02  0.88452282011E+02  0.13179395904E+03  0.00000000000E+00 0.  1.
         -3    1    1    2    0  502  0.24631686865E+03  0.23929765673E+02 -0.56835297690E+02  0.25391905114E+03  0.00000000000E+00 0. -1.
<mgrwt>
<rscale>  1 0.70217281E+03</rscale>
<asrwt>0</asrwt>
<pdfrwt beam="1">  1       21 0.37612123E-01 0.70217281E+03</pdfrwt>
<pdfrwt beam="2">0</pdfrwt>
<totfact> 0.63888599E+02</totfact>
</mgrwt>
</event>
<event>
 6    1  0.1347953E-004  0.6825143E+03  0.7818608E-02  0.9747611E-01
         21   -1    0    0  501  502  0.00000000000E+00  0.00000000000E+00  0.26296411283E+03  0.26296411283E+03  0.00000000000E+00 0.  1.
         13   -1    0    0    0    0 -0.00000000000E+00 -0.00000000000E+00 -0.10000000000E+04  0.10000000000E+04  0.00000000000E+00 0.  1.
    9000005    2    1    2  501    0  0.97793358681E+02 -0.16820785249E+03 -0.80634565494E+03  0.10564180730E+04  0.65419294339E+03 0.  0.
         13    1    3    3    0    0 -0.63414186966E+01 -0.35996104818E+03 -0.19963816728E+03  0.41166438713E+03  0.00000000000E+00 0.  1.
          1    1    3    3  501    0  0.10413477738E+03  0.19175319569E+03 -0.60670748766E+03  0.64475368591E+03  0.00000000000E+00 0.  1.
         -3    1    1    2    0  502 -0.97793358681E+02  0.16820785249E+03  0.69309767764E+02  0.20654603978E+03  0.00000000000E+00 0. -1.
<mgrwt>
<rscale>  1 0.68251434E+03</rscale>
<asrwt>0</asrwt>
<pdfrwt beam="1">  1       21 0.40456016E-01 0.68251434E+03</pdfrwt>
<pdfrwt beam="2">0</pdfrwt>
<totfact> 0.55017949E+02</totfact>
</mgrwt>
</event>
<event>
 6    1  0.1347953E-004  0.6655296E+03  0.7818608E-02  0.9778068E-01
         21   -1    0    0  501  502  0.00000000000E+00  0.00000000000E+00  0.18883465426E+03  0.18883465426E+03  0.00000000000E+00 0.  1.
         13   -1    0    0    0    0 -0.00000000000E+00 -0.00000000000E+00 -0.10000000000E+04  0.10000000000E+04  0.00000000000E+00 0.  1.
    9000005    2    1    2  501    0 -0.12519177239E+03  0.71933828090E+02 -0.80476469309E+03  0.10443063738E+04  0.64967848635E+03 0.  0.
         13    1    3    3    0    0 -0.18749812551E+03 -0.20819292195E+03 -0.12567945890E+03  0.30707518007E+03  0.00000000000E+00 0.  1.
          3    1    3    3  501    0  0.62306353124E+02  0.28012675004E+03 -0.67908523419E+03  0.73723119374E+03  0.00000000000E+00 0.  1.
         -1    1    1    2    0  502  0.12519177239E+03 -0.71933828090E+02 -0.64006526475E+01  0.14452828046E+03  0.00000000000E+00 0. -1.
<mgrwt>
<rscale>  1 0.66552956E+03</rscale>
<asrwt>0</asrwt>
<pdfrwt beam="1">  1       21 0.29051484E-01 0.66552956E+03</pdfrwt>
<pdfrwt beam="2">0</pdfrwt>
<totfact> 0.10810666E+03</totfact>
</mgrwt>
</event>
<event>
 6    1  0.1347953E-004  0.6464821E+03  0.7818608E-02  0.9813403E-01
         21   -1    0    0  501  502  0.00000000000E+00  0.00000000000E+00  0.20223704700E+03  0.20223704700E+03  0.00000000000E+00 0. -1.
         13   -1    0    0    0    0 -0.00000000000E+00 -0.00000000000E+00 -0.10000000000E+04  0.10000000000E+04  0.00000000000E+00 0.  1.
    9000005    2    1    2  501    0  0.27679981096E+02 -0.17439942437E+02 -0.89248214470E+03  0.11020269765E+04  0.64565373494E+03 0.  0.
         13    1    3    3    0    0 -0.20962209933E+03 -0.23252345001E+03 -0.33080983398E+03  0.45545990558E+03  0.00000000000E+00 0.  1.
          1    1    3    3  501    0  0.23730208043E+03  0.21508350758E+03 -0.56167231073E+03  0.64656707096E+03  0.00000000000E+00 0.  1.
         -3    1    1    2    0  502 -0.27679981096E+02  0.17439942437E+02  0.94719191701E+02  0.10021007046E+03  0.00000000000E+00 0. -1.
<mgrwt>
<rscale>  1 0.64648208E+03</rscale>
<asrwt>0</asrwt>
<pdfrwt beam="1">  1       21 0.31113391E-01 0.64648208E+03</pdfrwt>
<pdfrwt beam="2">0</pdfrwt>
<totfact> 0.94347092E+02</totfact>
</mgrwt>
</event>
<event>
 6    1  0.1347953E-004  0.6595095E+03  0.7818608E-02  0.9789097E-01
         21   -1    0    0  501  502  0.00000000000E+00  0.00000000000E+00  0.27685897145E+03  0.27685897145E+03  0.00000000000E+00 0. -1.
         13   -1    0    0    0    0 -0.00000000000E+00 -0.00000000000E+00 -0.10000000000E+04  0.10000000000E+04  0.00000000000E+00 0.  1.
    9000005    2    1    2  501    0  0.10686980228E+03 -0.27476927997E+02 -0.87090414721E+03  0.10924407634E+04  0.65021277424E+03 0.  0.
         13    1    3    3    0    0  0.25080423266E+01  0.11317027786E+03  0.71508393139E+02  0.13389268971E+03  0.00000000000E+00 0.  1.
          3    1    3    3  501    0  0.10436175995E+03 -0.14064720586E+03 -0.94241254035E+03  0.95854807373E+03  0.00000000000E+00 0.  1.
         -1    1    1    2    0  502 -0.10686980228E+03  0.27476927997E+02  0.14776311866E+03  0.18441820801E+03  0.00000000000E+00 0. -1.
<mgrwt>
<rscale>  1 0.65950951E+03</rscale>
<asrwt>0</asrwt>
<pdfrwt beam="1">  1       21 0.42593687E-01 0.65950951E+03</pdfrwt>
<pdfrwt beam="2">0</pdfrwt>
<totfact> 0.49499955E+02</totfact>
</mgrwt>
</event>
<event>
 6    1  0.1347953E-004  0.6567571E+03  0.7818608E-02  0.9794182E-01
         21   -1    0    0  501  502  0.00000000000E+00  0.00000000000E+00  0.16460858221E+03  0.16460858221E+03  0.00000000000E+00 0.  1.
         13   -1    0    0    0    0 -0.00000000000E+00 -0.00000000000E+00 -0.10000000000E+04  0.10000000000E+04  0.00000000000E+00 0.  1.
    9000005    2    1    2  501    0  0.80253572544E+02 -0.41877540168E+02 -0.84867482530E+03  0.10731164340E+04  0.65048870665E+03 0.  0.
         13    1    3    3    0    0  0.25992271130E+02 -0.23488212803E+03 -0.83981882462E+03  0.87243387739E+03  0.00000000000E+00 0.  1.
          1    1    3    3  501    0  0.54261301414E+02  0.19300458786E+03 -0.88560006720E+01  0.20068255657E+03  0.00000000000E+00 0.  1.
         -1    1    1    2    0  502 -0.80253572544E+02  0.41877540168E+02  0.13283407509E+02  0.91492148251E+02  0.00000000000E+00 0. -1.
<mgrwt>
<rscale>  1 0.65675713E+03</rscale>
<asrwt>0</asrwt>
<pdfrwt beam="1">  1       21 0.25324397E-01 0.65675713E+03</pdfrwt>
<pdfrwt beam="2">0</pdfrwt>
<totfact> 0.14193052E+03</totfact>
</mgrwt>
</event>
<event>
 6    1  0.1347953E-004  0.6494832E+03  0.7818608E-02  0.9807749E-01
         21   -1    0    0  501  502  0.00000000000E+00  0.00000000000E+00  0.12455244797E+03  0.12455244797E+03  0.00000000000E+00 0.  1.
         13   -1    0    0    0    0 -0.00000000000E+00 -0.00000000000E+00 -0.10000000000E+04  0.10000000000E+04  0.00000000000E+00 0.  1.
    9000005    2    1    2  501    0 -0.25750175008E+02 -0.93283512741E+01 -0.88300457402E+03  0.10961412137E+04  0.64890553474E+03 0.  0.
         13    1    3    3    0    0 -0.61129215756E+00  0.31936652441E+03 -0.41386275565E+03  0.52275972598E+03  0.00000000000E+00 0.  1.
          3    1    3    3  501    0 -0.25138882851E+02 -0.32869487568E+03 -0.46914181837E+03  0.57338148774E+03  0.00000000000E+00 0.  1.
         -3    1    1    2    0  502  0.25750175008E+02  0.93283512741E+01  0.75570219934E+01  0.28411234254E+02  0.00000000000E+00 0. -1.
<mgrwt>
<rscale>  1 0.64948324E+03</rscale>
<asrwt>0</asrwt>
<pdfrwt beam="1">  1       21 0.19161915E-01 0.64948324E+03</pdfrwt>
<pdfrwt beam="2">0</pdfrwt>
<totfact> 0.24358976E+03</totfact>
</mgrwt>
</event>
<event>
 6    1  0.1347953E-004  0.6665163E+03  0.7818608E-02  0.9776272E-01
         21   -1    0    0  501  502  0.00000000000E+00  0.00000000000E+00  0.15823831807E+03  0.15823831807E+03  0.00000000000E+00 0.  1.
         13   -1    0    0    0    0 -0.00000000000E+00 -0.00000000000E+00 -0.10000000000E+04  0.10000000000E+04  0.00000000000E+00 0.  1.
    9000005    2    1    2  501    0  0.73588950360E+02  0.52902026268E+02 -0.83351167916E+03  0.10672327109E+04  0.66032566346E+03 0.  0.
         13    1    3    3    0    0 -0.85946613490E+02  0.27101785657E+02  0.91371895749E+02  0.12833608413E+03  0.00000000000E+00 0.  1.
          1    1    3    3  501    0  0.15953556385E+03  0.25800240611E+02 -0.92488357491E+03  0.93889662673E+03  0.00000000000E+00 0.  1.
         -3    1    1    2    0  502 -0.73588950360E+02 -0.52902026268E+02 -0.82500027752E+01  0.91005607212E+02  0.00000000000E+00 0. -1.
<mgrwt>
<rscale>  1 0.66651627E+03</rscale>
<asrwt>0</asrwt>
<pdfrwt beam="1">  1       21 0.24344356E-01 0.66651627E+03</pdfrwt>
<pdfrwt beam="2">0</pdfrwt>
<totfact> 0.15326681E+03</totfact>
</mgrwt>
</event>
<event>
 6    1  0.1347953E-004  0.8273905E+03  0.7818608E-02  0.9521195E-01
         21   -1    0    0  501  502  0.00000000000E+00  0.00000000000E+00  0.55209588437E+03  0.55209588437E+03  0.00000000000E+00 0. -1.
         13   -1    0    0    0    0 -0.00000000000E+00 -0.00000000000E+00 -0.10000000000E+04  0.10000000000E+04  0.00000000000E+00 0.  1.
    9000005    2    1    2  501    0 -0.32935520131E+03 -0.36710693659E+03 -0.61547978588E+03  0.10312082220E+04  0.66432874303E+03 0.  0.
         13    1    3    3    0    0 -0.38114050438E+03 -0.24287720437E+03 -0.72726139040E+03  0.85625145282E+03  0.00000000000E+00 0.  1.
          3    1    3    3  501    0  0.51785303068E+02 -0.12422973222E+03  0.11178160452E+03  0.17495676921E+03  0.00000000000E+00 0.  1.
         -3    1    1    2    0  502  0.32935520131E+03  0.36710693659E+03  0.16757567025E+03  0.52088766235E+03  0.00000000000E+00 0. -1.
<mgrwt>
<rscale>  1 0.82739049E+03</rscale>
<asrwt>0</asrwt>
<pdfrwt beam="1">  1       21 0.84937826E-01 0.82739049E+03</pdfrwt>
<pdfrwt beam="2">0</pdfrwt>
<totfact> 0.10513112E+02</totfact>
</mgrwt>
</event>
<event>
 6    1  0.1347953E-004  0.6647980E+03  0.7818608E-02  0.9779401E-01
         21   -1    0    0  501  502  0.00000000000E+00  0.00000000000E+00  0.15254618407E+03  0.15254618407E+03  0.00000000000E+00 0.  1.
         13   -1    0    0    0    0 -0.00000000000E+00 -0.00000000000E+00 -0.10000000000E+04  0.10000000000E+04  0.00000000000E+00 0.  1.
    9000005    2    1    2  501    0  0.14247756962E+02  0.10673048676E+03 -0.78258932087E+03  0.10268409809E+04  0.65601978594E+03 0.  0.
         13    1    3    3    0    0 -0.81772577143E+02 -0.11229005881E+03 -0.77523709947E+03  0.78758388257E+03  0.00000000000E+00 0.  1.
          1    1    3    3  501    0  0.96020334105E+02  0.21902054558E+03 -0.73522213947E+01  0.23925709834E+03  0.00000000000E+00 0.  1.
         -3    1    1    2    0  502 -0.14247756962E+02 -0.10673048676E+03 -0.64864495059E+02  0.12570520316E+03  0.00000000000E+00 0. -1.
<mgrwt>
<rscale>  1 0.66479798E+03</rscale>
<asrwt>0</asrwt>
<pdfrwt beam="1">  1       21 0.23468643E-01 0.66479798E+03</pdfrwt>
<pdfrwt beam="2">0</pdfrwt>
<totfact> 0.16464291E+03</totfact>
</mgrwt>
</event>
<event>
 6    1  0.1347953E-004  0.6533983E+03  0.7818608E-02  0.9800423E-01
         21   -1    0    0  501  502  0.00000000000E+00  0.00000000000E+00  0.15083700576E+03  0.15083700576E+03  0.00000000000E+00 0.  1.
         13   -1    0    0    0    0 -0.00000000000E+00 -0.00000000000E+00 -0.10000000000E+04  0.10000000000E+04  0.00000000000E+00 0.  1.
    9000005    2    1    2  501    0 -0.11379196493E+03 -0.62729043750E+01 -0.78006417494E+03  0.10175605733E+04  0.64338281199E+03 0.  0.
         13    1    3    3    0    0 -0.20260225882E+03 -0.22385759908E+03 -0.13446258166E+03  0.33051487986E+03  0.00000000000E+00 0.  1.
          1    1    3    3  501    0  0.88810293885E+02  0.21758469471E+03 -0.64560159328E+03  0.68704569347E+03  0.00000000000E+00 0.  1.
         -3    1    1    2    0  502  0.11379196493E+03  0.62729043750E+01 -0.69098819296E+02  0.13327643243E+03  0.00000000000E+00 0. -1.
<mgrwt>
<rscale>  1 0.65339835E+03</rscale>
<asrwt>0</asrwt>
<pdfrwt beam="1">  1       21 0.23205693E-01 0.65339835E+03</pdfrwt>
<pdfrwt beam="2">0</pdfrwt>
<totfact> 0.16838584E+03</totfact>
</mgrwt>
</event>
<event>
 6    1  0.1347953E-004  0.6683143E+03  0.7818608E-02  0.9773008E-01
         21   -1    0    0  501  502  0.00000000000E+00  0.00000000000E+00  0.23858991558E+03  0.23858991558E+03  0.00000000000E+00 0.  1.
         13   -1    0    0    0    0 -0.00000000000E+00 -0.00000000000E+00 -0.10000000000E+04  0.10000000000E+04  0.00000000000E+00 0.  1.
    9000005    2    1    2  501    0 -0.78679697701E+02  0.19986669170E+02 -0.87371960401E+03  0.11000136190E+04  0.66336570145E+03 0.  0.
         13    1    3    3    0    0 -0.30812454426E+03 -0.13854551105E+03 -0.26135144192E+03  0.42713015534E+03  0.00000000000E+00 0.  1.
          3    1    3    3  501    0  0.22944484656E+03  0.15853218022E+03 -0.61236816208E+03  0.67288346369E+03  0.00000000000E+00 0.  1.
         -1    1    1    2    0  502  0.78679697701E+02 -0.19986669170E+02  0.11230951958E+03  0.13857629655E+03  0.00000000000E+00 0. -1.
<mgrwt>
<rscale>  1 0.66831431E+03</rscale>
<asrwt>0</asrwt>
<pdfrwt beam="1">  1       21 0.36706140E-01 0.66831431E+03</pdfrwt>
<pdfrwt beam="2">0</pdfrwt>
<totfact> 0.67338940E+02</totfact>
</mgrwt>
</event>
<event>
 6    1  0.1347953E-004  0.7491122E+03  0.7818608E-02  0.9636744E-01
         21   -1    0    0  501  502  0.00000000000E+00  0.00000000000E+00  0.34422470439E+03  0.34422470439E+03  0.00000000000E+00 0. -1.
         13   -1    0    0    0    0 -0.00000000000E+00 -0.00000000000E+00 -0.10000000000E+04  0.10000000000E+04  0.00000000000E+00 0.  1.
    9000005    2    1    2  501    0 -0.95676242838E+01  0.19015560267E+02 -0.85907401050E+03  0.11398145812E+04  0.74880971757E+03 0.  0.
         13    1    3    3    0    0 -0.35687185970E+03 -0.11724542646E+03 -0.44953127978E+03  0.58581770695E+03  0.00000000000E+00 0.  1.
          1    1    3    3  501    0  0.34730423542E+03  0.13626098672E+03 -0.40954273072E+03  0.55399687430E+03  0.00000000000E+00 0.  1.
         -1    1    1    2    0  502  0.95676242838E+01 -0.19015560267E+02  0.20329871489E+03  0.20441012315E+03  0.00000000000E+00 0. -1.
<mgrwt>
<rscale>  1 0.74911222E+03</rscale>
<asrwt>0</asrwt>
<pdfrwt beam="1">  1       21 0.52957645E-01 0.74911222E+03</pdfrwt>
<pdfrwt beam="2">0</pdfrwt>
<totfact> 0.30881584E+02</totfact>
</mgrwt>
</event>
<event>
 6    1  0.1347953E-004  0.6513468E+03  0.7818608E-02  0.9804255E-01
         21   -1    0    0  501  502  0.00000000000E+00  0.00000000000E+00  0.32815864858E+03  0.32815864858E+03  0.00000000000E+00 0. -1.
         13   -1    0    0    0    0 -0.00000000000E+00 -0.00000000000E+00 -0.10000000000E+04  0.10000000000E+04  0.00000000000E+00 0.  1.
    9000005    2    1    2  501    0  0.90004663832E+02 -0.78661697514E+01 -0.88371947323E+03  0.10978218199E+04  0.64505032731E+03 0.  0.
         13    1    3    3    0    0 -0.25852280766E+03 -0.85060350350E+02 -0.24535644452E+03  0.36642746915E+03  0.00000000000E+00 0.  1.
          3    1    3    3  501    0  0.34852747149E+03  0.77194180598E+02 -0.63836302871E+03  0.73139435076E+03  0.00000000000E+00 0.  1.
         -3    1    1    2    0  502 -0.90004663832E+02  0.78661697514E+01  0.21187812182E+03  0.23033682867E+03  0.00000000000E+00 0. -1.
<mgrwt>
<rscale>  1 0.65134679E+03</rscale>
<asrwt>0</asrwt>
<pdfrwt beam="1">  1       21 0.50485944E-01 0.65134679E+03</pdfrwt>
<pdfrwt beam="2">0</pdfrwt>
<totfact> 0.34542643E+02</totfact>
</mgrwt>
</event>
<event>
 6    1  0.1347953E-004  0.6535791E+03  0.7818608E-02  0.9800086E-01
         21   -1    0    0  501  502  0.00000000000E+00  0.00000000000E+00  0.12826035424E+03  0.12826035424E+03  0.00000000000E+00 0.  1.
         13   -1    0    0    0    0 -0.00000000000E+00 -0.00000000000E+00 -0.10000000000E+04  0.10000000000E+04  0.00000000000E+00 0.  1.
    9000005    2    1    2  501    0  0.18701106369E+02  0.91839804609E+01 -0.88746217580E+03  0.11021591124E+04  0.65324690480E+03 0.  0.
         13    1    3    3    0    0  0.24580605537E+03  0.13810615872E+02 -0.73257378016E+02  0.25686181772E+03  0.00000000000E+00 0.  1.
          3    1    3    3  501    0 -0.22710494900E+03 -0.46266354110E+01 -0.81420479778E+03  0.84529729465E+03  0.00000000000E+00 0.  1.
         -1    1    1    2    0  502 -0.18701106369E+02 -0.91839804609E+01  0.15722530040E+02  0.26101241875E+02  0.00000000000E+00 0. -1.
<mgrwt>
<rscale>  1 0.65357907E+03</rscale>
<asrwt>0</asrwt>
<pdfrwt beam="1">  1       21 0.19732362E-01 0.65357907E+03</pdfrwt>
<pdfrwt beam="2">0</pdfrwt>
<totfact> 0.23026337E+03</totfact>
</mgrwt>
</event>
<event>
 6    1  0.1347953E-004  0.6596349E+03  0.7818608E-02  0.9788866E-01
         21   -1    0    0  501  502  0.00000000000E+00  0.00000000000E+00  0.15512146869E+03  0.15512146869E+03  0.00000000000E+00 0.  1.
         13   -1    0    0    0    0 -0.00000000000E+00 -0.00000000000E+00 -0.10000000000E+04  0.10000000000E+04  0.00000000000E+00 0.  1.
    9000005    2    1    2  501    0  0.47874608960E+01 -0.52084669768E+02 -0.87421053809E+03  0.10951539839E+04  0.65755794498E+03 0.  0.
         13    1    3    3    0    0  0.21290356030E+02  0.77443388342E+02 -0.94378730138E+03  0.94719862115E+03  0.00000000000E+00 0.  1.
          1    1    3    3  501    0 -0.16502895134E+02 -0.12952805811E+03  0.69576763292E+02  0.14795536278E+03  0.00000000000E+00 0.  1.
         -1    1    1    2    0  502 -0.47874608960E+01  0.52084669768E+02  0.29332006779E+02  0.59967484760E+02  0.00000000000E+00 0. -1.
<mgrwt>
<rscale>  1 0.65963489E+03</rscale>
<asrwt>0</asrwt>
<pdfrwt beam="1">  1       21 0.23864841E-01 0.65963489E+03</pdfrwt>
<pdfrwt beam="2">0</pdfrwt>
<totfact> 0.15939454E+03</totfact>
</mgrwt>
</event>
<event>
 6    1  0.1347953E-004  0.6509634E+03  0.7818608E-02  0.9804973E-01
         21   -1    0    0  501  502  0.00000000000E+00  0.00000000000E+00  0.13879467709E+03  0.13879467709E+03  0.00000000000E+00 0.  1.
         13   -1    0    0    0    0 -0.00000000000E+00 -0.00000000000E+00 -0.10000000000E+04  0.10000000000E+04  0.00000000000E+00 0.  1.
    9000005    2    1    2  501    0 -0.28126307329E+02  0.40658234834E+02 -0.87201036137E+03  0.10881890442E+04  0.64908331081E+03 0.  0.
         13    1    3    3    0    0  0.23767366543E+03 -0.15759266738E+03 -0.58013770941E+03  0.64643946502E+03  0.00000000000E+00 0.  1.
          1    1    3    3  501    0 -0.26579997276E+03  0.19825090222E+03 -0.29187265196E+03  0.44174957918E+03  0.00000000000E+00 0.  1.
         -3    1    1    2    0  502  0.28126307329E+02 -0.40658234834E+02  0.10805038460E+02  0.50605632887E+02  0.00000000000E+00 0. -1.
<mgrwt>
<rscale>  1 0.65096338E+03</rscale>
<asrwt>0</asrwt>
<pdfrwt beam="1">  1       21 0.21353027E-01 0.65096338E+03</pdfrwt>
<pdfrwt beam="2">0</pdfrwt>
<totfact> 0.19786443E+03</totfact>
</mgrwt>
</event>
<event>
 6    1  0.1347953E-004  0.6577433E+03  0.7818608E-02  0.9792357E-01
         21   -1    0    0  501  502  0.00000000000E+00  0.00000000000E+00  0.27890370400E+03  0.27890370400E+03  0.00000000000E+00 0.  1.
         13   -1    0    0    0    0 -0.00000000000E+00 -0.00000000000E+00 -0.10000000000E+04  0.10000000000E+04  0.00000000000E+00 0.  1.
    9000005    2    1    2  501    0 -0.26776195739E+02  0.11806269750E+03 -0.86767198747E+03  0.10887979478E+04  0.64650640225E+03 0.  0.
         13    1    3    3    0    0  0.40476577188E+02  0.15266831733E+03  0.51800076036E+02  0.16622038472E+03  0.00000000000E+00 0.  1.
          3    1    3    3  501    0 -0.67252772927E+02 -0.34605619829E+02 -0.91947206351E+03  0.92257756311E+03  0.00000000000E+00 0.  1.
         -1    1    1    2    0  502  0.26776195739E+02 -0.11806269750E+03  0.14657569147E+03  0.19010575617E+03  0.00000000000E+00 0. -1.
<mgrwt>
<rscale>  1 0.65774333E+03</rscale>
<asrwt>0</asrwt>
<pdfrwt beam="1">  1       21 0.42908261E-01 0.65774333E+03</pdfrwt>
<pdfrwt beam="2">0</pdfrwt>
<totfact> 0.48749470E+02</totfact>
</mgrwt>
</event>
<event>
 6    1  0.1347953E-004  0.6793279E+03  0.7818608E-02  0.9753252E-01
         21   -1    0    0  501  502  0.00000000000E+00  0.00000000000E+00  0.23533934144E+03  0.23533934144E+03  0.00000000000E+00 0. -1.
         13   -1    0    0    0    0 -0.00000000000E+00 -0.00000000000E+00 -0.10000000000E+04  0.10000000000E+04  0.00000000000E+00 0.  1.
    9000005    2    1    2  501    0 -0.13026210852E+03 -0.31827515042E+01 -0.84350170206E+03  0.10830427329E+04  0.66671440149E+03 0.  0.
         13    1    3    3    0    0 -0.19226583785E+03  0.28288919738E+03 -0.25795408804E+03  0.42840723842E+03  0.00000000000E+00 0.  1.
          3    1    3    3  501    0  0.62003729326E+02 -0.28607194888E+03 -0.58554761402E+03  0.65463549451E+03  0.00000000000E+00 0.  1.
         -3    1    1    2    0  502  0.13026210852E+03  0.31827515042E+01  0.78841043495E+02  0.15229660851E+03  0.00000000000E+00 0. -1.
<mgrwt>
<rscale>  1 0.67932793E+03</rscale>
<asrwt>0</asrwt>
<pdfrwt beam="1">  1       21 0.36206051E-01 0.67932793E+03</pdfrwt>
<pdfrwt beam="2">0</pdfrwt>
<totfact> 0.69205131E+02</totfact>
</mgrwt>
</event>
<event>
 6    1  0.1347953E-004  0.6362787E+03  0.7818608E-02  0.9832872E-01
         21   -1    0    0  501  502  0.00000000000E+00  0.00000000000E+00  0.49311617147E+03  0.49311617147E+03  0.00000000000E+00 0. -1.
         13   -1    0    0    0    0 -0.00000000000E+00 -0.00000000000E+00 -0.10000000000E+04  0.10000000000E+04  0.00000000000E+00 0.  1.
    9000005    2    1    2  501    0 -0.19530142076E+02  0.22623248830E+02 -0.89815976359E+03  0.11007004542E+04  0.63557634554E+03 0.  0.
         13    1    3    3    0    0  0.19764131057E+03  0.16841361189E+03 -0.76361572000E+03  0.80655700366E+03  0.00000000000E+00 0.  1.
          3    1    3    3  501    0 -0.21717145264E+03 -0.14579036306E+03 -0.13454404359E+03  0.29414345050E+03  0.00000000000E+00 0.  1.
         -1    1    1    2    0  502  0.19530142076E+02 -0.22623248830E+02  0.39127593507E+03  0.39241571732E+03  0.00000000000E+00 0. -1.
<mgrwt>
<rscale>  1 0.63627866E+03</rscale>
<asrwt>0</asrwt>
<pdfrwt beam="1">  1       21 0.75864024E-01 0.63627866E+03</pdfrwt>
<pdfrwt beam="2">0</pdfrwt>
<totfact> 0.13998105E+02</totfact>
</mgrwt>
</event>
<event>
 6    1  0.1347953E-004  0.6471510E+03  0.7818608E-02  0.9812140E-01
         21   -1    0    0  501  502  0.00000000000E+00  0.00000000000E+00  0.17490453069E+03  0.17490453069E+03  0.00000000000E+00 0. -1.
         13   -1    0    0    0    0 -0.00000000000E+00 -0.00000000000E+00 -0.10000000000E+04  0.10000000000E+04  0.00000000000E+00 0.  1.
    9000005    2    1    2  501    0  0.46877708153E+02  0.45215745837E+01 -0.88646070386E+03  0.10975504347E+04  0.64543505716E+03 0.  0.
         13    1    3    3    0    0 -0.52695380775E+02 -0.26704981483E+02 -0.96508524052E+03  0.96689165921E+03  0.00000000000E+00 0.  1.
          1    1    3    3  501    0  0.99573088928E+02  0.31226556066E+02  0.78624536655E+02  0.13065877547E+03  0.00000000000E+00 0.  1.
         -3    1    1    2    0  502 -0.46877708153E+02 -0.45215745837E+01  0.61365234554E+02  0.77354096015E+02  0.00000000000E+00 0. -1.
<mgrwt>
<rscale>  1 0.64715097E+03</rscale>
<asrwt>0</asrwt>
<pdfrwt beam="1">  1       21 0.26908389E-01 0.64715097E+03</pdfrwt>
<pdfrwt beam="2">0</pdfrwt>
<totfact> 0.12601288E+03</totfact>
</mgrwt>
</event>
<event>
 6    1  0.1347953E-004  0.6701557E+03  0.7818608E-02  0.9769677E-01
         21   -1    0    0  501  502  0.00000000000E+00  0.00000000000E+00  0.23290847778E+03  0.23290847778E+03  0.00000000000E+00 0. -1.
         13   -1    0    0    0    0 -0.00000000000E+00 -0.00000000000E+00 -0.10000000000E+04  0.10000000000E+04  0.00000000000E+00 0.  1.
    9000005    2    1    2  501    0  0.11752353737E+03 -0.10475483355E+03 -0.82701687410E+03  0.10644555028E+04  0.65140099046E+03 0.  0.
         13    1    3    3    0    0  0.30529790975E+02  0.27638627074E+03 -0.31332099381E+03  0.41891703708E+03  0.00000000000E+00 0.  1.
          1    1    3    3  501    0  0.86993746394E+02 -0.38114110428E+03 -0.51369588029E+03  0.64553846571E+03  0.00000000000E+00 0.  1.
         -3    1    1    2    0  502 -0.11752353737E+03  0.10475483355E+03  0.59925351883E+02  0.16845297500E+03  0.00000000000E+00 0. -1.
<mgrwt>
<rscale>  1 0.67015566E+03</rscale>
<asrwt>0</asrwt>
<pdfrwt beam="1">  1       21 0.35832072E-01 0.67015566E+03</pdfrwt>
<pdfrwt beam="2">0</pdfrwt>
<totfact> 0.70738842E+02</totfact>
</mgrwt>
</event>
<event>
 6    1  0.1347953E-004  0.6612426E+03  0.7818608E-02  0.9785909E-01
         21   -1    0    0  501  502  0.00000000000E+00  0.00000000000E+00  0.49220982331E+03  0.49220982331E+03  0.00000000000E+00 0. -1.
         13   -1    0    0    0    0 -0.00000000000E+00 -0.00000000000E+00 -0.10000000000E+04  0.10000000000E+04  0.00000000000E+00 0.  1.
    9000005    2    1    2  501    0  0.42570260061E+02 -0.29483871465E+02 -0.88874605730E+03  0.11077505814E+04  0.65921185555E+03 0.  0.
         13    1    3    3    0    0  0.26673145728E+03  0.18664873894E+03 -0.30478816555E+03  0.44595879620E+03  0.00000000000E+00 0.  1.
          1    1    3    3  501    0 -0.22416119721E+03 -0.21613261041E+03 -0.58395789175E+03  0.66179178520E+03  0.00000000000E+00 0.  1.
         -3    1    1    2    0  502 -0.42570260061E+02  0.29483871465E+02  0.38095588061E+03  0.38445924191E+03  0.00000000000E+00 0. -1.
<mgrwt>
<rscale>  1 0.66124262E+03</rscale>
<asrwt>0</asrwt>
<pdfrwt beam="1">  1       21 0.75724586E-01 0.66124262E+03</pdfrwt>
<pdfrwt beam="2">0</pdfrwt>
<totfact> 0.14013413E+02</totfact>
</mgrwt>
</event>
<event>
 6    1  0.1347953E-004  0.6611393E+03  0.7818608E-02  0.9786099E-01
         21   -1    0    0  501  502  0.00000000000E+00  0.00000000000E+00  0.14833167548E+03  0.14833167548E+03  0.00000000000E+00 0.  1.
         13   -1    0    0    0    0 -0.00000000000E+00 -0.00000000000E+00 -0.10000000000E+04  0.10000000000E+04  0.00000000000E+00 0.  1.
    9000005    2    1    2  501    0 -0.95726145211E+02  0.51567285893E+02 -0.74404540139E+03  0.99534352747E+03  0.65213687098E+03 0.  0.
         13    1    3    3    0    0  0.91966022012E+02  0.18824387295E+03 -0.73359534568E+03  0.76292570812E+03  0.00000000000E+00 0.  1.
          1    1    3    3  501    0 -0.18769216722E+03 -0.13667658706E+03 -0.10450055709E+02  0.23241781935E+03  0.00000000000E+00 0.  1.
         -3    1    1    2    0  502  0.95726145211E+02 -0.51567285893E+02 -0.10762292313E+03  0.15298814802E+03  0.00000000000E+00 0. -1.
<mgrwt>
<rscale>  1 0.66113930E+03</rscale>
<asrwt>0</asrwt>
<pdfrwt beam="1">  1       21 0.22820257E-01 0.66113930E+03</pdfrwt>
<pdfrwt beam="2">0</pdfrwt>
<totfact> 0.17389638E+03</totfact>
</mgrwt>
</event>
<event>
 6    1  0.1347953E-004  0.6479113E+03  0.7818608E-02  0.9810706E-01
         21   -1    0    0  501  502  0.00000000000E+00  0.00000000000E+00  0.15745479981E+03  0.15745479981E+03  0.00000000000E+00 0.  1.
         13   -1    0    0    0    0 -0.00000000000E+00 -0.00000000000E+00 -0.10000000000E+04  0.10000000000E+04  0.00000000000E+00 0.  1.
    9000005    2    1    2  501    0 -0.21358464761E+01  0.25784311743E+02 -0.89150724830E+03  0.11020772346E+04  0.64739452014E+03 0.  0.
         13    1    3    3    0    0 -0.91799186706E+02 -0.18458179341E+03 -0.27087537610E+02  0.20792129240E+03  0.00000000000E+00 0.  1.
          1    1    3    3  501    0  0.89663340229E+02  0.21036610515E+03 -0.86441971069E+03  0.89415594222E+03  0.00000000000E+00 0.  1.
         -3    1    1    2    0  502  0.21358464761E+01 -0.25784311743E+02  0.48962048104E+02  0.55377565194E+02  0.00000000000E+00 0. -1.
<mgrwt>
<rscale>  1 0.64791130E+03</rscale>
<asrwt>0</asrwt>
<pdfrwt beam="1">  1       21 0.24223815E-01 0.64791130E+03</pdfrwt>
<pdfrwt beam="2">0</pdfrwt>
<totfact> 0.15490484E+03</totfact>
</mgrwt>
</event>
<event>
 6    1  0.1347953E-004  0.6550374E+03  0.7818608E-02  0.9797373E-01
         21   -1    0    0  501  502  0.00000000000E+00  0.00000000000E+00  0.20937905638E+03  0.20937905638E+03  0.00000000000E+00 0.  1.
         13   -1    0    0    0    0 -0.00000000000E+00 -0.00000000000E+00 -0.10000000000E+04  0.10000000000E+04  0.00000000000E+00 0.  1.
    9000005    2    1    2  501    0  0.39229134029E+02  0.16666951602E+02 -0.88778098942E+03  0.11032810511E+04  0.65364920273E+03 0.  0.
         13    1    3    3    0    0 -0.12151990338E+03  0.17531003314E+03 -0.28966988619E+02  0.21526676722E+03  0.00000000000E+00 0.  1.
          1    1    3    3  501    0  0.16074903741E+03 -0.15864308154E+03 -0.85881400080E+03  0.88801428385E+03  0.00000000000E+00 0.  1.
         -1    1    1    2    0  502 -0.39229134029E+02 -0.16666951602E+02  0.97160045804E+02  0.10609800532E+03  0.00000000000E+00 0. -1.
<mgrwt>
<rscale>  1 0.65503740E+03</rscale>
<asrwt>0</asrwt>
<pdfrwt beam="1">  1       21 0.32212162E-01 0.65503740E+03</pdfrwt>
<pdfrwt beam="2">0</pdfrwt>
<totfact> 0.87926192E+02</totfact>
</mgrwt>
</event>
<event>
 6    1  0.1347953E-004  0.6424701E+03  0.7818608E-02  0.9821012E-01
         21   -1    0    0  501  502  0.00000000000E+00  0.00000000000E+00  0.16238460508E+03  0.16238460508E+03  0.00000000000E+00 0. -1.
         13   -1    0    0    0    0 -0.00000000000E+00 -0.00000000000E+00 -0.10000000000E+04  0.10000000000E+04  0.00000000000E+00 0.  1.
    9000005    2    1    2  501    0 -0.34551173744E+02 -0.25439717322E+02 -0.88810343439E+03  0.10961274926E+04  0.64103572992E+03 0.  0.
         13    1    3    3    0    0  0.94395564855E+02  0.86372784499E+02  0.53863229775E+02  0.13882373028E+03  0.00000000000E+00 0.  1.
          1    1    3    3  501    0 -0.12894673860E+03 -0.11181250182E+03 -0.94196666417E+03  0.95730376232E+03  0.00000000000E+00 0.  1.
         -1    1    1    2    0  502  0.34551173744E+02  0.25439717322E+02  0.50488039467E+02  0.66257112477E+02  0.00000000000E+00 0. -1.
<mgrwt>
<rscale>  1 0.64247005E+03</rscale>
<asrwt>0</asrwt>
<pdfrwt beam="1">  1       21 0.24982246E-01 0.64247005E+03</pdfrwt>
<pdfrwt beam="2">0</pdfrwt>
<totfact> 0.14587768E+03</totfact>
</mgrwt>
</event>
<event>
 6    1  0.1347953E-004  0.6468558E+03  0.7818608E-02  0.9812697E-01
         21   -1    0    0  501  502  0.00000000000E+00  0.00000000000E+00  0.14300216996E+03  0.14300216996E+03  0.00000000000E+00 0.  1.
         13   -1    0    0    0    0 -0.00000000000E+00 -0.00000000000E+00 -0.10000000000E+04  0.10000000000E+04  0.00000000000E+00 0.  1.
    9000005    2    1    2  501    0 -0.10818481941E+02 -0.57068674231E+02 -0.86936674356E+03  0.10836147710E+04  0.64424262825E+03 0.  0.
         13    1    3    3    0    0 -0.27746242780E+03  0.37385592849E+02 -0.16597057397E+03  0.32546783684E+03  0.00000000000E+00 0.  1.
          3    1    3    3  501    0  0.26664394586E+03 -0.94454267080E+02 -0.70339616959E+03  0.75814693419E+03  0.00000000000E+00 0.  1.
         -1    1    1    2    0  502  0.10818481941E+02  0.57068674231E+02  0.12368913521E+02  0.59387398930E+02  0.00000000000E+00 0. -1.
<mgrwt>
<rscale>  1 0.64685581E+03</rscale>
<asrwt>0</asrwt>
<pdfrwt beam="1">  1       21 0.22000333E-01 0.64685581E+03</pdfrwt>
<pdfrwt beam="2">0</pdfrwt>
<totfact> 0.18680310E+03</totfact>
</mgrwt>
</event>
<event>
 6    1  0.1347953E-004  0.6538663E+03  0.7818608E-02  0.9799551E-01
         21   -1    0    0  501  502  0.00000000000E+00  0.00000000000E+00  0.11745981708E+03  0.11745981708E+03  0.00000000000E+00 0.  1.
         13   -1    0    0    0    0 -0.00000000000E+00 -0.00000000000E+00 -0.10000000000E+04  0.10000000000E+04  0.00000000000E+00 0.  1.
    9000005    2    1    2  501    0  0.22178546771E+02 -0.11302612997E+01 -0.87811105191E+03  0.10948151129E+04  0.65348905610E+03 0.  0.
         13    1    3    3    0    0 -0.28602795549E+03 -0.73338332383E+02 -0.61868979232E+03  0.68554180138E+03  0.00000000000E+00 0.  1.
          3    1    3    3  501    0  0.30820650226E+03  0.72208071083E+02 -0.25942125959E+03  0.40927331148E+03  0.00000000000E+00 0.  1.
         -1    1    1    2    0  502 -0.22178546771E+02  0.11302612997E+01 -0.44291310153E+01  0.22644704216E+02  0.00000000000E+00 0. -1.
<mgrwt>
<rscale>  1 0.65386628E+03</rscale>
<asrwt>0</asrwt>
<pdfrwt beam="1">  1       21 0.18070741E-01 0.65386628E+03</pdfrwt>
<pdfrwt beam="2">0</pdfrwt>
<totfact> 0.27231521E+03</totfact>
</mgrwt>
</event>
<event>
 6    1  0.1347953E-004  0.6611789E+03  0.7818608E-02  0.9786026E-01
         21   -1    0    0  501  502  0.00000000000E+00  0.00000000000E+00  0.41985843881E+03  0.41985843881E+03  0.00000000000E+00 0. -1.
         13   -1    0    0    0    0 -0.00000000000E+00 -0.00000000000E+00 -0.10000000000E+04  0.10000000000E+04  0.00000000000E+00 0.  1.
    9000005    2    1    2  501    0  0.44227973079E+02  0.33249943019E+02 -0.88797365042E+03  0.11070929236E+04  0.65885951873E+03 0.  0.
         13    1    3    3    0    0 -0.23307138664E+03 -0.14049778079E+03 -0.17758802894E+03  0.32496062177E+03  0.00000000000E+00 0.  1.
          1    1    3    3  501    0  0.27729935972E+03  0.17374772381E+03 -0.71038562148E+03  0.78213230188E+03  0.00000000000E+00 0.  1.
         -1    1    1    2    0  502 -0.44227973079E+02 -0.33249943019E+02  0.30783208924E+03  0.31276551517E+03  0.00000000000E+00 0. -1.
<mgrwt>
<rscale>  1 0.66117890E+03</rscale>
<asrwt>0</asrwt>
<pdfrwt beam="1">  1       21 0.64593604E-01 0.66117890E+03</pdfrwt>
<pdfrwt beam="2">0</pdfrwt>
<totfact> 0.20108929E+02</totfact>
</mgrwt>
</event>
<event>
 6    1  0.1347953E-004  0.6608062E+03  0.7818608E-02  0.9786711E-01
         21   -1    0    0  501  502  0.00000000000E+00  0.00000000000E+00  0.23251657128E+03  0.23251657128E+03  0.00000000000E+00 0.  1.
         13   -1    0    0    0    0 -0.00000000000E+00 -0.00000000000E+00 -0.10000000000E+04  0.10000000000E+04  0.00000000000E+00 0.  1.
    9000005    2    1    2  501    0  0.90729195389E+02 -0.30624254079E+01 -0.87198840811E+03  0.10940880480E+04  0.65454083717E+03 0.  0.
         13    1    3    3    0    0  0.16428958292E+03 -0.29169718914E+03 -0.61707405283E+03  0.70203896180E+03  0.00000000000E+00 0.  1.
          3    1    3    3  501    0 -0.73560387535E+02  0.28863476373E+03 -0.25491435527E+03  0.39204908618E+03  0.00000000000E+00 0.  1.
         -1    1    1    2    0  502 -0.90729195389E+02  0.30624254079E+01  0.10450497939E+03  0.13842852330E+03  0.00000000000E+00 0. -1.
<mgrwt>
<rscale>  1 0.66080623E+03</rscale>
<asrwt>0</asrwt>
<pdfrwt beam="1">  1       21 0.35771779E-01 0.66080623E+03</pdfrwt>
<pdfrwt beam="2">0</pdfrwt>
<totfact> 0.71030907E+02</totfact>
</mgrwt>
</event>
<event>
 6    1  0.1347953E-004  0.6493721E+03  0.7818608E-02  0.9807958E-01
         21   -1    0    0  501  502  0.00000000000E+00  0.00000000000E+00  0.71366977235E+03  0.71366977235E+03  0.00000000000E+00 0. -1.
         13   -1    0    0    0    0 -0.00000000000E+00 -0.00000000000E+00 -0.10000000000E+04  0.10000000000E+04  0.00000000000E+00 0.  1.
    9000005    2    1    2  501    0 -0.33615250302E+02  0.14565372946E+02 -0.89396909798E+03  0.11049275183E+04  0.64833782659E+03 0.  0.
         13    1    3    3    0    0  0.27655641219E+03 -0.12962336213E+03 -0.37972007414E+03  0.48731201487E+03  0.00000000000E+00 0.  1.
          1    1    3    3  501    0 -0.31017166250E+03  0.14418873507E+03 -0.51424902384E+03  0.61761550342E+03  0.00000000000E+00 0.  1.
         -3    1    1    2    0  502  0.33615250302E+02 -0.14565372946E+02  0.60763887033E+03  0.60874225406E+03  0.00000000000E+00 0. -1.
<mgrwt>
<rscale>  1 0.64937206E+03</rscale>
<asrwt>0</asrwt>
<pdfrwt beam="1">  1       21 0.10979535E+00 0.64937206E+03</pdfrwt>
<pdfrwt beam="2">0</pdfrwt>
<totfact> 0.57508770E+01</totfact>
</mgrwt>
</event>
<event>
 6    1  0.1347953E-004  0.6822982E+03  0.7818608E-02  0.9747993E-01
         21   -1    0    0  501  502  0.00000000000E+00  0.00000000000E+00  0.34093462385E+03  0.34093462385E+03  0.00000000000E+00 0. -1.
         13   -1    0    0    0    0 -0.00000000000E+00 -0.00000000000E+00 -0.10000000000E+04  0.10000000000E+04  0.00000000000E+00 0.  1.
    9000005    2    1    2  501    0 -0.12365533900E+03  0.21744116950E+02 -0.86380283564E+03  0.11007661896E+04  0.67064701285E+03 0.  0.
         13    1    3    3    0    0  0.16852780850E+03  0.25678642563E+03 -0.40085712109E+03  0.50500229915E+03  0.00000000000E+00 0.  1.
          3    1    3    3  501    0 -0.29218314750E+03 -0.23504230868E+03 -0.46294571455E+03  0.59576389046E+03  0.00000000000E+00 0.  1.
         -3    1    1    2    0  502  0.12365533900E+03 -0.21744116950E+02  0.20473745949E+03  0.24016843424E+03  0.00000000000E+00 0. -1.
<mgrwt>
<rscale>  1 0.68229822E+03</rscale>
<asrwt>0</asrwt>
<pdfrwt beam="1">  1       21 0.52451479E-01 0.68229822E+03</pdfrwt>
<pdfrwt beam="2">0</pdfrwt>
<totfact> 0.31720471E+02</totfact>
</mgrwt>
</event>
<event>
 6    1  0.1347953E-004  0.6525181E+03  0.7818608E-02  0.9802066E-01
         21   -1    0    0  501  502  0.00000000000E+00  0.00000000000E+00  0.12470140777E+03  0.12470140777E+03  0.00000000000E+00 0.  1.
         13   -1    0    0    0    0 -0.00000000000E+00 -0.00000000000E+00 -0.10000000000E+04  0.10000000000E+04  0.00000000000E+00 0.  1.
    9000005    2    1    2  501    0 -0.24509072218E+02  0.46140659694E+02 -0.82811639328E+03  0.10543038581E+04  0.65042310025E+03 0.  0.
         13    1    3    3    0    0  0.29358241838E+03  0.27810972128E+02 -0.22050445790E+03  0.36822045367E+03  0.00000000000E+00 0.  1.
          1    1    3    3  501    0 -0.31809149060E+03  0.18329687567E+02 -0.60761193539E+03  0.68608340445E+03  0.00000000000E+00 0.  1.
         -1    1    1    2    0  502  0.24509072218E+02 -0.46140659694E+02 -0.47182198949E+02  0.70397549643E+02  0.00000000000E+00 0. -1.
<mgrwt>
<rscale>  1 0.65251810E+03</rscale>
<asrwt>0</asrwt>
<pdfrwt beam="1">  1       21 0.19184831E-01 0.65251810E+03</pdfrwt>
<pdfrwt beam="2">0</pdfrwt>
<totfact> 0.24300716E+03</totfact>
</mgrwt>
</event>
<event>
 6    1  0.1347953E-004  0.6513857E+03  0.7818608E-02  0.9804183E-01
         21   -1    0    0  501  502  0.00000000000E+00  0.00000000000E+00  0.13968798887E+03  0.13968798887E+03  0.00000000000E+00 0.  1.
         13   -1    0    0    0    0 -0.00000000000E+00 -0.00000000000E+00 -0.10000000000E+04  0.10000000000E+04  0.00000000000E+00 0.  1.
    9000005    2    1    2  501    0  0.37605419272E+00 -0.60017973351E+02 -0.86102975700E+03  0.10796645459E+04  0.64861467048E+03 0.  0.
         13    1    3    3    0    0  0.30987982574E+03 -0.26414700539E+02 -0.58975442674E+03  0.66673347498E+03  0.00000000000E+00 0.  1.
          3    1    3    3  501    0 -0.30950377155E+03 -0.33603272813E+02 -0.27127533027E+03  0.41293107095E+03  0.00000000000E+00 0.  1.
         -3    1    1    2    0  502 -0.37605419272E+00  0.60017973351E+02  0.71774587039E+00  0.60023442929E+02  0.00000000000E+00 0. -1.
<mgrwt>
<rscale>  1 0.65138567E+03</rscale>
<asrwt>0</asrwt>
<pdfrwt beam="1">  1       21 0.21490459E-01 0.65138567E+03</pdfrwt>
<pdfrwt beam="2">0</pdfrwt>
<totfact> 0.19542567E+03</totfact>
</mgrwt>
</event>
<event>
 6    1  0.1347953E-004  0.6510466E+03  0.7818608E-02  0.9804817E-01
         21   -1    0    0  501  502  0.00000000000E+00  0.00000000000E+00  0.14136766637E+03  0.14136766637E+03  0.00000000000E+00 0.  1.
         13   -1    0    0    0    0 -0.00000000000E+00 -0.00000000000E+00 -0.10000000000E+04  0.10000000000E+04  0.00000000000E+00 0.  1.
    9000005    2    1    2  501    0  0.25003003897E+02 -0.29628846508E+02 -0.88187969224E+03  0.10961630379E+04  0.64989121814E+03 0.  0.
         13    1    3    3    0    0  0.10708489129E+03  0.22295819339E+03 -0.76861200528E+03  0.80742921956E+03  0.00000000000E+00 0.  1.
          1    1    3    3  501    0 -0.82081887398E+02 -0.25258703990E+03 -0.11326768696E+03  0.28873381837E+03  0.00000000000E+00 0.  1.
         -1    1    1    2    0  502 -0.25003003897E+02  0.29628846508E+02  0.23247358608E+02  0.45204628431E+02  0.00000000000E+00 0. -1.
<mgrwt>
<rscale>  1 0.65104655E+03</rscale>
<asrwt>0</asrwt>
<pdfrwt beam="1">  1       21 0.21748871E-01 0.65104655E+03</pdfrwt>
<pdfrwt beam="2">0</pdfrwt>
<totfact> 0.19096733E+03</totfact>
</mgrwt>
</event>
<event>
 6    1  0.1347953E-004  0.6806702E+03  0.7818608E-02  0.9750872E-01
         21   -1    0    0  501  502  0.00000000000E+00  0.00000000000E+00  0.19203369716E+03  0.19203369716E+03  0.00000000000E+00 0. -1.
         13   -1    0    0    0    0 -0.00000000000E+00 -0.00000000000E+00 -0.10000000000E+04  0.10000000000E+04  0.00000000000E+00 0.  1.
    9000005    2    1    2  501    0 -0.98111852005E+02  0.10939025089E+03 -0.79187638680E+03  0.10442126977E+04  0.66462002941E+03 0.  0.
         13    1    3    3    0    0 -0.17486439594E+03  0.39595488750E+02  0.57683599095E+02  0.18834212832E+03  0.00000000000E+00 0.  1.
          1    1    3    3  501    0  0.76752543934E+02  0.69794762142E+02 -0.84955998590E+03  0.85587056934E+03  0.00000000000E+00 0.  1.
         -3    1    1    2    0  502  0.98111852005E+02 -0.10939025089E+03 -0.16089916041E+02  0.14782099950E+03  0.00000000000E+00 0. -1.
<mgrwt>
<rscale>  1 0.68067022E+03</rscale>
<asrwt>0</asrwt>
<pdfrwt beam="1">  1       21 0.29543645E-01 0.68067022E+03</pdfrwt>
<pdfrwt beam="2">0</pdfrwt>
<totfact> 0.10444448E+03</totfact>
</mgrwt>
</event>
<event>
 6    1  0.1347953E-004  0.6361126E+03  0.7818608E-02  0.9833193E-01
         21   -1    0    0  501  502  0.00000000000E+00  0.00000000000E+00  0.15051403724E+03  0.15051403724E+03  0.00000000000E+00 0.  1.
         13   -1    0    0    0    0 -0.00000000000E+00 -0.00000000000E+00 -0.10000000000E+04  0.10000000000E+04  0.00000000000E+00 0.  1.
    9000005    2    1    2  501    0 -0.50645616274E+02 -0.11542494570E+02 -0.88331588533E+03  0.10885247536E+04  0.63398815306E+03 0.  0.
         13    1    3    3    0    0 -0.27050986510E+03 -0.20769530755E+03 -0.45413512103E+03  0.56793629576E+03  0.00000000000E+00 0.  1.
          1    1    3    3  501    0  0.21986424883E+03  0.19615281298E+03 -0.42918076431E+03  0.52058845781E+03  0.00000000000E+00 0.  1.
         -3    1    1    2    0  502  0.50645616274E+02  0.11542494570E+02  0.33829922568E+02  0.61989283668E+02  0.00000000000E+00 0. -1.
<mgrwt>
<rscale>  1 0.63611256E+03</rscale>
<asrwt>0</asrwt>
<pdfrwt beam="1">  1       21 0.23156005E-01 0.63611256E+03</pdfrwt>
<pdfrwt beam="2">0</pdfrwt>
<totfact> 0.16922982E+03</totfact>
</mgrwt>
</event>
<event>
 6    1  0.1347953E-004  0.6677798E+03  0.7818608E-02  0.9773977E-01
         21   -1    0    0  501  502  0.00000000000E+00  0.00000000000E+00  0.18709600151E+03  0.18709600151E+03  0.00000000000E+00 0.  1.
         13   -1    0    0    0    0 -0.00000000000E+00 -0.00000000000E+00 -0.10000000000E+04  0.10000000000E+04  0.00000000000E+00 0.  1.
    9000005    2    1    2  501    0  0.71563405363E+02 -0.14612962651E+03 -0.76918194175E+03  0.10186121537E+04  0.64765320303E+03 0.  0.
         13    1    3    3    0    0 -0.15822159079E+03 -0.29985778357E+03 -0.61447472887E+03  0.70180335891E+03  0.00000000000E+00 0.  1.
          1    1    3    3  501    0  0.22978499615E+03  0.15372815706E+03 -0.15470721288E+03  0.31680879477E+03  0.00000000000E+00 0.  1.
         -3    1    1    2    0  502 -0.71563405363E+02  0.14612962651E+03 -0.43722056735E+02  0.16848384782E+03  0.00000000000E+00 0. -1.
<mgrwt>
<rscale>  1 0.66777980E+03</rscale>
<asrwt>0</asrwt>
<pdfrwt beam="1">  1       21 0.28783999E-01 0.66777980E+03</pdfrwt>
<pdfrwt beam="2">0</pdfrwt>
<totfact> 0.11010495E+03</totfact>
</mgrwt>
</event>
<event>
 6    1  0.1347953E-004  0.8015480E+03  0.7818608E-02  0.9557779E-01
         21   -1    0    0  501  502  0.00000000000E+00  0.00000000000E+00  0.41538962094E+03  0.41538962094E+03  0.00000000000E+00 0. -1.
         13   -1    0    0    0    0 -0.00000000000E+00 -0.00000000000E+00 -0.10000000000E+04  0.10000000000E+04  0.00000000000E+00 0.  1.
    9000005    2    1    2  501    0  0.47893347126E+03 -0.52870051747E+02 -0.42845851769E+03  0.90887613042E+03  0.64055179869E+03 0.  0.
         13    1    3    3    0    0  0.24209480978E+02  0.70797927686E+01 -0.44904759257E+03  0.44975544781E+03  0.00000000000E+00 0.  1.
          1    1    3    3  501    0  0.45472399029E+03 -0.59949844515E+02  0.20589074886E+02  0.45912068261E+03  0.00000000000E+00 0.  1.
         -1    1    1    2    0  502 -0.47893347126E+03  0.52870051747E+02 -0.15615186137E+03  0.50651349052E+03  0.00000000000E+00 0. -1.
<mgrwt>
<rscale>  1 0.80154795E+03</rscale>
<asrwt>0</asrwt>
<pdfrwt beam="1">  1       21 0.63906094E-01 0.80154795E+03</pdfrwt>
<pdfrwt beam="2">0</pdfrwt>
<totfact> 0.20308719E+02</totfact>
</mgrwt>
</event>
<event>
 6    1  0.1347953E-004  0.7154913E+03  0.7818608E-02  0.9691101E-01
         21   -1    0    0  501  502  0.00000000000E+00  0.00000000000E+00  0.28525964443E+03  0.28525964443E+03  0.00000000000E+00 0. -1.
         13   -1    0    0    0    0 -0.00000000000E+00 -0.00000000000E+00 -0.10000000000E+04  0.10000000000E+04  0.00000000000E+00 0.  1.
    9000005    2    1    2  501    0  0.25789489845E+03  0.80784810024E+02 -0.71987120461E+03  0.10149592749E+04  0.66248910499E+03 0.  0.
         13    1    3    3    0    0 -0.15576538232E+03  0.12506928204E+03 -0.19981923083E+02  0.20075969936E+03  0.00000000000E+00 0.  1.
          3    1    3    3  501    0  0.41366028077E+03 -0.44284472015E+02 -0.69988928153E+03  0.81419957550E+03  0.00000000000E+00 0.  1.
         -1    1    1    2    0  502 -0.25789489845E+03 -0.80784810024E+02  0.51308490400E+01  0.27030036957E+03  0.00000000000E+00 0. -1.
<mgrwt>
<rscale>  1 0.71549128E+03</rscale>
<asrwt>0</asrwt>
<pdfrwt beam="1">  1       21 0.43886098E-01 0.71549128E+03</pdfrwt>
<pdfrwt beam="2">0</pdfrwt>
<totfact> 0.46274520E+02</totfact>
</mgrwt>
</event>
<event>
 6    1  0.1347953E-004  0.5617909E+03  0.7818608E-02  0.9988011E-01
         21   -1    0    0  501  502  0.00000000000E+00  0.00000000000E+00  0.11067411000E+03  0.11067411000E+03  0.00000000000E+00 0.  1.
         13   -1    0    0    0    0 -0.00000000000E+00 -0.00000000000E+00 -0.10000000000E+04  0.10000000000E+04  0.00000000000E+00 0.  1.
    9000005    2    1    2  501    0  0.70671886897E+02 -0.36557118645E+02 -0.85714690384E+03  0.10248462260E+04  0.55612771346E+03 0.  0.
         13    1    3    3    0    0 -0.10513342490E+03 -0.61962613802E+02  0.25358573592E+02  0.12464132459E+03  0.00000000000E+00 0.  1.
          1    1    3    3  501    0  0.17580531180E+03  0.25405495156E+02 -0.88250547743E+03  0.90020490142E+03  0.00000000000E+00 0.  1.
         -1    1    1    2    0  502 -0.70671886897E+02  0.36557118645E+02 -0.32178986157E+02  0.85827883996E+02  0.00000000000E+00 0. -1.
<mgrwt>
<rscale>  1 0.56179086E+03</rscale>
<asrwt>0</asrwt>
<pdfrwt beam="1">  1       21 0.17026786E-01 0.56179086E+03</pdfrwt>
<pdfrwt beam="2">0</pdfrwt>
<totfact> 0.30568875E+03</totfact>
</mgrwt>
</event>
<event>
 6    1  0.1347953E-004  0.6266605E+03  0.7818608E-02  0.9851587E-01
         21   -1    0    0  501  502  0.00000000000E+00  0.00000000000E+00  0.30294229912E+03  0.30294229912E+03  0.00000000000E+00 0. -1.
         13   -1    0    0    0    0 -0.00000000000E+00 -0.00000000000E+00 -0.10000000000E+04  0.10000000000E+04  0.00000000000E+00 0.  1.
    9000005    2    1    2  501    0  0.20450848759E+03  0.85153022630E+01 -0.84383041789E+03  0.10510723678E+04  0.59228972322E+03 0.  0.
         13    1    3    3    0    0  0.28596582722E+03  0.19525187343E+03 -0.26086227381E+03  0.43353070746E+03  0.00000000000E+00 0.  1.
          3    1    3    3  501    0 -0.81457339623E+02 -0.18673657116E+03 -0.58296814407E+03  0.61754166029E+03  0.00000000000E+00 0.  1.
         -1    1    1    2    0  502 -0.20450848759E+03 -0.85153022630E+01  0.14677271701E+03  0.25186993137E+03  0.00000000000E+00 0. -1.
<mgrwt>
<rscale>  1 0.62666047E+03</rscale>
<asrwt>0</asrwt>
<pdfrwt beam="1">  1       21 0.46606506E-01 0.62666047E+03</pdfrwt>
<pdfrwt beam="2">0</pdfrwt>
<totfact> 0.41063792E+02</totfact>
</mgrwt>
</event>
<event>
 6    1  0.1347953E-004  0.6513725E+03  0.7818608E-02  0.9804207E-01
         21   -1    0    0  501  502  0.00000000000E+00  0.00000000000E+00  0.12984785376E+03  0.12984785376E+03  0.00000000000E+00 0.  1.
         13   -1    0    0    0    0 -0.00000000000E+00 -0.00000000000E+00 -0.10000000000E+04  0.10000000000E+04  0.00000000000E+00 0.  1.
    9000005    2    1    2  501    0 -0.55838868456E+02 -0.40700759413E+02 -0.77830489051E+03  0.10149111345E+04  0.64769713393E+03 0.  0.
         13    1    3    3    0    0  0.29224537134E+03 -0.45907151417E+02 -0.28213469669E+03  0.40879678411E+03  0.00000000000E+00 0.  1.
          3    1    3    3  501    0 -0.34808423980E+03  0.52063920041E+01 -0.49617019382E+03  0.60611435039E+03  0.00000000000E+00 0.  1.
         -3    1    1    2    0  502  0.55838868456E+02  0.40700759413E+02 -0.91847255738E+02  0.11493671926E+03  0.00000000000E+00 0. -1.
<mgrwt>
<rscale>  1 0.65137248E+03</rscale>
<asrwt>0</asrwt>
<pdfrwt beam="1">  1       21 0.19976592E-01 0.65137248E+03</pdfrwt>
<pdfrwt beam="2">0</pdfrwt>
<totfact> 0.22491773E+03</totfact>
</mgrwt>
</event>
<event>
 6    1  0.1347953E-004  0.6451099E+03  0.7818608E-02  0.9815999E-01
         21   -1    0    0  501  502  0.00000000000E+00  0.00000000000E+00  0.11278944092E+03  0.11278944092E+03  0.00000000000E+00 0.  1.
         13   -1    0    0    0    0 -0.00000000000E+00 -0.00000000000E+00 -0.10000000000E+04  0.10000000000E+04  0.00000000000E+00 0.  1.
    9000005    2    1    2  501    0 -0.12866561869E+01 -0.26472560380E+02 -0.84900525464E+03  0.10662910837E+04  0.64456520294E+03 0.  0.
         13    1    3    3    0    0  0.22403665634E+03 -0.74888035634E+02 -0.79531377440E+03  0.82965332580E+03  0.00000000000E+00 0.  1.
          3    1    3    3  501    0 -0.22532331253E+03  0.48415475254E+02 -0.53691480243E+02  0.23663775790E+03  0.00000000000E+00 0.  1.
         -3    1    1    2    0  502  0.12866561869E+01  0.26472560380E+02 -0.38205304436E+02  0.46498357221E+02  0.00000000000E+00 0. -1.
<mgrwt>
<rscale>  1 0.64510988E+03</rscale>
<asrwt>0</asrwt>
<pdfrwt beam="1">  1       21 0.17352221E-01 0.64510988E+03</pdfrwt>
<pdfrwt beam="2">0</pdfrwt>
<totfact> 0.29415949E+03</totfact>
</mgrwt>
</event>
<event>
 6    1  0.1347953E-004  0.6742746E+03  0.7818608E-02  0.9762266E-01
         21   -1    0    0  501  502  0.00000000000E+00  0.00000000000E+00  0.41270314296E+03  0.41270314296E+03  0.00000000000E+00 0. -1.
         13   -1    0    0    0    0 -0.00000000000E+00 -0.00000000000E+00 -0.10000000000E+04  0.10000000000E+04  0.00000000000E+00 0.  1.
    9000005    2    1    2  501    0  0.17330941436E+03  0.33281869470E+02 -0.85696109037E+03  0.10904258793E+04  0.65077065996E+03 0.  0.
         13    1    3    3    0    0  0.21643288834E+03 -0.27156841588E+03 -0.32408298176E+03  0.47499724076E+03  0.00000000000E+00 0.  1.
          1    1    3    3  501    0 -0.43123473980E+02  0.30485028535E+03 -0.53287810861E+03  0.61542863853E+03  0.00000000000E+00 0.  1.
         -1    1    1    2    0  502 -0.17330941436E+03 -0.33281869470E+02  0.26966423333E+03  0.32227726367E+03  0.00000000000E+00 0. -1.
<mgrwt>
<rscale>  1 0.67427464E+03</rscale>
<asrwt>0</asrwt>
<pdfrwt beam="1">  1       21 0.63492789E-01 0.67427464E+03</pdfrwt>
<pdfrwt beam="2">0</pdfrwt>
<totfact> 0.20866666E+02</totfact>
</mgrwt>
</event>
<event>
 6    1  0.1347953E-004  0.6400451E+03  0.7818608E-02  0.9825640E-01
         21   -1    0    0  501  502  0.00000000000E+00  0.00000000000E+00  0.21123989777E+03  0.21123989777E+03  0.00000000000E+00 0. -1.
         13   -1    0    0    0    0 -0.00000000000E+00 -0.00000000000E+00 -0.10000000000E+04  0.10000000000E+04  0.00000000000E+00 0.  1.
    9000005    2    1    2  501    0  0.12611613683E+02  0.27390654694E+02 -0.89527772063E+03  0.11005362222E+04  0.63933440270E+03 0.  0.
         13    1    3    3    0    0  0.12005353596E+03 -0.27972356620E+03 -0.33502936940E+03  0.45266190844E+03  0.00000000000E+00 0.  1.
          1    1    3    3  501    0 -0.10744192227E+03  0.30711422090E+03 -0.56024835122E+03  0.64787431373E+03  0.00000000000E+00 0.  1.
         -3    1    1    2    0  502 -0.12611613683E+02 -0.27390654694E+02  0.10651761840E+03  0.11070367561E+03  0.00000000000E+00 0. -1.
<mgrwt>
<rscale>  1 0.64004514E+03</rscale>
<asrwt>0</asrwt>
<pdfrwt beam="1">  1       21 0.32498445E-01 0.64004514E+03</pdfrwt>
<pdfrwt beam="2">0</pdfrwt>
<totfact> 0.86456825E+02</totfact>
</mgrwt>
</event>
<event>
 6    1  0.1347953E-004  0.6524755E+03  0.7818608E-02  0.9802145E-01
         21   -1    0    0  501  502  0.00000000000E+00  0.00000000000E+00  0.16768435310E+03  0.16768435310E+03  0.00000000000E+00 0. -1.
         13   -1    0    0    0    0 -0.00000000000E+00 -0.00000000000E+00 -0.10000000000E+04  0.10000000000E+04  0.00000000000E+00 0.  1.
    9000005    2    1    2  501    0 -0.32254130402E+02  0.35048753619E+02 -0.88314215530E+03  0.10980274940E+04  0.65073463650E+03 0.  0.
         13    1    3    3    0    0  0.91858130479E+02  0.25048357147E+03 -0.78779150500E+03  0.83174238263E+03  0.00000000000E+00 0.  1.
          3    1    3    3  501    0 -0.12411226088E+03 -0.21543481785E+03 -0.95350650299E+02  0.26628511141E+03  0.00000000000E+00 0.  1.
         -1    1    1    2    0  502  0.32254130402E+02 -0.35048753619E+02  0.50826508396E+02  0.69656859058E+02  0.00000000000E+00 0. -1.
<mgrwt>
<rscale>  1 0.65247553E+03</rscale>
<asrwt>0</asrwt>
<pdfrwt beam="1">  1       21 0.25797592E-01 0.65247553E+03</pdfrwt>
<pdfrwt beam="2">0</pdfrwt>
<totfact> 0.13689115E+03</totfact>
</mgrwt>
</event>
<event>
 6    1  0.1347953E-004  0.6402803E+03  0.7818608E-02  0.9825190E-01
         21   -1    0    0  501  502  0.00000000000E+00  0.00000000000E+00  0.26538320309E+03  0.26538320309E+03  0.00000000000E+00 0. -1.
         13   -1    0    0    0    0 -0.00000000000E+00 -0.00000000000E+00 -0.10000000000E+04  0.10000000000E+04  0.00000000000E+00 0.  1.
    9000005    2    1    2  501    0 -0.12576974196E+02 -0.38881636957E+02 -0.89467936620E+03  0.11001863870E+04  0.63897492577E+03 0.  0.
         13    1    3    3    0    0  0.15416378175E+03 -0.29177146878E+03 -0.38287978988E+03  0.50546413829E+03  0.00000000000E+00 0.  1.
          1    1    3    3  501    0 -0.16674075595E+03  0.25288983182E+03 -0.51179957633E+03  0.59472224867E+03  0.00000000000E+00 0.  1.
         -1    1    1    2    0  502  0.12576974196E+02  0.38881636957E+02  0.16006256930E+03  0.16519681614E+03  0.00000000000E+00 0. -1.
<mgrwt>
<rscale>  1 0.64028034E+03</rscale>
<asrwt>0</asrwt>
<pdfrwt beam="1">  1       21 0.40828184E-01 0.64028034E+03</pdfrwt>
<pdfrwt beam="2">0</pdfrwt>
<totfact> 0.54162921E+02</totfact>
</mgrwt>
</event>
<event>
 6    1  0.1347953E-004  0.6603557E+03  0.7818608E-02  0.9787539E-01
         21   -1    0    0  501  502  0.00000000000E+00  0.00000000000E+00  0.15772512316E+03  0.15772512316E+03  0.00000000000E+00 0.  1.
         13   -1    0    0    0    0 -0.00000000000E+00 -0.00000000000E+00 -0.10000000000E+04  0.10000000000E+04  0.00000000000E+00 0.  1.
    9000005    2    1    2  501    0 -0.62609012211E+02  0.71135016897E+02 -0.83228767598E+03  0.10624370168E+04  0.65352089482E+03 0.  0.
         13    1    3    3    0    0  0.12460258542E+03  0.32186536713E+03 -0.48064422087E+03  0.59172796614E+03  0.00000000000E+00 0.  1.
          1    1    3    3  501    0 -0.18721159763E+03 -0.25073035024E+03 -0.35164345511E+03  0.47070905063E+03  0.00000000000E+00 0.  1.
         -3    1    1    2    0  502  0.62609012211E+02 -0.71135016897E+02 -0.99872008610E+01  0.95288106393E+02  0.00000000000E+00 0. -1.
<mgrwt>
<rscale>  1 0.66035569E+03</rscale>
<asrwt>0</asrwt>
<pdfrwt beam="1">  1       21 0.24265403E-01 0.66035569E+03</pdfrwt>
<pdfrwt beam="2">0</pdfrwt>
<totfact> 0.15429041E+03</totfact>
</mgrwt>
</event>
<event>
 6    1  0.1347953E-004  0.6551006E+03  0.7818608E-02  0.9797255E-01
         21   -1    0    0  501  502  0.00000000000E+00  0.00000000000E+00  0.18173277883E+03  0.18173277883E+03  0.00000000000E+00 0.  1.
         13   -1    0    0    0    0 -0.00000000000E+00 -0.00000000000E+00 -0.10000000000E+04  0.10000000000E+04  0.00000000000E+00 0.  1.
    9000005    2    1    2  501    0  0.28175456626E+02  0.55313379502E+02 -0.87808115467E+03  0.10955287595E+04  0.65215283670E+03 0.  0.
         13    1    3    3    0    0  0.29563610343E+03  0.19411613016E+03 -0.46462631203E+03  0.58391727793E+03  0.00000000000E+00 0.  1.
          1    1    3    3  501    0 -0.26746064680E+03 -0.13880275065E+03 -0.41345484263E+03  0.51161148157E+03  0.00000000000E+00 0.  1.
         -1    1    1    2    0  502 -0.28175456626E+02 -0.55313379502E+02  0.59813933501E+02  0.86204019331E+02  0.00000000000E+00 0. -1.
<mgrwt>
<rscale>  1 0.65510056E+03</rscale>
<asrwt>0</asrwt>
<pdfrwt beam="1">  1       21 0.27958888E-01 0.65510056E+03</pdfrwt>
<pdfrwt beam="2">0</pdfrwt>
<totfact> 0.11675192E+03</totfact>
</mgrwt>
</event>
<event>
 6    1  0.1347953E-004  0.6545132E+03  0.7818608E-02  0.9798347E-01
         21   -1    0    0  501  502  0.00000000000E+00  0.00000000000E+00  0.12860681042E+03  0.12860681042E+03  0.00000000000E+00 0.  1.
         13   -1    0    0    0    0 -0.00000000000E+00 -0.00000000000E+00 -0.10000000000E+04  0.10000000000E+04  0.00000000000E+00 0.  1.
    9000005    2    1    2  501    0 -0.25661191662E+02  0.33027196848E+02 -0.86734237851E+03  0.10865865586E+04  0.65317551651E+03 0.  0.
         13    1    3    3    0    0 -0.16036848424E+03 -0.34542608908E+02  0.38326922926E+02  0.16846422644E+03  0.00000000000E+00 0.  1.
          3    1    3    3  501    0  0.13470729258E+03  0.67569805756E+02 -0.90566930144E+03  0.91812233220E+03  0.00000000000E+00 0.  1.
         -3    1    1    2    0  502  0.25661191662E+02 -0.33027196848E+02 -0.40508110679E+01  0.42020251778E+02  0.00000000000E+00 0. -1.
<mgrwt>
<rscale>  1 0.65451321E+03</rscale>
<asrwt>0</asrwt>
<pdfrwt beam="1">  1       21 0.19785663E-01 0.65451321E+03</pdfrwt>
<pdfrwt beam="2">0</pdfrwt>
<totfact> 0.22906835E+03</totfact>
</mgrwt>
</event>
<event>
 6    1  0.1347953E-004  0.6504895E+03  0.7818608E-02  0.9805861E-01
         21   -1    0    0  501  502  0.00000000000E+00  0.00000000000E+00  0.23657926242E+03  0.23657926242E+03  0.00000000000E+00 0. -1.
         13   -1    0    0    0    0 -0.00000000000E+00 -0.00000000000E+00 -0.10000000000E+04  0.10000000000E+04  0.00000000000E+00 0.  1.
    9000005    2    1    2  501    0 -0.13772620622E+02 -0.16689775750E+02 -0.89322538536E+03  0.11049833648E+04  0.65012953608E+03 0.  0.
         13    1    3    3    0    0  0.28374612941E+03  0.13743063978E+03 -0.44470601910E+03  0.54512612313E+03  0.00000000000E+00 0.  1.
          1    1    3    3  501    0 -0.29751875003E+03 -0.15412041553E+03 -0.44851936626E+03  0.55985724164E+03  0.00000000000E+00 0.  1.
         -3    1    1    2    0  502  0.13772620622E+02  0.16689775750E+02  0.12980464778E+03  0.13159589765E+03  0.00000000000E+00 0. -1.
<mgrwt>
<rscale>  1 0.65048954E+03</rscale>
<asrwt>0</asrwt>
<pdfrwt beam="1">  1       21 0.36396809E-01 0.65048954E+03</pdfrwt>
<pdfrwt beam="2">0</pdfrwt>
<totfact> 0.68608403E+02</totfact>
</mgrwt>
</event>
<event>
 6    1  0.1347953E-004  0.6674128E+03  0.7818608E-02  0.9774643E-01
         21   -1    0    0  501  502  0.00000000000E+00  0.00000000000E+00  0.19390700129E+03  0.19390700129E+03  0.00000000000E+00 0. -1.
         13   -1    0    0    0    0 -0.00000000000E+00 -0.00000000000E+00 -0.10000000000E+04  0.10000000000E+04  0.00000000000E+00 0.  1.
    9000005    2    1    2  501    0  0.68114645983E+02  0.52431333765E+02 -0.86289011983E+03  0.10908800013E+04  0.66185434092E+03 0.  0.
         13    1    3    3    0    0  0.30331482105E+03  0.13630268684E+03 -0.74271653589E+03  0.81376050272E+03  0.00000000000E+00 0.  1.
          1    1    3    3  501    0 -0.23520017507E+03 -0.83871353080E+02 -0.12017358394E+03  0.27711949859E+03  0.00000000000E+00 0.  1.
         -1    1    1    2    0  502 -0.68114645983E+02 -0.52431333765E+02  0.56797121125E+02  0.10302699998E+03  0.00000000000E+00 0. -1.
<mgrwt>
<rscale>  1 0.66741278E+03</rscale>
<asrwt>0</asrwt>
<pdfrwt beam="1">  1       21 0.29831845E-01 0.66741278E+03</pdfrwt>
<pdfrwt beam="2">0</pdfrwt>
<totfact> 0.10251702E+03</totfact>
</mgrwt>
</event>
<event>
 6    1  0.1347953E-004  0.9229982E+03  0.7818608E-02  0.9397281E-01
         21   -1    0    0  501  502  0.00000000000E+00  0.00000000000E+00  0.76282786940E+03  0.76282786940E+03  0.00000000000E+00 0. -1.
         13   -1    0    0    0    0 -0.00000000000E+00 -0.00000000000E+00 -0.10000000000E+04  0.10000000000E+04  0.00000000000E+00 0.  1.
    9000005    2    1    2  501    0  0.55519943948E+03 -0.34406061109E+03 -0.51051318619E+03  0.10547745844E+04  0.65215150768E+03 0.  0.
         13    1    3    3    0    0  0.60977286366E+03 -0.19181334496E+03 -0.59413432548E+03  0.87270321489E+03  0.00000000000E+00 0.  1.
          3    1    3    3  501    0 -0.54573424184E+02 -0.15224726613E+03  0.83621139281E+02  0.18207136954E+03  0.00000000000E+00 0.  1.
         -1    1    1    2    0  502 -0.55519943948E+03  0.34406061109E+03  0.27334105560E+03  0.70805328498E+03  0.00000000000E+00 0. -1.
<mgrwt>
<rscale>  1 0.92299822E+03</rscale>
<asrwt>0</asrwt>
<pdfrwt beam="1">  1       21 0.11735813E+00 0.92299822E+03</pdfrwt>
<pdfrwt beam="2">0</pdfrwt>
<totfact> 0.46835285E+01</totfact>
</mgrwt>
</event>
<event>
 6    1  0.1347953E-004  0.6507498E+03  0.7818608E-02  0.9805373E-01
         21   -1    0    0  501  502  0.00000000000E+00  0.00000000000E+00  0.44375905757E+03  0.44375905757E+03  0.00000000000E+00 0. -1.
         13   -1    0    0    0    0 -0.00000000000E+00 -0.00000000000E+00 -0.10000000000E+04  0.10000000000E+04  0.00000000000E+00 0.  1.
    9000005    2    1    2  501    0 -0.10549136709E+02  0.20865967713E+02 -0.89368381676E+03  0.11055071303E+04  0.65032959167E+03 0.  0.
         13    1    3    3    0    0 -0.10750226955E+03  0.15630482386E+03  0.67228094003E+01  0.18982395024E+03  0.00000000000E+00 0.  1.
          1    1    3    3  501    0  0.96953132842E+02 -0.13543885614E+03 -0.90040662616E+03  0.91568318001E+03  0.00000000000E+00 0.  1.
         -3    1    1    2    0  502  0.10549136709E+02 -0.20865967713E+02  0.33744287434E+03  0.33825192732E+03  0.00000000000E+00 0. -1.
<mgrwt>
<rscale>  1 0.65074976E+03</rscale>
<asrwt>0</asrwt>
<pdfrwt beam="1">  1       21 0.68270622E-01 0.65074976E+03</pdfrwt>
<pdfrwt beam="2">0</pdfrwt>
<totfact> 0.17775475E+02</totfact>
</mgrwt>
</event>
<event>
 6    1  0.1347953E-004  0.6437036E+03  0.7818608E-02  0.9818666E-01
         21   -1    0    0  501  502  0.00000000000E+00  0.00000000000E+00  0.12295382111E+03  0.12295382111E+03  0.00000000000E+00 0.  1.
         13   -1    0    0    0    0 -0.00000000000E+00 -0.00000000000E+00 -0.10000000000E+04  0.10000000000E+04  0.00000000000E+00 0.  1.
    9000005    2    1    2  501    0  0.24723783946E+02 -0.35295394634E+02 -0.86496018919E+03  0.10781977989E+04  0.64225955371E+03 0.  0.
         13    1    3    3    0    0 -0.28250972557E+03 -0.11867037021E+03 -0.29492851629E+03  0.42529663945E+03  0.00000000000E+00 0.  1.
          1    1    3    3  501    0  0.30723350952E+03  0.83374975576E+02 -0.57003167290E+03  0.65290115947E+03  0.00000000000E+00 0.  1.
         -1    1    1    2    0  502 -0.24723783946E+02  0.35295394634E+02 -0.12085989707E+02  0.44756022189E+02  0.00000000000E+00 0. -1.
<mgrwt>
<rscale>  1 0.64370363E+03</rscale>
<asrwt>0</asrwt>
<pdfrwt beam="1">  1       21 0.18915972E-01 0.64370363E+03</pdfrwt>
<pdfrwt beam="2">0</pdfrwt>
<totfact> 0.24972306E+03</totfact>
</mgrwt>
</event>
<event>
 6    1  0.1347953E-004  0.6497337E+03  0.7818608E-02  0.9807279E-01
         21   -1    0    0  501  502  0.00000000000E+00  0.00000000000E+00  0.12604279400E+03  0.12604279400E+03  0.00000000000E+00 0.  1.
         13   -1    0    0    0    0 -0.00000000000E+00 -0.00000000000E+00 -0.10000000000E+04  0.10000000000E+04  0.00000000000E+00 0.  1.
    9000005    2    1    2  501    0 -0.36403796715E+02  0.18941303224E+02 -0.86850574166E+03  0.10846455979E+04  0.64843645820E+03 0.  0.
         13    1    3    3    0    0  0.23946433530E+03 -0.14138485110E+03 -0.62235724277E+03  0.68166075259E+03  0.00000000000E+00 0.  1.
          3    1    3    3  501    0 -0.27586813202E+03  0.16032615433E+03 -0.24614849890E+03  0.40298484529E+03  0.00000000000E+00 0.  1.
         -3    1    1    2    0  502  0.36403796715E+02 -0.18941303224E+02 -0.54514643345E+01  0.41397196119E+02  0.00000000000E+00 0. -1.
<mgrwt>
<rscale>  1 0.64973368E+03</rscale>
<asrwt>0</asrwt>
<pdfrwt beam="1">  1       21 0.19391199E-01 0.64973368E+03</pdfrwt>
<pdfrwt beam="2">0</pdfrwt>
<totfact> 0.23811312E+03</totfact>
</mgrwt>
</event>
<event>
 6    1  0.1347953E-004  0.8099897E+03  0.7818608E-02  0.9545669E-01
         21   -1    0    0  501  502  0.00000000000E+00  0.00000000000E+00  0.64781813292E+03  0.64781813292E+03  0.00000000000E+00 0. -1.
         13   -1    0    0    0    0 -0.00000000000E+00 -0.00000000000E+00 -0.10000000000E+04  0.10000000000E+04  0.00000000000E+00 0.  1.
    9000005    2    1    2  501    0  0.12304970919E+03  0.43340671018E+03 -0.70636972199E+03  0.10747285728E+04  0.67312756121E+03 0.  0.
         13    1    3    3    0    0  0.12225682727E+03  0.57549862005E+03 -0.33483544303E+03  0.67694916161E+03  0.00000000000E+00 0.  1.
          3    1    3    3  501    0  0.79288191808E+00 -0.14209190987E+03 -0.37153427896E+03  0.39777941118E+03  0.00000000000E+00 0.  1.
         -3    1    1    2    0  502 -0.12304970919E+03 -0.43340671018E+03  0.35418785491E+03  0.57308956013E+03  0.00000000000E+00 0. -1.
<mgrwt>
<rscale>  1 0.80998970E+03</rscale>
<asrwt>0</asrwt>
<pdfrwt beam="1">  1       21 0.99664325E-01 0.80998970E+03</pdfrwt>
<pdfrwt beam="2">0</pdfrwt>
<totfact> 0.71587828E+01</totfact>
</mgrwt>
</event>
<event>
 6    1  0.1347953E-004  0.6480889E+03  0.7818608E-02  0.9810372E-01
         21   -1    0    0  501  502  0.00000000000E+00  0.00000000000E+00  0.33978955857E+03  0.33978955857E+03  0.00000000000E+00 0. -1.
         13   -1    0    0    0    0 -0.00000000000E+00 -0.00000000000E+00 -0.10000000000E+04  0.10000000000E+04  0.00000000000E+00 0.  1.
    9000005    2    1    2  501    0  0.81851504851E+01  0.71183093286E+02 -0.88893632362E+03  0.11001031830E+04  0.64411582521E+03 0.  0.
         13    1    3    3    0    0  0.11139448488E+03 -0.25872238814E+03 -0.53932549815E+03  0.60845542017E+03  0.00000000000E+00 0.  1.
          3    1    3    3  501    0 -0.10320933439E+03  0.32990548143E+03 -0.34961082548E+03  0.49164776281E+03  0.00000000000E+00 0.  1.
         -1    1    1    2    0  502 -0.81851504851E+01 -0.71183093286E+02  0.22872588220E+03  0.23968637560E+03  0.00000000000E+00 0. -1.
<mgrwt>
<rscale>  1 0.64808890E+03</rscale>
<asrwt>0</asrwt>
<pdfrwt beam="1">  1       21 0.52275315E-01 0.64808890E+03</pdfrwt>
<pdfrwt beam="2">0</pdfrwt>
<totfact> 0.32057617E+02</totfact>
</mgrwt>
</event>
<event>
 6    1  0.1347953E-004  0.6613854E+03  0.7818608E-02  0.9785647E-01
         21   -1    0    0  501  502  0.00000000000E+00  0.00000000000E+00  0.14655847997E+03  0.14655847997E+03  0.00000000000E+00 0.  1.
         13   -1    0    0    0    0 -0.00000000000E+00 -0.00000000000E+00 -0.10000000000E+04  0.10000000000E+04  0.00000000000E+00 0.  1.
    9000005    2    1    2  501    0  0.26336742524E+02 -0.31718545016E+02 -0.87749269631E+03  0.10988285189E+04  0.66009922869E+03 0.  0.
         13    1    3    3    0    0  0.18924223588E+03 -0.25732501941E+03 -0.22862687972E+03  0.39280916433E+03  0.00000000000E+00 0.  1.
          1    1    3    3  501    0 -0.16290549335E+03  0.22560647439E+03 -0.64886581660E+03  0.70601935455E+03  0.00000000000E+00 0.  1.
         -1    1    1    2    0  502 -0.26336742524E+02  0.31718545016E+02  0.24051176279E+02  0.47729961084E+02  0.00000000000E+00 0. -1.
<mgrwt>
<rscale>  1 0.66138543E+03</rscale>
<asrwt>0</asrwt>
<pdfrwt beam="1">  1       21 0.22547458E-01 0.66138543E+03</pdfrwt>
<pdfrwt beam="2">0</pdfrwt>
<totfact> 0.17800281E+03</totfact>
</mgrwt>
</event>
<event>
 6    1  0.1347953E-004  0.6482899E+03  0.7818608E-02  0.9809993E-01
         21   -1    0    0  501  502  0.00000000000E+00  0.00000000000E+00  0.12308728214E+03  0.12308728214E+03  0.00000000000E+00 0.  1.
         13   -1    0    0    0    0 -0.00000000000E+00 -0.00000000000E+00 -0.10000000000E+04  0.10000000000E+04  0.00000000000E+00 0.  1.
    9000005    2    1    2  501    0 -0.15580730995E+02  0.37008152381E+02 -0.86544019648E+03  0.10813262804E+04  0.64704515178E+03 0.  0.
         13    1    3    3    0    0 -0.80931505623E+02  0.19257528006E+03 -0.97069075675E+01  0.20911568843E+03  0.00000000000E+00 0.  1.
          3    1    3    3  501    0  0.65350774628E+02 -0.15556712768E+03 -0.85573328891E+03  0.87221059195E+03  0.00000000000E+00 0.  1.
         -1    1    1    2    0  502  0.15580730995E+02 -0.37008152381E+02 -0.11472521389E+02  0.41761001760E+02  0.00000000000E+00 0. -1.
<mgrwt>
<rscale>  1 0.64828990E+03</rscale>
<asrwt>0</asrwt>
<pdfrwt beam="1">  1       21 0.18936504E-01 0.64828990E+03</pdfrwt>
<pdfrwt beam="2">0</pdfrwt>
<totfact> 0.24916534E+03</totfact>
</mgrwt>
</event>
<event>
 6    1  0.1347953E-004  0.6794038E+03  0.7818608E-02  0.9753117E-01
         21   -1    0    0  501  502  0.00000000000E+00  0.00000000000E+00  0.24762846335E+03  0.24762846335E+03  0.00000000000E+00 0. -1.
         13   -1    0    0    0    0 -0.00000000000E+00 -0.00000000000E+00 -0.10000000000E+04  0.10000000000E+04  0.00000000000E+00 0.  1.
    9000005    2    1    2  501    0  0.18201401535E+03 -0.13818800491E+03 -0.75944282740E+03  0.10189911312E+04  0.63981598211E+03 0.  0.
         13    1    3    3    0    0  0.24492211227E+03 -0.29470093345E+02 -0.83617251712E+03  0.87180261864E+03  0.00000000000E+00 0.  1.
          1    1    3    3  501    0 -0.62908096923E+02 -0.10871791157E+03  0.76729689725E+02  0.14718851259E+03  0.00000000000E+00 0.  1.
         -1    1    1    2    0  502 -0.18201401535E+03  0.13818800491E+03  0.70712907506E+01  0.22863733212E+03  0.00000000000E+00 0. -1.
<mgrwt>
<rscale>  1 0.67940380E+03</rscale>
<asrwt>0</asrwt>
<pdfrwt beam="1">  1       21 0.38096686E-01 0.67940380E+03</pdfrwt>
<pdfrwt beam="2">0</pdfrwt>
<totfact> 0.62327907E+02</totfact>
</mgrwt>
</event>
<event>
 6    1  0.1347953E-004  0.6645447E+03  0.7818608E-02  0.9779863E-01
         21   -1    0    0  501  502  0.00000000000E+00  0.00000000000E+00  0.21221982959E+03  0.21221982959E+03  0.00000000000E+00 0.  1.
         13   -1    0    0    0    0 -0.00000000000E+00 -0.00000000000E+00 -0.10000000000E+04  0.10000000000E+04  0.00000000000E+00 0.  1.
    9000005    2    1    2  501    0  0.59534020284E+02  0.23953566936E+03 -0.64983327988E+03  0.92946378444E+03  0.61700729207E+03 0.  0.
         13    1    3    3    0    0  0.29408792427E+03  0.19615560107E+03 -0.58290475973E+03  0.68172038693E+03  0.00000000000E+00 0.  1.
          1    1    3    3  501    0 -0.23455390399E+03  0.43380068290E+02 -0.66928520147E+02  0.24774339751E+03  0.00000000000E+00 0.  1.
         -3    1    1    2    0  502 -0.59534020284E+02 -0.23953566936E+03 -0.13794689053E+03  0.28275604516E+03  0.00000000000E+00 0. -1.
<mgrwt>
<rscale>  1 0.66454468E+03</rscale>
<asrwt>0</asrwt>
<pdfrwt beam="1">  1       21 0.32649204E-01 0.66454468E+03</pdfrwt>
<pdfrwt beam="2">0</pdfrwt>
<totfact> 0.85509648E+02</totfact>
</mgrwt>
</event>
<event>
 6    1  0.1347953E-004  0.6339048E+03  0.7818608E-02  0.9837458E-01
         21   -1    0    0  501  502  0.00000000000E+00  0.00000000000E+00  0.10972266582E+03  0.10972266582E+03  0.00000000000E+00 0.  1.
         13   -1    0    0    0    0 -0.00000000000E+00 -0.00000000000E+00 -0.10000000000E+04  0.10000000000E+04  0.00000000000E+00 0.  1.
    9000005    2    1    2  501    0  0.23381411675E+02 -0.13437565492E+02 -0.86748067427E+03  0.10744105393E+04  0.63333089937E+03 0.  0.
         13    1    3    3    0    0  0.14070448968E+03  0.15826743189E+03 -0.32899390621E+02  0.21430983019E+03  0.00000000000E+00 0.  1.
          3    1    3    3  501    0 -0.11732307800E+03 -0.17170499738E+03 -0.83458128365E+03  0.86010070909E+03  0.00000000000E+00 0.  1.
         -3    1    1    2    0  502 -0.23381411675E+02  0.13437565492E+02 -0.22796659906E+02  0.35312126545E+02  0.00000000000E+00 0. -1.
<mgrwt>
<rscale>  1 0.63390479E+03</rscale>
<asrwt>0</asrwt>
<pdfrwt beam="1">  1       21 0.16880410E-01 0.63390479E+03</pdfrwt>
<pdfrwt beam="2">0</pdfrwt>
<totfact> 0.30998765E+03</totfact>
</mgrwt>
</event>
<event>
 6    1  0.1347953E-004  0.6640496E+03  0.7818608E-02  0.9780768E-01
         21   -1    0    0  501  502  0.00000000000E+00  0.00000000000E+00  0.27652727754E+03  0.27652727754E+03  0.00000000000E+00 0. -1.
         13   -1    0    0    0    0 -0.00000000000E+00 -0.00000000000E+00 -0.10000000000E+04  0.10000000000E+04  0.00000000000E+00 0.  1.
    9000005    2    1    2  501    0 -0.11259705328E+03 -0.56886613277E+02 -0.86268278496E+03  0.10886613022E+04  0.65195679330E+03 0.  0.
         13    1    3    3    0    0 -0.26701613066E+03  0.75230748910E+02 -0.92975970393E+02  0.29257787115E+03  0.00000000000E+00 0.  1.
          3    1    3    3  501    0  0.15441907738E+03 -0.13211736219E+03 -0.76970681457E+03  0.79608343108E+03  0.00000000000E+00 0.  1.
         -3    1    1    2    0  502  0.11259705328E+03  0.56886613277E+02  0.13921006250E+03  0.18786597531E+03  0.00000000000E+00 0. -1.
<mgrwt>
<rscale>  1 0.66404958E+03</rscale>
<asrwt>0</asrwt>
<pdfrwt beam="1">  1       21 0.42542657E-01 0.66404958E+03</pdfrwt>
<pdfrwt beam="2">0</pdfrwt>
<totfact> 0.49605652E+02</totfact>
</mgrwt>
</event>
<event>
 6    1  0.1347953E-004  0.6134806E+03  0.7818608E-02  0.9877826E-01
         21   -1    0    0  501  502  0.00000000000E+00  0.00000000000E+00  0.55273277286E+03  0.55273277286E+03  0.00000000000E+00 0. -1.
         13   -1    0    0    0    0 -0.00000000000E+00 -0.00000000000E+00 -0.10000000000E+04  0.10000000000E+04  0.00000000000E+00 0.  1.
    9000005    2    1    2  501    0 -0.27901668325E+02 -0.24032025706E+02 -0.90510150896E+03  0.10934199481E+04  0.61237439536E+03 0.  0.
         13    1    3    3    0    0  0.27157938646E+03 -0.60301304815E+02 -0.61454544426E+03  0.67457965695E+03  0.00000000000E+00 0.  1.
          1    1    3    3  501    0 -0.29948105478E+03  0.36269279108E+02 -0.29055606470E+03  0.41884029118E+03  0.00000000000E+00 0.  1.
         -1    1    1    2    0  502  0.27901668325E+02  0.24032025706E+02  0.45783428182E+03  0.45931282473E+03  0.00000000000E+00 0. -1.
<mgrwt>
<rscale>  1 0.61348060E+03</rscale>
<asrwt>0</asrwt>
<pdfrwt beam="1">  1       21 0.85035809E-01 0.61348060E+03</pdfrwt>
<pdfrwt beam="2">0</pdfrwt>
<totfact> 0.10762172E+02</totfact>
</mgrwt>
</event>
<event>
 6    1  0.1347953E-004  0.6220496E+03  0.7818608E-02  0.9860687E-01
         21   -1    0    0  501  502  0.00000000000E+00  0.00000000000E+00  0.20077393616E+03  0.20077393616E+03  0.00000000000E+00 0. -1.
         13   -1    0    0    0    0 -0.00000000000E+00 -0.00000000000E+00 -0.10000000000E+04  0.10000000000E+04  0.00000000000E+00 0.  1.
    9000005    2    1    2  501    0  0.91344434058E+02 -0.19311004697E+02 -0.87976967406E+03  0.10774694606E+04  0.61500328348E+03 0.  0.
         13    1    3    3    0    0 -0.30112397568E+02  0.28291897513E+03 -0.30704619525E+03  0.41860156354E+03  0.00000000000E+00 0.  1.
          1    1    3    3  501    0  0.12145683163E+03 -0.30222997983E+03 -0.57272347881E+03  0.65886789710E+03  0.00000000000E+00 0.  1.
         -1    1    1    2    0  502 -0.91344434058E+02  0.19311004697E+02  0.80543610217E+02  0.12330447552E+03  0.00000000000E+00 0. -1.
<mgrwt>
<rscale>  1 0.62204964E+03</rscale>
<asrwt>0</asrwt>
<pdfrwt beam="1">  1       21 0.30888297E-01 0.62204964E+03</pdfrwt>
<pdfrwt beam="2">0</pdfrwt>
<totfact> 0.95888816E+02</totfact>
</mgrwt>
</event>
<event>
 6    1  0.1347953E-004  0.6658833E+03  0.7818608E-02  0.9777423E-01
         21   -1    0    0  501  502  0.00000000000E+00  0.00000000000E+00  0.30838058858E+03  0.30838058858E+03  0.00000000000E+00 0. -1.
         13   -1    0    0    0    0 -0.00000000000E+00 -0.00000000000E+00 -0.10000000000E+04  0.10000000000E+04  0.00000000000E+00 0.  1.
    9000005    2    1    2  501    0 -0.12947471962E+03 -0.14921808860E+03 -0.83227027382E+03  0.10658678960E+04  0.63590158198E+03 0.  0.
         13    1    3    3    0    0 -0.10957537413E+03 -0.39974547020E+03 -0.51032476374E+03  0.65744548675E+03  0.00000000000E+00 0.  1.
          1    1    3    3  501    0 -0.19899345492E+02  0.25052738160E+03 -0.32194551008E+03  0.40842240921E+03  0.00000000000E+00 0.  1.
         -3    1    1    2    0  502  0.12947471962E+03  0.14921808860E+03  0.14065086241E+03  0.24251269262E+03  0.00000000000E+00 0. -1.
<mgrwt>
<rscale>  1 0.66588330E+03</rscale>
<asrwt>0</asrwt>
<pdfrwt beam="1">  1       21 0.47443166E-01 0.66588330E+03</pdfrwt>
<pdfrwt beam="2">0</pdfrwt>
<totfact> 0.39398367E+02</totfact>
</mgrwt>
</event>
<event>
 6    1  0.1347953E-004  0.6475580E+03  0.7818608E-02  0.9811372E-01
         21   -1    0    0  501  502  0.00000000000E+00  0.00000000000E+00  0.11035952054E+04  0.11035952054E+04  0.00000000000E+00 0. -1.
         13   -1    0    0    0    0 -0.00000000000E+00 -0.00000000000E+00 -0.10000000000E+04  0.10000000000E+04  0.00000000000E+00 0.  1.
    9000005    2    1    2  501    0 -0.88228685647E+01  0.36809885964E+02 -0.89477089685E+03  0.11045117830E+04  0.64645070214E+03 0.  0.
         13    1    3    3    0    0 -0.10640466417E+03 -0.42370160915E+02  0.68251743443E+02  0.13332472980E+03  0.00000000000E+00 0.  1.
          1    1    3    3  501    0  0.97581795601E+02  0.79180046879E+02 -0.96302264030E+03  0.97118705324E+03  0.00000000000E+00 0.  1.
         -1    1    1    2    0  502  0.88228685647E+01 -0.36809885964E+02  0.99836610221E+03  0.99908342232E+03  0.00000000000E+00 0. -1.
<mgrwt>
<rscale>  1 0.64755797E+03</rscale>
<asrwt>0</asrwt>
<pdfrwt beam="1">  1       21 0.16978387E+00 0.64755797E+03</pdfrwt>
<pdfrwt beam="2">0</pdfrwt>
<totfact> 0.17925822E+01</totfact>
</mgrwt>
</event>
<event>
 6    1  0.1347953E-004  0.6494998E+03  0.7818608E-02  0.9807718E-01
         21   -1    0    0  501  502  0.00000000000E+00  0.00000000000E+00  0.15938952693E+03  0.15938952693E+03  0.00000000000E+00 0.  1.
         13   -1    0    0    0    0 -0.00000000000E+00 -0.00000000000E+00 -0.10000000000E+04  0.10000000000E+04  0.00000000000E+00 0.  1.
    9000005    2    1    2  501    0 -0.10877395206E+01 -0.20878545928E+02 -0.89228807665E+03  0.11036430331E+04  0.64916318135E+03 0.  0.
         13    1    3    3    0    0 -0.14348584539E+03 -0.24597360635E+03 -0.74875182729E+03  0.80107459186E+03  0.00000000000E+00 0.  1.
          3    1    3    3  501    0  0.14239810587E+03  0.22509506043E+03 -0.14353624936E+03  0.30256844129E+03  0.00000000000E+00 0.  1.
         -3    1    1    2    0  502  0.10877395206E+01  0.20878545928E+02  0.51677603579E+02  0.55746493782E+02  0.00000000000E+00 0. -1.
<mgrwt>
<rscale>  1 0.64949976E+03</rscale>
<asrwt>0</asrwt>
<pdfrwt beam="1">  1       21 0.24521465E-01 0.64949976E+03</pdfrwt>
<pdfrwt beam="2">0</pdfrwt>
<totfact> 0.15123798E+03</totfact>
</mgrwt>
</event>
<event>
 6    1  0.1347953E-004  0.6506692E+03  0.7818608E-02  0.9805524E-01
         21   -1    0    0  501  502  0.00000000000E+00  0.00000000000E+00  0.28384173860E+03  0.28384173860E+03  0.00000000000E+00 0. -1.
         13   -1    0    0    0    0 -0.00000000000E+00 -0.00000000000E+00 -0.10000000000E+04  0.10000000000E+04  0.00000000000E+00 0.  1.
    9000005    2    1    2  501    0 -0.37106948986E+01 -0.73347885062E+02 -0.88573561393E+03  0.10990441196E+04  0.64651118902E+03 0.  0.
         13    1    3    3    0    0  0.27356080161E+03 -0.30683569906E+02 -0.72550924728E+03  0.77597723003E+03  0.00000000000E+00 0.  1.
          1    1    3    3  501    0 -0.27727149650E+03 -0.42664315155E+02 -0.16022636666E+03  0.32306688956E+03  0.00000000000E+00 0.  1.
         -3    1    1    2    0  502  0.37106948986E+01  0.73347885062E+02  0.16957735253E+03  0.18479761901E+03  0.00000000000E+00 0. -1.
<mgrwt>
<rscale>  1 0.65066919E+03</rscale>
<asrwt>0</asrwt>
<pdfrwt beam="1">  1       21 0.43667959E-01 0.65066919E+03</pdfrwt>
<pdfrwt beam="2">0</pdfrwt>
<totfact> 0.47014089E+02</totfact>
</mgrwt>
</event>
<event>
 6    1  0.1347953E-004  0.6577595E+03  0.7818608E-02  0.9792327E-01
         21   -1    0    0  501  502  0.00000000000E+00  0.00000000000E+00  0.23985512280E+03  0.23985512280E+03  0.00000000000E+00 0. -1.
         13   -1    0    0    0    0 -0.00000000000E+00 -0.00000000000E+00 -0.10000000000E+04  0.10000000000E+04  0.00000000000E+00 0.  1.
    9000005    2    1    2  501    0 -0.31891729536E+02  0.14683121286E+02 -0.88923933318E+03  0.11060715101E+04  0.65682183072E+03 0.  0.
         13    1    3    3    0    0 -0.21399859861E+03 -0.24904663316E+03 -0.35916845860E+03  0.48664320333E+03  0.00000000000E+00 0.  1.
          3    1    3    3  501    0  0.18210686908E+03  0.26372975444E+03 -0.53007087458E+03  0.61942830676E+03  0.00000000000E+00 0.  1.
         -3    1    1    2    0  502  0.31891729536E+02 -0.14683121286E+02  0.12909445598E+03  0.13378361270E+03  0.00000000000E+00 0. -1.
<mgrwt>
<rscale>  1 0.65775953E+03</rscale>
<asrwt>0</asrwt>
<pdfrwt beam="1">  1       21 0.36900787E-01 0.65775953E+03</pdfrwt>
<pdfrwt beam="2">0</pdfrwt>
<totfact> 0.66663971E+02</totfact>
</mgrwt>
</event>
<event>
 6    1  0.1347953E-004  0.6604955E+03  0.7818608E-02  0.9787282E-01
         21   -1    0    0  501  502  0.00000000000E+00  0.00000000000E+00  0.20045181088E+03  0.20045181088E+03  0.00000000000E+00 0.  1.
         13   -1    0    0    0    0 -0.00000000000E+00 -0.00000000000E+00 -0.10000000000E+04  0.10000000000E+04  0.00000000000E+00 0.  1.
    9000005    2    1    2  501    0  0.30173612431E+01  0.36546697498E+02 -0.88683686125E+03  0.11057729967E+04  0.65947671397E+03 0.  0.
         13    1    3    3    0    0 -0.25515790154E+03  0.14445117432E+03 -0.17631711395E+03  0.34213947617E+03  0.00000000000E+00 0.  1.
          1    1    3    3  501    0  0.25817526278E+03 -0.10790447682E+03 -0.71051974729E+03  0.76363352056E+03  0.00000000000E+00 0.  1.
         -1    1    1    2    0  502 -0.30173612431E+01 -0.36546697498E+02  0.87288672125E+02  0.94678814147E+02  0.00000000000E+00 0. -1.
<mgrwt>
<rscale>  1 0.66049550E+03</rscale>
<asrwt>0</asrwt>
<pdfrwt beam="1">  1       21 0.30838739E-01 0.66049550E+03</pdfrwt>
<pdfrwt beam="2">0</pdfrwt>
<totfact> 0.95956378E+02</totfact>
</mgrwt>
</event>
<event>
 6    1  0.1347953E-004  0.6761452E+03  0.7818608E-02  0.9758920E-01
         21   -1    0    0  501  502  0.00000000000E+00  0.00000000000E+00  0.46581691655E+03  0.46581691655E+03  0.00000000000E+00 0. -1.
         13   -1    0    0    0    0 -0.00000000000E+00 -0.00000000000E+00 -0.10000000000E+04  0.10000000000E+04  0.00000000000E+00 0.  1.
    9000005    2    1    2  501    0 -0.11326329434E+03  0.12142300554E+03 -0.86366734715E+03  0.10968562138E+04  0.65543889659E+03 0.  0.
         13    1    3    3    0    0  0.12515147497E+03  0.12259107501E+03 -0.83908051179E+03  0.85717417636E+03  0.00000000000E+00 0.  1.
          1    1    3    3  501    0 -0.23841476931E+03 -0.11680694625E+01 -0.24586835364E+02  0.23968203747E+03  0.00000000000E+00 0.  1.
         -3    1    1    2    0  502  0.11326329434E+03 -0.12142300554E+03  0.32948426370E+03  0.36896070272E+03  0.00000000000E+00 0. -1.
<mgrwt>
<rscale>  1 0.67614515E+03</rscale>
<asrwt>0</asrwt>
<pdfrwt beam="1">  1       21 0.71664139E-01 0.67614515E+03</pdfrwt>
<pdfrwt beam="2">0</pdfrwt>
<totfact> 0.15873493E+02</totfact>
</mgrwt>
</event>
<event>
 6    1  0.1347953E-004  0.6490855E+03  0.7818608E-02  0.9808497E-01
         21   -1    0    0  501  502  0.00000000000E+00  0.00000000000E+00  0.12565515377E+03  0.12565515377E+03  0.00000000000E+00 0.  1.
         13   -1    0    0    0    0 -0.00000000000E+00 -0.00000000000E+00 -0.10000000000E+04  0.10000000000E+04  0.00000000000E+00 0.  1.
    9000005    2    1    2  501    0  0.97337316987E+01 -0.24480142079E+02 -0.88476532900E+03  0.10973247928E+04  0.64855068475E+03 0.  0.
         13    1    3    3    0    0  0.21858661605E+03 -0.97065330028E+02 -0.64403377898E+02  0.24768847792E+03  0.00000000000E+00 0.  1.
          1    1    3    3  501    0 -0.20885288435E+03  0.72585187949E+02 -0.82036195111E+03  0.84963631492E+03  0.00000000000E+00 0.  1.
         -1    1    1    2    0  502 -0.97337316987E+01  0.24480142079E+02  0.10420482776E+02  0.28330360927E+02  0.00000000000E+00 0. -1.
<mgrwt>
<rscale>  1 0.64908552E+03</rscale>
<asrwt>0</asrwt>
<pdfrwt beam="1">  1       21 0.19331562E-01 0.64908552E+03</pdfrwt>
<pdfrwt beam="2">0</pdfrwt>
<totfact> 0.23952522E+03</totfact>
</mgrwt>
</event>
<event>
 6    1  0.1347953E-004  0.6615744E+03  0.7818608E-02  0.9785300E-01
         21   -1    0    0  501  502  0.00000000000E+00  0.00000000000E+00  0.12679179772E+03  0.12679179772E+03  0.00000000000E+00 0.  1.
         13   -1    0    0    0    0 -0.00000000000E+00 -0.00000000000E+00 -0.10000000000E+04  0.10000000000E+04  0.00000000000E+00 0.  1.
    9000005    2    1    2  501    0 -0.26343205826E+02 -0.72320811459E+01 -0.87769925918E+03  0.10991071976E+04  0.66101011700E+03 0.  0.
         13    1    3    3    0    0  0.15124109017E+03 -0.40349803462E+02 -0.90320584899E+03  0.91666939495E+03  0.00000000000E+00 0.  1.
          1    1    3    3  501    0 -0.17758429600E+03  0.33117722316E+02  0.25506589803E+02  0.18243780266E+03  0.00000000000E+00 0.  1.
         -3    1    1    2    0  502  0.26343205826E+02  0.72320811459E+01  0.44910568990E+01  0.27684600105E+02  0.00000000000E+00 0. -1.
<mgrwt>
<rscale>  1 0.66157437E+03</rscale>
<asrwt>0</asrwt>
<pdfrwt beam="1">  1       21 0.19506430E-01 0.66157437E+03</pdfrwt>
<pdfrwt beam="2">0</pdfrwt>
<totfact> 0.23532569E+03</totfact>
</mgrwt>
</event>
<event>
 6    1  0.1347953E-004  0.6557640E+03  0.7818608E-02  0.9796023E-01
         21   -1    0    0  501  502  0.00000000000E+00  0.00000000000E+00  0.13700554458E+03  0.13700554458E+03  0.00000000000E+00 0.  1.
         13   -1    0    0    0    0 -0.00000000000E+00 -0.00000000000E+00 -0.10000000000E+04  0.10000000000E+04  0.00000000000E+00 0.  1.
    9000005    2    1    2  501    0 -0.24307339118E+02 -0.65983733431E+01 -0.88641362747E+03  0.11026130616E+04  0.65528013810E+03 0.  0.
         13    1    3    3    0    0  0.17094172718E+03 -0.17698693143E+03 -0.84974760350E+02  0.26031933828E+03  0.00000000000E+00 0.  1.
          1    1    3    3  501    0 -0.19524906629E+03  0.17038855809E+03 -0.80143886712E+03  0.84229372332E+03  0.00000000000E+00 0.  1.
         -3    1    1    2    0  502  0.24307339118E+02  0.65983733431E+01  0.23419172050E+02  0.34392482977E+02  0.00000000000E+00 0. -1.
<mgrwt>
<rscale>  1 0.65576402E+03</rscale>
<asrwt>0</asrwt>
<pdfrwt beam="1">  1       21 0.21077775E-01 0.65576402E+03</pdfrwt>
<pdfrwt beam="2">0</pdfrwt>
<totfact> 0.20283661E+03</totfact>
</mgrwt>
</event>
<event>
 6    1  0.1347953E-004  0.6560847E+03  0.7818608E-02  0.9795428E-01
         21   -1    0    0  501  502  0.00000000000E+00  0.00000000000E+00  0.12313366926E+03  0.12313366926E+03  0.00000000000E+00 0.  1.
         13   -1    0    0    0    0 -0.00000000000E+00 -0.00000000000E+00 -0.10000000000E+04  0.10000000000E+04  0.00000000000E+00 0.  1.
    9000005    2    1    2  501    0 -0.33614728047E+02  0.28179736019E+02 -0.83985812970E+03  0.10657433007E+04  0.65461672557E+03 0.  0.
         13    1    3    3    0    0  0.28146168274E+03 -0.39609024361E+02 -0.19457797533E+03  0.34445629932E+03  0.00000000000E+00 0.  1.
          1    1    3    3  501    0 -0.31507641078E+03  0.67788760380E+02 -0.64528015438E+03  0.72128700134E+03  0.00000000000E+00 0.  1.
         -1    1    1    2    0  502  0.33614728047E+02 -0.28179736019E+02 -0.37008201039E+02  0.57390368599E+02  0.00000000000E+00 0. -1.
<mgrwt>
<rscale>  1 0.65608468E+03</rscale>
<asrwt>0</asrwt>
<pdfrwt beam="1">  1       21 0.18943641E-01 0.65608468E+03</pdfrwt>
<pdfrwt beam="2">0</pdfrwt>
<totfact> 0.24891642E+03</totfact>
</mgrwt>
</event>
<event>
 6    1  0.1347953E-004  0.6575277E+03  0.7818608E-02  0.9792756E-01
         21   -1    0    0  501  502  0.00000000000E+00  0.00000000000E+00  0.14087094154E+03  0.14087094154E+03  0.00000000000E+00 0.  1.
         13   -1    0    0    0    0 -0.00000000000E+00 -0.00000000000E+00 -0.10000000000E+04  0.10000000000E+04  0.00000000000E+00 0.  1.
    9000005    2    1    2  501    0  0.19999818402E+02 -0.85428284191E+02 -0.79770924009E+03  0.10337710883E+04  0.65164764006E+03 0.  0.
         13    1    3    3    0    0  0.64937889471E+02  0.26192038882E+03 -0.18223966175E+03  0.32562326988E+03  0.00000000000E+00 0.  1.
          3    1    3    3  501    0 -0.44938071069E+02 -0.34734867301E+03 -0.61546957833E+03  0.70814781842E+03  0.00000000000E+00 0.  1.
         -1    1    1    2    0  502 -0.19999818402E+02  0.85428284191E+02 -0.61419818376E+02  0.10709985325E+03  0.00000000000E+00 0. -1.
<mgrwt>
<rscale>  1 0.65752767E+03</rscale>
<asrwt>0</asrwt>
<pdfrwt beam="1">  1       21 0.21672452E-01 0.65752767E+03</pdfrwt>
<pdfrwt beam="2">0</pdfrwt>
<totfact> 0.19221671E+03</totfact>
</mgrwt>
</event>
<event>
 6    1  0.1347953E-004  0.6692144E+03  0.7818608E-02  0.9771378E-01
         21   -1    0    0  501  502  0.00000000000E+00  0.00000000000E+00  0.17425628611E+03  0.17425628611E+03  0.00000000000E+00 0.  1.
         13   -1    0    0    0    0 -0.00000000000E+00 -0.00000000000E+00 -0.10000000000E+04  0.10000000000E+04  0.00000000000E+00 0.  1.
    9000005    2    1    2  501    0  0.12296510595E+03 -0.14411089506E+02 -0.80805792797E+03  0.10491927670E+04  0.65766233786E+03 0.  0.
         13    1    3    3    0    0 -0.67356843977E+02 -0.25841660019E+03 -0.64784076261E+03  0.70072372400E+03  0.00000000000E+00 0.  1.
          1    1    3    3  501    0  0.19032194993E+03  0.24400551068E+03 -0.16021716536E+03  0.34846904302E+03  0.00000000000E+00 0.  1.
         -1    1    1    2    0  502 -0.12296510595E+03  0.14411089506E+02 -0.17685785923E+02  0.12506351909E+03  0.00000000000E+00 0. -1.
<mgrwt>
<rscale>  1 0.66921435E+03</rscale>
<asrwt>0</asrwt>
<pdfrwt beam="1">  1       21 0.26808659E-01 0.66921435E+03</pdfrwt>
<pdfrwt beam="2">0</pdfrwt>
<totfact> 0.12678499E+03</totfact>
</mgrwt>
</event>
<event>
 6    1  0.1347953E-004  0.6893596E+03  0.7818608E-02  0.9735604E-01
         21   -1    0    0  501  502  0.00000000000E+00  0.00000000000E+00  0.23375574819E+03  0.23375574819E+03  0.00000000000E+00 0. -1.
         13   -1    0    0    0    0 -0.00000000000E+00 -0.00000000000E+00 -0.10000000000E+04  0.10000000000E+04  0.00000000000E+00 0.  1.
    9000005    2    1    2  501    0 -0.29278197491E+02 -0.20064937034E+03 -0.76661954646E+03  0.10309811849E+04  0.65886211908E+03 0.  0.
         13    1    3    3    0    0 -0.20570852718E+03 -0.10269755619E+03  0.84480106873E+01  0.23007423821E+03  0.00000000000E+00 0.  1.
          1    1    3    3  501    0  0.17643032969E+03 -0.97951814154E+02 -0.77506755715E+03  0.80090694670E+03  0.00000000000E+00 0.  1.
         -1    1    1    2    0  502  0.29278197491E+02  0.20064937034E+03  0.37529464754E+00  0.20277456328E+03  0.00000000000E+00 0. -1.
<mgrwt>
<rscale>  1 0.68935961E+03</rscale>
<asrwt>0</asrwt>
<pdfrwt beam="1">  1       21 0.35962422E-01 0.68935961E+03</pdfrwt>
<pdfrwt beam="2">0</pdfrwt>
<totfact> 0.70119346E+02</totfact>
</mgrwt>
</event>
<event>
 6    1  0.1347953E-004  0.6603487E+03  0.7818608E-02  0.9787552E-01
         21   -1    0    0  501  502  0.00000000000E+00  0.00000000000E+00  0.16596454422E+03  0.16596454422E+03  0.00000000000E+00 0.  1.
         13   -1    0    0    0    0 -0.00000000000E+00 -0.00000000000E+00 -0.10000000000E+04  0.10000000000E+04  0.00000000000E+00 0.  1.
    9000005    2    1    2  501    0  0.70980162262E+02  0.11248402521E+03 -0.78105568008E+03  0.10227943798E+04  0.64681491055E+03 0.  0.
         13    1    3    3    0    0  0.20260554492E+03  0.33689152400E+03 -0.39523890640E+03  0.55745735165E+03  0.00000000000E+00 0.  1.
          1    1    3    3  501    0 -0.13162538266E+03 -0.22440749879E+03 -0.38581677368E+03  0.46533702811E+03  0.00000000000E+00 0.  1.
         -1    1    1    2    0  502 -0.70980162262E+02 -0.11248402521E+03 -0.52979775697E+02  0.14317016447E+03  0.00000000000E+00 0. -1.
<mgrwt>
<rscale>  1 0.66034867E+03</rscale>
<asrwt>0</asrwt>
<pdfrwt beam="1">  1       21 0.25533006E-01 0.66034867E+03</pdfrwt>
<pdfrwt beam="2">0</pdfrwt>
<totfact> 0.13963552E+03</totfact>
</mgrwt>
</event>
<event>
 6    1  0.1347953E-004  0.6882043E+03  0.7818608E-02  0.9737620E-01
         21   -1    0    0  501  502  0.00000000000E+00  0.00000000000E+00  0.17802671540E+03  0.17802671540E+03  0.00000000000E+00 0.  1.
         13   -1    0    0    0    0 -0.00000000000E+00 -0.00000000000E+00 -0.10000000000E+04  0.10000000000E+04  0.00000000000E+00 0.  1.
    9000005    2    1    2  501    0  0.12961930734E+03  0.11264187208E+02 -0.78246191022E+03  0.10420517344E+04  0.67579370335E+03 0.  0.
         13    1    3    3    0    0 -0.20203305309E+03  0.15328520301E+03 -0.10493482896E+03  0.27445405140E+03  0.00000000000E+00 0.  1.
          1    1    3    3  501    0  0.33165236043E+03 -0.14202101580E+03 -0.67752708126E+03  0.76759768300E+03  0.00000000000E+00 0.  1.
         -1    1    1    2    0  502 -0.12961930734E+03 -0.11264187208E+02 -0.39511374387E+02  0.13597498099E+03  0.00000000000E+00 0. -1.
<mgrwt>
<rscale>  1 0.68820431E+03</rscale>
<asrwt>0</asrwt>
<pdfrwt beam="1">  1       21 0.27388725E-01 0.68820431E+03</pdfrwt>
<pdfrwt beam="2">0</pdfrwt>
<totfact> 0.12139923E+03</totfact>
</mgrwt>
</event>
<event>
 6    1  0.1347953E-004  0.6172790E+03  0.7818608E-02  0.9870192E-01
         21   -1    0    0  501  502  0.00000000000E+00  0.00000000000E+00  0.10720106232E+03  0.10720106232E+03  0.00000000000E+00 0.  1.
         13   -1    0    0    0    0 -0.00000000000E+00 -0.00000000000E+00 -0.10000000000E+04  0.10000000000E+04  0.00000000000E+00 0.  1.
    9000005    2    1    2  501    0  0.19862568573E+02  0.44375706211E+01 -0.89446059002E+03  0.10867811027E+04  0.61694343694E+03 0.  0.
         13    1    3    3    0    0 -0.17227536517E+03  0.90298542147E+02 -0.84962935016E+03  0.87160923630E+03  0.00000000000E+00 0.  1.
          3    1    3    3  501    0  0.19213793374E+03 -0.85860971526E+02 -0.44831239860E+02  0.21517186638E+03  0.00000000000E+00 0.  1.
         -1    1    1    2    0  502 -0.19862568573E+02 -0.44375706211E+01  0.16616523394E+01  0.20419959644E+02  0.00000000000E+00 0. -1.
<mgrwt>
<rscale>  1 0.61727904E+03</rscale>
<asrwt>0</asrwt>
<pdfrwt beam="1">  1       21 0.16492471E-01 0.61727904E+03</pdfrwt>
<pdfrwt beam="2">0</pdfrwt>
<totfact> 0.32402832E+03</totfact>
</mgrwt>
</event>
<event>
 6    1  0.1347953E-004  0.6581371E+03  0.7818608E-02  0.9791629E-01
         21   -1    0    0  501  502  0.00000000000E+00  0.00000000000E+00  0.15169244152E+03  0.15169244152E+03  0.00000000000E+00 0.  1.
         13   -1    0    0    0    0 -0.00000000000E+00 -0.00000000000E+00 -0.10000000000E+04  0.10000000000E+04  0.00000000000E+00 0.  1.
    9000005    2    1    2  501    0  0.10198755282E+02 -0.28508053196E+02 -0.88577951518E+03  0.11035170199E+04  0.65744029392E+03 0.  0.
         13    1    3    3    0    0 -0.12523902243E+03  0.28786503275E+03 -0.43026295153E+03  0.53261364729E+03  0.00000000000E+00 0.  1.
          3    1    3    3  501    0  0.13543777771E+03 -0.31637308594E+03 -0.45551656365E+03  0.57090337264E+03  0.00000000000E+00 0.  1.
         -1    1    1    2    0  502 -0.10198755282E+02  0.28508053196E+02  0.37471956703E+02  0.48175421592E+02  0.00000000000E+00 0. -1.
<mgrwt>
<rscale>  1 0.65813712E+03</rscale>
<asrwt>0</asrwt>
<pdfrwt beam="1">  1       21 0.23337298E-01 0.65813712E+03</pdfrwt>
<pdfrwt beam="2">0</pdfrwt>
<totfact> 0.16650513E+03</totfact>
</mgrwt>
</event>
<event>
 6    1  0.1347953E-004  0.6438448E+03  0.7818608E-02  0.9818398E-01
         21   -1    0    0  501  502  0.00000000000E+00  0.00000000000E+00  0.19305344114E+03  0.19305344114E+03  0.00000000000E+00 0. -1.
         13   -1    0    0    0    0 -0.00000000000E+00 -0.00000000000E+00 -0.10000000000E+04  0.10000000000E+04  0.00000000000E+00 0.  1.
    9000005    2    1    2  501    0 -0.48465750170E+02  0.34554797379E+02 -0.88529364694E+03  0.10946602037E+04  0.64108748023E+03 0.  0.
         13    1    3    3    0    0 -0.33730681279E+03 -0.24076949229E+02 -0.57227535540E+03  0.66472149645E+03  0.00000000000E+00 0.  1.
          3    1    3    3  501    0  0.28884106262E+03  0.58631746609E+02 -0.31301829154E+03  0.42993870726E+03  0.00000000000E+00 0.  1.
         -1    1    1    2    0  502  0.48465750170E+02 -0.34554797379E+02  0.78347088075E+02  0.98393237426E+02  0.00000000000E+00 0. -1.
<mgrwt>
<rscale>  1 0.64384480E+03</rscale>
<asrwt>0</asrwt>
<pdfrwt beam="1">  1       21 0.29700529E-01 0.64384480E+03</pdfrwt>
<pdfrwt beam="2">0</pdfrwt>
<totfact> 0.10357692E+03</totfact>
</mgrwt>
</event>
<event>
 6    1  0.1347953E-004  0.6488144E+03  0.7818608E-02  0.9809006E-01
         21   -1    0    0  501  502  0.00000000000E+00  0.00000000000E+00  0.12560066071E+03  0.12560066071E+03  0.00000000000E+00 0.  1.
         13   -1    0    0    0    0 -0.00000000000E+00 -0.00000000000E+00 -0.10000000000E+04  0.10000000000E+04  0.00000000000E+00 0.  1.
    9000005    2    1    2  501    0  0.38659881162E+02 -0.41590325393E+01 -0.87165665364E+03  0.10866210983E+04  0.64764821116E+03 0.  0.
         13    1    3    3    0    0  0.29128971926E+03 -0.16334522006E+03 -0.33832831070E+03  0.47539184604E+03  0.00000000000E+00 0.  1.
          3    1    3    3  501    0 -0.25262983810E+03  0.15918618752E+03 -0.53332834294E+03  0.61122925223E+03  0.00000000000E+00 0.  1.
         -3    1    1    2    0  502 -0.38659881162E+02  0.41590325393E+01 -0.27426856489E+01  0.38979562436E+02  0.00000000000E+00 0. -1.
<mgrwt>
<rscale>  1 0.64881437E+03</rscale>
<asrwt>0</asrwt>
<pdfrwt beam="1">  1       21 0.19323178E-01 0.64881437E+03</pdfrwt>
<pdfrwt beam="2">0</pdfrwt>
<totfact> 0.23972632E+03</totfact>
</mgrwt>
</event>
<event>
 6    1  0.1347953E-004  0.6815610E+03  0.7818608E-02  0.9749295E-01
         21   -1    0    0  501  502  0.00000000000E+00  0.00000000000E+00  0.70251797056E+03  0.70251797056E+03  0.00000000000E+00 0. -1.
         13   -1    0    0    0    0 -0.00000000000E+00 -0.00000000000E+00 -0.10000000000E+04  0.10000000000E+04  0.00000000000E+00 0.  1.
    9000005    2    1    2  501    0  0.63545064347E+01 -0.25934907909E+02 -0.88352933598E+03  0.11158626674E+04  0.68103774182E+03 0.  0.
         13    1    3    3    0    0  0.15978639659E+03 -0.31461994605E+03 -0.49863630355E+03  0.61086460546E+03  0.00000000000E+00 0.  1.
          1    1    3    3  501    0 -0.15343189016E+03  0.28868503814E+03 -0.38489303244E+03  0.50499806196E+03  0.00000000000E+00 0.  1.
         -3    1    1    2    0  502 -0.63545064347E+01  0.25934907909E+02  0.58604730654E+03  0.58665530314E+03  0.00000000000E+00 0. -1.
<mgrwt>
<rscale>  1 0.68156101E+03</rscale>
<asrwt>0</asrwt>
<pdfrwt beam="1">  1       21 0.10807968E+00 0.68156101E+03</pdfrwt>
<pdfrwt beam="2">0</pdfrwt>
<totfact> 0.59523926E+01</totfact>
</mgrwt>
</event>
<event>
 6    1  0.1347953E-004  0.6470140E+03  0.7818608E-02  0.9812398E-01
         21   -1    0    0  501  502  0.00000000000E+00  0.00000000000E+00  0.63414636343E+03  0.63414636343E+03  0.00000000000E+00 0. -1.
         13   -1    0    0    0    0 -0.00000000000E+00 -0.00000000000E+00 -0.10000000000E+04  0.10000000000E+04  0.00000000000E+00 0.  1.
    9000005    2    1    2  501    0  0.28346353583E+02 -0.55395821644E+02 -0.89332252541E+03  0.11030195975E+04  0.64401466226E+03 0.  0.
         13    1    3    3    0    0  0.24455106120E+03 -0.25366665849E+03 -0.52222931271E+03  0.62998051574E+03  0.00000000000E+00 0.  1.
          3    1    3    3  501    0 -0.21620470762E+03  0.19827083684E+03 -0.37109321270E+03  0.47303908174E+03  0.00000000000E+00 0.  1.
         -1    1    1    2    0  502 -0.28346353583E+02  0.55395821644E+02  0.52746888883E+03  0.53112676595E+03  0.00000000000E+00 0. -1.
<mgrwt>
<rscale>  1 0.64701399E+03</rscale>
<asrwt>0</asrwt>
<pdfrwt beam="1">  1       21 0.97560976E-01 0.64701399E+03</pdfrwt>
<pdfrwt beam="2">0</pdfrwt>
<totfact> 0.77065494E+01</totfact>
</mgrwt>
</event>
<event>
 6    1  0.1347953E-004  0.6559401E+03  0.7818608E-02  0.9795696E-01
         21   -1    0    0  501  502  0.00000000000E+00  0.00000000000E+00  0.15419798276E+03  0.15419798276E+03  0.00000000000E+00 0.  1.
         13   -1    0    0    0    0 -0.00000000000E+00 -0.00000000000E+00 -0.10000000000E+04  0.10000000000E+04  0.00000000000E+00 0.  1.
    9000005    2    1    2  501    0 -0.43378326578E+02  0.34484576816E+02 -0.87340512840E+03  0.10922883955E+04  0.65359510040E+03 0.  0.
         13    1    3    3    0    0  0.44730051084E+02 -0.28300486307E+03 -0.59708239220E+03  0.66226876195E+03  0.00000000000E+00 0.  1.
          3    1    3    3  501    0 -0.88108377662E+02  0.31748943988E+03 -0.27632273621E+03  0.43001963350E+03  0.00000000000E+00 0.  1.
         -3    1    1    2    0  502  0.43378326578E+02 -0.34484576816E+02  0.27603111166E+02  0.61909587310E+02  0.00000000000E+00 0. -1.
<mgrwt>
<rscale>  1 0.65594010E+03</rscale>
<asrwt>0</asrwt>
<pdfrwt beam="1">  1       21 0.23722766E-01 0.65594010E+03</pdfrwt>
<pdfrwt beam="2">0</pdfrwt>
<totfact> 0.16129103E+03</totfact>
</mgrwt>
</event>
<event>
 6    1  0.1347953E-004  0.7503517E+03  0.7818608E-02  0.9634799E-01
         21   -1    0    0  501  502  0.00000000000E+00  0.00000000000E+00  0.37839423789E+03  0.37839423789E+03  0.00000000000E+00 0. -1.
         13   -1    0    0    0    0 -0.00000000000E+00 -0.00000000000E+00 -0.10000000000E+04  0.10000000000E+04  0.00000000000E+00 0.  1.
    9000005    2    1    2  501    0 -0.19761534704E+03 -0.31538232106E+03 -0.66636992659E+03  0.10035320442E+04  0.65154420484E+03 0.  0.
         13    1    3    3    0    0  0.10324325979E+03  0.15577396919E+03 -0.21630003026E+03  0.28585031619E+03  0.00000000000E+00 0.  1.
          1    1    3    3  501    0 -0.30085860684E+03 -0.47115629026E+03 -0.45006989633E+03  0.71768172802E+03  0.00000000000E+00 0.  1.
         -3    1    1    2    0  502  0.19761534704E+03  0.31538232106E+03  0.44764164476E+02  0.37486219368E+03  0.00000000000E+00 0. -1.
<mgrwt>
<rscale>  1 0.75035171E+03</rscale>
<asrwt>0</asrwt>
<pdfrwt beam="1">  1       21 0.58214496E-01 0.75035171E+03</pdfrwt>
<pdfrwt beam="2">0</pdfrwt>
<totfact> 0.25107380E+02</totfact>
</mgrwt>
</event>
<event>
 6    1  0.1347953E-004  0.6560817E+03  0.7818608E-02  0.9795434E-01
         21   -1    0    0  501  502  0.00000000000E+00  0.00000000000E+00  0.28549991191E+03  0.28549991191E+03  0.00000000000E+00 0.  1.
         13   -1    0    0    0    0 -0.00000000000E+00 -0.00000000000E+00 -0.10000000000E+04  0.10000000000E+04  0.00000000000E+00 0.  1.
    9000005    2    1    2  501    0  0.72115983789E+02 -0.20199636178E+02 -0.88360943539E+03  0.11005493462E+04  0.65179328673E+03 0.  0.
         13    1    3    3    0    0 -0.22439254833E+03 -0.20422565076E+03 -0.35313053095E+03  0.46557631390E+03  0.00000000000E+00 0.  1.
          1    1    3    3  501    0  0.29650853212E+03  0.18402601458E+03 -0.53047890445E+03  0.63497303228E+03  0.00000000000E+00 0.  1.
         -1    1    1    2    0  502 -0.72115983789E+02  0.20199636178E+02  0.16910934730E+03  0.18495056573E+03  0.00000000000E+00 0. -1.
<mgrwt>
<rscale>  1 0.65608172E+03</rscale>
<asrwt>0</asrwt>
<pdfrwt beam="1">  1       21 0.43923062E-01 0.65608172E+03</pdfrwt>
<pdfrwt beam="2">0</pdfrwt>
<totfact> 0.46419953E+02</totfact>
</mgrwt>
</event>
<event>
 6    1  0.1347953E-004  0.6915563E+03  0.7818608E-02  0.9731782E-01
         21   -1    0    0  501  502  0.00000000000E+00  0.00000000000E+00  0.19362002136E+04  0.19362002136E+04  0.00000000000E+00 0. -1.
         13   -1    0    0    0    0 -0.00000000000E+00 -0.00000000000E+00 -0.10000000000E+04  0.10000000000E+04  0.00000000000E+00 0.  1.
    9000005    2    1    2  501    0 -0.22759419927E+03 -0.18063122442E+02 -0.87239646562E+03  0.11132500376E+04  0.65278224328E+03 0.  0.
         13    1    3    3    0    0 -0.44072993566E+03 -0.73099315820E+02 -0.43480617244E+03  0.62341221816E+03  0.00000000000E+00 0.  1.
          3    1    3    3  501    0  0.21313573639E+03  0.55036193378E+02 -0.43759029318E+03  0.48983781948E+03  0.00000000000E+00 0.  1.
         -3    1    1    2    0  502  0.22759419927E+03  0.18063122442E+02  0.18085966793E+04  0.18229501760E+04  0.00000000000E+00 0. -1.
<mgrwt>
<rscale>  1 0.69155625E+03</rscale>
<asrwt>0</asrwt>
<pdfrwt beam="1">  1       21 0.29787695E+00 0.69155625E+03</pdfrwt>
<pdfrwt beam="2">0</pdfrwt>
<totfact> 0.26091508E+00</totfact>
</mgrwt>
</event>
<event>
 6    1  0.1347953E-004  0.6509553E+03  0.7818608E-02  0.9804988E-01
         21   -1    0    0  501  502  0.00000000000E+00  0.00000000000E+00  0.11662427903E+03  0.11662427903E+03  0.00000000000E+00 0.  1.
         13   -1    0    0    0    0 -0.00000000000E+00 -0.00000000000E+00 -0.10000000000E+04  0.10000000000E+04  0.00000000000E+00 0.  1.
    9000005    2    1    2  501    0  0.78747105429E+01 -0.22027560468E+02 -0.87735006872E+03  0.10924678519E+04  0.65053488751E+03 0.  0.
         13    1    3    3    0    0  0.25676396928E+03  0.18217475769E+03 -0.32055949315E+03  0.44930364667E+03  0.00000000000E+00 0.  1.
          1    1    3    3  501    0 -0.24888925874E+03 -0.20420231816E+03 -0.55679057556E+03  0.64316420523E+03  0.00000000000E+00 0.  1.
         -3    1    1    2    0  502 -0.78747105429E+01  0.22027560468E+02 -0.60256522585E+01  0.24156427125E+02  0.00000000000E+00 0. -1.
<mgrwt>
<rscale>  1 0.65095535E+03</rscale>
<asrwt>0</asrwt>
<pdfrwt beam="1">  1       21 0.17942196E-01 0.65095535E+03</pdfrwt>
<pdfrwt beam="2">0</pdfrwt>
<totfact> 0.27605617E+03</totfact>
</mgrwt>
</event>
<event>
 6    1  0.1347953E-004  0.6489388E+03  0.7818608E-02  0.9808773E-01
         21   -1    0    0  501  502  0.00000000000E+00  0.00000000000E+00  0.12295872144E+03  0.12295872144E+03  0.00000000000E+00 0.  1.
         13   -1    0    0    0    0 -0.00000000000E+00 -0.00000000000E+00 -0.10000000000E+04  0.10000000000E+04  0.00000000000E+00 0.  1.
    9000005    2    1    2  501    0  0.11409875938E+02 -0.34365983595E+02 -0.87112347345E+03  0.10862677619E+04  0.64792772620E+03 0.  0.
         13    1    3    3    0    0 -0.21952367925E+03 -0.21551019650E+03 -0.64890343200E+03  0.71813017943E+03  0.00000000000E+00 0.  1.
          1    1    3    3  501    0  0.23093355519E+03  0.18114421290E+03 -0.22222004145E+03  0.36813758243E+03  0.00000000000E+00 0.  1.
         -3    1    1    2    0  502 -0.11409875938E+02  0.34365983595E+02 -0.59178051103E+01  0.36690959577E+02  0.00000000000E+00 0. -1.
<mgrwt>
<rscale>  1 0.64893878E+03</rscale>
<asrwt>0</asrwt>
<pdfrwt beam="1">  1       21 0.18916726E-01 0.64893878E+03</pdfrwt>
<pdfrwt beam="2">0</pdfrwt>
<totfact> 0.24965670E+03</totfact>
</mgrwt>
</event>
<event>
 6    1  0.1347953E-004  0.6962810E+03  0.7818608E-02  0.9723613E-01
         21   -1    0    0  501  502  0.00000000000E+00  0.00000000000E+00  0.47008924779E+03  0.47008924779E+03  0.00000000000E+00 0. -1.
         13   -1    0    0    0    0 -0.00000000000E+00 -0.00000000000E+00 -0.10000000000E+04  0.10000000000E+04  0.00000000000E+00 0.  1.
    9000005    2    1    2  501    0  0.30209290285E+03 -0.66693842869E+02 -0.79917943779E+03  0.10599504717E+04  0.62377803585E+03 0.  0.
         13    1    3    3    0    0  0.35073179562E+03 -0.39004766691E+02 -0.88767085825E+03  0.95524536998E+03  0.00000000000E+00 0.  1.
          3    1    3    3  501    0 -0.48638892776E+02 -0.27689076178E+02  0.88491420453E+02  0.10470510171E+03  0.00000000000E+00 0.  1.
         -1    1    1    2    0  502 -0.30209290285E+03  0.66693842869E+02  0.26926868558E+03  0.41013877610E+03  0.00000000000E+00 0. -1.
<mgrwt>
<rscale>  1 0.69628100E+03</rscale>
<asrwt>0</asrwt>
<pdfrwt beam="1">  1       21 0.72321421E-01 0.69628100E+03</pdfrwt>
<pdfrwt beam="2">0</pdfrwt>
<totfact> 0.15509488E+02</totfact>
</mgrwt>
</event>
<event>
 6    1  0.1347953E-004  0.6539538E+03  0.7818608E-02  0.9799388E-01
         21   -1    0    0  501  502  0.00000000000E+00  0.00000000000E+00  0.14793374740E+03  0.14793374740E+03  0.00000000000E+00 0.  1.
         13   -1    0    0    0    0 -0.00000000000E+00 -0.00000000000E+00 -0.10000000000E+04  0.10000000000E+04  0.00000000000E+00 0.  1.
    9000005    2    1    2  501    0 -0.26163111276E+02 -0.88176418829E+01 -0.88787725197E+03  0.11027155334E+04  0.65337070173E+03 0.  0.
         13    1    3    3    0    0  0.18044791522E+03  0.30023655679E+02 -0.87299995269E+03  0.89195952117E+03  0.00000000000E+00 0.  1.
          1    1    3    3  501    0 -0.20661102649E+03 -0.38841297562E+02 -0.14877299277E+02  0.21075601225E+03  0.00000000000E+00 0.  1.
         -1    1    1    2    0  502  0.26163111276E+02  0.88176418829E+01  0.35810999366E+02  0.45218213981E+02  0.00000000000E+00 0. -1.
<mgrwt>
<rscale>  1 0.65395377E+03</rscale>
<asrwt>0</asrwt>
<pdfrwt beam="1">  1       21 0.22759037E-01 0.65395377E+03</pdfrwt>
<pdfrwt beam="2">0</pdfrwt>
<totfact> 0.17486411E+03</totfact>
</mgrwt>
</event>
<event>
 6    1  0.1347953E-004  0.6766868E+03  0.7818608E-02  0.9757953E-01
         21   -1    0    0  501  502  0.00000000000E+00  0.00000000000E+00  0.21363536549E+03  0.21363536549E+03  0.00000000000E+00 0.  1.
         13   -1    0    0    0    0 -0.00000000000E+00 -0.00000000000E+00 -0.10000000000E+04  0.10000000000E+04  0.00000000000E+00 0.  1.
    9000005    2    1    2  501    0  0.42295051199E+02 -0.81230623383E+01 -0.88028080614E+03  0.11103149764E+04  0.67531488489E+03 0.  0.
         13    1    3    3    0    0 -0.53645649539E+02  0.25340333808E+03 -0.76706712013E+03  0.80961909208E+03  0.00000000000E+00 0.  1.
          1    1    3    3  501    0  0.95940700737E+02 -0.26152640042E+03 -0.11321368601E+03  0.30069588437E+03  0.00000000000E+00 0.  1.
         -3    1    1    2    0  502 -0.42295051199E+02  0.81230623383E+01  0.93916171633E+02  0.10332038904E+03  0.00000000000E+00 0. -1.
<mgrwt>
<rscale>  1 0.67668682E+03</rscale>
<asrwt>0</asrwt>
<pdfrwt beam="1">  1       21 0.32866978E-01 0.67668682E+03</pdfrwt>
<pdfrwt beam="2">0</pdfrwt>
<totfact> 0.84298896E+02</totfact>
</mgrwt>
</event>
<event>
 6    1  0.1347953E-004  0.7206277E+03  0.7818608E-02  0.9682592E-01
         21   -1    0    0  501  502  0.00000000000E+00  0.00000000000E+00  0.26954960733E+03  0.26954960733E+03  0.00000000000E+00 0.  1.
         13   -1    0    0    0    0 -0.00000000000E+00 -0.00000000000E+00 -0.10000000000E+04  0.10000000000E+04  0.00000000000E+00 0.  1.
    9000005    2    1    2  501    0 -0.31100877692E+03 -0.44787349991E+02 -0.55573520744E+03  0.91002525211E+03  0.64851520618E+03 0.  0.
         13    1    3    3    0    0 -0.14401016111E+03 -0.20563901802E+03 -0.62043422334E+03  0.66930184351E+03  0.00000000000E+00 0.  1.
          3    1    3    3  501    0 -0.16699861581E+03  0.16085166803E+03  0.64699015894E+02  0.24072340860E+03  0.00000000000E+00 0.  1.
         -3    1    1    2    0  502  0.31100877692E+03  0.44787349991E+02 -0.17471518523E+03  0.35952435521E+03  0.00000000000E+00 0. -1.
<mgrwt>
<rscale>  1 0.72062774E+03</rscale>
<asrwt>0</asrwt>
<pdfrwt beam="1">  1       21 0.41469169E-01 0.72062774E+03</pdfrwt>
<pdfrwt beam="2">0</pdfrwt>
<totfact> 0.52097964E+02</totfact>
</mgrwt>
</event>
<event>
 6    1  0.1347953E-004  0.6665934E+03  0.7818608E-02  0.9776132E-01
         21   -1    0    0  501  502  0.00000000000E+00  0.00000000000E+00  0.24112393630E+03  0.24112393630E+03  0.00000000000E+00 0.  1.
         13   -1    0    0    0    0 -0.00000000000E+00 -0.00000000000E+00 -0.10000000000E+04  0.10000000000E+04  0.00000000000E+00 0.  1.
    9000005    2    1    2  501    0  0.16807348396E+03 -0.62934230858E+02 -0.81518257404E+03  0.10530286505E+04  0.64197920245E+03 0.  0.
         13    1    3    3    0    0  0.72507403144E+02  0.19136766233E+03 -0.74478722205E+03  0.77239038823E+03  0.00000000000E+00 0.  1.
          3    1    3    3  501    0  0.95566080818E+02 -0.25430189319E+03 -0.70395351987E+02  0.28063826230E+03  0.00000000000E+00 0.  1.
         -3    1    1    2    0  502 -0.16807348396E+03  0.62934230858E+02  0.56306510331E+02  0.18809528577E+03  0.00000000000E+00 0. -1.
<mgrwt>
<rscale>  1 0.66659336E+03</rscale>
<asrwt>0</asrwt>
<pdfrwt beam="1">  1       21 0.37095989E-01 0.66659336E+03</pdfrwt>
<pdfrwt beam="2">0</pdfrwt>
<totfact> 0.65901991E+02</totfact>
</mgrwt>
</event>
<event>
 6    1  0.1347953E-004  0.6521835E+03  0.7818608E-02  0.9802691E-01
         21   -1    0    0  501  502  0.00000000000E+00  0.00000000000E+00  0.12250949755E+03  0.12250949755E+03  0.00000000000E+00 0.  1.
         13   -1    0    0    0    0 -0.00000000000E+00 -0.00000000000E+00 -0.10000000000E+04  0.10000000000E+04  0.00000000000E+00 0.  1.
    9000005    2    1    2  501    0 -0.16875416598E+02 -0.15704853280E+02 -0.88401050024E+03  0.10985526098E+04  0.65177591990E+03 0.  0.
         13    1    3    3    0    0 -0.51153759094E+02  0.14013215277E+03 -0.92244251700E+03  0.93442705680E+03  0.00000000000E+00 0.  1.
          1    1    3    3  501    0  0.34278342496E+02 -0.15583700605E+03  0.38432016758E+02  0.16412555295E+03  0.00000000000E+00 0.  1.
         -3    1    1    2    0  502  0.16875416598E+02  0.15704853280E+02  0.65199977923E+01  0.23956887801E+02  0.00000000000E+00 0. -1.
<mgrwt>
<rscale>  1 0.65218346E+03</rscale>
<asrwt>0</asrwt>
<pdfrwt beam="1">  1       21 0.18847614E-01 0.65218346E+03</pdfrwt>
<pdfrwt beam="2">0</pdfrwt>
<totfact> 0.25137643E+03</totfact>
</mgrwt>
</event>
<event>
 6    1  0.1347953E-004  0.6581838E+03  0.7818608E-02  0.9791543E-01
         21   -1    0    0  501  502  0.00000000000E+00  0.00000000000E+00  0.12142638957E+03  0.12142638957E+03  0.00000000000E+00 0.  1.
         13   -1    0    0    0    0 -0.00000000000E+00 -0.00000000000E+00 -0.10000000000E+04  0.10000000000E+04  0.00000000000E+00 0.  1.
    9000005    2    1    2  501    0 -0.12454071976E+02  0.25826067513E+02 -0.87109831821E+03  0.10917958367E+04  0.65755895498E+03 0.  0.
         13    1    3    3    0    0 -0.59259564829E+02 -0.11085075217E+03 -0.92803737563E+03  0.93651105485E+03  0.00000000000E+00 0.  1.
          3    1    3    3  501    0  0.46805492853E+02  0.13667681968E+03  0.56939057426E+02  0.15528478181E+03  0.00000000000E+00 0.  1.
         -1    1    1    2    0  502  0.12454071976E+02 -0.25826067513E+02 -0.74752922269E+01  0.29630552912E+02  0.00000000000E+00 0. -1.
<mgrwt>
<rscale>  1 0.65818377E+03</rscale>
<asrwt>0</asrwt>
<pdfrwt beam="1">  1       21 0.18680982E-01 0.65818377E+03</pdfrwt>
<pdfrwt beam="2">0</pdfrwt>
<totfact> 0.25561320E+03</totfact>
</mgrwt>
</event>
<event>
 6    1  0.1347953E-004  0.6612034E+03  0.7818608E-02  0.9785981E-01
         21   -1    0    0  501  502  0.00000000000E+00  0.00000000000E+00  0.14759879221E+03  0.14759879221E+03  0.00000000000E+00 0.  1.
         13   -1    0    0    0    0 -0.00000000000E+00 -0.00000000000E+00 -0.10000000000E+04  0.10000000000E+04  0.00000000000E+00 0.  1.
    9000005    2    1    2  501    0 -0.88214056240E+02  0.19104497397E+02 -0.81603954350E+03  0.10502906622E+04  0.65501392121E+03 0.  0.
         13    1    3    3    0    0  0.20519359269E+03  0.21413163158E+03 -0.47479477192E+03  0.55980964762E+03  0.00000000000E+00 0.  1.
          1    1    3    3  501    0 -0.29340764893E+03 -0.19502713418E+03 -0.34124477158E+03  0.49048101457E+03  0.00000000000E+00 0.  1.
         -3    1    1    2    0  502  0.88214056240E+02 -0.19104497397E+02 -0.36361664286E+02  0.97308130024E+02  0.00000000000E+00 0. -1.
<mgrwt>
<rscale>  1 0.66120340E+03</rscale>
<asrwt>0</asrwt>
<pdfrwt beam="1">  1       21 0.22707506E-01 0.66120340E+03</pdfrwt>
<pdfrwt beam="2">0</pdfrwt>
<totfact> 0.17557692E+03</totfact>
</mgrwt>
</event>
<event>
 6    1  0.1347953E-004  0.6452183E+03  0.7818608E-02  0.9815793E-01
         21   -1    0    0  501  502  0.00000000000E+00  0.00000000000E+00  0.11570679853E+03  0.11570679853E+03  0.00000000000E+00 0.  1.
         13   -1    0    0    0    0 -0.00000000000E+00 -0.00000000000E+00 -0.10000000000E+04  0.10000000000E+04  0.00000000000E+00 0.  1.
    9000005    2    1    2  501    0  0.58959256466E+01 -0.31598355643E+02 -0.86136698947E+03  0.10762247872E+04  0.64441716622E+03 0.  0.
         13    1    3    3    0    0 -0.45212860161E+02 -0.33473782769E+03 -0.45550248739E+03  0.56707683080E+03  0.00000000000E+00 0.  1.
          3    1    3    3  501    0  0.51108785807E+02  0.30313947205E+03 -0.40586450207E+03  0.50914795644E+03  0.00000000000E+00 0.  1.
         -1    1    1    2    0  502 -0.58959256466E+01  0.31598355643E+02 -0.22926212004E+02  0.39482011289E+02  0.00000000000E+00 0. -1.
<mgrwt>
<rscale>  1 0.64521834E+03</rscale>
<asrwt>0</asrwt>
<pdfrwt beam="1">  1       21 0.17801045E-01 0.64521834E+03</pdfrwt>
<pdfrwt beam="2">0</pdfrwt>
<totfact> 0.28027467E+03</totfact>
</mgrwt>
</event>
<event>
 6    1  0.1347953E-004  0.6599056E+03  0.7818608E-02  0.9788368E-01
         21   -1    0    0  501  502  0.00000000000E+00  0.00000000000E+00  0.34107283833E+03  0.34107283833E+03  0.00000000000E+00 0. -1.
         13   -1    0    0    0    0 -0.00000000000E+00 -0.00000000000E+00 -0.10000000000E+04  0.10000000000E+04  0.00000000000E+00 0.  1.
    9000005    2    1    2  501    0 -0.72470043084E+02  0.17934104079E+03 -0.84535491856E+03  0.10724273012E+04  0.63092017090E+03 0.  0.
         13    1    3    3    0    0 -0.14023467260E+03 -0.21154274739E+03 -0.42043074934E+03  0.49109888247E+03  0.00000000000E+00 0.  1.
          3    1    3    3  501    0  0.67764629520E+02  0.39088378818E+03 -0.42492416923E+03  0.58132841877E+03  0.00000000000E+00 0.  1.
         -1    1    1    2    0  502  0.72470043084E+02 -0.17934104079E+03  0.18642775689E+03  0.26864553708E+03  0.00000000000E+00 0. -1.
<mgrwt>
<rscale>  1 0.65990558E+03</rscale>
<asrwt>0</asrwt>
<pdfrwt beam="1">  1       21 0.52472743E-01 0.65990558E+03</pdfrwt>
<pdfrwt beam="2">0</pdfrwt>
<totfact> 0.31760863E+02</totfact>
</mgrwt>
</event>
<event>
 6    1  0.1347953E-004  0.6567833E+03  0.7818608E-02  0.9794133E-01
         21   -1    0    0  501  502  0.00000000000E+00  0.00000000000E+00  0.22899641738E+03  0.22899641738E+03  0.00000000000E+00 0. -1.
         13   -1    0    0    0    0 -0.00000000000E+00 -0.00000000000E+00 -0.10000000000E+04  0.10000000000E+04  0.00000000000E+00 0.  1.
    9000005    2    1    2  501    0 -0.34033253845E+02  0.72458851737E+02 -0.87731035160E+03  0.10959187082E+04  0.65188635075E+03 0.  0.
         13    1    3    3    0    0 -0.35565041273E+02 -0.22789057247E+03 -0.80357772704E+02  0.24424650830E+03  0.00000000000E+00 0.  1.
          3    1    3    3  501    0  0.15317874279E+01  0.30034942421E+03 -0.79695257890E+03  0.85167219985E+03  0.00000000000E+00 0.  1.
         -1    1    1    2    0  502  0.34033253845E+02 -0.72458851737E+02  0.10630676898E+03  0.13307770922E+03  0.00000000000E+00 0. -1.
<mgrwt>
<rscale>  1 0.65678334E+03</rscale>
<asrwt>0</asrwt>
<pdfrwt beam="1">  1       21 0.35230217E-01 0.65678334E+03</pdfrwt>
<pdfrwt beam="2">0</pdfrwt>
<totfact> 0.73301081E+02</totfact>
</mgrwt>
</event>
<event>
 6    1  0.1347953E-004  0.6334652E+03  0.7818608E-02  0.9838310E-01
         21   -1    0    0  501  502  0.00000000000E+00  0.00000000000E+00  0.23130818442E+03  0.23130818442E+03  0.00000000000E+00 0. -1.
         13   -1    0    0    0    0 -0.00000000000E+00 -0.00000000000E+00 -0.10000000000E+04  0.10000000000E+04  0.00000000000E+00 0.  1.
    9000005    2    1    2  501    0 -0.67973409339E+02  0.16889387993E+02 -0.88929378722E+03  0.10918432377E+04  0.62958127345E+03 0.  0.
         13    1    3    3    0    0 -0.29729842123E+02 -0.19564027014E+03 -0.23208008413E+02  0.19924254181E+03  0.00000000000E+00 0.  1.
          1    1    3    3  501    0 -0.38243567215E+02  0.21252965813E+03 -0.86608577881E+03  0.89260069588E+03  0.00000000000E+00 0.  1.
         -1    1    1    2    0  502  0.67973409339E+02 -0.16889387993E+02  0.12060197165E+03  0.13946494674E+03  0.00000000000E+00 0. -1.
<mgrwt>
<rscale>  1 0.63346524E+03</rscale>
<asrwt>0</asrwt>
<pdfrwt beam="1">  1       21 0.35585874E-01 0.63346524E+03</pdfrwt>
<pdfrwt beam="2">0</pdfrwt>
<totfact> 0.71936640E+02</totfact>
</mgrwt>
</event>
<event>
 6    1  0.1347953E-004  0.6277528E+03  0.7818608E-02  0.9849444E-01
         21   -1    0    0  501  502  0.00000000000E+00  0.00000000000E+00  0.10859864439E+03  0.10859864439E+03  0.00000000000E+00 0.  1.
         13   -1    0    0    0    0 -0.00000000000E+00 -0.00000000000E+00 -0.10000000000E+04  0.10000000000E+04  0.00000000000E+00 0.  1.
    9000005    2    1    2  501    0 -0.30967940109E+02  0.33962358352E+01 -0.85453603852E+03  0.10603327212E+04  0.62697933847E+03 0.  0.
         13    1    3    3    0    0 -0.19847440905E+03 -0.32991032892E+02 -0.86549171749E+03  0.88856986914E+03  0.00000000000E+00 0.  1.
          1    1    3    3  501    0  0.16750646894E+03  0.36387268727E+02  0.10955678968E+02  0.17176285210E+03  0.00000000000E+00 0.  1.
         -3    1    1    2    0  502  0.30967940109E+02 -0.33962358352E+01 -0.36865317091E+02  0.48265923142E+02  0.00000000000E+00 0. -1.
<mgrwt>
<rscale>  1 0.62775285E+03</rscale>
<asrwt>0</asrwt>
<pdfrwt beam="1">  1       21 0.16707483E-01 0.62775285E+03</pdfrwt>
<pdfrwt beam="2">0</pdfrwt>
<totfact> 0.31612245E+03</totfact>
</mgrwt>
</event>
<event>
 6    1  0.1347953E-004  0.6549835E+03  0.7818608E-02  0.9797473E-01
         21   -1    0    0  501  502  0.00000000000E+00  0.00000000000E+00  0.11647427715E+03  0.11647427715E+03  0.00000000000E+00 0.  1.
         13   -1    0    0    0    0 -0.00000000000E+00 -0.00000000000E+00 -0.10000000000E+04  0.10000000000E+04  0.00000000000E+00 0.  1.
    9000005    2    1    2  501    0  0.55060617516E+01  0.22538890145E+02 -0.87193539468E+03  0.10905387033E+04  0.65457238910E+03 0.  0.
         13    1    3    3    0    0  0.31057007653E+03  0.12252129822E+03 -0.43552572533E+03  0.54876944009E+03  0.00000000000E+00 0.  1.
          3    1    3    3  501    0 -0.30506401478E+03 -0.99982408076E+02 -0.43640966935E+03  0.54176926320E+03  0.00000000000E+00 0.  1.
         -1    1    1    2    0  502 -0.55060617516E+01 -0.22538890145E+02 -0.11590328163E+02  0.25935573869E+02  0.00000000000E+00 0. -1.
<mgrwt>
<rscale>  1 0.65498346E+03</rscale>
<asrwt>0</asrwt>
<pdfrwt beam="1">  1       21 0.17919119E-01 0.65498346E+03</pdfrwt>
<pdfrwt beam="2">0</pdfrwt>
<totfact> 0.27669433E+03</totfact>
</mgrwt>
</event>
<event>
 6    1  0.1347953E-004  0.6708091E+03  0.7818608E-02  0.9768497E-01
         21   -1    0    0  501  502  0.00000000000E+00  0.00000000000E+00  0.19075157229E+03  0.19075157229E+03  0.00000000000E+00 0. -1.
         13   -1    0    0    0    0 -0.00000000000E+00 -0.00000000000E+00 -0.10000000000E+04  0.10000000000E+04  0.00000000000E+00 0.  1.
    9000005    2    1    2  501    0 -0.72423606565E+02  0.13993468557E+03 -0.78293266697E+03  0.10310036012E+04  0.65204138643E+03 0.  0.
         13    1    3    3    0    0 -0.82419049386E+02  0.22699970096E+02 -0.87650974066E+03  0.88066878780E+03  0.00000000000E+00 0.  1.
          1    1    3    3  501    0  0.99954428202E+01  0.11723471547E+03  0.93577073692E+02  0.15033481337E+03  0.00000000000E+00 0.  1.
         -1    1    1    2    0  502  0.72423606565E+02 -0.13993468557E+03 -0.26315760743E+02  0.15974797112E+03  0.00000000000E+00 0. -1.
<mgrwt>
<rscale>  1 0.67080911E+03</rscale>
<asrwt>0</asrwt>
<pdfrwt beam="1">  1       21 0.29346395E-01 0.67080911E+03</pdfrwt>
<pdfrwt beam="2">0</pdfrwt>
<totfact> 0.10591482E+03</totfact>
</mgrwt>
</event>
<event>
 6    1  0.1347953E-004  0.6633928E+03  0.7818608E-02  0.9781968E-01
         21   -1    0    0  501  502  0.00000000000E+00  0.00000000000E+00  0.30689849100E+03  0.30689849100E+03  0.00000000000E+00 0.  1.
         13   -1    0    0    0    0 -0.00000000000E+00 -0.00000000000E+00 -0.10000000000E+04  0.10000000000E+04  0.00000000000E+00 0.  1.
    9000005    2    1    2  501    0 -0.11817074920E+03 -0.56450519048E+02 -0.86543905396E+03  0.10904470727E+04  0.65033766249E+03 0.  0.
         13    1    3    3    0    0 -0.36009968552E+03 -0.15803631071E+03 -0.43562088027E+03  0.58686694433E+03  0.00000000000E+00 0.  1.
          3    1    3    3  501    0  0.24192893632E+03  0.10158579166E+03 -0.42981817369E+03  0.50358012841E+03  0.00000000000E+00 0.  1.
         -1    1    1    2    0  502  0.11817074920E+03  0.56450519048E+02  0.17233754496E+03  0.21645141827E+03  0.00000000000E+00 0. -1.
<mgrwt>
<rscale>  1 0.66339284E+03</rscale>
<asrwt>0</asrwt>
<pdfrwt beam="1">  1       21 0.47215151E-01 0.66339284E+03</pdfrwt>
<pdfrwt beam="2">0</pdfrwt>
<totfact> 0.39813176E+02</totfact>
</mgrwt>
</event>
<event>
 6    1  0.1347953E-004  0.6436115E+03  0.7818608E-02  0.9818841E-01
         21   -1    0    0  501  502  0.00000000000E+00  0.00000000000E+00  0.23307641692E+03  0.23307641692E+03  0.00000000000E+00 0. -1.
         13   -1    0    0    0    0 -0.00000000000E+00 -0.00000000000E+00 -0.10000000000E+04  0.10000000000E+04  0.00000000000E+00 0.  1.
    9000005    2    1    2  501    0 -0.92969339956E+01  0.23864462792E+02 -0.89504221695E+03  0.11024229443E+04  0.64310172788E+03 0.  0.
         13    1    3    3    0    0  0.31194324317E+03  0.43251653562E+02 -0.52303274846E+03  0.61052645189E+03  0.00000000000E+00 0.  1.
          1    1    3    3  501    0 -0.32124017716E+03 -0.19387190770E+02 -0.37200946849E+03  0.49189649240E+03  0.00000000000E+00 0.  1.
         -1    1    1    2    0  502  0.92969339956E+01 -0.23864462792E+02  0.12811863387E+03  0.13065347263E+03  0.00000000000E+00 0. -1.
<mgrwt>
<rscale>  1 0.64361151E+03</rscale>
<asrwt>0</asrwt>
<pdfrwt beam="1">  1       21 0.35857909E-01 0.64361151E+03</pdfrwt>
<pdfrwt beam="2">0</pdfrwt>
<totfact> 0.70771970E+02</totfact>
</mgrwt>
</event>
<event>
 6    1  0.1347953E-004  0.6349658E+03  0.7818608E-02  0.9835406E-01
         21   -1    0    0  501  502  0.00000000000E+00  0.00000000000E+00  0.11004871726E+03  0.11004871726E+03  0.00000000000E+00 0.  1.
         13   -1    0    0    0    0 -0.00000000000E+00 -0.00000000000E+00 -0.10000000000E+04  0.10000000000E+04  0.00000000000E+00 0.  1.
    9000005    2    1    2  501    0  0.18334787299E+02 -0.21274484486E+02 -0.85972813078E+03  0.10687909055E+04  0.63434436448E+03 0.  0.
         13    1    3    3    0    0 -0.12595275140E+03 -0.28981696974E+03 -0.32522453032E+03  0.45346330243E+03  0.00000000000E+00 0.  1.
          3    1    3    3  501    0  0.14428753870E+03  0.26854248525E+03 -0.53450360046E+03  0.61532760308E+03  0.00000000000E+00 0.  1.
         -1    1    1    2    0  502 -0.18334787299E+02  0.21274484486E+02 -0.30223151965E+02  0.41257811747E+02  0.00000000000E+00 0. -1.
<mgrwt>
<rscale>  1 0.63496578E+03</rscale>
<asrwt>0</asrwt>
<pdfrwt beam="1">  1       21 0.16930571E-01 0.63496578E+03</pdfrwt>
<pdfrwt beam="2">0</pdfrwt>
<totfact> 0.30824747E+03</totfact>
</mgrwt>
</event>
<event>
 6    1  0.1347953E-004  0.6598599E+03  0.7818608E-02  0.9788452E-01
         21   -1    0    0  501  502  0.00000000000E+00  0.00000000000E+00  0.19980220708E+03  0.19980220708E+03  0.00000000000E+00 0. -1.
         13   -1    0    0    0    0 -0.00000000000E+00 -0.00000000000E+00 -0.10000000000E+04  0.10000000000E+04  0.00000000000E+00 0.  1.
    9000005    2    1    2  501    0 -0.87276231518E+02  0.37338382344E+02 -0.86271574306E+03  0.10861369553E+04  0.65299597002E+03 0.  0.
         13    1    3    3    0    0 -0.27481223575E+03 -0.18012332019E+03 -0.65148691492E+03  0.72965839658E+03  0.00000000000E+00 0.  1.
          3    1    3    3  501    0  0.18753600423E+03  0.21746170253E+03 -0.21122882814E+03  0.35647855867E+03  0.00000000000E+00 0.  1.
         -3    1    1    2    0  502  0.87276231518E+02 -0.37338382344E+02  0.62517950141E+02  0.11366525183E+03  0.00000000000E+00 0. -1.
<mgrwt>
<rscale>  1 0.65985986E+03</rscale>
<asrwt>0</asrwt>
<pdfrwt beam="1">  1       21 0.30738800E-01 0.65985986E+03</pdfrwt>
<pdfrwt beam="2">0</pdfrwt>
<totfact> 0.96587933E+02</totfact>
</mgrwt>
</event>
<event>
 6    1  0.1347953E-004  0.6575899E+03  0.7818608E-02  0.9792641E-01
         21   -1    0    0  501  502  0.00000000000E+00  0.00000000000E+00  0.45467413700E+03  0.45467413700E+03  0.00000000000E+00 0.  1.
         13   -1    0    0    0    0 -0.00000000000E+00 -0.00000000000E+00 -0.10000000000E+04  0.10000000000E+04  0.00000000000E+00 0.  1.
    9000005    2    1    2  501    0 -0.94311998513E+02  0.74276192392E+02 -0.88032410536E+03  0.10988152770E+04  0.64653907598E+03 0.  0.
         13    1    3    3    0    0 -0.51615974087E+02 -0.25425978547E+03 -0.63685683007E+03  0.68767642776E+03  0.00000000000E+00 0.  1.
          1    1    3    3  501    0 -0.42696024426E+02  0.32853597787E+03 -0.24346727529E+03  0.41113884929E+03  0.00000000000E+00 0.  1.
         -1    1    1    2    0  502  0.94311998513E+02 -0.74276192392E+02  0.33499824237E+03  0.35585885996E+03  0.00000000000E+00 0. -1.
<mgrwt>
<rscale>  1 0.65758990E+03</rscale>
<asrwt>0</asrwt>
<pdfrwt beam="1">  1       21 0.69949865E-01 0.65758990E+03</pdfrwt>
<pdfrwt beam="2">0</pdfrwt>
<totfact> 0.16809760E+02</totfact>
</mgrwt>
</event>
<event>
 6    1  0.1347953E-004  0.6868242E+03  0.7818608E-02  0.9740034E-01
         21   -1    0    0  501  502  0.00000000000E+00  0.00000000000E+00  0.17525335801E+03  0.17525335801E+03  0.00000000000E+00 0.  1.
         13   -1    0    0    0    0 -0.00000000000E+00 -0.00000000000E+00 -0.10000000000E+04  0.10000000000E+04  0.00000000000E+00 0.  1.
    9000005    2    1    2  501    0 -0.31745860307E+02 -0.22038787020E+02 -0.87468007231E+03  0.11121118087E+04  0.68573605598E+03 0.  0.
         13    1    3    3    0    0 -0.25058030548E+03  0.15728597143E+03 -0.74360800352E+03  0.80030133650E+03  0.00000000000E+00 0.  1.
          1    1    3    3  501    0  0.21883444517E+03 -0.17932475845E+03 -0.13107206879E+03  0.31181047225E+03  0.00000000000E+00 0.  1.
         -3    1    1    2    0  502  0.31745860307E+02  0.22038787020E+02  0.49933430322E+02  0.63141549265E+02  0.00000000000E+00 0. -1.
<mgrwt>
<rscale>  1 0.68682417E+03</rscale>
<asrwt>0</asrwt>
<pdfrwt beam="1">  1       21 0.26962054E-01 0.68682417E+03</pdfrwt>
<pdfrwt beam="2">0</pdfrwt>
<totfact> 0.12524347E+03</totfact>
</mgrwt>
</event>
<event>
 6    1  0.1347953E-004  0.6506993E+03  0.7818608E-02  0.9805468E-01
         21   -1    0    0  501  502  0.00000000000E+00  0.00000000000E+00  0.28435553554E+03  0.28435553554E+03  0.00000000000E+00 0.  1.
         13   -1    0    0    0    0 -0.00000000000E+00 -0.00000000000E+00 -0.10000000000E+04  0.10000000000E+04  0.00000000000E+00 0.  1.
    9000005    2    1    2  501    0  0.25690226638E+02  0.35710928648E+01 -0.89310501125E+03  0.11050095400E+04  0.65018211443E+03 0.  0.
         13    1    3    3    0    0  0.40032116723E+02 -0.79557025487E+02  0.85095031289E+02  0.12317895528E+03  0.00000000000E+00 0.  1.
          1    1    3    3  501    0 -0.14341890085E+02  0.83128118352E+02 -0.97820004254E+03  0.98183058472E+03  0.00000000000E+00 0.  1.
         -1    1    1    2    0  502 -0.25690226638E+02 -0.35710928648E+01  0.17746054679E+03  0.17934599554E+03  0.00000000000E+00 0. -1.
<mgrwt>
<rscale>  1 0.65069926E+03</rscale>
<asrwt>0</asrwt>
<pdfrwt beam="1">  1       21 0.43747004E-01 0.65069926E+03</pdfrwt>
<pdfrwt beam="2">0</pdfrwt>
<totfact> 0.46835548E+02</totfact>
</mgrwt>
</event>
<event>
 6    1  0.1347953E-004  0.8343190E+03  0.7818608E-02  0.9511629E-01
         21   -1    0    0  501  502  0.00000000000E+00  0.00000000000E+00  0.46317828805E+03  0.46317828805E+03  0.00000000000E+00 0. -1.
         13   -1    0    0    0    0 -0.00000000000E+00 -0.00000000000E+00 -0.10000000000E+04  0.10000000000E+04  0.00000000000E+00 0.  1.
    9000005    2    1    2  501    0  0.18167906828E+03 -0.49102495325E+03 -0.37886586606E+03  0.91631190783E+03  0.64959632034E+03 0.  0.
         13    1    3    3    0    0 -0.10968317578E+03 -0.38483803620E+03 -0.44580556943E+03  0.59906036331E+03  0.00000000000E+00 0.  1.
          3    1    3    3  501    0  0.29136224406E+03 -0.10618691705E+03  0.66939703367E+02  0.31725154452E+03  0.00000000000E+00 0.  1.
         -3    1    1    2    0  502 -0.18167906828E+03  0.49102495325E+03 -0.15795584588E+03  0.54686638022E+03  0.00000000000E+00 0. -1.
<mgrwt>
<rscale>  1 0.83431898E+03</rscale>
<asrwt>0</asrwt>
<pdfrwt beam="1">  1       21 0.71258196E-01 0.83431898E+03</pdfrwt>
<pdfrwt beam="2">0</pdfrwt>
<totfact> 0.15818641E+02</totfact>
</mgrwt>
</event>
<event>
 6    1  0.1347953E-004  0.6304221E+03  0.7818608E-02  0.9844226E-01
         21   -1    0    0  501  502  0.00000000000E+00  0.00000000000E+00  0.11634914790E+03  0.11634914790E+03  0.00000000000E+00 0.  1.
         13   -1    0    0    0    0 -0.00000000000E+00 -0.00000000000E+00 -0.10000000000E+04  0.10000000000E+04  0.00000000000E+00 0.  1.
    9000005    2    1    2  501    0 -0.43444226304E+02  0.27824346806E+02 -0.80968348216E+03  0.10261672934E+04  0.62830755016E+03 0.  0.
         13    1    3    3    0    0 -0.16713478375E+03  0.28073975986E+03 -0.56732043444E+03  0.65467650334E+03  0.00000000000E+00 0.  1.
          3    1    3    3  501    0  0.12369055744E+03 -0.25291541305E+03 -0.24236304772E+03  0.37149079001E+03  0.00000000000E+00 0.  1.
         -1    1    1    2    0  502  0.43444226304E+02 -0.27824346806E+02 -0.73967369942E+02  0.90181854552E+02  0.00000000000E+00 0. -1.
<mgrwt>
<rscale>  1 0.63042206E+03</rscale>
<asrwt>0</asrwt>
<pdfrwt beam="1">  1       21 0.17899868E-01 0.63042206E+03</pdfrwt>
<pdfrwt beam="2">0</pdfrwt>
<totfact> 0.27748613E+03</totfact>
</mgrwt>
</event>
<event>
 6    1  0.1347953E-004  0.6511481E+03  0.7818608E-02  0.9804627E-01
         21   -1    0    0  501  502  0.00000000000E+00  0.00000000000E+00  0.25269705477E+03  0.25269705477E+03  0.00000000000E+00 0. -1.
         13   -1    0    0    0    0 -0.00000000000E+00 -0.00000000000E+00 -0.10000000000E+04  0.10000000000E+04  0.00000000000E+00 0.  1.
    9000005    2    1    2  501    0 -0.43603350537E+02 -0.19371193587E+02 -0.88969700032E+03  0.11025219495E+04  0.64939772205E+03 0.  0.
         13    1    3    3    0    0 -0.16413971698E+03 -0.25627778740E+03 -0.73371124908E+03  0.79432508965E+03  0.00000000000E+00 0.  1.
          1    1    3    3  501    0  0.12053636644E+03  0.23690659382E+03 -0.15598575124E+03  0.30819685985E+03  0.00000000000E+00 0.  1.
         -1    1    1    2    0  502  0.43603350537E+02  0.19371193587E+02  0.14239405509E+03  0.15017510528E+03  0.00000000000E+00 0. -1.
<mgrwt>
<rscale>  1 0.65114814E+03</rscale>
<asrwt>0</asrwt>
<pdfrwt beam="1">  1       21 0.38876469E-01 0.65114814E+03</pdfrwt>
<pdfrwt beam="2">0</pdfrwt>
<totfact> 0.59903799E+02</totfact>
</mgrwt>
</event>
<event>
 6    1  0.1347953E-004  0.6690877E+03  0.7818608E-02  0.9771607E-01
         21   -1    0    0  501  502  0.00000000000E+00  0.00000000000E+00  0.25266343140E+03  0.25266343140E+03  0.00000000000E+00 0. -1.
         13   -1    0    0    0    0 -0.00000000000E+00 -0.00000000000E+00 -0.10000000000E+04  0.10000000000E+04  0.00000000000E+00 0.  1.
    9000005    2    1    2  501    0 -0.57660306307E+02  0.43465906092E+02 -0.87769482486E+03  0.11036423896E+04  0.66517991752E+03 0.  0.
         13    1    3    3    0    0 -0.11690009744E+03  0.31672636535E+03 -0.26171416232E+03  0.42717154171E+03  0.00000000000E+00 0.  1.
          3    1    3    3  501    0  0.59239791131E+02 -0.27326045926E+03 -0.61598066254E+03  0.67647084791E+03  0.00000000000E+00 0.  1.
         -3    1    1    2    0  502  0.57660306307E+02 -0.43465906092E+02  0.13035825626E+03  0.14902104177E+03  0.00000000000E+00 0. -1.
<mgrwt>
<rscale>  1 0.66908768E+03</rscale>
<asrwt>0</asrwt>
<pdfrwt beam="1">  1       21 0.38871296E-01 0.66908768E+03</pdfrwt>
<pdfrwt beam="2">0</pdfrwt>
<totfact> 0.59836637E+02</totfact>
</mgrwt>
</event>
<event>
 6    1  0.1347953E-004  0.6452836E+03  0.7818608E-02  0.9815670E-01
         21   -1    0    0  501  502  0.00000000000E+00  0.00000000000E+00  0.15358092377E+03  0.15358092377E+03  0.00000000000E+00 0.  1.
         13   -1    0    0    0    0 -0.00000000000E+00 -0.00000000000E+00 -0.10000000000E+04  0.10000000000E+04  0.00000000000E+00 0.  1.
    9000005    2    1    2  501    0  0.48992709365E+01 -0.42780014622E+02 -0.88533565308E+03  0.10955410025E+04  0.64384527417E+03 0.  0.
         13    1    3    3    0    0 -0.16152613381E+03 -0.20771854508E+03 -0.80647240271E+03  0.84831328069E+03  0.00000000000E+00 0.  1.
          3    1    3    3  501    0  0.16642540475E+03  0.16493853046E+03 -0.78863250370E+02  0.24722772182E+03  0.00000000000E+00 0.  1.
         -1    1    1    2    0  502 -0.48992709365E+01  0.42780014622E+02  0.38916576850E+02  0.58039921265E+02  0.00000000000E+00 0. -1.
<mgrwt>
<rscale>  1 0.64528356E+03</rscale>
<asrwt>0</asrwt>
<pdfrwt beam="1">  1       21 0.23627834E-01 0.64528356E+03</pdfrwt>
<pdfrwt beam="2">0</pdfrwt>
<totfact> 0.16264138E+03</totfact>
</mgrwt>
</event>
<event>
 6    1  0.1347953E-004  0.6564130E+03  0.7818608E-02  0.9794820E-01
         21   -1    0    0  501  502  0.00000000000E+00  0.00000000000E+00  0.16785935291E+03  0.16785935291E+03  0.00000000000E+00 0.  1.
         13   -1    0    0    0    0 -0.00000000000E+00 -0.00000000000E+00 -0.10000000000E+04  0.10000000000E+04  0.00000000000E+00 0.  1.
    9000005    2    1    2  501    0 -0.43305918567E+02 -0.68679227944E+02 -0.86011940698E+03  0.10819812420E+04  0.65137222444E+03 0.  0.
         13    1    3    3    0    0 -0.23972608903E+03  0.47773951901E+02 -0.62478262425E+02  0.25229839777E+03  0.00000000000E+00 0.  1.
          3    1    3    3  501    0  0.19642017047E+03 -0.11645317984E+03 -0.79764114456E+03  0.82968284420E+03  0.00000000000E+00 0.  1.
         -3    1    1    2    0  502  0.43305918567E+02  0.68679227944E+02  0.27978759897E+02  0.85878110944E+02  0.00000000000E+00 0. -1.
<mgrwt>
<rscale>  1 0.65641299E+03</rscale>
<asrwt>0</asrwt>
<pdfrwt beam="1">  1       21 0.25824515E-01 0.65641299E+03</pdfrwt>
<pdfrwt beam="2">0</pdfrwt>
<totfact> 0.13658173E+03</totfact>
</mgrwt>
</event>
<event>
 6    1  0.1347953E-004  0.6487445E+03  0.7818608E-02  0.9809138E-01
         21   -1    0    0  501  502  0.00000000000E+00  0.00000000000E+00  0.14829634193E+03  0.14829634193E+03  0.00000000000E+00 0.  1.
         13   -1    0    0    0    0 -0.00000000000E+00 -0.00000000000E+00 -0.10000000000E+04  0.10000000000E+04  0.00000000000E+00 0.  1.
    9000005    2    1    2  501    0 -0.28032973622E+02  0.15094800310E+02 -0.88818030550E+03  0.10998789234E+04  0.64796272310E+03 0.  0.
         13    1    3    3    0    0 -0.23871157464E+03 -0.83688883841E+02 -0.90027393137E+02  0.26849949099E+03  0.00000000000E+00 0.  1.
          1    1    3    3  501    0  0.21067860102E+03  0.98783684151E+02 -0.79815291236E+03  0.83137943244E+03  0.00000000000E+00 0.  1.
         -1    1    1    2    0  502  0.28032973622E+02 -0.15094800310E+02  0.36476647426E+02  0.48417418497E+02  0.00000000000E+00 0. -1.
<mgrwt>
<rscale>  1 0.64874447E+03</rscale>
<asrwt>0</asrwt>
<pdfrwt beam="1">  1       21 0.22814821E-01 0.64874447E+03</pdfrwt>
<pdfrwt beam="2">0</pdfrwt>
<totfact> 0.17407702E+03</totfact>
</mgrwt>
</event>
<event>
 6    1  0.1347953E-004  0.6480148E+03  0.7818608E-02  0.9810511E-01
         21   -1    0    0  501  502  0.00000000000E+00  0.00000000000E+00  0.36257463499E+03  0.36257463499E+03  0.00000000000E+00 0.  1.
         13   -1    0    0    0    0 -0.00000000000E+00 -0.00000000000E+00 -0.10000000000E+04  0.10000000000E+04  0.00000000000E+00 0.  1.
    9000005    2    1    2  501    0 -0.27052327430E+02 -0.34653763142E+02 -0.89294457957E+03  0.11033010715E+04  0.64652186386E+03 0.  0.
         13    1    3    3    0    0  0.16591583062E+03  0.50125442532E+02 -0.87473993212E+03  0.89174579993E+03  0.00000000000E+00 0.  1.
          3    1    3    3  501    0 -0.19296815805E+03 -0.84779205675E+02 -0.18204647453E+02  0.21155527156E+03  0.00000000000E+00 0.  1.
         -3    1    1    2    0  502  0.27052327430E+02  0.34653763142E+02  0.25551921457E+03  0.25927356350E+03  0.00000000000E+00 0. -1.
<mgrwt>
<rscale>  1 0.64801484E+03</rscale>
<asrwt>0</asrwt>
<pdfrwt beam="1">  1       21 0.55780711E-01 0.64801484E+03</pdfrwt>
<pdfrwt beam="2">0</pdfrwt>
<totfact> 0.27847523E+02</totfact>
</mgrwt>
</event>
<event>
 6    1  0.1347953E-004  0.6428387E+03  0.7818608E-02  0.9820310E-01
         21   -1    0    0  501  502  0.00000000000E+00  0.00000000000E+00  0.13902124089E+03  0.13902124089E+03  0.00000000000E+00 0.  1.
         13   -1    0    0    0    0 -0.00000000000E+00 -0.00000000000E+00 -0.10000000000E+04  0.10000000000E+04  0.00000000000E+00 0.  1.
    9000005    2    1    2  501    0  0.22161894330E+02 -0.39480162503E+02 -0.88010292968E+03  0.10898728260E+04  0.64124237004E+03 0.  0.
         13    1    3    3    0    0 -0.56741830244E+02  0.28144761197E+03 -0.26066179955E+03  0.38778469197E+03  0.00000000000E+00 0.  1.
          3    1    3    3  501    0  0.78903724574E+02 -0.32092777447E+03 -0.61944113013E+03  0.70208813398E+03  0.00000000000E+00 0.  1.
         -1    1    1    2    0  502 -0.22161894330E+02  0.39480162503E+02  0.19124170569E+02  0.49148414944E+02  0.00000000000E+00 0. -1.
<mgrwt>
<rscale>  1 0.64283871E+03</rscale>
<asrwt>0</asrwt>
<pdfrwt beam="1">  1       21 0.21387883E-01 0.64283871E+03</pdfrwt>
<pdfrwt beam="2">0</pdfrwt>
<totfact> 0.19731192E+03</totfact>
</mgrwt>
</event>
<event>
 6    1  0.1347953E-004  0.6574809E+03  0.7818608E-02  0.9792842E-01
         21   -1    0    0  501  502  0.00000000000E+00  0.00000000000E+00  0.12403617719E+03  0.12403617719E+03  0.00000000000E+00 0.  1.
         13   -1    0    0    0    0 -0.00000000000E+00 -0.00000000000E+00 -0.10000000000E+04  0.10000000000E+04  0.00000000000E+00 0.  1.
    9000005    2    1    2  501    0 -0.15201775272E+02  0.17893424158E+02 -0.88171328372E+03  0.10998633639E+04  0.65706151619E+03 0.  0.
         13    1    3    3    0    0  0.72368163514E+02 -0.30091080686E+03 -0.55260344683E+03  0.63336800853E+03  0.00000000000E+00 0.  1.
          1    1    3    3  501    0 -0.87569938785E+02  0.31880423101E+03 -0.32910983688E+03  0.46649535542E+03  0.00000000000E+00 0.  1.
         -3    1    1    2    0  502  0.15201775272E+02 -0.17893424158E+02  0.57494609039E+01  0.24172813245E+02  0.00000000000E+00 0. -1.
<mgrwt>
<rscale>  1 0.65748088E+03</rscale>
<asrwt>0</asrwt>
<pdfrwt beam="1">  1       21 0.19082488E-01 0.65748088E+03</pdfrwt>
<pdfrwt beam="2">0</pdfrwt>
<totfact> 0.24545812E+03</totfact>
</mgrwt>
</event>
<event>
 6    1  0.1347953E-004  0.9091255E+03  0.7818608E-02  0.9414245E-01
         21   -1    0    0  501  502  0.00000000000E+00  0.00000000000E+00  0.60084532491E+03  0.60084532491E+03  0.00000000000E+00 0. -1.
         13   -1    0    0    0    0 -0.00000000000E+00 -0.00000000000E+00 -0.10000000000E+04  0.10000000000E+04  0.00000000000E+00 0.  1.
    9000005    2    1    2  501    0 -0.53305544072E+03  0.31139564447E+03 -0.37381941230E+03  0.98298027021E+03  0.66737838467E+03 0.  0.
         13    1    3    3    0    0 -0.12886855008E+03  0.30992698474E+03 -0.46026089085E+03  0.56965070588E+03  0.00000000000E+00 0.  1.
          1    1    3    3  501    0 -0.40418689065E+03  0.14686597301E+01  0.86441478547E+02  0.41332956433E+03  0.00000000000E+00 0.  1.
         -1    1    1    2    0  502  0.53305544072E+03 -0.31139564447E+03 -0.25335262794E+02  0.61786505470E+03  0.00000000000E+00 0. -1.
<mgrwt>
<rscale>  1 0.90912555E+03</rscale>
<asrwt>0</asrwt>
<pdfrwt beam="1">  1       21 0.92437740E-01 0.90912555E+03</pdfrwt>
<pdfrwt beam="2">0</pdfrwt>
<totfact> 0.85108628E+01</totfact>
</mgrwt>
</event>
<event>
 6    1  0.1347953E-004  0.6424995E+03  0.7818608E-02  0.9820956E-01
         21   -1    0    0  501  502  0.00000000000E+00  0.00000000000E+00  0.45945434193E+03  0.45945434193E+03  0.00000000000E+00 0. -1.
         13   -1    0    0    0    0 -0.00000000000E+00 -0.00000000000E+00 -0.10000000000E+04  0.10000000000E+04  0.00000000000E+00 0.  1.
    9000005    2    1    2  501    0 -0.18483041833E+02  0.14838964026E+02 -0.89636359893E+03  0.11028478014E+04  0.64206211067E+03 0.  0.
         13    1    3    3    0    0 -0.22324482613E+03  0.84695448350E+02 -0.70274312225E+02  0.24889767039E+03  0.00000000000E+00 0.  1.
          1    1    3    3  501    0  0.20476178430E+03 -0.69856484324E+02 -0.82608928670E+03  0.85395013105E+03  0.00000000000E+00 0.  1.
         -3    1    1    2    0  502  0.18483041833E+02 -0.14838964026E+02  0.35581794086E+03  0.35660654049E+03  0.00000000000E+00 0. -1.
<mgrwt>
<rscale>  1 0.64249947E+03</rscale>
<asrwt>0</asrwt>
<pdfrwt beam="1">  1       21 0.70685281E-01 0.64249947E+03</pdfrwt>
<pdfrwt beam="2">0</pdfrwt>
<totfact> 0.16444695E+02</totfact>
</mgrwt>
</event>
<event>
 6    1  0.1347953E-004  0.6606226E+03  0.7818608E-02  0.9787048E-01
         21   -1    0    0  501  502  0.00000000000E+00  0.00000000000E+00  0.17018418833E+03  0.17018418833E+03  0.00000000000E+00 0. -1.
         13   -1    0    0    0    0 -0.00000000000E+00 -0.00000000000E+00 -0.10000000000E+04  0.10000000000E+04  0.00000000000E+00 0.  1.
    9000005    2    1    2  501    0 -0.52621899593E+02 -0.60859259064E+02 -0.85983243330E+03  0.10843127070E+04  0.65570520777E+03 0.  0.
         13    1    3    3    0    0 -0.24745790299E+03  0.16629635965E+03 -0.66068274917E+03  0.72483900835E+03  0.00000000000E+00 0.  1.
          3    1    3    3  501    0  0.19483600340E+03 -0.22715561872E+03 -0.19914968413E+03  0.35947369865E+03  0.00000000000E+00 0.  1.
         -3    1    1    2    0  502  0.52621899593E+02  0.60859259064E+02  0.30016621633E+02  0.85871481325E+02  0.00000000000E+00 0. -1.
<mgrwt>
<rscale>  1 0.66062261E+03</rscale>
<asrwt>0</asrwt>
<pdfrwt beam="1">  1       21 0.26182182E-01 0.66062261E+03</pdfrwt>
<pdfrwt beam="2">0</pdfrwt>
<totfact> 0.13290253E+03</totfact>
</mgrwt>
</event>
<event>
 6    1  0.1347953E-004  0.7371708E+03  0.7818608E-02  0.9655695E-01
         21   -1    0    0  501  502  0.00000000000E+00  0.00000000000E+00  0.43748320736E+03  0.43748320736E+03  0.00000000000E+00 0. -1.
         13   -1    0    0    0    0 -0.00000000000E+00 -0.00000000000E+00 -0.10000000000E+04  0.10000000000E+04  0.00000000000E+00 0.  1.
    9000005    2    1    2  501    0  0.28672253214E+03 -0.20630824937E+03 -0.73796494761E+03  0.10430786444E+04  0.64703005364E+03 0.  0.
         13    1    3    3    0    0 -0.64944703191E+02 -0.23040614041E+03 -0.63074009506E+03  0.67463906759E+03  0.00000000000E+00 0.  1.
          1    1    3    3  501    0  0.35166723533E+03  0.24097891038E+02 -0.10722485256E+03  0.36843957682E+03  0.00000000000E+00 0.  1.
         -3    1    1    2    0  502 -0.28672253214E+03  0.20630824937E+03  0.17544815497E+03  0.39440456295E+03  0.00000000000E+00 0. -1.
<mgrwt>
<rscale>  1 0.73717080E+03</rscale>
<asrwt>0</asrwt>
<pdfrwt beam="1">  1       21 0.67305107E-01 0.73717080E+03</pdfrwt>
<pdfrwt beam="2">0</pdfrwt>
<totfact> 0.18183484E+02</totfact>
</mgrwt>
</event>
<event>
 6    1  0.1347953E-004  0.6921440E+03  0.7818608E-02  0.9730762E-01
         21   -1    0    0  501  502  0.00000000000E+00  0.00000000000E+00  0.12926416812E+03  0.12926416812E+03  0.00000000000E+00 0.  1.
         13   -1    0    0    0    0 -0.00000000000E+00 -0.00000000000E+00 -0.10000000000E+04  0.10000000000E+04  0.00000000000E+00 0.  1.
    9000005    2    1    2  501    0  0.15480588199E+02 -0.15770592988E+02 -0.86202822760E+03  0.11055116401E+04  0.69179112530E+03 0.  0.
         13    1    3    3    0    0 -0.64268368689E+02 -0.32386760327E+01  0.11144914558E+03  0.12869275150E+03  0.00000000000E+00 0.  1.
          3    1    3    3  501    0  0.79748956889E+02 -0.12531916955E+02 -0.97347737318E+03  0.97681888862E+03  0.00000000000E+00 0.  1.
         -1    1    1    2    0  502 -0.15480588199E+02  0.15770592988E+02 -0.87076042810E+01  0.23752528002E+02  0.00000000000E+00 0. -1.
<mgrwt>
<rscale>  1 0.69214400E+03</rscale>
<asrwt>0</asrwt>
<pdfrwt beam="1">  1       21 0.19886795E-01 0.69214400E+03</pdfrwt>
<pdfrwt beam="2">0</pdfrwt>
<totfact> 0.22652062E+03</totfact>
</mgrwt>
</event>
<event>
 6    1  0.1347953E-004  0.6509468E+03  0.7818608E-02  0.9805004E-01
         21   -1    0    0  501  502  0.00000000000E+00  0.00000000000E+00  0.17802588286E+03  0.17802588286E+03  0.00000000000E+00 0.  1.
         13   -1    0    0    0    0 -0.00000000000E+00 -0.00000000000E+00 -0.10000000000E+04  0.10000000000E+04  0.00000000000E+00 0.  1.
    9000005    2    1    2  501    0 -0.26645626655E+01  0.40255591970E+02 -0.88776862226E+03  0.11008473270E+04  0.64969538874E+03 0.  0.
         13    1    3    3    0    0  0.21268495002E+03  0.25807402993E+03 -0.36567144785E+03  0.49553274429E+03  0.00000000000E+00 0.  1.
          3    1    3    3  501    0 -0.21534951269E+03 -0.21781843796E+03 -0.52209717441E+03  0.60531458273E+03  0.00000000000E+00 0.  1.
         -1    1    1    2    0  502  0.26645626655E+01 -0.40255591970E+02  0.65794505119E+02  0.77178555849E+02  0.00000000000E+00 0. -1.
<mgrwt>
<rscale>  1 0.65094678E+03</rscale>
<asrwt>0</asrwt>
<pdfrwt beam="1">  1       21 0.27388597E-01 0.65094678E+03</pdfrwt>
<pdfrwt beam="2">0</pdfrwt>
<totfact> 0.12165327E+03</totfact>
</mgrwt>
</event>
<event>
 6    1  0.1347953E-004  0.6601374E+03  0.7818608E-02  0.9787941E-01
         21   -1    0    0  501  502  0.00000000000E+00  0.00000000000E+00  0.20256837441E+03  0.20256837441E+03  0.00000000000E+00 0. -1.
         13   -1    0    0    0    0 -0.00000000000E+00 -0.00000000000E+00 -0.10000000000E+04  0.10000000000E+04  0.00000000000E+00 0.  1.
    9000005    2    1    2  501    0 -0.79215855759E+02  0.60952536102E+02 -0.86037591716E+03  0.10844483198E+04  0.65252668607E+03 0.  0.
         13    1    3    3    0    0 -0.22191265970E+03 -0.10861354186E+03 -0.82352274909E+03  0.85978593166E+03  0.00000000000E+00 0.  1.
          3    1    3    3  501    0  0.14269680394E+03  0.16956607796E+03 -0.36853168069E+02  0.22466238814E+03  0.00000000000E+00 0.  1.
         -3    1    1    2    0  502  0.79215855759E+02 -0.60952536102E+02  0.62944291569E+02  0.11812005461E+03  0.00000000000E+00 0. -1.
<mgrwt>
<rscale>  1 0.66013744E+03</rscale>
<asrwt>0</asrwt>
<pdfrwt beam="1">  1       21 0.31164364E-01 0.66013744E+03</pdfrwt>
<pdfrwt beam="2">0</pdfrwt>
<totfact> 0.93953734E+02</totfact>
</mgrwt>
</event>
<event>
 6    1  0.1347953E-004  0.6546119E+03  0.7818608E-02  0.9798164E-01
         21   -1    0    0  501  502  0.00000000000E+00  0.00000000000E+00  0.15111241178E+03  0.15111241178E+03  0.00000000000E+00 0. -1.
         13   -1    0    0    0    0 -0.00000000000E+00 -0.00000000000E+00 -0.10000000000E+04  0.10000000000E+04  0.00000000000E+00 0.  1.
    9000005    2    1    2  501    0  0.64058776927E+02 -0.51527410031E+02 -0.84488203438E+03  0.10688041780E+04  0.64942907081E+03 0.  0.
         13    1    3    3    0    0  0.67154462893E+02 -0.26220596131E+03 -0.90264819787E+02  0.28532337045E+03  0.00000000000E+00 0.  1.
          3    1    3    3  501    0 -0.30956859656E+01  0.21067855128E+03 -0.75461721459E+03  0.78348080755E+03  0.00000000000E+00 0.  1.
         -1    1    1    2    0  502 -0.64058776927E+02  0.51527410031E+02 -0.40055538423E+01  0.82308233777E+02  0.00000000000E+00 0. -1.
<mgrwt>
<rscale>  1 0.65461188E+03</rscale>
<asrwt>0</asrwt>
<pdfrwt beam="1">  1       21 0.23248063E-01 0.65461188E+03</pdfrwt>
<pdfrwt beam="2">0</pdfrwt>
<totfact> 0.16777953E+03</totfact>
</mgrwt>
</event>
<event>
 6    1  0.1347953E-004  0.6559912E+03  0.7818608E-02  0.9795602E-01
         21   -1    0    0  501  502  0.00000000000E+00  0.00000000000E+00  0.13331369562E+03  0.13331369562E+03  0.00000000000E+00 0.  1.
         13   -1    0    0    0    0 -0.00000000000E+00 -0.00000000000E+00 -0.10000000000E+04  0.10000000000E+04  0.00000000000E+00 0.  1.
    9000005    2    1    2  501    0  0.27191478537E+02 -0.49216032840E+02 -0.85184895572E+03  0.10751609544E+04  0.65357695811E+03 0.  0.
         13    1    3    3    0    0 -0.30147592829E+03 -0.24717945713E+02 -0.26524043012E+03  0.40230734265E+03  0.00000000000E+00 0.  1.
          3    1    3    3  501    0  0.32866740683E+03 -0.24498087127E+02 -0.58660852560E+03  0.67285361178E+03  0.00000000000E+00 0.  1.
         -1    1    1    2    0  502 -0.27191478537E+02  0.49216032840E+02 -0.14837348656E+02  0.58152741196E+02  0.00000000000E+00 0. -1.
<mgrwt>
<rscale>  1 0.65599118E+03</rscale>
<asrwt>0</asrwt>
<pdfrwt beam="1">  1       21 0.20509799E-01 0.65599118E+03</pdfrwt>
<pdfrwt beam="2">0</pdfrwt>
<totfact> 0.21378609E+03</totfact>
</mgrwt>
</event>
<event>
 6    1  0.1347953E-004  0.6708218E+03  0.7818608E-02  0.9768474E-01
         21   -1    0    0  501  502  0.00000000000E+00  0.00000000000E+00  0.16712123307E+03  0.16712123307E+03  0.00000000000E+00 0.  1.
         13   -1    0    0    0    0 -0.00000000000E+00 -0.00000000000E+00 -0.10000000000E+04  0.10000000000E+04  0.00000000000E+00 0.  1.
    9000005    2    1    2  501    0 -0.71237224509E+02 -0.11768536192E+03 -0.75123166500E+03  0.10071498737E+04  0.65656474702E+03 0.  0.
         13    1    3    3    0    0  0.13904177957E+03 -0.25819845670E+02 -0.76433330842E+03  0.77730604479E+03  0.00000000000E+00 0.  1.
          1    1    3    3  501    0 -0.21027900408E+03 -0.91865516249E+02  0.13101643420E+02  0.22984382892E+03  0.00000000000E+00 0.  1.
         -1    1    1    2    0  502  0.71237224509E+02  0.11768536192E+03 -0.81647101923E+02  0.15997135937E+03  0.00000000000E+00 0. -1.
<mgrwt>
<rscale>  1 0.67082177E+03</rscale>
<asrwt>0</asrwt>
<pdfrwt beam="1">  1       21 0.25710958E-01 0.67082177E+03</pdfrwt>
<pdfrwt beam="2">0</pdfrwt>
<totfact> 0.13766621E+03</totfact>
</mgrwt>
</event>
<event>
 6    1  0.1347953E-004  0.9597666E+03  0.7818608E-02  0.9353807E-01
         21   -1    0    0  501  502  0.00000000000E+00  0.00000000000E+00  0.78989304083E+03  0.78989304083E+03  0.00000000000E+00 0. -1.
         13   -1    0    0    0    0 -0.00000000000E+00 -0.00000000000E+00 -0.10000000000E+04  0.10000000000E+04  0.00000000000E+00 0.  1.
    9000005    2    1    2  501    0 -0.71186119608E+03 -0.31231671480E+02 -0.41917238062E+03  0.10473096245E+04  0.64298536925E+03 0.  0.
         13    1    3    3    0    0 -0.22106846730E+03  0.29622832085E+03 -0.15290607413E+03  0.40000344100E+03  0.00000000000E+00 0.  1.
          3    1    3    3  501    0 -0.49079272878E+03 -0.32745999233E+03 -0.26626630649E+03  0.64730618348E+03  0.00000000000E+00 0.  1.
         -1    1    1    2    0  502  0.71186119608E+03  0.31231671480E+02  0.20906542145E+03  0.74258341635E+03  0.00000000000E+00 0. -1.
<mgrwt>
<rscale>  1 0.95976662E+03</rscale>
<asrwt>0</asrwt>
<pdfrwt beam="1">  1       21 0.12152200E+00 0.95976662E+03</pdfrwt>
<pdfrwt beam="2">0</pdfrwt>
<totfact> 0.42613967E+01</totfact>
</mgrwt>
</event>
<event>
 6    1  0.1347953E-004  0.6751025E+03  0.7818608E-02  0.9760784E-01
         21   -1    0    0  501  502  0.00000000000E+00  0.00000000000E+00  0.19646185776E+03  0.19646185776E+03  0.00000000000E+00 0. -1.
         13   -1    0    0    0    0 -0.00000000000E+00 -0.00000000000E+00 -0.10000000000E+04  0.10000000000E+04  0.00000000000E+00 0.  1.
    9000005    2    1    2  501    0  0.11015074364E+03 -0.14216885074E+03 -0.74939561373E+03  0.10086412470E+04  0.65070593264E+03 0.  0.
         13    1    3    3    0    0  0.26491059762E+03 -0.28495049470E+03 -0.68615428434E+03  0.78878521226E+03  0.00000000000E+00 0.  1.
          3    1    3    3  501    0 -0.15475985398E+03  0.14278164396E+03 -0.63241329385E+02  0.21985603471E+03  0.00000000000E+00 0.  1.
         -1    1    1    2    0  502 -0.11015074364E+03  0.14216885074E+03 -0.54142528510E+02  0.18782061079E+03  0.00000000000E+00 0. -1.
<mgrwt>
<rscale>  1 0.67510250E+03</rscale>
<asrwt>0</asrwt>
<pdfrwt beam="1">  1       21 0.30224900E-01 0.67510250E+03</pdfrwt>
<pdfrwt beam="2">0</pdfrwt>
<totfact> 0.99816672E+02</totfact>
</mgrwt>
</event>
<event>
 6    1  0.1347953E-004  0.6561731E+03  0.7818608E-02  0.9795264E-01
         21   -1    0    0  501  502  0.00000000000E+00  0.00000000000E+00  0.14642137855E+03  0.14642137855E+03  0.00000000000E+00 0.  1.
         13   -1    0    0    0    0 -0.00000000000E+00 -0.00000000000E+00 -0.10000000000E+04  0.10000000000E+04  0.00000000000E+00 0.  1.
    9000005    2    1    2  501    0 -0.33576189678E+02  0.21030116615E+02 -0.88080205808E+03  0.10983512026E+04  0.65497593264E+03 0.  0.
         13    1    3    3    0    0  0.14318318523E+03 -0.74795730427E+02  0.31132346337E+02  0.16451458541E+03  0.00000000000E+00 0.  1.
          1    1    3    3  501    0 -0.17675937491E+03  0.95825847042E+02 -0.91193440441E+03  0.93383661715E+03  0.00000000000E+00 0.  1.
         -1    1    1    2    0  502  0.33576189678E+02 -0.21030116615E+02  0.27223436633E+02  0.48070175996E+02  0.00000000000E+00 0. -1.
<mgrwt>
<rscale>  1 0.65617307E+03</rscale>
<asrwt>0</asrwt>
<pdfrwt beam="1">  1       21 0.22526365E-01 0.65617307E+03</pdfrwt>
<pdfrwt beam="2">0</pdfrwt>
<totfact> 0.17836860E+03</totfact>
</mgrwt>
</event>
<event>
 6    1  0.1347953E-004  0.1018086E+04  0.7818608E-02  0.9288928E-01
         21   -1    0    0  501  502  0.00000000000E+00  0.00000000000E+00  0.65936682760E+03  0.65936682760E+03  0.00000000000E+00 0. -1.
         13   -1    0    0    0    0 -0.00000000000E+00 -0.00000000000E+00 -0.10000000000E+04  0.10000000000E+04  0.00000000000E+00 0.  1.
    9000005    2    1    2  501    0  0.20752815694E+03  0.56741232028E+03 -0.17623351831E+03  0.10332263295E+04  0.81943499913E+03 0.  0.
         13    1    3    3    0    0 -0.14269432169E+03 -0.14125353034E+03 -0.13444528482E+03  0.24163973987E+03  0.00000000000E+00 0.  1.
          1    1    3    3  501    0  0.35022247863E+03  0.70866585062E+03 -0.41788233489E+02  0.79158658960E+03  0.00000000000E+00 0.  1.
         -3    1    1    2    0  502 -0.20752815694E+03 -0.56741232028E+03 -0.16439965410E+03  0.62614049813E+03  0.00000000000E+00 0. -1.
<mgrwt>
<rscale>  1 0.10180857E+04</rscale>
<asrwt>0</asrwt>
<pdfrwt beam="1">  1       21 0.10144105E+00 0.10180857E+04</pdfrwt>
<pdfrwt beam="2">0</pdfrwt>
<totfact> 0.67035896E+01</totfact>
</mgrwt>
</event>
<event>
 6    1  0.1347953E-004  0.6393332E+03  0.7818608E-02  0.9827003E-01
         21   -1    0    0  501  502  0.00000000000E+00  0.00000000000E+00  0.11277082811E+03  0.11277082811E+03  0.00000000000E+00 0.  1.
         13   -1    0    0    0    0 -0.00000000000E+00 -0.00000000000E+00 -0.10000000000E+04  0.10000000000E+04  0.00000000000E+00 0.  1.
    9000005    2    1    2  501    0 -0.29613600978E+02  0.83304023807E+01 -0.86054746716E+03  0.10720489134E+04  0.63859264687E+03 0.  0.
         13    1    3    3    0    0  0.13633583132E+03 -0.27638003494E+03 -0.45394552984E+03  0.54867105508E+03  0.00000000000E+00 0.  1.
          3    1    3    3  501    0 -0.16594943230E+03  0.28471043732E+03 -0.40660193731E+03  0.52337785837E+03  0.00000000000E+00 0.  1.
         -1    1    1    2    0  502  0.29613600978E+02 -0.83304023807E+01 -0.26681704731E+02  0.40721914666E+02  0.00000000000E+00 0. -1.
<mgrwt>
<rscale>  1 0.63933319E+03</rscale>
<asrwt>0</asrwt>
<pdfrwt beam="1">  1       21 0.17349358E-01 0.63933319E+03</pdfrwt>
<pdfrwt beam="2">0</pdfrwt>
<totfact> 0.29430502E+03</totfact>
</mgrwt>
</event>
<event>
 6    1  0.1347953E-004  0.6792757E+03  0.7818608E-02  0.9753345E-01
         21   -1    0    0  501  502  0.00000000000E+00  0.00000000000E+00  0.18176975520E+03  0.18176975520E+03  0.00000000000E+00 0.  1.
         13   -1    0    0    0    0 -0.00000000000E+00 -0.00000000000E+00 -0.10000000000E+04  0.10000000000E+04  0.00000000000E+00 0.  1.
    9000005    2    1    2  501    0 -0.13960407571E+02  0.44448992608E+02 -0.87539086747E+03  0.11080273474E+04  0.67767604785E+03 0.  0.
         13    1    3    3    0    0 -0.23769165827E+03  0.16506515488E+03 -0.78766303032E+03  0.83914055980E+03  0.00000000000E+00 0.  1.
          3    1    3    3  501    0  0.22373125069E+03 -0.12061616228E+03 -0.87727837148E+02  0.26888678761E+03  0.00000000000E+00 0.  1.
         -3    1    1    2    0  502  0.13960407571E+02 -0.44448992608E+02  0.57160622664E+02  0.73742407790E+02  0.00000000000E+00 0. -1.
<mgrwt>
<rscale>  1 0.67927567E+03</rscale>
<asrwt>0</asrwt>
<pdfrwt beam="1">  1       21 0.27964577E-01 0.67927567E+03</pdfrwt>
<pdfrwt beam="2">0</pdfrwt>
<totfact> 0.11654331E+03</totfact>
</mgrwt>
</event>
<event>
 6    1  0.1347953E-004  0.6652578E+03  0.7818608E-02  0.9778563E-01
         21   -1    0    0  501  502  0.00000000000E+00  0.00000000000E+00  0.12733581997E+03  0.12733581997E+03  0.00000000000E+00 0.  1.
         13   -1    0    0    0    0 -0.00000000000E+00 -0.00000000000E+00 -0.10000000000E+04  0.10000000000E+04  0.00000000000E+00 0.  1.
    9000005    2    1    2  501    0  0.66999172203E+01  0.47116018199E+02 -0.82717680612E+03  0.10615033869E+04  0.66355343697E+03 0.  0.
         13    1    3    3    0    0  0.11062064154E+03  0.40690680442E+02 -0.91666511446E+03  0.92421187499E+03  0.00000000000E+00 0.  1.
          3    1    3    3  501    0 -0.10392072432E+03  0.64253377569E+01  0.89488308339E+02  0.13729151189E+03  0.00000000000E+00 0.  1.
         -1    1    1    2    0  502 -0.66999172203E+01 -0.47116018199E+02 -0.45487373904E+02  0.65832433088E+02  0.00000000000E+00 0. -1.
<mgrwt>
<rscale>  1 0.66525782E+03</rscale>
<asrwt>0</asrwt>
<pdfrwt beam="1">  1       21 0.19590126E-01 0.66525782E+03</pdfrwt>
<pdfrwt beam="2">0</pdfrwt>
<totfact> 0.23337293E+03</totfact>
</mgrwt>
</event>
<event>
 6    1  0.1347953E-004  0.6469510E+03  0.7818608E-02  0.9812517E-01
         21   -1    0    0  501  502  0.00000000000E+00  0.00000000000E+00  0.36827449784E+03  0.36827449784E+03  0.00000000000E+00 0. -1.
         13   -1    0    0    0    0 -0.00000000000E+00 -0.00000000000E+00 -0.10000000000E+04  0.10000000000E+04  0.00000000000E+00 0.  1.
    9000005    2    1    2  501    0 -0.65964827792E+02 -0.94187235488E+02 -0.88142566205E+03  0.10933694894E+04  0.63664986351E+03 0.  0.
         13    1    3    3    0    0 -0.34019577361E+03 -0.24750567481E+02 -0.62275528274E+03  0.71004922164E+03  0.00000000000E+00 0.  1.
          3    1    3    3  501    0  0.27423094582E+03 -0.69436668007E+02 -0.25867037931E+03  0.38332026772E+03  0.00000000000E+00 0.  1.
         -3    1    1    2    0  502  0.65964827792E+02  0.94187235488E+02  0.24970015989E+03  0.27490500848E+03  0.00000000000E+00 0. -1.
<mgrwt>
<rscale>  1 0.64695104E+03</rscale>
<asrwt>0</asrwt>
<pdfrwt beam="1">  1       21 0.56657613E-01 0.64695104E+03</pdfrwt>
<pdfrwt beam="2">0</pdfrwt>
<totfact> 0.26918134E+02</totfact>
</mgrwt>
</event>
<event>
 6    1  0.1347953E-004  0.6535946E+03  0.7818608E-02  0.9800057E-01
         21   -1    0    0  501  502  0.00000000000E+00  0.00000000000E+00  0.12349042380E+03  0.12349042380E+03  0.00000000000E+00 0.  1.
         13   -1    0    0    0    0 -0.00000000000E+00 -0.00000000000E+00 -0.10000000000E+04  0.10000000000E+04  0.00000000000E+00 0.  1.
    9000005    2    1    2  501    0  0.32722214727E+02  0.11027717952E+02 -0.87031459228E+03  0.10884086376E+04  0.65268178992E+03 0.  0.
         13    1    3    3    0    0  0.55415406165E+02  0.30233305373E+03 -0.22781694417E+03  0.38259208391E+03  0.00000000000E+00 0.  1.
          3    1    3    3  501    0 -0.22693191439E+02 -0.29130533578E+03 -0.64249764811E+03  0.70581655366E+03  0.00000000000E+00 0.  1.
         -1    1    1    2    0  502 -0.32722214727E+02 -0.11027717952E+02 -0.61949839197E+01  0.35081786238E+02  0.00000000000E+00 0. -1.
<mgrwt>
<rscale>  1 0.65359458E+03</rscale>
<asrwt>0</asrwt>
<pdfrwt beam="1">  1       21 0.18998526E-01 0.65359458E+03</pdfrwt>
<pdfrwt beam="2">0</pdfrwt>
<totfact> 0.24756801E+03</totfact>
</mgrwt>
</event>
<event>
 6    1  0.1347953E-004  0.6572611E+03  0.7818608E-02  0.9793249E-01
         21   -1    0    0  501  502  0.00000000000E+00  0.00000000000E+00  0.24013945084E+03  0.24013945084E+03  0.00000000000E+00 0. -1.
         13   -1    0    0    0    0 -0.00000000000E+00 -0.00000000000E+00 -0.10000000000E+04  0.10000000000E+04  0.00000000000E+00 0.  1.
    9000005    2    1    2  501    0  0.23565516151E+02  0.24093254835E+02 -0.88961632533E+03  0.11060783456E+04  0.65639643653E+03 0.  0.
         13    1    3    3    0    0  0.14427783131E+02 -0.24798010223E+03 -0.94697217288E+02  0.26583802398E+03  0.00000000000E+00 0.  1.
          3    1    3    3  501    0  0.91377330203E+01  0.27207335707E+03 -0.79491910805E+03  0.84024032165E+03  0.00000000000E+00 0.  1.
         -3    1    1    2    0  502 -0.23565516151E+02 -0.24093254835E+02  0.12975577617E+03  0.13406110521E+03  0.00000000000E+00 0. -1.
<mgrwt>
<rscale>  1 0.65726106E+03</rscale>
<asrwt>0</asrwt>
<pdfrwt beam="1">  1       21 0.36944530E-01 0.65726106E+03</pdfrwt>
<pdfrwt beam="2">0</pdfrwt>
<totfact> 0.66504491E+02</totfact>
</mgrwt>
</event>
<event>
 6    1  0.1347953E-004  0.6445591E+03  0.7818608E-02  0.9817042E-01
         21   -1    0    0  501  502  0.00000000000E+00  0.00000000000E+00  0.11948203071E+03  0.11948203071E+03  0.00000000000E+00 0.  1.
         13   -1    0    0    0    0 -0.00000000000E+00 -0.00000000000E+00 -0.10000000000E+04  0.10000000000E+04  0.00000000000E+00 0.  1.
    9000005    2    1    2  501    0  0.33832537155E+02 -0.92638273700E+01 -0.87020633136E+03  0.10829199063E+04  0.64360391948E+03 0.  0.
         13    1    3    3    0    0  0.50622519817E+02  0.18421786836E+03 -0.86791968896E+03  0.88869761394E+03  0.00000000000E+00 0.  1.
          3    1    3    3  501    0 -0.16789982662E+02 -0.19348169573E+03 -0.22866423967E+01  0.19422229232E+03  0.00000000000E+00 0.  1.
         -3    1    1    2    0  502 -0.33832537155E+02  0.92638273700E+01 -0.10311637931E+02  0.36562124456E+02  0.00000000000E+00 0. -1.
<mgrwt>
<rscale>  1 0.64455912E+03</rscale>
<asrwt>0</asrwt>
<pdfrwt beam="1">  1       21 0.18381850E-01 0.64455912E+03</pdfrwt>
<pdfrwt beam="2">0</pdfrwt>
<totfact> 0.26371029E+03</totfact>
</mgrwt>
</event>
<event>
 6    1  0.1347953E-004  0.6766027E+03  0.7818608E-02  0.9758103E-01
         21   -1    0    0  501  502  0.00000000000E+00  0.00000000000E+00  0.14459630685E+03  0.14459630685E+03  0.00000000000E+00 0.  1.
         13   -1    0    0    0    0 -0.00000000000E+00 -0.00000000000E+00 -0.10000000000E+04  0.10000000000E+04  0.00000000000E+00 0.  1.
    9000005    2    1    2  501    0 -0.24211695496E+02  0.51124622227E+02 -0.85192867669E+03  0.10879217188E+04  0.67423383390E+03 0.  0.
         13    1    3    3    0    0 -0.28137554726E+03  0.15157194467E+03 -0.19266678348E+03  0.37318459569E+03  0.00000000000E+00 0.  1.
          1    1    3    3  501    0  0.25716385177E+03 -0.10044732244E+03 -0.65926189321E+03  0.71473712306E+03  0.00000000000E+00 0.  1.
         -3    1    1    2    0  502  0.24211695496E+02 -0.51124622227E+02 -0.34750164524E+01  0.56674588097E+02  0.00000000000E+00 0. -1.
<mgrwt>
<rscale>  1 0.67660269E+03</rscale>
<asrwt>0</asrwt>
<pdfrwt beam="1">  1       21 0.22245585E-01 0.67660269E+03</pdfrwt>
<pdfrwt beam="2">0</pdfrwt>
<totfact> 0.18259440E+03</totfact>
</mgrwt>
</event>
<event>
 6    1  0.1347953E-004  0.6873612E+03  0.7818608E-02  0.9739094E-01
         21   -1    0    0  501  502  0.00000000000E+00  0.00000000000E+00  0.57548470483E+03  0.57548470483E+03  0.00000000000E+00 0. -1.
         13   -1    0    0    0    0 -0.00000000000E+00 -0.00000000000E+00 -0.10000000000E+04  0.10000000000E+04  0.00000000000E+00 0.  1.
    9000005    2    1    2  501    0  0.19602972396E+03  0.60727261890E+02 -0.85592056064E+03  0.10977547015E+04  0.65601061386E+03 0.  0.
         13    1    3    3    0    0  0.62975171255E+02 -0.29545804143E+03 -0.44559251237E+03  0.53834376891E+03  0.00000000000E+00 0.  1.
          3    1    3    3  501    0  0.13305455271E+03  0.35618530332E+03 -0.41032804827E+03  0.55941093258E+03  0.00000000000E+00 0.  1.
         -1    1    1    2    0  502 -0.19602972396E+03 -0.60727261890E+02  0.43140526547E+03  0.47773000334E+03  0.00000000000E+00 0. -1.
<mgrwt>
<rscale>  1 0.68736117E+03</rscale>
<asrwt>0</asrwt>
<pdfrwt beam="1">  1       21 0.88536106E-01 0.68736117E+03</pdfrwt>
<pdfrwt beam="2">0</pdfrwt>
<totfact> 0.96819233E+01</totfact>
</mgrwt>
</event>
<event>
 6    1  0.1347953E-004  0.6588643E+03  0.7818608E-02  0.9790287E-01
         21   -1    0    0  501  502  0.00000000000E+00  0.00000000000E+00  0.18898147316E+03  0.18898147316E+03  0.00000000000E+00 0. -1.
         13   -1    0    0    0    0 -0.00000000000E+00 -0.00000000000E+00 -0.10000000000E+04  0.10000000000E+04  0.00000000000E+00 0.  1.
    9000005    2    1    2  501    0  0.24403834124E+02 -0.59946372071E+02 -0.87675934115E+03  0.10967265583E+04  0.65567757840E+03 0.  0.
         13    1    3    3    0    0  0.24433477245E+03 -0.53968512814E+02 -0.83642021572E+03  0.87304688228E+03  0.00000000000E+00 0.  1.
          3    1    3    3  501    0 -0.21993093833E+03 -0.59778592573E+01 -0.40339125430E+02  0.22367967605E+03  0.00000000000E+00 0.  1.
         -3    1    1    2    0  502 -0.24403834124E+02  0.59946372071E+02  0.65740814305E+02  0.92254914828E+02  0.00000000000E+00 0. -1.
<mgrwt>
<rscale>  1 0.65886433E+03</rscale>
<asrwt>0</asrwt>
<pdfrwt beam="1">  1       21 0.29074072E-01 0.65886433E+03</pdfrwt>
<pdfrwt beam="2">0</pdfrwt>
<totfact> 0.10798228E+03</totfact>
</mgrwt>
</event>
<event>
 6    1  0.1347953E-004  0.6593037E+03  0.7818608E-02  0.9789476E-01
         21   -1    0    0  501  502  0.00000000000E+00  0.00000000000E+00  0.14708125530E+03  0.14708125530E+03  0.00000000000E+00 0. -1.
         13   -1    0    0    0    0 -0.00000000000E+00 -0.00000000000E+00 -0.10000000000E+04  0.10000000000E+04  0.00000000000E+00 0.  1.
    9000005    2    1    2  501    0  0.34589137337E+02 -0.15222396993E+02 -0.88072526234E+03  0.11001628984E+04  0.65821978508E+03 0.  0.
         13    1    3    3    0    0  0.48612846853E+01 -0.85603720432E+02  0.91236604766E+02  0.12520282381E+03  0.00000000000E+00 0.  1.
          3    1    3    3  501    0  0.29727852652E+02  0.70381323439E+02 -0.97196186711E+03  0.97496007458E+03  0.00000000000E+00 0.  1.
         -1    1    1    2    0  502 -0.34589137337E+02  0.15222396993E+02  0.27806517647E+02  0.46918356915E+02  0.00000000000E+00 0. -1.
<mgrwt>
<rscale>  1 0.65930374E+03</rscale>
<asrwt>0</asrwt>
<pdfrwt beam="1">  1       21 0.22627885E-01 0.65930374E+03</pdfrwt>
<pdfrwt beam="2">0</pdfrwt>
<totfact> 0.17679370E+03</totfact>
</mgrwt>
</event>
<event>
 6    1  0.1347953E-004  0.6427863E+03  0.7818608E-02  0.9820410E-01
         21   -1    0    0  501  502  0.00000000000E+00  0.00000000000E+00  0.18699328071E+03  0.18699328071E+03  0.00000000000E+00 0. -1.
         13   -1    0    0    0    0 -0.00000000000E+00 -0.00000000000E+00 -0.10000000000E+04  0.10000000000E+04  0.00000000000E+00 0.  1.
    9000005    2    1    2  501    0  0.41718222043E+02 -0.12365153151E+02 -0.89041947117E+03  0.10981898955E+04  0.64131186249E+03 0.  0.
         13    1    3    3    0    0  0.14007236316E+03 -0.29685404321E+03 -0.35169041654E+03  0.48107040959E+03  0.00000000000E+00 0.  1.
          3    1    3    3  501    0 -0.98354141121E+02  0.28448889006E+03 -0.53872905463E+03  0.61711948596E+03  0.00000000000E+00 0.  1.
         -3    1    1    2    0  502 -0.41718222043E+02  0.12365153151E+02  0.77412751882E+02  0.88803385165E+02  0.00000000000E+00 0. -1.
<mgrwt>
<rscale>  1 0.64278629E+03</rscale>
<asrwt>0</asrwt>
<pdfrwt beam="1">  1       21 0.28768196E-01 0.64278629E+03</pdfrwt>
<pdfrwt beam="2">0</pdfrwt>
<totfact> 0.11039085E+03</totfact>
</mgrwt>
</event>
<event>
 6    1  0.1347953E-004  0.6495533E+03  0.7818608E-02  0.9807618E-01
         21   -1    0    0  501  502  0.00000000000E+00  0.00000000000E+00  0.12577029852E+03  0.12577029852E+03  0.00000000000E+00 0.  1.
         13   -1    0    0    0    0 -0.00000000000E+00 -0.00000000000E+00 -0.10000000000E+04  0.10000000000E+04  0.00000000000E+00 0.  1.
    9000005    2    1    2  501    0  0.46264063353E+02 -0.29014837558E+02 -0.83787209723E+03  0.10601646605E+04  0.64725360690E+03 0.  0.
         13    1    3    3    0    0 -0.12596216842E+03 -0.20882758693E+03 -0.71172964263E+02  0.25404924676E+03  0.00000000000E+00 0.  1.
          1    1    3    3  501    0  0.17222623177E+03  0.17981274937E+03 -0.76669913297E+03  0.80611541372E+03  0.00000000000E+00 0.  1.
         -1    1    1    2    0  502 -0.46264063353E+02  0.29014837558E+02 -0.36357604249E+02  0.65605638044E+02  0.00000000000E+00 0. -1.
<mgrwt>
<rscale>  1 0.64955327E+03</rscale>
<asrwt>0</asrwt>
<pdfrwt beam="1">  1       21 0.19349276E-01 0.64955327E+03</pdfrwt>
<pdfrwt beam="2">0</pdfrwt>
<totfact> 0.23910203E+03</totfact>
</mgrwt>
</event>
<event>
 6    1  0.1347953E-004  0.6850436E+03  0.7818608E-02  0.9743157E-01
         21   -1    0    0  501  502  0.00000000000E+00  0.00000000000E+00  0.23865035268E+03  0.23865035268E+03  0.00000000000E+00 0.  1.
         13   -1    0    0    0    0 -0.00000000000E+00 -0.00000000000E+00 -0.10000000000E+04  0.10000000000E+04  0.00000000000E+00 0.  1.
    9000005    2    1    2  501    0 -0.20988837917E+02 -0.54842675398E+02 -0.87467830560E+03  0.11110116628E+04  0.68252218005E+03 0.  0.
         13    1    3    3    0    0  0.14043899114E+03  0.14843449720E+03 -0.60555310337E+01  0.20443233513E+03  0.00000000000E+00 0.  1.
          3    1    3    3  501    0 -0.16142782905E+03 -0.20327717259E+03 -0.86862277457E+03  0.90657932769E+03  0.00000000000E+00 0.  1.
         -1    1    1    2    0  502  0.20988837917E+02  0.54842675398E+02  0.11332865828E+03  0.12763868986E+03  0.00000000000E+00 0. -1.
<mgrwt>
<rscale>  1 0.68504363E+03</rscale>
<asrwt>0</asrwt>
<pdfrwt beam="1">  1       21 0.36715438E-01 0.68504363E+03</pdfrwt>
<pdfrwt beam="2">0</pdfrwt>
<totfact> 0.67222265E+02</totfact>
</mgrwt>
</event>
<event>
 6    1  0.1347953E-004  0.6459046E+03  0.7818608E-02  0.9814494E-01
         21   -1    0    0  501  502  0.00000000000E+00  0.00000000000E+00  0.20348195103E+03  0.20348195103E+03  0.00000000000E+00 0. -1.
         13   -1    0    0    0    0 -0.00000000000E+00 -0.00000000000E+00 -0.10000000000E+04  0.10000000000E+04  0.00000000000E+00 0.  1.
    9000005    2    1    2  501    0  0.31207869725E+02  0.75922404515E+02 -0.87656078054E+03  0.10888303853E+04  0.64066735784E+03 0.  0.
         13    1    3    3    0    0 -0.29027313437E+03 -0.60743906605E+02 -0.40665904978E+03  0.50330894836E+03  0.00000000000E+00 0.  1.
          3    1    3    3  501    0  0.32148100409E+03  0.13666631112E+03 -0.46990173076E+03  0.58552143697E+03  0.00000000000E+00 0.  1.
         -3    1    1    2    0  502 -0.31207869725E+02 -0.75922404515E+02  0.80042731576E+02  0.11465156570E+03  0.00000000000E+00 0. -1.
<mgrwt>
<rscale>  1 0.64590464E+03</rscale>
<asrwt>0</asrwt>
<pdfrwt beam="1">  1       21 0.31304915E-01 0.64590464E+03</pdfrwt>
<pdfrwt beam="2">0</pdfrwt>
<totfact> 0.93193499E+02</totfact>
</mgrwt>
</event>
<event>
 6    1  0.1347953E-004  0.6660058E+03  0.7818608E-02  0.9777200E-01
         21   -1    0    0  501  502  0.00000000000E+00  0.00000000000E+00  0.63003238305E+03  0.63003238305E+03  0.00000000000E+00 0. -1.
         13   -1    0    0    0    0 -0.00000000000E+00 -0.00000000000E+00 -0.10000000000E+04  0.10000000000E+04  0.00000000000E+00 0.  1.
    9000005    2    1    2  501    0 -0.18563438904E+03  0.52941113214E+02 -0.86905963968E+03  0.10949102147E+04  0.63741731477E+03 0.  0.
         13    1    3    3    0    0 -0.10332128835E+02  0.15176110459E+03  0.45263050205E+02  0.15870390502E+03  0.00000000000E+00 0.  1.
          1    1    3    3  501    0 -0.17530226021E+03 -0.98819991380E+02 -0.91432268988E+03  0.93620630972E+03  0.00000000000E+00 0.  1.
         -3    1    1    2    0  502  0.18563438904E+03 -0.52941113214E+02  0.49909202273E+03  0.53512216831E+03  0.00000000000E+00 0. -1.
<mgrwt>
<rscale>  1 0.66600580E+03</rscale>
<asrwt>0</asrwt>
<pdfrwt beam="1">  1       21 0.96928056E-01 0.66600580E+03</pdfrwt>
<pdfrwt beam="2">0</pdfrwt>
<totfact> 0.78078917E+01</totfact>
</mgrwt>
</event>
<event>
 6    1  0.1347953E-004  0.6445356E+03  0.7818608E-02  0.9817087E-01
         21   -1    0    0  501  502  0.00000000000E+00  0.00000000000E+00  0.28615425185E+03  0.28615425185E+03  0.00000000000E+00 0. -1.
         13   -1    0    0    0    0 -0.00000000000E+00 -0.00000000000E+00 -0.10000000000E+04  0.10000000000E+04  0.00000000000E+00 0.  1.
    9000005    2    1    2  501    0 -0.13202075562E+03  0.32859025712E+01 -0.86930019617E+03  0.10821778746E+04  0.63086119243E+03 0.  0.
         13    1    3    3    0    0 -0.81034910466E+02  0.22632962480E+03 -0.81126676311E+03  0.84613563730E+03  0.00000000000E+00 0.  1.
          1    1    3    3  501    0 -0.50985845155E+02 -0.22304372223E+03 -0.58033433065E+02  0.23604223729E+03  0.00000000000E+00 0.  1.
         -3    1    1    2    0  502  0.13202075562E+03 -0.32859025712E+01  0.15545444803E+03  0.20397637727E+03  0.00000000000E+00 0. -1.
<mgrwt>
<rscale>  1 0.64453559E+03</rscale>
<asrwt>0</asrwt>
<pdfrwt beam="1">  1       21 0.44023730E-01 0.64453559E+03</pdfrwt>
<pdfrwt beam="2">0</pdfrwt>
<totfact> 0.46243294E+02</totfact>
</mgrwt>
</event>
<event>
 6    1  0.1347953E-004  0.6436751E+03  0.7818608E-02  0.9818720E-01
         21   -1    0    0  501  502  0.00000000000E+00  0.00000000000E+00  0.22849917557E+03  0.22849917557E+03  0.00000000000E+00 0. -1.
         13   -1    0    0    0    0 -0.00000000000E+00 -0.00000000000E+00 -0.10000000000E+04  0.10000000000E+04  0.00000000000E+00 0.  1.
    9000005    2    1    2  501    0  0.12548890745E+02  0.16628825204E+02 -0.89546130816E+03  0.11028003529E+04  0.64333791396E+03 0.  0.
         13    1    3    3    0    0 -0.19265473020E+03  0.16227039599E+03 -0.79136297120E+03  0.83048352101E+03  0.00000000000E+00 0.  1.
          3    1    3    3  501    0  0.20520362095E+03 -0.14564157079E+03 -0.10409833696E+03  0.27231683192E+03  0.00000000000E+00 0.  1.
         -1    1    1    2    0  502 -0.12548890745E+02 -0.16628825204E+02  0.12396048373E+03  0.12569882264E+03  0.00000000000E+00 0. -1.
<mgrwt>
<rscale>  1 0.64367512E+03</rscale>
<asrwt>0</asrwt>
<pdfrwt beam="1">  1       21 0.35153718E-01 0.64367512E+03</pdfrwt>
<pdfrwt beam="2">0</pdfrwt>
<totfact> 0.73697164E+02</totfact>
</mgrwt>
</event>
<event>
 6    1  0.1347953E-004  0.5004392E+03  0.7818608E-02  0.1013664E+00
         21   -1    0    0  501  502  0.00000000000E+00  0.00000000000E+00  0.10803790698E+03  0.10803790698E+03  0.00000000000E+00 0. -1.
         13   -1    0    0    0    0 -0.00000000000E+00 -0.00000000000E+00 -0.10000000000E+04  0.10000000000E+04  0.00000000000E+00 0.  1.
    9000005    2    1    2  501    0  0.83560741583E+02  0.11528797324E+02 -0.89301697316E+03  0.10236790102E+04  0.49327891784E+03 0.  0.
         13    1    3    3    0    0  0.20726462854E+03 -0.16576805356E+03 -0.35027940602E+03  0.43946938017E+03  0.00000000000E+00 0.  1.
          1    1    3    3  501    0 -0.12370388696E+03  0.17729685088E+03 -0.54273756714E+03  0.58420962998E+03  0.00000000000E+00 0.  1.
         -1    1    1    2    0  502 -0.83560741583E+02 -0.11528797324E+02  0.10548801404E+01  0.84358896826E+02  0.00000000000E+00 0. -1.
<mgrwt>
<rscale>  1 0.50043921E+03</rscale>
<asrwt>0</asrwt>
<pdfrwt beam="1">  1       21 0.16621216E-01 0.50043921E+03</pdfrwt>
<pdfrwt beam="2">0</pdfrwt>
<totfact> 0.32053679E+03</totfact>
</mgrwt>
</event>
<event>
 6    1  0.1347953E-004  0.6500800E+03  0.7818608E-02  0.9806629E-01
         21   -1    0    0  501  502  0.00000000000E+00  0.00000000000E+00  0.18404933492E+03  0.18404933492E+03  0.00000000000E+00 0. -1.
         13   -1    0    0    0    0 -0.00000000000E+00 -0.00000000000E+00 -0.10000000000E+04  0.10000000000E+04  0.00000000000E+00 0.  1.
    9000005    2    1    2  501    0 -0.31360284385E+02  0.36156759507E+00 -0.89086520944E+03  0.11028348835E+04  0.64932300179E+03 0.  0.
         13    1    3    3    0    0 -0.27973051108E+03  0.11710967249E+03 -0.71559684039E+03  0.77720182205E+03  0.00000000000E+00 0.  1.
          3    1    3    3  501    0  0.24837022670E+03 -0.11674810489E+03 -0.17526836905E+03  0.32563306143E+03  0.00000000000E+00 0.  1.
         -1    1    1    2    0  502  0.31360284385E+02 -0.36156759507E+00  0.74914544360E+02  0.81214451451E+02  0.00000000000E+00 0. -1.
<mgrwt>
<rscale>  1 0.65007996E+03</rscale>
<asrwt>0</asrwt>
<pdfrwt beam="1">  1       21 0.28315281E-01 0.65007996E+03</pdfrwt>
<pdfrwt beam="2">0</pdfrwt>
<totfact> 0.11388306E+03</totfact>
</mgrwt>
</event>
<event>
 6    1  0.1347953E-004  0.6118357E+03  0.7818608E-02  0.9881151E-01
         21   -1    0    0  501  502  0.00000000000E+00  0.00000000000E+00  0.39089988908E+03  0.39089988908E+03  0.00000000000E+00 0. -1.
         13   -1    0    0    0    0 -0.00000000000E+00 -0.00000000000E+00 -0.10000000000E+04  0.10000000000E+04  0.00000000000E+00 0.  1.
    9000005    2    1    2  501    0  0.12527245737E+02 -0.18346003314E+02 -0.90596039058E+03  0.10932095578E+04  0.61143225311E+03 0.  0.
         13    1    3    3    0    0 -0.10663252682E+03  0.88556706990E+02  0.31528594462E+02  0.14215075940E+03  0.00000000000E+00 0.  1.
          3    1    3    3  501    0  0.11915977255E+03 -0.10690271030E+03 -0.93748898504E+03  0.95105879836E+03  0.00000000000E+00 0.  1.
         -1    1    1    2    0  502 -0.12527245737E+02  0.18346003314E+02  0.29686027966E+03  0.29769033132E+03  0.00000000000E+00 0. -1.
<mgrwt>
<rscale>  1 0.61183569E+03</rscale>
<asrwt>0</asrwt>
<pdfrwt beam="1">  1       21 0.60138443E-01 0.61183569E+03</pdfrwt>
<pdfrwt beam="2">0</pdfrwt>
<totfact> 0.23703598E+02</totfact>
</mgrwt>
</event>
<event>
 6    1  0.1347953E-004  0.6856972E+03  0.7818608E-02  0.9742009E-01
         21   -1    0    0  501  502  0.00000000000E+00  0.00000000000E+00  0.23145369196E+03  0.23145369196E+03  0.00000000000E+00 0.  1.
         13   -1    0    0    0    0 -0.00000000000E+00 -0.00000000000E+00 -0.10000000000E+04  0.10000000000E+04  0.00000000000E+00 0.  1.
    9000005    2    1    2  501    0 -0.14305684218E+02  0.49823111324E+02 -0.87581937397E+03  0.11123129949E+04  0.68373505670E+03 0.  0.
         13    1    3    3    0    0  0.12465331368E+03  0.17234398455E+03 -0.90062488685E+03  0.92540049948E+03  0.00000000000E+00 0.  1.
          1    1    3    3  501    0 -0.13895899790E+03 -0.12252087322E+03  0.24805512879E+02  0.18691249541E+03  0.00000000000E+00 0.  1.
         -3    1    1    2    0  502  0.14305684218E+02 -0.49823111324E+02  0.10727306593E+03  0.11914069706E+03  0.00000000000E+00 0. -1.
<mgrwt>
<rscale>  1 0.68569718E+03</rscale>
<asrwt>0</asrwt>
<pdfrwt beam="1">  1       21 0.35608259E-01 0.68569718E+03</pdfrwt>
<pdfrwt beam="2">0</pdfrwt>
<totfact> 0.71572697E+02</totfact>
</mgrwt>
</event>
<event>
 6    1  0.1347953E-004  0.6588935E+03  0.7818608E-02  0.9790233E-01
         21   -1    0    0  501  502  0.00000000000E+00  0.00000000000E+00  0.21773173484E+03  0.21773173484E+03  0.00000000000E+00 0.  1.
         13   -1    0    0    0    0 -0.00000000000E+00 -0.00000000000E+00 -0.10000000000E+04  0.10000000000E+04  0.00000000000E+00 0.  1.
    9000005    2    1    2  501    0 -0.28115264660E+02 -0.77471143669E+01 -0.88930173123E+03  0.11067963990E+04  0.65824783606E+03 0.  0.
         13    1    3    3    0    0  0.25086557177E+03  0.26833000272E+02 -0.10435000734E+03  0.27302466745E+03  0.00000000000E+00 0.  1.
          3    1    3    3  501    0 -0.27898083643E+03 -0.34580114639E+02 -0.78495172389E+03  0.83377173151E+03  0.00000000000E+00 0.  1.
         -3    1    1    2    0  502  0.28115264660E+02  0.77471143669E+01  0.10703346607E+03  0.11093533588E+03  0.00000000000E+00 0. -1.
<mgrwt>
<rscale>  1 0.65889354E+03</rscale>
<asrwt>0</asrwt>
<pdfrwt beam="1">  1       21 0.33497189E-01 0.65889354E+03</pdfrwt>
<pdfrwt beam="2">0</pdfrwt>
<totfact> 0.81212616E+02</totfact>
</mgrwt>
</event>
<event>
 6    1  0.1347953E-004  0.6490923E+03  0.7818608E-02  0.9808484E-01
         21   -1    0    0  501  502  0.00000000000E+00  0.00000000000E+00  0.20127537048E+03  0.20127537048E+03  0.00000000000E+00 0.  1.
         13   -1    0    0    0    0 -0.00000000000E+00 -0.00000000000E+00 -0.10000000000E+04  0.10000000000E+04  0.00000000000E+00 0.  1.
    9000005    2    1    2  501    0  0.50824049770E+02 -0.82834470979E+02 -0.86659994671E+03  0.10827355362E+04  0.64177577095E+03 0.  0.
         13    1    3    3    0    0  0.26795448910E+03 -0.21299129928E+03 -0.70135088685E+03  0.78042166057E+03  0.00000000000E+00 0.  1.
          3    1    3    3  501    0 -0.21713043933E+03  0.13015682830E+03 -0.16524905987E+03  0.30231387567E+03  0.00000000000E+00 0.  1.
         -1    1    1    2    0  502 -0.50824049770E+02  0.82834470979E+02  0.67875317197E+02  0.11853983424E+03  0.00000000000E+00 0. -1.
<mgrwt>
<rscale>  1 0.64909227E+03</rscale>
<asrwt>0</asrwt>
<pdfrwt beam="1">  1       21 0.30965441E-01 0.64909227E+03</pdfrwt>
<pdfrwt beam="2">0</pdfrwt>
<totfact> 0.95238998E+02</totfact>
</mgrwt>
</event>
<event>
 6    1  0.1347953E-004  0.6605478E+03  0.7818608E-02  0.9787186E-01
         21   -1    0    0  501  502  0.00000000000E+00  0.00000000000E+00  0.14787946384E+03  0.14787946384E+03  0.00000000000E+00 0. -1.
         13   -1    0    0    0    0 -0.00000000000E+00 -0.00000000000E+00 -0.10000000000E+04  0.10000000000E+04  0.00000000000E+00 0.  1.
    9000005    2    1    2  501    0 -0.23763311473E+02  0.23792754667E+02 -0.88265794152E+03  0.11024556455E+04  0.65969130540E+03 0.  0.
         13    1    3    3    0    0 -0.29552525722E+03 -0.30578483920E+02 -0.18063411823E+03  0.34770519985E+03  0.00000000000E+00 0.  1.
          1    1    3    3  501    0  0.27176194575E+03  0.54371238587E+02 -0.70202382328E+03  0.75475044564E+03  0.00000000000E+00 0.  1.
         -1    1    1    2    0  502  0.23763311473E+02 -0.23792754667E+02  0.30537405353E+02  0.45423818339E+02  0.00000000000E+00 0. -1.
<mgrwt>
<rscale>  1 0.66054781E+03</rscale>
<asrwt>0</asrwt>
<pdfrwt beam="1">  1       21 0.22750686E-01 0.66054781E+03</pdfrwt>
<pdfrwt beam="2">0</pdfrwt>
<totfact> 0.17493559E+03</totfact>
</mgrwt>
</event>
<event>
 6    1  0.1347953E-004  0.6503509E+03  0.7818608E-02  0.9806121E-01
         21   -1    0    0  501  502  0.00000000000E+00  0.00000000000E+00  0.14600874351E+03  0.14600874351E+03  0.00000000000E+00 0.  1.
         13   -1    0    0    0    0 -0.00000000000E+00 -0.00000000000E+00 -0.10000000000E+04  0.10000000000E+04  0.00000000000E+00 0.  1.
    9000005    2    1    2  501    0 -0.87843089471E+01 -0.53819379896E+02 -0.87268357606E+03  0.10883624726E+04  0.64806061302E+03 0.  0.
         13    1    3    3    0    0  0.18508265049E+03  0.13325020377E+03 -0.65309781386E+02  0.23722683630E+03  0.00000000000E+00 0.  1.
          1    1    3    3  501    0 -0.19386695943E+03 -0.18706958366E+03 -0.80737379468E+03  0.85113563632E+03  0.00000000000E+00 0.  1.
         -3    1    1    2    0  502  0.87843089471E+01  0.53819379896E+02  0.18692319569E+02  0.57646270885E+02  0.00000000000E+00 0. -1.
<mgrwt>
<rscale>  1 0.65035087E+03</rscale>
<asrwt>0</asrwt>
<pdfrwt beam="1">  1       21 0.22462883E-01 0.65035087E+03</pdfrwt>
<pdfrwt beam="2">0</pdfrwt>
<totfact> 0.17939538E+03</totfact>
</mgrwt>
</event>
<event>
 6    1  0.1347953E-004  0.6568466E+03  0.7818608E-02  0.9794016E-01
         21   -1    0    0  501  502  0.00000000000E+00  0.00000000000E+00  0.18043710363E+03  0.18043710363E+03  0.00000000000E+00 0. -1.
         13   -1    0    0    0    0 -0.00000000000E+00 -0.00000000000E+00 -0.10000000000E+04  0.10000000000E+04  0.00000000000E+00 0.  1.
    9000005    2    1    2  501    0  0.32737165123E+02  0.22996317345E+02 -0.88597550070E+03  0.11029052611E+04  0.65562708495E+03 0.  0.
         13    1    3    3    0    0 -0.91880336087E+02 -0.28796161621E+03 -0.55505318850E+03  0.63201893218E+03  0.00000000000E+00 0.  1.
          1    1    3    3  501    0  0.12461750121E+03  0.31095793356E+03 -0.33092231221E+03  0.47088632892E+03  0.00000000000E+00 0.  1.
         -1    1    1    2    0  502 -0.32737165123E+02 -0.22996317345E+02  0.66412604328E+02  0.77531842525E+02  0.00000000000E+00 0. -1.
<mgrwt>
<rscale>  1 0.65684658E+03</rscale>
<asrwt>0</asrwt>
<pdfrwt beam="1">  1       21 0.27759554E-01 0.65684658E+03</pdfrwt>
<pdfrwt beam="2">0</pdfrwt>
<totfact> 0.11841040E+03</totfact>
</mgrwt>
</event>
<event>
 6    1  0.1347953E-004  0.6224855E+03  0.7818608E-02  0.9859823E-01
         21   -1    0    0  501  502  0.00000000000E+00  0.00000000000E+00  0.17542912059E+03  0.17542912059E+03  0.00000000000E+00 0.  1.
         13   -1    0    0    0    0 -0.00000000000E+00 -0.00000000000E+00 -0.10000000000E+04  0.10000000000E+04  0.00000000000E+00 0.  1.
    9000005    2    1    2  501    0  0.25473837167E+02 -0.38544748209E+02 -0.89560815775E+03  0.10906888769E+04  0.62076858801E+03 0.  0.
         13    1    3    3    0    0  0.23261888128E+03  0.17810131036E+03 -0.60979919721E+03  0.67652544786E+03  0.00000000000E+00 0.  1.
          1    1    3    3  501    0 -0.20714504411E+03 -0.21664605857E+03 -0.28580896054E+03  0.41416342900E+03  0.00000000000E+00 0.  1.
         -1    1    1    2    0  502 -0.25473837167E+02  0.38544748209E+02  0.71037278339E+02  0.84740243735E+02  0.00000000000E+00 0. -1.
<mgrwt>
<rscale>  1 0.62248555E+03</rscale>
<asrwt>0</asrwt>
<pdfrwt beam="1">  1       21 0.26989095E-01 0.62248555E+03</pdfrwt>
<pdfrwt beam="2">0</pdfrwt>
<totfact> 0.12544849E+03</totfact>
</mgrwt>
</event>
<event>
 6    1  0.1347953E-004  0.6349432E+03  0.7818608E-02  0.9835450E-01
         21   -1    0    0  501  502  0.00000000000E+00  0.00000000000E+00  0.12498264806E+03  0.12498264806E+03  0.00000000000E+00 0.  1.
         13   -1    0    0    0    0 -0.00000000000E+00 -0.00000000000E+00 -0.10000000000E+04  0.10000000000E+04  0.00000000000E+00 0.  1.
    9000005    2    1    2  501    0  0.19525228099E+02  0.39097834801E+02 -0.87522209995E+03  0.10812800493E+04  0.63343740457E+03 0.  0.
         13    1    3    3    0    0  0.29129970045E+03  0.78710108889E+02 -0.22801021461E+03  0.37820557200E+03  0.00000000000E+00 0.  1.
          3    1    3    3  501    0 -0.27177447235E+03 -0.39612274088E+02 -0.64721188534E+03  0.70307447728E+03  0.00000000000E+00 0.  1.
         -3    1    1    2    0  502 -0.19525228099E+02 -0.39097834801E+02  0.20474801464E+00  0.43702598780E+02  0.00000000000E+00 0. -1.
<mgrwt>
<rscale>  1 0.63494316E+03</rscale>
<asrwt>0</asrwt>
<pdfrwt beam="1">  1       21 0.19228099E-01 0.63494316E+03</pdfrwt>
<pdfrwt beam="2">0</pdfrwt>
<totfact> 0.24212229E+03</totfact>
</mgrwt>
</event>
<event>
 6    1  0.1347953E-004  0.6443826E+03  0.7818608E-02  0.9817377E-01
         21   -1    0    0  501  502  0.00000000000E+00  0.00000000000E+00  0.16608132799E+03  0.16608132799E+03  0.00000000000E+00 0.  1.
         13   -1    0    0    0    0 -0.00000000000E+00 -0.00000000000E+00 -0.10000000000E+04  0.10000000000E+04  0.00000000000E+00 0.  1.
    9000005    2    1    2  501    0 -0.66997104685E+02  0.24126613487E+02 -0.87283785200E+03  0.10849308007E+04  0.64043596154E+03 0.  0.
         13    1    3    3    0    0 -0.27705570236E+03  0.20239096762E+03 -0.32933061994E+03  0.47558450691E+03  0.00000000000E+00 0.  1.
          3    1    3    3  501    0  0.21005859767E+03 -0.17826435413E+03 -0.54350723206E+03  0.60934629375E+03  0.00000000000E+00 0.  1.
         -1    1    1    2    0  502  0.66997104685E+02 -0.24126613487E+02  0.38919179990E+02  0.81150527328E+02  0.00000000000E+00 0. -1.
<mgrwt>
<rscale>  1 0.64438259E+03</rscale>
<asrwt>0</asrwt>
<pdfrwt beam="1">  1       21 0.25550973E-01 0.64438259E+03</pdfrwt>
<pdfrwt beam="2">0</pdfrwt>
<totfact> 0.13956107E+03</totfact>
</mgrwt>
</event>
<event>
 6    1  0.1347953E-004  0.6560576E+03  0.7818608E-02  0.9795479E-01
         21   -1    0    0  501  502  0.00000000000E+00  0.00000000000E+00  0.62075632554E+03  0.62075632554E+03  0.00000000000E+00 0. -1.
         13   -1    0    0    0    0 -0.00000000000E+00 -0.00000000000E+00 -0.10000000000E+04  0.10000000000E+04  0.00000000000E+00 0.  1.
    9000005    2    1    2  501    0  0.15604027825E+03 -0.12201373388E+03 -0.87109752226E+03  0.10905147511E+04  0.62544033235E+03 0.  0.
         13    1    3    3    0    0 -0.10645580768E+03  0.62879335158E+02  0.35587180806E+02  0.12865884041E+03  0.00000000000E+00 0.  1.
          3    1    3    3  501    0  0.26249608593E+03 -0.18489306904E+03 -0.90668470307E+03  0.96185591067E+03  0.00000000000E+00 0.  1.
         -3    1    1    2    0  502 -0.15604027825E+03  0.12201373388E+03  0.49185384780E+03  0.53024157446E+03  0.00000000000E+00 0. -1.
<mgrwt>
<rscale>  1 0.65605757E+03</rscale>
<asrwt>0</asrwt>
<pdfrwt beam="1">  1       21 0.95500970E-01 0.65605757E+03</pdfrwt>
<pdfrwt beam="2">0</pdfrwt>
<totfact> 0.81057228E+01</totfact>
</mgrwt>
</event>
<event>
 6    1  0.1347953E-004  0.6744096E+03  0.7818608E-02  0.9762024E-01
         21   -1    0    0  501  502  0.00000000000E+00  0.00000000000E+00  0.30642107114E+03  0.30642107114E+03  0.00000000000E+00 0. -1.
         13   -1    0    0    0    0 -0.00000000000E+00 -0.00000000000E+00 -0.10000000000E+04  0.10000000000E+04  0.00000000000E+00 0.  1.
    9000005    2    1    2  501    0 -0.14559841724E+02  0.14746349990E+03 -0.85390208076E+03  0.10881071095E+04  0.65792921010E+03 0.  0.
         13    1    3    3    0    0 -0.26718774592E+03 -0.11949776492E+03 -0.49082224845E+03  0.57146783546E+03  0.00000000000E+00 0.  1.
          3    1    3    3  501    0  0.25262790420E+03  0.26696126482E+03 -0.36307983231E+03  0.51663927408E+03  0.00000000000E+00 0.  1.
         -3    1    1    2    0  502  0.14559841724E+02 -0.14746349990E+03  0.16032315190E+03  0.21831396160E+03  0.00000000000E+00 0. -1.
<mgrwt>
<rscale>  1 0.67440961E+03</rscale>
<asrwt>0</asrwt>
<pdfrwt beam="1">  1       21 0.47141702E-01 0.67440961E+03</pdfrwt>
<pdfrwt beam="2">0</pdfrwt>
<totfact> 0.39905968E+02</totfact>
</mgrwt>
</event>
<event>
 6    1  0.1347953E-004  0.6728832E+03  0.7818608E-02  0.9764763E-01
         21   -1    0    0  501  502  0.00000000000E+00  0.00000000000E+00  0.33516788837E+03  0.33516788837E+03  0.00000000000E+00 0. -1.
         13   -1    0    0    0    0 -0.00000000000E+00 -0.00000000000E+00 -0.10000000000E+04  0.10000000000E+04  0.00000000000E+00 0.  1.
    9000005    2    1    2  501    0  0.48317216320E+02 -0.18527863323E+03 -0.83957318260E+03  0.10759437244E+04  0.64506514687E+03 0.  0.
         13    1    3    3    0    0 -0.20264050664E+03  0.12494711714E+03 -0.15661346017E+03  0.28496093227E+03  0.00000000000E+00 0.  1.
          3    1    3    3  501    0  0.25095772296E+03 -0.31022575038E+03 -0.68295972243E+03  0.79098279208E+03  0.00000000000E+00 0.  1.
         -3    1    1    2    0  502 -0.48317216320E+02  0.18527863323E+03  0.17474107097E+03  0.25922416402E+03  0.00000000000E+00 0. -1.
<mgrwt>
<rscale>  1 0.67288318E+03</rscale>
<asrwt>0</asrwt>
<pdfrwt beam="1">  1       21 0.51564289E-01 0.67288318E+03</pdfrwt>
<pdfrwt beam="2">0</pdfrwt>
<totfact> 0.32939620E+02</totfact>
</mgrwt>
</event>
<event>
 6    1  0.1347953E-004  0.6514122E+03  0.7818608E-02  0.9804133E-01
         21   -1    0    0  501  502  0.00000000000E+00  0.00000000000E+00  0.13156787453E+03  0.13156787453E+03  0.00000000000E+00 0.  1.
         13   -1    0    0    0    0 -0.00000000000E+00 -0.00000000000E+00 -0.10000000000E+04  0.10000000000E+04  0.00000000000E+00 0.  1.
    9000005    2    1    2  501    0  0.41904406207E+02 -0.27079653012E+02 -0.86318476810E+03  0.10813999403E+04  0.64949872987E+03 0.  0.
         13    1    3    3    0    0  0.26380634507E+02  0.16077957175E+03  0.32462221836E+02  0.16613188862E+03  0.00000000000E+00 0.  1.
          1    1    3    3  501    0  0.15523771699E+02 -0.18785922476E+03 -0.89564698994E+03  0.91526805167E+03  0.00000000000E+00 0.  1.
         -3    1    1    2    0  502 -0.41904406207E+02  0.27079653012E+02 -0.52473573672E+01  0.50167934242E+02  0.00000000000E+00 0. -1.
<mgrwt>
<rscale>  1 0.65141223E+03</rscale>
<asrwt>0</asrwt>
<pdfrwt beam="1">  1       21 0.20241211E-01 0.65141223E+03</pdfrwt>
<pdfrwt beam="2">0</pdfrwt>
<totfact> 0.21930962E+03</totfact>
</mgrwt>
</event>
<event>
 6    1  0.1347953E-004  0.6714203E+03  0.7818608E-02  0.9767395E-01
         21   -1    0    0  501  502  0.00000000000E+00  0.00000000000E+00  0.14564694466E+03  0.14564694466E+03  0.00000000000E+00 0.  1.
         13   -1    0    0    0    0 -0.00000000000E+00 -0.00000000000E+00 -0.10000000000E+04  0.10000000000E+04  0.00000000000E+00 0.  1.
    9000005    2    1    2  501    0 -0.15191986215E+02  0.71355743143E+02 -0.83244834287E+03  0.10694744106E+04  0.66744500354E+03 0.  0.
         13    1    3    3    0    0  0.31660576838E+02  0.28906091133E+03 -0.10575081238E+03  0.30942177833E+03  0.00000000000E+00 0.  1.
          3    1    3    3  501    0 -0.46852563053E+02 -0.21770516819E+03 -0.72669753049E+03  0.76005263222E+03  0.00000000000E+00 0.  1.
         -1    1    1    2    0  502  0.15191986215E+02 -0.71355743143E+02 -0.21904712464E+02  0.76172534110E+02  0.00000000000E+00 0. -1.
<mgrwt>
<rscale>  1 0.67142034E+03</rscale>
<asrwt>0</asrwt>
<pdfrwt beam="1">  1       21 0.22407222E-01 0.67142034E+03</pdfrwt>
<pdfrwt beam="2">0</pdfrwt>
<totfact> 0.18008963E+03</totfact>
</mgrwt>
</event>
<event>
 6    1  0.1347953E-004  0.6097439E+03  0.7818608E-02  0.9885394E-01
         21   -1    0    0  501  502  0.00000000000E+00  0.00000000000E+00  0.12294759571E+03  0.12294759571E+03  0.00000000000E+00 0.  1.
         13   -1    0    0    0    0 -0.00000000000E+00 -0.00000000000E+00 -0.10000000000E+04  0.10000000000E+04  0.00000000000E+00 0.  1.
    9000005    2    1    2  501    0 -0.24969254652E+02 -0.16711027621E+02 -0.89862309668E+03  0.10859608833E+04  0.60900315937E+03 0.  0.
         13    1    3    3    0    0  0.19331753574E+03  0.15845437715E+03 -0.69854973169E+03  0.74192397650E+03  0.00000000000E+00 0.  1.
          3    1    3    3  501    0 -0.21828679039E+03 -0.17516540477E+03 -0.20007336499E+03  0.34403690684E+03  0.00000000000E+00 0.  1.
         -3    1    1    2    0  502  0.24969254652E+02  0.16711027621E+02  0.21570692396E+02  0.36986712377E+02  0.00000000000E+00 0. -1.
<mgrwt>
<rscale>  1 0.60974386E+03</rscale>
<asrwt>0</asrwt>
<pdfrwt beam="1">  1       21 0.18915014E-01 0.60974386E+03</pdfrwt>
<pdfrwt beam="2">0</pdfrwt>
<totfact> 0.25006420E+03</totfact>
</mgrwt>
</event>
<event>
 6    1  0.1347953E-004  0.6583587E+03  0.7818608E-02  0.9791220E-01
         21   -1    0    0  501  502  0.00000000000E+00  0.00000000000E+00  0.16626946485E+03  0.16626946485E+03  0.00000000000E+00 0.  1.
         13   -1    0    0    0    0 -0.00000000000E+00 -0.00000000000E+00 -0.10000000000E+04  0.10000000000E+04  0.00000000000E+00 0.  1.
    9000005    2    1    2  501    0  0.10966490799E+03 -0.31776477923E+02 -0.81951914477E+03  0.10512125215E+04  0.64838260321E+03 0.  0.
         13    1    3    3    0    0 -0.27097235793E+03 -0.32031828448E+02 -0.40607584075E+03  0.48923373272E+03  0.00000000000E+00 0.  1.
          3    1    3    3  501    0  0.38063726591E+03  0.25535052462E+00 -0.41344330403E+03  0.56197878879E+03  0.00000000000E+00 0.  1.
         -3    1    1    2    0  502 -0.10966490799E+03  0.31776477923E+02 -0.14211390377E+02  0.11505694334E+03  0.00000000000E+00 0. -1.
<mgrwt>
<rscale>  1 0.65835867E+03</rscale>
<asrwt>0</asrwt>
<pdfrwt beam="1">  1       21 0.25579917E-01 0.65835867E+03</pdfrwt>
<pdfrwt beam="2">0</pdfrwt>
<totfact> 0.13914728E+03</totfact>
</mgrwt>
</event>
<event>
 6    1  0.1347953E-004  0.6576291E+03  0.7818608E-02  0.9792568E-01
         21   -1    0    0  501  502  0.00000000000E+00  0.00000000000E+00  0.17062468366E+03  0.17062468366E+03  0.00000000000E+00 0.  1.
         13   -1    0    0    0    0 -0.00000000000E+00 -0.00000000000E+00 -0.10000000000E+04  0.10000000000E+04  0.00000000000E+00 0.  1.
    9000005    2    1    2  501    0 -0.93931890021E+02 -0.23898075101E+02 -0.84677686695E+03  0.10721506672E+04  0.65044728672E+03 0.  0.
         13    1    3    3    0    0  0.19433563553E+03  0.20998194066E+03 -0.35236261226E+03  0.45389223959E+03  0.00000000000E+00 0.  1.
          3    1    3    3  501    0 -0.28826752555E+03 -0.23388001576E+03 -0.49441425468E+03  0.61825842760E+03  0.00000000000E+00 0.  1.
         -1    1    1    2    0  502  0.93931890021E+02  0.23898075101E+02  0.17401550605E+02  0.98474016470E+02  0.00000000000E+00 0. -1.
<mgrwt>
<rscale>  1 0.65762907E+03</rscale>
<asrwt>0</asrwt>
<pdfrwt beam="1">  1       21 0.26249951E-01 0.65762907E+03</pdfrwt>
<pdfrwt beam="2">0</pdfrwt>
<totfact> 0.13224868E+03</totfact>
</mgrwt>
</event>
<event>
 6    1  0.1347953E-004  0.6587878E+03  0.7818608E-02  0.9790428E-01
         21   -1    0    0  501  502  0.00000000000E+00  0.00000000000E+00  0.21666609573E+03  0.21666609573E+03  0.00000000000E+00 0. -1.
         13   -1    0    0    0    0 -0.00000000000E+00 -0.00000000000E+00 -0.10000000000E+04  0.10000000000E+04  0.00000000000E+00 0.  1.
    9000005    2    1    2  501    0  0.34431035302E+02 -0.20274270212E+02 -0.88739244718E+03  0.11051998561E+04  0.65757495725E+03 0.  0.
         13    1    3    3    0    0 -0.69800504812E+02  0.86367360207E+02  0.73264562831E+02  0.13303806804E+03  0.00000000000E+00 0.  1.
          3    1    3    3  501    0  0.10423154011E+03 -0.10664163042E+03 -0.96065701001E+03  0.97216178806E+03  0.00000000000E+00 0.  1.
         -1    1    1    2    0  502 -0.34431035302E+02  0.20274270212E+02  0.10405854291E+03  0.11146623963E+03  0.00000000000E+00 0. -1.
<mgrwt>
<rscale>  1 0.65878780E+03</rscale>
<asrwt>0</asrwt>
<pdfrwt beam="1">  1       21 0.33333245E-01 0.65878780E+03</pdfrwt>
<pdfrwt beam="2">0</pdfrwt>
<totfact> 0.82025335E+02</totfact>
</mgrwt>
</event>
<event>
 6    1  0.1347953E-004  0.6835034E+03  0.7818608E-02  0.9745867E-01
         21   -1    0    0  501  502  0.00000000000E+00  0.00000000000E+00  0.24774762108E+03  0.24774762108E+03  0.00000000000E+00 0.  1.
         13   -1    0    0    0    0 -0.00000000000E+00 -0.00000000000E+00 -0.10000000000E+04  0.10000000000E+04  0.00000000000E+00 0.  1.
    9000005    2    1    2  501    0  0.20399054577E+03 -0.43011570433E+02 -0.78037645014E+03  0.10373834099E+04  0.65093378872E+03 0.  0.
         13    1    3    3    0    0  0.36180298484E+03 -0.15356942740E+03 -0.23261973234E+03  0.45672410572E+03  0.00000000000E+00 0.  1.
          1    1    3    3  501    0 -0.15781243907E+03  0.11055785697E+03 -0.54775671780E+03  0.58065930420E+03  0.00000000000E+00 0.  1.
         -3    1    1    2    0  502 -0.20399054577E+03  0.43011570433E+02  0.28124071223E+02  0.21036421116E+03  0.00000000000E+00 0. -1.
<mgrwt>
<rscale>  1 0.68350343E+03</rscale>
<asrwt>0</asrwt>
<pdfrwt beam="1">  1       21 0.38115018E-01 0.68350343E+03</pdfrwt>
<pdfrwt beam="2">0</pdfrwt>
<totfact> 0.62247103E+02</totfact>
</mgrwt>
</event>
<event>
 6    1  0.1347953E-004  0.6609214E+03  0.7818608E-02  0.9786499E-01
         21   -1    0    0  501  502  0.00000000000E+00  0.00000000000E+00  0.14883118263E+03  0.14883118263E+03  0.00000000000E+00 0.  1.
         13   -1    0    0    0    0 -0.00000000000E+00 -0.00000000000E+00 -0.10000000000E+04  0.10000000000E+04  0.00000000000E+00 0.  1.
    9000005    2    1    2  501    0 -0.65250043995E+02  0.67600826631E+02 -0.81215821228E+03  0.10470998339E+04  0.65420918704E+03 0.  0.
         13    1    3    3    0    0 -0.15834945062E+03 -0.22832086483E+03 -0.14973666103E+03  0.31563591919E+03  0.00000000000E+00 0.  1.
          3    1    3    3  501    0  0.93099406620E+02  0.29592169146E+03 -0.66242155125E+03  0.73146391473E+03  0.00000000000E+00 0.  1.
         -3    1    1    2    0  502  0.65250043995E+02 -0.67600826631E+02 -0.39010605082E+02  0.10173134872E+03  0.00000000000E+00 0. -1.
<mgrwt>
<rscale>  1 0.66092140E+03</rscale>
<asrwt>0</asrwt>
<pdfrwt beam="1">  1       21 0.22897104E-01 0.66092140E+03</pdfrwt>
<pdfrwt beam="2">0</pdfrwt>
<totfact> 0.17276584E+03</totfact>
</mgrwt>
</event>
<event>
 6    1  0.1347953E-004  0.6459581E+03  0.7818608E-02  0.9814393E-01
         21   -1    0    0  501  502  0.00000000000E+00  0.00000000000E+00  0.18026786914E+03  0.18026786914E+03  0.00000000000E+00 0.  1.
         13   -1    0    0    0    0 -0.00000000000E+00 -0.00000000000E+00 -0.10000000000E+04  0.10000000000E+04  0.00000000000E+00 0.  1.
    9000005    2    1    2  501    0 -0.36288651478E+02 -0.57259802549E+02 -0.87858668788E+03  0.10904936518E+04  0.64239106885E+03 0.  0.
         13    1    3    3    0    0 -0.14814735485E+03 -0.16403167757E+03 -0.24342445820E+02  0.22236588017E+03  0.00000000000E+00 0.  1.
          3    1    3    3  501    0  0.11185870338E+03  0.10677187502E+03 -0.85424424206E+03  0.86812777164E+03  0.00000000000E+00 0.  1.
         -3    1    1    2    0  502  0.36288651478E+02  0.57259802549E+02  0.58854557016E+02  0.89774217321E+02  0.00000000000E+00 0. -1.
<mgrwt>
<rscale>  1 0.64595808E+03</rscale>
<asrwt>0</asrwt>
<pdfrwt beam="1">  1       21 0.27733518E-01 0.64595808E+03</pdfrwt>
<pdfrwt beam="2">0</pdfrwt>
<totfact> 0.11870618E+03</totfact>
</mgrwt>
</event>
<event>
 6    1  0.1347953E-004  0.6640812E+03  0.7818608E-02  0.9780710E-01
         21   -1    0    0  501  502  0.00000000000E+00  0.00000000000E+00  0.25277249171E+03  0.25277249171E+03  0.00000000000E+00 0. -1.
         13   -1    0    0    0    0 -0.00000000000E+00 -0.00000000000E+00 -0.10000000000E+04  0.10000000000E+04  0.00000000000E+00 0.  1.
    9000005    2    1    2  501    0 -0.33051805330E+02 -0.20464885717E+02 -0.88679902495E+03  0.11078882564E+04  0.66294241425E+03 0.  0.
         13    1    3    3    0    0 -0.20117884119E+03 -0.20693160463E+03 -0.14148397538E+03  0.32142079962E+03  0.00000000000E+00 0.  1.
          3    1    3    3  501    0  0.16812703586E+03  0.18646671892E+03 -0.74531504956E+03  0.78646745677E+03  0.00000000000E+00 0.  1.
         -1    1    1    2    0  502  0.33051805330E+02  0.20464885717E+02  0.13957151666E+03  0.14488423532E+03  0.00000000000E+00 0. -1.
<mgrwt>
<rscale>  1 0.66408123E+03</rscale>
<asrwt>0</asrwt>
<pdfrwt beam="1">  1       21 0.38888075E-01 0.66408123E+03</pdfrwt>
<pdfrwt beam="2">0</pdfrwt>
<totfact> 0.59806366E+02</totfact>
</mgrwt>
</event>
<event>
 6    1  0.1347953E-004  0.6641389E+03  0.7818608E-02  0.9780604E-01
         21   -1    0    0  501  502  0.00000000000E+00  0.00000000000E+00  0.44474853671E+03  0.44474853671E+03  0.00000000000E+00 0. -1.
         13   -1    0    0    0    0 -0.00000000000E+00 -0.00000000000E+00 -0.10000000000E+04  0.10000000000E+04  0.00000000000E+00 0.  1.
    9000005    2    1    2  501    0  0.12240229420E+03  0.14614523559E+03 -0.85920432864E+03  0.10859615583E+04  0.63619154057E+03 0.  0.
         13    1    3    3    0    0  0.26131379671E+03 -0.10835286159E+02 -0.71916199099E+02  0.27124572525E+03  0.00000000000E+00 0.  1.
          1    1    3    3  501    0 -0.13891150251E+03  0.15698052175E+03 -0.78728812954E+03  0.81471583307E+03  0.00000000000E+00 0.  1.
         -1    1    1    2    0  502 -0.12240229420E+03 -0.14614523559E+03  0.30395286535E+03  0.35878697839E+03  0.00000000000E+00 0. -1.
<mgrwt>
<rscale>  1 0.66413886E+03</rscale>
<asrwt>0</asrwt>
<pdfrwt beam="1">  1       21 0.68422850E-01 0.66413886E+03</pdfrwt>
<pdfrwt beam="2">0</pdfrwt>
<totfact> 0.17658575E+02</totfact>
</mgrwt>
</event>
<event>
 6    1  0.1347953E-004  0.6276033E+03  0.7818608E-02  0.9849737E-01
         21   -1    0    0  501  502  0.00000000000E+00  0.00000000000E+00  0.11287191816E+03  0.11287191816E+03  0.00000000000E+00 0.  1.
         13   -1    0    0    0    0 -0.00000000000E+00 -0.00000000000E+00 -0.10000000000E+04  0.10000000000E+04  0.00000000000E+00 0.  1.
    9000005    2    1    2  501    0  0.44102259606E+01  0.43773681287E+02 -0.83727366116E+03  0.10463809524E+04  0.62605936507E+03 0.  0.
         13    1    3    3    0    0 -0.13305082852E+03  0.88467164377E+02 -0.88099698460E+03  0.89536844317E+03  0.00000000000E+00 0.  1.
          3    1    3    3  501    0  0.13746105448E+03 -0.44693483090E+02  0.43723323443E+02  0.15101250923E+03  0.00000000000E+00 0.  1.
         -3    1    1    2    0  502 -0.44102259606E+01 -0.43773681287E+02 -0.49854420684E+02  0.66490965763E+02  0.00000000000E+00 0. -1.
<mgrwt>
<rscale>  1 0.62760331E+03</rscale>
<asrwt>0</asrwt>
<pdfrwt beam="1">  1       21 0.17364910E-01 0.62760331E+03</pdfrwt>
<pdfrwt beam="2">0</pdfrwt>
<totfact> 0.29391735E+03</totfact>
</mgrwt>
</event>
<event>
 6    1  0.1347953E-004  0.6822741E+03  0.7818608E-02  0.9748035E-01
         21   -1    0    0  501  502  0.00000000000E+00  0.00000000000E+00  0.55690369541E+03  0.55690369541E+03  0.00000000000E+00 0. -1.
         13   -1    0    0    0    0 -0.00000000000E+00 -0.00000000000E+00 -0.10000000000E+04  0.10000000000E+04  0.00000000000E+00 0.  1.
    9000005    2    1    2  501    0  0.46975279267E+02  0.21191839409E+03 -0.85346884211E+03  0.10926605456E+04  0.64682448996E+03 0.  0.
         13    1    3    3    0    0  0.22647250783E+03  0.15500346212E+03 -0.86152901693E+03  0.90418367442E+03  0.00000000000E+00 0.  1.
          3    1    3    3  501    0 -0.17949722856E+03  0.56914931970E+02  0.80601748286E+01  0.18847687116E+03  0.00000000000E+00 0.  1.
         -3    1    1    2    0  502 -0.46975279267E+02 -0.21191839409E+03  0.41037253752E+03  0.46424314983E+03  0.00000000000E+00 0. -1.
<mgrwt>
<rscale>  1 0.68227414E+03</rscale>
<asrwt>0</asrwt>
<pdfrwt beam="1">  1       21 0.85677489E-01 0.68227414E+03</pdfrwt>
<pdfrwt beam="2">0</pdfrwt>
<totfact> 0.10474173E+02</totfact>
</mgrwt>
</event>
<event>
 6    1  0.1347953E-004  0.6367139E+03  0.7818608E-02  0.9832034E-01
         21   -1    0    0  501  502  0.00000000000E+00  0.00000000000E+00  0.12190609361E+03  0.12190609361E+03  0.00000000000E+00 0.  1.
         13   -1    0    0    0    0 -0.00000000000E+00 -0.00000000000E+00 -0.10000000000E+04  0.10000000000E+04  0.00000000000E+00 0.  1.
    9000005    2    1    2  501    0 -0.27876794642E+02 -0.22869710344E+02 -0.87954498165E+03  0.10858194624E+04  0.63569205666E+03 0.  0.
         13    1    3    3    0    0 -0.27083748346E+03 -0.13405232867E+03 -0.70400255480E+03  0.76612176998E+03  0.00000000000E+00 0.  1.
          3    1    3    3  501    0  0.24296068882E+03  0.11118261832E+03 -0.17554242685E+03  0.31969769244E+03  0.00000000000E+00 0.  1.
         -3    1    1    2    0  502  0.27876794642E+02  0.22869710344E+02  0.14510752560E+01  0.36086631182E+02  0.00000000000E+00 0. -1.
<mgrwt>
<rscale>  1 0.63671385E+03</rscale>
<asrwt>0</asrwt>
<pdfrwt beam="1">  1       21 0.18754783E-01 0.63671385E+03</pdfrwt>
<pdfrwt beam="2">0</pdfrwt>
<totfact> 0.25389499E+03</totfact>
</mgrwt>
</event>
<event>
 6    1  0.1347953E-004  0.6984068E+03  0.7818608E-02  0.9719961E-01
         21   -1    0    0  501  502  0.00000000000E+00  0.00000000000E+00  0.11586651580E+04  0.11586651580E+04  0.00000000000E+00 0. -1.
         13   -1    0    0    0    0 -0.00000000000E+00 -0.00000000000E+00 -0.10000000000E+04  0.10000000000E+04  0.00000000000E+00 0.  1.
    9000005    2    1    2  501    0  0.38978751345E+02 -0.75491001422E+02 -0.87610332078E+03  0.11204146877E+04  0.69321988534E+03 0.  0.
         13    1    3    3    0    0  0.29029890490E+03 -0.54321774849E+02 -0.11216461294E+03  0.31591962555E+03  0.00000000000E+00 0.  1.
          3    1    3    3  501    0 -0.25132015356E+03 -0.21169226573E+02 -0.76393870784E+03  0.80449506218E+03  0.00000000000E+00 0.  1.
         -1    1    1    2    0  502 -0.38978751345E+02  0.75491001422E+02  0.10347684788E+04  0.10382504703E+04  0.00000000000E+00 0. -1.
<mgrwt>
<rscale>  1 0.69840679E+03</rscale>
<asrwt>0</asrwt>
<pdfrwt beam="1">  1       21 0.17825617E+00 0.69840679E+03</pdfrwt>
<pdfrwt beam="2">0</pdfrwt>
<totfact> 0.15383937E+01</totfact>
</mgrwt>
</event>
<event>
 6    1  0.1347953E-004  0.6733548E+03  0.7818608E-02  0.9763916E-01
         21   -1    0    0  501  502  0.00000000000E+00  0.00000000000E+00  0.17884540600E+03  0.17884540600E+03  0.00000000000E+00 0.  1.
         13   -1    0    0    0    0 -0.00000000000E+00 -0.00000000000E+00 -0.10000000000E+04  0.10000000000E+04  0.00000000000E+00 0.  1.
    9000005    2    1    2  501    0  0.10872313017E+03  0.12819818583E+03 -0.60668295588E+03  0.90635030981E+03  0.65203618094E+03 0.  0.
         13    1    3    3    0    0 -0.25865622024E+03  0.77445943823E+02 -0.39758298463E+03  0.48059665433E+03  0.00000000000E+00 0.  1.
          3    1    3    3  501    0  0.36737935041E+03  0.50752242012E+02 -0.20909997125E+03  0.42575365548E+03  0.00000000000E+00 0.  1.
         -3    1    1    2    0  502 -0.10872313017E+03 -0.12819818583E+03 -0.21447163813E+03  0.27249509619E+03  0.00000000000E+00 0. -1.
<mgrwt>
<rscale>  1 0.67335479E+03</rscale>
<asrwt>0</asrwt>
<pdfrwt beam="1">  1       21 0.27514677E-01 0.67335479E+03</pdfrwt>
<pdfrwt beam="2">0</pdfrwt>
<totfact> 0.12039780E+03</totfact>
</mgrwt>
</event>
<event>
 6    1  0.1347953E-004  0.6817414E+03  0.7818608E-02  0.9748977E-01
         21   -1    0    0  501  502  0.00000000000E+00  0.00000000000E+00  0.20186869040E+03  0.20186869040E+03  0.00000000000E+00 0. -1.
         13   -1    0    0    0    0 -0.00000000000E+00 -0.00000000000E+00 -0.10000000000E+04  0.10000000000E+04  0.00000000000E+00 0.  1.
    9000005    2    1    2  501    0 -0.42137122305E+02  0.14631785668E+02 -0.87727074824E+03  0.11110244447E+04  0.68028062210E+03 0.  0.
         13    1    3    3    0    0  0.14328872853E+03 -0.14613877234E+03 -0.48303345085E+01  0.20472306328E+03  0.00000000000E+00 0.  1.
          1    1    3    3  501    0 -0.18542585083E+03  0.16077055801E+03 -0.87244041373E+03  0.90630138143E+03  0.00000000000E+00 0.  1.
         -1    1    1    2    0  502  0.42137122305E+02 -0.14631785668E+02  0.79139438640E+02  0.90844245697E+02  0.00000000000E+00 0. -1.
<mgrwt>
<rscale>  1 0.68174141E+03</rscale>
<asrwt>0</asrwt>
<pdfrwt beam="1">  1       21 0.31056721E-01 0.68174141E+03</pdfrwt>
<pdfrwt beam="2">0</pdfrwt>
<totfact> 0.94480828E+02</totfact>
</mgrwt>
</event>
<event>
 6    1  0.1347953E-004  0.6169617E+03  0.7818608E-02  0.9870828E-01
         21   -1    0    0  501  502  0.00000000000E+00  0.00000000000E+00  0.33590460747E+03  0.33590460747E+03  0.00000000000E+00 0. -1.
         13   -1    0    0    0    0 -0.00000000000E+00 -0.00000000000E+00 -0.10000000000E+04  0.10000000000E+04  0.00000000000E+00 0.  1.
    9000005    2    1    2  501    0 -0.74862293478E+01  0.26291182927E+02 -0.90398939692E+03  0.10944581263E+04  0.61635581487E+03 0.  0.
         13    1    3    3    0    0  0.25791318534E+03  0.35272123290E+02 -0.16254619516E+03  0.30689509513E+03  0.00000000000E+00 0.  1.
          3    1    3    3  501    0 -0.26539941469E+03 -0.89809403628E+01 -0.74144320176E+03  0.78756303116E+03  0.00000000000E+00 0.  1.
         -3    1    1    2    0  502  0.74862293478E+01 -0.26291182927E+02  0.23989400439E+03  0.24144648118E+03  0.00000000000E+00 0. -1.
<mgrwt>
<rscale>  1 0.61696172E+03</rscale>
<asrwt>0</asrwt>
<pdfrwt beam="1">  1       21 0.51677630E-01 0.61696172E+03</pdfrwt>
<pdfrwt beam="2">0</pdfrwt>
<totfact> 0.32965329E+02</totfact>
</mgrwt>
</event>
<event>
 6    1  0.1347953E-004  0.6612423E+03  0.7818608E-02  0.9785910E-01
         21   -1    0    0  501  502  0.00000000000E+00  0.00000000000E+00  0.26092544990E+03  0.26092544990E+03  0.00000000000E+00 0. -1.
         13   -1    0    0    0    0 -0.00000000000E+00 -0.00000000000E+00 -0.10000000000E+04  0.10000000000E+04  0.00000000000E+00 0.  1.
    9000005    2    1    2  501    0 -0.63328009904E+02  0.11836393281E+03 -0.85686086637E+03  0.10823363300E+04  0.64747272498E+03 0.  0.
         13    1    3    3    0    0  0.23019704465E+03 -0.10588933387E+03 -0.17856538767E+03  0.30998198023E+03  0.00000000000E+00 0.  1.
          1    1    3    3  501    0 -0.29352505455E+03  0.22425326668E+03 -0.67829547869E+03  0.77235434982E+03  0.00000000000E+00 0.  1.
         -1    1    1    2    0  502  0.63328009904E+02 -0.11836393281E+03  0.11778631627E+03  0.17858911985E+03  0.00000000000E+00 0. -1.
<mgrwt>
<rscale>  1 0.66124231E+03</rscale>
<asrwt>0</asrwt>
<pdfrwt beam="1">  1       21 0.40142376E-01 0.66124231E+03</pdfrwt>
<pdfrwt beam="2">0</pdfrwt>
<totfact> 0.56009754E+02</totfact>
</mgrwt>
</event>
<event>
 6    1  0.1347953E-004  0.6558956E+03  0.7818608E-02  0.9795779E-01
         21   -1    0    0  501  502  0.00000000000E+00  0.00000000000E+00  0.19132549896E+03  0.19132549896E+03  0.00000000000E+00 0.  1.
         13   -1    0    0    0    0 -0.00000000000E+00 -0.00000000000E+00 -0.10000000000E+04  0.10000000000E+04  0.00000000000E+00 0.  1.
    9000005    2    1    2  501    0  0.63553546408E+02 -0.36812835111E+02 -0.87420094106E+03  0.10928981022E+04  0.65177046448E+03 0.  0.
         13    1    3    3    0    0  0.11408039409E+03 -0.12874276608E+03  0.36775459032E+02  0.17590187753E+03  0.00000000000E+00 0.  1.
          3    1    3    3  501    0 -0.50526847682E+02  0.91929930965E+02 -0.91097640009E+03  0.91699622467E+03  0.00000000000E+00 0.  1.
         -3    1    1    2    0  502 -0.63553546408E+02  0.36812835111E+02  0.65526440021E+02  0.98427396754E+02  0.00000000000E+00 0. -1.
<mgrwt>
<rscale>  1 0.65589555E+03</rscale>
<asrwt>0</asrwt>
<pdfrwt beam="1">  1       21 0.29434691E-01 0.65589555E+03</pdfrwt>
<pdfrwt beam="2">0</pdfrwt>
<totfact> 0.10537604E+03</totfact>
</mgrwt>
</event>
<event>
 6    1  0.1347953E-004  0.6934413E+03  0.7818608E-02  0.9728515E-01
         21   -1    0    0  501  502  0.00000000000E+00  0.00000000000E+00  0.19434242761E+03  0.19434242761E+03  0.00000000000E+00 0.  1.
         13   -1    0    0    0    0 -0.00000000000E+00 -0.00000000000E+00 -0.10000000000E+04  0.10000000000E+04  0.00000000000E+00 0.  1.
    9000005    2    1    2  501    0 -0.12659379838E+03 -0.17653858610E+01 -0.81172054278E+03  0.10675912304E+04  0.68178566233E+03 0.  0.
         13    1    3    3    0    0 -0.21572212009E+03  0.14661043217E+03 -0.85102455659E+03  0.89009743727E+03  0.00000000000E+00 0.  1.
          1    1    3    3  501    0  0.89128321714E+02 -0.14837581803E+03  0.39304013816E+02  0.17749379316E+03  0.00000000000E+00 0.  1.
         -1    1    1    2    0  502  0.12659379838E+03  0.17653858610E+01  0.60629703838E+01  0.12675119717E+03  0.00000000000E+00 0. -1.
<mgrwt>
<rscale>  1 0.69344127E+03</rscale>
<asrwt>0</asrwt>
<pdfrwt beam="1">  1       21 0.29898834E-01 0.69344127E+03</pdfrwt>
<pdfrwt beam="2">0</pdfrwt>
<totfact> 0.10189829E+03</totfact>
</mgrwt>
</event>
<event>
 6    1  0.1347953E-004  0.5131686E+03  0.7818608E-02  0.1010398E+00
         21   -1    0    0  501  502  0.00000000000E+00  0.00000000000E+00  0.42547536236E+03  0.42547536236E+03  0.00000000000E+00 0. -1.
         13   -1    0    0    0    0 -0.00000000000E+00 -0.00000000000E+00 -0.10000000000E+04  0.10000000000E+04  0.00000000000E+00 0.  1.
    9000005    2    1    2  501    0 -0.31476550976E+02 -0.13841436171E+02 -0.93328831250E+03  0.10650676307E+04  0.51201525871E+03 0.  0.
         13    1    3    3    0    0 -0.84145833220E+02  0.91667033169E+02 -0.74013189364E-01  0.12443219718E+03  0.00000000000E+00 0.  1.
          3    1    3    3  501    0  0.52669282244E+02 -0.10550846934E+03 -0.93321429932E+03  0.94063543355E+03  0.00000000000E+00 0.  1.
         -1    1    1    2    0  502  0.31476550976E+02  0.13841436171E+02  0.35876367487E+03  0.36040773164E+03  0.00000000000E+00 0. -1.
<mgrwt>
<rscale>  1 0.51316857E+03</rscale>
<asrwt>0</asrwt>
<pdfrwt beam="1">  1       21 0.65457746E-01 0.51316857E+03</pdfrwt>
<pdfrwt beam="2">0</pdfrwt>
<totfact> 0.19893305E+02</totfact>
</mgrwt>
</event>
<event>
 6    1  0.1347953E-004  0.6491312E+03  0.7818608E-02  0.9808411E-01
         21   -1    0    0  501  502  0.00000000000E+00  0.00000000000E+00  0.14198283077E+03  0.14198283077E+03  0.00000000000E+00 0.  1.
         13   -1    0    0    0    0 -0.00000000000E+00 -0.00000000000E+00 -0.10000000000E+04  0.10000000000E+04  0.00000000000E+00 0.  1.
    9000005    2    1    2  501    0  0.15075193116E+02 -0.41112686113E+02 -0.87957755425E+03  0.10931733582E+04  0.64765253246E+03 0.  0.
         13    1    3    3    0    0  0.32542124246E+03 -0.78336881877E+02 -0.49589036801E+03  0.59828330178E+03  0.00000000000E+00 0.  1.
          3    1    3    3  501    0 -0.31034604934E+03  0.37224195764E+02 -0.38368718624E+03  0.49489005645E+03  0.00000000000E+00 0.  1.
         -3    1    1    2    0  502 -0.15075193116E+02  0.41112686113E+02  0.21560385024E+02  0.48809472536E+02  0.00000000000E+00 0. -1.
<mgrwt>
<rscale>  1 0.64913120E+03</rscale>
<asrwt>0</asrwt>
<pdfrwt beam="1">  1       21 0.21843512E-01 0.64913120E+03</pdfrwt>
<pdfrwt beam="2">0</pdfrwt>
<totfact> 0.18938684E+03</totfact>
</mgrwt>
</event>
<event>
 6    1  0.1347953E-004  0.6600227E+03  0.7818608E-02  0.9788152E-01
         21   -1    0    0  501  502  0.00000000000E+00  0.00000000000E+00  0.18248412322E+03  0.18248412322E+03  0.00000000000E+00 0.  1.
         13   -1    0    0    0    0 -0.00000000000E+00 -0.00000000000E+00 -0.10000000000E+04  0.10000000000E+04  0.00000000000E+00 0.  1.
    9000005    2    1    2  501    0 -0.36601923209E+02  0.57890948419E+02 -0.87294205286E+03  0.10943755329E+04  0.65645937932E+03 0.  0.
         13    1    3    3    0    0  0.98687835462E+02 -0.22135086063E+03 -0.10127993754E+03  0.26266541097E+03  0.00000000000E+00 0.  1.
          3    1    3    3  501    0 -0.13528975867E+03  0.27924180905E+03 -0.77166211532E+03  0.83171012195E+03  0.00000000000E+00 0.  1.
         -3    1    1    2    0  502  0.36601923209E+02 -0.57890948419E+02  0.55426176078E+02  0.88108590309E+02  0.00000000000E+00 0. -1.
<mgrwt>
<rscale>  1 0.66002271E+03</rscale>
<asrwt>0</asrwt>
<pdfrwt beam="1">  1       21 0.28074480E-01 0.66002271E+03</pdfrwt>
<pdfrwt beam="2">0</pdfrwt>
<totfact> 0.11576562E+03</totfact>
</mgrwt>
</event>
<event>
 6    1  0.1347953E-004  0.6746526E+03  0.7818608E-02  0.9761589E-01
         21   -1    0    0  501  502  0.00000000000E+00  0.00000000000E+00  0.42054631665E+03  0.42054631665E+03  0.00000000000E+00 0.  1.
         13   -1    0    0    0    0 -0.00000000000E+00 -0.00000000000E+00 -0.10000000000E+04  0.10000000000E+04  0.00000000000E+00 0.  1.
    9000005    2    1    2  501    0  0.26574652263E+03 -0.13593947508E+02 -0.81998466561E+03  0.10618526268E+04  0.61995978866E+03 0.  0.
         13    1    3    3    0    0 -0.33121560726E+02 -0.81631233583E+02  0.75087013655E+02  0.11575299435E+03  0.00000000000E+00 0.  1.
          1    1    3    3  501    0  0.29886808335E+03  0.68037286075E+02 -0.89507167926E+03  0.94609963247E+03  0.00000000000E+00 0.  1.
         -3    1    1    2    0  502 -0.26574652263E+03  0.13593947508E+02  0.24053098225E+03  0.35869368983E+03  0.00000000000E+00 0. -1.
<mgrwt>
<rscale>  1 0.67465261E+03</rscale>
<asrwt>0</asrwt>
<pdfrwt beam="1">  1       21 0.64699431E-01 0.67465261E+03</pdfrwt>
<pdfrwt beam="2">0</pdfrwt>
<totfact> 0.20005429E+02</totfact>
</mgrwt>
</event>
<event>
 6    1  0.1347953E-004  0.6465944E+03  0.7818608E-02  0.9813191E-01
         21   -1    0    0  501  502  0.00000000000E+00  0.00000000000E+00  0.19874044819E+03  0.19874044819E+03  0.00000000000E+00 0.  1.
         13   -1    0    0    0    0 -0.00000000000E+00 -0.00000000000E+00 -0.10000000000E+04  0.10000000000E+04  0.00000000000E+00 0.  1.
    9000005    2    1    2  501    0 -0.66291317355E+02  0.22835400982E+03 -0.65053095973E+03  0.91721034141E+03  0.60128544658E+03 0.  0.
         13    1    3    3    0    0 -0.87733344689E+02  0.29563458119E+03 -0.74090535905E+03  0.80251959256E+03  0.00000000000E+00 0.  1.
          3    1    3    3  501    0  0.21442027334E+02 -0.67280571374E+02  0.90374399318E+02  0.11469074885E+03  0.00000000000E+00 0.  1.
         -3    1    1    2    0  502  0.66291317355E+02 -0.22835400982E+03 -0.15072859207E+03  0.28153010678E+03  0.00000000000E+00 0. -1.
<mgrwt>
<rscale>  1 0.64659437E+03</rscale>
<asrwt>0</asrwt>
<pdfrwt beam="1">  1       21 0.30575453E-01 0.64659437E+03</pdfrwt>
<pdfrwt beam="2">0</pdfrwt>
<totfact> 0.97709312E+02</totfact>
</mgrwt>
</event>
<event>
 6    1  0.1347953E-004  0.6699541E+03  0.7818608E-02  0.9770041E-01
         21   -1    0    0  501  502  0.00000000000E+00  0.00000000000E+00  0.29585666872E+03  0.29585666872E+03  0.00000000000E+00 0.  1.
         13   -1    0    0    0    0 -0.00000000000E+00 -0.00000000000E+00 -0.10000000000E+04  0.10000000000E+04  0.00000000000E+00 0.  1.
    9000005    2    1    2  501    0 -0.66691428710E+02  0.19347136498E+03 -0.82142411865E+03  0.10599886997E+04  0.63793380929E+03 0.  0.
         13    1    3    3    0    0  0.27251230757E+03 -0.61246717657E+01 -0.39242073902E+03  0.47780174319E+03  0.00000000000E+00 0.  1.
          3    1    3    3  501    0 -0.33920373627E+03  0.19959603675E+03 -0.42900337962E+03  0.58218695650E+03  0.00000000000E+00 0.  1.
         -3    1    1    2    0  502  0.66691428710E+02 -0.19347136498E+03  0.11728078737E+03  0.23586796903E+03  0.00000000000E+00 0. -1.
<mgrwt>
<rscale>  1 0.66995407E+03</rscale>
<asrwt>0</asrwt>
<pdfrwt beam="1">  1       21 0.45516409E-01 0.66995407E+03</pdfrwt>
<pdfrwt beam="2">0</pdfrwt>
<totfact> 0.43006165E+02</totfact>
</mgrwt>
</event>
<event>
 6    1  0.1347953E-004  0.6619046E+03  0.7818608E-02  0.9784694E-01
         21   -1    0    0  501  502  0.00000000000E+00  0.00000000000E+00  0.13790316506E+03  0.13790316506E+03  0.00000000000E+00 0.  1.
         13   -1    0    0    0    0 -0.00000000000E+00 -0.00000000000E+00 -0.10000000000E+04  0.10000000000E+04  0.00000000000E+00 0.  1.
    9000005    2    1    2  501    0 -0.77713653393E+02 -0.36498969603E+01 -0.80024427952E+03  0.10385126611E+04  0.65731644331E+03 0.  0.
         13    1    3    3    0    0 -0.23647394410E+03  0.19860775435E+03 -0.69530514302E+03  0.76079840183E+03  0.00000000000E+00 0.  1.
          3    1    3    3  501    0  0.15876029071E+03 -0.20225765131E+03 -0.10493913650E+03  0.27771425924E+03  0.00000000000E+00 0.  1.
         -1    1    1    2    0  502  0.77713653393E+02  0.36498969603E+01 -0.61852555418E+02  0.99390503989E+02  0.00000000000E+00 0. -1.
<mgrwt>
<rscale>  1 0.66190456E+03</rscale>
<asrwt>0</asrwt>
<pdfrwt beam="1">  1       21 0.21215871E-01 0.66190456E+03</pdfrwt>
<pdfrwt beam="2">0</pdfrwt>
<totfact> 0.20024696E+03</totfact>
</mgrwt>
</event>
<event>
 6    1  0.1347953E-004  0.6502004E+03  0.7818608E-02  0.9806403E-01
         21   -1    0    0  501  502  0.00000000000E+00  0.00000000000E+00  0.15099366476E+03  0.15099366476E+03  0.00000000000E+00 0.  1.
         13   -1    0    0    0    0 -0.00000000000E+00 -0.00000000000E+00 -0.10000000000E+04  0.10000000000E+04  0.00000000000E+00 0.  1.
    9000005    2    1    2  501    0 -0.87816079626E+01 -0.28242136974E+02 -0.88890826706E+03  0.11013257767E+04  0.64952738533E+03 0.  0.
         13    1    3    3    0    0  0.39951801829E+02 -0.86024700141E+02 -0.97907923026E+03  0.98366281551E+03  0.00000000000E+00 0.  1.
          3    1    3    3  501    0 -0.48733409792E+02  0.57782563168E+02  0.90170963199E+02  0.11766296121E+03  0.00000000000E+00 0.  1.
         -1    1    1    2    0  502  0.87816079626E+01  0.28242136974E+02  0.39901931815E+02  0.49667888035E+02  0.00000000000E+00 0. -1.
<mgrwt>
<rscale>  1 0.65020040E+03</rscale>
<asrwt>0</asrwt>
<pdfrwt beam="1">  1       21 0.23229794E-01 0.65020040E+03</pdfrwt>
<pdfrwt beam="2">0</pdfrwt>
<totfact> 0.16807171E+03</totfact>
</mgrwt>
</event>
<event>
 6    1  0.1347953E-004  0.6046047E+03  0.7818608E-02  0.9895899E-01
         21   -1    0    0  501  502  0.00000000000E+00  0.00000000000E+00  0.12580695307E+03  0.12580695307E+03  0.00000000000E+00 0. -1.
         13   -1    0    0    0    0 -0.00000000000E+00 -0.00000000000E+00 -0.10000000000E+04  0.10000000000E+04  0.00000000000E+00 0.  1.
    9000005    2    1    2  501    0 -0.25155144595E+02 -0.14423986481E+02 -0.90183207479E+03  0.10857476402E+04  0.60390894547E+03 0.  0.
         13    1    3    3    0    0 -0.23179087826E+03 -0.77848307119E+02 -0.81824578137E+03  0.85399855322E+03  0.00000000000E+00 0.  1.
          1    1    3    3  501    0  0.20663573366E+03  0.63424320638E+02 -0.83586293416E+02  0.23174908699E+03  0.00000000000E+00 0.  1.
         -1    1    1    2    0  502  0.25155144595E+02  0.14423986481E+02  0.27639027856E+02  0.40059312855E+02  0.00000000000E+00 0. -1.
<mgrwt>
<rscale>  1 0.60460470E+03</rscale>
<asrwt>0</asrwt>
<pdfrwt beam="1">  1       21 0.19354915E-01 0.60460470E+03</pdfrwt>
<pdfrwt beam="2">0</pdfrwt>
<totfact> 0.23938480E+03</totfact>
</mgrwt>
</event>
<event>
 6    1  0.1347953E-004  0.6763248E+03  0.7818608E-02  0.9758599E-01
         21   -1    0    0  501  502  0.00000000000E+00  0.00000000000E+00  0.23839285047E+03  0.23839285047E+03  0.00000000000E+00 0.  1.
         13   -1    0    0    0    0 -0.00000000000E+00 -0.00000000000E+00 -0.10000000000E+04  0.10000000000E+04  0.00000000000E+00 0.  1.
    9000005    2    1    2  501    0  0.64008007646E+02 -0.18235701270E+03 -0.79338545796E+03  0.10425332936E+04  0.64812350542E+03 0.  0.
         13    1    3    3    0    0  0.22444650894E+03  0.11070154159E+03 -0.93799533057E+02  0.26726282774E+03  0.00000000000E+00 0.  1.
          1    1    3    3  501    0 -0.16043850130E+03 -0.29305855429E+03 -0.69958592490E+03  0.77527046588E+03  0.00000000000E+00 0.  1.
         -1    1    1    2    0  502 -0.64008007646E+02  0.18235701270E+03  0.31778308427E+02  0.19585955685E+03  0.00000000000E+00 0. -1.
<mgrwt>
<rscale>  1 0.67632476E+03</rscale>
<asrwt>0</asrwt>
<pdfrwt beam="1">  1       21 0.36675822E-01 0.67632476E+03</pdfrwt>
<pdfrwt beam="2">0</pdfrwt>
<totfact> 0.67413816E+02</totfact>
</mgrwt>
</event>
<event>
 6    1  0.1347953E-004  0.6698247E+03  0.7818608E-02  0.9770275E-01
         21   -1    0    0  501  502  0.00000000000E+00  0.00000000000E+00  0.33561958989E+03  0.33561958989E+03  0.00000000000E+00 0. -1.
         13   -1    0    0    0    0 -0.00000000000E+00 -0.00000000000E+00 -0.10000000000E+04  0.10000000000E+04  0.00000000000E+00 0.  1.
    9000005    2    1    2  501    0  0.12217042796E+03 -0.34409653984E+01 -0.86905334769E+03  0.10972323732E+04  0.65858006797E+03 0.  0.
         13    1    3    3    0    0 -0.62497071649E+02 -0.28587277103E+03 -0.59294714911E+03  0.66122269079E+03  0.00000000000E+00 0.  1.
          3    1    3    3  501    0  0.18466749961E+03  0.28243180563E+03 -0.27610619858E+03  0.43600968239E+03  0.00000000000E+00 0.  1.
         -3    1    1    2    0  502 -0.12217042796E+03  0.34409653984E+01  0.20467293758E+03  0.23838721671E+03  0.00000000000E+00 0. -1.
<mgrwt>
<rscale>  1 0.66982472E+03</rscale>
<asrwt>0</asrwt>
<pdfrwt beam="1">  1       21 0.51633782E-01 0.66982472E+03</pdfrwt>
<pdfrwt beam="2">0</pdfrwt>
<totfact> 0.32853656E+02</totfact>
</mgrwt>
</event>
<event>
 6    1  0.1347953E-004  0.7198506E+03  0.7818608E-02  0.9683874E-01
         21   -1    0    0  501  502  0.00000000000E+00  0.00000000000E+00  0.27845829942E+03  0.27845829942E+03  0.00000000000E+00 0. -1.
         13   -1    0    0    0    0 -0.00000000000E+00 -0.00000000000E+00 -0.10000000000E+04  0.10000000000E+04  0.00000000000E+00 0.  1.
    9000005    2    1    2  501    0  0.28060366197E+03 -0.13070889538E+03 -0.62744341056E+03  0.95491893764E+03  0.64989361711E+03 0.  0.
         13    1    3    3    0    0 -0.58761676341E+02  0.27646090750E+02  0.11005476708E+03  0.12778612091E+03  0.00000000000E+00 0.  1.
          1    1    3    3  501    0  0.33936533831E+03 -0.15835498613E+03 -0.73749817764E+03  0.82713281673E+03  0.00000000000E+00 0.  1.
         -1    1    1    2    0  502 -0.28060366197E+03  0.13070889538E+03 -0.94098290015E+02  0.32353936179E+03  0.00000000000E+00 0. -1.
<mgrwt>
<rscale>  1 0.71985064E+03</rscale>
<asrwt>0</asrwt>
<pdfrwt beam="1">  1       21 0.42839737E-01 0.71985064E+03</pdfrwt>
<pdfrwt beam="2">0</pdfrwt>
<totfact> 0.48668326E+02</totfact>
</mgrwt>
</event>
<event>
 6    1  0.1347953E-004  0.7087081E+03  0.7818608E-02  0.9702455E-01
         21   -1    0    0  501  502  0.00000000000E+00  0.00000000000E+00  0.30970652848E+03  0.30970652848E+03  0.00000000000E+00 0.  1.
         13   -1    0    0    0    0 -0.00000000000E+00 -0.00000000000E+00 -0.10000000000E+04  0.10000000000E+04  0.00000000000E+00 0.  1.
    9000005    2    1    2  501    0 -0.39792044299E+02 -0.26164982254E+03 -0.75679105681E+03  0.10368220011E+04  0.65743678168E+03 0.  0.
         13    1    3    3    0    0  0.98577237681E+02  0.91858459021E+01  0.92022537153E+02  0.13516655984E+03  0.00000000000E+00 0.  1.
          1    1    3    3  501    0 -0.13836928198E+03 -0.27083566844E+03 -0.84881359396E+03  0.90165544128E+03  0.00000000000E+00 0.  1.
         -1    1    1    2    0  502  0.39792044299E+02  0.26164982254E+03  0.66497585291E+02  0.27288452736E+03  0.00000000000E+00 0. -1.
<mgrwt>
<rscale>  1 0.70870809E+03</rscale>
<asrwt>0</asrwt>
<pdfrwt beam="1">  1       21 0.47647157E-01 0.70870809E+03</pdfrwt>
<pdfrwt beam="2">0</pdfrwt>
<totfact> 0.38893881E+02</totfact>
</mgrwt>
</event>
<event>
 6    1  0.1347953E-004  0.6597187E+03  0.7818608E-02  0.9788712E-01
         21   -1    0    0  501  502  0.00000000000E+00  0.00000000000E+00  0.17551735658E+03  0.17551735658E+03  0.00000000000E+00 0.  1.
         13   -1    0    0    0    0 -0.00000000000E+00 -0.00000000000E+00 -0.10000000000E+04  0.10000000000E+04  0.00000000000E+00 0.  1.
    9000005    2    1    2  501    0 -0.73102329729E+01  0.65727280358E+02 -0.87246499617E+03  0.10938116587E+04  0.65639565835E+03 0.  0.
         13    1    3    3    0    0 -0.13865722004E+03 -0.25797494063E+03 -0.27519510036E+03  0.40188211944E+03  0.00000000000E+00 0.  1.
          1    1    3    3  501    0  0.13134698707E+03  0.32370222098E+03 -0.59726989580E+03  0.69192953927E+03  0.00000000000E+00 0.  1.
         -1    1    1    2    0  502  0.73102329729E+01 -0.65727280358E+02  0.47982352750E+02  0.81705697872E+02  0.00000000000E+00 0. -1.
<mgrwt>
<rscale>  1 0.65971871E+03</rscale>
<asrwt>0</asrwt>
<pdfrwt beam="1">  1       21 0.27002669E-01 0.65971871E+03</pdfrwt>
<pdfrwt beam="2">0</pdfrwt>
<totfact> 0.12505648E+03</totfact>
</mgrwt>
</event>
<event>
 6    1  0.1347953E-004  0.6542975E+03  0.7818608E-02  0.9798749E-01
         21   -1    0    0  501  502  0.00000000000E+00  0.00000000000E+00  0.15084604889E+03  0.15084604889E+03  0.00000000000E+00 0.  1.
         13   -1    0    0    0    0 -0.00000000000E+00 -0.00000000000E+00 -0.10000000000E+04  0.10000000000E+04  0.00000000000E+00 0.  1.
    9000005    2    1    2  501    0  0.61565384868E+02 -0.87475524140E+02 -0.79895862455E+03  0.10326858409E+04  0.64549430545E+03 0.  0.
         13    1    3    3    0    0  0.37394191394E+02  0.26930758819E+03 -0.48874538612E+03  0.55928253598E+03  0.00000000000E+00 0.  1.
          3    1    3    3  501    0  0.24171193474E+02 -0.35678311233E+03 -0.31021323843E+03  0.47340330495E+03  0.00000000000E+00 0.  1.
         -3    1    1    2    0  502 -0.61565384868E+02  0.87475524140E+02 -0.50195326556E+02  0.11816020796E+03  0.00000000000E+00 0. -1.
<mgrwt>
<rscale>  1 0.65429746E+03</rscale>
<asrwt>0</asrwt>
<pdfrwt beam="1">  1       21 0.23207084E-01 0.65429746E+03</pdfrwt>
<pdfrwt beam="2">0</pdfrwt>
<totfact> 0.16835901E+03</totfact>
</mgrwt>
</event>
<event>
 6    1  0.1347953E-004  0.6369056E+03  0.7818608E-02  0.9831665E-01
         21   -1    0    0  501  502  0.00000000000E+00  0.00000000000E+00  0.16482201419E+03  0.16482201419E+03  0.00000000000E+00 0. -1.
         13   -1    0    0    0    0 -0.00000000000E+00 -0.00000000000E+00 -0.10000000000E+04  0.10000000000E+04  0.00000000000E+00 0.  1.
    9000005    2    1    2  501    0  0.35129333103E+02 -0.29213834127E+02 -0.88939217625E+03  0.10939228140E+04  0.63526463901E+03 0.  0.
         13    1    3    3    0    0 -0.15923413178E+03  0.22922405249E+03 -0.23848368033E+03  0.36711529626E+03  0.00000000000E+00 0.  1.
          3    1    3    3  501    0  0.19436346489E+03 -0.25843788662E+03 -0.65090849592E+03  0.72680751770E+03  0.00000000000E+00 0.  1.
         -1    1    1    2    0  502 -0.35129333103E+02  0.29213834127E+02  0.54214190444E+02  0.70899200236E+02  0.00000000000E+00 0. -1.
<mgrwt>
<rscale>  1 0.63690555E+03</rscale>
<asrwt>0</asrwt>
<pdfrwt beam="1">  1       21 0.25357232E-01 0.63690555E+03</pdfrwt>
<pdfrwt beam="2">0</pdfrwt>
<totfact> 0.14171941E+03</totfact>
</mgrwt>
</event>
<event>
 6    1  0.1347953E-004  0.6628142E+03  0.7818608E-02  0.9783027E-01
         21   -1    0    0  501  502  0.00000000000E+00  0.00000000000E+00  0.19705627746E+03  0.19705627746E+03  0.00000000000E+00 0.  1.
         13   -1    0    0    0    0 -0.00000000000E+00 -0.00000000000E+00 -0.10000000000E+04  0.10000000000E+04  0.00000000000E+00 0.  1.
    9000005    2    1    2  501    0 -0.13182370562E+02  0.32332162388E+02 -0.88627269861E+03  0.11067077198E+04  0.66189390173E+03 0.  0.
         13    1    3    3    0    0  0.25890138031E+03 -0.72014456352E+02 -0.13466022583E+03  0.30058174108E+03  0.00000000000E+00 0.  1.
          1    1    3    3  501    0 -0.27208375087E+03  0.10434661874E+03 -0.75161247278E+03  0.80612597872E+03  0.00000000000E+00 0.  1.
         -1    1    1    2    0  502  0.13182370562E+02 -0.32332162388E+02  0.83328976065E+02  0.90348557656E+02  0.00000000000E+00 0. -1.
<mgrwt>
<rscale>  1 0.66281421E+03</rscale>
<asrwt>0</asrwt>
<pdfrwt beam="1">  1       21 0.30316350E-01 0.66281421E+03</pdfrwt>
<pdfrwt beam="2">0</pdfrwt>
<totfact> 0.99289193E+02</totfact>
</mgrwt>
</event>
<event>
 6    1  0.1347953E-004  0.6573018E+03  0.7818608E-02  0.9793174E-01
         21   -1    0    0  501  502  0.00000000000E+00  0.00000000000E+00  0.27852030741E+03  0.27852030741E+03  0.00000000000E+00 0. -1.
         13   -1    0    0    0    0 -0.00000000000E+00 -0.00000000000E+00 -0.10000000000E+04  0.10000000000E+04  0.00000000000E+00 0.  1.
    9000005    2    1    2  501    0 -0.73256951722E+02 -0.34331528839E+02 -0.88127917017E+03  0.10994083093E+04  0.65230393210E+03 0.  0.
         13    1    3    3    0    0 -0.17357030984E+03 -0.31312816668E+03 -0.42968015511E+03  0.55928609577E+03  0.00000000000E+00 0.  1.
          3    1    3    3  501    0  0.10031335812E+03  0.27879663784E+03 -0.45159901506E+03  0.54012221348E+03  0.00000000000E+00 0.  1.
         -3    1    1    2    0  502  0.73256951722E+02  0.34331528839E+02  0.15979947759E+03  0.17911199816E+03  0.00000000000E+00 0. -1.
<mgrwt>
<rscale>  1 0.65730180E+03</rscale>
<asrwt>0</asrwt>
<pdfrwt beam="1">  1       21 0.42849277E-01 0.65730180E+03</pdfrwt>
<pdfrwt beam="2">0</pdfrwt>
<totfact> 0.48892134E+02</totfact>
</mgrwt>
</event>
<event>
 6    1  0.1347953E-004  0.7345747E+03  0.7818608E-02  0.9659866E-01
         21   -1    0    0  501  502  0.00000000000E+00  0.00000000000E+00  0.49224661985E+03  0.49224661985E+03  0.00000000000E+00 0. -1.
         13   -1    0    0    0    0 -0.00000000000E+00 -0.00000000000E+00 -0.10000000000E+04  0.10000000000E+04  0.00000000000E+00 0.  1.
    9000005    2    1    2  501    0 -0.75374348691E+02  0.34684840399E+03 -0.75986404961E+03  0.10568790769E+04  0.64312899292E+03 0.  0.
         13    1    3    3    0    0  0.24275563379E+03  0.32784974941E+03 -0.34869320420E+03  0.53665883630E+03  0.00000000000E+00 0.  1.
          1    1    3    3  501    0 -0.31812998248E+03  0.18998654581E+02 -0.41117084541E+03  0.52022024061E+03  0.00000000000E+00 0.  1.
         -1    1    1    2    0  502  0.75374348691E+02 -0.34684840399E+03  0.25211066945E+03  0.43536754294E+03  0.00000000000E+00 0. -1.
<mgrwt>
<rscale>  1 0.73457471E+03</rscale>
<asrwt>0</asrwt>
<pdfrwt beam="1">  1       21 0.75730247E-01 0.73457471E+03</pdfrwt>
<pdfrwt beam="2">0</pdfrwt>
<totfact> 0.13890984E+02</totfact>
</mgrwt>
</event>
<event>
 6    1  0.1347953E-004  0.6494309E+03  0.7818608E-02  0.9807848E-01
         21   -1    0    0  501  502  0.00000000000E+00  0.00000000000E+00  0.17790801405E+03  0.17790801405E+03  0.00000000000E+00 0.  1.
         13   -1    0    0    0    0 -0.00000000000E+00 -0.00000000000E+00 -0.10000000000E+04  0.10000000000E+04  0.00000000000E+00 0.  1.
    9000005    2    1    2  501    0  0.43998001993E+02 -0.99667362716E+02 -0.84584439595E+03  0.10664020306E+04  0.64022741372E+03 0.  0.
         13    1    3    3    0    0  0.14409901768E+03  0.11503769768E+03 -0.80520656810E+03  0.82604831342E+03  0.00000000000E+00 0.  1.
          3    1    3    3  501    0 -0.10010101568E+03 -0.21470506039E+03 -0.40637827848E+02  0.24035371716E+03  0.00000000000E+00 0.  1.
         -1    1    1    2    0  502 -0.43998001993E+02  0.99667362716E+02  0.23752410005E+02  0.11150598348E+03  0.00000000000E+00 0. -1.
<mgrwt>
<rscale>  1 0.64943094E+03</rscale>
<asrwt>0</asrwt>
<pdfrwt beam="1">  1       21 0.27370463E-01 0.64943094E+03</pdfrwt>
<pdfrwt beam="2">0</pdfrwt>
<totfact> 0.12182362E+03</totfact>
</mgrwt>
</event>
<event>
 6    1  0.1347953E-004  0.7454609E+03  0.7818608E-02  0.9642499E-01
         21   -1    0    0  501  502  0.00000000000E+00  0.00000000000E+00  0.36795646209E+03  0.36795646209E+03  0.00000000000E+00 0. -1.
         13   -1    0    0    0    0 -0.00000000000E+00 -0.00000000000E+00 -0.10000000000E+04  0.10000000000E+04  0.00000000000E+00 0.  1.
    9000005    2    1    2  501    0 -0.43605521160E+02 -0.35965824485E+03 -0.67177715117E+03  0.10034921228E+04  0.65150318895E+03 0.  0.
         13    1    3    3    0    0 -0.10473971304E+03 -0.44433695980E+03 -0.16399015960E+03  0.48507578148E+03  0.00000000000E+00 0.  1.
          1    1    3    3  501    0  0.61134191879E+02  0.84678714958E+02 -0.50778699156E+03  0.51841634136E+03  0.00000000000E+00 0.  1.
         -3    1    1    2    0  502  0.43605521160E+02  0.35965824485E+03  0.39733613253E+02  0.36446433925E+03  0.00000000000E+00 0. -1.
<mgrwt>
<rscale>  1 0.74546086E+03</rscale>
<asrwt>0</asrwt>
<pdfrwt beam="1">  1       21 0.56608685E-01 0.74546086E+03</pdfrwt>
<pdfrwt beam="2">0</pdfrwt>
<totfact> 0.26711829E+02</totfact>
</mgrwt>
</event>
<event>
 6    1  0.1347953E-004  0.6835371E+03  0.7818608E-02  0.9745808E-01
         21   -1    0    0  501  502  0.00000000000E+00  0.00000000000E+00  0.23695460540E+03  0.23695460540E+03  0.00000000000E+00 0. -1.
         13   -1    0    0    0    0 -0.00000000000E+00 -0.00000000000E+00 -0.10000000000E+04  0.10000000000E+04  0.00000000000E+00 0.  1.
    9000005    2    1    2  501    0  0.12008419115E+03 -0.15435626402E+03 -0.78415692120E+03  0.10402523793E+04  0.65496325571E+03 0.  0.
         13    1    3    3    0    0  0.28033038699E+03  0.14772281740E+03 -0.23970642948E+03  0.39732395974E+03  0.00000000000E+00 0.  1.
          1    1    3    3  501    0 -0.16024619584E+03 -0.30207908142E+03 -0.54445049172E+03  0.64292841954E+03  0.00000000000E+00 0.  1.
         -1    1    1    2    0  502 -0.12008419115E+03  0.15435626402E+03  0.21111526607E+02  0.19670222612E+03  0.00000000000E+00 0. -1.
<mgrwt>
<rscale>  1 0.68353708E+03</rscale>
<asrwt>0</asrwt>
<pdfrwt beam="1">  1       21 0.36454554E-01 0.68353708E+03</pdfrwt>
<pdfrwt beam="2">0</pdfrwt>
<totfact> 0.68220735E+02</totfact>
</mgrwt>
</event>
<event>
 6    1  0.1347953E-004  0.6786123E+03  0.7818608E-02  0.9754524E-01
         21   -1    0    0  501  502  0.00000000000E+00  0.00000000000E+00  0.21142788757E+03  0.21142788757E+03  0.00000000000E+00 0.  1.
         13   -1    0    0    0    0 -0.00000000000E+00 -0.00000000000E+00 -0.10000000000E+04  0.10000000000E+04  0.00000000000E+00 0.  1.
    9000005    2    1    2  501    0 -0.13763773065E+03 -0.95924015098E+02 -0.79284372297E+03  0.10436071254E+04  0.65754779408E+03 0.  0.
         13    1    3    3    0    0  0.24200207314E+03  0.10284959218E+02 -0.48963451606E+03  0.54627167518E+03  0.00000000000E+00 0.  1.
          3    1    3    3  501    0 -0.37963980380E+03 -0.10620897432E+03 -0.30320920691E+03  0.49733545018E+03  0.00000000000E+00 0.  1.
         -1    1    1    2    0  502  0.13763773065E+03  0.95924015098E+02  0.42716105397E+01  0.16782076221E+03  0.00000000000E+00 0. -1.
<mgrwt>
<rscale>  1 0.67861231E+03</rscale>
<asrwt>0</asrwt>
<pdfrwt beam="1">  1       21 0.32527366E-01 0.67861231E+03</pdfrwt>
<pdfrwt beam="2">0</pdfrwt>
<totfact> 0.86078891E+02</totfact>
</mgrwt>
</event>
<event>
 6    1  0.1347953E-004  0.6500820E+03  0.7818608E-02  0.9806625E-01
         21   -1    0    0  501  502  0.00000000000E+00  0.00000000000E+00  0.13132937519E+03  0.13132937519E+03  0.00000000000E+00 0.  1.
         13   -1    0    0    0    0 -0.00000000000E+00 -0.00000000000E+00 -0.10000000000E+04  0.10000000000E+04  0.00000000000E+00 0.  1.
    9000005    2    1    2  501    0 -0.11398244299E+02  0.17560970319E+02 -0.88954182266E+03  0.11017673294E+04  0.64974478546E+03 0.  0.
         13    1    3    3    0    0  0.41330938904E+02  0.83841113794E+02 -0.97615822690E+03  0.98062350717E+03  0.00000000000E+00 0.  1.
          1    1    3    3  501    0 -0.52729183204E+02 -0.66280143475E+02  0.86616404243E+02  0.12114382223E+03  0.00000000000E+00 0.  1.
         -1    1    1    2    0  502  0.11398244299E+02 -0.17560970319E+02  0.20871197851E+02  0.29562045792E+02  0.00000000000E+00 0. -1.
<mgrwt>
<rscale>  1 0.65008199E+03</rscale>
<asrwt>0</asrwt>
<pdfrwt beam="1">  1       21 0.20204519E-01 0.65008199E+03</pdfrwt>
<pdfrwt beam="2">0</pdfrwt>
<totfact> 0.22008646E+03</totfact>
</mgrwt>
</event>
<event>
 6    1  0.1347953E-004  0.6519580E+03  0.7818608E-02  0.9803112E-01
         21   -1    0    0  501  502  0.00000000000E+00  0.00000000000E+00  0.15374523730E+03  0.15374523730E+03  0.00000000000E+00 0. -1.
         13   -1    0    0    0    0 -0.00000000000E+00 -0.00000000000E+00 -0.10000000000E+04  0.10000000000E+04  0.00000000000E+00 0.  1.
    9000005    2    1    2  501    0 -0.20759191501E+02  0.18216707164E+02 -0.88925218864E+03  0.11026417043E+04  0.65137276619E+03 0.  0.
         13    1    3    3    0    0 -0.17477589090E+03 -0.23916728574E+03 -0.66544717219E+03  0.72840067380E+03  0.00000000000E+00 0.  1.
          1    1    3    3  501    0  0.15401669940E+03  0.25738399291E+03 -0.22380501644E+03  0.37424103047E+03  0.00000000000E+00 0.  1.
         -1    1    1    2    0  502  0.20759191501E+02 -0.18216707164E+02  0.42997425942E+02  0.51103533041E+02  0.00000000000E+00 0. -1.
<mgrwt>
<rscale>  1 0.65195803E+03</rscale>
<asrwt>0</asrwt>
<pdfrwt beam="1">  1       21 0.23653113E-01 0.65195803E+03</pdfrwt>
<pdfrwt beam="2">0</pdfrwt>
<totfact> 0.16224979E+03</totfact>
</mgrwt>
</event>
<event>
 6    1  0.1347953E-004  0.6407907E+03  0.7818608E-02  0.9824215E-01
         21   -1    0    0  501  502  0.00000000000E+00  0.00000000000E+00  0.37467579384E+03  0.37467579384E+03  0.00000000000E+00 0. -1.
         13   -1    0    0    0    0 -0.00000000000E+00 -0.00000000000E+00 -0.10000000000E+04  0.10000000000E+04  0.00000000000E+00 0.  1.
    9000005    2    1    2  501    0 -0.62853178697E+02 -0.15248092371E+02 -0.89310009863E+03  0.10991999238E+04  0.63751836042E+03 0.  0.
         13    1    3    3    0    0 -0.68663069990E+02 -0.29340837259E+03 -0.69542638550E+03  0.75790563260E+03  0.00000000000E+00 0.  1.
          3    1    3    3  501    0  0.58098912933E+01  0.27816028022E+03 -0.19767371314E+03  0.34129429118E+03  0.00000000000E+00 0.  1.
         -1    1    1    2    0  502  0.62853178697E+02  0.15248092371E+02  0.26777589248E+03  0.27547587006E+03  0.00000000000E+00 0. -1.
<mgrwt>
<rscale>  1 0.64079067E+03</rscale>
<asrwt>0</asrwt>
<pdfrwt beam="1">  1       21 0.57642428E-01 0.64079067E+03</pdfrwt>
<pdfrwt beam="2">0</pdfrwt>
<totfact> 0.25938165E+02</totfact>
</mgrwt>
</event>
<event>
 6    1  0.1347953E-004  0.6688459E+03  0.7818608E-02  0.9772045E-01
         21   -1    0    0  501  502  0.00000000000E+00  0.00000000000E+00  0.20334171341E+03  0.20334171341E+03  0.00000000000E+00 0.  1.
         13   -1    0    0    0    0 -0.00000000000E+00 -0.00000000000E+00 -0.10000000000E+04  0.10000000000E+04  0.00000000000E+00 0.  1.
    9000005    2    1    2  501    0  0.16236731729E+03  0.90291223684E+01 -0.79733791155E+03  0.10407221184E+04  0.64877585640E+03 0.  0.
         13    1    3    3    0    0  0.75937793592E+02  0.28706479818E+03 -0.15385035856E+03  0.33442888583E+03  0.00000000000E+00 0.  1.
          1    1    3    3  501    0  0.86429523698E+02 -0.27803567581E+03 -0.64348755299E+03  0.70629323262E+03  0.00000000000E+00 0.  1.
         -1    1    1    2    0  502 -0.16236731729E+03 -0.90291223684E+01  0.67962496012E+00  0.16261959496E+03  0.00000000000E+00 0. -1.
<mgrwt>
<rscale>  1 0.66884586E+03</rscale>
<asrwt>0</asrwt>
<pdfrwt beam="1">  1       21 0.31283340E-01 0.66884586E+03</pdfrwt>
<pdfrwt beam="2">0</pdfrwt>
<totfact> 0.93184180E+02</totfact>
</mgrwt>
</event>
<event>
 6    1  0.1347953E-004  0.6628791E+03  0.7818608E-02  0.9782908E-01
         21   -1    0    0  501  502  0.00000000000E+00  0.00000000000E+00  0.14503337770E+03  0.14503337770E+03  0.00000000000E+00 0.  1.
         13   -1    0    0    0    0 -0.00000000000E+00 -0.00000000000E+00 -0.10000000000E+04  0.10000000000E+04  0.00000000000E+00 0.  1.
    9000005    2    1    2  501    0 -0.37009832463E+02  0.42911210012E+02 -0.86257069641E+03  0.10878588940E+04  0.66045262306E+03 0.  0.
         13    1    3    3    0    0  0.26827862902E+03 -0.69892677659E+02 -0.62861444161E+03  0.68703313266E+03  0.00000000000E+00 0.  1.
          3    1    3    3  501    0 -0.30528846148E+03  0.11280388767E+03 -0.23395625480E+03  0.40082576134E+03  0.00000000000E+00 0.  1.
         -3    1    1    2    0  502  0.37009832463E+02 -0.42911210012E+02  0.76040741127E+01  0.57174483704E+02  0.00000000000E+00 0. -1.
<mgrwt>
<rscale>  1 0.66287915E+03</rscale>
<asrwt>0</asrwt>
<pdfrwt beam="1">  1       21 0.22312827E-01 0.66287915E+03</pdfrwt>
<pdfrwt beam="2">0</pdfrwt>
<totfact> 0.18163899E+03</totfact>
</mgrwt>
</event>
<event>
 6    1  0.1347953E-004  0.7143949E+03  0.7818608E-02  0.9692927E-01
         21   -1    0    0  501  502  0.00000000000E+00  0.00000000000E+00  0.28016948349E+03  0.28016948349E+03  0.00000000000E+00 0.  1.
         13   -1    0    0    0    0 -0.00000000000E+00 -0.00000000000E+00 -0.10000000000E+04  0.10000000000E+04  0.00000000000E+00 0.  1.
    9000005    2    1    2  501    0 -0.78552235828E+02  0.32491139702E+03 -0.56966537236E+03  0.91371697608E+03  0.63136535084E+03 0.  0.
         13    1    3    3    0    0 -0.17653944783E+02  0.32993061192E+03 -0.69762790690E+03  0.77191357479E+03  0.00000000000E+00 0.  1.
          1    1    3    3  501    0 -0.60898291045E+02 -0.50192148989E+01  0.12796253455E+03  0.14180340129E+03  0.00000000000E+00 0.  1.
         -1    1    1    2    0  502  0.78552235828E+02 -0.32491139702E+03 -0.15016514415E+03  0.36645250741E+03  0.00000000000E+00 0. -1.
<mgrwt>
<rscale>  1 0.71439490E+03</rscale>
<asrwt>0</asrwt>
<pdfrwt beam="1">  1       21 0.43102996E-01 0.71439490E+03</pdfrwt>
<pdfrwt beam="2">0</pdfrwt>
<totfact> 0.48066159E+02</totfact>
</mgrwt>
</event>
<event>
 6    1  0.1347953E-004  0.6607081E+03  0.7818608E-02  0.9786891E-01
         21   -1    0    0  501  502  0.00000000000E+00  0.00000000000E+00  0.14651220395E+03  0.14651220395E+03  0.00000000000E+00 0.  1.
         13   -1    0    0    0    0 -0.00000000000E+00 -0.00000000000E+00 -0.10000000000E+04  0.10000000000E+04  0.00000000000E+00 0.  1.
    9000005    2    1    2  501    0  0.61542856658E+01  0.10238264230E+03 -0.76709990801E+03  0.10124116899E+04  0.65269830720E+03 0.  0.
         13    1    3    3    0    0 -0.25030729009E+02  0.12673666324E+03  0.88055772661E+02  0.15634109601E+03  0.00000000000E+00 0.  1.
          1    1    3    3  501    0  0.31185014674E+02 -0.24354020933E+02 -0.85515568067E+03  0.85607059385E+03  0.00000000000E+00 0.  1.
         -3    1    1    2    0  502 -0.61542856658E+01 -0.10238264230E+03 -0.86387888043E+02  0.13410051408E+03  0.00000000000E+00 0. -1.
<mgrwt>
<rscale>  1 0.66070808E+03</rscale>
<asrwt>0</asrwt>
<pdfrwt beam="1">  1       21 0.22540338E-01 0.66070808E+03</pdfrwt>
<pdfrwt beam="2">0</pdfrwt>
<totfact> 0.17811739E+03</totfact>
</mgrwt>
</event>
<event>
 6    1  0.1347953E-004  0.6584639E+03  0.7818608E-02  0.9791026E-01
         21   -1    0    0  501  502  0.00000000000E+00  0.00000000000E+00  0.16369207429E+03  0.16369207429E+03  0.00000000000E+00 0.  1.
         13   -1    0    0    0    0 -0.00000000000E+00 -0.00000000000E+00 -0.10000000000E+04  0.10000000000E+04  0.00000000000E+00 0.  1.
    9000005    2    1    2  501    0  0.82682859388E+02  0.99467648411E+02 -0.78486038065E+03  0.10244903566E+04  0.64563488546E+03 0.  0.
         13    1    3    3    0    0 -0.24262258741E+03 -0.11362759337E+03 -0.28473400063E+03  0.39096086890E+03  0.00000000000E+00 0.  1.
          1    1    3    3  501    0  0.32530544680E+03  0.21309524178E+03 -0.50012638002E+03  0.63352948770E+03  0.00000000000E+00 0.  1.
         -1    1    1    2    0  502 -0.82682859388E+02 -0.99467648411E+02 -0.51447545055E+02  0.13920171769E+03  0.00000000000E+00 0. -1.
<mgrwt>
<rscale>  1 0.65846387E+03</rscale>
<asrwt>0</asrwt>
<pdfrwt beam="1">  1       21 0.25183395E-01 0.65846387E+03</pdfrwt>
<pdfrwt beam="2">0</pdfrwt>
<totfact> 0.14348168E+03</totfact>
</mgrwt>
</event>
<event>
 6    1  0.1347953E-004  0.6786094E+03  0.7818608E-02  0.9754529E-01
         21   -1    0    0  501  502  0.00000000000E+00  0.00000000000E+00  0.19057221248E+03  0.19057221248E+03  0.00000000000E+00 0.  1.
         13   -1    0    0    0    0 -0.00000000000E+00 -0.00000000000E+00 -0.10000000000E+04  0.10000000000E+04  0.00000000000E+00 0.  1.
    9000005    2    1    2  501    0  0.11355616371E+03 -0.12460396251E+03 -0.75092032371E+03  0.10121225750E+04  0.65733524514E+03 0.  0.
         13    1    3    3    0    0 -0.35485743598E+02 -0.29105748723E+03 -0.73123168571E+03  0.78782832968E+03  0.00000000000E+00 0.  1.
          3    1    3    3  501    0  0.14904190730E+03  0.16645352471E+03 -0.19688638002E+02  0.22429424533E+03  0.00000000000E+00 0.  1.
         -1    1    1    2    0  502 -0.11355616371E+03  0.12460396251E+03 -0.58507463813E+02  0.17844963747E+03  0.00000000000E+00 0. -1.
<mgrwt>
<rscale>  1 0.67860944E+03</rscale>
<asrwt>0</asrwt>
<pdfrwt beam="1">  1       21 0.29318801E-01 0.67860944E+03</pdfrwt>
<pdfrwt beam="2">0</pdfrwt>
<totfact> 0.10606493E+03</totfact>
</mgrwt>
</event>
<event>
 6    1  0.1347953E-004  0.6490232E+03  0.7818608E-02  0.9808614E-01
         21   -1    0    0  501  502  0.00000000000E+00  0.00000000000E+00  0.17683759223E+03  0.17683759223E+03  0.00000000000E+00 0.  1.
         13   -1    0    0    0    0 -0.00000000000E+00 -0.00000000000E+00 -0.10000000000E+04  0.10000000000E+04  0.00000000000E+00 0.  1.
    9000005    2    1    2  501    0  0.14499422443E+02  0.26025202710E+02 -0.89124665187E+03  0.11025206445E+04  0.64833913395E+03 0.  0.
         13    1    3    3    0    0 -0.25692512490E+03 -0.17006873774E+03 -0.50253205753E+03  0.58946786529E+03  0.00000000000E+00 0.  1.
          3    1    3    3  501    0  0.27142454735E+03  0.19609394045E+03 -0.38871459435E+03  0.51305277920E+03  0.00000000000E+00 0.  1.
         -3    1    1    2    0  502 -0.14499422443E+02 -0.26025202710E+02  0.68084244104E+02  0.74316947747E+02  0.00000000000E+00 0. -1.
<mgrwt>
<rscale>  1 0.64902325E+03</rscale>
<asrwt>0</asrwt>
<pdfrwt beam="1">  1       21 0.27205783E-01 0.64902325E+03</pdfrwt>
<pdfrwt beam="2">0</pdfrwt>
<totfact> 0.12329129E+03</totfact>
</mgrwt>
</event>
<event>
 6    1  0.1347953E-004  0.6660760E+03  0.7818608E-02  0.9777073E-01
         21   -1    0    0  501  502  0.00000000000E+00  0.00000000000E+00  0.76579501673E+03  0.76579501673E+03  0.00000000000E+00 0. -1.
         13   -1    0    0    0    0 -0.00000000000E+00 -0.00000000000E+00 -0.10000000000E+04  0.10000000000E+04  0.00000000000E+00 0.  1.
    9000005    2    1    2  501    0  0.72286693917E+02 -0.10586185463E+03 -0.88210513113E+03  0.11053355555E+04  0.65362460893E+03 0.  0.
         13    1    3    3    0    0  0.23801172081E+03  0.17322490878E+03 -0.62642450530E+03  0.69214457240E+03  0.00000000000E+00 0.  1.
          1    1    3    3  501    0 -0.16572502689E+03 -0.27908676342E+03 -0.25568062583E+03  0.41319098305E+03  0.00000000000E+00 0.  1.
         -1    1    1    2    0  502 -0.72286693917E+02  0.10586185463E+03  0.64790014786E+03  0.66045946127E+03  0.00000000000E+00 0. -1.
<mgrwt>
<rscale>  1 0.66607599E+03</rscale>
<asrwt>0</asrwt>
<pdfrwt beam="1">  1       21 0.11781461E+00 0.66607599E+03</pdfrwt>
<pdfrwt beam="2">0</pdfrwt>
<totfact> 0.48012928E+01</totfact>
</mgrwt>
</event>
<event>
 6    1  0.1347953E-004  0.5918907E+03  0.7818608E-02  0.9922375E-01
         21   -1    0    0  501  502  0.00000000000E+00  0.00000000000E+00  0.50147974436E+03  0.50147974436E+03  0.00000000000E+00 0. -1.
         13   -1    0    0    0    0 -0.00000000000E+00 -0.00000000000E+00 -0.10000000000E+04  0.10000000000E+04  0.00000000000E+00 0.  1.
    9000005    2    1    2  501    0  0.51593672188E+02 -0.44803846700E+02 -0.90934646238E+03  0.10850095007E+04  0.58793310533E+03 0.  0.
         13    1    3    3    0    0  0.16089279601E+03 -0.25044259224E+03 -0.26023236623E+03  0.39538445626E+03  0.00000000000E+00 0.  1.
          1    1    3    3  501    0 -0.10929912382E+03  0.20563874554E+03 -0.64911409615E+03  0.68962504447E+03  0.00000000000E+00 0.  1.
         -3    1    1    2    0  502 -0.51593672188E+02  0.44803846700E+02  0.41082620673E+03  0.41647024363E+03  0.00000000000E+00 0. -1.
<mgrwt>
<rscale>  1 0.59189072E+03</rscale>
<asrwt>0</asrwt>
<pdfrwt beam="1">  1       21 0.77150728E-01 0.59189072E+03</pdfrwt>
<pdfrwt beam="2">0</pdfrwt>
<totfact> 0.13545720E+02</totfact>
</mgrwt>
</event>
<event>
 6    1  0.1347953E-004  0.6686716E+03  0.7818608E-02  0.9772361E-01
         21   -1    0    0  501  502  0.00000000000E+00  0.00000000000E+00  0.13593485986E+03  0.13593485986E+03  0.00000000000E+00 0.  1.
         13   -1    0    0    0    0 -0.00000000000E+00 -0.00000000000E+00 -0.10000000000E+04  0.10000000000E+04  0.00000000000E+00 0.  1.
    9000005    2    1    2  501    0  0.36919971734E+01 -0.23632432225E+02 -0.88143972678E+03  0.11063713865E+04  0.66824361592E+03 0.  0.
         13    1    3    3    0    0  0.30925568814E+03  0.11019569182E+03 -0.51587161988E+03  0.61147829016E+03  0.00000000000E+00 0.  1.
          3    1    3    3  501    0 -0.30556369097E+03 -0.13382812404E+03 -0.36556810690E+03  0.49489309634E+03  0.00000000000E+00 0.  1.
         -1    1    1    2    0  502 -0.36919971734E+01  0.23632432225E+02  0.17374586645E+02  0.29563473360E+02  0.00000000000E+00 0. -1.
<mgrwt>
<rscale>  1 0.66867156E+03</rscale>
<asrwt>0</asrwt>
<pdfrwt beam="1">  1       21 0.20913055E-01 0.66867156E+03</pdfrwt>
<pdfrwt beam="2">0</pdfrwt>
<totfact> 0.20581719E+03</totfact>
</mgrwt>
</event>
<event>
 6    1  0.1347953E-004  0.6504182E+03  0.7818608E-02  0.9805995E-01
         21   -1    0    0  501  502  0.00000000000E+00  0.00000000000E+00  0.11599412850E+03  0.11599412850E+03  0.00000000000E+00 0.  1.
         13   -1    0    0    0    0 -0.00000000000E+00 -0.00000000000E+00 -0.10000000000E+04  0.10000000000E+04  0.00000000000E+00 0.  1.
    9000005    2    1    2  501    0  0.10971413760E+02 -0.19498382925E+02 -0.87828869564E+03  0.10929020312E+04  0.65003327463E+03 0.  0.
         13    1    3    3    0    0  0.21928375504E+03  0.63672513908E+02 -0.83344830280E+03  0.86416180643E+03  0.00000000000E+00 0.  1.
          1    1    3    3  501    0 -0.20831234128E+03 -0.83170896833E+02 -0.44840392834E+02  0.22874022479E+03  0.00000000000E+00 0.  1.
         -3    1    1    2    0  502 -0.10971413760E+02  0.19498382925E+02 -0.57171758646E+01  0.23092097272E+02  0.00000000000E+00 0. -1.
<mgrwt>
<rscale>  1 0.65041819E+03</rscale>
<asrwt>0</asrwt>
<pdfrwt beam="1">  1       21 0.17845250E-01 0.65041819E+03</pdfrwt>
<pdfrwt beam="2">0</pdfrwt>
<totfact> 0.27891235E+03</totfact>
</mgrwt>
</event>
<event>
 6    1  0.1347953E-004  0.6491597E+03  0.7818608E-02  0.9808357E-01
         21   -1    0    0  501  502  0.00000000000E+00  0.00000000000E+00  0.13920353511E+03  0.13920353511E+03  0.00000000000E+00 0.  1.
         13   -1    0    0    0    0 -0.00000000000E+00 -0.00000000000E+00 -0.10000000000E+04  0.10000000000E+04  0.00000000000E+00 0.  1.
    9000005    2    1    2  501    0  0.12886274326E+02 -0.26618998072E+02 -0.88735285940E+03  0.10994559665E+04  0.64848569604E+03 0.  0.
         13    1    3    3    0    0  0.29127646183E+03  0.13138545475E+03 -0.53708834925E+03  0.62495440620E+03  0.00000000000E+00 0.  1.
          3    1    3    3  501    0 -0.27839018750E+03 -0.15800445282E+03 -0.35026451015E+03  0.47450156025E+03  0.00000000000E+00 0.  1.
         -1    1    1    2    0  502 -0.12886274326E+02  0.26618998072E+02  0.26556394507E+02  0.39747568650E+02  0.00000000000E+00 0. -1.
<mgrwt>
<rscale>  1 0.64915971E+03</rscale>
<asrwt>0</asrwt>
<pdfrwt beam="1">  1       21 0.21415928E-01 0.64915971E+03</pdfrwt>
<pdfrwt beam="2">0</pdfrwt>
<totfact> 0.19675968E+03</totfact>
</mgrwt>
</event>
<event>
 6    1  0.1347953E-004  0.6448109E+03  0.7818608E-02  0.9816565E-01
         21   -1    0    0  501  502  0.00000000000E+00  0.00000000000E+00  0.28465476066E+03  0.28465476066E+03  0.00000000000E+00 0.  1.
         13   -1    0    0    0    0 -0.00000000000E+00 -0.00000000000E+00 -0.10000000000E+04  0.10000000000E+04  0.00000000000E+00 0.  1.
    9000005    2    1    2  501    0  0.10459473351E+02 -0.28787243861E+02 -0.89462076462E+03  0.11027816732E+04  0.64408306931E+03 0.  0.
         13    1    3    3    0    0  0.32612917029E+03  0.55692721868E+01 -0.42109974820E+03  0.53265021397E+03  0.00000000000E+00 0.  1.
          3    1    3    3  501    0 -0.31566969694E+03 -0.34356516048E+02 -0.47352101642E+03  0.57013145918E+03  0.00000000000E+00 0.  1.
         -3    1    1    2    0  502 -0.10459473351E+02  0.28787243861E+02  0.17927552528E+03  0.18187308750E+03  0.00000000000E+00 0. -1.
<mgrwt>
<rscale>  1 0.64481091E+03</rscale>
<asrwt>0</asrwt>
<pdfrwt beam="1">  1       21 0.43793039E-01 0.64481091E+03</pdfrwt>
<pdfrwt beam="2">0</pdfrwt>
<totfact> 0.46756031E+02</totfact>
</mgrwt>
</event>
<event>
 6    1  0.1347953E-004  0.6629580E+03  0.7818608E-02  0.9782764E-01
         21   -1    0    0  501  502  0.00000000000E+00  0.00000000000E+00  0.21671039912E+03  0.21671039912E+03  0.00000000000E+00 0.  1.
         13   -1    0    0    0    0 -0.00000000000E+00 -0.00000000000E+00 -0.10000000000E+04  0.10000000000E+04  0.00000000000E+00 0.  1.
    9000005    2    1    2  501    0  0.60987652396E+02 -0.91229571193E+02 -0.85775508809E+03  0.10840927638E+04  0.65381266509E+03 0.  0.
         13    1    3    3    0    0  0.12593456704E+03  0.21953772712E+03 -0.11832501959E+03  0.27938707748E+03  0.00000000000E+00 0.  1.
          3    1    3    3  501    0 -0.64946914640E+02 -0.31076729832E+03 -0.73943006851E+03  0.80470568634E+03  0.00000000000E+00 0.  1.
         -3    1    1    2    0  502 -0.60987652396E+02  0.91229571193E+02  0.74465487213E+02  0.13261763529E+03  0.00000000000E+00 0. -1.
<mgrwt>
<rscale>  1 0.66295801E+03</rscale>
<asrwt>0</asrwt>
<pdfrwt beam="1">  1       21 0.33340060E-01 0.66295801E+03</pdfrwt>
<pdfrwt beam="2">0</pdfrwt>
<totfact> 0.81967981E+02</totfact>
</mgrwt>
</event>
<event>
 6    1  0.1347953E-004  0.4804147E+03  0.7818608E-02  0.1019021E+00
         21   -1    0    0  501  502  0.00000000000E+00  0.00000000000E+00  0.11632220075E+03  0.11632220075E+03  0.00000000000E+00 0. -1.
         13   -1    0    0    0    0 -0.00000000000E+00 -0.00000000000E+00 -0.10000000000E+04  0.10000000000E+04  0.00000000000E+00 0.  1.
    9000005    2    1    2  501    0  0.20536880274E+00 -0.77606616035E+02 -0.91434781655E+03  0.10328747383E+04  0.47410491070E+03 0.  0.
         13    1    3    3    0    0 -0.32978719012E+02 -0.27409449295E+03 -0.60337797691E+03  0.66353626125E+03  0.00000000000E+00 0.  1.
          1    1    3    3  501    0  0.33184087815E+02  0.19648787692E+03 -0.31096983964E+03  0.36933847704E+03  0.00000000000E+00 0.  1.
         -3    1    1    2    0  502 -0.20536880274E+00  0.77606616035E+02  0.30670017298E+02  0.83447462453E+02  0.00000000000E+00 0. -1.
<mgrwt>
<rscale>  1 0.48041471E+03</rscale>
<asrwt>0</asrwt>
<pdfrwt beam="1">  1       21 0.17895723E-01 0.48041471E+03</pdfrwt>
<pdfrwt beam="2">0</pdfrwt>
<totfact> 0.27918066E+03</totfact>
</mgrwt>
</event>
<event>
 6    1  0.1347953E-004  0.6911885E+03  0.7818608E-02  0.9732421E-01
         21   -1    0    0  501  502  0.00000000000E+00  0.00000000000E+00  0.25716119101E+03  0.25716119101E+03  0.00000000000E+00 0.  1.
         13   -1    0    0    0    0 -0.00000000000E+00 -0.00000000000E+00 -0.10000000000E+04  0.10000000000E+04  0.00000000000E+00 0.  1.
    9000005    2    1    2  501    0 -0.97423950969E+02 -0.22373750838E+03 -0.74072793209E+03  0.10131235819E+04  0.64667737231E+03 0.  0.
         13    1    3    3    0    0  0.11677980772E+03  0.33458753914E+02 -0.65694666310E+03  0.66808377458E+03  0.00000000000E+00 0.  1.
          1    1    3    3  501    0 -0.21420375869E+03 -0.25719626229E+03 -0.83781268996E+02  0.34503980728E+03  0.00000000000E+00 0.  1.
         -3    1    1    2    0  502  0.97423950969E+02  0.22373750838E+03 -0.21108768994E+01  0.24403760915E+03  0.00000000000E+00 0. -1.
<mgrwt>
<rscale>  1 0.69118849E+03</rscale>
<asrwt>0</asrwt>
<pdfrwt beam="1">  1       21 0.39563259E-01 0.69118849E+03</pdfrwt>
<pdfrwt beam="2">0</pdfrwt>
<totfact> 0.57592226E+02</totfact>
</mgrwt>
</event>
<event>
 6    1  0.1347953E-004  0.6445597E+03  0.7818608E-02  0.9817041E-01
         21   -1    0    0  501  502  0.00000000000E+00  0.00000000000E+00  0.14816552294E+03  0.14816552294E+03  0.00000000000E+00 0.  1.
         13   -1    0    0    0    0 -0.00000000000E+00 -0.00000000000E+00 -0.10000000000E+04  0.10000000000E+04  0.00000000000E+00 0.  1.
    9000005    2    1    2  501    0  0.19770409833E+02 -0.82077393604E+01 -0.89326293965E+03  0.11015334138E+04  0.64420411849E+03 0.  0.
         13    1    3    3    0    0  0.26124760125E+03  0.41350936650E+02 -0.12096622833E+03  0.29084882245E+03  0.00000000000E+00 0.  1.
          1    1    3    3  501    0 -0.24147719142E+03 -0.49558676010E+02 -0.77229671132E+03  0.81068459135E+03  0.00000000000E+00 0.  1.
         -3    1    1    2    0  502 -0.19770409833E+02  0.82077393604E+01  0.41428462590E+02  0.46632109140E+02  0.00000000000E+00 0. -1.
<mgrwt>
<rscale>  1 0.64455968E+03</rscale>
<asrwt>0</asrwt>
<pdfrwt beam="1">  1       21 0.22794695E-01 0.64455968E+03</pdfrwt>
<pdfrwt beam="2">0</pdfrwt>
<totfact> 0.17440988E+03</totfact>
</mgrwt>
</event>
<event>
 6    1  0.1347953E-004  0.6504299E+03  0.7818608E-02  0.9805973E-01
         21   -1    0    0  501  502  0.00000000000E+00  0.00000000000E+00  0.14443908841E+03  0.14443908841E+03  0.00000000000E+00 0.  1.
         13   -1    0    0    0    0 -0.00000000000E+00 -0.00000000000E+00 -0.10000000000E+04  0.10000000000E+04  0.00000000000E+00 0.  1.
    9000005    2    1    2  501    0 -0.52819023889E+02  0.39092296819E+02 -0.86035807477E+03  0.10785522936E+04  0.64710198289E+03 0.  0.
         13    1    3    3    0    0 -0.85441450534E+02 -0.26320463183E+03 -0.17145787051E+03  0.32553758776E+03  0.00000000000E+00 0.  1.
          3    1    3    3  501    0  0.32622426645E+02  0.30229692865E+03 -0.68890020426E+03  0.75301470585E+03  0.00000000000E+00 0.  1.
         -1    1    1    2    0  502  0.52819023889E+02 -0.39092296819E+02  0.47971631801E+01  0.65886794805E+02  0.00000000000E+00 0. -1.
<mgrwt>
<rscale>  1 0.65042988E+03</rscale>
<asrwt>0</asrwt>
<pdfrwt beam="1">  1       21 0.22221398E-01 0.65042988E+03</pdfrwt>
<pdfrwt beam="2">0</pdfrwt>
<totfact> 0.18319244E+03</totfact>
</mgrwt>
</event>
<event>
 6    1  0.1347953E-004  0.6678339E+03  0.7818608E-02  0.9773879E-01
         21   -1    0    0  501  502  0.00000000000E+00  0.00000000000E+00  0.14904020514E+03  0.14904020514E+03  0.00000000000E+00 0.  1.
         13   -1    0    0    0    0 -0.00000000000E+00 -0.00000000000E+00 -0.10000000000E+04  0.10000000000E+04  0.00000000000E+00 0.  1.
    9000005    2    1    2  501    0  0.68151300859E+02  0.43768034283E+02 -0.83011154258E+03  0.10654047446E+04  0.66290410776E+03 0.  0.
         13    1    3    3    0    0 -0.37715063659E+02 -0.26023343091E+03 -0.63912715520E+03  0.69110591454E+03  0.00000000000E+00 0.  1.
          1    1    3    3  501    0  0.10586636452E+03  0.30400146519E+03 -0.19098438738E+03  0.37429883008E+03  0.00000000000E+00 0.  1.
         -1    1    1    2    0  502 -0.68151300859E+02 -0.43768034283E+02 -0.20848252283E+02  0.83635460524E+02  0.00000000000E+00 0. -1.
<mgrwt>
<rscale>  1 0.66783388E+03</rscale>
<asrwt>0</asrwt>
<pdfrwt beam="1">  1       21 0.22929262E-01 0.66783388E+03</pdfrwt>
<pdfrwt beam="2">0</pdfrwt>
<totfact> 0.17224037E+03</totfact>
</mgrwt>
</event>
<event>
 6    1  0.1347953E-004  0.6503568E+03  0.7818608E-02  0.9806110E-01
         21   -1    0    0  501  502  0.00000000000E+00  0.00000000000E+00  0.12231388807E+03  0.12231388807E+03  0.00000000000E+00 0.  1.
         13   -1    0    0    0    0 -0.00000000000E+00 -0.00000000000E+00 -0.10000000000E+04  0.10000000000E+04  0.00000000000E+00 0.  1.
    9000005    2    1    2  501    0 -0.46827095202E+02  0.14677390157E+02 -0.81904702950E+03  0.10458498794E+04  0.64850268401E+03 0.  0.
         13    1    3    3    0    0  0.85583503044E+02  0.16826489483E+03 -0.82164049409E+03  0.84304846382E+03  0.00000000000E+00 0.  1.
          1    1    3    3  501    0 -0.13241059825E+03 -0.15358750468E+03  0.25934645876E+01  0.20280141562E+03  0.00000000000E+00 0.  1.
         -3    1    1    2    0  502  0.46827095202E+02 -0.14677390157E+02 -0.58639082433E+02  0.76464008628E+02  0.00000000000E+00 0. -1.
<mgrwt>
<rscale>  1 0.65035677E+03</rscale>
<asrwt>0</asrwt>
<pdfrwt beam="1">  1       21 0.18817521E-01 0.65035677E+03</pdfrwt>
<pdfrwt beam="2">0</pdfrwt>
<totfact> 0.25216006E+03</totfact>
</mgrwt>
</event>
<event>
 6    1  0.1347953E-004  0.6543125E+03  0.7818608E-02  0.9798721E-01
         21   -1    0    0  501  502  0.00000000000E+00  0.00000000000E+00  0.11811508394E+03  0.11811508394E+03  0.00000000000E+00 0.  1.
         13   -1    0    0    0    0 -0.00000000000E+00 -0.00000000000E+00 -0.10000000000E+04  0.10000000000E+04  0.00000000000E+00 0.  1.
    9000005    2    1    2  501    0 -0.19162669281E+02 -0.17313855355E+02 -0.87260721317E+03  0.10906732682E+04  0.65380260932E+03 0.  0.
         13    1    3    3    0    0  0.29085696549E+02  0.13046879207E+03 -0.91881848182E+03  0.92849097249E+03  0.00000000000E+00 0.  1.
          3    1    3    3  501    0 -0.48248365830E+02 -0.14778264743E+03  0.46211268651E+02  0.16218229569E+03  0.00000000000E+00 0.  1.
         -1    1    1    2    0  502  0.19162669281E+02  0.17313855355E+02 -0.92777028887E+01  0.27441815758E+02  0.00000000000E+00 0. -1.
<mgrwt>
<rscale>  1 0.65431249E+03</rscale>
<asrwt>0</asrwt>
<pdfrwt beam="1">  1       21 0.18171551E-01 0.65431249E+03</pdfrwt>
<pdfrwt beam="2">0</pdfrwt>
<totfact> 0.26944964E+03</totfact>
</mgrwt>
</event>
<event>
 6    1  0.1347953E-004  0.6599955E+03  0.7818608E-02  0.9788202E-01
         21   -1    0    0  501  502  0.00000000000E+00  0.00000000000E+00  0.15642167390E+03  0.15642167390E+03  0.00000000000E+00 0.  1.
         13   -1    0    0    0    0 -0.00000000000E+00 -0.00000000000E+00 -0.10000000000E+04  0.10000000000E+04  0.00000000000E+00 0.  1.
    9000005    2    1    2  501    0  0.64341266547E+02 -0.28226749106E+02 -0.86019943990E+03  0.10842218860E+04  0.65624497999E+03 0.  0.
         13    1    3    3    0    0 -0.20682121297E+03 -0.16533040050E+03 -0.13345122249E+03  0.29651034425E+03  0.00000000000E+00 0.  1.
          1    1    3    3  501    0  0.27116247952E+03  0.13710365139E+03 -0.72674821741E+03  0.78771154177E+03  0.00000000000E+00 0.  1.
         -1    1    1    2    0  502 -0.64341266547E+02  0.28226749106E+02  0.16621113798E+02  0.72199787880E+02  0.00000000000E+00 0. -1.
<mgrwt>
<rscale>  1 0.65999547E+03</rscale>
<asrwt>0</asrwt>
<pdfrwt beam="1">  1       21 0.24064872E-01 0.65999547E+03</pdfrwt>
<pdfrwt beam="2">0</pdfrwt>
<totfact> 0.15681538E+03</totfact>
</mgrwt>
</event>
<event>
 6    1  0.1347953E-004  0.6365762E+03  0.7818608E-02  0.9832299E-01
         21   -1    0    0  501  502  0.00000000000E+00  0.00000000000E+00  0.24223086244E+03  0.24223086244E+03  0.00000000000E+00 0. -1.
         13   -1    0    0    0    0 -0.00000000000E+00 -0.00000000000E+00 -0.10000000000E+04  0.10000000000E+04  0.00000000000E+00 0.  1.
    9000005    2    1    2  501    0 -0.13997688945E+03  0.16673832858E+03 -0.79804165235E+03  0.10208328605E+04  0.59819231898E+03 0.  0.
         13    1    3    3    0    0 -0.12947382176E+03  0.37463726706E+03 -0.35833541160E+03  0.53434148220E+03  0.00000000000E+00 0.  1.
          1    1    3    3  501    0 -0.10503067688E+02 -0.20789893848E+03 -0.43970624075E+03  0.48649137835E+03  0.00000000000E+00 0.  1.
         -1    1    1    2    0  502  0.13997688945E+03 -0.16673832858E+03  0.40272514794E+02  0.22139800190E+03  0.00000000000E+00 0. -1.
<mgrwt>
<rscale>  1 0.63657619E+03</rscale>
<asrwt>0</asrwt>
<pdfrwt beam="1">  1       21 0.37266285E-01 0.63657619E+03</pdfrwt>
<pdfrwt beam="2">0</pdfrwt>
<totfact> 0.65433882E+02</totfact>
</mgrwt>
</event>
<event>
 6    1  0.1347953E-004  0.8303037E+03  0.7818608E-02  0.9517161E-01
         21   -1    0    0  501  502  0.00000000000E+00  0.00000000000E+00  0.31328635011E+03  0.31328635011E+03  0.00000000000E+00 0.  1.
         13   -1    0    0    0    0 -0.00000000000E+00 -0.00000000000E+00 -0.10000000000E+04  0.10000000000E+04  0.00000000000E+00 0.  1.
    9000005    2    1    2  501    0 -0.18858111594E+01  0.74781166925E+02 -0.81584811067E+03  0.11640500001E+04  0.82692713329E+03 0.  0.
         13    1    3    3    0    0 -0.29443699054E+03 -0.14689168955E+03 -0.70920958602E+03  0.78182385917E+03  0.00000000000E+00 0.  1.
          3    1    3    3  501    0  0.29255117938E+03  0.22167285648E+03 -0.10663852465E+03  0.38222614091E+03  0.00000000000E+00 0.  1.
         -1    1    1    2    0  502  0.18858111594E+01 -0.74781166925E+02  0.12913446079E+03  0.14923635004E+03  0.00000000000E+00 0. -1.
<mgrwt>
<rscale>  1 0.83030372E+03</rscale>
<asrwt>0</asrwt>
<pdfrwt beam="1">  1       21 0.48197899E-01 0.83030372E+03</pdfrwt>
<pdfrwt beam="2">0</pdfrwt>
<totfact> 0.37592103E+02</totfact>
</mgrwt>
</event>
<event>
 6    1  0.1347953E-004  0.6310339E+03  0.7818608E-02  0.9843033E-01
         21   -1    0    0  501  502  0.00000000000E+00  0.00000000000E+00  0.10834679048E+03  0.10834679048E+03  0.00000000000E+00 0.  1.
         13   -1    0    0    0    0 -0.00000000000E+00 -0.00000000000E+00 -0.10000000000E+04  0.10000000000E+04  0.00000000000E+00 0.  1.
    9000005    2    1    2  501    0 -0.12104559755E+01 -0.20055308284E+02 -0.88548315786E+03  0.10873289378E+04  0.63071397282E+03 0.  0.
         13    1    3    3    0    0 -0.23390843354E+03 -0.17273810325E+03 -0.68547587751E+03  0.74459974903E+03  0.00000000000E+00 0.  1.
          3    1    3    3  501    0  0.23269797757E+03  0.15268279496E+03 -0.20000728035E+03  0.34272918877E+03  0.00000000000E+00 0.  1.
         -3    1    1    2    0  502  0.12104559755E+01  0.20055308284E+02 -0.61700516584E+01  0.21017852686E+02  0.00000000000E+00 0. -1.
<mgrwt>
<rscale>  1 0.63103391E+03</rscale>
<asrwt>0</asrwt>
<pdfrwt beam="1">  1       21 0.16668737E-01 0.63103391E+03</pdfrwt>
<pdfrwt beam="2">0</pdfrwt>
<totfact> 0.31747703E+03</totfact>
</mgrwt>
</event>
<event>
 6    1  0.1347953E-004  0.6756275E+03  0.7818608E-02  0.9759845E-01
         21   -1    0    0  501  502  0.00000000000E+00  0.00000000000E+00  0.20184245538E+03  0.20184245538E+03  0.00000000000E+00 0.  1.
         13   -1    0    0    0    0 -0.00000000000E+00 -0.00000000000E+00 -0.10000000000E+04  0.10000000000E+04  0.00000000000E+00 0.  1.
    9000005    2    1    2  501    0  0.65202721973E+02 -0.17523675157E+03 -0.74862114494E+03  0.10084176148E+04  0.64924044326E+03 0.  0.
         13    1    3    3    0    0  0.16637108612E+03 -0.25171676387E+03 -0.59267915119E+02  0.30749528984E+03  0.00000000000E+00 0.  1.
          1    1    3    3  501    0 -0.10116836415E+03  0.76480012299E+02 -0.68935322982E+03  0.70092232497E+03  0.00000000000E+00 0.  1.
         -1    1    1    2    0  502 -0.65202721973E+02  0.17523675157E+03 -0.49536399687E+02  0.19342484057E+03  0.00000000000E+00 0. -1.
<mgrwt>
<rscale>  1 0.67562746E+03</rscale>
<asrwt>0</asrwt>
<pdfrwt beam="1">  1       21 0.31052685E-01 0.67562746E+03</pdfrwt>
<pdfrwt beam="2">0</pdfrwt>
<totfact> 0.94541608E+02</totfact>
</mgrwt>
</event>
<event>
 6    1  0.1347953E-004  0.6701091E+03  0.7818608E-02  0.9769761E-01
         21   -1    0    0  501  502  0.00000000000E+00  0.00000000000E+00  0.12367188486E+03  0.12367188486E+03  0.00000000000E+00 0.  1.
         13   -1    0    0    0    0 -0.00000000000E+00 -0.00000000000E+00 -0.10000000000E+04  0.10000000000E+04  0.00000000000E+00 0.  1.
    9000005    2    1    2  501    0  0.27451008261E+02 -0.21174615547E+01 -0.86425127078E+03  0.10936070937E+04  0.66954325838E+03 0.  0.
         13    1    3    3    0    0 -0.45611043336E+01 -0.22865860194E+03 -0.83162631120E+03  0.86250094574E+03  0.00000000000E+00 0.  1.
          1    1    3    3  501    0  0.32012112595E+02  0.22654114038E+03 -0.32624959577E+02  0.23110614796E+03  0.00000000000E+00 0.  1.
         -3    1    1    2    0  502 -0.27451008261E+02  0.21174615547E+01 -0.12076844358E+02  0.30064791163E+02  0.00000000000E+00 0. -1.
<mgrwt>
<rscale>  1 0.67010911E+03</rscale>
<asrwt>0</asrwt>
<pdfrwt beam="1">  1       21 0.19026443E-01 0.67010911E+03</pdfrwt>
<pdfrwt beam="2">0</pdfrwt>
<totfact> 0.24672945E+03</totfact>
</mgrwt>
</event>
<event>
 6    1  0.1347953E-004  0.6366092E+03  0.7818608E-02  0.9832236E-01
         21   -1    0    0  501  502  0.00000000000E+00  0.00000000000E+00  0.19905021560E+03  0.19905021560E+03  0.00000000000E+00 0. -1.
         13   -1    0    0    0    0 -0.00000000000E+00 -0.00000000000E+00 -0.10000000000E+04  0.10000000000E+04  0.00000000000E+00 0.  1.
    9000005    2    1    2  501    0 -0.99258314077E+01 -0.20656166317E+02 -0.89720034279E+03  0.11001089738E+04  0.63619658898E+03 0.  0.
         13    1    3    3    0    0 -0.26489673447E+03 -0.13168691198E+03 -0.22193363718E+03  0.36981922886E+03  0.00000000000E+00 0.  1.
          3    1    3    3  501    0  0.25497090306E+03  0.11103074566E+03 -0.67526670561E+03  0.73028974496E+03  0.00000000000E+00 0.  1.
         -1    1    1    2    0  502  0.99258314077E+01  0.20656166317E+02  0.96250558392E+02  0.98941241789E+02  0.00000000000E+00 0. -1.
<mgrwt>
<rscale>  1 0.63660922E+03</rscale>
<asrwt>0</asrwt>
<pdfrwt beam="1">  1       21 0.30623109E-01 0.63660922E+03</pdfrwt>
<pdfrwt beam="2">0</pdfrwt>
<totfact> 0.97467728E+02</totfact>
</mgrwt>
</event>
<event>
 6    1  0.1347953E-004  0.6654529E+03  0.7818608E-02  0.9778207E-01
         21   -1    0    0  501  502  0.00000000000E+00  0.00000000000E+00  0.17548470906E+03  0.17548470906E+03  0.00000000000E+00 0.  1.
         13   -1    0    0    0    0 -0.00000000000E+00 -0.00000000000E+00 -0.10000000000E+04  0.10000000000E+04  0.00000000000E+00 0.  1.
    9000005    2    1    2  501    0  0.86254134210E+02  0.44062254276E+02 -0.84591711552E+03  0.10762914834E+04  0.65836641242E+03 0.  0.
         13    1    3    3    0    0  0.30083160658E+03 -0.10426837840E+03 -0.71870224645E+03  0.78606899780E+03  0.00000000000E+00 0.  1.
          3    1    3    3  501    0 -0.21457747237E+03  0.14833063267E+03 -0.12721486907E+03  0.29022248560E+03  0.00000000000E+00 0.  1.
         -3    1    1    2    0  502 -0.86254134210E+02 -0.44062254276E+02  0.21401824580E+02  0.99193225654E+02  0.00000000000E+00 0. -1.
<mgrwt>
<rscale>  1 0.66545292E+03</rscale>
<asrwt>0</asrwt>
<pdfrwt beam="1">  1       21 0.26997647E-01 0.66545292E+03</pdfrwt>
<pdfrwt beam="2">0</pdfrwt>
<totfact> 0.12506262E+03</totfact>
</mgrwt>
</event>
<event>
 6    1  0.1347953E-004  0.6339067E+03  0.7818608E-02  0.9837455E-01
         21   -1    0    0  501  502  0.00000000000E+00  0.00000000000E+00  0.12610854599E+03  0.12610854599E+03  0.00000000000E+00 0.  1.
         13   -1    0    0    0    0 -0.00000000000E+00 -0.00000000000E+00 -0.10000000000E+04  0.10000000000E+04  0.00000000000E+00 0.  1.
    9000005    2    1    2  501    0  0.35982199262E+02 -0.84035386319E+01 -0.88400674814E+03  0.10877985303E+04  0.63282886604E+03 0.  0.
         13    1    3    3    0    0  0.21252192991E+03 -0.19427574306E+03 -0.73937548588E+03  0.79346376361E+03  0.00000000000E+00 0.  1.
          3    1    3    3  501    0 -0.17653973065E+03  0.18587220443E+03 -0.14463126226E+03  0.29433476672E+03  0.00000000000E+00 0.  1.
         -1    1    1    2    0  502 -0.35982199262E+02  0.84035386319E+01  0.10115294130E+02  0.38310015669E+02  0.00000000000E+00 0. -1.
<mgrwt>
<rscale>  1 0.63390671E+03</rscale>
<asrwt>0</asrwt>
<pdfrwt beam="1">  1       21 0.19401314E-01 0.63390671E+03</pdfrwt>
<pdfrwt beam="2">0</pdfrwt>
<totfact> 0.23801869E+03</totfact>
</mgrwt>
</event>
<event>
 6    1  0.1347953E-004  0.7111074E+03  0.7818608E-02  0.9698423E-01
         21   -1    0    0  501  502  0.00000000000E+00  0.00000000000E+00  0.29697447541E+03  0.29697447541E+03  0.00000000000E+00 0. -1.
         13   -1    0    0    0    0 -0.00000000000E+00 -0.00000000000E+00 -0.10000000000E+04  0.10000000000E+04  0.00000000000E+00 0.  1.
    9000005    2    1    2  501    0  0.12158979624E+03  0.32840991516E+03 -0.60412404786E+03  0.93308073677E+03  0.61889954371E+03 0.  0.
         13    1    3    3    0    0 -0.64780535129E+02  0.20733952317E+03  0.66029006002E+02  0.22703749742E+03  0.00000000000E+00 0.  1.
          1    1    3    3  501    0  0.18637033137E+03  0.12107039199E+03 -0.67015305386E+03  0.70604323935E+03  0.00000000000E+00 0.  1.
         -3    1    1    2    0  502 -0.12158979624E+03 -0.32840991516E+03 -0.98901476727E+02  0.36389373864E+03  0.00000000000E+00 0. -1.
<mgrwt>
<rscale>  1 0.71110744E+03</rscale>
<asrwt>0</asrwt>
<pdfrwt beam="1">  1       21 0.45688380E-01 0.71110744E+03</pdfrwt>
<pdfrwt beam="2">0</pdfrwt>
<totfact> 0.42516020E+02</totfact>
</mgrwt>
</event>
<event>
 6    1  0.1347953E-004  0.6888920E+03  0.7818608E-02  0.9736419E-01
         21   -1    0    0  501  502  0.00000000000E+00  0.00000000000E+00  0.17061196983E+03  0.17061196983E+03  0.00000000000E+00 0.  1.
         13   -1    0    0    0    0 -0.00000000000E+00 -0.00000000000E+00 -0.10000000000E+04  0.10000000000E+04  0.00000000000E+00 0.  1.
    9000005    2    1    2  501    0  0.96523234055E+02 -0.93810482741E+02 -0.65757693810E+03  0.95235479871E+03  0.67561460296E+03 0.  0.
         13    1    3    3    0    0  0.13834270979E+03 -0.37702848984E+03 -0.40896937949E+03  0.57318857356E+03  0.00000000000E+00 0.  1.
          3    1    3    3  501    0 -0.41819475730E+02  0.28321800710E+03 -0.24860755862E+03  0.37916622515E+03  0.00000000000E+00 0.  1.
         -3    1    1    2    0  502 -0.96523234055E+02  0.93810482741E+02 -0.17181109207E+03  0.21825717111E+03  0.00000000000E+00 0. -1.
<mgrwt>
<rscale>  1 0.68889203E+03</rscale>
<asrwt>0</asrwt>
<pdfrwt beam="1">  1       21 0.26247995E-01 0.68889203E+03</pdfrwt>
<pdfrwt beam="2">0</pdfrwt>
<totfact> 0.13204861E+03</totfact>
</mgrwt>
</event>
<event>
 6    1  0.1347953E-004  0.6687625E+03  0.7818608E-02  0.9772196E-01
         21   -1    0    0  501  502  0.00000000000E+00  0.00000000000E+00  0.16948706116E+03  0.16948706116E+03  0.00000000000E+00 0.  1.
         13   -1    0    0    0    0 -0.00000000000E+00 -0.00000000000E+00 -0.10000000000E+04  0.10000000000E+04  0.00000000000E+00 0.  1.
    9000005    2    1    2  501    0  0.17265821848E+02 -0.14430398438E+03 -0.74384342460E+03  0.10002731338E+04  0.65277986594E+03 0.  0.
         13    1    3    3    0    0  0.16127386408E+03  0.22227269251E+03 -0.32030737560E+03  0.42191376362E+03  0.00000000000E+00 0.  1.
          3    1    3    3  501    0 -0.14400804223E+03 -0.36657667690E+03 -0.42353604901E+03  0.57835937018E+03  0.00000000000E+00 0.  1.
         -3    1    1    2    0  502 -0.17265821848E+02  0.14430398438E+03 -0.86669514235E+02  0.16921392735E+03  0.00000000000E+00 0. -1.
<mgrwt>
<rscale>  1 0.66876252E+03</rscale>
<asrwt>0</asrwt>
<pdfrwt beam="1">  1       21 0.26074932E-01 0.66876252E+03</pdfrwt>
<pdfrwt beam="2">0</pdfrwt>
<totfact> 0.13392334E+03</totfact>
</mgrwt>
</event>
<event>
 6    1  0.1347953E-004  0.6740215E+03  0.7818608E-02  0.9762720E-01
         21   -1    0    0  501  502  0.00000000000E+00  0.00000000000E+00  0.41578964282E+03  0.41578964282E+03  0.00000000000E+00 0.  1.
         13   -1    0    0    0    0 -0.00000000000E+00 -0.00000000000E+00 -0.10000000000E+04  0.10000000000E+04  0.00000000000E+00 0.  1.
    9000005    2    1    2  501    0  0.14277076211E+03  0.72341645498E+02 -0.86257775835E+03  0.10946896362E+04  0.65474285511E+03 0.  0.
         13    1    3    3    0    0 -0.67905841025E+02 -0.12472993521E+03 -0.78252345390E+03  0.79530605171E+03  0.00000000000E+00 0.  1.
          1    1    3    3  501    0  0.21067660313E+03  0.19707158071E+03 -0.80054304452E+02  0.29938358454E+03  0.00000000000E+00 0.  1.
         -3    1    1    2    0  502 -0.14277076211E+03 -0.72341645498E+02  0.27836740117E+03  0.32110000658E+03  0.00000000000E+00 0. -1.
<mgrwt>
<rscale>  1 0.67402152E+03</rscale>
<asrwt>0</asrwt>
<pdfrwt beam="1">  1       21 0.63967636E-01 0.67402152E+03</pdfrwt>
<pdfrwt beam="2">0</pdfrwt>
<totfact> 0.20522709E+02</totfact>
</mgrwt>
</event>
<event>
 6    1  0.1347953E-004  0.6718991E+03  0.7818608E-02  0.9766533E-01
         21   -1    0    0  501  502  0.00000000000E+00  0.00000000000E+00  0.19816059500E+03  0.19816059500E+03  0.00000000000E+00 0. -1.
         13   -1    0    0    0    0 -0.00000000000E+00 -0.00000000000E+00 -0.10000000000E+04  0.10000000000E+04  0.00000000000E+00 0.  1.
    9000005    2    1    2  501    0  0.11002391802E+03 -0.12598085551E+03 -0.77998388458E+03  0.10294771570E+04  0.65074719979E+03 0.  0.
         13    1    3    3    0    0 -0.40757224089E+02  0.25577093030E+03 -0.34520010155E+03  0.43155883749E+03  0.00000000000E+00 0.  1.
          1    1    3    3  501    0  0.15078114211E+03 -0.38175178581E+03 -0.43478378303E+03  0.59791831948E+03  0.00000000000E+00 0.  1.
         -3    1    1    2    0  502 -0.11002391802E+03  0.12598085551E+03 -0.21855520425E+02  0.16868343803E+03  0.00000000000E+00 0. -1.
<mgrwt>
<rscale>  1 0.67189907E+03</rscale>
<asrwt>0</asrwt>
<pdfrwt beam="1">  1       21 0.30486245E-01 0.67189907E+03</pdfrwt>
<pdfrwt beam="2">0</pdfrwt>
<totfact> 0.98126880E+02</totfact>
</mgrwt>
</event>
<event>
 6    1  0.1347953E-004  0.6562673E+03  0.7818608E-02  0.9795090E-01
         21   -1    0    0  501  502  0.00000000000E+00  0.00000000000E+00  0.60056394129E+03  0.60056394129E+03  0.00000000000E+00 0. -1.
         13   -1    0    0    0    0 -0.00000000000E+00 -0.00000000000E+00 -0.10000000000E+04  0.10000000000E+04  0.00000000000E+00 0.  1.
    9000005    2    1    2  501    0 -0.15237603457E+02  0.31898730998E+02 -0.89162603415E+03  0.11071060550E+04  0.65531451890E+03 0.  0.
         13    1    3    3    0    0  0.22214675385E+03 -0.21284718383E+03 -0.33927579239E+03  0.45799690743E+03  0.00000000000E+00 0.  1.
          3    1    3    3  501    0 -0.23738435731E+03  0.24474591483E+03 -0.55235024176E+03  0.64910914759E+03  0.00000000000E+00 0.  1.
         -1    1    1    2    0  502  0.15237603457E+02 -0.31898730998E+02  0.49218997544E+03  0.49345788627E+03  0.00000000000E+00 0. -1.
<mgrwt>
<rscale>  1 0.65626735E+03</rscale>
<asrwt>0</asrwt>
<pdfrwt beam="1">  1       21 0.92394450E-01 0.65626735E+03</pdfrwt>
<pdfrwt beam="2">0</pdfrwt>
<totfact> 0.87789551E+01</totfact>
</mgrwt>
</event>
<event>
 6    1  0.1347953E-004  0.6659147E+03  0.7818608E-02  0.9777366E-01
         21   -1    0    0  501  502  0.00000000000E+00  0.00000000000E+00  0.13106918112E+03  0.13106918112E+03  0.00000000000E+00 0.  1.
         13   -1    0    0    0    0 -0.00000000000E+00 -0.00000000000E+00 -0.10000000000E+04  0.10000000000E+04  0.00000000000E+00 0.  1.
    9000005    2    1    2  501    0 -0.19819965110E+02 -0.20562778061E+02 -0.87720827272E+03  0.11013340991E+04  0.66530202565E+03 0.  0.
         13    1    3    3    0    0 -0.88413718823E+01 -0.32701093952E+03 -0.28251663556E+03  0.43223832985E+03  0.00000000000E+00 0.  1.
          1    1    3    3  501    0 -0.10978593227E+02  0.30644816146E+03 -0.59469163716E+03  0.66909576929E+03  0.00000000000E+00 0.  1.
         -1    1    1    2    0  502  0.19819965110E+02  0.20562778061E+02  0.82774538354E+01  0.29735081983E+02  0.00000000000E+00 0. -1.
<mgrwt>
<rscale>  1 0.66591474E+03</rscale>
<asrwt>0</asrwt>
<pdfrwt beam="1">  1       21 0.20164489E-01 0.66591474E+03</pdfrwt>
<pdfrwt beam="2">0</pdfrwt>
<totfact> 0.22078869E+03</totfact>
</mgrwt>
</event>
<event>
 6    1  0.1347953E-004  0.6483946E+03  0.7818608E-02  0.9809796E-01
         21   -1    0    0  501  502  0.00000000000E+00  0.00000000000E+00  0.13335087703E+03  0.13335087703E+03  0.00000000000E+00 0.  1.
         13   -1    0    0    0    0 -0.00000000000E+00 -0.00000000000E+00 -0.10000000000E+04  0.10000000000E+04  0.00000000000E+00 0.  1.
    9000005    2    1    2  501    0  0.11943720039E+01  0.31365082070E+02 -0.88491354087E+03  0.10970358132E+04  0.64763446927E+03 0.  0.
         13    1    3    3    0    0  0.38570946149E+02 -0.30403443968E+03 -0.35738183413E+03  0.47079340880E+03  0.00000000000E+00 0.  1.
          3    1    3    3  501    0 -0.37376574145E+02  0.33539952175E+03 -0.52753170674E+03  0.62624240443E+03  0.00000000000E+00 0.  1.
         -3    1    1    2    0  502 -0.11943720039E+01 -0.31365082070E+02  0.18264417901E+02  0.36315063803E+02  0.00000000000E+00 0. -1.
<mgrwt>
<rscale>  1 0.64839463E+03</rscale>
<asrwt>0</asrwt>
<pdfrwt beam="1">  1       21 0.20515519E-01 0.64839463E+03</pdfrwt>
<pdfrwt beam="2">0</pdfrwt>
<totfact> 0.21373729E+03</totfact>
</mgrwt>
</event>
<event>
 6    1  0.1347953E-004  0.6647512E+03  0.7818608E-02  0.9779487E-01
         21   -1    0    0  501  502  0.00000000000E+00  0.00000000000E+00  0.12806893844E+03  0.12806893844E+03  0.00000000000E+00 0.  1.
         13   -1    0    0    0    0 -0.00000000000E+00 -0.00000000000E+00 -0.10000000000E+04  0.10000000000E+04  0.00000000000E+00 0.  1.
    9000005    2    1    2  501    0 -0.35324078478E+00  0.36867877645E+02 -0.86437962572E+03  0.10904339897E+04  0.66372794383E+03 0.  0.
         13    1    3    3    0    0 -0.52865924229E+02  0.12203360456E+03 -0.94968446493E+03  0.95895129674E+03  0.00000000000E+00 0.  1.
          3    1    3    3  501    0  0.52512683444E+02 -0.85165726912E+02  0.85304839213E+02  0.13148269299E+03  0.00000000000E+00 0.  1.
         -3    1    1    2    0  502  0.35324078478E+00 -0.36867877645E+02 -0.75514358401E+01  0.37634948709E+02  0.00000000000E+00 0. -1.
<mgrwt>
<rscale>  1 0.66475119E+03</rscale>
<asrwt>0</asrwt>
<pdfrwt beam="1">  1       21 0.19702913E-01 0.66475119E+03</pdfrwt>
<pdfrwt beam="2">0</pdfrwt>
<totfact> 0.23082539E+03</totfact>
</mgrwt>
</event>
<event>
 6    1  0.1347953E-004  0.6716629E+03  0.7818608E-02  0.9766958E-01
         21   -1    0    0  501  502  0.00000000000E+00  0.00000000000E+00  0.22417434298E+03  0.22417434298E+03  0.00000000000E+00 0. -1.
         13   -1    0    0    0    0 -0.00000000000E+00 -0.00000000000E+00 -0.10000000000E+04  0.10000000000E+04  0.00000000000E+00 0.  1.
    9000005    2    1    2  501    0  0.17643992939E+03 -0.55280698008E+02 -0.79213285372E+03  0.10385593411E+04  0.64571204325E+03 0.  0.
         13    1    3    3    0    0  0.38654778243E+03 -0.17484900544E+03 -0.56752841731E+03  0.70857594318E+03  0.00000000000E+00 0.  1.
          1    1    3    3  501    0 -0.21010785303E+03  0.11956830743E+03 -0.22460443641E+03  0.32998339792E+03  0.00000000000E+00 0.  1.
         -1    1    1    2    0  502 -0.17643992939E+03  0.55280698008E+02  0.16307196697E+02  0.18561500187E+03  0.00000000000E+00 0. -1.
<mgrwt>
<rscale>  1 0.67166290E+03</rscale>
<asrwt>0</asrwt>
<pdfrwt beam="1">  1       21 0.34488359E-01 0.67166290E+03</pdfrwt>
<pdfrwt beam="2">0</pdfrwt>
<totfact> 0.76471310E+02</totfact>
</mgrwt>
</event>
<event>
 6    1  0.1347953E-004  0.6554126E+03  0.7818608E-02  0.9796675E-01
         21   -1    0    0  501  502  0.00000000000E+00  0.00000000000E+00  0.38929178947E+03  0.38929178947E+03  0.00000000000E+00 0. -1.
         13   -1    0    0    0    0 -0.00000000000E+00 -0.00000000000E+00 -0.10000000000E+04  0.10000000000E+04  0.00000000000E+00 0.  1.
    9000005    2    1    2  501    0 -0.88199469393E+02  0.43021367410E+02 -0.88311199916E+03  0.10997511040E+04  0.64802446199E+03 0.  0.
         13    1    3    3    0    0  0.27747776325E+02  0.16211329803E+03 -0.91571757728E+03  0.93037054007E+03  0.00000000000E+00 0.  1.
          3    1    3    3  501    0 -0.11594724572E+03 -0.11909193062E+03  0.32605578125E+02  0.16938056398E+03  0.00000000000E+00 0.  1.
         -3    1    1    2    0  502  0.88199469393E+02 -0.43021367410E+02  0.27240378863E+03  0.28954068542E+03  0.00000000000E+00 0. -1.
<mgrwt>
<rscale>  1 0.65541261E+03</rscale>
<asrwt>0</asrwt>
<pdfrwt beam="1">  1       21 0.59891043E-01 0.65541261E+03</pdfrwt>
<pdfrwt beam="2">0</pdfrwt>
<totfact> 0.23805044E+02</totfact>
</mgrwt>
</event>
<event>
 6    1  0.1347953E-004  0.6563325E+03  0.7818608E-02  0.9794969E-01
         21   -1    0    0  501  502  0.00000000000E+00  0.00000000000E+00  0.40223321704E+03  0.40223321704E+03  0.00000000000E+00 0. -1.
         13   -1    0    0    0    0 -0.00000000000E+00 -0.00000000000E+00 -0.10000000000E+04  0.10000000000E+04  0.00000000000E+00 0.  1.
    9000005    2    1    2  501    0 -0.59914410212E+02  0.81924818518E+02 -0.88258183529E+03  0.10998741152E+04  0.64843732221E+03 0.  0.
         13    1    3    3    0    0  0.55730356708E+02 -0.27216116122E+03 -0.45182075483E+03  0.53039566818E+03  0.00000000000E+00 0.  1.
          3    1    3    3  501    0 -0.11564476692E+03  0.35408597973E+03 -0.43076108046E+03  0.56947844700E+03  0.00000000000E+00 0.  1.
         -3    1    1    2    0  502  0.59914410212E+02 -0.81924818518E+02  0.28481505233E+03  0.30235910186E+03  0.00000000000E+00 0. -1.
<mgrwt>
<rscale>  1 0.65633252E+03</rscale>
<asrwt>0</asrwt>
<pdfrwt beam="1">  1       21 0.61882032E-01 0.65633252E+03</pdfrwt>
<pdfrwt beam="2">0</pdfrwt>
<totfact> 0.22139088E+02</totfact>
</mgrwt>
</event>
<event>
 6    1  0.1347953E-004  0.6676652E+03  0.7818608E-02  0.9774185E-01
         21   -1    0    0  501  502  0.00000000000E+00  0.00000000000E+00  0.17779024029E+03  0.17779024029E+03  0.00000000000E+00 0.  1.
         13   -1    0    0    0    0 -0.00000000000E+00 -0.00000000000E+00 -0.10000000000E+04  0.10000000000E+04  0.00000000000E+00 0.  1.
    9000005    2    1    2  501    0 -0.66759037156E+01 -0.23010198347E+02 -0.88614233675E+03  0.11095157112E+04  0.66723521750E+03 0.  0.
         13    1    3    3    0    0  0.26691664661E+03  0.97155892947E+02 -0.16400818907E+03  0.32799763696E+03  0.00000000000E+00 0.  1.
          3    1    3    3  501    0 -0.27359255033E+03 -0.12016609129E+03 -0.72213414768E+03  0.78151807422E+03  0.00000000000E+00 0.  1.
         -1    1    1    2    0  502  0.66759037156E+01  0.23010198347E+02  0.63932577039E+02  0.68274529110E+02  0.00000000000E+00 0. -1.
<mgrwt>
<rscale>  1 0.66766524E+03</rscale>
<asrwt>0</asrwt>
<pdfrwt beam="1">  1       21 0.27352344E-01 0.66766524E+03</pdfrwt>
<pdfrwt beam="2">0</pdfrwt>
<totfact> 0.12185756E+03</totfact>
</mgrwt>
</event>
<event>
 6    1  0.1347953E-004  0.6485251E+03  0.7818608E-02  0.9809551E-01
         21   -1    0    0  501  502  0.00000000000E+00  0.00000000000E+00  0.11776597913E+03  0.11776597913E+03  0.00000000000E+00 0.  1.
         13   -1    0    0    0    0 -0.00000000000E+00 -0.00000000000E+00 -0.10000000000E+04  0.10000000000E+04  0.00000000000E+00 0.  1.
    9000005    2    1    2  501    0 -0.31203723806E+02  0.19203265364E+02 -0.84852438372E+03  0.10679786573E+04  0.64748926235E+03 0.  0.
         13    1    3    3    0    0 -0.18507581623E+03 -0.26566046301E+03 -0.39481088714E+03  0.51059198580E+03  0.00000000000E+00 0.  1.
          1    1    3    3  501    0  0.15387209242E+03  0.28486372837E+03 -0.45371349658E+03  0.55738667148E+03  0.00000000000E+00 0.  1.
         -1    1    1    2    0  502  0.31203723806E+02 -0.19203265364E+02 -0.33709637154E+02  0.49787321850E+02  0.00000000000E+00 0. -1.
<mgrwt>
<rscale>  1 0.64852508E+03</rscale>
<asrwt>0</asrwt>
<pdfrwt beam="1">  1       21 0.18117842E-01 0.64852508E+03</pdfrwt>
<pdfrwt beam="2">0</pdfrwt>
<totfact> 0.27102123E+03</totfact>
</mgrwt>
</event>
<event>
 6    1  0.1347953E-004  0.6555059E+03  0.7818608E-02  0.9796502E-01
         21   -1    0    0  501  502  0.00000000000E+00  0.00000000000E+00  0.14905050675E+03  0.14905050675E+03  0.00000000000E+00 0.  1.
         13   -1    0    0    0    0 -0.00000000000E+00 -0.00000000000E+00 -0.10000000000E+04  0.10000000000E+04  0.00000000000E+00 0.  1.
    9000005    2    1    2  501    0 -0.64769977412E+02 -0.26423047617E+01 -0.86237648579E+03  0.10832271985E+04  0.65229274763E+03 0.  0.
         13    1    3    3    0    0  0.98324642708E+02 -0.29937754751E+03 -0.37577300684E+03  0.49040799747E+03  0.00000000000E+00 0.  1.
          3    1    3    3  501    0 -0.16309462012E+03  0.29673524274E+03 -0.48660347895E+03  0.59281920104E+03  0.00000000000E+00 0.  1.
         -1    1    1    2    0  502  0.64769977412E+02  0.26423047617E+01  0.11426992540E+02  0.65823308235E+02  0.00000000000E+00 0. -1.
<mgrwt>
<rscale>  1 0.65550588E+03</rscale>
<asrwt>0</asrwt>
<pdfrwt beam="1">  1       21 0.22930847E-01 0.65550588E+03</pdfrwt>
<pdfrwt beam="2">0</pdfrwt>
<totfact> 0.17231546E+03</totfact>
</mgrwt>
</event>
<event>
 6    1  0.1347953E-004  0.6322774E+03  0.7818608E-02  0.9840615E-01
         21   -1    0    0  501  502  0.00000000000E+00  0.00000000000E+00  0.11907475228E+03  0.11907475228E+03  0.00000000000E+00 0.  1.
         13   -1    0    0    0    0 -0.00000000000E+00 -0.00000000000E+00 -0.10000000000E+04  0.10000000000E+04  0.00000000000E+00 0.  1.
    9000005    2    1    2  501    0  0.23620449601E+02  0.11246123748E+02 -0.88969622676E+03  0.10914825249E+04  0.63173596168E+03 0.  0.
         13    1    3    3    0    0 -0.19668950597E+02  0.14056028021E+03  0.43444582933E+02  0.14843009053E+03  0.00000000000E+00 0.  1.
          3    1    3    3  501    0  0.43289400198E+02 -0.12931415646E+03 -0.93314080970E+03  0.94305243436E+03  0.00000000000E+00 0.  1.
         -1    1    1    2    0  502 -0.23620449601E+02 -0.11246123748E+02  0.87709790393E+01  0.27592227384E+02  0.00000000000E+00 0. -1.
<mgrwt>
<rscale>  1 0.63227741E+03</rscale>
<asrwt>0</asrwt>
<pdfrwt beam="1">  1       21 0.18319192E-01 0.63227741E+03</pdfrwt>
<pdfrwt beam="2">0</pdfrwt>
<totfact> 0.26554080E+03</totfact>
</mgrwt>
</event>
<event>
 6    1  0.1347953E-004  0.4752399E+03  0.7818608E-02  0.1020452E+00
         21   -1    0    0  501  502  0.00000000000E+00  0.00000000000E+00  0.10006062189E+03  0.10006062189E+03  0.00000000000E+00 0.  1.
         13   -1    0    0    0    0 -0.00000000000E+00 -0.00000000000E+00 -0.10000000000E+04  0.10000000000E+04  0.00000000000E+00 0.  1.
    9000005    2    1    2  501    0 -0.86284675392E+02  0.31408297439E+02 -0.88838628982E+03  0.10075133356E+04  0.46628467169E+03 0.  0.
         13    1    3    3    0    0  0.13086637416E+03 -0.30580113461E+02 -0.70187330125E+03  0.71462387466E+03  0.00000000000E+00 0.  1.
          3    1    3    3  501    0 -0.21715104955E+03  0.61988410900E+02 -0.18651298858E+03  0.29288946092E+03  0.00000000000E+00 0.  1.
         -3    1    1    2    0  502  0.86284675392E+02 -0.31408297439E+02 -0.11553088287E+02  0.92547286316E+02  0.00000000000E+00 0. -1.
<mgrwt>
<rscale>  1 0.47523986E+03</rscale>
<asrwt>0</asrwt>
<pdfrwt beam="1">  1       21 0.15393941E-01 0.47523986E+03</pdfrwt>
<pdfrwt beam="2">0</pdfrwt>
<totfact> 0.37022241E+03</totfact>
</mgrwt>
</event>
<event>
 6    1  0.1347953E-004  0.6520870E+03  0.7818608E-02  0.9802871E-01
         21   -1    0    0  501  502  0.00000000000E+00  0.00000000000E+00  0.20597433474E+03  0.20597433474E+03  0.00000000000E+00 0.  1.
         13   -1    0    0    0    0 -0.00000000000E+00 -0.00000000000E+00 -0.10000000000E+04  0.10000000000E+04  0.00000000000E+00 0.  1.
    9000005    2    1    2  501    0  0.31018947579E+02 -0.55379263259E+02 -0.88237969043E+03  0.10971833807E+04  0.64899030423E+03 0.  0.
         13    1    3    3    0    0 -0.13526670165E+03  0.24250084468E+03 -0.57258305479E+03  0.63636082129E+03  0.00000000000E+00 0.  1.
          3    1    3    3  501    0  0.16628564923E+03 -0.29788010794E+03 -0.30979663564E+03  0.46082255945E+03  0.00000000000E+00 0.  1.
         -1    1    1    2    0  502 -0.31018947579E+02  0.55379263259E+02  0.88354025169E+02  0.10879095400E+03  0.00000000000E+00 0. -1.
<mgrwt>
<rscale>  1 0.65208700E+03</rscale>
<asrwt>0</asrwt>
<pdfrwt beam="1">  1       21 0.31688358E-01 0.65208700E+03</pdfrwt>
<pdfrwt beam="2">0</pdfrwt>
<totfact> 0.90900025E+02</totfact>
</mgrwt>
</event>
<event>
 6    1  0.1347953E-004  0.6768147E+03  0.7818608E-02  0.9757725E-01
         21   -1    0    0  501  502  0.00000000000E+00  0.00000000000E+00  0.17673126168E+03  0.17673126168E+03  0.00000000000E+00 0. -1.
         13   -1    0    0    0    0 -0.00000000000E+00 -0.00000000000E+00 -0.10000000000E+04  0.10000000000E+04  0.00000000000E+00 0.  1.
    9000005    2    1    2  501    0 -0.44730730922E+02 -0.11458639870E+02 -0.87576545330E+03  0.11068167153E+04  0.67523771613E+03 0.  0.
         13    1    3    3    0    0  0.13772355162E+03 -0.26408423055E+03 -0.67046991520E+03  0.73364716634E+03  0.00000000000E+00 0.  1.
          3    1    3    3  501    0 -0.18245428254E+03  0.25262559068E+03 -0.20529553810E+03  0.37316954893E+03  0.00000000000E+00 0.  1.
         -1    1    1    2    0  502  0.44730730922E+02  0.11458639870E+02  0.52496714978E+02  0.69914546411E+02  0.00000000000E+00 0. -1.
<mgrwt>
<rscale>  1 0.67681468E+03</rscale>
<asrwt>0</asrwt>
<pdfrwt beam="1">  1       21 0.27189424E-01 0.67681468E+03</pdfrwt>
<pdfrwt beam="2">0</pdfrwt>
<totfact> 0.12324635E+03</totfact>
</mgrwt>
</event>
<event>
 6    1  0.1347953E-004  0.6407412E+03  0.7818608E-02  0.9824309E-01
         21   -1    0    0  501  502  0.00000000000E+00  0.00000000000E+00  0.21693513252E+03  0.21693513252E+03  0.00000000000E+00 0. -1.
         13   -1    0    0    0    0 -0.00000000000E+00 -0.00000000000E+00 -0.10000000000E+04  0.10000000000E+04  0.00000000000E+00 0.  1.
    9000005    2    1    2  501    0  0.16764849157E+02 -0.16409707204E+02 -0.89603380294E+03  0.11015561091E+04  0.64031160142E+03 0.  0.
         13    1    3    3    0    0  0.16325260202E+03 -0.28201224771E+03 -0.35938440999E+03  0.48511800015E+03  0.00000000000E+00 0.  1.
          3    1    3    3  501    0 -0.14648775286E+03  0.26560254050E+03 -0.53664939295E+03  0.61643810899E+03  0.00000000000E+00 0.  1.
         -1    1    1    2    0  502 -0.16764849157E+02  0.16409707204E+02  0.11296893546E+03  0.11537902338E+03  0.00000000000E+00 0. -1.
<mgrwt>
<rscale>  1 0.64074120E+03</rscale>
<asrwt>0</asrwt>
<pdfrwt beam="1">  1       21 0.33374635E-01 0.64074120E+03</pdfrwt>
<pdfrwt beam="2">0</pdfrwt>
<totfact> 0.81921904E+02</totfact>
</mgrwt>
</event>
<event>
 6    1  0.1347953E-004  0.6783893E+03  0.7818608E-02  0.9754920E-01
         21   -1    0    0  501  502  0.00000000000E+00  0.00000000000E+00  0.88513898091E+03  0.88513898091E+03  0.00000000000E+00 0. -1.
         13   -1    0    0    0    0 -0.00000000000E+00 -0.00000000000E+00 -0.10000000000E+04  0.10000000000E+04  0.00000000000E+00 0.  1.
    9000005    2    1    2  501    0  0.10939987315E+03 -0.16545885886E+03 -0.87065777505E+03  0.11037468242E+04  0.64874272597E+03 0.  0.
         13    1    3    3    0    0  0.25384296753E+03 -0.22580572055E+03 -0.88360577832E+03  0.94666976664E+03  0.00000000000E+00 0.  1.
          1    1    3    3  501    0 -0.14444309437E+03  0.60346861686E+02  0.12948003271E+02  0.15707705758E+03  0.00000000000E+00 0.  1.
         -3    1    1    2    0  502 -0.10939987315E+03  0.16545885886E+03  0.75579675596E+03  0.78139215669E+03  0.00000000000E+00 0. -1.
<mgrwt>
<rscale>  1 0.67838934E+03</rscale>
<asrwt>0</asrwt>
<pdfrwt beam="1">  1       21 0.13617522E+00 0.67838934E+03</pdfrwt>
<pdfrwt beam="2">0</pdfrwt>
<totfact> 0.32835212E+01</totfact>
</mgrwt>
</event>
<event>
 6    1  0.1347953E-004  0.6797353E+03  0.7818608E-02  0.9752529E-01
         21   -1    0    0  501  502  0.00000000000E+00  0.00000000000E+00  0.13926534346E+03  0.13926534346E+03  0.00000000000E+00 0.  1.
         13   -1    0    0    0    0 -0.00000000000E+00 -0.00000000000E+00 -0.10000000000E+04  0.10000000000E+04  0.00000000000E+00 0.  1.
    9000005    2    1    2  501    0 -0.18647045550E+02  0.17111044522E+02 -0.87669907580E+03  0.11093427294E+04  0.67926395569E+03 0.  0.
         13    1    3    3    0    0  0.86919636592E+02  0.33412205078E+03 -0.42730955236E+03  0.54935054526E+03  0.00000000000E+00 0.  1.
          1    1    3    3  501    0 -0.10556668214E+03 -0.31701100625E+03 -0.44938952344E+03  0.55999218409E+03  0.00000000000E+00 0.  1.
         -1    1    1    2    0  502  0.18647045550E+02 -0.17111044522E+02  0.15964419261E+02  0.29922614102E+02  0.00000000000E+00 0. -1.
<mgrwt>
<rscale>  1 0.67973526E+03</rscale>
<asrwt>0</asrwt>
<pdfrwt beam="1">  1       21 0.21425437E-01 0.67973526E+03</pdfrwt>
<pdfrwt beam="2">0</pdfrwt>
<totfact> 0.19633744E+03</totfact>
</mgrwt>
</event>
<event>
 6    1  0.1347953E-004  0.6524495E+03  0.7818608E-02  0.9802194E-01
         21   -1    0    0  501  502  0.00000000000E+00  0.00000000000E+00  0.16443568805E+03  0.16443568805E+03  0.00000000000E+00 0.  1.
         13   -1    0    0    0    0 -0.00000000000E+00 -0.00000000000E+00 -0.10000000000E+04  0.10000000000E+04  0.00000000000E+00 0.  1.
    9000005    2    1    2  501    0 -0.18956441231E+02 -0.15012901162E+02 -0.89077567570E+03  0.11041610785E+04  0.65200126461E+03 0.  0.
         13    1    3    3    0    0 -0.96592824392E+02  0.30595986733E+03 -0.40316612676E+03  0.51525191888E+03  0.00000000000E+00 0.  1.
          3    1    3    3  501    0  0.77636383161E+02 -0.32097276849E+03 -0.48760954894E+03  0.58890915965E+03  0.00000000000E+00 0.  1.
         -1    1    1    2    0  502  0.18956441231E+02  0.15012901162E+02  0.55211363756E+02  0.60274609524E+02  0.00000000000E+00 0. -1.
<mgrwt>
<rscale>  1 0.65244953E+03</rscale>
<asrwt>0</asrwt>
<pdfrwt beam="1">  1       21 0.25297797E-01 0.65244953E+03</pdfrwt>
<pdfrwt beam="2">0</pdfrwt>
<totfact> 0.14225575E+03</totfact>
</mgrwt>
</event>
<event>
 6    1  0.1347953E-004  0.6546610E+03  0.7818608E-02  0.9798072E-01
         21   -1    0    0  501  502  0.00000000000E+00  0.00000000000E+00  0.21840347936E+03  0.21840347936E+03  0.00000000000E+00 0.  1.
         13   -1    0    0    0    0 -0.00000000000E+00 -0.00000000000E+00 -0.10000000000E+04  0.10000000000E+04  0.00000000000E+00 0.  1.
    9000005    2    1    2  501    0 -0.24936685178E+00 -0.59965517545E+02 -0.88383038232E+03  0.10998805366E+04  0.65190883158E+03 0.  0.
         13    1    3    3    0    0  0.27158402680E+03  0.92633861640E+02 -0.20426838097E+03  0.35222789129E+03  0.00000000000E+00 0.  1.
          1    1    3    3  501    0 -0.27183339365E+03 -0.15259937919E+03 -0.67956200134E+03  0.74765264535E+03  0.00000000000E+00 0.  1.
         -1    1    1    2    0  502  0.24936685178E+00  0.59965517545E+02  0.10223386168E+03  0.11852294272E+03  0.00000000000E+00 0. -1.
<mgrwt>
<rscale>  1 0.65466102E+03</rscale>
<asrwt>0</asrwt>
<pdfrwt beam="1">  1       21 0.33600534E-01 0.65466102E+03</pdfrwt>
<pdfrwt beam="2">0</pdfrwt>
<totfact> 0.80730234E+02</totfact>
</mgrwt>
</event>
<event>
 6    1  0.1347953E-004  0.6871384E+03  0.7818608E-02  0.9739484E-01
         21   -1    0    0  501  502  0.00000000000E+00  0.00000000000E+00  0.21143619917E+03  0.21143619917E+03  0.00000000000E+00 0. -1.
         13   -1    0    0    0    0 -0.00000000000E+00 -0.00000000000E+00 -0.10000000000E+04  0.10000000000E+04  0.00000000000E+00 0.  1.
    9000005    2    1    2  501    0  0.11877415389E+03  0.13756703638E+03 -0.76479846592E+03  0.10281419541E+04  0.66266673009E+03 0.  0.
         13    1    3    3    0    0 -0.17004945427E+03  0.23172002699E+03 -0.63648409352E+03  0.69837166975E+03  0.00000000000E+00 0.  1.
          1    1    3    3  501    0  0.28882360816E+03 -0.94152990614E+02 -0.12831437240E+03  0.32977028435E+03  0.00000000000E+00 0.  1.
         -3    1    1    2    0  502 -0.11877415389E+03 -0.13756703638E+03 -0.23765334907E+02  0.18329424507E+03  0.00000000000E+00 0. -1.
<mgrwt>
<rscale>  1 0.68713840E+03</rscale>
<asrwt>0</asrwt>
<pdfrwt beam="1">  1       21 0.32528645E-01 0.68713840E+03</pdfrwt>
<pdfrwt beam="2">0</pdfrwt>
<totfact> 0.86024526E+02</totfact>
</mgrwt>
</event>
<event>
 6    1  0.1347953E-004  0.6162755E+03  0.7818608E-02  0.9872203E-01
         21   -1    0    0  501  502  0.00000000000E+00  0.00000000000E+00  0.39504956829E+03  0.39504956829E+03  0.00000000000E+00 0.  1.
         13   -1    0    0    0    0 -0.00000000000E+00 -0.00000000000E+00 -0.10000000000E+04  0.10000000000E+04  0.00000000000E+00 0.  1.
    9000005    2    1    2  501    0  0.42721177246E+01 -0.25555717585E+02 -0.90443862616E+03  0.10944426417E+04  0.61573055945E+03 0.  0.
         13    1    3    3    0    0 -0.13566067228E+03 -0.85390814230E+02  0.16379642745E+02  0.16113255988E+03  0.00000000000E+00 0.  1.
          1    1    3    3  501    0  0.13993279001E+03  0.59835096645E+02 -0.92081826890E+03  0.93331008183E+03  0.00000000000E+00 0.  1.
         -1    1    1    2    0  502 -0.42721177246E+01  0.25555717585E+02  0.29948819445E+03  0.30060692658E+03  0.00000000000E+00 0. -1.
<mgrwt>
<rscale>  1 0.61627548E+03</rscale>
<asrwt>0</asrwt>
<pdfrwt beam="1">  1       21 0.60776855E-01 0.61627548E+03</pdfrwt>
<pdfrwt beam="2">0</pdfrwt>
<totfact> 0.23145096E+02</totfact>
</mgrwt>
</event>
<event>
 6    1  0.1347953E-004  0.6657521E+03  0.7818608E-02  0.9777662E-01
         21   -1    0    0  501  502  0.00000000000E+00  0.00000000000E+00  0.13470673994E+03  0.13470673994E+03  0.00000000000E+00 0.  1.
         13   -1    0    0    0    0 -0.00000000000E+00 -0.00000000000E+00 -0.10000000000E+04  0.10000000000E+04  0.00000000000E+00 0.  1.
    9000005    2    1    2  501    0  0.20498681858E+02  0.55037562100E+02 -0.83709315993E+03  0.10695563382E+04  0.66315644683E+03 0.  0.
         13    1    3    3    0    0 -0.18489432381E+03 -0.14228977593E+03 -0.72814116773E+03  0.76460568364E+03  0.00000000000E+00 0.  1.
          3    1    3    3  501    0  0.20539300567E+03  0.19732733803E+03 -0.10895199220E+03  0.30495065456E+03  0.00000000000E+00 0.  1.
         -3    1    1    2    0  502 -0.20498681858E+02 -0.55037562100E+02 -0.28200100133E+02  0.65150401743E+02  0.00000000000E+00 0. -1.
<mgrwt>
<rscale>  1 0.66575206E+03</rscale>
<asrwt>0</asrwt>
<pdfrwt beam="1">  1       21 0.20724113E-01 0.66575206E+03</pdfrwt>
<pdfrwt beam="2">0</pdfrwt>
<totfact> 0.20947097E+03</totfact>
</mgrwt>
</event>
<event>
 6    1  0.1347953E-004  0.6666856E+03  0.7818608E-02  0.9775964E-01
         21   -1    0    0  501  502  0.00000000000E+00  0.00000000000E+00  0.18202508506E+03  0.18202508506E+03  0.00000000000E+00 0.  1.
         13   -1    0    0    0    0 -0.00000000000E+00 -0.00000000000E+00 -0.10000000000E+04  0.10000000000E+04  0.00000000000E+00 0.  1.
    9000005    2    1    2  501    0  0.16837527019E+03 -0.60440717954E+02 -0.70570788945E+03  0.97082092551E+03  0.64223541803E+03 0.  0.
         13    1    3    3    0    0  0.34432005923E+02 -0.11111854110E+03  0.99437629779E+02  0.15303834625E+03  0.00000000000E+00 0.  1.
          1    1    3    3  501    0  0.13394326427E+03  0.50677823143E+02 -0.80514551923E+03  0.81778257926E+03  0.00000000000E+00 0.  1.
         -3    1    1    2    0  502 -0.16837527019E+03  0.60440717954E+02 -0.11226702548E+03  0.21120415955E+03  0.00000000000E+00 0. -1.
<mgrwt>
<rscale>  1 0.66668557E+03</rscale>
<asrwt>0</asrwt>
<pdfrwt beam="1">  1       21 0.28003858E-01 0.66668557E+03</pdfrwt>
<pdfrwt beam="2">0</pdfrwt>
<totfact> 0.11630179E+03</totfact>
</mgrwt>
</event>
<event>
 6    1  0.1347953E-004  0.6611119E+03  0.7818608E-02  0.9786149E-01
         21   -1    0    0  501  502  0.00000000000E+00  0.00000000000E+00  0.16381577486E+03  0.16381577486E+03  0.00000000000E+00 0.  1.
         13   -1    0    0    0    0 -0.00000000000E+00 -0.00000000000E+00 -0.10000000000E+04  0.10000000000E+04  0.00000000000E+00 0.  1.
    9000005    2    1    2  501    0 -0.21243009751E+02 -0.21312785613E+02 -0.88608832161E+03  0.11055412595E+04  0.66042672760E+03 0.  0.
         13    1    3    3    0    0  0.22692927387E+03 -0.20580404624E+03 -0.64281662248E+03  0.71208525537E+03  0.00000000000E+00 0.  1.
          1    1    3    3  501    0 -0.24817228362E+03  0.18449126063E+03 -0.24327169913E+03  0.39345600415E+03  0.00000000000E+00 0.  1.
         -3    1    1    2    0  502  0.21243009751E+02  0.21312785613E+02  0.49904096465E+02  0.58274515338E+02  0.00000000000E+00 0. -1.
<mgrwt>
<rscale>  1 0.66111191E+03</rscale>
<asrwt>0</asrwt>
<pdfrwt beam="1">  1       21 0.25202426E-01 0.66111191E+03</pdfrwt>
<pdfrwt beam="2">0</pdfrwt>
<totfact> 0.14324950E+03</totfact>
</mgrwt>
</event>
<event>
 6    1  0.1347953E-004  0.7080655E+03  0.7818608E-02  0.9703538E-01
         21   -1    0    0  501  502  0.00000000000E+00  0.00000000000E+00  0.24051106218E+03  0.24051106218E+03  0.00000000000E+00 0. -1.
         13   -1    0    0    0    0 -0.00000000000E+00 -0.00000000000E+00 -0.10000000000E+04  0.10000000000E+04  0.00000000000E+00 0.  1.
    9000005    2    1    2  501    0 -0.21707806191E+03  0.12182139816E+03 -0.67331523247E+03  0.97709267726E+03  0.66286752800E+03 0.  0.
         13    1    3    3    0    0 -0.13218099472E+03  0.37597741543E+03 -0.55719784176E+03  0.68505493731E+03  0.00000000000E+00 0.  1.
          3    1    3    3  501    0 -0.84897067191E+02 -0.25415601726E+03 -0.11611739071E+03  0.29203773995E+03  0.00000000000E+00 0.  1.
         -1    1    1    2    0  502  0.21707806191E+03 -0.12182139816E+03 -0.86173705357E+02  0.26341838491E+03  0.00000000000E+00 0. -1.
<mgrwt>
<rscale>  1 0.70806546E+03</rscale>
<asrwt>0</asrwt>
<pdfrwt beam="1">  1       21 0.37001701E-01 0.70806546E+03</pdfrwt>
<pdfrwt beam="2">0</pdfrwt>
<totfact> 0.66049998E+02</totfact>
</mgrwt>
</event>
<event>
 6    1  0.1347953E-004  0.6549142E+03  0.7818608E-02  0.9797602E-01
         21   -1    0    0  501  502  0.00000000000E+00  0.00000000000E+00  0.14515030522E+03  0.14515030522E+03  0.00000000000E+00 0.  1.
         13   -1    0    0    0    0 -0.00000000000E+00 -0.00000000000E+00 -0.10000000000E+04  0.10000000000E+04  0.00000000000E+00 0.  1.
    9000005    2    1    2  501    0  0.72164572363E+02  0.46552729457E+02 -0.82690989574E+03  0.10548424180E+04  0.64925932339E+03 0.  0.
         13    1    3    3    0    0 -0.72684554861E+02  0.12621408370E+03  0.56408350011E+02  0.15618880047E+03  0.00000000000E+00 0.  1.
          3    1    3    3  501    0  0.14484912722E+03 -0.79661354246E+02 -0.88331824576E+03  0.89865361753E+03  0.00000000000E+00 0.  1.
         -1    1    1    2    0  502 -0.72164572363E+02 -0.46552729457E+02 -0.27939799037E+02  0.90307887222E+02  0.00000000000E+00 0. -1.
<mgrwt>
<rscale>  1 0.65491416E+03</rscale>
<asrwt>0</asrwt>
<pdfrwt beam="1">  1       21 0.22330816E-01 0.65491416E+03</pdfrwt>
<pdfrwt beam="2">0</pdfrwt>
<totfact> 0.18142034E+03</totfact>
</mgrwt>
</event>
<event>
 6    1  0.1347953E-004  0.6420674E+03  0.7818608E-02  0.9821779E-01
         21   -1    0    0  501  502  0.00000000000E+00  0.00000000000E+00  0.24690352200E+03  0.24690352200E+03  0.00000000000E+00 0.  1.
         13   -1    0    0    0    0 -0.00000000000E+00 -0.00000000000E+00 -0.10000000000E+04  0.10000000000E+04  0.00000000000E+00 0.  1.
    9000005    2    1    2  501    0 -0.23281389585E+02  0.15076271972E-01 -0.89589742589E+03  0.11022171921E+04  0.64164516488E+03 0.  0.
         13    1    3    3    0    0  0.32479696560E+02  0.62620382291E+02  0.89107807739E+02  0.11365053615E+03  0.00000000000E+00 0.  1.
          1    1    3    3  501    0 -0.55761086145E+02 -0.62605306019E+02 -0.98500523363E+03  0.98856665600E+03  0.00000000000E+00 0.  1.
         -1    1    1    2    0  502  0.23281389585E+02 -0.15076271972E-01  0.14280094789E+03  0.14468632985E+03  0.00000000000E+00 0. -1.
<mgrwt>
<rscale>  1 0.64206740E+03</rscale>
<asrwt>0</asrwt>
<pdfrwt beam="1">  1       21 0.37985156E-01 0.64206740E+03</pdfrwt>
<pdfrwt beam="2">0</pdfrwt>
<totfact> 0.62884997E+02</totfact>
</mgrwt>
</event>
<event>
 6    1  0.1347953E-004  0.6493290E+03  0.7818608E-02  0.9808039E-01
         21   -1    0    0  501  502  0.00000000000E+00  0.00000000000E+00  0.21888351738E+03  0.21888351738E+03  0.00000000000E+00 0. -1.
         13   -1    0    0    0    0 -0.00000000000E+00 -0.00000000000E+00 -0.10000000000E+04  0.10000000000E+04  0.00000000000E+00 0.  1.
    9000005    2    1    2  501    0  0.11471744480E+02 -0.36955388394E+02 -0.89093410263E+03  0.11024480790E+04  0.64817504576E+03 0.  0.
         13    1    3    3    0    0 -0.14394478584E+03  0.25930610808E+03 -0.29078682504E+03  0.41535134125E+03  0.00000000000E+00 0.  1.
          1    1    3    3  501    0  0.15541653032E+03 -0.29626149648E+03 -0.60014727759E+03  0.68709673772E+03  0.00000000000E+00 0.  1.
         -3    1    1    2    0  502 -0.11471744480E+02  0.36955388394E+02  0.10981762001E+03  0.11643543841E+03  0.00000000000E+00 0. -1.
<mgrwt>
<rscale>  1 0.64932903E+03</rscale>
<asrwt>0</asrwt>
<pdfrwt beam="1">  1       21 0.33674386E-01 0.64932903E+03</pdfrwt>
<pdfrwt beam="2">0</pdfrwt>
<totfact> 0.80401254E+02</totfact>
</mgrwt>
</event>
<event>
 6    1  0.1347953E-004  0.5604398E+03  0.7818608E-02  0.9991060E-01
         21   -1    0    0  501  502  0.00000000000E+00  0.00000000000E+00  0.10794870952E+03  0.10794870952E+03  0.00000000000E+00 0.  1.
         13   -1    0    0    0    0 -0.00000000000E+00 -0.00000000000E+00 -0.10000000000E+04  0.10000000000E+04  0.00000000000E+00 0.  1.
    9000005    2    1    2  501    0  0.67900511903E+01 -0.22770180454E+02 -0.91623324389E+03  0.10740466036E+04  0.55993585672E+03 0.  0.
         13    1    3    3    0    0 -0.16730532430E+03  0.11200941538E+03 -0.92816209080E+02  0.22170256954E+03  0.00000000000E+00 0.  1.
          3    1    3    3  501    0  0.17409537549E+03 -0.13477959583E+03 -0.82341703481E+03  0.85234403408E+03  0.00000000000E+00 0.  1.
         -3    1    1    2    0  502 -0.67900511903E+01  0.22770180454E+02  0.24181953411E+02  0.33902105891E+02  0.00000000000E+00 0. -1.
<mgrwt>
<rscale>  1 0.56043978E+03</rscale>
<asrwt>0</asrwt>
<pdfrwt beam="1">  1       21 0.16607493E-01 0.56043978E+03</pdfrwt>
<pdfrwt beam="2">0</pdfrwt>
<totfact> 0.32038160E+03</totfact>
</mgrwt>
</event>
<event>
 6    1  0.1347953E-004  0.6593349E+03  0.7818608E-02  0.9789419E-01
         21   -1    0    0  501  502  0.00000000000E+00  0.00000000000E+00  0.11680584470E+03  0.11680584470E+03  0.00000000000E+00 0.  1.
         13   -1    0    0    0    0 -0.00000000000E+00 -0.00000000000E+00 -0.10000000000E+04  0.10000000000E+04  0.00000000000E+00 0.  1.
    9000005    2    1    2  501    0  0.41062944279E+01 -0.21395847670E+02 -0.86894292046E+03  0.10907723731E+04  0.65897490608E+03 0.  0.
         13    1    3    3    0    0  0.32303934522E+03 -0.84084867119E+02 -0.41909811889E+03  0.53578719348E+03  0.00000000000E+00 0.  1.
          3    1    3    3  501    0 -0.31893305079E+03  0.62689019449E+02 -0.44984480158E+03  0.55498517958E+03  0.00000000000E+00 0.  1.
         -1    1    1    2    0  502 -0.41062944279E+01  0.21395847670E+02 -0.14251234836E+02  0.26033471644E+02  0.00000000000E+00 0. -1.
<mgrwt>
<rscale>  1 0.65933495E+03</rscale>
<asrwt>0</asrwt>
<pdfrwt beam="1">  1       21 0.17970129E-01 0.65933495E+03</pdfrwt>
<pdfrwt beam="2">0</pdfrwt>
<totfact> 0.27516673E+03</totfact>
</mgrwt>
</event>
<event>
 6    1  0.1347953E-004  0.6539065E+03  0.7818608E-02  0.9799476E-01
         21   -1    0    0  501  502  0.00000000000E+00  0.00000000000E+00  0.12270573369E+03  0.12270573369E+03  0.00000000000E+00 0.  1.
         13   -1    0    0    0    0 -0.00000000000E+00 -0.00000000000E+00 -0.10000000000E+04  0.10000000000E+04  0.00000000000E+00 0.  1.
    9000005    2    1    2  501    0  0.87011781117E+01  0.26180072460E+02 -0.87842907223E+03  0.10950942419E+04  0.65332431227E+03 0.  0.
         13    1    3    3    0    0 -0.30451649892E+03 -0.66651936520E+02 -0.31094047259E+03  0.44029167180E+03  0.00000000000E+00 0.  1.
          1    1    3    3  501    0  0.31321767703E+03  0.92832008980E+02 -0.56748859964E+03  0.65480257010E+03  0.00000000000E+00 0.  1.
         -1    1    1    2    0  502 -0.87011781117E+01 -0.26180072460E+02  0.11348059238E+01  0.27611491793E+02  0.00000000000E+00 0. -1.
<mgrwt>
<rscale>  1 0.65390654E+03</rscale>
<asrwt>0</asrwt>
<pdfrwt beam="1">  1       21 0.18877805E-01 0.65390654E+03</pdfrwt>
<pdfrwt beam="2">0</pdfrwt>
<totfact> 0.25059479E+03</totfact>
</mgrwt>
</event>
<event>
 6    1  0.1347953E-004  0.6485352E+03  0.7818608E-02  0.9809532E-01
         21   -1    0    0  501  502  0.00000000000E+00  0.00000000000E+00  0.11618550383E+03  0.11618550383E+03  0.00000000000E+00 0.  1.
         13   -1    0    0    0    0 -0.00000000000E+00 -0.00000000000E+00 -0.10000000000E+04  0.10000000000E+04  0.00000000000E+00 0.  1.
    9000005    2    1    2  501    0  0.28939170728E+02 -0.11936081467E+02 -0.82332024441E+03  0.10480716276E+04  0.64777925717E+03 0.  0.
         13    1    3    3    0    0  0.40161273935E+02 -0.32592100546E+03 -0.34970487585E+03  0.47971963679E+03  0.00000000000E+00 0.  1.
          3    1    3    3  501    0 -0.11222103206E+02  0.31398492399E+03 -0.47361536856E+03  0.56835199079E+03  0.00000000000E+00 0.  1.
         -1    1    1    2    0  502 -0.28939170728E+02  0.11936081467E+02 -0.60494251757E+02  0.68113876258E+02  0.00000000000E+00 0. -1.
<mgrwt>
<rscale>  1 0.64853520E+03</rscale>
<asrwt>0</asrwt>
<pdfrwt beam="1">  1       21 0.17874692E-01 0.64853520E+03</pdfrwt>
<pdfrwt beam="2">0</pdfrwt>
<totfact> 0.27805906E+03</totfact>
</mgrwt>
</event>
<event>
 6    1  0.1347953E-004  0.6559936E+03  0.7818608E-02  0.9795597E-01
         21   -1    0    0  501  502  0.00000000000E+00  0.00000000000E+00  0.12653936324E+03  0.12653936324E+03  0.00000000000E+00 0.  1.
         13   -1    0    0    0    0 -0.00000000000E+00 -0.00000000000E+00 -0.10000000000E+04  0.10000000000E+04  0.00000000000E+00 0.  1.
    9000005    2    1    2  501    0  0.50365497349E+01  0.22859528632E+02 -0.88404764402E+03  0.11008487111E+04  0.65557587131E+03 0.  0.
         13    1    3    3    0    0 -0.17683340894E+03  0.43532965684E+02  0.15589864701E+02  0.18277914952E+03  0.00000000000E+00 0.  1.
          1    1    3    3  501    0  0.18186995868E+03 -0.20673437051E+02 -0.89963750872E+03  0.91806956162E+03  0.00000000000E+00 0.  1.
         -1    1    1    2    0  502 -0.50365497349E+01 -0.22859528632E+02  0.10587007264E+02  0.25690652100E+02  0.00000000000E+00 0. -1.
<mgrwt>
<rscale>  1 0.65599363E+03</rscale>
<asrwt>0</asrwt>
<pdfrwt beam="1">  1       21 0.19467594E-01 0.65599363E+03</pdfrwt>
<pdfrwt beam="2">0</pdfrwt>
<totfact> 0.23627387E+03</totfact>
</mgrwt>
</event>
<event>
 6    1  0.1347953E-004  0.6565052E+03  0.7818608E-02  0.9794649E-01
         21   -1    0    0  501  502  0.00000000000E+00  0.00000000000E+00  0.15433062940E+03  0.15433062940E+03  0.00000000000E+00 0.  1.
         13   -1    0    0    0    0 -0.00000000000E+00 -0.00000000000E+00 -0.10000000000E+04  0.10000000000E+04  0.00000000000E+00 0.  1.
    9000005    2    1    2  501    0  0.21251280427E+02  0.97316240551E+02 -0.82192263050E+03  0.10519295783E+04  0.64890443028E+03 0.  0.
         13    1    3    3    0    0 -0.15529258567E+02 -0.21602156626E+03 -0.56187697899E+02  0.22374881531E+03  0.00000000000E+00 0.  1.
          1    1    3    3  501    0  0.36780538994E+02  0.31333780681E+03 -0.76573493260E+03  0.82818076302E+03  0.00000000000E+00 0.  1.
         -3    1    1    2    0  502 -0.21251280427E+02 -0.97316240551E+02 -0.23746740101E+02  0.10240105107E+03  0.00000000000E+00 0. -1.
<mgrwt>
<rscale>  1 0.65650516E+03</rscale>
<asrwt>0</asrwt>
<pdfrwt beam="1">  1       21 0.23743173E-01 0.65650516E+03</pdfrwt>
<pdfrwt beam="2">0</pdfrwt>
<totfact> 0.16101637E+03</totfact>
</mgrwt>
</event>
<event>
 6    1  0.1347953E-004  0.6576621E+03  0.7818608E-02  0.9792507E-01
         21   -1    0    0  501  502  0.00000000000E+00  0.00000000000E+00  0.13890639105E+03  0.13890639105E+03  0.00000000000E+00 0. -1.
         13   -1    0    0    0    0 -0.00000000000E+00 -0.00000000000E+00 -0.10000000000E+04  0.10000000000E+04  0.00000000000E+00 0.  1.
    9000005    2    1    2  501    0  0.50652324788E+02 -0.68474007727E+02 -0.79032715610E+03  0.10281713984E+04  0.65212350299E+03 0.  0.
         13    1    3    3    0    0  0.24082589889E+03 -0.22005411823E+03 -0.69352935835E+03  0.76642279417E+03  0.00000000000E+00 0.  1.
          1    1    3    3  501    0 -0.19017357410E+03  0.15158011050E+03 -0.96797797747E+02  0.26174860427E+03  0.00000000000E+00 0.  1.
         -3    1    1    2    0  502 -0.50652324788E+02  0.68474007727E+02 -0.70766452846E+02  0.11073499261E+03  0.00000000000E+00 0. -1.
<mgrwt>
<rscale>  1 0.65766208E+03</rscale>
<asrwt>0</asrwt>
<pdfrwt beam="1">  1       21 0.21370213E-01 0.65766208E+03</pdfrwt>
<pdfrwt beam="2">0</pdfrwt>
<totfact> 0.19750094E+03</totfact>
</mgrwt>
</event>
<event>
 6    1  0.1347953E-004  0.6097583E+03  0.7818608E-02  0.9885365E-01
         21   -1    0    0  501  502  0.00000000000E+00  0.00000000000E+00  0.13865833654E+03  0.13865833654E+03  0.00000000000E+00 0.  1.
         13   -1    0    0    0    0 -0.00000000000E+00 -0.00000000000E+00 -0.10000000000E+04  0.10000000000E+04  0.00000000000E+00 0.  1.
    9000005    2    1    2  501    0  0.94727369367E+01 -0.19671245532E+02 -0.90418307077E+03  0.10905742765E+04  0.60936732481E+03 0.  0.
         13    1    3    3    0    0 -0.21961144735E+03 -0.14725665548E+03 -0.72835361514E+03  0.77486301955E+03  0.00000000000E+00 0.  1.
          3    1    3    3  501    0  0.22908418429E+03  0.12758540994E+03 -0.17582945563E+03  0.31571125699E+03  0.00000000000E+00 0.  1.
         -3    1    1    2    0  502 -0.94727369367E+01  0.19671245532E+02  0.42841407301E+02  0.48084059993E+02  0.00000000000E+00 0. -1.
<mgrwt>
<rscale>  1 0.60975834E+03</rscale>
<asrwt>0</asrwt>
<pdfrwt beam="1">  1       21 0.21332051E-01 0.60975834E+03</pdfrwt>
<pdfrwt beam="2">0</pdfrwt>
<totfact> 0.19860142E+03</totfact>
</mgrwt>
</event>
<event>
 6    1  0.1347953E-004  0.5920233E+03  0.7818608E-02  0.9922095E-01
         21   -1    0    0  501  502  0.00000000000E+00  0.00000000000E+00  0.98981368398E+02  0.98981368398E+02  0.00000000000E+00 0.  1.
         13   -1    0    0    0    0 -0.00000000000E+00 -0.00000000000E+00 -0.10000000000E+04  0.10000000000E+04  0.00000000000E+00 0.  1.
    9000005    2    1    2  501    0  0.29047187214E+02 -0.39930145611E+01 -0.88714380888E+03  0.10665438291E+04  0.59129681083E+03 0.  0.
         13    1    3    3    0    0  0.13812429706E+03 -0.26824471715E+03 -0.39028265295E+03  0.49330933390E+03  0.00000000000E+00 0.  1.
          1    1    3    3  501    0 -0.10907710984E+03  0.26425170259E+03 -0.49686115593E+03  0.57323449520E+03  0.00000000000E+00 0.  1.
         -1    1    1    2    0  502 -0.29047187214E+02  0.39930145611E+01 -0.13874822721E+02  0.32437539301E+02  0.00000000000E+00 0. -1.
<mgrwt>
<rscale>  1 0.59202331E+03</rscale>
<asrwt>0</asrwt>
<pdfrwt beam="1">  1       21 0.15227902E-01 0.59202331E+03</pdfrwt>
<pdfrwt beam="2">0</pdfrwt>
<totfact> 0.37655676E+03</totfact>
</mgrwt>
</event>
<event>
 6    1  0.1347953E-004  0.7154119E+03  0.7818608E-02  0.9691233E-01
         21   -1    0    0  501  502  0.00000000000E+00  0.00000000000E+00  0.27078737061E+03  0.27078737061E+03  0.00000000000E+00 0. -1.
         13   -1    0    0    0    0 -0.00000000000E+00 -0.00000000000E+00 -0.10000000000E+04  0.10000000000E+04  0.00000000000E+00 0.  1.
    9000005    2    1    2  501    0  0.27665476955E+03  0.11822118944E+03 -0.63207866279E+03  0.95464006537E+03  0.64907634936E+03 0.  0.
         13    1    3    3    0    0  0.35440150490E+03  0.21687838378E+03 -0.12743552754E+03  0.43459921042E+03  0.00000000000E+00 0.  1.
          1    1    3    3  501    0 -0.77746735344E+02 -0.98657194336E+02 -0.50464313525E+03  0.52004085494E+03  0.00000000000E+00 0.  1.
         -1    1    1    2    0  502 -0.27665476955E+03 -0.11822118944E+03 -0.97133966594E+02  0.31614730525E+03  0.00000000000E+00 0. -1.
<mgrwt>
<rscale>  1 0.71541192E+03</rscale>
<asrwt>0</asrwt>
<pdfrwt beam="1">  1       21 0.41659594E-01 0.71541192E+03</pdfrwt>
<pdfrwt beam="2">0</pdfrwt>
<totfact> 0.51621405E+02</totfact>
</mgrwt>
</event>
<event>
 6    1  0.1347953E-004  0.6785388E+03  0.7818608E-02  0.9754654E-01
         21   -1    0    0  501  502  0.00000000000E+00  0.00000000000E+00  0.24717284105E+03  0.24717284105E+03  0.00000000000E+00 0. -1.
         13   -1    0    0    0    0 -0.00000000000E+00 -0.00000000000E+00 -0.10000000000E+04  0.10000000000E+04  0.00000000000E+00 0.  1.
    9000005    2    1    2  501    0 -0.10076887716E+03 -0.17158516579E+03 -0.79351414439E+03  0.10440687630E+04  0.64870567199E+03 0.  0.
         13    1    3    3    0    0 -0.27975712792E+02 -0.17488539090E+02 -0.86036798896E+03  0.86100032864E+03  0.00000000000E+00 0.  1.
          3    1    3    3  501    0 -0.72793164370E+02 -0.15409662670E+03  0.66853844560E+02  0.18306843439E+03  0.00000000000E+00 0.  1.
         -3    1    1    2    0  502  0.10076887716E+03  0.17158516579E+03  0.40686985446E+02  0.20310407802E+03  0.00000000000E+00 0. -1.
<mgrwt>
<rscale>  1 0.67853879E+03</rscale>
<asrwt>0</asrwt>
<pdfrwt beam="1">  1       21 0.38026590E-01 0.67853879E+03</pdfrwt>
<pdfrwt beam="2">0</pdfrwt>
<totfact> 0.62569150E+02</totfact>
</mgrwt>
</event>
<event>
 6    1  0.1347953E-004  0.6177807E+03  0.7818608E-02  0.9869188E-01
         21   -1    0    0  501  502  0.00000000000E+00  0.00000000000E+00  0.14978670333E+03  0.14978670333E+03  0.00000000000E+00 0.  1.
         13   -1    0    0    0    0 -0.00000000000E+00 -0.00000000000E+00 -0.10000000000E+04  0.10000000000E+04  0.00000000000E+00 0.  1.
    9000005    2    1    2  501    0  0.35366168123E+02  0.88684930450E+02 -0.85424662166E+03  0.10542249409E+04  0.61035821659E+03 0.  0.
         13    1    3    3    0    0  0.31339556658E+03 -0.17723151611E+02 -0.51260627841E+03  0.60107910288E+03  0.00000000000E+00 0.  1.
          3    1    3    3  501    0 -0.27802939846E+03  0.10640808206E+03 -0.34164034326E+03  0.45314583797E+03  0.00000000000E+00 0.  1.
         -1    1    1    2    0  502 -0.35366168123E+02 -0.88684930450E+02  0.40333249904E+01  0.95561762474E+02  0.00000000000E+00 0. -1.
<mgrwt>
<rscale>  1 0.61778065E+03</rscale>
<asrwt>0</asrwt>
<pdfrwt beam="1">  1       21 0.23044108E-01 0.61778065E+03</pdfrwt>
<pdfrwt beam="2">0</pdfrwt>
<totfact> 0.17098434E+03</totfact>
</mgrwt>
</event>
<event>
 6    1  0.1347953E-004  0.6477727E+03  0.7818608E-02  0.9810968E-01
         21   -1    0    0  501  502  0.00000000000E+00  0.00000000000E+00  0.30626598535E+03  0.30626598535E+03  0.00000000000E+00 0.  1.
         13   -1    0    0    0    0 -0.00000000000E+00 -0.00000000000E+00 -0.10000000000E+04  0.10000000000E+04  0.00000000000E+00 0.  1.
    9000005    2    1    2  501    0  0.12378665592E+01  0.40642687018E+02 -0.89282671417E+03  0.11030634673E+04  0.64649525222E+03 0.  0.
         13    1    3    3    0    0  0.10176357066E+03 -0.82569857293E+02  0.54903994143E+02  0.14208467271E+03  0.00000000000E+00 0.  1.
          3    1    3    3  501    0 -0.10052570410E+03  0.12321254431E+03 -0.94773070831E+03  0.96097879464E+03  0.00000000000E+00 0.  1.
         -3    1    1    2    0  502 -0.12378665592E+01 -0.40642687018E+02  0.19909269952E+03  0.20320251801E+03  0.00000000000E+00 0. -1.
<mgrwt>
<rscale>  1 0.64777270E+03</rscale>
<asrwt>0</asrwt>
<pdfrwt beam="1">  1       21 0.47117843E-01 0.64777270E+03</pdfrwt>
<pdfrwt beam="2">0</pdfrwt>
<totfact> 0.40045001E+02</totfact>
</mgrwt>
</event>
<event>
 6    1  0.1347953E-004  0.6172643E+03  0.7818608E-02  0.9870222E-01
         21   -1    0    0  501  502  0.00000000000E+00  0.00000000000E+00  0.10785877733E+03  0.10785877733E+03  0.00000000000E+00 0.  1.
         13   -1    0    0    0    0 -0.00000000000E+00 -0.00000000000E+00 -0.10000000000E+04  0.10000000000E+04  0.00000000000E+00 0.  1.
    9000005    2    1    2  501    0  0.23306104123E+02 -0.18345221052E+02 -0.88194443956E+03  0.10764948488E+04  0.61655124968E+03 0.  0.
         13    1    3    3    0    0 -0.18573149935E+03  0.22478299500E+03 -0.48894996254E+03  0.56929399308E+03  0.00000000000E+00 0.  1.
          1    1    3    3  501    0  0.20903760347E+03 -0.24312821606E+03 -0.39299447702E+03  0.50720085575E+03  0.00000000000E+00 0.  1.
         -3    1    1    2    0  502 -0.23306104123E+02  0.18345221052E+02 -0.10196783113E+02  0.31363928496E+02  0.00000000000E+00 0. -1.
<mgrwt>
<rscale>  1 0.61726426E+03</rscale>
<asrwt>0</asrwt>
<pdfrwt beam="1">  1       21 0.16593658E-01 0.61726426E+03</pdfrwt>
<pdfrwt beam="2">0</pdfrwt>
<totfact> 0.32032001E+03</totfact>
</mgrwt>
</event>
<event>
 6    1  0.1347953E-004  0.6684800E+03  0.7818608E-02  0.9772708E-01
         21   -1    0    0  501  502  0.00000000000E+00  0.00000000000E+00  0.16705633596E+03  0.16705633596E+03  0.00000000000E+00 0.  1.
         13   -1    0    0    0    0 -0.00000000000E+00 -0.00000000000E+00 -0.10000000000E+04  0.10000000000E+04  0.00000000000E+00 0.  1.
    9000005    2    1    2  501    0 -0.10940334799E+03  0.92021727309E+02 -0.73635293930E+03  0.99452558811E+03  0.65301485691E+03 0.  0.
         13    1    3    3    0    0  0.10151551778E+03  0.14533898760E+03 -0.75560352914E+03  0.77612210052E+03  0.00000000000E+00 0.  1.
          3    1    3    3  501    0 -0.21091886577E+03 -0.53317260291E+02  0.19250589835E+02  0.21840348759E+03  0.00000000000E+00 0.  1.
         -3    1    1    2    0  502  0.10940334799E+03 -0.92021727309E+02 -0.96590724736E+02  0.17253074785E+03  0.00000000000E+00 0. -1.
<mgrwt>
<rscale>  1 0.66847999E+03</rscale>
<asrwt>0</asrwt>
<pdfrwt beam="1">  1       21 0.25700974E-01 0.66847999E+03</pdfrwt>
<pdfrwt beam="2">0</pdfrwt>
<totfact> 0.13778827E+03</totfact>
</mgrwt>
</event>
<event>
 6    1  0.1347953E-004  0.6560903E+03  0.7818608E-02  0.9795418E-01
         21   -1    0    0  501  502  0.00000000000E+00  0.00000000000E+00  0.19875731410E+03  0.19875731410E+03  0.00000000000E+00 0. -1.
         13   -1    0    0    0    0 -0.00000000000E+00 -0.00000000000E+00 -0.10000000000E+04  0.10000000000E+04  0.00000000000E+00 0.  1.
    9000005    2    1    2  501    0 -0.43880636738E+01  0.60780829969E+02 -0.88095209964E+03  0.10984221008E+04  0.65325411994E+03 0.  0.
         13    1    3    3    0    0 -0.15155753638E+02  0.84031084825E+02 -0.98630702284E+03  0.98999619362E+03  0.00000000000E+00 0.  1.
          1    1    3    3  501    0  0.10767689964E+02 -0.23250254856E+02  0.10535492320E+03  0.10842590715E+03  0.00000000000E+00 0.  1.
         -1    1    1    2    0  502  0.43880636738E+01 -0.60780829969E+02  0.79709413732E+02  0.10033521332E+03  0.00000000000E+00 0. -1.
<mgrwt>
<rscale>  1 0.65609032E+03</rscale>
<asrwt>0</asrwt>
<pdfrwt beam="1">  1       21 0.30578047E-01 0.65609032E+03</pdfrwt>
<pdfrwt beam="2">0</pdfrwt>
<totfact> 0.97633335E+02</totfact>
</mgrwt>
</event>
<event>
 6    1  0.1347953E-004  0.6469651E+03  0.7818608E-02  0.9812491E-01
         21   -1    0    0  501  502  0.00000000000E+00  0.00000000000E+00  0.35693831109E+03  0.35693831109E+03  0.00000000000E+00 0. -1.
         13   -1    0    0    0    0 -0.00000000000E+00 -0.00000000000E+00 -0.10000000000E+04  0.10000000000E+04  0.00000000000E+00 0.  1.
    9000005    2    1    2  501    0  0.59021431279E+02  0.24289658480E+01 -0.89153280947E+03  0.11015418996E+04  0.64426266155E+03 0.  0.
         13    1    3    3    0    0  0.19697658003E+03 -0.13395200554E+03 -0.57233721584E+02  0.24498696242E+03  0.00000000000E+00 0.  1.
          3    1    3    3  501    0 -0.13795514875E+03  0.13638097139E+03 -0.83429908789E+03  0.85655493722E+03  0.00000000000E+00 0.  1.
         -3    1    1    2    0  502 -0.59021431279E+02 -0.24289658480E+01  0.24847112057E+03  0.25539641145E+03  0.00000000000E+00 0. -1.
<mgrwt>
<rscale>  1 0.64696507E+03</rscale>
<asrwt>0</asrwt>
<pdfrwt beam="1">  1       21 0.54913585E-01 0.64696507E+03</pdfrwt>
<pdfrwt beam="2">0</pdfrwt>
<totfact> 0.28817176E+02</totfact>
</mgrwt>
</event>
<event>
 6    1  0.1347953E-004  0.6358070E+03  0.7818608E-02  0.9833782E-01
         21   -1    0    0  501  502  0.00000000000E+00  0.00000000000E+00  0.14342940452E+03  0.14342940452E+03  0.00000000000E+00 0. -1.
         13   -1    0    0    0    0 -0.00000000000E+00 -0.00000000000E+00 -0.10000000000E+04  0.10000000000E+04  0.00000000000E+00 0.  1.
    9000005    2    1    2  501    0 -0.18017461338E+02  0.12634580530E+02 -0.89576836334E+03  0.10984769124E+04  0.63542608137E+03 0.  0.
         13    1    3    3    0    0  0.20528158496E+03  0.90067029491E+01 -0.34040038862E+02  0.20827955749E+03  0.00000000000E+00 0.  1.
          3    1    3    3  501    0 -0.22329904630E+03  0.36278775811E+01 -0.86172832448E+03  0.89019735496E+03  0.00000000000E+00 0.  1.
         -3    1    1    2    0  502  0.18017461338E+02 -0.12634580530E+02  0.39197767861E+02  0.44952492073E+02  0.00000000000E+00 0. -1.
<mgrwt>
<rscale>  1 0.63580702E+03</rscale>
<asrwt>0</asrwt>
<pdfrwt beam="1">  1       21 0.22066062E-01 0.63580702E+03</pdfrwt>
<pdfrwt beam="2">0</pdfrwt>
<totfact> 0.18582098E+03</totfact>
</mgrwt>
</event>
<event>
 6    1  0.1347953E-004  0.6533654E+03  0.7818608E-02  0.9800485E-01
         21   -1    0    0  501  502  0.00000000000E+00  0.00000000000E+00  0.19709038111E+03  0.19709038111E+03  0.00000000000E+00 0. -1.
         13   -1    0    0    0    0 -0.00000000000E+00 -0.00000000000E+00 -0.10000000000E+04  0.10000000000E+04  0.00000000000E+00 0.  1.
    9000005    2    1    2  501    0 -0.12123404899E+02  0.16489853322E+02 -0.89199400500E+03  0.11056851293E+04  0.65304472128E+03 0.  0.
         13    1    3    3    0    0  0.28190586331E+03  0.90823630262E+02 -0.22166072363E+03  0.36993691893E+03  0.00000000000E+00 0.  1.
          1    1    3    3  501    0 -0.29402926821E+03 -0.74333776940E+02 -0.67033328137E+03  0.73574821038E+03  0.00000000000E+00 0.  1.
         -3    1    1    2    0  502  0.12123404899E+02 -0.16489853322E+02  0.89084386110E+02  0.91405251805E+02  0.00000000000E+00 0. -1.
<mgrwt>
<rscale>  1 0.65336537E+03</rscale>
<asrwt>0</asrwt>
<pdfrwt beam="1">  1       21 0.30321596E-01 0.65336537E+03</pdfrwt>
<pdfrwt beam="2">0</pdfrwt>
<totfact> 0.99313711E+02</totfact>
</mgrwt>
</event>
<event>
 6    1  0.1347953E-004  0.6535477E+03  0.7818608E-02  0.9800145E-01
         21   -1    0    0  501  502  0.00000000000E+00  0.00000000000E+00  0.16529399346E+03  0.16529399346E+03  0.00000000000E+00 0. -1.
         13   -1    0    0    0    0 -0.00000000000E+00 -0.00000000000E+00 -0.10000000000E+04  0.10000000000E+04  0.00000000000E+00 0.  1.
    9000005    2    1    2  501    0  0.15671668386E+02 -0.68595407922E+02 -0.86874856788E+03  0.10871286101E+04  0.64974888184E+03 0.  0.
         13    1    3    3    0    0  0.26185838439E+03  0.12170291882E+03 -0.63621775669E+03  0.69868050484E+03  0.00000000000E+00 0.  1.
          3    1    3    3  501    0 -0.24618671601E+03 -0.19029832674E+03 -0.23253081119E+03  0.38844810522E+03  0.00000000000E+00 0.  1.
         -1    1    1    2    0  502 -0.15671668386E+02  0.68595407922E+02  0.34042561341E+02  0.78165383391E+02  0.00000000000E+00 0. -1.
<mgrwt>
<rscale>  1 0.65354766E+03</rscale>
<asrwt>0</asrwt>
<pdfrwt beam="1">  1       21 0.25429844E-01 0.65354766E+03</pdfrwt>
<pdfrwt beam="2">0</pdfrwt>
<totfact> 0.14080095E+03</totfact>
</mgrwt>
</event>
<event>
 6    1  0.1347953E-004  0.6647026E+03  0.7818608E-02  0.9779575E-01
         21   -1    0    0  501  502  0.00000000000E+00  0.00000000000E+00  0.22956172905E+03  0.22956172905E+03  0.00000000000E+00 0.  1.
         13   -1    0    0    0    0 -0.00000000000E+00 -0.00000000000E+00 -0.10000000000E+04  0.10000000000E+04  0.00000000000E+00 0.  1.
    9000005    2    1    2  501    0 -0.11515375241E+03 -0.37796515683E+02 -0.85411379535E+03  0.10822845866E+04  0.65355993435E+03 0.  0.
         13    1    3    3    0    0  0.26585585783E+03 -0.19226390678E+02 -0.23639196782E+03  0.35627258341E+03  0.00000000000E+00 0.  1.
          3    1    3    3  501    0 -0.38100961024E+03 -0.18570125005E+02 -0.61772182753E+03  0.72601200323E+03  0.00000000000E+00 0.  1.
         -1    1    1    2    0  502  0.11515375241E+03  0.37796515683E+02  0.83675524401E+02  0.14727714241E+03  0.00000000000E+00 0. -1.
<mgrwt>
<rscale>  1 0.66470260E+03</rscale>
<asrwt>0</asrwt>
<pdfrwt beam="1">  1       21 0.35317188E-01 0.66470260E+03</pdfrwt>
<pdfrwt beam="2">0</pdfrwt>
<totfact> 0.72891564E+02</totfact>
</mgrwt>
</event>
<event>
 6    1  0.1347953E-004  0.6593430E+03  0.7818608E-02  0.9789404E-01
         21   -1    0    0  501  502  0.00000000000E+00  0.00000000000E+00  0.16270908965E+03  0.16270908965E+03  0.00000000000E+00 0. -1.
         13   -1    0    0    0    0 -0.00000000000E+00 -0.00000000000E+00 -0.10000000000E+04  0.10000000000E+04  0.00000000000E+00 0.  1.
    9000005    2    1    2  501    0 -0.14144183787E+02 -0.27965989928E+02 -0.88622848092E+03  0.11045967817E+04  0.65859773392E+03 0.  0.
         13    1    3    3    0    0  0.94018714103E+02  0.17719269502E+03 -0.84569192486E+03  0.86915568314E+03  0.00000000000E+00 0.  1.
          1    1    3    3  501    0 -0.10816289789E+03 -0.20515868495E+03 -0.40536556060E+02  0.23544109851E+03  0.00000000000E+00 0.  1.
         -3    1    1    2    0  502  0.14144183787E+02  0.27965989928E+02  0.48937570572E+02  0.58112308001E+02  0.00000000000E+00 0. -1.
<mgrwt>
<rscale>  1 0.65934295E+03</rscale>
<asrwt>0</asrwt>
<pdfrwt beam="1">  1       21 0.25032167E-01 0.65934295E+03</pdfrwt>
<pdfrwt beam="2">0</pdfrwt>
<totfact> 0.14518041E+03</totfact>
</mgrwt>
</event>
<event>
 6    1  0.1347953E-004  0.6755675E+03  0.7818608E-02  0.9759952E-01
         21   -1    0    0  501  502  0.00000000000E+00  0.00000000000E+00  0.20722614682E+03  0.20722614682E+03  0.00000000000E+00 0.  1.
         13   -1    0    0    0    0 -0.00000000000E+00 -0.00000000000E+00 -0.10000000000E+04  0.10000000000E+04  0.00000000000E+00 0.  1.
    9000005    2    1    2  501    0 -0.82539825170E+02 -0.15641229182E+03 -0.77707171752E+03  0.10296756333E+04  0.65200753675E+03 0.  0.
         13    1    3    3    0    0  0.75341843139E+02 -0.51470016949E+02 -0.82829069264E+03  0.83330128254E+03  0.00000000000E+00 0.  1.
          3    1    3    3  501    0 -0.15788166831E+03 -0.10494227487E+03  0.51218975122E+02  0.19637435081E+03  0.00000000000E+00 0.  1.
         -3    1    1    2    0  502  0.82539825170E+02  0.15641229182E+03 -0.15702135661E+02  0.17755051348E+03  0.00000000000E+00 0. -1.
<mgrwt>
<rscale>  1 0.67556751E+03</rscale>
<asrwt>0</asrwt>
<pdfrwt beam="1">  1       21 0.31880945E-01 0.67556751E+03</pdfrwt>
<pdfrwt beam="2">0</pdfrwt>
<totfact> 0.89658982E+02</totfact>
</mgrwt>
</event>
<event>
 6    1  0.1347953E-004  0.6573852E+03  0.7818608E-02  0.9793019E-01
         21   -1    0    0  501  502  0.00000000000E+00  0.00000000000E+00  0.59243222128E+03  0.59243222128E+03  0.00000000000E+00 0. -1.
         13   -1    0    0    0    0 -0.00000000000E+00 -0.00000000000E+00 -0.10000000000E+04  0.10000000000E+04  0.00000000000E+00 0.  1.
    9000005    2    1    2  501    0 -0.20643529720E+02  0.15394416927E+02 -0.89158190252E+03  0.11077335361E+04  0.65688062438E+03 0.  0.
         13    1    3    3    0    0 -0.29861195183E+03  0.11702954296E+03 -0.26983598452E+03  0.41913777000E+03  0.00000000000E+00 0.  1.
          3    1    3    3  501    0  0.27796842211E+03 -0.10163512603E+03 -0.62174591800E+03  0.68859576609E+03  0.00000000000E+00 0.  1.
         -3    1    1    2    0  502  0.20643529720E+02 -0.15394416927E+02  0.48401412380E+03  0.48469868519E+03  0.00000000000E+00 0. -1.
<mgrwt>
<rscale>  1 0.65738520E+03</rscale>
<asrwt>0</asrwt>
<pdfrwt beam="1">  1       21 0.91143416E-01 0.65738520E+03</pdfrwt>
<pdfrwt beam="2">0</pdfrwt>
<totfact> 0.90696408E+01</totfact>
</mgrwt>
</event>
<event>
 6    1  0.1347953E-004  0.6522594E+03  0.7818608E-02  0.9802549E-01
         21   -1    0    0  501  502  0.00000000000E+00  0.00000000000E+00  0.15761165184E+03  0.15761165184E+03  0.00000000000E+00 0.  1.
         13   -1    0    0    0    0 -0.00000000000E+00 -0.00000000000E+00 -0.10000000000E+04  0.10000000000E+04  0.00000000000E+00 0.  1.
    9000005    2    1    2  501    0 -0.57799794134E+02  0.74635315553E+02 -0.83957664441E+03  0.10631703886E+04  0.64539219609E+03 0.  0.
         13    1    3    3    0    0  0.11466237542E+03  0.17411726596E+03 -0.83854209118E+03  0.86407009052E+03  0.00000000000E+00 0.  1.
          1    1    3    3  501    0 -0.17246216956E+03 -0.99481950411E+02 -0.10345532285E+01  0.19910029806E+03  0.00000000000E+00 0.  1.
         -3    1    1    2    0  502  0.57799794134E+02 -0.74635315553E+02 -0.28117037438E+01  0.94441263268E+02  0.00000000000E+00 0. -1.
<mgrwt>
<rscale>  1 0.65225941E+03</rscale>
<asrwt>0</asrwt>
<pdfrwt beam="1">  1       21 0.24247946E-01 0.65225941E+03</pdfrwt>
<pdfrwt beam="2">0</pdfrwt>
<totfact> 0.15456998E+03</totfact>
</mgrwt>
</event>
<event>
 6    1  0.1347953E-004  0.6429938E+03  0.7818608E-02  0.9820015E-01
         21   -1    0    0  501  502  0.00000000000E+00  0.00000000000E+00  0.20131278897E+03  0.20131278897E+03  0.00000000000E+00 0. -1.
         13   -1    0    0    0    0 -0.00000000000E+00 -0.00000000000E+00 -0.10000000000E+04  0.10000000000E+04  0.00000000000E+00 0.  1.
    9000005    2    1    2  501    0 -0.19229558896E+02 -0.13149733892E+02 -0.89510906070E+03  0.11021166977E+04  0.64257162502E+03 0.  0.
         13    1    3    3    0    0 -0.37387716786E+02  0.16723473474E+03  0.16963128897E+02  0.17220059701E+03  0.00000000000E+00 0.  1.
          3    1    3    3  501    0  0.18158157890E+02 -0.18038446863E+03 -0.91207218960E+03  0.92991610065E+03  0.00000000000E+00 0.  1.
         -1    1    1    2    0  502  0.19229558896E+02  0.13149733892E+02  0.96421849673E+02  0.99196091309E+02  0.00000000000E+00 0. -1.
<mgrwt>
<rscale>  1 0.64299377E+03</rscale>
<asrwt>0</asrwt>
<pdfrwt beam="1">  1       21 0.30971197E-01 0.64299377E+03</pdfrwt>
<pdfrwt beam="2">0</pdfrwt>
<totfact> 0.95241339E+02</totfact>
</mgrwt>
</event>
<event>
 6    1  0.1347953E-004  0.6494923E+03  0.7818608E-02  0.9807732E-01
         21   -1    0    0  501  502  0.00000000000E+00  0.00000000000E+00  0.78112827707E+03  0.78112827707E+03  0.00000000000E+00 0. -1.
         13   -1    0    0    0    0 -0.00000000000E+00 -0.00000000000E+00 -0.10000000000E+04  0.10000000000E+04  0.00000000000E+00 0.  1.
    9000005    2    1    2  501    0 -0.24596455977E+02  0.42017311925E+02 -0.89357017102E+03  0.11046754435E+04  0.64766483992E+03 0.  0.
         13    1    3    3    0    0 -0.27405227388E+03 -0.14497003180E+03 -0.28606192016E+03  0.42184402461E+03  0.00000000000E+00 0.  1.
          1    1    3    3  501    0  0.24945581790E+03  0.18698734372E+03 -0.60750825086E+03  0.68283141892E+03  0.00000000000E+00 0.  1.
         -3    1    1    2    0  502  0.24596455977E+02 -0.42017311925E+02  0.67469844808E+03  0.67645283353E+03  0.00000000000E+00 0. -1.
<mgrwt>
<rscale>  1 0.64949225E+03</rscale>
<asrwt>0</asrwt>
<pdfrwt beam="1">  1       21 0.12017358E+00 0.64949225E+03</pdfrwt>
<pdfrwt beam="2">0</pdfrwt>
<totfact> 0.45758829E+01</totfact>
</mgrwt>
</event>
<event>
 6    1  0.1347953E-004  0.6565939E+03  0.7818608E-02  0.9794484E-01
         21   -1    0    0  501  502  0.00000000000E+00  0.00000000000E+00  0.16998373597E+03  0.16998373597E+03  0.00000000000E+00 0. -1.
         13   -1    0    0    0    0 -0.00000000000E+00 -0.00000000000E+00 -0.10000000000E+04  0.10000000000E+04  0.00000000000E+00 0.  1.
    9000005    2    1    2  501    0  0.78594951510E+02 -0.81515883051E+02 -0.82798881671E+03  0.10567312917E+04  0.64675616475E+03 0.  0.
         13    1    3    3    0    0 -0.96881214759E+02 -0.33064041492E+03 -0.36023161397E+03  0.49847353937E+03  0.00000000000E+00 0.  1.
          3    1    3    3  501    0  0.17547616627E+03  0.24912453187E+03 -0.46775720274E+03  0.55825775231E+03  0.00000000000E+00 0.  1.
         -3    1    1    2    0  502 -0.78594951510E+02  0.81515883051E+02 -0.20274473216E+01  0.11325244428E+03  0.00000000000E+00 0. -1.
<mgrwt>
<rscale>  1 0.65659389E+03</rscale>
<asrwt>0</asrwt>
<pdfrwt beam="1">  1       21 0.26151343E-01 0.65659389E+03</pdfrwt>
<pdfrwt beam="2">0</pdfrwt>
<totfact> 0.13324050E+03</totfact>
</mgrwt>
</event>
<event>
 6    1  0.1347953E-004  0.6500535E+03  0.7818608E-02  0.9806679E-01
         21   -1    0    0  501  502  0.00000000000E+00  0.00000000000E+00  0.12648221454E+03  0.12648221454E+03  0.00000000000E+00 0.  1.
         13   -1    0    0    0    0 -0.00000000000E+00 -0.00000000000E+00 -0.10000000000E+04  0.10000000000E+04  0.00000000000E+00 0.  1.
    9000005    2    1    2  501    0 -0.33721405014E+02 -0.60222501453E+01 -0.87744052507E+03  0.10920034016E+04  0.64915033198E+03 0.  0.
         13    1    3    3    0    0  0.83117732405E+02  0.22804261737E+02 -0.94839313281E+03  0.95230148911E+03  0.00000000000E+00 0.  1.
          3    1    3    3  501    0 -0.11683913742E+03 -0.28826511882E+02  0.70952607740E+02  0.13970191253E+03  0.00000000000E+00 0.  1.
         -3    1    1    2    0  502  0.33721405014E+02  0.60222501453E+01  0.39227396161E+01  0.34478812901E+02  0.00000000000E+00 0. -1.
<mgrwt>
<rscale>  1 0.65005350E+03</rscale>
<asrwt>0</asrwt>
<pdfrwt beam="1">  1       21 0.19458802E-01 0.65005350E+03</pdfrwt>
<pdfrwt beam="2">0</pdfrwt>
<totfact> 0.23653079E+03</totfact>
</mgrwt>
</event>
<event>
 6    1  0.1347953E-004  0.6528385E+03  0.7818608E-02  0.9801467E-01
         21   -1    0    0  501  502  0.00000000000E+00  0.00000000000E+00  0.16261193784E+03  0.16261193784E+03  0.00000000000E+00 0. -1.
         13   -1    0    0    0    0 -0.00000000000E+00 -0.00000000000E+00 -0.10000000000E+04  0.10000000000E+04  0.00000000000E+00 0.  1.
    9000005    2    1    2  501    0 -0.20597145971E+02  0.22273913336E+02 -0.88887098040E+03  0.11028552603E+04  0.65213321934E+03 0.  0.
         13    1    3    3    0    0 -0.60815251691E+02 -0.30749845173E+03 -0.35034654975E+03  0.47010264579E+03  0.00000000000E+00 0.  1.
          3    1    3    3  501    0  0.40218105720E+02  0.32977236506E+03 -0.53852443065E+03  0.63275261453E+03  0.00000000000E+00 0.  1.
         -3    1    1    2    0  502  0.20597145971E+02 -0.22273913336E+02  0.51482918241E+02  0.59756677519E+02  0.00000000000E+00 0. -1.
<mgrwt>
<rscale>  1 0.65283850E+03</rscale>
<asrwt>0</asrwt>
<pdfrwt beam="1">  1       21 0.25017220E-01 0.65283850E+03</pdfrwt>
<pdfrwt beam="2">0</pdfrwt>
<totfact> 0.14539939E+03</totfact>
</mgrwt>
</event>
<event>
 6    1  0.1347953E-004  0.6481168E+03  0.7818608E-02  0.9810319E-01
         21   -1    0    0  501  502  0.00000000000E+00  0.00000000000E+00  0.24040867129E+03  0.24040867129E+03  0.00000000000E+00 0. -1.
         13   -1    0    0    0    0 -0.00000000000E+00 -0.00000000000E+00 -0.10000000000E+04  0.10000000000E+04  0.00000000000E+00 0.  1.
    9000005    2    1    2  501    0  0.30862377134E+02 -0.82545159933E+02 -0.87893497703E+03  0.10920540416E+04  0.64209745849E+03 0.  0.
         13    1    3    3    0    0 -0.27470440328E+03 -0.12144605201E+03 -0.62280411357E+03  0.69144530992E+03  0.00000000000E+00 0.  1.
          1    1    3    3  501    0  0.30556678041E+03  0.38900892073E+02 -0.25613086347E+03  0.40060873170E+03  0.00000000000E+00 0.  1.
         -3    1    1    2    0  502 -0.30862377134E+02  0.82545159933E+02  0.11934364833E+03  0.14835462968E+03  0.00000000000E+00 0. -1.
<mgrwt>
<rscale>  1 0.64811676E+03</rscale>
<asrwt>0</asrwt>
<pdfrwt beam="1">  1       21 0.36985948E-01 0.64811676E+03</pdfrwt>
<pdfrwt beam="2">0</pdfrwt>
<totfact> 0.66397516E+02</totfact>
</mgrwt>
</event>
<event>
 6    1  0.1347953E-004  0.6511792E+03  0.7818608E-02  0.9804569E-01
         21   -1    0    0  501  502  0.00000000000E+00  0.00000000000E+00  0.19991587388E+03  0.19991587388E+03  0.00000000000E+00 0. -1.
         13   -1    0    0    0    0 -0.00000000000E+00 -0.00000000000E+00 -0.10000000000E+04  0.10000000000E+04  0.00000000000E+00 0.  1.
    9000005    2    1    2  501    0  0.17430818171E+02 -0.16061030500E+02 -0.89233422983E+03  0.11046694999E+04  0.65074767472E+03 0.  0.
         13    1    3    3    0    0 -0.74793794850E+02  0.52658417564E+02  0.82436414648E+02  0.12313725329E+03  0.00000000000E+00 0.  1.
          1    1    3    3  501    0  0.92224613021E+02 -0.68719448064E+02 -0.97477064448E+03  0.98153224660E+03  0.00000000000E+00 0.  1.
         -3    1    1    2    0  502 -0.17430818171E+02  0.16061030500E+02  0.92250103711E+02  0.95246373986E+02  0.00000000000E+00 0. -1.
<mgrwt>
<rscale>  1 0.65117918E+03</rscale>
<asrwt>0</asrwt>
<pdfrwt beam="1">  1       21 0.30756287E-01 0.65117918E+03</pdfrwt>
<pdfrwt beam="2">0</pdfrwt>
<totfact> 0.96531250E+02</totfact>
</mgrwt>
</event>
